Protein in INSANE! Membrane UpperLeaflet>POPC=1.0 LowerLeaflet>POPC=1.0
241526
   81AUC    AUC    1  21.297  39.162   7.502
   82AUC    AUC    2  21.543  39.162   7.350
   83AUC    AUC    3  21.543  39.162   7.653
   84AUC    AUC    4  21.052  39.162   7.350
   85AUC    AUC    5  21.052  39.162   7.653
   86AUC    AUC    6  21.145  39.407   7.502
   87AUC    AUC    7  21.449  39.407   7.502
   88AUC    AUC    8  21.145  38.916   7.502
   89AUC    AUC    9  21.449  38.916   7.502
   90AUC    AUC   10  21.297  39.010   7.747
   91AUC    AUC   11  21.297  39.313   7.747
   92AUC    AUC   12  21.297  39.010   7.256
   93AUC    AUC   13  21.297  39.313   7.256
   94AUC    AUC   14  21.788  39.162   7.198
   95AUC    AUC   15  21.788  39.162   7.502
   96AUC    AUC   16  21.788  39.162   7.805
   97AUC    AUC   17  20.806  39.162   7.198
   98AUC    AUC   18  20.806  39.162   7.502
   99AUC    AUC   19  20.806  39.162   7.805
  100AUC    AUC   20  20.994  39.652   7.502
  101AUC    AUC   21  21.297  39.652   7.502
  102AUC    AUC   22  21.600  39.652   7.502
  103AUC    AUC   23  20.994  38.671   7.502
  104AUC    AUC   24  21.297  38.671   7.502
  105AUC    AUC   25  21.600  38.671   7.502
  106AUC    AUC   26  21.297  38.858   7.992
  107AUC    AUC   27  21.297  39.162   7.992
  108AUC    AUC   28  21.297  39.465   7.992
  109AUC    AUC   29  21.297  38.858   7.011
  110AUC    AUC   30  21.297  39.162   7.011
  111AUC    AUC   31  21.297  39.465   7.011
  112AUC    AUC   32  21.543  39.010   7.899
  113AUC    AUC   33  21.543  39.313   7.899
  114AUC    AUC   34  21.543  39.010   7.105
  115AUC    AUC   35  21.543  39.313   7.105
  116AUC    AUC   36  21.052  39.010   7.899
  117AUC    AUC   37  21.052  39.313   7.899
  118AUC    AUC   38  21.052  39.010   7.105
  119AUC    AUC   39  21.052  39.313   7.105
  120AUC    AUC   40  21.694  39.407   7.350
  121AUC    AUC   41  21.694  39.407   7.653
  122AUC    AUC   42  20.900  39.407   7.350
  123AUC    AUC   43  20.900  39.407   7.653
  124AUC    AUC   44  21.694  38.916   7.350
  125AUC    AUC   45  21.694  38.916   7.653
  126AUC    AUC   46  20.900  38.916   7.350
  127AUC    AUC   47  20.900  38.916   7.653
  128AUC    AUC   48  21.145  39.559   7.747
  129AUC    AUC   49  21.449  39.559   7.747
  130AUC    AUC   50  21.145  38.764   7.747
  131AUC    AUC   51  21.449  38.764   7.747
  132AUC    AUC   52  21.145  39.559   7.256
  133AUC    AUC   53  21.449  39.559   7.256
  134AUC    AUC   54  21.145  38.764   7.256
  135AUC    AUC   55  21.449  38.764   7.256
  136AUSL   AUS   56  21.706  39.162   8.082
  137AUSL   AUS   57  21.562  38.745   8.012
  138AUL    AUL   58  21.788  38.858   8.296
  139THSLK    S   59  21.676  38.557   8.156
  140ETHY    C1   60  21.742  38.172   8.391
  141ETHY    C1   61  21.885  37.764   8.710
  142ETHY    C1   62  22.094  37.428   9.066
  143ETHY    C1   63  22.360  37.170   9.450
  144ETHY    C1   64  22.676  36.994   9.855
  145THSLK    S   65  21.802  39.112   8.326
  146ETHY    C1   66  22.018  38.926   8.681
  147ETHY    C1   67  22.293  38.791   9.124
  148ETHY    C1   68  22.574  38.761   9.575
  149ETHY    C1   69  22.852  38.830  10.025
  150ETHY    C1   70  23.121  38.998  10.466
  151AUSL   AUS   71  21.461  39.010   8.175
  152AUSL   AUS   72  21.134  39.313   8.175
  153AUL    AUL   73  21.297  39.162   8.483
  154THSLK    S   74  21.539  38.957   8.417
  155ETHY    C1   75  21.616  38.707   8.790
  156ETHY    C1   76  21.732  38.490   9.269
  157ETHY    C1   77  21.869  38.374   9.769
  158ETHY    C1   78  22.019  38.356  10.281
  159ETHY    C1   79  22.178  38.437  10.794
  160THSLK    S   80  21.047  39.270   8.431
  161ETHY    C1   81  20.965  39.158   8.864
  162ETHY    C1   82  20.851  39.112   9.388
  163ETHY    C1   83  20.719  39.170   9.901
  164ETHY    C1   84  20.568  39.323  10.389
  165ETHY    C1   85  20.402  39.567  10.844
  166AUSL   AUS   86  21.461  39.313   8.175
  167AUSL   AUS   87  21.807  39.426   7.918
  168AUL    AUL   88  21.788  39.465   8.296
  169THSLK    S   89  21.548  39.367   8.414
  170ETHY    C1   90  21.629  39.618   8.786
  171ETHY    C1   91  21.743  39.834   9.265
  172ETHY    C1   92  21.876  39.950   9.767
  173ETHY    C1   93  22.026  39.968  10.279
  174ETHY    C1   94  22.192  39.888  10.789
  175THSLK    S   95  21.981  39.528   8.080
  176ETHY    C1   96  22.345  39.538   8.354
  177ETHY    C1   97  22.761  39.640   8.680
  178ETHY    C1   98  23.141  39.839   8.995
  179ETHY    C1   99  23.476  40.126   9.296
  180ETHY    C1  100  23.757  40.494   9.577
  181AUSL   AUS  101  21.706  39.162   6.922
  182AUSL   AUS  102  21.562  39.578   6.992
  183AUL    AUL  103  21.788  39.465   6.707
  184THSLK    S  104  21.809  39.112   6.681
  185ETHY    C1  105  22.030  38.926   6.329
  186ETHY    C1  106  22.303  38.791   5.885
  187ETHY    C1  107  22.581  38.761   5.432
  188ETHY    C1  108  22.859  38.830   4.982
  189ETHY    C1  109  23.133  38.998   4.545
  190THSLK    S  110  21.740  39.693   6.825
  191ETHY    C1  111  22.028  39.798   6.488
  192ETHY    C1  112  22.328  40.002   6.090
  193ETHY    C1  113  22.571  40.290   5.714
  194ETHY    C1  114  22.755  40.654   5.371
  195ETHY    C1  115  22.879  41.085   5.065
  196AUSL   AUS  116  21.461  39.010   6.828
  197AUSL   AUS  117  21.807  38.897   7.085
  198AUL    AUL  118  21.788  38.858   6.707
  199THSLK    S  119  21.944  38.705   6.944
  200ETHY    C1  120  22.152  38.362   6.729
  201ETHY    C1  121  22.453  38.020   6.442
  202ETHY    C1  122  22.804  37.767   6.133
  203ETHY    C1  123  23.198  37.605   5.812
  204ETHY    C1  124  23.627  37.534   5.486
  205THSLK    S  125  21.548  38.956   6.590
  206ETHY    C1  126  21.629  38.705   6.217
  207ETHY    C1  127  21.743  38.489   5.738
  208ETHY    C1  128  21.876  38.373   5.236
  209ETHY    C1  129  22.026  38.355   4.725
  210ETHY    C1  130  22.192  38.435   4.214
  211AUSL   AUS  131  21.461  39.313   6.828
  212AUSL   AUS  132  21.134  39.010   6.828
  213AUL    AUL  133  21.297  39.162   6.520
  214THSLK    S  134  21.039  38.956   6.592
  215ETHY    C1  135  20.902  38.708   6.235
  216ETHY    C1  136  20.742  38.494   5.767
  217ETHY    C1  137  20.595  38.379   5.269
  218ETHY    C1  138  20.468  38.360   4.751
  219ETHY    C1  139  20.363  38.436   4.224
  220THSLK    S  140  21.564  39.271   6.578
  221ETHY    C1  141  21.705  39.156   6.160
  222ETHY    C1  142  21.863  39.109   5.647
  223ETHY    C1  143  22.006  39.165   5.138
  224ETHY    C1  144  22.134  39.319   4.643
  225ETHY    C1  145  22.245  39.567   4.174
  226AUSL   AUS  146  20.888  39.162   8.082
  227AUSL   AUS  147  21.032  39.578   8.012
  228AUL    AUL  148  20.806  39.465   8.296
  229THSLK    S  149  20.785  39.112   8.322
  230ETHY    C1  150  20.564  38.926   8.674
  231ETHY    C1  151  20.291  38.791   9.118
  232ETHY    C1  152  20.014  38.761   9.571
  233ETHY    C1  153  19.736  38.830  10.021
  234ETHY    C1  154  19.461  38.998  10.458
  235THSLK    S  155  20.912  39.707   8.202
  236ETHY    C1  156  20.843  39.876   8.620
  237ETHY    C1  157  20.701  40.129   9.073
  238ETHY    C1  158  20.495  40.430   9.460
  239ETHY    C1  159  20.228  40.769   9.775
  240ETHY    C1  160  19.908  41.136  10.013
  241AUSL   AUS  161  21.134  39.010   8.175
  242AUSL   AUS  162  20.787  38.897   7.918
  243AUL    AUL  163  20.806  38.858   8.296
  244THSLK    S  164  20.609  38.733   8.029
  245ETHY    C1  165  20.241  38.480   8.125
  246ETHY    C1  166  19.826  38.201   8.323
  247ETHY    C1  167  19.448  37.961   8.611
  248ETHY    C1  168  19.114  37.765   8.978
  249ETHY    C1  169  18.828  37.619   9.415
  250THSLK    S  170  21.031  38.958   8.410
  251ETHY    C1  171  20.889  38.711   8.766
  252ETHY    C1  172  20.731  38.496   9.233
  253ETHY    C1  173  20.588  38.380   9.733
  254ETHY    C1  174  20.461  38.362  10.250
  255ETHY    C1  175  20.349  38.440  10.775
  256AUSL   AUS  176  20.888  39.162   6.922
  257AUSL   AUS  177  21.032  38.745   6.992
  258AUL    AUL  178  20.806  38.858   6.707
  259THSLK    S  179  20.793  39.112   6.677
  260ETHY    C1  180  20.576  38.926   6.322
  261ETHY    C1  181  20.301  38.791   5.879
  262ETHY    C1  182  20.020  38.761   5.429
  263ETHY    C1  183  19.742  38.830   4.978
  264ETHY    C1  184  19.474  38.998   4.537
  265THSLK    S  185  20.860  38.571   6.872
  266ETHY    C1  186  20.575  38.250   6.717
  267ETHY    C1  187  20.274  37.891   6.453
  268ETHY    C1  188  20.029  37.568   6.109
  269ETHY    C1  189  19.845  37.285   5.696
  270ETHY    C1  190  19.726  37.045   5.223
  271AUSL   AUS  191  21.134  39.313   6.828
  272AUSL   AUS  192  20.787  39.426   7.085
  273AUL    AUL  193  20.806  39.465   6.707
  274THSLK    S  194  20.656  39.556   6.893
  275ETHY    C1  195  20.450  39.656   6.499
  276ETHY    C1  196  20.148  39.820   6.085
  277ETHY    C1  197  19.794  40.032   5.748
  278ETHY    C1  198  19.401  40.286   5.494
  279ETHY    C1  199  18.976  40.579   5.324
  280THSLK    S  200  21.055  39.272   6.571
  281ETHY    C1  201  20.978  39.160   6.136
  282ETHY    C1  202  20.862  39.115   5.612
  283ETHY    C1  203  20.726  39.171   5.101
  284ETHY    C1  204  20.576  39.325   4.613
  285ETHY    C1  205  20.416  39.570   4.156
  286AUSL   AUS  206  21.877  39.571   7.502
  287AUSL   AUS  207  21.807  39.426   7.085
  288AUL    AUL  208  22.091  39.652   7.198
  289THSLK    S  209  21.986  39.529   6.930
  290ETHY    C1  210  22.353  39.540   6.659
  291ETHY    C1  211  22.768  39.642   6.332
  292ETHY    C1  212  23.146  39.840   6.014
  293ETHY    C1  213  23.480  40.127   5.713
  294ETHY    C1  214  23.766  40.497   5.438
  295THSLK    S  215  22.145  39.627   7.506
  296ETHY    C1  216  22.597  39.688   7.508
  297ETHY    C1  217  23.111  39.847   7.507
  298ETHY    C1  218  23.579  40.101   7.505
  299ETHY    C1  219  23.992  40.438   7.506
  300ETHY    C1  220  24.344  40.852   7.509
  301AUSL   AUS  221  21.971  39.325   7.350
  302AUSL   AUS  222  21.971  38.998   7.653
  303AUL    AUL  223  22.279  39.162   7.502
  304THSLK    S  224  22.230  39.368   7.348
  305ETHY    C1  225  22.675  39.298   7.278
  306ETHY    C1  226  23.206  39.305   7.190
  307ETHY    C1  227  23.719  39.415   7.101
  308ETHY    C1  228  24.204  39.621   7.017
  309ETHY    C1  229  24.651  39.918   6.940
  310THSLK    S  230  22.203  38.860   7.662
  311ETHY    C1  231  22.549  38.571   7.728
  312ETHY    C1  232  23.010  38.304   7.809
  313ETHY    C1  233  23.507  38.135   7.892
  314ETHY    C1  234  24.028  38.063   7.980
  315ETHY    C1  235  24.563  38.089   8.071
  316AUSL   AUS  236  21.971  39.325   7.653
  317AUSL   AUS  237  21.714  39.672   7.766
  318AUL    AUL  238  22.091  39.652   7.805
  319THSLK    S  239  21.897  39.791   7.926
  320ETHY    C1  240  22.269  39.946   8.139
  321ETHY    C1  241  22.669  40.211   8.385
  322ETHY    C1  242  23.003  40.555   8.615
  323ETHY    C1  243  23.265  40.968   8.827
  324ETHY    C1  244  23.452  41.440   9.019
  325THSLK    S  245  22.229  39.368   7.664
  326ETHY    C1  246  22.673  39.298   7.738
  327ETHY    C1  247  23.204  39.305   7.825
  328ETHY    C1  248  23.718  39.415   7.910
  329ETHY    C1  249  24.202  39.621   7.994
  330ETHY    C1  250  24.649  39.918   8.078
  331AUSL   AUS  251  20.717  39.571   7.502
  332AUSL   AUS  252  20.787  39.426   7.918
  333AUL    AUL  253  20.503  39.652   7.805
  334THSLK    S  254  20.651  39.549   8.109
  335ETHY    C1  255  20.442  39.645   8.503
  336ETHY    C1  256  20.141  39.811   8.917
  337ETHY    C1  257  19.790  40.026   9.254
  338ETHY    C1  258  19.396  40.280   9.509
  339ETHY    C1  259  18.967  40.567   9.678
  340THSLK    S  260  20.501  39.711   7.506
  341ETHY    C1  261  20.245  40.089   7.508
  342ETHY    C1  262  19.872  40.477   7.507
  343ETHY    C1  263  19.436  40.783   7.505
  344ETHY    C1  264  18.950  41.001   7.506
  345ETHY    C1  265  18.423  41.131   7.509
  346AUSL   AUS  266  20.623  39.325   7.350
  347AUSL   AUS  267  20.881  39.672   7.237
  348AUL    AUL  268  20.503  39.652   7.198
  349THSLK    S  269  20.392  39.440   7.303
  350ETHY    C1  270  20.045  39.628   7.075
  351ETHY    C1  271  19.585  39.820   6.872
  352ETHY    C1  272  19.087  39.970   6.758
  353ETHY    C1  273  18.566  40.080   6.733
  354ETHY    C1  274  18.032  40.150   6.796
  355THSLK    S  275  20.765  39.837   7.058
  356ETHY    C1  276  20.649  40.153   6.750
  357ETHY    C1  277  20.435  40.531   6.432
  358ETHY    C1  278  20.143  40.900   6.183
  359ETHY    C1  279  19.785  41.253   6.008
  360ETHY    C1  280  19.367  41.586   5.909
  361AUSL   AUS  281  20.623  39.325   7.653
  362AUSL   AUS  282  20.623  38.998   7.350
  363AUL    AUL  283  20.315  39.162   7.502
  364THSLK    S  284  20.365  38.924   7.390
  365ETHY    C1  285  19.921  38.889   7.486
  366ETHY    C1  286  19.390  38.808   7.518
  367ETHY    C1  287  18.876  38.683   7.458
  368ETHY    C1  288  18.392  38.515   7.311
  369ETHY    C1  289  17.945  38.308   7.083
  370THSLK    S  290  20.390  39.432   7.704
  371ETHY    C1  291  20.043  39.616   7.935
  372ETHY    C1  292  19.583  39.809   8.137
  373ETHY    C1  293  19.086  39.964   8.249
  374ETHY    C1  294  18.565  40.074   8.274
  375ETHY    C1  295  18.029  40.137   8.213
  376AUSL   AUS  296  21.877  38.752   7.502
  377AUSL   AUS  297  21.807  38.897   7.918
  378AUL    AUL  298  22.091  38.671   7.805
  379THSLK    S  299  22.093  38.612   7.506
  380ETHY    C1  300  22.349  38.234   7.508
  381ETHY    C1  301  22.722  37.846   7.507
  382ETHY    C1  302  23.158  37.540   7.505
  383ETHY    C1  303  23.644  37.322   7.506
  384ETHY    C1  304  24.171  37.192   7.509
  385THSLK    S  305  21.939  38.707   8.066
  386ETHY    C1  306  22.144  38.364   8.285
  387ETHY    C1  307  22.446  38.022   8.570
  388ETHY    C1  308  22.800  37.769   8.877
  389ETHY    C1  309  23.194  37.606   9.198
  390ETHY    C1  310  23.618  37.536   9.529
  391AUSL   AUS  311  21.971  38.998   7.350
  392AUSL   AUS  312  21.714  38.651   7.237
  393AUL    AUL  313  22.091  38.671   7.198
  394THSLK    S  314  22.204  38.860   7.350
  395ETHY    C1  315  22.552  38.571   7.289
  396ETHY    C1  316  23.011  38.304   7.206
  397ETHY    C1  317  23.508  38.135   7.118
  398ETHY    C1  318  24.030  38.063   7.031
  399ETHY    C1  319  24.565  38.089   6.947
  400THSLK    S  320  21.833  38.461   7.104
  401ETHY    C1  321  21.950  38.044   6.963
  402ETHY    C1  322  22.164  37.590   6.765
  403ETHY    C1  323  22.454  37.204   6.543
  404ETHY    C1  324  22.813  36.889   6.306
  405ETHY    C1  325  23.233  36.650   6.058
  406AUSL   AUS  326  20.717  38.752   7.502
  407AUSL   AUS  327  20.787  38.897   7.085
  408AUL    AUL  328  20.503  38.671   7.198
  409THSLK    S  329  20.614  38.726   6.973
  410ETHY    C1  330  20.249  38.469   6.877
  411ETHY    C1  331  19.833  38.192   6.679
  412ETHY    C1  332  19.453  37.955   6.392
  413ETHY    C1  333  19.119  37.759   6.025
  414ETHY    C1  334  18.837  37.607   5.587
  415THSLK    S  335  20.449  38.696   7.506
  416ETHY    C1  336  19.997  38.635   7.508
  417ETHY    C1  337  19.483  38.476   7.507
  418ETHY    C1  338  19.015  38.222   7.505
  419ETHY    C1  339  18.602  37.885   7.506
  420ETHY    C1  340  18.250  37.471   7.509
  421AUSL   AUS  341  20.623  38.998   7.653
  422AUSL   AUS  342  20.881  38.651   7.766
  423AUL    AUL  343  20.503  38.671   7.805
  424THSLK    S  344  20.693  38.507   7.880
  425ETHY    C1  345  20.319  38.250   7.926
  426ETHY    C1  346  19.921  37.910   8.052
  427ETHY    C1  347  19.588  37.548   8.255
  428ETHY    C1  348  19.326  37.174   8.529
  429ETHY    C1  349  19.135  36.796   8.870
  430THSLK    S  350  20.364  38.931   7.617
  431ETHY    C1  351  19.919  38.901   7.524
  432ETHY    C1  352  19.388  38.819   7.490
  433ETHY    C1  353  18.875  38.690   7.549
  434ETHY    C1  354  18.391  38.522   7.696
  435ETHY    C1  355  17.943  38.320   7.928
  436AUSL   AUS  356  21.297  39.742   7.911
  437AUSL   AUS  357  20.881  39.672   7.766
  438AUL    AUL  358  20.994  39.956   7.992
  439THSLK    S  359  20.761  39.831   7.950
  440ETHY    C1  360  20.644  40.143   8.261
  441ETHY    C1  361  20.430  40.523   8.578
  442ETHY    C1  362  20.140  40.894   8.824
  443ETHY    C1  363  19.782  41.248   9.000
  444ETHY    C1  364  19.361  41.576   9.102
  445THSLK    S  365  21.337  39.968   8.035
  446ETHY    C1  366  21.494  40.270   8.339
  447ETHY    C1  367  21.609  40.676   8.672
  448ETHY    C1  368  21.636  41.120   8.964
  449ETHY    C1  369  21.576  41.589   9.211
  450ETHY    C1  370  21.432  42.073   9.410
  451AUSL   AUS  371  21.145  39.835   7.665
  452AUSL   AUS  372  21.449  39.835   7.338
  453AUL    AUL  373  21.297  40.143   7.502
  454THSLK    S  374  21.186  40.083   7.774
  455ETHY    C1  375  21.295  40.493   7.942
  456ETHY    C1  376  21.339  41.000   8.118
  457ETHY    C1  377  21.282  41.508   8.265
  458ETHY    C1  378  21.129  42.005   8.383
  459ETHY    C1  379  20.886  42.482   8.472
  460THSLK    S  380  21.502  40.070   7.241
  461ETHY    C1  381  21.747  40.426   7.094
  462ETHY    C1  382  21.960  40.891   6.927
  463ETHY    C1  383  22.075  41.389   6.779
  464ETHY    C1  384  22.095  41.908   6.655
  465ETHY    C1  385  22.020  42.437   6.558
  466AUSL   AUS  386  21.449  39.835   7.665
  467AUSL   AUS  387  21.562  39.578   8.012
  468AUL    AUL  388  21.600  39.956   7.992
  469THSLK    S  389  21.734  39.691   8.184
  470ETHY    C1  390  22.019  39.794   8.524
  471ETHY    C1  391  22.321  39.998   8.921
  472ETHY    C1  392  22.566  40.288   9.294
  473ETHY    C1  393  22.750  40.651   9.638
  474ETHY    C1  394  22.869  41.081   9.948
  475THSLK    S  395  21.500  40.069   7.771
  476ETHY    C1  396  21.744  40.423   7.922
  477ETHY    C1  397  21.957  40.889   8.087
  478ETHY    C1  398  22.073  41.388   8.231
  479ETHY    C1  399  22.092  41.906   8.356
  480ETHY    C1  400  22.017  42.434   8.458
  481AUSL   AUS  401  21.297  38.582   7.911
  482AUSL   AUS  402  21.714  38.651   7.766
  483AUL    AUL  403  21.600  38.367   7.992
  484THSLK    S  404  21.253  38.327   7.990
  485ETHY    C1  405  21.093  37.923   8.128
  486ETHY    C1  406  20.979  37.442   8.341
  487ETHY    C1  407  20.954  36.981   8.605
  488ETHY    C1  408  21.013  36.551   8.915
  489ETHY    C1  409  21.154  36.159   9.263
  490THSLK    S  410  21.829  38.462   7.908
  491ETHY    C1  411  21.945  38.046   8.052
  492ETHY    C1  412  22.159  37.593   8.248
  493ETHY    C1  413  22.451  37.205   8.467
  494ETHY    C1  414  22.810  36.890   8.705
  495ETHY    C1  415  23.227  36.653   8.958
  496AUSL   AUS  416  21.145  38.488   7.665
  497AUSL   AUS  417  21.032  38.745   8.012
  498AUL    AUL  418  20.994  38.367   7.992
  499THSLK    S  419  21.092  38.248   7.745
  500ETHY    C1  420  20.847  37.867   7.801
  501ETHY    C1  421  20.634  37.382   7.897
  502ETHY    C1  422  20.519  36.879   8.025
  503ETHY    C1  423  20.500  36.370   8.186
  504ETHY    C1  424  20.574  35.867   8.374
  505THSLK    S  425  20.854  38.577   8.133
  506ETHY    C1  426  20.566  38.259   8.289
  507ETHY    C1  427  20.266  37.899   8.552
  508ETHY    C1  428  20.023  37.573   8.896
  509ETHY    C1  429  19.839  37.290   9.309
  510ETHY    C1  430  19.715  37.056   9.783
  511AUSL   AUS  431  21.449  38.488   7.665
  512AUSL   AUS  432  21.145  38.488   7.338
  513AUL    AUL  433  21.297  38.180   7.502
  514THSLK    S  434  21.094  38.245   7.266
  515ETHY    C1  435  20.850  37.863   7.215
  516ETHY    C1  436  20.637  37.379   7.117
  517ETHY    C1  437  20.521  36.877   6.984
  518ETHY    C1  438  20.502  36.368   6.825
  519ETHY    C1  439  20.578  35.863   6.642
  520THSLK    S  440  21.406  38.232   7.749
  521ETHY    C1  441  21.296  37.796   7.821
  522ETHY    C1  442  21.253  37.270   7.928
  523ETHY    C1  443  21.310  36.758   8.059
  524ETHY    C1  444  21.463  36.270   8.213
  525ETHY    C1  445  21.705  35.817   8.388
  526AUSL   AUS  446  21.297  39.742   7.093
  527AUSL   AUS  447  21.714  39.672   7.237
  528AUL    AUL  448  21.600  39.956   7.011
  529THSLK    S  449  21.341  39.972   6.975
  530ETHY    C1  450  21.501  40.276   6.674
  531ETHY    C1  451  21.615  40.681   6.339
  532ETHY    C1  452  21.640  41.124   6.045
  533ETHY    C1  453  21.581  41.593   5.798
  534ETHY    C1  454  21.440  42.080   5.604
  535THSLK    S  455  21.901  39.793   7.085
  536ETHY    C1  456  22.275  39.949   6.876
  537ETHY    C1  457  22.673  40.213   6.629
  538ETHY    C1  458  23.006  40.557   6.395
  539ETHY    C1  459  23.268  40.969   6.184
  540ETHY    C1  460  23.459  41.443   5.998
  541AUSL   AUS  461  21.145  39.835   7.338
  542AUSL   AUS  462  21.032  39.578   6.992
  543AUL    AUL  463  20.994  39.956   7.011
  544THSLK    S  464  21.188  40.086   7.237
  545ETHY    C1  465  21.298  40.497   7.074
  546ETHY    C1  466  21.341  41.003   6.896
  547ETHY    C1  467  21.284  41.511   6.745
  548ETHY    C1  468  21.131  42.008   6.627
  549ETHY    C1  469  20.889  42.487   6.545
  550THSLK    S  470  20.918  39.713   6.802
  551ETHY    C1  471  20.852  39.885   6.385
  552ETHY    C1  472  20.709  40.137   5.932
  553ETHY    C1  473  20.500  40.436   5.544
  554ETHY    C1  474  20.234  40.774   5.230
  555ETHY    C1  475  19.918  41.147   4.993
  556AUSL   AUS  476  21.297  38.582   7.093
  557AUSL   AUS  477  20.881  38.651   7.237
  558AUL    AUL  478  20.994  38.367   7.011
  559THSLK    S  479  20.697  38.501   7.128
  560ETHY    C1  480  20.325  38.240   7.085
  561ETHY    C1  481  19.926  37.902   6.958
  562ETHY    C1  482  19.591  37.543   6.753
  563ETHY    C1  483  19.329  37.169   6.478
  564ETHY    C1  484  19.142  36.786   6.142
  565THSLK    S  485  21.257  38.323   7.019
  566ETHY    C1  486  21.100  37.917   6.885
  567ETHY    C1  487  20.985  37.437   6.671
  568ETHY    C1  488  20.958  36.978   6.404
  569ETHY    C1  489  21.018  36.547   6.094
  570ETHY    C1  490  21.162  36.152   5.751
  571AUSL   AUS  491  21.449  38.488   7.338
  572AUSL   AUS  492  21.562  38.745   6.992
  573AUL    AUL  493  21.600  38.367   7.011
  574THSLK    S  494  21.408  38.231   7.262
  575ETHY    C1  495  21.299  37.793   7.195
  576ETHY    C1  496  21.256  37.267   7.086
  577ETHY    C1  497  21.312  36.756   6.951
  578ETHY    C1  498  21.465  36.268   6.798
  579ETHY    C1  499  21.709  35.814   6.629
  580THSLK    S  500  21.682  38.555   6.853
  581ETHY    C1  501  21.751  38.169   6.621
  582ETHY    C1  502  21.893  37.761   6.300
  583ETHY    C1  503  22.100  37.425   5.942
  584ETHY    C1  504  22.366  37.168   5.559
  585ETHY    C1  505  22.686  36.990   5.158
  586AUC    AUC  506  28.852   9.018   7.502
  587AUC    AUC  507  29.098   9.018   7.350
  588AUC    AUC  508  29.098   9.018   7.653
  589AUC    AUC  509  28.607   9.018   7.350
  590AUC    AUC  510  28.607   9.018   7.653
  591AUC    AUC  511  28.700   9.263   7.502
  592AUC    AUC  512  29.004   9.263   7.502
  593AUC    AUC  513  28.700   8.772   7.502
  594AUC    AUC  514  29.004   8.772   7.502
  595AUC    AUC  515  28.852   8.866   7.747
  596AUC    AUC  516  28.852   9.169   7.747
  597AUC    AUC  517  28.852   8.866   7.256
  598AUC    AUC  518  28.852   9.169   7.256
  599AUC    AUC  519  29.343   9.018   7.198
  600AUC    AUC  520  29.343   9.018   7.502
  601AUC    AUC  521  29.343   9.018   7.805
  602AUC    AUC  522  28.361   9.018   7.198
  603AUC    AUC  523  28.361   9.018   7.502
  604AUC    AUC  524  28.361   9.018   7.805
  605AUC    AUC  525  28.549   9.508   7.502
  606AUC    AUC  526  28.852   9.508   7.502
  607AUC    AUC  527  29.155   9.508   7.502
  608AUC    AUC  528  28.549   8.527   7.502
  609AUC    AUC  529  28.852   8.527   7.502
  610AUC    AUC  530  29.155   8.527   7.502
  611AUC    AUC  531  28.852   8.714   7.992
  612AUC    AUC  532  28.852   9.018   7.992
  613AUC    AUC  533  28.852   9.321   7.992
  614AUC    AUC  534  28.852   8.714   7.011
  615AUC    AUC  535  28.852   9.018   7.011
  616AUC    AUC  536  28.852   9.321   7.011
  617AUC    AUC  537  29.098   8.866   7.899
  618AUC    AUC  538  29.098   9.169   7.899
  619AUC    AUC  539  29.098   8.866   7.105
  620AUC    AUC  540  29.098   9.169   7.105
  621AUC    AUC  541  28.607   8.866   7.899
  622AUC    AUC  542  28.607   9.169   7.899
  623AUC    AUC  543  28.607   8.866   7.105
  624AUC    AUC  544  28.607   9.169   7.105
  625AUC    AUC  545  29.249   9.263   7.350
  626AUC    AUC  546  29.249   9.263   7.653
  627AUC    AUC  547  28.455   9.263   7.350
  628AUC    AUC  548  28.455   9.263   7.653
  629AUC    AUC  549  29.249   8.772   7.350
  630AUC    AUC  550  29.249   8.772   7.653
  631AUC    AUC  551  28.455   8.772   7.350
  632AUC    AUC  552  28.455   8.772   7.653
  633AUC    AUC  553  28.700   9.415   7.747
  634AUC    AUC  554  29.004   9.415   7.747
  635AUC    AUC  555  28.700   8.620   7.747
  636AUC    AUC  556  29.004   8.620   7.747
  637AUC    AUC  557  28.700   9.415   7.256
  638AUC    AUC  558  29.004   9.415   7.256
  639AUC    AUC  559  28.700   8.620   7.256
  640AUC    AUC  560  29.004   8.620   7.256
  641AUSL   AUS  561  29.261   9.018   8.082
  642AUSL   AUS  562  29.117   8.601   8.012
  643AUL    AUL  563  29.343   8.714   8.296
  644THSLK    S  564  29.231   8.413   8.156
  645ETHY    C1  565  29.297   8.028   8.391
  646ETHY    C1  566  29.440   7.620   8.710
  647ETHY    C1  567  29.649   7.284   9.066
  648ETHY    C1  568  29.915   7.026   9.450
  649ETHY    C1  569  30.231   6.850   9.855
  650THSLK    S  570  29.357   8.968   8.326
  651ETHY    C1  571  29.573   8.782   8.681
  652ETHY    C1  572  29.848   8.647   9.124
  653ETHY    C1  573  30.129   8.617   9.575
  654ETHY    C1  574  30.407   8.686  10.025
  655ETHY    C1  575  30.676   8.854  10.466
  656AUSL   AUS  576  29.016   8.866   8.175
  657AUSL   AUS  577  28.689   9.169   8.175
  658AUL    AUL  578  28.852   9.018   8.483
  659THSLK    S  579  29.094   8.813   8.417
  660ETHY    C1  580  29.171   8.563   8.790
  661ETHY    C1  581  29.287   8.346   9.269
  662ETHY    C1  582  29.424   8.230   9.769
  663ETHY    C1  583  29.574   8.212  10.281
  664ETHY    C1  584  29.733   8.293  10.794
  665THSLK    S  585  28.602   9.126   8.431
  666ETHY    C1  586  28.520   9.014   8.864
  667ETHY    C1  587  28.406   8.968   9.388
  668ETHY    C1  588  28.274   9.026   9.901
  669ETHY    C1  589  28.123   9.179  10.389
  670ETHY    C1  590  27.957   9.423  10.844
  671AUSL   AUS  591  29.016   9.169   8.175
  672AUSL   AUS  592  29.362   9.282   7.918
  673AUL    AUL  593  29.343   9.321   8.296
  674THSLK    S  594  29.103   9.223   8.414
  675ETHY    C1  595  29.184   9.474   8.786
  676ETHY    C1  596  29.298   9.690   9.265
  677ETHY    C1  597  29.431   9.806   9.767
  678ETHY    C1  598  29.581   9.824  10.279
  679ETHY    C1  599  29.747   9.744  10.789
  680THSLK    S  600  29.536   9.384   8.080
  681ETHY    C1  601  29.900   9.394   8.354
  682ETHY    C1  602  30.316   9.496   8.680
  683ETHY    C1  603  30.696   9.695   8.995
  684ETHY    C1  604  31.031   9.982   9.296
  685ETHY    C1  605  31.312  10.350   9.577
  686AUSL   AUS  606  29.261   9.018   6.922
  687AUSL   AUS  607  29.117   9.434   6.992
  688AUL    AUL  608  29.343   9.321   6.707
  689THSLK    S  609  29.364   8.968   6.681
  690ETHY    C1  610  29.585   8.782   6.329
  691ETHY    C1  611  29.858   8.647   5.885
  692ETHY    C1  612  30.136   8.617   5.432
  693ETHY    C1  613  30.414   8.686   4.982
  694ETHY    C1  614  30.688   8.854   4.545
  695THSLK    S  615  29.295   9.549   6.825
  696ETHY    C1  616  29.583   9.654   6.488
  697ETHY    C1  617  29.883   9.858   6.090
  698ETHY    C1  618  30.126  10.146   5.714
  699ETHY    C1  619  30.310  10.510   5.371
  700ETHY    C1  620  30.434  10.941   5.065
  701AUSL   AUS  621  29.016   8.866   6.828
  702AUSL   AUS  622  29.362   8.753   7.085
  703AUL    AUL  623  29.343   8.714   6.707
  704THSLK    S  624  29.499   8.561   6.944
  705ETHY    C1  625  29.707   8.218   6.729
  706ETHY    C1  626  30.008   7.876   6.442
  707ETHY    C1  627  30.359   7.623   6.133
  708ETHY    C1  628  30.753   7.461   5.812
  709ETHY    C1  629  31.182   7.390   5.486
  710THSLK    S  630  29.103   8.812   6.590
  711ETHY    C1  631  29.184   8.561   6.217
  712ETHY    C1  632  29.298   8.345   5.738
  713ETHY    C1  633  29.431   8.229   5.236
  714ETHY    C1  634  29.581   8.211   4.725
  715ETHY    C1  635  29.747   8.291   4.214
  716AUSL   AUS  636  29.016   9.169   6.828
  717AUSL   AUS  637  28.689   8.866   6.828
  718AUL    AUL  638  28.852   9.018   6.520
  719THSLK    S  639  28.594   8.812   6.592
  720ETHY    C1  640  28.457   8.564   6.235
  721ETHY    C1  641  28.297   8.350   5.767
  722ETHY    C1  642  28.150   8.235   5.269
  723ETHY    C1  643  28.023   8.216   4.751
  724ETHY    C1  644  27.918   8.292   4.224
  725THSLK    S  645  29.119   9.127   6.578
  726ETHY    C1  646  29.260   9.012   6.160
  727ETHY    C1  647  29.418   8.965   5.647
  728ETHY    C1  648  29.561   9.021   5.138
  729ETHY    C1  649  29.689   9.175   4.643
  730ETHY    C1  650  29.800   9.423   4.174
  731AUSL   AUS  651  28.443   9.018   8.082
  732AUSL   AUS  652  28.587   9.434   8.012
  733AUL    AUL  653  28.361   9.321   8.296
  734THSLK    S  654  28.340   8.968   8.322
  735ETHY    C1  655  28.119   8.782   8.674
  736ETHY    C1  656  27.846   8.647   9.118
  737ETHY    C1  657  27.569   8.617   9.571
  738ETHY    C1  658  27.291   8.686  10.021
  739ETHY    C1  659  27.016   8.854  10.458
  740THSLK    S  660  28.467   9.563   8.202
  741ETHY    C1  661  28.398   9.732   8.620
  742ETHY    C1  662  28.256   9.985   9.073
  743ETHY    C1  663  28.050  10.286   9.460
  744ETHY    C1  664  27.783  10.625   9.775
  745ETHY    C1  665  27.463  10.992  10.013
  746AUSL   AUS  666  28.689   8.866   8.175
  747AUSL   AUS  667  28.342   8.753   7.918
  748AUL    AUL  668  28.361   8.714   8.296
  749THSLK    S  669  28.164   8.589   8.029
  750ETHY    C1  670  27.796   8.336   8.125
  751ETHY    C1  671  27.381   8.057   8.323
  752ETHY    C1  672  27.003   7.817   8.611
  753ETHY    C1  673  26.669   7.621   8.978
  754ETHY    C1  674  26.383   7.475   9.415
  755THSLK    S  675  28.586   8.814   8.410
  756ETHY    C1  676  28.444   8.567   8.766
  757ETHY    C1  677  28.286   8.352   9.233
  758ETHY    C1  678  28.143   8.236   9.733
  759ETHY    C1  679  28.016   8.218  10.250
  760ETHY    C1  680  27.904   8.296  10.775
  761AUSL   AUS  681  28.443   9.018   6.922
  762AUSL   AUS  682  28.587   8.601   6.992
  763AUL    AUL  683  28.361   8.714   6.707
  764THSLK    S  684  28.348   8.968   6.677
  765ETHY    C1  685  28.131   8.782   6.322
  766ETHY    C1  686  27.856   8.647   5.879
  767ETHY    C1  687  27.575   8.617   5.429
  768ETHY    C1  688  27.297   8.686   4.978
  769ETHY    C1  689  27.029   8.854   4.537
  770THSLK    S  690  28.415   8.427   6.872
  771ETHY    C1  691  28.130   8.106   6.717
  772ETHY    C1  692  27.829   7.747   6.453
  773ETHY    C1  693  27.584   7.424   6.109
  774ETHY    C1  694  27.400   7.141   5.696
  775ETHY    C1  695  27.281   6.901   5.223
  776AUSL   AUS  696  28.689   9.169   6.828
  777AUSL   AUS  697  28.342   9.282   7.085
  778AUL    AUL  698  28.361   9.321   6.707
  779THSLK    S  699  28.211   9.412   6.893
  780ETHY    C1  700  28.005   9.512   6.499
  781ETHY    C1  701  27.703   9.676   6.085
  782ETHY    C1  702  27.349   9.888   5.748
  783ETHY    C1  703  26.956  10.142   5.494
  784ETHY    C1  704  26.531  10.435   5.324
  785THSLK    S  705  28.610   9.128   6.571
  786ETHY    C1  706  28.533   9.016   6.136
  787ETHY    C1  707  28.417   8.971   5.612
  788ETHY    C1  708  28.281   9.027   5.101
  789ETHY    C1  709  28.131   9.181   4.613
  790ETHY    C1  710  27.971   9.426   4.156
  791AUSL   AUS  711  29.432   9.427   7.502
  792AUSL   AUS  712  29.362   9.282   7.085
  793AUL    AUL  713  29.646   9.508   7.198
  794THSLK    S  714  29.541   9.385   6.930
  795ETHY    C1  715  29.908   9.396   6.659
  796ETHY    C1  716  30.323   9.498   6.332
  797ETHY    C1  717  30.701   9.696   6.014
  798ETHY    C1  718  31.035   9.983   5.713
  799ETHY    C1  719  31.321  10.353   5.438
  800THSLK    S  720  29.700   9.483   7.506
  801ETHY    C1  721  30.152   9.544   7.508
  802ETHY    C1  722  30.666   9.703   7.507
  803ETHY    C1  723  31.134   9.957   7.505
  804ETHY    C1  724  31.547  10.294   7.506
  805ETHY    C1  725  31.899  10.708   7.509
  806AUSL   AUS  726  29.526   9.181   7.350
  807AUSL   AUS  727  29.526   8.854   7.653
  808AUL    AUL  728  29.834   9.018   7.502
  809THSLK    S  729  29.785   9.224   7.348
  810ETHY    C1  730  30.230   9.154   7.278
  811ETHY    C1  731  30.761   9.161   7.190
  812ETHY    C1  732  31.274   9.271   7.101
  813ETHY    C1  733  31.759   9.477   7.017
  814ETHY    C1  734  32.206   9.774   6.940
  815THSLK    S  735  29.758   8.716   7.662
  816ETHY    C1  736  30.104   8.427   7.728
  817ETHY    C1  737  30.565   8.160   7.809
  818ETHY    C1  738  31.062   7.991   7.892
  819ETHY    C1  739  31.583   7.919   7.980
  820ETHY    C1  740  32.118   7.945   8.071
  821AUSL   AUS  741  29.526   9.181   7.653
  822AUSL   AUS  742  29.269   9.528   7.766
  823AUL    AUL  743  29.646   9.508   7.805
  824THSLK    S  744  29.452   9.647   7.926
  825ETHY    C1  745  29.824   9.802   8.139
  826ETHY    C1  746  30.224  10.067   8.385
  827ETHY    C1  747  30.558  10.411   8.615
  828ETHY    C1  748  30.820  10.824   8.827
  829ETHY    C1  749  31.007  11.296   9.019
  830THSLK    S  750  29.784   9.224   7.664
  831ETHY    C1  751  30.228   9.154   7.738
  832ETHY    C1  752  30.759   9.161   7.825
  833ETHY    C1  753  31.273   9.271   7.910
  834ETHY    C1  754  31.757   9.477   7.994
  835ETHY    C1  755  32.204   9.774   8.078
  836AUSL   AUS  756  28.272   9.427   7.502
  837AUSL   AUS  757  28.342   9.282   7.918
  838AUL    AUL  758  28.058   9.508   7.805
  839THSLK    S  759  28.206   9.405   8.109
  840ETHY    C1  760  27.997   9.501   8.503
  841ETHY    C1  761  27.696   9.667   8.917
  842ETHY    C1  762  27.345   9.882   9.254
  843ETHY    C1  763  26.951  10.136   9.509
  844ETHY    C1  764  26.522  10.423   9.678
  845THSLK    S  765  28.056   9.567   7.506
  846ETHY    C1  766  27.800   9.945   7.508
  847ETHY    C1  767  27.427  10.333   7.507
  848ETHY    C1  768  26.991  10.639   7.505
  849ETHY    C1  769  26.505  10.857   7.506
  850ETHY    C1  770  25.978  10.987   7.509
  851AUSL   AUS  771  28.178   9.181   7.350
  852AUSL   AUS  772  28.436   9.528   7.237
  853AUL    AUL  773  28.058   9.508   7.198
  854THSLK    S  774  27.947   9.296   7.303
  855ETHY    C1  775  27.600   9.484   7.075
  856ETHY    C1  776  27.140   9.676   6.872
  857ETHY    C1  777  26.642   9.826   6.758
  858ETHY    C1  778  26.121   9.936   6.733
  859ETHY    C1  779  25.587  10.006   6.796
  860THSLK    S  780  28.320   9.693   7.058
  861ETHY    C1  781  28.204  10.009   6.750
  862ETHY    C1  782  27.990  10.387   6.432
  863ETHY    C1  783  27.698  10.756   6.183
  864ETHY    C1  784  27.340  11.109   6.008
  865ETHY    C1  785  26.922  11.442   5.909
  866AUSL   AUS  786  28.178   9.181   7.653
  867AUSL   AUS  787  28.178   8.854   7.350
  868AUL    AUL  788  27.870   9.018   7.502
  869THSLK    S  789  27.920   8.780   7.390
  870ETHY    C1  790  27.476   8.745   7.486
  871ETHY    C1  791  26.945   8.664   7.518
  872ETHY    C1  792  26.431   8.539   7.458
  873ETHY    C1  793  25.947   8.371   7.311
  874ETHY    C1  794  25.500   8.164   7.083
  875THSLK    S  795  27.945   9.288   7.704
  876ETHY    C1  796  27.598   9.472   7.935
  877ETHY    C1  797  27.138   9.665   8.137
  878ETHY    C1  798  26.641   9.820   8.249
  879ETHY    C1  799  26.120   9.930   8.274
  880ETHY    C1  800  25.584   9.993   8.213
  881AUSL   AUS  801  29.432   8.608   7.502
  882AUSL   AUS  802  29.362   8.753   7.918
  883AUL    AUL  803  29.646   8.527   7.805
  884THSLK    S  804  29.648   8.468   7.506
  885ETHY    C1  805  29.904   8.090   7.508
  886ETHY    C1  806  30.277   7.702   7.507
  887ETHY    C1  807  30.713   7.396   7.505
  888ETHY    C1  808  31.199   7.178   7.506
  889ETHY    C1  809  31.726   7.048   7.509
  890THSLK    S  810  29.494   8.563   8.066
  891ETHY    C1  811  29.699   8.220   8.285
  892ETHY    C1  812  30.001   7.878   8.570
  893ETHY    C1  813  30.355   7.625   8.877
  894ETHY    C1  814  30.749   7.462   9.198
  895ETHY    C1  815  31.173   7.392   9.529
  896AUSL   AUS  816  29.526   8.854   7.350
  897AUSL   AUS  817  29.269   8.507   7.237
  898AUL    AUL  818  29.646   8.527   7.198
  899THSLK    S  819  29.759   8.716   7.350
  900ETHY    C1  820  30.107   8.427   7.289
  901ETHY    C1  821  30.566   8.160   7.206
  902ETHY    C1  822  31.063   7.991   7.118
  903ETHY    C1  823  31.585   7.919   7.031
  904ETHY    C1  824  32.120   7.945   6.947
  905THSLK    S  825  29.388   8.317   7.104
  906ETHY    C1  826  29.505   7.900   6.963
  907ETHY    C1  827  29.719   7.446   6.765
  908ETHY    C1  828  30.009   7.060   6.543
  909ETHY    C1  829  30.368   6.745   6.306
  910ETHY    C1  830  30.788   6.506   6.058
  911AUSL   AUS  831  28.272   8.608   7.502
  912AUSL   AUS  832  28.342   8.753   7.085
  913AUL    AUL  833  28.058   8.527   7.198
  914THSLK    S  834  28.169   8.582   6.973
  915ETHY    C1  835  27.804   8.325   6.877
  916ETHY    C1  836  27.388   8.048   6.679
  917ETHY    C1  837  27.008   7.811   6.392
  918ETHY    C1  838  26.674   7.615   6.025
  919ETHY    C1  839  26.392   7.463   5.587
  920THSLK    S  840  28.004   8.552   7.506
  921ETHY    C1  841  27.552   8.491   7.508
  922ETHY    C1  842  27.038   8.332   7.507
  923ETHY    C1  843  26.570   8.078   7.505
  924ETHY    C1  844  26.157   7.741   7.506
  925ETHY    C1  845  25.805   7.327   7.509
  926AUSL   AUS  846  28.178   8.854   7.653
  927AUSL   AUS  847  28.436   8.507   7.766
  928AUL    AUL  848  28.058   8.527   7.805
  929THSLK    S  849  28.248   8.363   7.880
  930ETHY    C1  850  27.874   8.106   7.926
  931ETHY    C1  851  27.476   7.766   8.052
  932ETHY    C1  852  27.143   7.404   8.255
  933ETHY    C1  853  26.881   7.030   8.529
  934ETHY    C1  854  26.690   6.652   8.870
  935THSLK    S  855  27.919   8.787   7.617
  936ETHY    C1  856  27.474   8.757   7.524
  937ETHY    C1  857  26.943   8.675   7.490
  938ETHY    C1  858  26.430   8.546   7.549
  939ETHY    C1  859  25.946   8.378   7.696
  940ETHY    C1  860  25.498   8.176   7.928
  941AUSL   AUS  861  28.852   9.598   7.911
  942AUSL   AUS  862  28.436   9.528   7.766
  943AUL    AUL  863  28.549   9.812   7.992
  944THSLK    S  864  28.316   9.687   7.950
  945ETHY    C1  865  28.199   9.999   8.261
  946ETHY    C1  866  27.985  10.379   8.578
  947ETHY    C1  867  27.695  10.750   8.824
  948ETHY    C1  868  27.337  11.104   9.000
  949ETHY    C1  869  26.916  11.432   9.102
  950THSLK    S  870  28.892   9.824   8.035
  951ETHY    C1  871  29.049  10.126   8.339
  952ETHY    C1  872  29.164  10.532   8.672
  953ETHY    C1  873  29.191  10.976   8.964
  954ETHY    C1  874  29.131  11.445   9.211
  955ETHY    C1  875  28.987  11.929   9.410
  956AUSL   AUS  876  28.700   9.691   7.665
  957AUSL   AUS  877  29.004   9.691   7.338
  958AUL    AUL  878  28.852   9.999   7.502
  959THSLK    S  879  28.741   9.939   7.774
  960ETHY    C1  880  28.850  10.349   7.942
  961ETHY    C1  881  28.894  10.856   8.118
  962ETHY    C1  882  28.837  11.364   8.265
  963ETHY    C1  883  28.684  11.861   8.383
  964ETHY    C1  884  28.441  12.338   8.472
  965THSLK    S  885  29.057   9.926   7.241
  966ETHY    C1  886  29.302  10.282   7.094
  967ETHY    C1  887  29.515  10.747   6.927
  968ETHY    C1  888  29.630  11.245   6.779
  969ETHY    C1  889  29.650  11.764   6.655
  970ETHY    C1  890  29.575  12.293   6.558
  971AUSL   AUS  891  29.004   9.691   7.665
  972AUSL   AUS  892  29.117   9.434   8.012
  973AUL    AUL  893  29.155   9.812   7.992
  974THSLK    S  894  29.289   9.547   8.184
  975ETHY    C1  895  29.574   9.650   8.524
  976ETHY    C1  896  29.876   9.854   8.921
  977ETHY    C1  897  30.121  10.144   9.294
  978ETHY    C1  898  30.305  10.507   9.638
  979ETHY    C1  899  30.424  10.937   9.948
  980THSLK    S  900  29.055   9.925   7.771
  981ETHY    C1  901  29.299  10.279   7.922
  982ETHY    C1  902  29.512  10.745   8.087
  983ETHY    C1  903  29.628  11.244   8.231
  984ETHY    C1  904  29.647  11.762   8.356
  985ETHY    C1  905  29.572  12.290   8.458
  986AUSL   AUS  906  28.852   8.438   7.911
  987AUSL   AUS  907  29.269   8.507   7.766
  988AUL    AUL  908  29.155   8.223   7.992
  989THSLK    S  909  28.808   8.183   7.990
  990ETHY    C1  910  28.648   7.779   8.128
  991ETHY    C1  911  28.534   7.298   8.341
  992ETHY    C1  912  28.509   6.837   8.605
  993ETHY    C1  913  28.568   6.407   8.915
  994ETHY    C1  914  28.709   6.015   9.263
  995THSLK    S  915  29.384   8.318   7.908
  996ETHY    C1  916  29.500   7.902   8.052
  997ETHY    C1  917  29.714   7.449   8.248
  998ETHY    C1  918  30.006   7.061   8.467
  999ETHY    C1  919  30.365   6.746   8.705
 1000ETHY    C1  920  30.782   6.509   8.958
 1001AUSL   AUS  921  28.700   8.344   7.665
 1002AUSL   AUS  922  28.587   8.601   8.012
 1003AUL    AUL  923  28.549   8.223   7.992
 1004THSLK    S  924  28.647   8.104   7.745
 1005ETHY    C1  925  28.402   7.723   7.801
 1006ETHY    C1  926  28.189   7.238   7.897
 1007ETHY    C1  927  28.074   6.735   8.025
 1008ETHY    C1  928  28.055   6.226   8.186
 1009ETHY    C1  929  28.129   5.723   8.374
 1010THSLK    S  930  28.409   8.433   8.133
 1011ETHY    C1  931  28.121   8.115   8.289
 1012ETHY    C1  932  27.821   7.755   8.552
 1013ETHY    C1  933  27.578   7.429   8.896
 1014ETHY    C1  934  27.394   7.146   9.309
 1015ETHY    C1  935  27.270   6.912   9.783
 1016AUSL   AUS  936  29.004   8.344   7.665
 1017AUSL   AUS  937  28.700   8.344   7.338
 1018AUL    AUL  938  28.852   8.036   7.502
 1019THSLK    S  939  28.649   8.101   7.266
 1020ETHY    C1  940  28.405   7.719   7.215
 1021ETHY    C1  941  28.192   7.235   7.117
 1022ETHY    C1  942  28.076   6.733   6.984
 1023ETHY    C1  943  28.057   6.224   6.825
 1024ETHY    C1  944  28.133   5.719   6.642
 1025THSLK    S  945  28.961   8.088   7.749
 1026ETHY    C1  946  28.851   7.652   7.821
 1027ETHY    C1  947  28.808   7.126   7.928
 1028ETHY    C1  948  28.865   6.614   8.059
 1029ETHY    C1  949  29.018   6.126   8.213
 1030ETHY    C1  950  29.260   5.673   8.388
 1031AUSL   AUS  951  28.852   9.598   7.093
 1032AUSL   AUS  952  29.269   9.528   7.237
 1033AUL    AUL  953  29.155   9.812   7.011
 1034THSLK    S  954  28.896   9.828   6.975
 1035ETHY    C1  955  29.056  10.132   6.674
 1036ETHY    C1  956  29.170  10.537   6.339
 1037ETHY    C1  957  29.195  10.980   6.045
 1038ETHY    C1  958  29.136  11.449   5.798
 1039ETHY    C1  959  28.995  11.936   5.604
 1040THSLK    S  960  29.456   9.649   7.085
 1041ETHY    C1  961  29.830   9.805   6.876
 1042ETHY    C1  962  30.228  10.069   6.629
 1043ETHY    C1  963  30.561  10.413   6.395
 1044ETHY    C1  964  30.823  10.825   6.184
 1045ETHY    C1  965  31.014  11.299   5.998
 1046AUSL   AUS  966  28.700   9.691   7.338
 1047AUSL   AUS  967  28.587   9.434   6.992
 1048AUL    AUL  968  28.549   9.812   7.011
 1049THSLK    S  969  28.743   9.942   7.237
 1050ETHY    C1  970  28.853  10.353   7.074
 1051ETHY    C1  971  28.896  10.859   6.896
 1052ETHY    C1  972  28.839  11.367   6.745
 1053ETHY    C1  973  28.686  11.864   6.627
 1054ETHY    C1  974  28.444  12.343   6.545
 1055THSLK    S  975  28.473   9.569   6.802
 1056ETHY    C1  976  28.407   9.741   6.385
 1057ETHY    C1  977  28.264   9.993   5.932
 1058ETHY    C1  978  28.055  10.292   5.544
 1059ETHY    C1  979  27.789  10.630   5.230
 1060ETHY    C1  980  27.473  11.003   4.993
 1061AUSL   AUS  981  28.852   8.438   7.093
 1062AUSL   AUS  982  28.436   8.507   7.237
 1063AUL    AUL  983  28.549   8.223   7.011
 1064THSLK    S  984  28.252   8.357   7.128
 1065ETHY    C1  985  27.880   8.096   7.085
 1066ETHY    C1  986  27.481   7.758   6.958
 1067ETHY    C1  987  27.146   7.399   6.753
 1068ETHY    C1  988  26.884   7.025   6.478
 1069ETHY    C1  989  26.697   6.642   6.142
 1070THSLK    S  990  28.812   8.179   7.019
 1071ETHY    C1  991  28.655   7.773   6.885
 1072ETHY    C1  992  28.540   7.293   6.671
 1073ETHY    C1  993  28.513   6.834   6.404
 1074ETHY    C1  994  28.573   6.403   6.094
 1075ETHY    C1  995  28.717   6.008   5.751
 1076AUSL   AUS  996  29.004   8.344   7.338
 1077AUSL   AUS  997  29.117   8.601   6.992
 1078AUL    AUL  998  29.155   8.223   7.011
 1079THSLK    S  999  28.963   8.087   7.262
 1080ETHY    C1 1000  28.854   7.649   7.195
 1081ETHY    C1 1001  28.811   7.123   7.086
 1082ETHY    C1 1002  28.867   6.612   6.951
 1083ETHY    C1 1003  29.020   6.124   6.798
 1084ETHY    C1 1004  29.264   5.670   6.629
 1085THSLK    S 1005  29.237   8.411   6.853
 1086ETHY    C1 1006  29.306   8.025   6.621
 1087ETHY    C1 1007  29.448   7.617   6.300
 1088ETHY    C1 1008  29.655   7.281   5.942
 1089ETHY    C1 1009  29.921   7.024   5.559
 1090ETHY    C1 1010  30.241   6.846   5.158
 1091AUC    AUC 1011  17.537  24.387   7.502
 1092AUC    AUC 1012  17.783  24.387   7.350
 1093AUC    AUC 1013  17.783  24.387   7.653
 1094AUC    AUC 1014  17.292  24.387   7.350
 1095AUC    AUC 1015  17.292  24.387   7.653
 1096AUC    AUC 1016  17.385  24.632   7.502
 1097AUC    AUC 1017  17.689  24.632   7.502
 1098AUC    AUC 1018  17.385  24.141   7.502
 1099AUC    AUC 1019  17.689  24.141   7.502
 1100AUC    AUC 1020  17.537  24.235   7.747
 1101AUC    AUC 1021  17.537  24.538   7.747
 1102AUC    AUC 1022  17.537  24.235   7.256
 1103AUC    AUC 1023  17.537  24.538   7.256
 1104AUC    AUC 1024  18.028  24.387   7.198
 1105AUC    AUC 1025  18.028  24.387   7.502
 1106AUC    AUC 1026  18.028  24.387   7.805
 1107AUC    AUC 1027  17.046  24.387   7.198
 1108AUC    AUC 1028  17.046  24.387   7.502
 1109AUC    AUC 1029  17.046  24.387   7.805
 1110AUC    AUC 1030  17.234  24.877   7.502
 1111AUC    AUC 1031  17.537  24.877   7.502
 1112AUC    AUC 1032  17.840  24.877   7.502
 1113AUC    AUC 1033  17.234  23.896   7.502
 1114AUC    AUC 1034  17.537  23.896   7.502
 1115AUC    AUC 1035  17.840  23.896   7.502
 1116AUC    AUC 1036  17.537  24.083   7.992
 1117AUC    AUC 1037  17.537  24.387   7.992
 1118AUC    AUC 1038  17.537  24.690   7.992
 1119AUC    AUC 1039  17.537  24.083   7.011
 1120AUC    AUC 1040  17.537  24.387   7.011
 1121AUC    AUC 1041  17.537  24.690   7.011
 1122AUC    AUC 1042  17.783  24.235   7.899
 1123AUC    AUC 1043  17.783  24.538   7.899
 1124AUC    AUC 1044  17.783  24.235   7.105
 1125AUC    AUC 1045  17.783  24.538   7.105
 1126AUC    AUC 1046  17.292  24.235   7.899
 1127AUC    AUC 1047  17.292  24.538   7.899
 1128AUC    AUC 1048  17.292  24.235   7.105
 1129AUC    AUC 1049  17.292  24.538   7.105
 1130AUC    AUC 1050  17.934  24.632   7.350
 1131AUC    AUC 1051  17.934  24.632   7.653
 1132AUC    AUC 1052  17.140  24.632   7.350
 1133AUC    AUC 1053  17.140  24.632   7.653
 1134AUC    AUC 1054  17.934  24.141   7.350
 1135AUC    AUC 1055  17.934  24.141   7.653
 1136AUC    AUC 1056  17.140  24.141   7.350
 1137AUC    AUC 1057  17.140  24.141   7.653
 1138AUC    AUC 1058  17.385  24.784   7.747
 1139AUC    AUC 1059  17.689  24.784   7.747
 1140AUC    AUC 1060  17.385  23.989   7.747
 1141AUC    AUC 1061  17.689  23.989   7.747
 1142AUC    AUC 1062  17.385  24.784   7.256
 1143AUC    AUC 1063  17.689  24.784   7.256
 1144AUC    AUC 1064  17.385  23.989   7.256
 1145AUC    AUC 1065  17.689  23.989   7.256
 1146AUSL   AUS 1066  17.946  24.387   8.082
 1147AUSL   AUS 1067  17.802  23.970   8.012
 1148AUL    AUL 1068  18.028  24.083   8.296
 1149THSLK    S 1069  17.916  23.782   8.156
 1150ETHY    C1 1070  17.982  23.397   8.391
 1151ETHY    C1 1071  18.125  22.989   8.710
 1152ETHY    C1 1072  18.334  22.653   9.066
 1153ETHY    C1 1073  18.600  22.395   9.450
 1154ETHY    C1 1074  18.916  22.219   9.855
 1155THSLK    S 1075  18.042  24.337   8.326
 1156ETHY    C1 1076  18.258  24.151   8.681
 1157ETHY    C1 1077  18.533  24.016   9.124
 1158ETHY    C1 1078  18.814  23.986   9.575
 1159ETHY    C1 1079  19.092  24.055  10.025
 1160ETHY    C1 1080  19.361  24.223  10.466
 1161AUSL   AUS 1081  17.701  24.235   8.175
 1162AUSL   AUS 1082  17.374  24.538   8.175
 1163AUL    AUL 1083  17.537  24.387   8.483
 1164THSLK    S 1084  17.779  24.182   8.417
 1165ETHY    C1 1085  17.856  23.932   8.790
 1166ETHY    C1 1086  17.972  23.715   9.269
 1167ETHY    C1 1087  18.109  23.599   9.769
 1168ETHY    C1 1088  18.259  23.581  10.281
 1169ETHY    C1 1089  18.418  23.662  10.794
 1170THSLK    S 1090  17.287  24.495   8.431
 1171ETHY    C1 1091  17.205  24.383   8.864
 1172ETHY    C1 1092  17.091  24.337   9.388
 1173ETHY    C1 1093  16.959  24.395   9.901
 1174ETHY    C1 1094  16.808  24.548  10.389
 1175ETHY    C1 1095  16.642  24.792  10.844
 1176AUSL   AUS 1096  17.701  24.538   8.175
 1177AUSL   AUS 1097  18.047  24.651   7.918
 1178AUL    AUL 1098  18.028  24.690   8.296
 1179THSLK    S 1099  17.788  24.592   8.414
 1180ETHY    C1 1100  17.869  24.843   8.786
 1181ETHY    C1 1101  17.983  25.059   9.265
 1182ETHY    C1 1102  18.116  25.175   9.767
 1183ETHY    C1 1103  18.266  25.193  10.279
 1184ETHY    C1 1104  18.432  25.113  10.789
 1185THSLK    S 1105  18.221  24.753   8.080
 1186ETHY    C1 1106  18.585  24.763   8.354
 1187ETHY    C1 1107  19.001  24.865   8.680
 1188ETHY    C1 1108  19.381  25.064   8.995
 1189ETHY    C1 1109  19.716  25.351   9.296
 1190ETHY    C1 1110  19.997  25.719   9.577
 1191AUSL   AUS 1111  17.946  24.387   6.922
 1192AUSL   AUS 1112  17.802  24.803   6.992
 1193AUL    AUL 1113  18.028  24.690   6.707
 1194THSLK    S 1114  18.049  24.337   6.681
 1195ETHY    C1 1115  18.270  24.151   6.329
 1196ETHY    C1 1116  18.543  24.016   5.885
 1197ETHY    C1 1117  18.821  23.986   5.432
 1198ETHY    C1 1118  19.099  24.055   4.982
 1199ETHY    C1 1119  19.373  24.223   4.545
 1200THSLK    S 1120  17.980  24.918   6.825
 1201ETHY    C1 1121  18.268  25.023   6.488
 1202ETHY    C1 1122  18.568  25.227   6.090
 1203ETHY    C1 1123  18.811  25.515   5.714
 1204ETHY    C1 1124  18.995  25.879   5.371
 1205ETHY    C1 1125  19.119  26.310   5.065
 1206AUSL   AUS 1126  17.701  24.235   6.828
 1207AUSL   AUS 1127  18.047  24.122   7.085
 1208AUL    AUL 1128  18.028  24.083   6.707
 1209THSLK    S 1129  18.184  23.930   6.944
 1210ETHY    C1 1130  18.392  23.587   6.729
 1211ETHY    C1 1131  18.693  23.245   6.442
 1212ETHY    C1 1132  19.044  22.992   6.133
 1213ETHY    C1 1133  19.438  22.830   5.812
 1214ETHY    C1 1134  19.867  22.759   5.486
 1215THSLK    S 1135  17.788  24.181   6.590
 1216ETHY    C1 1136  17.869  23.930   6.217
 1217ETHY    C1 1137  17.983  23.714   5.738
 1218ETHY    C1 1138  18.116  23.598   5.236
 1219ETHY    C1 1139  18.266  23.580   4.725
 1220ETHY    C1 1140  18.432  23.660   4.214
 1221AUSL   AUS 1141  17.701  24.538   6.828
 1222AUSL   AUS 1142  17.374  24.235   6.828
 1223AUL    AUL 1143  17.537  24.387   6.520
 1224THSLK    S 1144  17.279  24.181   6.592
 1225ETHY    C1 1145  17.142  23.933   6.235
 1226ETHY    C1 1146  16.982  23.719   5.767
 1227ETHY    C1 1147  16.835  23.604   5.269
 1228ETHY    C1 1148  16.708  23.585   4.751
 1229ETHY    C1 1149  16.603  23.661   4.224
 1230THSLK    S 1150  17.804  24.496   6.578
 1231ETHY    C1 1151  17.945  24.381   6.160
 1232ETHY    C1 1152  18.103  24.334   5.647
 1233ETHY    C1 1153  18.246  24.390   5.138
 1234ETHY    C1 1154  18.374  24.544   4.643
 1235ETHY    C1 1155  18.485  24.792   4.174
 1236AUSL   AUS 1156  17.128  24.387   8.082
 1237AUSL   AUS 1157  17.272  24.803   8.012
 1238AUL    AUL 1158  17.046  24.690   8.296
 1239THSLK    S 1159  17.025  24.337   8.322
 1240ETHY    C1 1160  16.804  24.151   8.674
 1241ETHY    C1 1161  16.531  24.016   9.118
 1242ETHY    C1 1162  16.254  23.986   9.571
 1243ETHY    C1 1163  15.976  24.055  10.021
 1244ETHY    C1 1164  15.701  24.223  10.458
 1245THSLK    S 1165  17.152  24.932   8.202
 1246ETHY    C1 1166  17.083  25.101   8.620
 1247ETHY    C1 1167  16.941  25.354   9.073
 1248ETHY    C1 1168  16.735  25.655   9.460
 1249ETHY    C1 1169  16.468  25.994   9.775
 1250ETHY    C1 1170  16.148  26.361  10.013
 1251AUSL   AUS 1171  17.374  24.235   8.175
 1252AUSL   AUS 1172  17.027  24.122   7.918
 1253AUL    AUL 1173  17.046  24.083   8.296
 1254THSLK    S 1174  16.849  23.958   8.029
 1255ETHY    C1 1175  16.481  23.705   8.125
 1256ETHY    C1 1176  16.066  23.426   8.323
 1257ETHY    C1 1177  15.688  23.186   8.611
 1258ETHY    C1 1178  15.354  22.990   8.978
 1259ETHY    C1 1179  15.068  22.844   9.415
 1260THSLK    S 1180  17.271  24.183   8.410
 1261ETHY    C1 1181  17.129  23.936   8.766
 1262ETHY    C1 1182  16.971  23.721   9.233
 1263ETHY    C1 1183  16.828  23.605   9.733
 1264ETHY    C1 1184  16.701  23.587  10.250
 1265ETHY    C1 1185  16.589  23.665  10.775
 1266AUSL   AUS 1186  17.128  24.387   6.922
 1267AUSL   AUS 1187  17.272  23.970   6.992
 1268AUL    AUL 1188  17.046  24.083   6.707
 1269THSLK    S 1189  17.033  24.337   6.677
 1270ETHY    C1 1190  16.816  24.151   6.322
 1271ETHY    C1 1191  16.541  24.016   5.879
 1272ETHY    C1 1192  16.260  23.986   5.429
 1273ETHY    C1 1193  15.982  24.055   4.978
 1274ETHY    C1 1194  15.714  24.223   4.537
 1275THSLK    S 1195  17.100  23.796   6.872
 1276ETHY    C1 1196  16.815  23.475   6.717
 1277ETHY    C1 1197  16.514  23.116   6.453
 1278ETHY    C1 1198  16.269  22.793   6.109
 1279ETHY    C1 1199  16.085  22.510   5.696
 1280ETHY    C1 1200  15.966  22.270   5.223
 1281AUSL   AUS 1201  17.374  24.538   6.828
 1282AUSL   AUS 1202  17.027  24.651   7.085
 1283AUL    AUL 1203  17.046  24.690   6.707
 1284THSLK    S 1204  16.896  24.781   6.893
 1285ETHY    C1 1205  16.690  24.881   6.499
 1286ETHY    C1 1206  16.388  25.045   6.085
 1287ETHY    C1 1207  16.034  25.257   5.748
 1288ETHY    C1 1208  15.641  25.511   5.494
 1289ETHY    C1 1209  15.216  25.804   5.324
 1290THSLK    S 1210  17.295  24.497   6.571
 1291ETHY    C1 1211  17.218  24.385   6.136
 1292ETHY    C1 1212  17.102  24.340   5.612
 1293ETHY    C1 1213  16.966  24.396   5.101
 1294ETHY    C1 1214  16.816  24.550   4.613
 1295ETHY    C1 1215  16.656  24.795   4.156
 1296AUSL   AUS 1216  18.117  24.796   7.502
 1297AUSL   AUS 1217  18.047  24.651   7.085
 1298AUL    AUL 1218  18.331  24.877   7.198
 1299THSLK    S 1219  18.226  24.754   6.930
 1300ETHY    C1 1220  18.593  24.765   6.659
 1301ETHY    C1 1221  19.008  24.867   6.332
 1302ETHY    C1 1222  19.386  25.065   6.014
 1303ETHY    C1 1223  19.720  25.352   5.713
 1304ETHY    C1 1224  20.006  25.722   5.438
 1305THSLK    S 1225  18.385  24.852   7.506
 1306ETHY    C1 1226  18.837  24.913   7.508
 1307ETHY    C1 1227  19.351  25.072   7.507
 1308ETHY    C1 1228  19.819  25.326   7.505
 1309ETHY    C1 1229  20.232  25.663   7.506
 1310ETHY    C1 1230  20.584  26.077   7.509
 1311AUSL   AUS 1231  18.211  24.550   7.350
 1312AUSL   AUS 1232  18.211  24.223   7.653
 1313AUL    AUL 1233  18.519  24.387   7.502
 1314THSLK    S 1234  18.470  24.593   7.348
 1315ETHY    C1 1235  18.915  24.523   7.278
 1316ETHY    C1 1236  19.446  24.530   7.190
 1317ETHY    C1 1237  19.959  24.640   7.101
 1318ETHY    C1 1238  20.444  24.846   7.017
 1319ETHY    C1 1239  20.891  25.143   6.940
 1320THSLK    S 1240  18.443  24.085   7.662
 1321ETHY    C1 1241  18.789  23.796   7.728
 1322ETHY    C1 1242  19.250  23.529   7.809
 1323ETHY    C1 1243  19.747  23.360   7.892
 1324ETHY    C1 1244  20.268  23.288   7.980
 1325ETHY    C1 1245  20.803  23.314   8.071
 1326AUSL   AUS 1246  18.211  24.550   7.653
 1327AUSL   AUS 1247  17.954  24.897   7.766
 1328AUL    AUL 1248  18.331  24.877   7.805
 1329THSLK    S 1249  18.137  25.016   7.926
 1330ETHY    C1 1250  18.509  25.171   8.139
 1331ETHY    C1 1251  18.909  25.436   8.385
 1332ETHY    C1 1252  19.243  25.780   8.615
 1333ETHY    C1 1253  19.505  26.193   8.827
 1334ETHY    C1 1254  19.692  26.665   9.019
 1335THSLK    S 1255  18.469  24.593   7.664
 1336ETHY    C1 1256  18.913  24.523   7.738
 1337ETHY    C1 1257  19.444  24.530   7.825
 1338ETHY    C1 1258  19.958  24.640   7.910
 1339ETHY    C1 1259  20.442  24.846   7.994
 1340ETHY    C1 1260  20.889  25.143   8.078
 1341AUSL   AUS 1261  16.957  24.796   7.502
 1342AUSL   AUS 1262  17.027  24.651   7.918
 1343AUL    AUL 1263  16.743  24.877   7.805
 1344THSLK    S 1264  16.891  24.774   8.109
 1345ETHY    C1 1265  16.682  24.870   8.503
 1346ETHY    C1 1266  16.381  25.036   8.917
 1347ETHY    C1 1267  16.030  25.251   9.254
 1348ETHY    C1 1268  15.636  25.505   9.509
 1349ETHY    C1 1269  15.207  25.792   9.678
 1350THSLK    S 1270  16.741  24.936   7.506
 1351ETHY    C1 1271  16.485  25.314   7.508
 1352ETHY    C1 1272  16.112  25.702   7.507
 1353ETHY    C1 1273  15.676  26.008   7.505
 1354ETHY    C1 1274  15.190  26.226   7.506
 1355ETHY    C1 1275  14.663  26.356   7.509
 1356AUSL   AUS 1276  16.863  24.550   7.350
 1357AUSL   AUS 1277  17.121  24.897   7.237
 1358AUL    AUL 1278  16.743  24.877   7.198
 1359THSLK    S 1279  16.632  24.665   7.303
 1360ETHY    C1 1280  16.285  24.853   7.075
 1361ETHY    C1 1281  15.825  25.045   6.872
 1362ETHY    C1 1282  15.327  25.195   6.758
 1363ETHY    C1 1283  14.806  25.305   6.733
 1364ETHY    C1 1284  14.272  25.375   6.796
 1365THSLK    S 1285  17.005  25.062   7.058
 1366ETHY    C1 1286  16.889  25.378   6.750
 1367ETHY    C1 1287  16.675  25.756   6.432
 1368ETHY    C1 1288  16.383  26.125   6.183
 1369ETHY    C1 1289  16.025  26.478   6.008
 1370ETHY    C1 1290  15.607  26.811   5.909
 1371AUSL   AUS 1291  16.863  24.550   7.653
 1372AUSL   AUS 1292  16.863  24.223   7.350
 1373AUL    AUL 1293  16.555  24.387   7.502
 1374THSLK    S 1294  16.605  24.149   7.390
 1375ETHY    C1 1295  16.161  24.114   7.486
 1376ETHY    C1 1296  15.630  24.033   7.518
 1377ETHY    C1 1297  15.116  23.908   7.458
 1378ETHY    C1 1298  14.632  23.740   7.311
 1379ETHY    C1 1299  14.185  23.533   7.083
 1380THSLK    S 1300  16.630  24.657   7.704
 1381ETHY    C1 1301  16.283  24.841   7.935
 1382ETHY    C1 1302  15.823  25.034   8.137
 1383ETHY    C1 1303  15.326  25.189   8.249
 1384ETHY    C1 1304  14.805  25.299   8.274
 1385ETHY    C1 1305  14.269  25.362   8.213
 1386AUSL   AUS 1306  18.117  23.977   7.502
 1387AUSL   AUS 1307  18.047  24.122   7.918
 1388AUL    AUL 1308  18.331  23.896   7.805
 1389THSLK    S 1309  18.333  23.837   7.506
 1390ETHY    C1 1310  18.589  23.459   7.508
 1391ETHY    C1 1311  18.962  23.071   7.507
 1392ETHY    C1 1312  19.398  22.765   7.505
 1393ETHY    C1 1313  19.884  22.547   7.506
 1394ETHY    C1 1314  20.411  22.417   7.509
 1395THSLK    S 1315  18.179  23.932   8.066
 1396ETHY    C1 1316  18.384  23.589   8.285
 1397ETHY    C1 1317  18.686  23.247   8.570
 1398ETHY    C1 1318  19.040  22.994   8.877
 1399ETHY    C1 1319  19.434  22.831   9.198
 1400ETHY    C1 1320  19.858  22.761   9.529
 1401AUSL   AUS 1321  18.211  24.223   7.350
 1402AUSL   AUS 1322  17.954  23.876   7.237
 1403AUL    AUL 1323  18.331  23.896   7.198
 1404THSLK    S 1324  18.444  24.085   7.350
 1405ETHY    C1 1325  18.792  23.796   7.289
 1406ETHY    C1 1326  19.251  23.529   7.206
 1407ETHY    C1 1327  19.748  23.360   7.118
 1408ETHY    C1 1328  20.270  23.288   7.031
 1409ETHY    C1 1329  20.805  23.314   6.947
 1410THSLK    S 1330  18.073  23.686   7.104
 1411ETHY    C1 1331  18.190  23.269   6.963
 1412ETHY    C1 1332  18.404  22.815   6.765
 1413ETHY    C1 1333  18.694  22.429   6.543
 1414ETHY    C1 1334  19.053  22.114   6.306
 1415ETHY    C1 1335  19.473  21.875   6.058
 1416AUSL   AUS 1336  16.957  23.977   7.502
 1417AUSL   AUS 1337  17.027  24.122   7.085
 1418AUL    AUL 1338  16.743  23.896   7.198
 1419THSLK    S 1339  16.854  23.951   6.973
 1420ETHY    C1 1340  16.489  23.694   6.877
 1421ETHY    C1 1341  16.073  23.417   6.679
 1422ETHY    C1 1342  15.693  23.180   6.392
 1423ETHY    C1 1343  15.359  22.984   6.025
 1424ETHY    C1 1344  15.077  22.832   5.587
 1425THSLK    S 1345  16.689  23.921   7.506
 1426ETHY    C1 1346  16.237  23.860   7.508
 1427ETHY    C1 1347  15.723  23.701   7.507
 1428ETHY    C1 1348  15.255  23.447   7.505
 1429ETHY    C1 1349  14.842  23.110   7.506
 1430ETHY    C1 1350  14.490  22.696   7.509
 1431AUSL   AUS 1351  16.863  24.223   7.653
 1432AUSL   AUS 1352  17.121  23.876   7.766
 1433AUL    AUL 1353  16.743  23.896   7.805
 1434THSLK    S 1354  16.933  23.732   7.880
 1435ETHY    C1 1355  16.559  23.475   7.926
 1436ETHY    C1 1356  16.161  23.135   8.052
 1437ETHY    C1 1357  15.828  22.773   8.255
 1438ETHY    C1 1358  15.566  22.399   8.529
 1439ETHY    C1 1359  15.375  22.021   8.870
 1440THSLK    S 1360  16.604  24.156   7.617
 1441ETHY    C1 1361  16.159  24.126   7.524
 1442ETHY    C1 1362  15.628  24.044   7.490
 1443ETHY    C1 1363  15.115  23.915   7.549
 1444ETHY    C1 1364  14.631  23.747   7.696
 1445ETHY    C1 1365  14.183  23.545   7.928
 1446AUSL   AUS 1366  17.537  24.967   7.911
 1447AUSL   AUS 1367  17.121  24.897   7.766
 1448AUL    AUL 1368  17.234  25.181   7.992
 1449THSLK    S 1369  17.001  25.056   7.950
 1450ETHY    C1 1370  16.884  25.368   8.261
 1451ETHY    C1 1371  16.670  25.748   8.578
 1452ETHY    C1 1372  16.380  26.119   8.824
 1453ETHY    C1 1373  16.022  26.473   9.000
 1454ETHY    C1 1374  15.601  26.801   9.102
 1455THSLK    S 1375  17.577  25.193   8.035
 1456ETHY    C1 1376  17.734  25.495   8.339
 1457ETHY    C1 1377  17.849  25.901   8.672
 1458ETHY    C1 1378  17.876  26.345   8.964
 1459ETHY    C1 1379  17.816  26.814   9.211
 1460ETHY    C1 1380  17.672  27.298   9.410
 1461AUSL   AUS 1381  17.385  25.060   7.665
 1462AUSL   AUS 1382  17.689  25.060   7.338
 1463AUL    AUL 1383  17.537  25.368   7.502
 1464THSLK    S 1384  17.426  25.308   7.774
 1465ETHY    C1 1385  17.535  25.718   7.942
 1466ETHY    C1 1386  17.579  26.225   8.118
 1467ETHY    C1 1387  17.522  26.733   8.265
 1468ETHY    C1 1388  17.369  27.230   8.383
 1469ETHY    C1 1389  17.126  27.707   8.472
 1470THSLK    S 1390  17.742  25.295   7.241
 1471ETHY    C1 1391  17.987  25.651   7.094
 1472ETHY    C1 1392  18.200  26.116   6.927
 1473ETHY    C1 1393  18.315  26.614   6.779
 1474ETHY    C1 1394  18.335  27.133   6.655
 1475ETHY    C1 1395  18.260  27.662   6.558
 1476AUSL   AUS 1396  17.689  25.060   7.665
 1477AUSL   AUS 1397  17.802  24.803   8.012
 1478AUL    AUL 1398  17.840  25.181   7.992
 1479THSLK    S 1399  17.974  24.916   8.184
 1480ETHY    C1 1400  18.259  25.019   8.524
 1481ETHY    C1 1401  18.561  25.223   8.921
 1482ETHY    C1 1402  18.806  25.513   9.294
 1483ETHY    C1 1403  18.990  25.876   9.638
 1484ETHY    C1 1404  19.109  26.306   9.948
 1485THSLK    S 1405  17.740  25.294   7.771
 1486ETHY    C1 1406  17.984  25.648   7.922
 1487ETHY    C1 1407  18.197  26.114   8.087
 1488ETHY    C1 1408  18.313  26.613   8.231
 1489ETHY    C1 1409  18.332  27.131   8.356
 1490ETHY    C1 1410  18.257  27.659   8.458
 1491AUSL   AUS 1411  17.537  23.807   7.911
 1492AUSL   AUS 1412  17.954  23.876   7.766
 1493AUL    AUL 1413  17.840  23.592   7.992
 1494THSLK    S 1414  17.493  23.552   7.990
 1495ETHY    C1 1415  17.333  23.148   8.128
 1496ETHY    C1 1416  17.219  22.667   8.341
 1497ETHY    C1 1417  17.194  22.206   8.605
 1498ETHY    C1 1418  17.253  21.776   8.915
 1499ETHY    C1 1419  17.394  21.384   9.263
 1500THSLK    S 1420  18.069  23.687   7.908
 1501ETHY    C1 1421  18.185  23.271   8.052
 1502ETHY    C1 1422  18.399  22.818   8.248
 1503ETHY    C1 1423  18.691  22.430   8.467
 1504ETHY    C1 1424  19.050  22.115   8.705
 1505ETHY    C1 1425  19.467  21.878   8.958
 1506AUSL   AUS 1426  17.385  23.713   7.665
 1507AUSL   AUS 1427  17.272  23.970   8.012
 1508AUL    AUL 1428  17.234  23.592   7.992
 1509THSLK    S 1429  17.332  23.473   7.745
 1510ETHY    C1 1430  17.087  23.092   7.801
 1511ETHY    C1 1431  16.874  22.607   7.897
 1512ETHY    C1 1432  16.759  22.104   8.025
 1513ETHY    C1 1433  16.740  21.595   8.186
 1514ETHY    C1 1434  16.814  21.092   8.374
 1515THSLK    S 1435  17.094  23.802   8.133
 1516ETHY    C1 1436  16.806  23.484   8.289
 1517ETHY    C1 1437  16.506  23.124   8.552
 1518ETHY    C1 1438  16.263  22.798   8.896
 1519ETHY    C1 1439  16.079  22.515   9.309
 1520ETHY    C1 1440  15.955  22.281   9.783
 1521AUSL   AUS 1441  17.689  23.713   7.665
 1522AUSL   AUS 1442  17.385  23.713   7.338
 1523AUL    AUL 1443  17.537  23.405   7.502
 1524THSLK    S 1444  17.334  23.470   7.266
 1525ETHY    C1 1445  17.090  23.088   7.215
 1526ETHY    C1 1446  16.877  22.604   7.117
 1527ETHY    C1 1447  16.761  22.102   6.984
 1528ETHY    C1 1448  16.742  21.593   6.825
 1529ETHY    C1 1449  16.818  21.088   6.642
 1530THSLK    S 1450  17.646  23.457   7.749
 1531ETHY    C1 1451  17.536  23.021   7.821
 1532ETHY    C1 1452  17.493  22.495   7.928
 1533ETHY    C1 1453  17.550  21.983   8.059
 1534ETHY    C1 1454  17.703  21.495   8.213
 1535ETHY    C1 1455  17.945  21.042   8.388
 1536AUSL   AUS 1456  17.537  24.967   7.093
 1537AUSL   AUS 1457  17.954  24.897   7.237
 1538AUL    AUL 1458  17.840  25.181   7.011
 1539THSLK    S 1459  17.581  25.197   6.975
 1540ETHY    C1 1460  17.741  25.501   6.674
 1541ETHY    C1 1461  17.855  25.906   6.339
 1542ETHY    C1 1462  17.880  26.349   6.045
 1543ETHY    C1 1463  17.821  26.818   5.798
 1544ETHY    C1 1464  17.680  27.305   5.604
 1545THSLK    S 1465  18.141  25.018   7.085
 1546ETHY    C1 1466  18.515  25.174   6.876
 1547ETHY    C1 1467  18.913  25.438   6.629
 1548ETHY    C1 1468  19.246  25.782   6.395
 1549ETHY    C1 1469  19.508  26.194   6.184
 1550ETHY    C1 1470  19.699  26.668   5.998
 1551AUSL   AUS 1471  17.385  25.060   7.338
 1552AUSL   AUS 1472  17.272  24.803   6.992
 1553AUL    AUL 1473  17.234  25.181   7.011
 1554THSLK    S 1474  17.428  25.311   7.237
 1555ETHY    C1 1475  17.538  25.722   7.074
 1556ETHY    C1 1476  17.581  26.228   6.896
 1557ETHY    C1 1477  17.524  26.736   6.745
 1558ETHY    C1 1478  17.371  27.233   6.627
 1559ETHY    C1 1479  17.129  27.712   6.545
 1560THSLK    S 1480  17.158  24.938   6.802
 1561ETHY    C1 1481  17.092  25.110   6.385
 1562ETHY    C1 1482  16.949  25.362   5.932
 1563ETHY    C1 1483  16.740  25.661   5.544
 1564ETHY    C1 1484  16.474  25.999   5.230
 1565ETHY    C1 1485  16.158  26.372   4.993
 1566AUSL   AUS 1486  17.537  23.807   7.093
 1567AUSL   AUS 1487  17.121  23.876   7.237
 1568AUL    AUL 1488  17.234  23.592   7.011
 1569THSLK    S 1489  16.937  23.726   7.128
 1570ETHY    C1 1490  16.565  23.465   7.085
 1571ETHY    C1 1491  16.166  23.127   6.958
 1572ETHY    C1 1492  15.831  22.768   6.753
 1573ETHY    C1 1493  15.569  22.394   6.478
 1574ETHY    C1 1494  15.382  22.011   6.142
 1575THSLK    S 1495  17.497  23.548   7.019
 1576ETHY    C1 1496  17.340  23.142   6.885
 1577ETHY    C1 1497  17.225  22.662   6.671
 1578ETHY    C1 1498  17.198  22.203   6.404
 1579ETHY    C1 1499  17.258  21.772   6.094
 1580ETHY    C1 1500  17.402  21.377   5.751
 1581AUSL   AUS 1501  17.689  23.713   7.338
 1582AUSL   AUS 1502  17.802  23.970   6.992
 1583AUL    AUL 1503  17.840  23.592   7.011
 1584THSLK    S 1504  17.648  23.456   7.262
 1585ETHY    C1 1505  17.539  23.018   7.195
 1586ETHY    C1 1506  17.496  22.492   7.086
 1587ETHY    C1 1507  17.552  21.981   6.951
 1588ETHY    C1 1508  17.705  21.493   6.798
 1589ETHY    C1 1509  17.949  21.039   6.629
 1590THSLK    S 1510  17.922  23.780   6.853
 1591ETHY    C1 1511  17.991  23.394   6.621
 1592ETHY    C1 1512  18.133  22.986   6.300
 1593ETHY    C1 1513  18.340  22.650   5.942
 1594ETHY    C1 1514  18.606  22.393   5.559
 1595ETHY    C1 1515  18.926  22.215   5.158
 1596AUC    AUC 1516  38.137  10.310   7.502
 1597AUC    AUC 1517  38.383  10.310   7.350
 1598AUC    AUC 1518  38.383  10.310   7.653
 1599AUC    AUC 1519  37.892  10.310   7.350
 1600AUC    AUC 1520  37.892  10.310   7.653
 1601AUC    AUC 1521  37.985  10.555   7.502
 1602AUC    AUC 1522  38.289  10.555   7.502
 1603AUC    AUC 1523  37.985  10.064   7.502
 1604AUC    AUC 1524  38.289  10.064   7.502
 1605AUC    AUC 1525  38.137  10.158   7.747
 1606AUC    AUC 1526  38.137  10.461   7.747
 1607AUC    AUC 1527  38.137  10.158   7.256
 1608AUC    AUC 1528  38.137  10.461   7.256
 1609AUC    AUC 1529  38.628  10.310   7.198
 1610AUC    AUC 1530  38.628  10.310   7.502
 1611AUC    AUC 1531  38.628  10.310   7.805
 1612AUC    AUC 1532  37.646  10.310   7.198
 1613AUC    AUC 1533  37.646  10.310   7.502
 1614AUC    AUC 1534  37.646  10.310   7.805
 1615AUC    AUC 1535  37.834  10.800   7.502
 1616AUC    AUC 1536  38.137  10.800   7.502
 1617AUC    AUC 1537  38.440  10.800   7.502
 1618AUC    AUC 1538  37.834   9.819   7.502
 1619AUC    AUC 1539  38.137   9.819   7.502
 1620AUC    AUC 1540  38.440   9.819   7.502
 1621AUC    AUC 1541  38.137  10.006   7.992
 1622AUC    AUC 1542  38.137  10.310   7.992
 1623AUC    AUC 1543  38.137  10.613   7.992
 1624AUC    AUC 1544  38.137  10.006   7.011
 1625AUC    AUC 1545  38.137  10.310   7.011
 1626AUC    AUC 1546  38.137  10.613   7.011
 1627AUC    AUC 1547  38.383  10.158   7.899
 1628AUC    AUC 1548  38.383  10.461   7.899
 1629AUC    AUC 1549  38.383  10.158   7.105
 1630AUC    AUC 1550  38.383  10.461   7.105
 1631AUC    AUC 1551  37.892  10.158   7.899
 1632AUC    AUC 1552  37.892  10.461   7.899
 1633AUC    AUC 1553  37.892  10.158   7.105
 1634AUC    AUC 1554  37.892  10.461   7.105
 1635AUC    AUC 1555  38.534  10.555   7.350
 1636AUC    AUC 1556  38.534  10.555   7.653
 1637AUC    AUC 1557  37.740  10.555   7.350
 1638AUC    AUC 1558  37.740  10.555   7.653
 1639AUC    AUC 1559  38.534  10.064   7.350
 1640AUC    AUC 1560  38.534  10.064   7.653
 1641AUC    AUC 1561  37.740  10.064   7.350
 1642AUC    AUC 1562  37.740  10.064   7.653
 1643AUC    AUC 1563  37.985  10.707   7.747
 1644AUC    AUC 1564  38.289  10.707   7.747
 1645AUC    AUC 1565  37.985   9.912   7.747
 1646AUC    AUC 1566  38.289   9.912   7.747
 1647AUC    AUC 1567  37.985  10.707   7.256
 1648AUC    AUC 1568  38.289  10.707   7.256
 1649AUC    AUC 1569  37.985   9.912   7.256
 1650AUC    AUC 1570  38.289   9.912   7.256
 1651AUSL   AUS 1571  38.546  10.310   8.082
 1652AUSL   AUS 1572  38.402   9.893   8.012
 1653AUL    AUL 1573  38.628  10.006   8.296
 1654THSLK    S 1574  38.516   9.705   8.156
 1655ETHY    C1 1575  38.582   9.320   8.391
 1656ETHY    C1 1576  38.725   8.912   8.710
 1657ETHY    C1 1577  38.934   8.576   9.066
 1658ETHY    C1 1578  39.200   8.318   9.450
 1659ETHY    C1 1579  39.516   8.142   9.855
 1660THSLK    S 1580  38.642  10.260   8.326
 1661ETHY    C1 1581  38.858  10.074   8.681
 1662ETHY    C1 1582  39.133   9.939   9.124
 1663ETHY    C1 1583  39.414   9.909   9.575
 1664ETHY    C1 1584  39.692   9.978  10.025
 1665ETHY    C1 1585  39.961  10.146  10.466
 1666AUSL   AUS 1586  38.301  10.158   8.175
 1667AUSL   AUS 1587  37.974  10.461   8.175
 1668AUL    AUL 1588  38.137  10.310   8.483
 1669THSLK    S 1589  38.379  10.105   8.417
 1670ETHY    C1 1590  38.456   9.855   8.790
 1671ETHY    C1 1591  38.572   9.638   9.269
 1672ETHY    C1 1592  38.709   9.522   9.769
 1673ETHY    C1 1593  38.859   9.504  10.281
 1674ETHY    C1 1594  39.018   9.585  10.794
 1675THSLK    S 1595  37.887  10.418   8.431
 1676ETHY    C1 1596  37.805  10.306   8.864
 1677ETHY    C1 1597  37.691  10.260   9.388
 1678ETHY    C1 1598  37.559  10.318   9.901
 1679ETHY    C1 1599  37.408  10.471  10.389
 1680ETHY    C1 1600  37.242  10.715  10.844
 1681AUSL   AUS 1601  38.301  10.461   8.175
 1682AUSL   AUS 1602  38.647  10.574   7.918
 1683AUL    AUL 1603  38.628  10.613   8.296
 1684THSLK    S 1604  38.388  10.515   8.414
 1685ETHY    C1 1605  38.469  10.766   8.786
 1686ETHY    C1 1606  38.583  10.982   9.265
 1687ETHY    C1 1607  38.716  11.098   9.767
 1688ETHY    C1 1608  38.866  11.116  10.279
 1689ETHY    C1 1609  39.032  11.036  10.789
 1690THSLK    S 1610  38.821  10.676   8.080
 1691ETHY    C1 1611  39.185  10.686   8.354
 1692ETHY    C1 1612  39.601  10.788   8.680
 1693ETHY    C1 1613  39.981  10.987   8.995
 1694ETHY    C1 1614  40.316  11.274   9.296
 1695ETHY    C1 1615  40.597  11.642   9.577
 1696AUSL   AUS 1616  38.546  10.310   6.922
 1697AUSL   AUS 1617  38.402  10.726   6.992
 1698AUL    AUL 1618  38.628  10.613   6.707
 1699THSLK    S 1619  38.649  10.260   6.681
 1700ETHY    C1 1620  38.870  10.074   6.329
 1701ETHY    C1 1621  39.143   9.939   5.885
 1702ETHY    C1 1622  39.421   9.909   5.432
 1703ETHY    C1 1623  39.699   9.978   4.982
 1704ETHY    C1 1624  39.973  10.146   4.545
 1705THSLK    S 1625  38.580  10.841   6.825
 1706ETHY    C1 1626  38.868  10.946   6.488
 1707ETHY    C1 1627  39.168  11.150   6.090
 1708ETHY    C1 1628  39.411  11.438   5.714
 1709ETHY    C1 1629  39.595  11.802   5.371
 1710ETHY    C1 1630  39.719  12.233   5.065
 1711AUSL   AUS 1631  38.301  10.158   6.828
 1712AUSL   AUS 1632  38.647  10.045   7.085
 1713AUL    AUL 1633  38.628  10.006   6.707
 1714THSLK    S 1634  38.784   9.853   6.944
 1715ETHY    C1 1635  38.992   9.510   6.729
 1716ETHY    C1 1636  39.293   9.168   6.442
 1717ETHY    C1 1637  39.644   8.915   6.133
 1718ETHY    C1 1638  40.038   8.753   5.812
 1719ETHY    C1 1639  40.467   8.682   5.486
 1720THSLK    S 1640  38.388  10.104   6.590
 1721ETHY    C1 1641  38.469   9.853   6.217
 1722ETHY    C1 1642  38.583   9.637   5.738
 1723ETHY    C1 1643  38.716   9.521   5.236
 1724ETHY    C1 1644  38.866   9.503   4.725
 1725ETHY    C1 1645  39.032   9.583   4.214
 1726AUSL   AUS 1646  38.301  10.461   6.828
 1727AUSL   AUS 1647  37.974  10.158   6.828
 1728AUL    AUL 1648  38.137  10.310   6.520
 1729THSLK    S 1649  37.879  10.104   6.592
 1730ETHY    C1 1650  37.742   9.856   6.235
 1731ETHY    C1 1651  37.582   9.642   5.767
 1732ETHY    C1 1652  37.435   9.527   5.269
 1733ETHY    C1 1653  37.308   9.508   4.751
 1734ETHY    C1 1654  37.203   9.584   4.224
 1735THSLK    S 1655  38.404  10.419   6.578
 1736ETHY    C1 1656  38.545  10.304   6.160
 1737ETHY    C1 1657  38.703  10.257   5.647
 1738ETHY    C1 1658  38.846  10.313   5.138
 1739ETHY    C1 1659  38.974  10.467   4.643
 1740ETHY    C1 1660  39.085  10.715   4.174
 1741AUSL   AUS 1661  37.728  10.310   8.082
 1742AUSL   AUS 1662  37.872  10.726   8.012
 1743AUL    AUL 1663  37.646  10.613   8.296
 1744THSLK    S 1664  37.625  10.260   8.322
 1745ETHY    C1 1665  37.404  10.074   8.674
 1746ETHY    C1 1666  37.131   9.939   9.118
 1747ETHY    C1 1667  36.854   9.909   9.571
 1748ETHY    C1 1668  36.576   9.978  10.021
 1749ETHY    C1 1669  36.301  10.146  10.458
 1750THSLK    S 1670  37.752  10.855   8.202
 1751ETHY    C1 1671  37.683  11.024   8.620
 1752ETHY    C1 1672  37.541  11.277   9.073
 1753ETHY    C1 1673  37.335  11.578   9.460
 1754ETHY    C1 1674  37.068  11.917   9.775
 1755ETHY    C1 1675  36.748  12.284  10.013
 1756AUSL   AUS 1676  37.974  10.158   8.175
 1757AUSL   AUS 1677  37.627  10.045   7.918
 1758AUL    AUL 1678  37.646  10.006   8.296
 1759THSLK    S 1679  37.449   9.881   8.029
 1760ETHY    C1 1680  37.081   9.628   8.125
 1761ETHY    C1 1681  36.666   9.349   8.323
 1762ETHY    C1 1682  36.288   9.109   8.611
 1763ETHY    C1 1683  35.954   8.913   8.978
 1764ETHY    C1 1684  35.668   8.767   9.415
 1765THSLK    S 1685  37.871  10.106   8.410
 1766ETHY    C1 1686  37.729   9.859   8.766
 1767ETHY    C1 1687  37.571   9.644   9.233
 1768ETHY    C1 1688  37.428   9.528   9.733
 1769ETHY    C1 1689  37.301   9.510  10.250
 1770ETHY    C1 1690  37.189   9.588  10.775
 1771AUSL   AUS 1691  37.728  10.310   6.922
 1772AUSL   AUS 1692  37.872   9.893   6.992
 1773AUL    AUL 1693  37.646  10.006   6.707
 1774THSLK    S 1694  37.633  10.260   6.677
 1775ETHY    C1 1695  37.416  10.074   6.322
 1776ETHY    C1 1696  37.141   9.939   5.879
 1777ETHY    C1 1697  36.860   9.909   5.429
 1778ETHY    C1 1698  36.582   9.978   4.978
 1779ETHY    C1 1699  36.314  10.146   4.537
 1780THSLK    S 1700  37.700   9.719   6.872
 1781ETHY    C1 1701  37.415   9.398   6.717
 1782ETHY    C1 1702  37.114   9.039   6.453
 1783ETHY    C1 1703  36.869   8.716   6.109
 1784ETHY    C1 1704  36.685   8.433   5.696
 1785ETHY    C1 1705  36.566   8.193   5.223
 1786AUSL   AUS 1706  37.974  10.461   6.828
 1787AUSL   AUS 1707  37.627  10.574   7.085
 1788AUL    AUL 1708  37.646  10.613   6.707
 1789THSLK    S 1709  37.496  10.704   6.893
 1790ETHY    C1 1710  37.290  10.804   6.499
 1791ETHY    C1 1711  36.988  10.968   6.085
 1792ETHY    C1 1712  36.634  11.180   5.748
 1793ETHY    C1 1713  36.241  11.434   5.494
 1794ETHY    C1 1714  35.816  11.727   5.324
 1795THSLK    S 1715  37.895  10.420   6.571
 1796ETHY    C1 1716  37.818  10.308   6.136
 1797ETHY    C1 1717  37.702  10.263   5.612
 1798ETHY    C1 1718  37.566  10.319   5.101
 1799ETHY    C1 1719  37.416  10.473   4.613
 1800ETHY    C1 1720  37.256  10.718   4.156
 1801AUSL   AUS 1721  38.717  10.719   7.502
 1802AUSL   AUS 1722  38.647  10.574   7.085
 1803AUL    AUL 1723  38.931  10.800   7.198
 1804THSLK    S 1724  38.826  10.677   6.930
 1805ETHY    C1 1725  39.193  10.688   6.659
 1806ETHY    C1 1726  39.608  10.790   6.332
 1807ETHY    C1 1727  39.986  10.988   6.014
 1808ETHY    C1 1728  40.320  11.275   5.713
 1809ETHY    C1 1729  40.606  11.645   5.438
 1810THSLK    S 1730  38.985  10.775   7.506
 1811ETHY    C1 1731  39.437  10.836   7.508
 1812ETHY    C1 1732  39.951  10.995   7.507
 1813ETHY    C1 1733  40.419  11.249   7.505
 1814ETHY    C1 1734  40.832  11.586   7.506
 1815ETHY    C1 1735  41.184  12.000   7.509
 1816AUSL   AUS 1736  38.811  10.473   7.350
 1817AUSL   AUS 1737  38.811  10.146   7.653
 1818AUL    AUL 1738  39.119  10.310   7.502
 1819THSLK    S 1739  39.070  10.516   7.348
 1820ETHY    C1 1740  39.515  10.446   7.278
 1821ETHY    C1 1741  40.046  10.453   7.190
 1822ETHY    C1 1742  40.559  10.563   7.101
 1823ETHY    C1 1743  41.044  10.769   7.017
 1824ETHY    C1 1744  41.491  11.066   6.940
 1825THSLK    S 1745  39.043  10.008   7.662
 1826ETHY    C1 1746  39.389   9.719   7.728
 1827ETHY    C1 1747  39.850   9.452   7.809
 1828ETHY    C1 1748  40.347   9.283   7.892
 1829ETHY    C1 1749  40.868   9.211   7.980
 1830ETHY    C1 1750  41.403   9.237   8.071
 1831AUSL   AUS 1751  38.811  10.473   7.653
 1832AUSL   AUS 1752  38.554  10.820   7.766
 1833AUL    AUL 1753  38.931  10.800   7.805
 1834THSLK    S 1754  38.737  10.939   7.926
 1835ETHY    C1 1755  39.109  11.094   8.139
 1836ETHY    C1 1756  39.509  11.359   8.385
 1837ETHY    C1 1757  39.843  11.703   8.615
 1838ETHY    C1 1758  40.105  12.116   8.827
 1839ETHY    C1 1759  40.292  12.588   9.019
 1840THSLK    S 1760  39.069  10.516   7.664
 1841ETHY    C1 1761  39.513  10.446   7.738
 1842ETHY    C1 1762  40.044  10.453   7.825
 1843ETHY    C1 1763  40.558  10.563   7.910
 1844ETHY    C1 1764  41.042  10.769   7.994
 1845ETHY    C1 1765  41.489  11.066   8.078
 1846AUSL   AUS 1766  37.557  10.719   7.502
 1847AUSL   AUS 1767  37.627  10.574   7.918
 1848AUL    AUL 1768  37.343  10.800   7.805
 1849THSLK    S 1769  37.491  10.697   8.109
 1850ETHY    C1 1770  37.282  10.793   8.503
 1851ETHY    C1 1771  36.981  10.959   8.917
 1852ETHY    C1 1772  36.630  11.174   9.254
 1853ETHY    C1 1773  36.236  11.428   9.509
 1854ETHY    C1 1774  35.807  11.715   9.678
 1855THSLK    S 1775  37.341  10.859   7.506
 1856ETHY    C1 1776  37.085  11.237   7.508
 1857ETHY    C1 1777  36.712  11.625   7.507
 1858ETHY    C1 1778  36.276  11.931   7.505
 1859ETHY    C1 1779  35.790  12.149   7.506
 1860ETHY    C1 1780  35.263  12.279   7.509
 1861AUSL   AUS 1781  37.463  10.473   7.350
 1862AUSL   AUS 1782  37.721  10.820   7.237
 1863AUL    AUL 1783  37.343  10.800   7.198
 1864THSLK    S 1784  37.232  10.588   7.303
 1865ETHY    C1 1785  36.885  10.776   7.075
 1866ETHY    C1 1786  36.425  10.968   6.872
 1867ETHY    C1 1787  35.927  11.118   6.758
 1868ETHY    C1 1788  35.406  11.228   6.733
 1869ETHY    C1 1789  34.872  11.298   6.796
 1870THSLK    S 1790  37.605  10.985   7.058
 1871ETHY    C1 1791  37.489  11.301   6.750
 1872ETHY    C1 1792  37.275  11.679   6.432
 1873ETHY    C1 1793  36.983  12.048   6.183
 1874ETHY    C1 1794  36.625  12.401   6.008
 1875ETHY    C1 1795  36.207  12.734   5.909
 1876AUSL   AUS 1796  37.463  10.473   7.653
 1877AUSL   AUS 1797  37.463  10.146   7.350
 1878AUL    AUL 1798  37.155  10.310   7.502
 1879THSLK    S 1799  37.205  10.072   7.390
 1880ETHY    C1 1800  36.761  10.037   7.486
 1881ETHY    C1 1801  36.230   9.956   7.518
 1882ETHY    C1 1802  35.716   9.831   7.458
 1883ETHY    C1 1803  35.232   9.663   7.311
 1884ETHY    C1 1804  34.785   9.456   7.083
 1885THSLK    S 1805  37.230  10.580   7.704
 1886ETHY    C1 1806  36.883  10.764   7.935
 1887ETHY    C1 1807  36.423  10.957   8.137
 1888ETHY    C1 1808  35.926  11.112   8.249
 1889ETHY    C1 1809  35.405  11.222   8.274
 1890ETHY    C1 1810  34.869  11.285   8.213
 1891AUSL   AUS 1811  38.717   9.900   7.502
 1892AUSL   AUS 1812  38.647  10.045   7.918
 1893AUL    AUL 1813  38.931   9.819   7.805
 1894THSLK    S 1814  38.933   9.760   7.506
 1895ETHY    C1 1815  39.189   9.382   7.508
 1896ETHY    C1 1816  39.562   8.994   7.507
 1897ETHY    C1 1817  39.998   8.688   7.505
 1898ETHY    C1 1818  40.484   8.470   7.506
 1899ETHY    C1 1819  41.011   8.340   7.509
 1900THSLK    S 1820  38.779   9.855   8.066
 1901ETHY    C1 1821  38.984   9.512   8.285
 1902ETHY    C1 1822  39.286   9.170   8.570
 1903ETHY    C1 1823  39.640   8.917   8.877
 1904ETHY    C1 1824  40.034   8.754   9.198
 1905ETHY    C1 1825  40.458   8.684   9.529
 1906AUSL   AUS 1826  38.811  10.146   7.350
 1907AUSL   AUS 1827  38.554   9.799   7.237
 1908AUL    AUL 1828  38.931   9.819   7.198
 1909THSLK    S 1829  39.044  10.008   7.350
 1910ETHY    C1 1830  39.392   9.719   7.289
 1911ETHY    C1 1831  39.851   9.452   7.206
 1912ETHY    C1 1832  40.348   9.283   7.118
 1913ETHY    C1 1833  40.870   9.211   7.031
 1914ETHY    C1 1834  41.405   9.237   6.947
 1915THSLK    S 1835  38.673   9.609   7.104
 1916ETHY    C1 1836  38.790   9.192   6.963
 1917ETHY    C1 1837  39.004   8.738   6.765
 1918ETHY    C1 1838  39.294   8.352   6.543
 1919ETHY    C1 1839  39.653   8.037   6.306
 1920ETHY    C1 1840  40.073   7.798   6.058
 1921AUSL   AUS 1841  37.557   9.900   7.502
 1922AUSL   AUS 1842  37.627  10.045   7.085
 1923AUL    AUL 1843  37.343   9.819   7.198
 1924THSLK    S 1844  37.454   9.874   6.973
 1925ETHY    C1 1845  37.089   9.617   6.877
 1926ETHY    C1 1846  36.673   9.340   6.679
 1927ETHY    C1 1847  36.293   9.103   6.392
 1928ETHY    C1 1848  35.959   8.907   6.025
 1929ETHY    C1 1849  35.677   8.755   5.587
 1930THSLK    S 1850  37.289   9.844   7.506
 1931ETHY    C1 1851  36.837   9.783   7.508
 1932ETHY    C1 1852  36.323   9.624   7.507
 1933ETHY    C1 1853  35.855   9.370   7.505
 1934ETHY    C1 1854  35.442   9.033   7.506
 1935ETHY    C1 1855  35.090   8.619   7.509
 1936AUSL   AUS 1856  37.463  10.146   7.653
 1937AUSL   AUS 1857  37.721   9.799   7.766
 1938AUL    AUL 1858  37.343   9.819   7.805
 1939THSLK    S 1859  37.533   9.655   7.880
 1940ETHY    C1 1860  37.159   9.398   7.926
 1941ETHY    C1 1861  36.761   9.058   8.052
 1942ETHY    C1 1862  36.428   8.696   8.255
 1943ETHY    C1 1863  36.166   8.322   8.529
 1944ETHY    C1 1864  35.975   7.944   8.870
 1945THSLK    S 1865  37.204  10.079   7.617
 1946ETHY    C1 1866  36.759  10.049   7.524
 1947ETHY    C1 1867  36.228   9.967   7.490
 1948ETHY    C1 1868  35.715   9.838   7.549
 1949ETHY    C1 1869  35.231   9.670   7.696
 1950ETHY    C1 1870  34.783   9.468   7.928
 1951AUSL   AUS 1871  38.137  10.890   7.911
 1952AUSL   AUS 1872  37.721  10.820   7.766
 1953AUL    AUL 1873  37.834  11.104   7.992
 1954THSLK    S 1874  37.601  10.979   7.950
 1955ETHY    C1 1875  37.484  11.291   8.261
 1956ETHY    C1 1876  37.270  11.671   8.578
 1957ETHY    C1 1877  36.980  12.042   8.824
 1958ETHY    C1 1878  36.622  12.396   9.000
 1959ETHY    C1 1879  36.201  12.724   9.102
 1960THSLK    S 1880  38.177  11.116   8.035
 1961ETHY    C1 1881  38.334  11.418   8.339
 1962ETHY    C1 1882  38.449  11.824   8.672
 1963ETHY    C1 1883  38.476  12.268   8.964
 1964ETHY    C1 1884  38.416  12.737   9.211
 1965ETHY    C1 1885  38.272  13.221   9.410
 1966AUSL   AUS 1886  37.985  10.983   7.665
 1967AUSL   AUS 1887  38.289  10.983   7.338
 1968AUL    AUL 1888  38.137  11.291   7.502
 1969THSLK    S 1889  38.026  11.231   7.774
 1970ETHY    C1 1890  38.135  11.641   7.942
 1971ETHY    C1 1891  38.179  12.148   8.118
 1972ETHY    C1 1892  38.122  12.656   8.265
 1973ETHY    C1 1893  37.969  13.153   8.383
 1974ETHY    C1 1894  37.726  13.630   8.472
 1975THSLK    S 1895  38.342  11.218   7.241
 1976ETHY    C1 1896  38.587  11.574   7.094
 1977ETHY    C1 1897  38.800  12.039   6.927
 1978ETHY    C1 1898  38.915  12.537   6.779
 1979ETHY    C1 1899  38.935  13.056   6.655
 1980ETHY    C1 1900  38.860  13.585   6.558
 1981AUSL   AUS 1901  38.289  10.983   7.665
 1982AUSL   AUS 1902  38.402  10.726   8.012
 1983AUL    AUL 1903  38.440  11.104   7.992
 1984THSLK    S 1904  38.574  10.839   8.184
 1985ETHY    C1 1905  38.859  10.942   8.524
 1986ETHY    C1 1906  39.161  11.146   8.921
 1987ETHY    C1 1907  39.406  11.436   9.294
 1988ETHY    C1 1908  39.590  11.799   9.638
 1989ETHY    C1 1909  39.709  12.229   9.948
 1990THSLK    S 1910  38.340  11.217   7.771
 1991ETHY    C1 1911  38.584  11.571   7.922
 1992ETHY    C1 1912  38.797  12.037   8.087
 1993ETHY    C1 1913  38.913  12.536   8.231
 1994ETHY    C1 1914  38.932  13.054   8.356
 1995ETHY    C1 1915  38.857  13.582   8.458
 1996AUSL   AUS 1916  38.137   9.730   7.911
 1997AUSL   AUS 1917  38.554   9.799   7.766
 1998AUL    AUL 1918  38.440   9.515   7.992
 1999THSLK    S 1919  38.093   9.475   7.990
 2000ETHY    C1 1920  37.933   9.071   8.128
 2001ETHY    C1 1921  37.819   8.590   8.341
 2002ETHY    C1 1922  37.794   8.129   8.605
 2003ETHY    C1 1923  37.853   7.699   8.915
 2004ETHY    C1 1924  37.994   7.307   9.263
 2005THSLK    S 1925  38.669   9.610   7.908
 2006ETHY    C1 1926  38.785   9.194   8.052
 2007ETHY    C1 1927  38.999   8.741   8.248
 2008ETHY    C1 1928  39.291   8.353   8.467
 2009ETHY    C1 1929  39.650   8.038   8.705
 2010ETHY    C1 1930  40.067   7.801   8.958
 2011AUSL   AUS 1931  37.985   9.636   7.665
 2012AUSL   AUS 1932  37.872   9.893   8.012
 2013AUL    AUL 1933  37.834   9.515   7.992
 2014THSLK    S 1934  37.932   9.396   7.745
 2015ETHY    C1 1935  37.687   9.015   7.801
 2016ETHY    C1 1936  37.474   8.530   7.897
 2017ETHY    C1 1937  37.359   8.027   8.025
 2018ETHY    C1 1938  37.340   7.518   8.186
 2019ETHY    C1 1939  37.414   7.015   8.374
 2020THSLK    S 1940  37.694   9.725   8.133
 2021ETHY    C1 1941  37.406   9.407   8.289
 2022ETHY    C1 1942  37.106   9.047   8.552
 2023ETHY    C1 1943  36.863   8.721   8.896
 2024ETHY    C1 1944  36.679   8.438   9.309
 2025ETHY    C1 1945  36.555   8.204   9.783
 2026AUSL   AUS 1946  38.289   9.636   7.665
 2027AUSL   AUS 1947  37.985   9.636   7.338
 2028AUL    AUL 1948  38.137   9.328   7.502
 2029THSLK    S 1949  37.934   9.393   7.266
 2030ETHY    C1 1950  37.690   9.011   7.215
 2031ETHY    C1 1951  37.477   8.527   7.117
 2032ETHY    C1 1952  37.361   8.025   6.984
 2033ETHY    C1 1953  37.342   7.516   6.825
 2034ETHY    C1 1954  37.418   7.011   6.642
 2035THSLK    S 1955  38.246   9.380   7.749
 2036ETHY    C1 1956  38.136   8.944   7.821
 2037ETHY    C1 1957  38.093   8.418   7.928
 2038ETHY    C1 1958  38.150   7.906   8.059
 2039ETHY    C1 1959  38.303   7.418   8.213
 2040ETHY    C1 1960  38.545   6.965   8.388
 2041AUSL   AUS 1961  38.137  10.890   7.093
 2042AUSL   AUS 1962  38.554  10.820   7.237
 2043AUL    AUL 1963  38.440  11.104   7.011
 2044THSLK    S 1964  38.181  11.120   6.975
 2045ETHY    C1 1965  38.341  11.424   6.674
 2046ETHY    C1 1966  38.455  11.829   6.339
 2047ETHY    C1 1967  38.480  12.272   6.045
 2048ETHY    C1 1968  38.421  12.741   5.798
 2049ETHY    C1 1969  38.280  13.228   5.604
 2050THSLK    S 1970  38.741  10.941   7.085
 2051ETHY    C1 1971  39.115  11.097   6.876
 2052ETHY    C1 1972  39.513  11.361   6.629
 2053ETHY    C1 1973  39.846  11.705   6.395
 2054ETHY    C1 1974  40.108  12.117   6.184
 2055ETHY    C1 1975  40.299  12.591   5.998
 2056AUSL   AUS 1976  37.985  10.983   7.338
 2057AUSL   AUS 1977  37.872  10.726   6.992
 2058AUL    AUL 1978  37.834  11.104   7.011
 2059THSLK    S 1979  38.028  11.234   7.237
 2060ETHY    C1 1980  38.138  11.645   7.074
 2061ETHY    C1 1981  38.181  12.151   6.896
 2062ETHY    C1 1982  38.124  12.659   6.745
 2063ETHY    C1 1983  37.971  13.156   6.627
 2064ETHY    C1 1984  37.729  13.635   6.545
 2065THSLK    S 1985  37.758  10.861   6.802
 2066ETHY    C1 1986  37.692  11.033   6.385
 2067ETHY    C1 1987  37.549  11.285   5.932
 2068ETHY    C1 1988  37.340  11.584   5.544
 2069ETHY    C1 1989  37.074  11.922   5.230
 2070ETHY    C1 1990  36.758  12.295   4.993
 2071AUSL   AUS 1991  38.137   9.730   7.093
 2072AUSL   AUS 1992  37.721   9.799   7.237
 2073AUL    AUL 1993  37.834   9.515   7.011
 2074THSLK    S 1994  37.537   9.649   7.128
 2075ETHY    C1 1995  37.165   9.388   7.085
 2076ETHY    C1 1996  36.766   9.050   6.958
 2077ETHY    C1 1997  36.431   8.691   6.753
 2078ETHY    C1 1998  36.169   8.317   6.478
 2079ETHY    C1 1999  35.982   7.934   6.142
 2080THSLK    S 2000  38.097   9.471   7.019
 2081ETHY    C1 2001  37.940   9.065   6.885
 2082ETHY    C1 2002  37.825   8.585   6.671
 2083ETHY    C1 2003  37.798   8.126   6.404
 2084ETHY    C1 2004  37.858   7.695   6.094
 2085ETHY    C1 2005  38.002   7.300   5.751
 2086AUSL   AUS 2006  38.289   9.636   7.338
 2087AUSL   AUS 2007  38.402   9.893   6.992
 2088AUL    AUL 2008  38.440   9.515   7.011
 2089THSLK    S 2009  38.248   9.379   7.262
 2090ETHY    C1 2010  38.139   8.941   7.195
 2091ETHY    C1 2011  38.096   8.415   7.086
 2092ETHY    C1 2012  38.152   7.904   6.951
 2093ETHY    C1 2013  38.305   7.416   6.798
 2094ETHY    C1 2014  38.549   6.962   6.629
 2095THSLK    S 2015  38.522   9.703   6.853
 2096ETHY    C1 2016  38.591   9.317   6.621
 2097ETHY    C1 2017  38.733   8.909   6.300
 2098ETHY    C1 2018  38.940   8.573   5.942
 2099ETHY    C1 2019  39.206   8.316   5.559
 2100ETHY    C1 2020  39.526   8.138   5.158
 2101AUC    AUC 2021  33.487  15.885   7.502
 2102AUC    AUC 2022  33.733  15.885   7.350
 2103AUC    AUC 2023  33.733  15.885   7.653
 2104AUC    AUC 2024  33.242  15.885   7.350
 2105AUC    AUC 2025  33.242  15.885   7.653
 2106AUC    AUC 2026  33.335  16.130   7.502
 2107AUC    AUC 2027  33.639  16.130   7.502
 2108AUC    AUC 2028  33.335  15.639   7.502
 2109AUC    AUC 2029  33.639  15.639   7.502
 2110AUC    AUC 2030  33.487  15.733   7.747
 2111AUC    AUC 2031  33.487  16.036   7.747
 2112AUC    AUC 2032  33.487  15.733   7.256
 2113AUC    AUC 2033  33.487  16.036   7.256
 2114AUC    AUC 2034  33.978  15.885   7.198
 2115AUC    AUC 2035  33.978  15.885   7.502
 2116AUC    AUC 2036  33.978  15.885   7.805
 2117AUC    AUC 2037  32.996  15.885   7.198
 2118AUC    AUC 2038  32.996  15.885   7.502
 2119AUC    AUC 2039  32.996  15.885   7.805
 2120AUC    AUC 2040  33.184  16.375   7.502
 2121AUC    AUC 2041  33.487  16.375   7.502
 2122AUC    AUC 2042  33.790  16.375   7.502
 2123AUC    AUC 2043  33.184  15.394   7.502
 2124AUC    AUC 2044  33.487  15.394   7.502
 2125AUC    AUC 2045  33.790  15.394   7.502
 2126AUC    AUC 2046  33.487  15.581   7.992
 2127AUC    AUC 2047  33.487  15.885   7.992
 2128AUC    AUC 2048  33.487  16.188   7.992
 2129AUC    AUC 2049  33.487  15.581   7.011
 2130AUC    AUC 2050  33.487  15.885   7.011
 2131AUC    AUC 2051  33.487  16.188   7.011
 2132AUC    AUC 2052  33.733  15.733   7.899
 2133AUC    AUC 2053  33.733  16.036   7.899
 2134AUC    AUC 2054  33.733  15.733   7.105
 2135AUC    AUC 2055  33.733  16.036   7.105
 2136AUC    AUC 2056  33.242  15.733   7.899
 2137AUC    AUC 2057  33.242  16.036   7.899
 2138AUC    AUC 2058  33.242  15.733   7.105
 2139AUC    AUC 2059  33.242  16.036   7.105
 2140AUC    AUC 2060  33.884  16.130   7.350
 2141AUC    AUC 2061  33.884  16.130   7.653
 2142AUC    AUC 2062  33.090  16.130   7.350
 2143AUC    AUC 2063  33.090  16.130   7.653
 2144AUC    AUC 2064  33.884  15.639   7.350
 2145AUC    AUC 2065  33.884  15.639   7.653
 2146AUC    AUC 2066  33.090  15.639   7.350
 2147AUC    AUC 2067  33.090  15.639   7.653
 2148AUC    AUC 2068  33.335  16.282   7.747
 2149AUC    AUC 2069  33.639  16.282   7.747
 2150AUC    AUC 2070  33.335  15.487   7.747
 2151AUC    AUC 2071  33.639  15.487   7.747
 2152AUC    AUC 2072  33.335  16.282   7.256
 2153AUC    AUC 2073  33.639  16.282   7.256
 2154AUC    AUC 2074  33.335  15.487   7.256
 2155AUC    AUC 2075  33.639  15.487   7.256
 2156AUSL   AUS 2076  33.896  15.885   8.082
 2157AUSL   AUS 2077  33.752  15.468   8.012
 2158AUL    AUL 2078  33.978  15.581   8.296
 2159THSLK    S 2079  33.866  15.280   8.156
 2160ETHY    C1 2080  33.932  14.895   8.391
 2161ETHY    C1 2081  34.075  14.487   8.710
 2162ETHY    C1 2082  34.284  14.151   9.066
 2163ETHY    C1 2083  34.550  13.893   9.450
 2164ETHY    C1 2084  34.866  13.717   9.855
 2165THSLK    S 2085  33.992  15.835   8.326
 2166ETHY    C1 2086  34.208  15.649   8.681
 2167ETHY    C1 2087  34.483  15.514   9.124
 2168ETHY    C1 2088  34.764  15.484   9.575
 2169ETHY    C1 2089  35.042  15.553  10.025
 2170ETHY    C1 2090  35.311  15.721  10.466
 2171AUSL   AUS 2091  33.651  15.733   8.175
 2172AUSL   AUS 2092  33.324  16.036   8.175
 2173AUL    AUL 2093  33.487  15.885   8.483
 2174THSLK    S 2094  33.729  15.680   8.417
 2175ETHY    C1 2095  33.806  15.430   8.790
 2176ETHY    C1 2096  33.922  15.213   9.269
 2177ETHY    C1 2097  34.059  15.097   9.769
 2178ETHY    C1 2098  34.209  15.079  10.281
 2179ETHY    C1 2099  34.368  15.160  10.794
 2180THSLK    S 2100  33.237  15.993   8.431
 2181ETHY    C1 2101  33.155  15.881   8.864
 2182ETHY    C1 2102  33.041  15.835   9.388
 2183ETHY    C1 2103  32.909  15.893   9.901
 2184ETHY    C1 2104  32.758  16.046  10.389
 2185ETHY    C1 2105  32.592  16.290  10.844
 2186AUSL   AUS 2106  33.651  16.036   8.175
 2187AUSL   AUS 2107  33.997  16.149   7.918
 2188AUL    AUL 2108  33.978  16.188   8.296
 2189THSLK    S 2109  33.738  16.090   8.414
 2190ETHY    C1 2110  33.819  16.341   8.786
 2191ETHY    C1 2111  33.933  16.557   9.265
 2192ETHY    C1 2112  34.066  16.673   9.767
 2193ETHY    C1 2113  34.216  16.691  10.279
 2194ETHY    C1 2114  34.382  16.611  10.789
 2195THSLK    S 2115  34.171  16.251   8.080
 2196ETHY    C1 2116  34.535  16.261   8.354
 2197ETHY    C1 2117  34.951  16.363   8.680
 2198ETHY    C1 2118  35.331  16.562   8.995
 2199ETHY    C1 2119  35.666  16.849   9.296
 2200ETHY    C1 2120  35.947  17.217   9.577
 2201AUSL   AUS 2121  33.896  15.885   6.922
 2202AUSL   AUS 2122  33.752  16.301   6.992
 2203AUL    AUL 2123  33.978  16.188   6.707
 2204THSLK    S 2124  33.999  15.835   6.681
 2205ETHY    C1 2125  34.220  15.649   6.329
 2206ETHY    C1 2126  34.493  15.514   5.885
 2207ETHY    C1 2127  34.771  15.484   5.432
 2208ETHY    C1 2128  35.049  15.553   4.982
 2209ETHY    C1 2129  35.323  15.721   4.545
 2210THSLK    S 2130  33.930  16.416   6.825
 2211ETHY    C1 2131  34.218  16.521   6.488
 2212ETHY    C1 2132  34.518  16.725   6.090
 2213ETHY    C1 2133  34.761  17.013   5.714
 2214ETHY    C1 2134  34.945  17.377   5.371
 2215ETHY    C1 2135  35.069  17.808   5.065
 2216AUSL   AUS 2136  33.651  15.733   6.828
 2217AUSL   AUS 2137  33.997  15.620   7.085
 2218AUL    AUL 2138  33.978  15.581   6.707
 2219THSLK    S 2139  34.134  15.428   6.944
 2220ETHY    C1 2140  34.342  15.085   6.729
 2221ETHY    C1 2141  34.643  14.743   6.442
 2222ETHY    C1 2142  34.994  14.490   6.133
 2223ETHY    C1 2143  35.388  14.328   5.812
 2224ETHY    C1 2144  35.817  14.257   5.486
 2225THSLK    S 2145  33.738  15.679   6.590
 2226ETHY    C1 2146  33.819  15.428   6.217
 2227ETHY    C1 2147  33.933  15.212   5.738
 2228ETHY    C1 2148  34.066  15.096   5.236
 2229ETHY    C1 2149  34.216  15.078   4.725
 2230ETHY    C1 2150  34.382  15.158   4.214
 2231AUSL   AUS 2151  33.651  16.036   6.828
 2232AUSL   AUS 2152  33.324  15.733   6.828
 2233AUL    AUL 2153  33.487  15.885   6.520
 2234THSLK    S 2154  33.229  15.679   6.592
 2235ETHY    C1 2155  33.092  15.431   6.235
 2236ETHY    C1 2156  32.932  15.217   5.767
 2237ETHY    C1 2157  32.785  15.102   5.269
 2238ETHY    C1 2158  32.658  15.083   4.751
 2239ETHY    C1 2159  32.553  15.159   4.224
 2240THSLK    S 2160  33.754  15.994   6.578
 2241ETHY    C1 2161  33.895  15.879   6.160
 2242ETHY    C1 2162  34.053  15.832   5.647
 2243ETHY    C1 2163  34.196  15.888   5.138
 2244ETHY    C1 2164  34.324  16.042   4.643
 2245ETHY    C1 2165  34.435  16.290   4.174
 2246AUSL   AUS 2166  33.078  15.885   8.082
 2247AUSL   AUS 2167  33.222  16.301   8.012
 2248AUL    AUL 2168  32.996  16.188   8.296
 2249THSLK    S 2169  32.975  15.835   8.322
 2250ETHY    C1 2170  32.754  15.649   8.674
 2251ETHY    C1 2171  32.481  15.514   9.118
 2252ETHY    C1 2172  32.204  15.484   9.571
 2253ETHY    C1 2173  31.926  15.553  10.021
 2254ETHY    C1 2174  31.651  15.721  10.458
 2255THSLK    S 2175  33.102  16.430   8.202
 2256ETHY    C1 2176  33.033  16.599   8.620
 2257ETHY    C1 2177  32.891  16.852   9.073
 2258ETHY    C1 2178  32.685  17.153   9.460
 2259ETHY    C1 2179  32.418  17.492   9.775
 2260ETHY    C1 2180  32.098  17.859  10.013
 2261AUSL   AUS 2181  33.324  15.733   8.175
 2262AUSL   AUS 2182  32.977  15.620   7.918
 2263AUL    AUL 2183  32.996  15.581   8.296
 2264THSLK    S 2184  32.799  15.456   8.029
 2265ETHY    C1 2185  32.431  15.203   8.125
 2266ETHY    C1 2186  32.016  14.924   8.323
 2267ETHY    C1 2187  31.638  14.684   8.611
 2268ETHY    C1 2188  31.304  14.488   8.978
 2269ETHY    C1 2189  31.018  14.342   9.415
 2270THSLK    S 2190  33.221  15.681   8.410
 2271ETHY    C1 2191  33.079  15.434   8.766
 2272ETHY    C1 2192  32.921  15.219   9.233
 2273ETHY    C1 2193  32.778  15.103   9.733
 2274ETHY    C1 2194  32.651  15.085  10.250
 2275ETHY    C1 2195  32.539  15.163  10.775
 2276AUSL   AUS 2196  33.078  15.885   6.922
 2277AUSL   AUS 2197  33.222  15.468   6.992
 2278AUL    AUL 2198  32.996  15.581   6.707
 2279THSLK    S 2199  32.983  15.835   6.677
 2280ETHY    C1 2200  32.766  15.649   6.322
 2281ETHY    C1 2201  32.491  15.514   5.879
 2282ETHY    C1 2202  32.210  15.484   5.429
 2283ETHY    C1 2203  31.932  15.553   4.978
 2284ETHY    C1 2204  31.664  15.721   4.537
 2285THSLK    S 2205  33.050  15.294   6.872
 2286ETHY    C1 2206  32.765  14.973   6.717
 2287ETHY    C1 2207  32.464  14.614   6.453
 2288ETHY    C1 2208  32.219  14.291   6.109
 2289ETHY    C1 2209  32.035  14.008   5.696
 2290ETHY    C1 2210  31.916  13.768   5.223
 2291AUSL   AUS 2211  33.324  16.036   6.828
 2292AUSL   AUS 2212  32.977  16.149   7.085
 2293AUL    AUL 2213  32.996  16.188   6.707
 2294THSLK    S 2214  32.846  16.279   6.893
 2295ETHY    C1 2215  32.640  16.379   6.499
 2296ETHY    C1 2216  32.338  16.543   6.085
 2297ETHY    C1 2217  31.984  16.755   5.748
 2298ETHY    C1 2218  31.591  17.009   5.494
 2299ETHY    C1 2219  31.166  17.302   5.324
 2300THSLK    S 2220  33.245  15.995   6.571
 2301ETHY    C1 2221  33.168  15.883   6.136
 2302ETHY    C1 2222  33.052  15.838   5.612
 2303ETHY    C1 2223  32.916  15.894   5.101
 2304ETHY    C1 2224  32.766  16.048   4.613
 2305ETHY    C1 2225  32.606  16.293   4.156
 2306AUSL   AUS 2226  34.067  16.294   7.502
 2307AUSL   AUS 2227  33.997  16.149   7.085
 2308AUL    AUL 2228  34.281  16.375   7.198
 2309THSLK    S 2229  34.176  16.252   6.930
 2310ETHY    C1 2230  34.543  16.263   6.659
 2311ETHY    C1 2231  34.958  16.365   6.332
 2312ETHY    C1 2232  35.336  16.563   6.014
 2313ETHY    C1 2233  35.670  16.850   5.713
 2314ETHY    C1 2234  35.956  17.220   5.438
 2315THSLK    S 2235  34.335  16.350   7.506
 2316ETHY    C1 2236  34.787  16.411   7.508
 2317ETHY    C1 2237  35.301  16.570   7.507
 2318ETHY    C1 2238  35.769  16.824   7.505
 2319ETHY    C1 2239  36.182  17.161   7.506
 2320ETHY    C1 2240  36.534  17.575   7.509
 2321AUSL   AUS 2241  34.161  16.048   7.350
 2322AUSL   AUS 2242  34.161  15.721   7.653
 2323AUL    AUL 2243  34.469  15.885   7.502
 2324THSLK    S 2244  34.420  16.091   7.348
 2325ETHY    C1 2245  34.865  16.021   7.278
 2326ETHY    C1 2246  35.396  16.028   7.190
 2327ETHY    C1 2247  35.909  16.138   7.101
 2328ETHY    C1 2248  36.394  16.344   7.017
 2329ETHY    C1 2249  36.841  16.641   6.940
 2330THSLK    S 2250  34.393  15.583   7.662
 2331ETHY    C1 2251  34.739  15.294   7.728
 2332ETHY    C1 2252  35.200  15.027   7.809
 2333ETHY    C1 2253  35.697  14.858   7.892
 2334ETHY    C1 2254  36.218  14.786   7.980
 2335ETHY    C1 2255  36.753  14.812   8.071
 2336AUSL   AUS 2256  34.161  16.048   7.653
 2337AUSL   AUS 2257  33.904  16.395   7.766
 2338AUL    AUL 2258  34.281  16.375   7.805
 2339THSLK    S 2259  34.087  16.514   7.926
 2340ETHY    C1 2260  34.459  16.669   8.139
 2341ETHY    C1 2261  34.859  16.934   8.385
 2342ETHY    C1 2262  35.193  17.278   8.615
 2343ETHY    C1 2263  35.455  17.691   8.827
 2344ETHY    C1 2264  35.642  18.163   9.019
 2345THSLK    S 2265  34.419  16.091   7.664
 2346ETHY    C1 2266  34.863  16.021   7.738
 2347ETHY    C1 2267  35.394  16.028   7.825
 2348ETHY    C1 2268  35.908  16.138   7.910
 2349ETHY    C1 2269  36.392  16.344   7.994
 2350ETHY    C1 2270  36.839  16.641   8.078
 2351AUSL   AUS 2271  32.907  16.294   7.502
 2352AUSL   AUS 2272  32.977  16.149   7.918
 2353AUL    AUL 2273  32.693  16.375   7.805
 2354THSLK    S 2274  32.841  16.272   8.109
 2355ETHY    C1 2275  32.632  16.368   8.503
 2356ETHY    C1 2276  32.331  16.534   8.917
 2357ETHY    C1 2277  31.980  16.749   9.254
 2358ETHY    C1 2278  31.586  17.003   9.509
 2359ETHY    C1 2279  31.157  17.290   9.678
 2360THSLK    S 2280  32.691  16.434   7.506
 2361ETHY    C1 2281  32.435  16.812   7.508
 2362ETHY    C1 2282  32.062  17.200   7.507
 2363ETHY    C1 2283  31.626  17.506   7.505
 2364ETHY    C1 2284  31.140  17.724   7.506
 2365ETHY    C1 2285  30.613  17.854   7.509
 2366AUSL   AUS 2286  32.813  16.048   7.350
 2367AUSL   AUS 2287  33.071  16.395   7.237
 2368AUL    AUL 2288  32.693  16.375   7.198
 2369THSLK    S 2289  32.582  16.163   7.303
 2370ETHY    C1 2290  32.235  16.351   7.075
 2371ETHY    C1 2291  31.775  16.543   6.872
 2372ETHY    C1 2292  31.277  16.693   6.758
 2373ETHY    C1 2293  30.756  16.803   6.733
 2374ETHY    C1 2294  30.222  16.873   6.796
 2375THSLK    S 2295  32.955  16.560   7.058
 2376ETHY    C1 2296  32.839  16.876   6.750
 2377ETHY    C1 2297  32.625  17.254   6.432
 2378ETHY    C1 2298  32.333  17.623   6.183
 2379ETHY    C1 2299  31.975  17.976   6.008
 2380ETHY    C1 2300  31.557  18.309   5.909
 2381AUSL   AUS 2301  32.813  16.048   7.653
 2382AUSL   AUS 2302  32.813  15.721   7.350
 2383AUL    AUL 2303  32.505  15.885   7.502
 2384THSLK    S 2304  32.555  15.647   7.390
 2385ETHY    C1 2305  32.111  15.612   7.486
 2386ETHY    C1 2306  31.580  15.531   7.518
 2387ETHY    C1 2307  31.066  15.406   7.458
 2388ETHY    C1 2308  30.582  15.238   7.311
 2389ETHY    C1 2309  30.135  15.031   7.083
 2390THSLK    S 2310  32.580  16.155   7.704
 2391ETHY    C1 2311  32.233  16.339   7.935
 2392ETHY    C1 2312  31.773  16.532   8.137
 2393ETHY    C1 2313  31.276  16.687   8.249
 2394ETHY    C1 2314  30.755  16.797   8.274
 2395ETHY    C1 2315  30.219  16.860   8.213
 2396AUSL   AUS 2316  34.067  15.475   7.502
 2397AUSL   AUS 2317  33.997  15.620   7.918
 2398AUL    AUL 2318  34.281  15.394   7.805
 2399THSLK    S 2319  34.283  15.335   7.506
 2400ETHY    C1 2320  34.539  14.957   7.508
 2401ETHY    C1 2321  34.912  14.569   7.507
 2402ETHY    C1 2322  35.348  14.263   7.505
 2403ETHY    C1 2323  35.834  14.045   7.506
 2404ETHY    C1 2324  36.361  13.915   7.509
 2405THSLK    S 2325  34.129  15.430   8.066
 2406ETHY    C1 2326  34.334  15.087   8.285
 2407ETHY    C1 2327  34.636  14.745   8.570
 2408ETHY    C1 2328  34.990  14.492   8.877
 2409ETHY    C1 2329  35.384  14.329   9.198
 2410ETHY    C1 2330  35.808  14.259   9.529
 2411AUSL   AUS 2331  34.161  15.721   7.350
 2412AUSL   AUS 2332  33.904  15.374   7.237
 2413AUL    AUL 2333  34.281  15.394   7.198
 2414THSLK    S 2334  34.394  15.583   7.350
 2415ETHY    C1 2335  34.742  15.294   7.289
 2416ETHY    C1 2336  35.201  15.027   7.206
 2417ETHY    C1 2337  35.698  14.858   7.118
 2418ETHY    C1 2338  36.220  14.786   7.031
 2419ETHY    C1 2339  36.755  14.812   6.947
 2420THSLK    S 2340  34.023  15.184   7.104
 2421ETHY    C1 2341  34.140  14.767   6.963
 2422ETHY    C1 2342  34.354  14.313   6.765
 2423ETHY    C1 2343  34.644  13.927   6.543
 2424ETHY    C1 2344  35.003  13.612   6.306
 2425ETHY    C1 2345  35.423  13.373   6.058
 2426AUSL   AUS 2346  32.907  15.475   7.502
 2427AUSL   AUS 2347  32.977  15.620   7.085
 2428AUL    AUL 2348  32.693  15.394   7.198
 2429THSLK    S 2349  32.804  15.449   6.973
 2430ETHY    C1 2350  32.439  15.192   6.877
 2431ETHY    C1 2351  32.023  14.915   6.679
 2432ETHY    C1 2352  31.643  14.678   6.392
 2433ETHY    C1 2353  31.309  14.482   6.025
 2434ETHY    C1 2354  31.027  14.330   5.587
 2435THSLK    S 2355  32.639  15.419   7.506
 2436ETHY    C1 2356  32.187  15.358   7.508
 2437ETHY    C1 2357  31.673  15.199   7.507
 2438ETHY    C1 2358  31.205  14.945   7.505
 2439ETHY    C1 2359  30.792  14.608   7.506
 2440ETHY    C1 2360  30.440  14.194   7.509
 2441AUSL   AUS 2361  32.813  15.721   7.653
 2442AUSL   AUS 2362  33.071  15.374   7.766
 2443AUL    AUL 2363  32.693  15.394   7.805
 2444THSLK    S 2364  32.883  15.230   7.880
 2445ETHY    C1 2365  32.509  14.973   7.926
 2446ETHY    C1 2366  32.111  14.633   8.052
 2447ETHY    C1 2367  31.778  14.271   8.255
 2448ETHY    C1 2368  31.516  13.897   8.529
 2449ETHY    C1 2369  31.325  13.519   8.870
 2450THSLK    S 2370  32.554  15.654   7.617
 2451ETHY    C1 2371  32.109  15.624   7.524
 2452ETHY    C1 2372  31.578  15.542   7.490
 2453ETHY    C1 2373  31.065  15.413   7.549
 2454ETHY    C1 2374  30.581  15.245   7.696
 2455ETHY    C1 2375  30.133  15.043   7.928
 2456AUSL   AUS 2376  33.487  16.465   7.911
 2457AUSL   AUS 2377  33.071  16.395   7.766
 2458AUL    AUL 2378  33.184  16.679   7.992
 2459THSLK    S 2379  32.951  16.554   7.950
 2460ETHY    C1 2380  32.834  16.866   8.261
 2461ETHY    C1 2381  32.620  17.246   8.578
 2462ETHY    C1 2382  32.330  17.617   8.824
 2463ETHY    C1 2383  31.972  17.971   9.000
 2464ETHY    C1 2384  31.551  18.299   9.102
 2465THSLK    S 2385  33.527  16.691   8.035
 2466ETHY    C1 2386  33.684  16.993   8.339
 2467ETHY    C1 2387  33.799  17.399   8.672
 2468ETHY    C1 2388  33.826  17.843   8.964
 2469ETHY    C1 2389  33.766  18.312   9.211
 2470ETHY    C1 2390  33.622  18.796   9.410
 2471AUSL   AUS 2391  33.335  16.558   7.665
 2472AUSL   AUS 2392  33.639  16.558   7.338
 2473AUL    AUL 2393  33.487  16.866   7.502
 2474THSLK    S 2394  33.376  16.806   7.774
 2475ETHY    C1 2395  33.485  17.216   7.942
 2476ETHY    C1 2396  33.529  17.723   8.118
 2477ETHY    C1 2397  33.472  18.231   8.265
 2478ETHY    C1 2398  33.319  18.728   8.383
 2479ETHY    C1 2399  33.076  19.205   8.472
 2480THSLK    S 2400  33.692  16.793   7.241
 2481ETHY    C1 2401  33.937  17.149   7.094
 2482ETHY    C1 2402  34.150  17.614   6.927
 2483ETHY    C1 2403  34.265  18.112   6.779
 2484ETHY    C1 2404  34.285  18.631   6.655
 2485ETHY    C1 2405  34.210  19.160   6.558
 2486AUSL   AUS 2406  33.639  16.558   7.665
 2487AUSL   AUS 2407  33.752  16.301   8.012
 2488AUL    AUL 2408  33.790  16.679   7.992
 2489THSLK    S 2409  33.924  16.414   8.184
 2490ETHY    C1 2410  34.209  16.517   8.524
 2491ETHY    C1 2411  34.511  16.721   8.921
 2492ETHY    C1 2412  34.756  17.011   9.294
 2493ETHY    C1 2413  34.940  17.374   9.638
 2494ETHY    C1 2414  35.059  17.804   9.948
 2495THSLK    S 2415  33.690  16.792   7.771
 2496ETHY    C1 2416  33.934  17.146   7.922
 2497ETHY    C1 2417  34.147  17.612   8.087
 2498ETHY    C1 2418  34.263  18.111   8.231
 2499ETHY    C1 2419  34.282  18.629   8.356
 2500ETHY    C1 2420  34.207  19.157   8.458
 2501AUSL   AUS 2421  33.487  15.305   7.911
 2502AUSL   AUS 2422  33.904  15.374   7.766
 2503AUL    AUL 2423  33.790  15.090   7.992
 2504THSLK    S 2424  33.443  15.050   7.990
 2505ETHY    C1 2425  33.283  14.646   8.128
 2506ETHY    C1 2426  33.169  14.165   8.341
 2507ETHY    C1 2427  33.144  13.704   8.605
 2508ETHY    C1 2428  33.203  13.274   8.915
 2509ETHY    C1 2429  33.344  12.882   9.263
 2510THSLK    S 2430  34.019  15.185   7.908
 2511ETHY    C1 2431  34.135  14.769   8.052
 2512ETHY    C1 2432  34.349  14.316   8.248
 2513ETHY    C1 2433  34.641  13.928   8.467
 2514ETHY    C1 2434  35.000  13.613   8.705
 2515ETHY    C1 2435  35.417  13.376   8.958
 2516AUSL   AUS 2436  33.335  15.211   7.665
 2517AUSL   AUS 2437  33.222  15.468   8.012
 2518AUL    AUL 2438  33.184  15.090   7.992
 2519THSLK    S 2439  33.282  14.971   7.745
 2520ETHY    C1 2440  33.037  14.590   7.801
 2521ETHY    C1 2441  32.824  14.105   7.897
 2522ETHY    C1 2442  32.709  13.602   8.025
 2523ETHY    C1 2443  32.690  13.093   8.186
 2524ETHY    C1 2444  32.764  12.590   8.374
 2525THSLK    S 2445  33.044  15.300   8.133
 2526ETHY    C1 2446  32.756  14.982   8.289
 2527ETHY    C1 2447  32.456  14.622   8.552
 2528ETHY    C1 2448  32.213  14.296   8.896
 2529ETHY    C1 2449  32.029  14.013   9.309
 2530ETHY    C1 2450  31.905  13.779   9.783
 2531AUSL   AUS 2451  33.639  15.211   7.665
 2532AUSL   AUS 2452  33.335  15.211   7.338
 2533AUL    AUL 2453  33.487  14.903   7.502
 2534THSLK    S 2454  33.284  14.968   7.266
 2535ETHY    C1 2455  33.040  14.586   7.215
 2536ETHY    C1 2456  32.827  14.102   7.117
 2537ETHY    C1 2457  32.711  13.600   6.984
 2538ETHY    C1 2458  32.692  13.091   6.825
 2539ETHY    C1 2459  32.768  12.586   6.642
 2540THSLK    S 2460  33.596  14.955   7.749
 2541ETHY    C1 2461  33.486  14.519   7.821
 2542ETHY    C1 2462  33.443  13.993   7.928
 2543ETHY    C1 2463  33.500  13.481   8.059
 2544ETHY    C1 2464  33.653  12.993   8.213
 2545ETHY    C1 2465  33.895  12.540   8.388
 2546AUSL   AUS 2466  33.487  16.465   7.093
 2547AUSL   AUS 2467  33.904  16.395   7.237
 2548AUL    AUL 2468  33.790  16.679   7.011
 2549THSLK    S 2469  33.531  16.695   6.975
 2550ETHY    C1 2470  33.691  16.999   6.674
 2551ETHY    C1 2471  33.805  17.404   6.339
 2552ETHY    C1 2472  33.830  17.847   6.045
 2553ETHY    C1 2473  33.771  18.316   5.798
 2554ETHY    C1 2474  33.630  18.803   5.604
 2555THSLK    S 2475  34.091  16.516   7.085
 2556ETHY    C1 2476  34.465  16.672   6.876
 2557ETHY    C1 2477  34.863  16.936   6.629
 2558ETHY    C1 2478  35.196  17.280   6.395
 2559ETHY    C1 2479  35.458  17.692   6.184
 2560ETHY    C1 2480  35.649  18.166   5.998
 2561AUSL   AUS 2481  33.335  16.558   7.338
 2562AUSL   AUS 2482  33.222  16.301   6.992
 2563AUL    AUL 2483  33.184  16.679   7.011
 2564THSLK    S 2484  33.378  16.809   7.237
 2565ETHY    C1 2485  33.488  17.220   7.074
 2566ETHY    C1 2486  33.531  17.726   6.896
 2567ETHY    C1 2487  33.474  18.234   6.745
 2568ETHY    C1 2488  33.321  18.731   6.627
 2569ETHY    C1 2489  33.079  19.210   6.545
 2570THSLK    S 2490  33.108  16.436   6.802
 2571ETHY    C1 2491  33.042  16.608   6.385
 2572ETHY    C1 2492  32.899  16.860   5.932
 2573ETHY    C1 2493  32.690  17.159   5.544
 2574ETHY    C1 2494  32.424  17.497   5.230
 2575ETHY    C1 2495  32.108  17.870   4.993
 2576AUSL   AUS 2496  33.487  15.305   7.093
 2577AUSL   AUS 2497  33.071  15.374   7.237
 2578AUL    AUL 2498  33.184  15.090   7.011
 2579THSLK    S 2499  32.887  15.224   7.128
 2580ETHY    C1 2500  32.515  14.963   7.085
 2581ETHY    C1 2501  32.116  14.625   6.958
 2582ETHY    C1 2502  31.781  14.266   6.753
 2583ETHY    C1 2503  31.519  13.892   6.478
 2584ETHY    C1 2504  31.332  13.509   6.142
 2585THSLK    S 2505  33.447  15.046   7.019
 2586ETHY    C1 2506  33.290  14.640   6.885
 2587ETHY    C1 2507  33.175  14.160   6.671
 2588ETHY    C1 2508  33.148  13.701   6.404
 2589ETHY    C1 2509  33.208  13.270   6.094
 2590ETHY    C1 2510  33.352  12.875   5.751
 2591AUSL   AUS 2511  33.639  15.211   7.338
 2592AUSL   AUS 2512  33.752  15.468   6.992
 2593AUL    AUL 2513  33.790  15.090   7.011
 2594THSLK    S 2514  33.598  14.954   7.262
 2595ETHY    C1 2515  33.489  14.516   7.195
 2596ETHY    C1 2516  33.446  13.990   7.086
 2597ETHY    C1 2517  33.502  13.479   6.951
 2598ETHY    C1 2518  33.655  12.991   6.798
 2599ETHY    C1 2519  33.899  12.537   6.629
 2600THSLK    S 2520  33.872  15.278   6.853
 2601ETHY    C1 2521  33.941  14.892   6.621
 2602ETHY    C1 2522  34.083  14.484   6.300
 2603ETHY    C1 2523  34.290  14.148   5.942
 2604ETHY    C1 2524  34.556  13.891   5.559
 2605ETHY    C1 2525  34.876  13.713   5.158
 2606AUC    AUC 2526  24.580  30.541   7.502
 2607AUC    AUC 2527  24.826  30.541   7.350
 2608AUC    AUC 2528  24.826  30.541   7.653
 2609AUC    AUC 2529  24.335  30.541   7.350
 2610AUC    AUC 2530  24.335  30.541   7.653
 2611AUC    AUC 2531  24.428  30.786   7.502
 2612AUC    AUC 2532  24.732  30.786   7.502
 2613AUC    AUC 2533  24.428  30.295   7.502
 2614AUC    AUC 2534  24.732  30.295   7.502
 2615AUC    AUC 2535  24.580  30.389   7.747
 2616AUC    AUC 2536  24.580  30.692   7.747
 2617AUC    AUC 2537  24.580  30.389   7.256
 2618AUC    AUC 2538  24.580  30.692   7.256
 2619AUC    AUC 2539  25.071  30.541   7.198
 2620AUC    AUC 2540  25.071  30.541   7.502
 2621AUC    AUC 2541  25.071  30.541   7.805
 2622AUC    AUC 2542  24.089  30.541   7.198
 2623AUC    AUC 2543  24.089  30.541   7.502
 2624AUC    AUC 2544  24.089  30.541   7.805
 2625AUC    AUC 2545  24.277  31.031   7.502
 2626AUC    AUC 2546  24.580  31.031   7.502
 2627AUC    AUC 2547  24.883  31.031   7.502
 2628AUC    AUC 2548  24.277  30.050   7.502
 2629AUC    AUC 2549  24.580  30.050   7.502
 2630AUC    AUC 2550  24.883  30.050   7.502
 2631AUC    AUC 2551  24.580  30.237   7.992
 2632AUC    AUC 2552  24.580  30.541   7.992
 2633AUC    AUC 2553  24.580  30.844   7.992
 2634AUC    AUC 2554  24.580  30.237   7.011
 2635AUC    AUC 2555  24.580  30.541   7.011
 2636AUC    AUC 2556  24.580  30.844   7.011
 2637AUC    AUC 2557  24.826  30.389   7.899
 2638AUC    AUC 2558  24.826  30.692   7.899
 2639AUC    AUC 2559  24.826  30.389   7.105
 2640AUC    AUC 2560  24.826  30.692   7.105
 2641AUC    AUC 2561  24.335  30.389   7.899
 2642AUC    AUC 2562  24.335  30.692   7.899
 2643AUC    AUC 2563  24.335  30.389   7.105
 2644AUC    AUC 2564  24.335  30.692   7.105
 2645AUC    AUC 2565  24.977  30.786   7.350
 2646AUC    AUC 2566  24.977  30.786   7.653
 2647AUC    AUC 2567  24.183  30.786   7.350
 2648AUC    AUC 2568  24.183  30.786   7.653
 2649AUC    AUC 2569  24.977  30.295   7.350
 2650AUC    AUC 2570  24.977  30.295   7.653
 2651AUC    AUC 2571  24.183  30.295   7.350
 2652AUC    AUC 2572  24.183  30.295   7.653
 2653AUC    AUC 2573  24.428  30.938   7.747
 2654AUC    AUC 2574  24.732  30.938   7.747
 2655AUC    AUC 2575  24.428  30.143   7.747
 2656AUC    AUC 2576  24.732  30.143   7.747
 2657AUC    AUC 2577  24.428  30.938   7.256
 2658AUC    AUC 2578  24.732  30.938   7.256
 2659AUC    AUC 2579  24.428  30.143   7.256
 2660AUC    AUC 2580  24.732  30.143   7.256
 2661AUSL   AUS 2581  24.989  30.541   8.082
 2662AUSL   AUS 2582  24.845  30.124   8.012
 2663AUL    AUL 2583  25.071  30.237   8.296
 2664THSLK    S 2584  24.959  29.936   8.156
 2665ETHY    C1 2585  25.025  29.551   8.391
 2666ETHY    C1 2586  25.168  29.143   8.710
 2667ETHY    C1 2587  25.377  28.807   9.066
 2668ETHY    C1 2588  25.643  28.549   9.450
 2669ETHY    C1 2589  25.959  28.373   9.855
 2670THSLK    S 2590  25.085  30.491   8.326
 2671ETHY    C1 2591  25.301  30.305   8.681
 2672ETHY    C1 2592  25.576  30.170   9.124
 2673ETHY    C1 2593  25.857  30.140   9.575
 2674ETHY    C1 2594  26.135  30.209  10.025
 2675ETHY    C1 2595  26.404  30.377  10.466
 2676AUSL   AUS 2596  24.744  30.389   8.175
 2677AUSL   AUS 2597  24.417  30.692   8.175
 2678AUL    AUL 2598  24.580  30.541   8.483
 2679THSLK    S 2599  24.822  30.336   8.417
 2680ETHY    C1 2600  24.899  30.086   8.790
 2681ETHY    C1 2601  25.015  29.869   9.269
 2682ETHY    C1 2602  25.152  29.753   9.769
 2683ETHY    C1 2603  25.302  29.735  10.281
 2684ETHY    C1 2604  25.461  29.816  10.794
 2685THSLK    S 2605  24.330  30.649   8.431
 2686ETHY    C1 2606  24.248  30.537   8.864
 2687ETHY    C1 2607  24.134  30.491   9.388
 2688ETHY    C1 2608  24.002  30.549   9.901
 2689ETHY    C1 2609  23.851  30.702  10.389
 2690ETHY    C1 2610  23.685  30.946  10.844
 2691AUSL   AUS 2611  24.744  30.692   8.175
 2692AUSL   AUS 2612  25.090  30.805   7.918
 2693AUL    AUL 2613  25.071  30.844   8.296
 2694THSLK    S 2614  24.831  30.746   8.414
 2695ETHY    C1 2615  24.912  30.997   8.786
 2696ETHY    C1 2616  25.026  31.213   9.265
 2697ETHY    C1 2617  25.159  31.329   9.767
 2698ETHY    C1 2618  25.309  31.347  10.279
 2699ETHY    C1 2619  25.475  31.267  10.789
 2700THSLK    S 2620  25.264  30.907   8.080
 2701ETHY    C1 2621  25.628  30.917   8.354
 2702ETHY    C1 2622  26.044  31.019   8.680
 2703ETHY    C1 2623  26.424  31.218   8.995
 2704ETHY    C1 2624  26.759  31.505   9.296
 2705ETHY    C1 2625  27.040  31.873   9.577
 2706AUSL   AUS 2626  24.989  30.541   6.922
 2707AUSL   AUS 2627  24.845  30.957   6.992
 2708AUL    AUL 2628  25.071  30.844   6.707
 2709THSLK    S 2629  25.092  30.491   6.681
 2710ETHY    C1 2630  25.313  30.305   6.329
 2711ETHY    C1 2631  25.586  30.170   5.885
 2712ETHY    C1 2632  25.864  30.140   5.432
 2713ETHY    C1 2633  26.142  30.209   4.982
 2714ETHY    C1 2634  26.416  30.377   4.545
 2715THSLK    S 2635  25.023  31.072   6.825
 2716ETHY    C1 2636  25.311  31.177   6.488
 2717ETHY    C1 2637  25.611  31.381   6.090
 2718ETHY    C1 2638  25.854  31.669   5.714
 2719ETHY    C1 2639  26.038  32.033   5.371
 2720ETHY    C1 2640  26.162  32.464   5.065
 2721AUSL   AUS 2641  24.744  30.389   6.828
 2722AUSL   AUS 2642  25.090  30.276   7.085
 2723AUL    AUL 2643  25.071  30.237   6.707
 2724THSLK    S 2644  25.227  30.084   6.944
 2725ETHY    C1 2645  25.435  29.741   6.729
 2726ETHY    C1 2646  25.736  29.399   6.442
 2727ETHY    C1 2647  26.087  29.146   6.133
 2728ETHY    C1 2648  26.481  28.984   5.812
 2729ETHY    C1 2649  26.910  28.913   5.486
 2730THSLK    S 2650  24.831  30.335   6.590
 2731ETHY    C1 2651  24.912  30.084   6.217
 2732ETHY    C1 2652  25.026  29.868   5.738
 2733ETHY    C1 2653  25.159  29.752   5.236
 2734ETHY    C1 2654  25.309  29.734   4.725
 2735ETHY    C1 2655  25.475  29.814   4.214
 2736AUSL   AUS 2656  24.744  30.692   6.828
 2737AUSL   AUS 2657  24.417  30.389   6.828
 2738AUL    AUL 2658  24.580  30.541   6.520
 2739THSLK    S 2659  24.322  30.335   6.592
 2740ETHY    C1 2660  24.185  30.087   6.235
 2741ETHY    C1 2661  24.025  29.873   5.767
 2742ETHY    C1 2662  23.878  29.758   5.269
 2743ETHY    C1 2663  23.751  29.739   4.751
 2744ETHY    C1 2664  23.646  29.815   4.224
 2745THSLK    S 2665  24.847  30.650   6.578
 2746ETHY    C1 2666  24.988  30.535   6.160
 2747ETHY    C1 2667  25.146  30.488   5.647
 2748ETHY    C1 2668  25.289  30.544   5.138
 2749ETHY    C1 2669  25.417  30.698   4.643
 2750ETHY    C1 2670  25.528  30.946   4.174
 2751AUSL   AUS 2671  24.171  30.541   8.082
 2752AUSL   AUS 2672  24.315  30.957   8.012
 2753AUL    AUL 2673  24.089  30.844   8.296
 2754THSLK    S 2674  24.068  30.491   8.322
 2755ETHY    C1 2675  23.847  30.305   8.674
 2756ETHY    C1 2676  23.574  30.170   9.118
 2757ETHY    C1 2677  23.297  30.140   9.571
 2758ETHY    C1 2678  23.019  30.209  10.021
 2759ETHY    C1 2679  22.744  30.377  10.458
 2760THSLK    S 2680  24.195  31.086   8.202
 2761ETHY    C1 2681  24.126  31.255   8.620
 2762ETHY    C1 2682  23.984  31.508   9.073
 2763ETHY    C1 2683  23.778  31.809   9.460
 2764ETHY    C1 2684  23.511  32.148   9.775
 2765ETHY    C1 2685  23.191  32.515  10.013
 2766AUSL   AUS 2686  24.417  30.389   8.175
 2767AUSL   AUS 2687  24.070  30.276   7.918
 2768AUL    AUL 2688  24.089  30.237   8.296
 2769THSLK    S 2689  23.892  30.112   8.029
 2770ETHY    C1 2690  23.524  29.859   8.125
 2771ETHY    C1 2691  23.109  29.580   8.323
 2772ETHY    C1 2692  22.731  29.340   8.611
 2773ETHY    C1 2693  22.397  29.144   8.978
 2774ETHY    C1 2694  22.111  28.998   9.415
 2775THSLK    S 2695  24.314  30.337   8.410
 2776ETHY    C1 2696  24.172  30.090   8.766
 2777ETHY    C1 2697  24.014  29.875   9.233
 2778ETHY    C1 2698  23.871  29.759   9.733
 2779ETHY    C1 2699  23.744  29.741  10.250
 2780ETHY    C1 2700  23.632  29.819  10.775
 2781AUSL   AUS 2701  24.171  30.541   6.922
 2782AUSL   AUS 2702  24.315  30.124   6.992
 2783AUL    AUL 2703  24.089  30.237   6.707
 2784THSLK    S 2704  24.076  30.491   6.677
 2785ETHY    C1 2705  23.859  30.305   6.322
 2786ETHY    C1 2706  23.584  30.170   5.879
 2787ETHY    C1 2707  23.303  30.140   5.429
 2788ETHY    C1 2708  23.025  30.209   4.978
 2789ETHY    C1 2709  22.757  30.377   4.537
 2790THSLK    S 2710  24.143  29.950   6.872
 2791ETHY    C1 2711  23.858  29.629   6.717
 2792ETHY    C1 2712  23.557  29.270   6.453
 2793ETHY    C1 2713  23.312  28.947   6.109
 2794ETHY    C1 2714  23.128  28.664   5.696
 2795ETHY    C1 2715  23.009  28.424   5.223
 2796AUSL   AUS 2716  24.417  30.692   6.828
 2797AUSL   AUS 2717  24.070  30.805   7.085
 2798AUL    AUL 2718  24.089  30.844   6.707
 2799THSLK    S 2719  23.939  30.935   6.893
 2800ETHY    C1 2720  23.733  31.035   6.499
 2801ETHY    C1 2721  23.431  31.199   6.085
 2802ETHY    C1 2722  23.077  31.411   5.748
 2803ETHY    C1 2723  22.684  31.665   5.494
 2804ETHY    C1 2724  22.259  31.958   5.324
 2805THSLK    S 2725  24.338  30.651   6.571
 2806ETHY    C1 2726  24.261  30.539   6.136
 2807ETHY    C1 2727  24.145  30.494   5.612
 2808ETHY    C1 2728  24.009  30.550   5.101
 2809ETHY    C1 2729  23.859  30.704   4.613
 2810ETHY    C1 2730  23.699  30.949   4.156
 2811AUSL   AUS 2731  25.160  30.950   7.502
 2812AUSL   AUS 2732  25.090  30.805   7.085
 2813AUL    AUL 2733  25.374  31.031   7.198
 2814THSLK    S 2734  25.269  30.908   6.930
 2815ETHY    C1 2735  25.636  30.919   6.659
 2816ETHY    C1 2736  26.051  31.021   6.332
 2817ETHY    C1 2737  26.429  31.219   6.014
 2818ETHY    C1 2738  26.763  31.506   5.713
 2819ETHY    C1 2739  27.049  31.876   5.438
 2820THSLK    S 2740  25.428  31.006   7.506
 2821ETHY    C1 2741  25.880  31.067   7.508
 2822ETHY    C1 2742  26.394  31.226   7.507
 2823ETHY    C1 2743  26.862  31.480   7.505
 2824ETHY    C1 2744  27.275  31.817   7.506
 2825ETHY    C1 2745  27.627  32.231   7.509
 2826AUSL   AUS 2746  25.254  30.704   7.350
 2827AUSL   AUS 2747  25.254  30.377   7.653
 2828AUL    AUL 2748  25.562  30.541   7.502
 2829THSLK    S 2749  25.513  30.747   7.348
 2830ETHY    C1 2750  25.958  30.677   7.278
 2831ETHY    C1 2751  26.489  30.684   7.190
 2832ETHY    C1 2752  27.002  30.794   7.101
 2833ETHY    C1 2753  27.487  31.000   7.017
 2834ETHY    C1 2754  27.934  31.297   6.940
 2835THSLK    S 2755  25.486  30.239   7.662
 2836ETHY    C1 2756  25.832  29.950   7.728
 2837ETHY    C1 2757  26.293  29.683   7.809
 2838ETHY    C1 2758  26.790  29.514   7.892
 2839ETHY    C1 2759  27.311  29.442   7.980
 2840ETHY    C1 2760  27.846  29.468   8.071
 2841AUSL   AUS 2761  25.254  30.704   7.653
 2842AUSL   AUS 2762  24.997  31.051   7.766
 2843AUL    AUL 2763  25.374  31.031   7.805
 2844THSLK    S 2764  25.180  31.170   7.926
 2845ETHY    C1 2765  25.552  31.325   8.139
 2846ETHY    C1 2766  25.952  31.590   8.385
 2847ETHY    C1 2767  26.286  31.934   8.615
 2848ETHY    C1 2768  26.548  32.347   8.827
 2849ETHY    C1 2769  26.735  32.819   9.019
 2850THSLK    S 2770  25.512  30.747   7.664
 2851ETHY    C1 2771  25.956  30.677   7.738
 2852ETHY    C1 2772  26.487  30.684   7.825
 2853ETHY    C1 2773  27.001  30.794   7.910
 2854ETHY    C1 2774  27.485  31.000   7.994
 2855ETHY    C1 2775  27.932  31.297   8.078
 2856AUSL   AUS 2776  24.000  30.950   7.502
 2857AUSL   AUS 2777  24.070  30.805   7.918
 2858AUL    AUL 2778  23.786  31.031   7.805
 2859THSLK    S 2779  23.934  30.928   8.109
 2860ETHY    C1 2780  23.725  31.024   8.503
 2861ETHY    C1 2781  23.424  31.190   8.917
 2862ETHY    C1 2782  23.073  31.405   9.254
 2863ETHY    C1 2783  22.679  31.659   9.509
 2864ETHY    C1 2784  22.250  31.946   9.678
 2865THSLK    S 2785  23.784  31.090   7.506
 2866ETHY    C1 2786  23.528  31.468   7.508
 2867ETHY    C1 2787  23.155  31.856   7.507
 2868ETHY    C1 2788  22.719  32.162   7.505
 2869ETHY    C1 2789  22.233  32.380   7.506
 2870ETHY    C1 2790  21.706  32.510   7.509
 2871AUSL   AUS 2791  23.906  30.704   7.350
 2872AUSL   AUS 2792  24.164  31.051   7.237
 2873AUL    AUL 2793  23.786  31.031   7.198
 2874THSLK    S 2794  23.675  30.819   7.303
 2875ETHY    C1 2795  23.328  31.007   7.075
 2876ETHY    C1 2796  22.868  31.199   6.872
 2877ETHY    C1 2797  22.370  31.349   6.758
 2878ETHY    C1 2798  21.849  31.459   6.733
 2879ETHY    C1 2799  21.315  31.529   6.796
 2880THSLK    S 2800  24.048  31.216   7.058
 2881ETHY    C1 2801  23.932  31.532   6.750
 2882ETHY    C1 2802  23.718  31.910   6.432
 2883ETHY    C1 2803  23.426  32.279   6.183
 2884ETHY    C1 2804  23.068  32.632   6.008
 2885ETHY    C1 2805  22.650  32.965   5.909
 2886AUSL   AUS 2806  23.906  30.704   7.653
 2887AUSL   AUS 2807  23.906  30.377   7.350
 2888AUL    AUL 2808  23.598  30.541   7.502
 2889THSLK    S 2809  23.648  30.303   7.390
 2890ETHY    C1 2810  23.204  30.268   7.486
 2891ETHY    C1 2811  22.673  30.187   7.518
 2892ETHY    C1 2812  22.159  30.062   7.458
 2893ETHY    C1 2813  21.675  29.894   7.311
 2894ETHY    C1 2814  21.228  29.687   7.083
 2895THSLK    S 2815  23.673  30.811   7.704
 2896ETHY    C1 2816  23.326  30.995   7.935
 2897ETHY    C1 2817  22.866  31.188   8.137
 2898ETHY    C1 2818  22.369  31.343   8.249
 2899ETHY    C1 2819  21.848  31.453   8.274
 2900ETHY    C1 2820  21.312  31.516   8.213
 2901AUSL   AUS 2821  25.160  30.131   7.502
 2902AUSL   AUS 2822  25.090  30.276   7.918
 2903AUL    AUL 2823  25.374  30.050   7.805
 2904THSLK    S 2824  25.376  29.991   7.506
 2905ETHY    C1 2825  25.632  29.613   7.508
 2906ETHY    C1 2826  26.005  29.225   7.507
 2907ETHY    C1 2827  26.441  28.919   7.505
 2908ETHY    C1 2828  26.927  28.701   7.506
 2909ETHY    C1 2829  27.454  28.571   7.509
 2910THSLK    S 2830  25.222  30.086   8.066
 2911ETHY    C1 2831  25.427  29.743   8.285
 2912ETHY    C1 2832  25.729  29.401   8.570
 2913ETHY    C1 2833  26.083  29.148   8.877
 2914ETHY    C1 2834  26.477  28.985   9.198
 2915ETHY    C1 2835  26.901  28.915   9.529
 2916AUSL   AUS 2836  25.254  30.377   7.350
 2917AUSL   AUS 2837  24.997  30.030   7.237
 2918AUL    AUL 2838  25.374  30.050   7.198
 2919THSLK    S 2839  25.487  30.239   7.350
 2920ETHY    C1 2840  25.835  29.950   7.289
 2921ETHY    C1 2841  26.294  29.683   7.206
 2922ETHY    C1 2842  26.791  29.514   7.118
 2923ETHY    C1 2843  27.313  29.442   7.031
 2924ETHY    C1 2844  27.848  29.468   6.947
 2925THSLK    S 2845  25.116  29.840   7.104
 2926ETHY    C1 2846  25.233  29.423   6.963
 2927ETHY    C1 2847  25.447  28.969   6.765
 2928ETHY    C1 2848  25.737  28.583   6.543
 2929ETHY    C1 2849  26.096  28.268   6.306
 2930ETHY    C1 2850  26.516  28.029   6.058
 2931AUSL   AUS 2851  24.000  30.131   7.502
 2932AUSL   AUS 2852  24.070  30.276   7.085
 2933AUL    AUL 2853  23.786  30.050   7.198
 2934THSLK    S 2854  23.897  30.105   6.973
 2935ETHY    C1 2855  23.532  29.848   6.877
 2936ETHY    C1 2856  23.116  29.571   6.679
 2937ETHY    C1 2857  22.736  29.334   6.392
 2938ETHY    C1 2858  22.402  29.138   6.025
 2939ETHY    C1 2859  22.120  28.986   5.587
 2940THSLK    S 2860  23.732  30.075   7.506
 2941ETHY    C1 2861  23.280  30.014   7.508
 2942ETHY    C1 2862  22.766  29.855   7.507
 2943ETHY    C1 2863  22.298  29.601   7.505
 2944ETHY    C1 2864  21.885  29.264   7.506
 2945ETHY    C1 2865  21.533  28.850   7.509
 2946AUSL   AUS 2866  23.906  30.377   7.653
 2947AUSL   AUS 2867  24.164  30.030   7.766
 2948AUL    AUL 2868  23.786  30.050   7.805
 2949THSLK    S 2869  23.976  29.886   7.880
 2950ETHY    C1 2870  23.602  29.629   7.926
 2951ETHY    C1 2871  23.204  29.289   8.052
 2952ETHY    C1 2872  22.871  28.927   8.255
 2953ETHY    C1 2873  22.609  28.553   8.529
 2954ETHY    C1 2874  22.418  28.175   8.870
 2955THSLK    S 2875  23.647  30.310   7.617
 2956ETHY    C1 2876  23.202  30.280   7.524
 2957ETHY    C1 2877  22.671  30.198   7.490
 2958ETHY    C1 2878  22.158  30.069   7.549
 2959ETHY    C1 2879  21.674  29.901   7.696
 2960ETHY    C1 2880  21.226  29.699   7.928
 2961AUSL   AUS 2881  24.580  31.121   7.911
 2962AUSL   AUS 2882  24.164  31.051   7.766
 2963AUL    AUL 2883  24.277  31.335   7.992
 2964THSLK    S 2884  24.044  31.210   7.950
 2965ETHY    C1 2885  23.927  31.522   8.261
 2966ETHY    C1 2886  23.713  31.902   8.578
 2967ETHY    C1 2887  23.423  32.273   8.824
 2968ETHY    C1 2888  23.065  32.627   9.000
 2969ETHY    C1 2889  22.644  32.955   9.102
 2970THSLK    S 2890  24.620  31.347   8.035
 2971ETHY    C1 2891  24.777  31.649   8.339
 2972ETHY    C1 2892  24.892  32.055   8.672
 2973ETHY    C1 2893  24.919  32.499   8.964
 2974ETHY    C1 2894  24.859  32.968   9.211
 2975ETHY    C1 2895  24.715  33.452   9.410
 2976AUSL   AUS 2896  24.428  31.214   7.665
 2977AUSL   AUS 2897  24.732  31.214   7.338
 2978AUL    AUL 2898  24.580  31.522   7.502
 2979THSLK    S 2899  24.469  31.462   7.774
 2980ETHY    C1 2900  24.578  31.872   7.942
 2981ETHY    C1 2901  24.622  32.379   8.118
 2982ETHY    C1 2902  24.565  32.887   8.265
 2983ETHY    C1 2903  24.412  33.384   8.383
 2984ETHY    C1 2904  24.169  33.861   8.472
 2985THSLK    S 2905  24.785  31.449   7.241
 2986ETHY    C1 2906  25.030  31.805   7.094
 2987ETHY    C1 2907  25.243  32.270   6.927
 2988ETHY    C1 2908  25.358  32.768   6.779
 2989ETHY    C1 2909  25.378  33.287   6.655
 2990ETHY    C1 2910  25.303  33.816   6.558
 2991AUSL   AUS 2911  24.732  31.214   7.665
 2992AUSL   AUS 2912  24.845  30.957   8.012
 2993AUL    AUL 2913  24.883  31.335   7.992
 2994THSLK    S 2914  25.017  31.070   8.184
 2995ETHY    C1 2915  25.302  31.173   8.524
 2996ETHY    C1 2916  25.604  31.377   8.921
 2997ETHY    C1 2917  25.849  31.667   9.294
 2998ETHY    C1 2918  26.033  32.030   9.638
 2999ETHY    C1 2919  26.152  32.460   9.948
 3000THSLK    S 2920  24.783  31.448   7.771
 3001ETHY    C1 2921  25.027  31.802   7.922
 3002ETHY    C1 2922  25.240  32.268   8.087
 3003ETHY    C1 2923  25.356  32.767   8.231
 3004ETHY    C1 2924  25.375  33.285   8.356
 3005ETHY    C1 2925  25.300  33.813   8.458
 3006AUSL   AUS 2926  24.580  29.961   7.911
 3007AUSL   AUS 2927  24.997  30.030   7.766
 3008AUL    AUL 2928  24.883  29.746   7.992
 3009THSLK    S 2929  24.536  29.706   7.990
 3010ETHY    C1 2930  24.376  29.302   8.128
 3011ETHY    C1 2931  24.262  28.821   8.341
 3012ETHY    C1 2932  24.237  28.360   8.605
 3013ETHY    C1 2933  24.296  27.930   8.915
 3014ETHY    C1 2934  24.437  27.538   9.263
 3015THSLK    S 2935  25.112  29.841   7.908
 3016ETHY    C1 2936  25.228  29.425   8.052
 3017ETHY    C1 2937  25.442  28.972   8.248
 3018ETHY    C1 2938  25.734  28.584   8.467
 3019ETHY    C1 2939  26.093  28.269   8.705
 3020ETHY    C1 2940  26.510  28.032   8.958
 3021AUSL   AUS 2941  24.428  29.867   7.665
 3022AUSL   AUS 2942  24.315  30.124   8.012
 3023AUL    AUL 2943  24.277  29.746   7.992
 3024THSLK    S 2944  24.375  29.627   7.745
 3025ETHY    C1 2945  24.130  29.246   7.801
 3026ETHY    C1 2946  23.917  28.761   7.897
 3027ETHY    C1 2947  23.802  28.258   8.025
 3028ETHY    C1 2948  23.783  27.749   8.186
 3029ETHY    C1 2949  23.857  27.246   8.374
 3030THSLK    S 2950  24.137  29.956   8.133
 3031ETHY    C1 2951  23.849  29.638   8.289
 3032ETHY    C1 2952  23.549  29.278   8.552
 3033ETHY    C1 2953  23.306  28.952   8.896
 3034ETHY    C1 2954  23.122  28.669   9.309
 3035ETHY    C1 2955  22.998  28.435   9.783
 3036AUSL   AUS 2956  24.732  29.867   7.665
 3037AUSL   AUS 2957  24.428  29.867   7.338
 3038AUL    AUL 2958  24.580  29.559   7.502
 3039THSLK    S 2959  24.377  29.624   7.266
 3040ETHY    C1 2960  24.133  29.242   7.215
 3041ETHY    C1 2961  23.920  28.758   7.117
 3042ETHY    C1 2962  23.804  28.256   6.984
 3043ETHY    C1 2963  23.785  27.747   6.825
 3044ETHY    C1 2964  23.861  27.242   6.642
 3045THSLK    S 2965  24.689  29.611   7.749
 3046ETHY    C1 2966  24.579  29.175   7.821
 3047ETHY    C1 2967  24.536  28.649   7.928
 3048ETHY    C1 2968  24.593  28.137   8.059
 3049ETHY    C1 2969  24.746  27.649   8.213
 3050ETHY    C1 2970  24.988  27.196   8.388
 3051AUSL   AUS 2971  24.580  31.121   7.093
 3052AUSL   AUS 2972  24.997  31.051   7.237
 3053AUL    AUL 2973  24.883  31.335   7.011
 3054THSLK    S 2974  24.624  31.351   6.975
 3055ETHY    C1 2975  24.784  31.655   6.674
 3056ETHY    C1 2976  24.898  32.060   6.339
 3057ETHY    C1 2977  24.923  32.503   6.045
 3058ETHY    C1 2978  24.864  32.972   5.798
 3059ETHY    C1 2979  24.723  33.459   5.604
 3060THSLK    S 2980  25.184  31.172   7.085
 3061ETHY    C1 2981  25.558  31.328   6.876
 3062ETHY    C1 2982  25.956  31.592   6.629
 3063ETHY    C1 2983  26.289  31.936   6.395
 3064ETHY    C1 2984  26.551  32.348   6.184
 3065ETHY    C1 2985  26.742  32.822   5.998
 3066AUSL   AUS 2986  24.428  31.214   7.338
 3067AUSL   AUS 2987  24.315  30.957   6.992
 3068AUL    AUL 2988  24.277  31.335   7.011
 3069THSLK    S 2989  24.471  31.465   7.237
 3070ETHY    C1 2990  24.581  31.876   7.074
 3071ETHY    C1 2991  24.624  32.382   6.896
 3072ETHY    C1 2992  24.567  32.890   6.745
 3073ETHY    C1 2993  24.414  33.387   6.627
 3074ETHY    C1 2994  24.172  33.866   6.545
 3075THSLK    S 2995  24.201  31.092   6.802
 3076ETHY    C1 2996  24.135  31.264   6.385
 3077ETHY    C1 2997  23.992  31.516   5.932
 3078ETHY    C1 2998  23.783  31.815   5.544
 3079ETHY    C1 2999  23.517  32.153   5.230
 3080ETHY    C1 3000  23.201  32.526   4.993
 3081AUSL   AUS 3001  24.580  29.961   7.093
 3082AUSL   AUS 3002  24.164  30.030   7.237
 3083AUL    AUL 3003  24.277  29.746   7.011
 3084THSLK    S 3004  23.980  29.880   7.128
 3085ETHY    C1 3005  23.608  29.619   7.085
 3086ETHY    C1 3006  23.209  29.281   6.958
 3087ETHY    C1 3007  22.874  28.922   6.753
 3088ETHY    C1 3008  22.612  28.548   6.478
 3089ETHY    C1 3009  22.425  28.165   6.142
 3090THSLK    S 3010  24.540  29.702   7.019
 3091ETHY    C1 3011  24.383  29.296   6.885
 3092ETHY    C1 3012  24.268  28.816   6.671
 3093ETHY    C1 3013  24.241  28.357   6.404
 3094ETHY    C1 3014  24.301  27.926   6.094
 3095ETHY    C1 3015  24.445  27.531   5.751
 3096AUSL   AUS 3016  24.732  29.867   7.338
 3097AUSL   AUS 3017  24.845  30.124   6.992
 3098AUL    AUL 3018  24.883  29.746   7.011
 3099THSLK    S 3019  24.691  29.610   7.262
 3100ETHY    C1 3020  24.582  29.172   7.195
 3101ETHY    C1 3021  24.539  28.646   7.086
 3102ETHY    C1 3022  24.595  28.135   6.951
 3103ETHY    C1 3023  24.748  27.647   6.798
 3104ETHY    C1 3024  24.992  27.193   6.629
 3105THSLK    S 3025  24.965  29.934   6.853
 3106ETHY    C1 3026  25.034  29.548   6.621
 3107ETHY    C1 3027  25.176  29.140   6.300
 3108ETHY    C1 3028  25.383  28.804   5.942
 3109ETHY    C1 3029  25.649  28.547   5.559
 3110ETHY    C1 3030  25.969  28.369   5.158
 3111AUC    AUC 3031   9.964   2.055   7.502
 3112AUC    AUC 3032  10.210   2.055   7.350
 3113AUC    AUC 3033  10.210   2.055   7.653
 3114AUC    AUC 3034   9.719   2.055   7.350
 3115AUC    AUC 3035   9.719   2.055   7.653
 3116AUC    AUC 3036   9.812   2.300   7.502
 3117AUC    AUC 3037  10.116   2.300   7.502
 3118AUC    AUC 3038   9.812   1.809   7.502
 3119AUC    AUC 3039  10.116   1.809   7.502
 3120AUC    AUC 3040   9.964   1.903   7.747
 3121AUC    AUC 3041   9.964   2.206   7.747
 3122AUC    AUC 3042   9.964   1.903   7.256
 3123AUC    AUC 3043   9.964   2.206   7.256
 3124AUC    AUC 3044  10.455   2.055   7.198
 3125AUC    AUC 3045  10.455   2.055   7.502
 3126AUC    AUC 3046  10.455   2.055   7.805
 3127AUC    AUC 3047   9.473   2.055   7.198
 3128AUC    AUC 3048   9.473   2.055   7.502
 3129AUC    AUC 3049   9.473   2.055   7.805
 3130AUC    AUC 3050   9.661   2.545   7.502
 3131AUC    AUC 3051   9.964   2.545   7.502
 3132AUC    AUC 3052  10.267   2.545   7.502
 3133AUC    AUC 3053   9.661   1.564   7.502
 3134AUC    AUC 3054   9.964   1.564   7.502
 3135AUC    AUC 3055  10.267   1.564   7.502
 3136AUC    AUC 3056   9.964   1.751   7.992
 3137AUC    AUC 3057   9.964   2.055   7.992
 3138AUC    AUC 3058   9.964   2.358   7.992
 3139AUC    AUC 3059   9.964   1.751   7.011
 3140AUC    AUC 3060   9.964   2.055   7.011
 3141AUC    AUC 3061   9.964   2.358   7.011
 3142AUC    AUC 3062  10.210   1.903   7.899
 3143AUC    AUC 3063  10.210   2.206   7.899
 3144AUC    AUC 3064  10.210   1.903   7.105
 3145AUC    AUC 3065  10.210   2.206   7.105
 3146AUC    AUC 3066   9.719   1.903   7.899
 3147AUC    AUC 3067   9.719   2.206   7.899
 3148AUC    AUC 3068   9.719   1.903   7.105
 3149AUC    AUC 3069   9.719   2.206   7.105
 3150AUC    AUC 3070  10.361   2.300   7.350
 3151AUC    AUC 3071  10.361   2.300   7.653
 3152AUC    AUC 3072   9.567   2.300   7.350
 3153AUC    AUC 3073   9.567   2.300   7.653
 3154AUC    AUC 3074  10.361   1.809   7.350
 3155AUC    AUC 3075  10.361   1.809   7.653
 3156AUC    AUC 3076   9.567   1.809   7.350
 3157AUC    AUC 3077   9.567   1.809   7.653
 3158AUC    AUC 3078   9.812   2.452   7.747
 3159AUC    AUC 3079  10.116   2.452   7.747
 3160AUC    AUC 3080   9.812   1.657   7.747
 3161AUC    AUC 3081  10.116   1.657   7.747
 3162AUC    AUC 3082   9.812   2.452   7.256
 3163AUC    AUC 3083  10.116   2.452   7.256
 3164AUC    AUC 3084   9.812   1.657   7.256
 3165AUC    AUC 3085  10.116   1.657   7.256
 3166AUSL   AUS 3086  10.373   2.055   8.082
 3167AUSL   AUS 3087  10.229   1.638   8.012
 3168AUL    AUL 3088  10.455   1.751   8.296
 3169THSLK    S 3089  10.343   1.450   8.156
 3170ETHY    C1 3090  10.409   1.065   8.391
 3171ETHY    C1 3091  10.552   0.657   8.710
 3172ETHY    C1 3092  10.761   0.321   9.066
 3173ETHY    C1 3093  11.027   0.063   9.450
 3174ETHY    C1 3094  11.343  -0.113   9.855
 3175THSLK    S 3095  10.469   2.005   8.326
 3176ETHY    C1 3096  10.685   1.819   8.681
 3177ETHY    C1 3097  10.960   1.684   9.124
 3178ETHY    C1 3098  11.241   1.654   9.575
 3179ETHY    C1 3099  11.519   1.723  10.025
 3180ETHY    C1 3100  11.788   1.891  10.466
 3181AUSL   AUS 3101  10.128   1.903   8.175
 3182AUSL   AUS 3102   9.801   2.206   8.175
 3183AUL    AUL 3103   9.964   2.055   8.483
 3184THSLK    S 3104  10.206   1.850   8.417
 3185ETHY    C1 3105  10.283   1.600   8.790
 3186ETHY    C1 3106  10.399   1.383   9.269
 3187ETHY    C1 3107  10.536   1.267   9.769
 3188ETHY    C1 3108  10.686   1.249  10.281
 3189ETHY    C1 3109  10.845   1.330  10.794
 3190THSLK    S 3110   9.714   2.163   8.431
 3191ETHY    C1 3111   9.632   2.051   8.864
 3192ETHY    C1 3112   9.518   2.005   9.388
 3193ETHY    C1 3113   9.386   2.063   9.901
 3194ETHY    C1 3114   9.235   2.216  10.389
 3195ETHY    C1 3115   9.069   2.460  10.844
 3196AUSL   AUS 3116  10.128   2.206   8.175
 3197AUSL   AUS 3117  10.474   2.319   7.918
 3198AUL    AUL 3118  10.455   2.358   8.296
 3199THSLK    S 3119  10.215   2.260   8.414
 3200ETHY    C1 3120  10.296   2.511   8.786
 3201ETHY    C1 3121  10.410   2.727   9.265
 3202ETHY    C1 3122  10.543   2.843   9.767
 3203ETHY    C1 3123  10.693   2.861  10.279
 3204ETHY    C1 3124  10.859   2.781  10.789
 3205THSLK    S 3125  10.648   2.421   8.080
 3206ETHY    C1 3126  11.012   2.431   8.354
 3207ETHY    C1 3127  11.428   2.533   8.680
 3208ETHY    C1 3128  11.808   2.732   8.995
 3209ETHY    C1 3129  12.143   3.019   9.296
 3210ETHY    C1 3130  12.424   3.387   9.577
 3211AUSL   AUS 3131  10.373   2.055   6.922
 3212AUSL   AUS 3132  10.229   2.471   6.992
 3213AUL    AUL 3133  10.455   2.358   6.707
 3214THSLK    S 3134  10.476   2.005   6.681
 3215ETHY    C1 3135  10.697   1.819   6.329
 3216ETHY    C1 3136  10.970   1.684   5.885
 3217ETHY    C1 3137  11.248   1.654   5.432
 3218ETHY    C1 3138  11.526   1.723   4.982
 3219ETHY    C1 3139  11.800   1.891   4.545
 3220THSLK    S 3140  10.407   2.586   6.825
 3221ETHY    C1 3141  10.695   2.691   6.488
 3222ETHY    C1 3142  10.995   2.895   6.090
 3223ETHY    C1 3143  11.238   3.183   5.714
 3224ETHY    C1 3144  11.422   3.547   5.371
 3225ETHY    C1 3145  11.546   3.978   5.065
 3226AUSL   AUS 3146  10.128   1.903   6.828
 3227AUSL   AUS 3147  10.474   1.790   7.085
 3228AUL    AUL 3148  10.455   1.751   6.707
 3229THSLK    S 3149  10.611   1.598   6.944
 3230ETHY    C1 3150  10.819   1.255   6.729
 3231ETHY    C1 3151  11.120   0.913   6.442
 3232ETHY    C1 3152  11.471   0.660   6.133
 3233ETHY    C1 3153  11.865   0.498   5.812
 3234ETHY    C1 3154  12.294   0.427   5.486
 3235THSLK    S 3155  10.215   1.849   6.590
 3236ETHY    C1 3156  10.296   1.598   6.217
 3237ETHY    C1 3157  10.410   1.382   5.738
 3238ETHY    C1 3158  10.543   1.266   5.236
 3239ETHY    C1 3159  10.693   1.248   4.725
 3240ETHY    C1 3160  10.859   1.328   4.214
 3241AUSL   AUS 3161  10.128   2.206   6.828
 3242AUSL   AUS 3162   9.801   1.903   6.828
 3243AUL    AUL 3163   9.964   2.055   6.520
 3244THSLK    S 3164   9.706   1.849   6.592
 3245ETHY    C1 3165   9.569   1.601   6.235
 3246ETHY    C1 3166   9.409   1.387   5.767
 3247ETHY    C1 3167   9.262   1.272   5.269
 3248ETHY    C1 3168   9.135   1.253   4.751
 3249ETHY    C1 3169   9.030   1.329   4.224
 3250THSLK    S 3170  10.231   2.164   6.578
 3251ETHY    C1 3171  10.372   2.049   6.160
 3252ETHY    C1 3172  10.530   2.002   5.647
 3253ETHY    C1 3173  10.673   2.058   5.138
 3254ETHY    C1 3174  10.801   2.212   4.643
 3255ETHY    C1 3175  10.912   2.460   4.174
 3256AUSL   AUS 3176   9.555   2.055   8.082
 3257AUSL   AUS 3177   9.699   2.471   8.012
 3258AUL    AUL 3178   9.473   2.358   8.296
 3259THSLK    S 3179   9.452   2.005   8.322
 3260ETHY    C1 3180   9.231   1.819   8.674
 3261ETHY    C1 3181   8.958   1.684   9.118
 3262ETHY    C1 3182   8.681   1.654   9.571
 3263ETHY    C1 3183   8.403   1.723  10.021
 3264ETHY    C1 3184   8.128   1.891  10.458
 3265THSLK    S 3185   9.579   2.600   8.202
 3266ETHY    C1 3186   9.510   2.769   8.620
 3267ETHY    C1 3187   9.368   3.022   9.073
 3268ETHY    C1 3188   9.162   3.323   9.460
 3269ETHY    C1 3189   8.895   3.662   9.775
 3270ETHY    C1 3190   8.575   4.029  10.013
 3271AUSL   AUS 3191   9.801   1.903   8.175
 3272AUSL   AUS 3192   9.454   1.790   7.918
 3273AUL    AUL 3193   9.473   1.751   8.296
 3274THSLK    S 3194   9.276   1.626   8.029
 3275ETHY    C1 3195   8.908   1.373   8.125
 3276ETHY    C1 3196   8.493   1.094   8.323
 3277ETHY    C1 3197   8.115   0.854   8.611
 3278ETHY    C1 3198   7.781   0.658   8.978
 3279ETHY    C1 3199   7.495   0.512   9.415
 3280THSLK    S 3200   9.698   1.851   8.410
 3281ETHY    C1 3201   9.556   1.604   8.766
 3282ETHY    C1 3202   9.398   1.389   9.233
 3283ETHY    C1 3203   9.255   1.273   9.733
 3284ETHY    C1 3204   9.128   1.255  10.250
 3285ETHY    C1 3205   9.016   1.333  10.775
 3286AUSL   AUS 3206   9.555   2.055   6.922
 3287AUSL   AUS 3207   9.699   1.638   6.992
 3288AUL    AUL 3208   9.473   1.751   6.707
 3289THSLK    S 3209   9.460   2.005   6.677
 3290ETHY    C1 3210   9.243   1.819   6.322
 3291ETHY    C1 3211   8.968   1.684   5.879
 3292ETHY    C1 3212   8.687   1.654   5.429
 3293ETHY    C1 3213   8.409   1.723   4.978
 3294ETHY    C1 3214   8.141   1.891   4.537
 3295THSLK    S 3215   9.527   1.464   6.872
 3296ETHY    C1 3216   9.242   1.143   6.717
 3297ETHY    C1 3217   8.941   0.784   6.453
 3298ETHY    C1 3218   8.696   0.461   6.109
 3299ETHY    C1 3219   8.512   0.178   5.696
 3300ETHY    C1 3220   8.393  -0.062   5.223
 3301AUSL   AUS 3221   9.801   2.206   6.828
 3302AUSL   AUS 3222   9.454   2.319   7.085
 3303AUL    AUL 3223   9.473   2.358   6.707
 3304THSLK    S 3224   9.323   2.449   6.893
 3305ETHY    C1 3225   9.117   2.549   6.499
 3306ETHY    C1 3226   8.815   2.713   6.085
 3307ETHY    C1 3227   8.461   2.925   5.748
 3308ETHY    C1 3228   8.068   3.179   5.494
 3309ETHY    C1 3229   7.643   3.472   5.324
 3310THSLK    S 3230   9.722   2.165   6.571
 3311ETHY    C1 3231   9.645   2.053   6.136
 3312ETHY    C1 3232   9.529   2.008   5.612
 3313ETHY    C1 3233   9.393   2.064   5.101
 3314ETHY    C1 3234   9.243   2.218   4.613
 3315ETHY    C1 3235   9.083   2.463   4.156
 3316AUSL   AUS 3236  10.544   2.464   7.502
 3317AUSL   AUS 3237  10.474   2.319   7.085
 3318AUL    AUL 3238  10.758   2.545   7.198
 3319THSLK    S 3239  10.653   2.422   6.930
 3320ETHY    C1 3240  11.020   2.433   6.659
 3321ETHY    C1 3241  11.435   2.535   6.332
 3322ETHY    C1 3242  11.813   2.733   6.014
 3323ETHY    C1 3243  12.147   3.020   5.713
 3324ETHY    C1 3244  12.433   3.390   5.438
 3325THSLK    S 3245  10.812   2.520   7.506
 3326ETHY    C1 3246  11.264   2.581   7.508
 3327ETHY    C1 3247  11.778   2.740   7.507
 3328ETHY    C1 3248  12.246   2.994   7.505
 3329ETHY    C1 3249  12.659   3.331   7.506
 3330ETHY    C1 3250  13.011   3.745   7.509
 3331AUSL   AUS 3251  10.638   2.218   7.350
 3332AUSL   AUS 3252  10.638   1.891   7.653
 3333AUL    AUL 3253  10.946   2.055   7.502
 3334THSLK    S 3254  10.897   2.261   7.348
 3335ETHY    C1 3255  11.342   2.191   7.278
 3336ETHY    C1 3256  11.873   2.198   7.190
 3337ETHY    C1 3257  12.386   2.308   7.101
 3338ETHY    C1 3258  12.871   2.514   7.017
 3339ETHY    C1 3259  13.318   2.811   6.940
 3340THSLK    S 3260  10.870   1.753   7.662
 3341ETHY    C1 3261  11.216   1.464   7.728
 3342ETHY    C1 3262  11.677   1.197   7.809
 3343ETHY    C1 3263  12.174   1.028   7.892
 3344ETHY    C1 3264  12.695   0.956   7.980
 3345ETHY    C1 3265  13.230   0.982   8.071
 3346AUSL   AUS 3266  10.638   2.218   7.653
 3347AUSL   AUS 3267  10.381   2.565   7.766
 3348AUL    AUL 3268  10.758   2.545   7.805
 3349THSLK    S 3269  10.564   2.684   7.926
 3350ETHY    C1 3270  10.936   2.839   8.139
 3351ETHY    C1 3271  11.336   3.104   8.385
 3352ETHY    C1 3272  11.670   3.448   8.615
 3353ETHY    C1 3273  11.932   3.861   8.827
 3354ETHY    C1 3274  12.119   4.333   9.019
 3355THSLK    S 3275  10.896   2.261   7.664
 3356ETHY    C1 3276  11.340   2.191   7.738
 3357ETHY    C1 3277  11.871   2.198   7.825
 3358ETHY    C1 3278  12.385   2.308   7.910
 3359ETHY    C1 3279  12.869   2.514   7.994
 3360ETHY    C1 3280  13.316   2.811   8.078
 3361AUSL   AUS 3281   9.384   2.464   7.502
 3362AUSL   AUS 3282   9.454   2.319   7.918
 3363AUL    AUL 3283   9.170   2.545   7.805
 3364THSLK    S 3284   9.318   2.442   8.109
 3365ETHY    C1 3285   9.109   2.538   8.503
 3366ETHY    C1 3286   8.808   2.704   8.917
 3367ETHY    C1 3287   8.457   2.919   9.254
 3368ETHY    C1 3288   8.063   3.173   9.509
 3369ETHY    C1 3289   7.634   3.460   9.678
 3370THSLK    S 3290   9.168   2.604   7.506
 3371ETHY    C1 3291   8.912   2.982   7.508
 3372ETHY    C1 3292   8.539   3.370   7.507
 3373ETHY    C1 3293   8.103   3.676   7.505
 3374ETHY    C1 3294   7.617   3.894   7.506
 3375ETHY    C1 3295   7.090   4.024   7.509
 3376AUSL   AUS 3296   9.290   2.218   7.350
 3377AUSL   AUS 3297   9.548   2.565   7.237
 3378AUL    AUL 3298   9.170   2.545   7.198
 3379THSLK    S 3299   9.059   2.333   7.303
 3380ETHY    C1 3300   8.712   2.521   7.075
 3381ETHY    C1 3301   8.252   2.713   6.872
 3382ETHY    C1 3302   7.754   2.863   6.758
 3383ETHY    C1 3303   7.233   2.973   6.733
 3384ETHY    C1 3304   6.699   3.043   6.796
 3385THSLK    S 3305   9.432   2.730   7.058
 3386ETHY    C1 3306   9.316   3.046   6.750
 3387ETHY    C1 3307   9.102   3.424   6.432
 3388ETHY    C1 3308   8.810   3.793   6.183
 3389ETHY    C1 3309   8.452   4.146   6.008
 3390ETHY    C1 3310   8.034   4.479   5.909
 3391AUSL   AUS 3311   9.290   2.218   7.653
 3392AUSL   AUS 3312   9.290   1.891   7.350
 3393AUL    AUL 3313   8.982   2.055   7.502
 3394THSLK    S 3314   9.032   1.817   7.390
 3395ETHY    C1 3315   8.588   1.782   7.486
 3396ETHY    C1 3316   8.057   1.701   7.518
 3397ETHY    C1 3317   7.543   1.576   7.458
 3398ETHY    C1 3318   7.059   1.408   7.311
 3399ETHY    C1 3319   6.612   1.201   7.083
 3400THSLK    S 3320   9.057   2.325   7.704
 3401ETHY    C1 3321   8.710   2.509   7.935
 3402ETHY    C1 3322   8.250   2.702   8.137
 3403ETHY    C1 3323   7.753   2.857   8.249
 3404ETHY    C1 3324   7.232   2.967   8.274
 3405ETHY    C1 3325   6.696   3.030   8.213
 3406AUSL   AUS 3326  10.544   1.645   7.502
 3407AUSL   AUS 3327  10.474   1.790   7.918
 3408AUL    AUL 3328  10.758   1.564   7.805
 3409THSLK    S 3329  10.760   1.505   7.506
 3410ETHY    C1 3330  11.016   1.127   7.508
 3411ETHY    C1 3331  11.389   0.739   7.507
 3412ETHY    C1 3332  11.825   0.433   7.505
 3413ETHY    C1 3333  12.311   0.215   7.506
 3414ETHY    C1 3334  12.838   0.085   7.509
 3415THSLK    S 3335  10.606   1.600   8.066
 3416ETHY    C1 3336  10.811   1.257   8.285
 3417ETHY    C1 3337  11.113   0.915   8.570
 3418ETHY    C1 3338  11.467   0.662   8.877
 3419ETHY    C1 3339  11.861   0.499   9.198
 3420ETHY    C1 3340  12.285   0.429   9.529
 3421AUSL   AUS 3341  10.638   1.891   7.350
 3422AUSL   AUS 3342  10.381   1.544   7.237
 3423AUL    AUL 3343  10.758   1.564   7.198
 3424THSLK    S 3344  10.871   1.753   7.350
 3425ETHY    C1 3345  11.219   1.464   7.289
 3426ETHY    C1 3346  11.678   1.197   7.206
 3427ETHY    C1 3347  12.175   1.028   7.118
 3428ETHY    C1 3348  12.697   0.956   7.031
 3429ETHY    C1 3349  13.232   0.982   6.947
 3430THSLK    S 3350  10.500   1.354   7.104
 3431ETHY    C1 3351  10.617   0.937   6.963
 3432ETHY    C1 3352  10.831   0.483   6.765
 3433ETHY    C1 3353  11.121   0.097   6.543
 3434ETHY    C1 3354  11.480  -0.218   6.306
 3435ETHY    C1 3355  11.900  -0.457   6.058
 3436AUSL   AUS 3356   9.384   1.645   7.502
 3437AUSL   AUS 3357   9.454   1.790   7.085
 3438AUL    AUL 3358   9.170   1.564   7.198
 3439THSLK    S 3359   9.281   1.619   6.973
 3440ETHY    C1 3360   8.916   1.362   6.877
 3441ETHY    C1 3361   8.500   1.085   6.679
 3442ETHY    C1 3362   8.120   0.848   6.392
 3443ETHY    C1 3363   7.786   0.652   6.025
 3444ETHY    C1 3364   7.504   0.500   5.587
 3445THSLK    S 3365   9.116   1.589   7.506
 3446ETHY    C1 3366   8.664   1.528   7.508
 3447ETHY    C1 3367   8.150   1.369   7.507
 3448ETHY    C1 3368   7.682   1.115   7.505
 3449ETHY    C1 3369   7.269   0.778   7.506
 3450ETHY    C1 3370   6.917   0.364   7.509
 3451AUSL   AUS 3371   9.290   1.891   7.653
 3452AUSL   AUS 3372   9.548   1.544   7.766
 3453AUL    AUL 3373   9.170   1.564   7.805
 3454THSLK    S 3374   9.360   1.400   7.880
 3455ETHY    C1 3375   8.986   1.143   7.926
 3456ETHY    C1 3376   8.588   0.803   8.052
 3457ETHY    C1 3377   8.255   0.441   8.255
 3458ETHY    C1 3378   7.993   0.067   8.529
 3459ETHY    C1 3379   7.802  -0.311   8.870
 3460THSLK    S 3380   9.031   1.824   7.617
 3461ETHY    C1 3381   8.586   1.794   7.524
 3462ETHY    C1 3382   8.055   1.712   7.490
 3463ETHY    C1 3383   7.542   1.583   7.549
 3464ETHY    C1 3384   7.058   1.415   7.696
 3465ETHY    C1 3385   6.610   1.213   7.928
 3466AUSL   AUS 3386   9.964   2.635   7.911
 3467AUSL   AUS 3387   9.548   2.565   7.766
 3468AUL    AUL 3388   9.661   2.849   7.992
 3469THSLK    S 3389   9.428   2.724   7.950
 3470ETHY    C1 3390   9.311   3.036   8.261
 3471ETHY    C1 3391   9.097   3.416   8.578
 3472ETHY    C1 3392   8.807   3.787   8.824
 3473ETHY    C1 3393   8.449   4.141   9.000
 3474ETHY    C1 3394   8.028   4.469   9.102
 3475THSLK    S 3395  10.004   2.861   8.035
 3476ETHY    C1 3396  10.161   3.163   8.339
 3477ETHY    C1 3397  10.276   3.569   8.672
 3478ETHY    C1 3398  10.303   4.013   8.964
 3479ETHY    C1 3399  10.243   4.482   9.211
 3480ETHY    C1 3400  10.099   4.966   9.410
 3481AUSL   AUS 3401   9.812   2.728   7.665
 3482AUSL   AUS 3402  10.116   2.728   7.338
 3483AUL    AUL 3403   9.964   3.036   7.502
 3484THSLK    S 3404   9.853   2.976   7.774
 3485ETHY    C1 3405   9.962   3.386   7.942
 3486ETHY    C1 3406  10.006   3.893   8.118
 3487ETHY    C1 3407   9.949   4.401   8.265
 3488ETHY    C1 3408   9.796   4.898   8.383
 3489ETHY    C1 3409   9.553   5.375   8.472
 3490THSLK    S 3410  10.169   2.963   7.241
 3491ETHY    C1 3411  10.414   3.319   7.094
 3492ETHY    C1 3412  10.627   3.784   6.927
 3493ETHY    C1 3413  10.742   4.282   6.779
 3494ETHY    C1 3414  10.762   4.801   6.655
 3495ETHY    C1 3415  10.687   5.330   6.558
 3496AUSL   AUS 3416  10.116   2.728   7.665
 3497AUSL   AUS 3417  10.229   2.471   8.012
 3498AUL    AUL 3418  10.267   2.849   7.992
 3499THSLK    S 3419  10.401   2.584   8.184
 3500ETHY    C1 3420  10.686   2.687   8.524
 3501ETHY    C1 3421  10.988   2.891   8.921
 3502ETHY    C1 3422  11.233   3.181   9.294
 3503ETHY    C1 3423  11.417   3.544   9.638
 3504ETHY    C1 3424  11.536   3.974   9.948
 3505THSLK    S 3425  10.167   2.962   7.771
 3506ETHY    C1 3426  10.411   3.316   7.922
 3507ETHY    C1 3427  10.624   3.782   8.087
 3508ETHY    C1 3428  10.740   4.281   8.231
 3509ETHY    C1 3429  10.759   4.799   8.356
 3510ETHY    C1 3430  10.684   5.327   8.458
 3511AUSL   AUS 3431   9.964   1.475   7.911
 3512AUSL   AUS 3432  10.381   1.544   7.766
 3513AUL    AUL 3433  10.267   1.260   7.992
 3514THSLK    S 3434   9.920   1.220   7.990
 3515ETHY    C1 3435   9.760   0.816   8.128
 3516ETHY    C1 3436   9.646   0.335   8.341
 3517ETHY    C1 3437   9.621  -0.126   8.605
 3518ETHY    C1 3438   9.680  -0.556   8.915
 3519ETHY    C1 3439   9.821  -0.948   9.263
 3520THSLK    S 3440  10.496   1.355   7.908
 3521ETHY    C1 3441  10.612   0.939   8.052
 3522ETHY    C1 3442  10.826   0.486   8.248
 3523ETHY    C1 3443  11.118   0.098   8.467
 3524ETHY    C1 3444  11.477  -0.217   8.705
 3525ETHY    C1 3445  11.894  -0.454   8.958
 3526AUSL   AUS 3446   9.812   1.381   7.665
 3527AUSL   AUS 3447   9.699   1.638   8.012
 3528AUL    AUL 3448   9.661   1.260   7.992
 3529THSLK    S 3449   9.759   1.141   7.745
 3530ETHY    C1 3450   9.514   0.760   7.801
 3531ETHY    C1 3451   9.301   0.275   7.897
 3532ETHY    C1 3452   9.186  -0.228   8.025
 3533ETHY    C1 3453   9.167  -0.737   8.186
 3534ETHY    C1 3454   9.241  -1.240   8.374
 3535THSLK    S 3455   9.521   1.470   8.133
 3536ETHY    C1 3456   9.233   1.152   8.289
 3537ETHY    C1 3457   8.933   0.792   8.552
 3538ETHY    C1 3458   8.690   0.466   8.896
 3539ETHY    C1 3459   8.506   0.183   9.309
 3540ETHY    C1 3460   8.382  -0.051   9.783
 3541AUSL   AUS 3461  10.116   1.381   7.665
 3542AUSL   AUS 3462   9.812   1.381   7.338
 3543AUL    AUL 3463   9.964   1.073   7.502
 3544THSLK    S 3464   9.761   1.138   7.266
 3545ETHY    C1 3465   9.517   0.756   7.215
 3546ETHY    C1 3466   9.304   0.272   7.117
 3547ETHY    C1 3467   9.188  -0.230   6.984
 3548ETHY    C1 3468   9.169  -0.739   6.825
 3549ETHY    C1 3469   9.245  -1.244   6.642
 3550THSLK    S 3470  10.073   1.125   7.749
 3551ETHY    C1 3471   9.963   0.689   7.821
 3552ETHY    C1 3472   9.920   0.163   7.928
 3553ETHY    C1 3473   9.977  -0.349   8.059
 3554ETHY    C1 3474  10.130  -0.837   8.213
 3555ETHY    C1 3475  10.372  -1.290   8.388
 3556AUSL   AUS 3476   9.964   2.635   7.093
 3557AUSL   AUS 3477  10.381   2.565   7.237
 3558AUL    AUL 3478  10.267   2.849   7.011
 3559THSLK    S 3479  10.008   2.865   6.975
 3560ETHY    C1 3480  10.168   3.169   6.674
 3561ETHY    C1 3481  10.282   3.574   6.339
 3562ETHY    C1 3482  10.307   4.017   6.045
 3563ETHY    C1 3483  10.248   4.486   5.798
 3564ETHY    C1 3484  10.107   4.973   5.604
 3565THSLK    S 3485  10.568   2.686   7.085
 3566ETHY    C1 3486  10.942   2.842   6.876
 3567ETHY    C1 3487  11.340   3.106   6.629
 3568ETHY    C1 3488  11.673   3.450   6.395
 3569ETHY    C1 3489  11.935   3.862   6.184
 3570ETHY    C1 3490  12.126   4.336   5.998
 3571AUSL   AUS 3491   9.812   2.728   7.338
 3572AUSL   AUS 3492   9.699   2.471   6.992
 3573AUL    AUL 3493   9.661   2.849   7.011
 3574THSLK    S 3494   9.855   2.979   7.237
 3575ETHY    C1 3495   9.965   3.390   7.074
 3576ETHY    C1 3496  10.008   3.896   6.896
 3577ETHY    C1 3497   9.951   4.404   6.745
 3578ETHY    C1 3498   9.798   4.901   6.627
 3579ETHY    C1 3499   9.556   5.380   6.545
 3580THSLK    S 3500   9.585   2.606   6.802
 3581ETHY    C1 3501   9.519   2.778   6.385
 3582ETHY    C1 3502   9.376   3.030   5.932
 3583ETHY    C1 3503   9.167   3.329   5.544
 3584ETHY    C1 3504   8.901   3.667   5.230
 3585ETHY    C1 3505   8.585   4.040   4.993
 3586AUSL   AUS 3506   9.964   1.475   7.093
 3587AUSL   AUS 3507   9.548   1.544   7.237
 3588AUL    AUL 3508   9.661   1.260   7.011
 3589THSLK    S 3509   9.364   1.394   7.128
 3590ETHY    C1 3510   8.992   1.133   7.085
 3591ETHY    C1 3511   8.593   0.795   6.958
 3592ETHY    C1 3512   8.258   0.436   6.753
 3593ETHY    C1 3513   7.996   0.062   6.478
 3594ETHY    C1 3514   7.809  -0.321   6.142
 3595THSLK    S 3515   9.924   1.216   7.019
 3596ETHY    C1 3516   9.767   0.810   6.885
 3597ETHY    C1 3517   9.652   0.330   6.671
 3598ETHY    C1 3518   9.625  -0.129   6.404
 3599ETHY    C1 3519   9.685  -0.560   6.094
 3600ETHY    C1 3520   9.829  -0.955   5.751
 3601AUSL   AUS 3521  10.116   1.381   7.338
 3602AUSL   AUS 3522  10.229   1.638   6.992
 3603AUL    AUL 3523  10.267   1.260   7.011
 3604THSLK    S 3524  10.075   1.124   7.262
 3605ETHY    C1 3525   9.966   0.686   7.195
 3606ETHY    C1 3526   9.923   0.160   7.086
 3607ETHY    C1 3527   9.979  -0.351   6.951
 3608ETHY    C1 3528  10.132  -0.839   6.798
 3609ETHY    C1 3529  10.376  -1.293   6.629
 3610THSLK    S 3530  10.349   1.448   6.853
 3611ETHY    C1 3531  10.418   1.062   6.621
 3612ETHY    C1 3532  10.560   0.654   6.300
 3613ETHY    C1 3533  10.767   0.318   5.942
 3614ETHY    C1 3534  11.033   0.061   5.559
 3615ETHY    C1 3535  11.353  -0.117   5.158
 3616AUC    AUC 3536  35.157  38.115   7.502
 3617AUC    AUC 3537  35.403  38.115   7.350
 3618AUC    AUC 3538  35.403  38.115   7.653
 3619AUC    AUC 3539  34.912  38.115   7.350
 3620AUC    AUC 3540  34.912  38.115   7.653
 3621AUC    AUC 3541  35.005  38.360   7.502
 3622AUC    AUC 3542  35.309  38.360   7.502
 3623AUC    AUC 3543  35.005  37.869   7.502
 3624AUC    AUC 3544  35.309  37.869   7.502
 3625AUC    AUC 3545  35.157  37.963   7.747
 3626AUC    AUC 3546  35.157  38.266   7.747
 3627AUC    AUC 3547  35.157  37.963   7.256
 3628AUC    AUC 3548  35.157  38.266   7.256
 3629AUC    AUC 3549  35.648  38.115   7.198
 3630AUC    AUC 3550  35.648  38.115   7.502
 3631AUC    AUC 3551  35.648  38.115   7.805
 3632AUC    AUC 3552  34.666  38.115   7.198
 3633AUC    AUC 3553  34.666  38.115   7.502
 3634AUC    AUC 3554  34.666  38.115   7.805
 3635AUC    AUC 3555  34.854  38.605   7.502
 3636AUC    AUC 3556  35.157  38.605   7.502
 3637AUC    AUC 3557  35.460  38.605   7.502
 3638AUC    AUC 3558  34.854  37.624   7.502
 3639AUC    AUC 3559  35.157  37.624   7.502
 3640AUC    AUC 3560  35.460  37.624   7.502
 3641AUC    AUC 3561  35.157  37.811   7.992
 3642AUC    AUC 3562  35.157  38.115   7.992
 3643AUC    AUC 3563  35.157  38.418   7.992
 3644AUC    AUC 3564  35.157  37.811   7.011
 3645AUC    AUC 3565  35.157  38.115   7.011
 3646AUC    AUC 3566  35.157  38.418   7.011
 3647AUC    AUC 3567  35.403  37.963   7.899
 3648AUC    AUC 3568  35.403  38.266   7.899
 3649AUC    AUC 3569  35.403  37.963   7.105
 3650AUC    AUC 3570  35.403  38.266   7.105
 3651AUC    AUC 3571  34.912  37.963   7.899
 3652AUC    AUC 3572  34.912  38.266   7.899
 3653AUC    AUC 3573  34.912  37.963   7.105
 3654AUC    AUC 3574  34.912  38.266   7.105
 3655AUC    AUC 3575  35.554  38.360   7.350
 3656AUC    AUC 3576  35.554  38.360   7.653
 3657AUC    AUC 3577  34.760  38.360   7.350
 3658AUC    AUC 3578  34.760  38.360   7.653
 3659AUC    AUC 3579  35.554  37.869   7.350
 3660AUC    AUC 3580  35.554  37.869   7.653
 3661AUC    AUC 3581  34.760  37.869   7.350
 3662AUC    AUC 3582  34.760  37.869   7.653
 3663AUC    AUC 3583  35.005  38.512   7.747
 3664AUC    AUC 3584  35.309  38.512   7.747
 3665AUC    AUC 3585  35.005  37.717   7.747
 3666AUC    AUC 3586  35.309  37.717   7.747
 3667AUC    AUC 3587  35.005  38.512   7.256
 3668AUC    AUC 3588  35.309  38.512   7.256
 3669AUC    AUC 3589  35.005  37.717   7.256
 3670AUC    AUC 3590  35.309  37.717   7.256
 3671AUSL   AUS 3591  35.566  38.115   8.082
 3672AUSL   AUS 3592  35.422  37.698   8.012
 3673AUL    AUL 3593  35.648  37.811   8.296
 3674THSLK    S 3594  35.536  37.510   8.156
 3675ETHY    C1 3595  35.602  37.125   8.391
 3676ETHY    C1 3596  35.745  36.717   8.710
 3677ETHY    C1 3597  35.954  36.381   9.066
 3678ETHY    C1 3598  36.220  36.123   9.450
 3679ETHY    C1 3599  36.536  35.947   9.855
 3680THSLK    S 3600  35.662  38.065   8.326
 3681ETHY    C1 3601  35.878  37.879   8.681
 3682ETHY    C1 3602  36.153  37.744   9.124
 3683ETHY    C1 3603  36.434  37.714   9.575
 3684ETHY    C1 3604  36.712  37.783  10.025
 3685ETHY    C1 3605  36.981  37.951  10.466
 3686AUSL   AUS 3606  35.321  37.963   8.175
 3687AUSL   AUS 3607  34.994  38.266   8.175
 3688AUL    AUL 3608  35.157  38.115   8.483
 3689THSLK    S 3609  35.399  37.910   8.417
 3690ETHY    C1 3610  35.476  37.660   8.790
 3691ETHY    C1 3611  35.592  37.443   9.269
 3692ETHY    C1 3612  35.729  37.327   9.769
 3693ETHY    C1 3613  35.879  37.309  10.281
 3694ETHY    C1 3614  36.038  37.390  10.794
 3695THSLK    S 3615  34.907  38.223   8.431
 3696ETHY    C1 3616  34.825  38.111   8.864
 3697ETHY    C1 3617  34.711  38.065   9.388
 3698ETHY    C1 3618  34.579  38.123   9.901
 3699ETHY    C1 3619  34.428  38.276  10.389
 3700ETHY    C1 3620  34.262  38.520  10.844
 3701AUSL   AUS 3621  35.321  38.266   8.175
 3702AUSL   AUS 3622  35.667  38.379   7.918
 3703AUL    AUL 3623  35.648  38.418   8.296
 3704THSLK    S 3624  35.408  38.320   8.414
 3705ETHY    C1 3625  35.489  38.571   8.786
 3706ETHY    C1 3626  35.603  38.787   9.265
 3707ETHY    C1 3627  35.736  38.903   9.767
 3708ETHY    C1 3628  35.886  38.921  10.279
 3709ETHY    C1 3629  36.052  38.841  10.789
 3710THSLK    S 3630  35.841  38.481   8.080
 3711ETHY    C1 3631  36.205  38.491   8.354
 3712ETHY    C1 3632  36.621  38.593   8.680
 3713ETHY    C1 3633  37.001  38.792   8.995
 3714ETHY    C1 3634  37.336  39.079   9.296
 3715ETHY    C1 3635  37.617  39.447   9.577
 3716AUSL   AUS 3636  35.566  38.115   6.922
 3717AUSL   AUS 3637  35.422  38.531   6.992
 3718AUL    AUL 3638  35.648  38.418   6.707
 3719THSLK    S 3639  35.669  38.065   6.681
 3720ETHY    C1 3640  35.890  37.879   6.329
 3721ETHY    C1 3641  36.163  37.744   5.885
 3722ETHY    C1 3642  36.441  37.714   5.432
 3723ETHY    C1 3643  36.719  37.783   4.982
 3724ETHY    C1 3644  36.993  37.951   4.545
 3725THSLK    S 3645  35.600  38.646   6.825
 3726ETHY    C1 3646  35.888  38.751   6.488
 3727ETHY    C1 3647  36.188  38.955   6.090
 3728ETHY    C1 3648  36.431  39.243   5.714
 3729ETHY    C1 3649  36.615  39.607   5.371
 3730ETHY    C1 3650  36.739  40.038   5.065
 3731AUSL   AUS 3651  35.321  37.963   6.828
 3732AUSL   AUS 3652  35.667  37.850   7.085
 3733AUL    AUL 3653  35.648  37.811   6.707
 3734THSLK    S 3654  35.804  37.658   6.944
 3735ETHY    C1 3655  36.012  37.315   6.729
 3736ETHY    C1 3656  36.313  36.973   6.442
 3737ETHY    C1 3657  36.664  36.720   6.133
 3738ETHY    C1 3658  37.058  36.558   5.812
 3739ETHY    C1 3659  37.487  36.487   5.486
 3740THSLK    S 3660  35.408  37.909   6.590
 3741ETHY    C1 3661  35.489  37.658   6.217
 3742ETHY    C1 3662  35.603  37.442   5.738
 3743ETHY    C1 3663  35.736  37.326   5.236
 3744ETHY    C1 3664  35.886  37.308   4.725
 3745ETHY    C1 3665  36.052  37.388   4.214
 3746AUSL   AUS 3666  35.321  38.266   6.828
 3747AUSL   AUS 3667  34.994  37.963   6.828
 3748AUL    AUL 3668  35.157  38.115   6.520
 3749THSLK    S 3669  34.899  37.909   6.592
 3750ETHY    C1 3670  34.762  37.661   6.235
 3751ETHY    C1 3671  34.602  37.447   5.767
 3752ETHY    C1 3672  34.455  37.332   5.269
 3753ETHY    C1 3673  34.328  37.313   4.751
 3754ETHY    C1 3674  34.223  37.389   4.224
 3755THSLK    S 3675  35.424  38.224   6.578
 3756ETHY    C1 3676  35.565  38.109   6.160
 3757ETHY    C1 3677  35.723  38.062   5.647
 3758ETHY    C1 3678  35.866  38.118   5.138
 3759ETHY    C1 3679  35.994  38.272   4.643
 3760ETHY    C1 3680  36.105  38.520   4.174
 3761AUSL   AUS 3681  34.748  38.115   8.082
 3762AUSL   AUS 3682  34.892  38.531   8.012
 3763AUL    AUL 3683  34.666  38.418   8.296
 3764THSLK    S 3684  34.645  38.065   8.322
 3765ETHY    C1 3685  34.424  37.879   8.674
 3766ETHY    C1 3686  34.151  37.744   9.118
 3767ETHY    C1 3687  33.874  37.714   9.571
 3768ETHY    C1 3688  33.596  37.783  10.021
 3769ETHY    C1 3689  33.321  37.951  10.458
 3770THSLK    S 3690  34.772  38.660   8.202
 3771ETHY    C1 3691  34.703  38.829   8.620
 3772ETHY    C1 3692  34.561  39.082   9.073
 3773ETHY    C1 3693  34.355  39.383   9.460
 3774ETHY    C1 3694  34.088  39.722   9.775
 3775ETHY    C1 3695  33.768  40.089  10.013
 3776AUSL   AUS 3696  34.994  37.963   8.175
 3777AUSL   AUS 3697  34.647  37.850   7.918
 3778AUL    AUL 3698  34.666  37.811   8.296
 3779THSLK    S 3699  34.469  37.686   8.029
 3780ETHY    C1 3700  34.101  37.433   8.125
 3781ETHY    C1 3701  33.686  37.154   8.323
 3782ETHY    C1 3702  33.308  36.914   8.611
 3783ETHY    C1 3703  32.974  36.718   8.978
 3784ETHY    C1 3704  32.688  36.572   9.415
 3785THSLK    S 3705  34.891  37.911   8.410
 3786ETHY    C1 3706  34.749  37.664   8.766
 3787ETHY    C1 3707  34.591  37.449   9.233
 3788ETHY    C1 3708  34.448  37.333   9.733
 3789ETHY    C1 3709  34.321  37.315  10.250
 3790ETHY    C1 3710  34.209  37.393  10.775
 3791AUSL   AUS 3711  34.748  38.115   6.922
 3792AUSL   AUS 3712  34.892  37.698   6.992
 3793AUL    AUL 3713  34.666  37.811   6.707
 3794THSLK    S 3714  34.653  38.065   6.677
 3795ETHY    C1 3715  34.436  37.879   6.322
 3796ETHY    C1 3716  34.161  37.744   5.879
 3797ETHY    C1 3717  33.880  37.714   5.429
 3798ETHY    C1 3718  33.602  37.783   4.978
 3799ETHY    C1 3719  33.334  37.951   4.537
 3800THSLK    S 3720  34.720  37.524   6.872
 3801ETHY    C1 3721  34.435  37.203   6.717
 3802ETHY    C1 3722  34.134  36.844   6.453
 3803ETHY    C1 3723  33.889  36.521   6.109
 3804ETHY    C1 3724  33.705  36.238   5.696
 3805ETHY    C1 3725  33.586  35.998   5.223
 3806AUSL   AUS 3726  34.994  38.266   6.828
 3807AUSL   AUS 3727  34.647  38.379   7.085
 3808AUL    AUL 3728  34.666  38.418   6.707
 3809THSLK    S 3729  34.516  38.509   6.893
 3810ETHY    C1 3730  34.310  38.609   6.499
 3811ETHY    C1 3731  34.008  38.773   6.085
 3812ETHY    C1 3732  33.654  38.985   5.748
 3813ETHY    C1 3733  33.261  39.239   5.494
 3814ETHY    C1 3734  32.836  39.532   5.324
 3815THSLK    S 3735  34.915  38.225   6.571
 3816ETHY    C1 3736  34.838  38.113   6.136
 3817ETHY    C1 3737  34.722  38.068   5.612
 3818ETHY    C1 3738  34.586  38.124   5.101
 3819ETHY    C1 3739  34.436  38.278   4.613
 3820ETHY    C1 3740  34.276  38.523   4.156
 3821AUSL   AUS 3741  35.737  38.524   7.502
 3822AUSL   AUS 3742  35.667  38.379   7.085
 3823AUL    AUL 3743  35.951  38.605   7.198
 3824THSLK    S 3744  35.846  38.482   6.930
 3825ETHY    C1 3745  36.213  38.493   6.659
 3826ETHY    C1 3746  36.628  38.595   6.332
 3827ETHY    C1 3747  37.006  38.793   6.014
 3828ETHY    C1 3748  37.340  39.080   5.713
 3829ETHY    C1 3749  37.626  39.450   5.438
 3830THSLK    S 3750  36.005  38.580   7.506
 3831ETHY    C1 3751  36.457  38.641   7.508
 3832ETHY    C1 3752  36.971  38.800   7.507
 3833ETHY    C1 3753  37.439  39.054   7.505
 3834ETHY    C1 3754  37.852  39.391   7.506
 3835ETHY    C1 3755  38.204  39.805   7.509
 3836AUSL   AUS 3756  35.831  38.278   7.350
 3837AUSL   AUS 3757  35.831  37.951   7.653
 3838AUL    AUL 3758  36.139  38.115   7.502
 3839THSLK    S 3759  36.090  38.321   7.348
 3840ETHY    C1 3760  36.535  38.251   7.278
 3841ETHY    C1 3761  37.066  38.258   7.190
 3842ETHY    C1 3762  37.579  38.368   7.101
 3843ETHY    C1 3763  38.064  38.574   7.017
 3844ETHY    C1 3764  38.511  38.871   6.940
 3845THSLK    S 3765  36.063  37.813   7.662
 3846ETHY    C1 3766  36.409  37.524   7.728
 3847ETHY    C1 3767  36.870  37.257   7.809
 3848ETHY    C1 3768  37.367  37.088   7.892
 3849ETHY    C1 3769  37.888  37.016   7.980
 3850ETHY    C1 3770  38.423  37.042   8.071
 3851AUSL   AUS 3771  35.831  38.278   7.653
 3852AUSL   AUS 3772  35.574  38.625   7.766
 3853AUL    AUL 3773  35.951  38.605   7.805
 3854THSLK    S 3774  35.757  38.744   7.926
 3855ETHY    C1 3775  36.129  38.899   8.139
 3856ETHY    C1 3776  36.529  39.164   8.385
 3857ETHY    C1 3777  36.863  39.508   8.615
 3858ETHY    C1 3778  37.125  39.921   8.827
 3859ETHY    C1 3779  37.312  40.393   9.019
 3860THSLK    S 3780  36.089  38.321   7.664
 3861ETHY    C1 3781  36.533  38.251   7.738
 3862ETHY    C1 3782  37.064  38.258   7.825
 3863ETHY    C1 3783  37.578  38.368   7.910
 3864ETHY    C1 3784  38.062  38.574   7.994
 3865ETHY    C1 3785  38.509  38.871   8.078
 3866AUSL   AUS 3786  34.577  38.524   7.502
 3867AUSL   AUS 3787  34.647  38.379   7.918
 3868AUL    AUL 3788  34.363  38.605   7.805
 3869THSLK    S 3789  34.511  38.502   8.109
 3870ETHY    C1 3790  34.302  38.598   8.503
 3871ETHY    C1 3791  34.001  38.764   8.917
 3872ETHY    C1 3792  33.650  38.979   9.254
 3873ETHY    C1 3793  33.256  39.233   9.509
 3874ETHY    C1 3794  32.827  39.520   9.678
 3875THSLK    S 3795  34.361  38.664   7.506
 3876ETHY    C1 3796  34.105  39.042   7.508
 3877ETHY    C1 3797  33.732  39.430   7.507
 3878ETHY    C1 3798  33.296  39.736   7.505
 3879ETHY    C1 3799  32.810  39.954   7.506
 3880ETHY    C1 3800  32.283  40.084   7.509
 3881AUSL   AUS 3801  34.483  38.278   7.350
 3882AUSL   AUS 3802  34.741  38.625   7.237
 3883AUL    AUL 3803  34.363  38.605   7.198
 3884THSLK    S 3804  34.252  38.393   7.303
 3885ETHY    C1 3805  33.905  38.581   7.075
 3886ETHY    C1 3806  33.445  38.773   6.872
 3887ETHY    C1 3807  32.947  38.923   6.758
 3888ETHY    C1 3808  32.426  39.033   6.733
 3889ETHY    C1 3809  31.892  39.103   6.796
 3890THSLK    S 3810  34.625  38.790   7.058
 3891ETHY    C1 3811  34.509  39.106   6.750
 3892ETHY    C1 3812  34.295  39.484   6.432
 3893ETHY    C1 3813  34.003  39.853   6.183
 3894ETHY    C1 3814  33.645  40.206   6.008
 3895ETHY    C1 3815  33.227  40.539   5.909
 3896AUSL   AUS 3816  34.483  38.278   7.653
 3897AUSL   AUS 3817  34.483  37.951   7.350
 3898AUL    AUL 3818  34.175  38.115   7.502
 3899THSLK    S 3819  34.225  37.877   7.390
 3900ETHY    C1 3820  33.781  37.842   7.486
 3901ETHY    C1 3821  33.250  37.761   7.518
 3902ETHY    C1 3822  32.736  37.636   7.458
 3903ETHY    C1 3823  32.252  37.468   7.311
 3904ETHY    C1 3824  31.805  37.261   7.083
 3905THSLK    S 3825  34.250  38.385   7.704
 3906ETHY    C1 3826  33.903  38.569   7.935
 3907ETHY    C1 3827  33.443  38.762   8.137
 3908ETHY    C1 3828  32.946  38.917   8.249
 3909ETHY    C1 3829  32.425  39.027   8.274
 3910ETHY    C1 3830  31.889  39.090   8.213
 3911AUSL   AUS 3831  35.737  37.705   7.502
 3912AUSL   AUS 3832  35.667  37.850   7.918
 3913AUL    AUL 3833  35.951  37.624   7.805
 3914THSLK    S 3834  35.953  37.565   7.506
 3915ETHY    C1 3835  36.209  37.187   7.508
 3916ETHY    C1 3836  36.582  36.799   7.507
 3917ETHY    C1 3837  37.018  36.493   7.505
 3918ETHY    C1 3838  37.504  36.275   7.506
 3919ETHY    C1 3839  38.031  36.145   7.509
 3920THSLK    S 3840  35.799  37.660   8.066
 3921ETHY    C1 3841  36.004  37.317   8.285
 3922ETHY    C1 3842  36.306  36.975   8.570
 3923ETHY    C1 3843  36.660  36.722   8.877
 3924ETHY    C1 3844  37.054  36.559   9.198
 3925ETHY    C1 3845  37.478  36.489   9.529
 3926AUSL   AUS 3846  35.831  37.951   7.350
 3927AUSL   AUS 3847  35.574  37.604   7.237
 3928AUL    AUL 3848  35.951  37.624   7.198
 3929THSLK    S 3849  36.064  37.813   7.350
 3930ETHY    C1 3850  36.412  37.524   7.289
 3931ETHY    C1 3851  36.871  37.257   7.206
 3932ETHY    C1 3852  37.368  37.088   7.118
 3933ETHY    C1 3853  37.890  37.016   7.031
 3934ETHY    C1 3854  38.425  37.042   6.947
 3935THSLK    S 3855  35.693  37.414   7.104
 3936ETHY    C1 3856  35.810  36.997   6.963
 3937ETHY    C1 3857  36.024  36.543   6.765
 3938ETHY    C1 3858  36.314  36.157   6.543
 3939ETHY    C1 3859  36.673  35.842   6.306
 3940ETHY    C1 3860  37.093  35.603   6.058
 3941AUSL   AUS 3861  34.577  37.705   7.502
 3942AUSL   AUS 3862  34.647  37.850   7.085
 3943AUL    AUL 3863  34.363  37.624   7.198
 3944THSLK    S 3864  34.474  37.679   6.973
 3945ETHY    C1 3865  34.109  37.422   6.877
 3946ETHY    C1 3866  33.693  37.145   6.679
 3947ETHY    C1 3867  33.313  36.908   6.392
 3948ETHY    C1 3868  32.979  36.712   6.025
 3949ETHY    C1 3869  32.697  36.560   5.587
 3950THSLK    S 3870  34.309  37.649   7.506
 3951ETHY    C1 3871  33.857  37.588   7.508
 3952ETHY    C1 3872  33.343  37.429   7.507
 3953ETHY    C1 3873  32.875  37.175   7.505
 3954ETHY    C1 3874  32.462  36.838   7.506
 3955ETHY    C1 3875  32.110  36.424   7.509
 3956AUSL   AUS 3876  34.483  37.951   7.653
 3957AUSL   AUS 3877  34.741  37.604   7.766
 3958AUL    AUL 3878  34.363  37.624   7.805
 3959THSLK    S 3879  34.553  37.460   7.880
 3960ETHY    C1 3880  34.179  37.203   7.926
 3961ETHY    C1 3881  33.781  36.863   8.052
 3962ETHY    C1 3882  33.448  36.501   8.255
 3963ETHY    C1 3883  33.186  36.127   8.529
 3964ETHY    C1 3884  32.995  35.749   8.870
 3965THSLK    S 3885  34.224  37.884   7.617
 3966ETHY    C1 3886  33.779  37.854   7.524
 3967ETHY    C1 3887  33.248  37.772   7.490
 3968ETHY    C1 3888  32.735  37.643   7.549
 3969ETHY    C1 3889  32.251  37.475   7.696
 3970ETHY    C1 3890  31.803  37.273   7.928
 3971AUSL   AUS 3891  35.157  38.695   7.911
 3972AUSL   AUS 3892  34.741  38.625   7.766
 3973AUL    AUL 3893  34.854  38.909   7.992
 3974THSLK    S 3894  34.621  38.784   7.950
 3975ETHY    C1 3895  34.504  39.096   8.261
 3976ETHY    C1 3896  34.290  39.476   8.578
 3977ETHY    C1 3897  34.000  39.847   8.824
 3978ETHY    C1 3898  33.642  40.201   9.000
 3979ETHY    C1 3899  33.221  40.529   9.102
 3980THSLK    S 3900  35.197  38.921   8.035
 3981ETHY    C1 3901  35.354  39.223   8.339
 3982ETHY    C1 3902  35.469  39.629   8.672
 3983ETHY    C1 3903  35.496  40.073   8.964
 3984ETHY    C1 3904  35.436  40.542   9.211
 3985ETHY    C1 3905  35.292  41.026   9.410
 3986AUSL   AUS 3906  35.005  38.788   7.665
 3987AUSL   AUS 3907  35.309  38.788   7.338
 3988AUL    AUL 3908  35.157  39.096   7.502
 3989THSLK    S 3909  35.046  39.036   7.774
 3990ETHY    C1 3910  35.155  39.446   7.942
 3991ETHY    C1 3911  35.199  39.953   8.118
 3992ETHY    C1 3912  35.142  40.461   8.265
 3993ETHY    C1 3913  34.989  40.958   8.383
 3994ETHY    C1 3914  34.746  41.435   8.472
 3995THSLK    S 3915  35.362  39.023   7.241
 3996ETHY    C1 3916  35.607  39.379   7.094
 3997ETHY    C1 3917  35.820  39.844   6.927
 3998ETHY    C1 3918  35.935  40.342   6.779
 3999ETHY    C1 3919  35.955  40.861   6.655
 4000ETHY    C1 3920  35.880  41.390   6.558
 4001AUSL   AUS 3921  35.309  38.788   7.665
 4002AUSL   AUS 3922  35.422  38.531   8.012
 4003AUL    AUL 3923  35.460  38.909   7.992
 4004THSLK    S 3924  35.594  38.644   8.184
 4005ETHY    C1 3925  35.879  38.747   8.524
 4006ETHY    C1 3926  36.181  38.951   8.921
 4007ETHY    C1 3927  36.426  39.241   9.294
 4008ETHY    C1 3928  36.610  39.604   9.638
 4009ETHY    C1 3929  36.729  40.034   9.948
 4010THSLK    S 3930  35.360  39.022   7.771
 4011ETHY    C1 3931  35.604  39.376   7.922
 4012ETHY    C1 3932  35.817  39.842   8.087
 4013ETHY    C1 3933  35.933  40.341   8.231
 4014ETHY    C1 3934  35.952  40.859   8.356
 4015ETHY    C1 3935  35.877  41.387   8.458
 4016AUSL   AUS 3936  35.157  37.535   7.911
 4017AUSL   AUS 3937  35.574  37.604   7.766
 4018AUL    AUL 3938  35.460  37.320   7.992
 4019THSLK    S 3939  35.113  37.280   7.990
 4020ETHY    C1 3940  34.953  36.876   8.128
 4021ETHY    C1 3941  34.839  36.395   8.341
 4022ETHY    C1 3942  34.814  35.934   8.605
 4023ETHY    C1 3943  34.873  35.504   8.915
 4024ETHY    C1 3944  35.014  35.112   9.263
 4025THSLK    S 3945  35.689  37.415   7.908
 4026ETHY    C1 3946  35.805  36.999   8.052
 4027ETHY    C1 3947  36.019  36.546   8.248
 4028ETHY    C1 3948  36.311  36.158   8.467
 4029ETHY    C1 3949  36.670  35.843   8.705
 4030ETHY    C1 3950  37.087  35.606   8.958
 4031AUSL   AUS 3951  35.005  37.441   7.665
 4032AUSL   AUS 3952  34.892  37.698   8.012
 4033AUL    AUL 3953  34.854  37.320   7.992
 4034THSLK    S 3954  34.952  37.201   7.745
 4035ETHY    C1 3955  34.707  36.820   7.801
 4036ETHY    C1 3956  34.494  36.335   7.897
 4037ETHY    C1 3957  34.379  35.832   8.025
 4038ETHY    C1 3958  34.360  35.323   8.186
 4039ETHY    C1 3959  34.434  34.820   8.374
 4040THSLK    S 3960  34.714  37.530   8.133
 4041ETHY    C1 3961  34.426  37.212   8.289
 4042ETHY    C1 3962  34.126  36.852   8.552
 4043ETHY    C1 3963  33.883  36.526   8.896
 4044ETHY    C1 3964  33.699  36.243   9.309
 4045ETHY    C1 3965  33.575  36.009   9.783
 4046AUSL   AUS 3966  35.309  37.441   7.665
 4047AUSL   AUS 3967  35.005  37.441   7.338
 4048AUL    AUL 3968  35.157  37.133   7.502
 4049THSLK    S 3969  34.954  37.198   7.266
 4050ETHY    C1 3970  34.710  36.816   7.215
 4051ETHY    C1 3971  34.497  36.332   7.117
 4052ETHY    C1 3972  34.381  35.830   6.984
 4053ETHY    C1 3973  34.362  35.321   6.825
 4054ETHY    C1 3974  34.438  34.816   6.642
 4055THSLK    S 3975  35.266  37.185   7.749
 4056ETHY    C1 3976  35.156  36.749   7.821
 4057ETHY    C1 3977  35.113  36.223   7.928
 4058ETHY    C1 3978  35.170  35.711   8.059
 4059ETHY    C1 3979  35.323  35.223   8.213
 4060ETHY    C1 3980  35.565  34.770   8.388
 4061AUSL   AUS 3981  35.157  38.695   7.093
 4062AUSL   AUS 3982  35.574  38.625   7.237
 4063AUL    AUL 3983  35.460  38.909   7.011
 4064THSLK    S 3984  35.201  38.925   6.975
 4065ETHY    C1 3985  35.361  39.229   6.674
 4066ETHY    C1 3986  35.475  39.634   6.339
 4067ETHY    C1 3987  35.500  40.077   6.045
 4068ETHY    C1 3988  35.441  40.546   5.798
 4069ETHY    C1 3989  35.300  41.033   5.604
 4070THSLK    S 3990  35.761  38.746   7.085
 4071ETHY    C1 3991  36.135  38.902   6.876
 4072ETHY    C1 3992  36.533  39.166   6.629
 4073ETHY    C1 3993  36.866  39.510   6.395
 4074ETHY    C1 3994  37.128  39.922   6.184
 4075ETHY    C1 3995  37.319  40.396   5.998
 4076AUSL   AUS 3996  35.005  38.788   7.338
 4077AUSL   AUS 3997  34.892  38.531   6.992
 4078AUL    AUL 3998  34.854  38.909   7.011
 4079THSLK    S 3999  35.048  39.039   7.237
 4080ETHY    C1 4000  35.158  39.450   7.074
 4081ETHY    C1 4001  35.201  39.956   6.896
 4082ETHY    C1 4002  35.144  40.464   6.745
 4083ETHY    C1 4003  34.991  40.961   6.627
 4084ETHY    C1 4004  34.749  41.440   6.545
 4085THSLK    S 4005  34.778  38.666   6.802
 4086ETHY    C1 4006  34.712  38.838   6.385
 4087ETHY    C1 4007  34.569  39.090   5.932
 4088ETHY    C1 4008  34.360  39.389   5.544
 4089ETHY    C1 4009  34.094  39.727   5.230
 4090ETHY    C1 4010  33.778  40.100   4.993
 4091AUSL   AUS 4011  35.157  37.535   7.093
 4092AUSL   AUS 4012  34.741  37.604   7.237
 4093AUL    AUL 4013  34.854  37.320   7.011
 4094THSLK    S 4014  34.557  37.454   7.128
 4095ETHY    C1 4015  34.185  37.193   7.085
 4096ETHY    C1 4016  33.786  36.855   6.958
 4097ETHY    C1 4017  33.451  36.496   6.753
 4098ETHY    C1 4018  33.189  36.122   6.478
 4099ETHY    C1 4019  33.002  35.739   6.142
 4100THSLK    S 4020  35.117  37.276   7.019
 4101ETHY    C1 4021  34.960  36.870   6.885
 4102ETHY    C1 4022  34.845  36.390   6.671
 4103ETHY    C1 4023  34.818  35.931   6.404
 4104ETHY    C1 4024  34.878  35.500   6.094
 4105ETHY    C1 4025  35.022  35.105   5.751
 4106AUSL   AUS 4026  35.309  37.441   7.338
 4107AUSL   AUS 4027  35.422  37.698   6.992
 4108AUL    AUL 4028  35.460  37.320   7.011
 4109THSLK    S 4029  35.268  37.184   7.262
 4110ETHY    C1 4030  35.159  36.746   7.195
 4111ETHY    C1 4031  35.116  36.220   7.086
 4112ETHY    C1 4032  35.172  35.709   6.951
 4113ETHY    C1 4033  35.325  35.221   6.798
 4114ETHY    C1 4034  35.569  34.767   6.629
 4115THSLK    S 4035  35.542  37.508   6.853
 4116ETHY    C1 4036  35.611  37.122   6.621
 4117ETHY    C1 4037  35.753  36.714   6.300
 4118ETHY    C1 4038  35.960  36.378   5.942
 4119ETHY    C1 4039  36.226  36.121   5.559
 4120ETHY    C1 4040  36.546  35.943   5.158
 4121AUC    AUC 4041  13.056  31.477   7.502
 4122AUC    AUC 4042  13.302  31.477   7.350
 4123AUC    AUC 4043  13.302  31.477   7.653
 4124AUC    AUC 4044  12.811  31.477   7.350
 4125AUC    AUC 4045  12.811  31.477   7.653
 4126AUC    AUC 4046  12.904  31.722   7.502
 4127AUC    AUC 4047  13.208  31.722   7.502
 4128AUC    AUC 4048  12.904  31.231   7.502
 4129AUC    AUC 4049  13.208  31.231   7.502
 4130AUC    AUC 4050  13.056  31.325   7.747
 4131AUC    AUC 4051  13.056  31.628   7.747
 4132AUC    AUC 4052  13.056  31.325   7.256
 4133AUC    AUC 4053  13.056  31.628   7.256
 4134AUC    AUC 4054  13.547  31.477   7.198
 4135AUC    AUC 4055  13.547  31.477   7.502
 4136AUC    AUC 4056  13.547  31.477   7.805
 4137AUC    AUC 4057  12.565  31.477   7.198
 4138AUC    AUC 4058  12.565  31.477   7.502
 4139AUC    AUC 4059  12.565  31.477   7.805
 4140AUC    AUC 4060  12.753  31.967   7.502
 4141AUC    AUC 4061  13.056  31.967   7.502
 4142AUC    AUC 4062  13.359  31.967   7.502
 4143AUC    AUC 4063  12.753  30.986   7.502
 4144AUC    AUC 4064  13.056  30.986   7.502
 4145AUC    AUC 4065  13.359  30.986   7.502
 4146AUC    AUC 4066  13.056  31.173   7.992
 4147AUC    AUC 4067  13.056  31.477   7.992
 4148AUC    AUC 4068  13.056  31.780   7.992
 4149AUC    AUC 4069  13.056  31.173   7.011
 4150AUC    AUC 4070  13.056  31.477   7.011
 4151AUC    AUC 4071  13.056  31.780   7.011
 4152AUC    AUC 4072  13.302  31.325   7.899
 4153AUC    AUC 4073  13.302  31.628   7.899
 4154AUC    AUC 4074  13.302  31.325   7.105
 4155AUC    AUC 4075  13.302  31.628   7.105
 4156AUC    AUC 4076  12.811  31.325   7.899
 4157AUC    AUC 4077  12.811  31.628   7.899
 4158AUC    AUC 4078  12.811  31.325   7.105
 4159AUC    AUC 4079  12.811  31.628   7.105
 4160AUC    AUC 4080  13.453  31.722   7.350
 4161AUC    AUC 4081  13.453  31.722   7.653
 4162AUC    AUC 4082  12.659  31.722   7.350
 4163AUC    AUC 4083  12.659  31.722   7.653
 4164AUC    AUC 4084  13.453  31.231   7.350
 4165AUC    AUC 4085  13.453  31.231   7.653
 4166AUC    AUC 4086  12.659  31.231   7.350
 4167AUC    AUC 4087  12.659  31.231   7.653
 4168AUC    AUC 4088  12.904  31.874   7.747
 4169AUC    AUC 4089  13.208  31.874   7.747
 4170AUC    AUC 4090  12.904  31.079   7.747
 4171AUC    AUC 4091  13.208  31.079   7.747
 4172AUC    AUC 4092  12.904  31.874   7.256
 4173AUC    AUC 4093  13.208  31.874   7.256
 4174AUC    AUC 4094  12.904  31.079   7.256
 4175AUC    AUC 4095  13.208  31.079   7.256
 4176AUSL   AUS 4096  13.465  31.477   8.082
 4177AUSL   AUS 4097  13.321  31.060   8.012
 4178AUL    AUL 4098  13.547  31.173   8.296
 4179THSLK    S 4099  13.435  30.872   8.156
 4180ETHY    C1 4100  13.501  30.487   8.391
 4181ETHY    C1 4101  13.644  30.079   8.710
 4182ETHY    C1 4102  13.853  29.743   9.066
 4183ETHY    C1 4103  14.119  29.485   9.450
 4184ETHY    C1 4104  14.435  29.309   9.855
 4185THSLK    S 4105  13.561  31.427   8.326
 4186ETHY    C1 4106  13.777  31.241   8.681
 4187ETHY    C1 4107  14.052  31.106   9.124
 4188ETHY    C1 4108  14.333  31.076   9.575
 4189ETHY    C1 4109  14.611  31.145  10.025
 4190ETHY    C1 4110  14.880  31.313  10.466
 4191AUSL   AUS 4111  13.220  31.325   8.175
 4192AUSL   AUS 4112  12.893  31.628   8.175
 4193AUL    AUL 4113  13.056  31.477   8.483
 4194THSLK    S 4114  13.298  31.272   8.417
 4195ETHY    C1 4115  13.375  31.022   8.790
 4196ETHY    C1 4116  13.491  30.805   9.269
 4197ETHY    C1 4117  13.628  30.689   9.769
 4198ETHY    C1 4118  13.778  30.671  10.281
 4199ETHY    C1 4119  13.937  30.752  10.794
 4200THSLK    S 4120  12.806  31.585   8.431
 4201ETHY    C1 4121  12.724  31.473   8.864
 4202ETHY    C1 4122  12.610  31.427   9.388
 4203ETHY    C1 4123  12.478  31.485   9.901
 4204ETHY    C1 4124  12.327  31.638  10.389
 4205ETHY    C1 4125  12.161  31.882  10.844
 4206AUSL   AUS 4126  13.220  31.628   8.175
 4207AUSL   AUS 4127  13.566  31.741   7.918
 4208AUL    AUL 4128  13.547  31.780   8.296
 4209THSLK    S 4129  13.307  31.682   8.414
 4210ETHY    C1 4130  13.388  31.933   8.786
 4211ETHY    C1 4131  13.502  32.149   9.265
 4212ETHY    C1 4132  13.635  32.265   9.767
 4213ETHY    C1 4133  13.785  32.283  10.279
 4214ETHY    C1 4134  13.951  32.203  10.789
 4215THSLK    S 4135  13.740  31.843   8.080
 4216ETHY    C1 4136  14.104  31.853   8.354
 4217ETHY    C1 4137  14.520  31.955   8.680
 4218ETHY    C1 4138  14.900  32.154   8.995
 4219ETHY    C1 4139  15.235  32.441   9.296
 4220ETHY    C1 4140  15.516  32.809   9.577
 4221AUSL   AUS 4141  13.465  31.477   6.922
 4222AUSL   AUS 4142  13.321  31.893   6.992
 4223AUL    AUL 4143  13.547  31.780   6.707
 4224THSLK    S 4144  13.568  31.427   6.681
 4225ETHY    C1 4145  13.789  31.241   6.329
 4226ETHY    C1 4146  14.062  31.106   5.885
 4227ETHY    C1 4147  14.340  31.076   5.432
 4228ETHY    C1 4148  14.618  31.145   4.982
 4229ETHY    C1 4149  14.892  31.313   4.545
 4230THSLK    S 4150  13.499  32.008   6.825
 4231ETHY    C1 4151  13.787  32.113   6.488
 4232ETHY    C1 4152  14.087  32.317   6.090
 4233ETHY    C1 4153  14.330  32.605   5.714
 4234ETHY    C1 4154  14.514  32.969   5.371
 4235ETHY    C1 4155  14.638  33.400   5.065
 4236AUSL   AUS 4156  13.220  31.325   6.828
 4237AUSL   AUS 4157  13.566  31.212   7.085
 4238AUL    AUL 4158  13.547  31.173   6.707
 4239THSLK    S 4159  13.703  31.020   6.944
 4240ETHY    C1 4160  13.911  30.677   6.729
 4241ETHY    C1 4161  14.212  30.335   6.442
 4242ETHY    C1 4162  14.563  30.082   6.133
 4243ETHY    C1 4163  14.957  29.920   5.812
 4244ETHY    C1 4164  15.386  29.849   5.486
 4245THSLK    S 4165  13.307  31.271   6.590
 4246ETHY    C1 4166  13.388  31.020   6.217
 4247ETHY    C1 4167  13.502  30.804   5.738
 4248ETHY    C1 4168  13.635  30.688   5.236
 4249ETHY    C1 4169  13.785  30.670   4.725
 4250ETHY    C1 4170  13.951  30.750   4.214
 4251AUSL   AUS 4171  13.220  31.628   6.828
 4252AUSL   AUS 4172  12.893  31.325   6.828
 4253AUL    AUL 4173  13.056  31.477   6.520
 4254THSLK    S 4174  12.798  31.271   6.592
 4255ETHY    C1 4175  12.661  31.023   6.235
 4256ETHY    C1 4176  12.501  30.809   5.767
 4257ETHY    C1 4177  12.354  30.694   5.269
 4258ETHY    C1 4178  12.227  30.675   4.751
 4259ETHY    C1 4179  12.122  30.751   4.224
 4260THSLK    S 4180  13.323  31.586   6.578
 4261ETHY    C1 4181  13.464  31.471   6.160
 4262ETHY    C1 4182  13.622  31.424   5.647
 4263ETHY    C1 4183  13.765  31.480   5.138
 4264ETHY    C1 4184  13.893  31.634   4.643
 4265ETHY    C1 4185  14.004  31.882   4.174
 4266AUSL   AUS 4186  12.647  31.477   8.082
 4267AUSL   AUS 4187  12.791  31.893   8.012
 4268AUL    AUL 4188  12.565  31.780   8.296
 4269THSLK    S 4189  12.544  31.427   8.322
 4270ETHY    C1 4190  12.323  31.241   8.674
 4271ETHY    C1 4191  12.050  31.106   9.118
 4272ETHY    C1 4192  11.773  31.076   9.571
 4273ETHY    C1 4193  11.495  31.145  10.021
 4274ETHY    C1 4194  11.220  31.313  10.458
 4275THSLK    S 4195  12.671  32.022   8.202
 4276ETHY    C1 4196  12.602  32.191   8.620
 4277ETHY    C1 4197  12.460  32.444   9.073
 4278ETHY    C1 4198  12.254  32.745   9.460
 4279ETHY    C1 4199  11.987  33.084   9.775
 4280ETHY    C1 4200  11.667  33.451  10.013
 4281AUSL   AUS 4201  12.893  31.325   8.175
 4282AUSL   AUS 4202  12.546  31.212   7.918
 4283AUL    AUL 4203  12.565  31.173   8.296
 4284THSLK    S 4204  12.368  31.048   8.029
 4285ETHY    C1 4205  12.000  30.795   8.125
 4286ETHY    C1 4206  11.585  30.516   8.323
 4287ETHY    C1 4207  11.207  30.276   8.611
 4288ETHY    C1 4208  10.873  30.080   8.978
 4289ETHY    C1 4209  10.587  29.934   9.415
 4290THSLK    S 4210  12.790  31.273   8.410
 4291ETHY    C1 4211  12.648  31.026   8.766
 4292ETHY    C1 4212  12.490  30.811   9.233
 4293ETHY    C1 4213  12.347  30.695   9.733
 4294ETHY    C1 4214  12.220  30.677  10.250
 4295ETHY    C1 4215  12.108  30.755  10.775
 4296AUSL   AUS 4216  12.647  31.477   6.922
 4297AUSL   AUS 4217  12.791  31.060   6.992
 4298AUL    AUL 4218  12.565  31.173   6.707
 4299THSLK    S 4219  12.552  31.427   6.677
 4300ETHY    C1 4220  12.335  31.241   6.322
 4301ETHY    C1 4221  12.060  31.106   5.879
 4302ETHY    C1 4222  11.779  31.076   5.429
 4303ETHY    C1 4223  11.501  31.145   4.978
 4304ETHY    C1 4224  11.233  31.313   4.537
 4305THSLK    S 4225  12.619  30.886   6.872
 4306ETHY    C1 4226  12.334  30.565   6.717
 4307ETHY    C1 4227  12.033  30.206   6.453
 4308ETHY    C1 4228  11.788  29.883   6.109
 4309ETHY    C1 4229  11.604  29.600   5.696
 4310ETHY    C1 4230  11.485  29.360   5.223
 4311AUSL   AUS 4231  12.893  31.628   6.828
 4312AUSL   AUS 4232  12.546  31.741   7.085
 4313AUL    AUL 4233  12.565  31.780   6.707
 4314THSLK    S 4234  12.415  31.871   6.893
 4315ETHY    C1 4235  12.209  31.971   6.499
 4316ETHY    C1 4236  11.907  32.135   6.085
 4317ETHY    C1 4237  11.553  32.347   5.748
 4318ETHY    C1 4238  11.160  32.601   5.494
 4319ETHY    C1 4239  10.735  32.894   5.324
 4320THSLK    S 4240  12.814  31.587   6.571
 4321ETHY    C1 4241  12.737  31.475   6.136
 4322ETHY    C1 4242  12.621  31.430   5.612
 4323ETHY    C1 4243  12.485  31.486   5.101
 4324ETHY    C1 4244  12.335  31.640   4.613
 4325ETHY    C1 4245  12.175  31.885   4.156
 4326AUSL   AUS 4246  13.636  31.886   7.502
 4327AUSL   AUS 4247  13.566  31.741   7.085
 4328AUL    AUL 4248  13.850  31.967   7.198
 4329THSLK    S 4249  13.745  31.844   6.930
 4330ETHY    C1 4250  14.112  31.855   6.659
 4331ETHY    C1 4251  14.527  31.957   6.332
 4332ETHY    C1 4252  14.905  32.155   6.014
 4333ETHY    C1 4253  15.239  32.442   5.713
 4334ETHY    C1 4254  15.525  32.812   5.438
 4335THSLK    S 4255  13.904  31.942   7.506
 4336ETHY    C1 4256  14.356  32.003   7.508
 4337ETHY    C1 4257  14.870  32.162   7.507
 4338ETHY    C1 4258  15.338  32.416   7.505
 4339ETHY    C1 4259  15.751  32.753   7.506
 4340ETHY    C1 4260  16.103  33.167   7.509
 4341AUSL   AUS 4261  13.730  31.640   7.350
 4342AUSL   AUS 4262  13.730  31.313   7.653
 4343AUL    AUL 4263  14.038  31.477   7.502
 4344THSLK    S 4264  13.989  31.683   7.348
 4345ETHY    C1 4265  14.434  31.613   7.278
 4346ETHY    C1 4266  14.965  31.620   7.190
 4347ETHY    C1 4267  15.478  31.730   7.101
 4348ETHY    C1 4268  15.963  31.936   7.017
 4349ETHY    C1 4269  16.410  32.233   6.940
 4350THSLK    S 4270  13.962  31.175   7.662
 4351ETHY    C1 4271  14.308  30.886   7.728
 4352ETHY    C1 4272  14.769  30.619   7.809
 4353ETHY    C1 4273  15.266  30.450   7.892
 4354ETHY    C1 4274  15.787  30.378   7.980
 4355ETHY    C1 4275  16.322  30.404   8.071
 4356AUSL   AUS 4276  13.730  31.640   7.653
 4357AUSL   AUS 4277  13.473  31.987   7.766
 4358AUL    AUL 4278  13.850  31.967   7.805
 4359THSLK    S 4279  13.656  32.106   7.926
 4360ETHY    C1 4280  14.028  32.261   8.139
 4361ETHY    C1 4281  14.428  32.526   8.385
 4362ETHY    C1 4282  14.762  32.870   8.615
 4363ETHY    C1 4283  15.024  33.283   8.827
 4364ETHY    C1 4284  15.211  33.755   9.019
 4365THSLK    S 4285  13.988  31.683   7.664
 4366ETHY    C1 4286  14.432  31.613   7.738
 4367ETHY    C1 4287  14.963  31.620   7.825
 4368ETHY    C1 4288  15.477  31.730   7.910
 4369ETHY    C1 4289  15.961  31.936   7.994
 4370ETHY    C1 4290  16.408  32.233   8.078
 4371AUSL   AUS 4291  12.476  31.886   7.502
 4372AUSL   AUS 4292  12.546  31.741   7.918
 4373AUL    AUL 4293  12.262  31.967   7.805
 4374THSLK    S 4294  12.410  31.864   8.109
 4375ETHY    C1 4295  12.201  31.960   8.503
 4376ETHY    C1 4296  11.900  32.126   8.917
 4377ETHY    C1 4297  11.549  32.341   9.254
 4378ETHY    C1 4298  11.155  32.595   9.509
 4379ETHY    C1 4299  10.726  32.882   9.678
 4380THSLK    S 4300  12.260  32.026   7.506
 4381ETHY    C1 4301  12.004  32.404   7.508
 4382ETHY    C1 4302  11.631  32.792   7.507
 4383ETHY    C1 4303  11.195  33.098   7.505
 4384ETHY    C1 4304  10.709  33.316   7.506
 4385ETHY    C1 4305  10.182  33.446   7.509
 4386AUSL   AUS 4306  12.382  31.640   7.350
 4387AUSL   AUS 4307  12.640  31.987   7.237
 4388AUL    AUL 4308  12.262  31.967   7.198
 4389THSLK    S 4309  12.151  31.755   7.303
 4390ETHY    C1 4310  11.804  31.943   7.075
 4391ETHY    C1 4311  11.344  32.135   6.872
 4392ETHY    C1 4312  10.846  32.285   6.758
 4393ETHY    C1 4313  10.325  32.395   6.733
 4394ETHY    C1 4314   9.791  32.465   6.796
 4395THSLK    S 4315  12.524  32.152   7.058
 4396ETHY    C1 4316  12.408  32.468   6.750
 4397ETHY    C1 4317  12.194  32.846   6.432
 4398ETHY    C1 4318  11.902  33.215   6.183
 4399ETHY    C1 4319  11.544  33.568   6.008
 4400ETHY    C1 4320  11.126  33.901   5.909
 4401AUSL   AUS 4321  12.382  31.640   7.653
 4402AUSL   AUS 4322  12.382  31.313   7.350
 4403AUL    AUL 4323  12.074  31.477   7.502
 4404THSLK    S 4324  12.124  31.239   7.390
 4405ETHY    C1 4325  11.680  31.204   7.486
 4406ETHY    C1 4326  11.149  31.123   7.518
 4407ETHY    C1 4327  10.635  30.998   7.458
 4408ETHY    C1 4328  10.151  30.830   7.311
 4409ETHY    C1 4329   9.704  30.623   7.083
 4410THSLK    S 4330  12.149  31.747   7.704
 4411ETHY    C1 4331  11.802  31.931   7.935
 4412ETHY    C1 4332  11.342  32.124   8.137
 4413ETHY    C1 4333  10.845  32.279   8.249
 4414ETHY    C1 4334  10.324  32.389   8.274
 4415ETHY    C1 4335   9.788  32.452   8.213
 4416AUSL   AUS 4336  13.636  31.067   7.502
 4417AUSL   AUS 4337  13.566  31.212   7.918
 4418AUL    AUL 4338  13.850  30.986   7.805
 4419THSLK    S 4339  13.852  30.927   7.506
 4420ETHY    C1 4340  14.108  30.549   7.508
 4421ETHY    C1 4341  14.481  30.161   7.507
 4422ETHY    C1 4342  14.917  29.855   7.505
 4423ETHY    C1 4343  15.403  29.637   7.506
 4424ETHY    C1 4344  15.930  29.507   7.509
 4425THSLK    S 4345  13.698  31.022   8.066
 4426ETHY    C1 4346  13.903  30.679   8.285
 4427ETHY    C1 4347  14.205  30.337   8.570
 4428ETHY    C1 4348  14.559  30.084   8.877
 4429ETHY    C1 4349  14.953  29.921   9.198
 4430ETHY    C1 4350  15.377  29.851   9.529
 4431AUSL   AUS 4351  13.730  31.313   7.350
 4432AUSL   AUS 4352  13.473  30.966   7.237
 4433AUL    AUL 4353  13.850  30.986   7.198
 4434THSLK    S 4354  13.963  31.175   7.350
 4435ETHY    C1 4355  14.311  30.886   7.289
 4436ETHY    C1 4356  14.770  30.619   7.206
 4437ETHY    C1 4357  15.267  30.450   7.118
 4438ETHY    C1 4358  15.789  30.378   7.031
 4439ETHY    C1 4359  16.324  30.404   6.947
 4440THSLK    S 4360  13.592  30.776   7.104
 4441ETHY    C1 4361  13.709  30.359   6.963
 4442ETHY    C1 4362  13.923  29.905   6.765
 4443ETHY    C1 4363  14.213  29.519   6.543
 4444ETHY    C1 4364  14.572  29.204   6.306
 4445ETHY    C1 4365  14.992  28.965   6.058
 4446AUSL   AUS 4366  12.476  31.067   7.502
 4447AUSL   AUS 4367  12.546  31.212   7.085
 4448AUL    AUL 4368  12.262  30.986   7.198
 4449THSLK    S 4369  12.373  31.041   6.973
 4450ETHY    C1 4370  12.008  30.784   6.877
 4451ETHY    C1 4371  11.592  30.507   6.679
 4452ETHY    C1 4372  11.212  30.270   6.392
 4453ETHY    C1 4373  10.878  30.074   6.025
 4454ETHY    C1 4374  10.596  29.922   5.587
 4455THSLK    S 4375  12.208  31.011   7.506
 4456ETHY    C1 4376  11.756  30.950   7.508
 4457ETHY    C1 4377  11.242  30.791   7.507
 4458ETHY    C1 4378  10.774  30.537   7.505
 4459ETHY    C1 4379  10.361  30.200   7.506
 4460ETHY    C1 4380  10.009  29.786   7.509
 4461AUSL   AUS 4381  12.382  31.313   7.653
 4462AUSL   AUS 4382  12.640  30.966   7.766
 4463AUL    AUL 4383  12.262  30.986   7.805
 4464THSLK    S 4384  12.452  30.822   7.880
 4465ETHY    C1 4385  12.078  30.565   7.926
 4466ETHY    C1 4386  11.680  30.225   8.052
 4467ETHY    C1 4387  11.347  29.863   8.255
 4468ETHY    C1 4388  11.085  29.489   8.529
 4469ETHY    C1 4389  10.894  29.111   8.870
 4470THSLK    S 4390  12.123  31.246   7.617
 4471ETHY    C1 4391  11.678  31.216   7.524
 4472ETHY    C1 4392  11.147  31.134   7.490
 4473ETHY    C1 4393  10.634  31.005   7.549
 4474ETHY    C1 4394  10.150  30.837   7.696
 4475ETHY    C1 4395   9.702  30.635   7.928
 4476AUSL   AUS 4396  13.056  32.057   7.911
 4477AUSL   AUS 4397  12.640  31.987   7.766
 4478AUL    AUL 4398  12.753  32.271   7.992
 4479THSLK    S 4399  12.520  32.146   7.950
 4480ETHY    C1 4400  12.403  32.458   8.261
 4481ETHY    C1 4401  12.189  32.838   8.578
 4482ETHY    C1 4402  11.899  33.209   8.824
 4483ETHY    C1 4403  11.541  33.563   9.000
 4484ETHY    C1 4404  11.120  33.891   9.102
 4485THSLK    S 4405  13.096  32.283   8.035
 4486ETHY    C1 4406  13.253  32.585   8.339
 4487ETHY    C1 4407  13.368  32.991   8.672
 4488ETHY    C1 4408  13.395  33.435   8.964
 4489ETHY    C1 4409  13.335  33.904   9.211
 4490ETHY    C1 4410  13.191  34.388   9.410
 4491AUSL   AUS 4411  12.904  32.150   7.665
 4492AUSL   AUS 4412  13.208  32.150   7.338
 4493AUL    AUL 4413  13.056  32.458   7.502
 4494THSLK    S 4414  12.945  32.398   7.774
 4495ETHY    C1 4415  13.054  32.808   7.942
 4496ETHY    C1 4416  13.098  33.315   8.118
 4497ETHY    C1 4417  13.041  33.823   8.265
 4498ETHY    C1 4418  12.888  34.320   8.383
 4499ETHY    C1 4419  12.645  34.797   8.472
 4500THSLK    S 4420  13.261  32.385   7.241
 4501ETHY    C1 4421  13.506  32.741   7.094
 4502ETHY    C1 4422  13.719  33.206   6.927
 4503ETHY    C1 4423  13.834  33.704   6.779
 4504ETHY    C1 4424  13.854  34.223   6.655
 4505ETHY    C1 4425  13.779  34.752   6.558
 4506AUSL   AUS 4426  13.208  32.150   7.665
 4507AUSL   AUS 4427  13.321  31.893   8.012
 4508AUL    AUL 4428  13.359  32.271   7.992
 4509THSLK    S 4429  13.493  32.006   8.184
 4510ETHY    C1 4430  13.778  32.109   8.524
 4511ETHY    C1 4431  14.080  32.313   8.921
 4512ETHY    C1 4432  14.325  32.603   9.294
 4513ETHY    C1 4433  14.509  32.966   9.638
 4514ETHY    C1 4434  14.628  33.396   9.948
 4515THSLK    S 4435  13.259  32.384   7.771
 4516ETHY    C1 4436  13.503  32.738   7.922
 4517ETHY    C1 4437  13.716  33.204   8.087
 4518ETHY    C1 4438  13.832  33.703   8.231
 4519ETHY    C1 4439  13.851  34.221   8.356
 4520ETHY    C1 4440  13.776  34.749   8.458
 4521AUSL   AUS 4441  13.056  30.897   7.911
 4522AUSL   AUS 4442  13.473  30.966   7.766
 4523AUL    AUL 4443  13.359  30.682   7.992
 4524THSLK    S 4444  13.012  30.642   7.990
 4525ETHY    C1 4445  12.852  30.238   8.128
 4526ETHY    C1 4446  12.738  29.757   8.341
 4527ETHY    C1 4447  12.713  29.296   8.605
 4528ETHY    C1 4448  12.772  28.866   8.915
 4529ETHY    C1 4449  12.913  28.474   9.263
 4530THSLK    S 4450  13.588  30.777   7.908
 4531ETHY    C1 4451  13.704  30.361   8.052
 4532ETHY    C1 4452  13.918  29.908   8.248
 4533ETHY    C1 4453  14.210  29.520   8.467
 4534ETHY    C1 4454  14.569  29.205   8.705
 4535ETHY    C1 4455  14.986  28.968   8.958
 4536AUSL   AUS 4456  12.904  30.803   7.665
 4537AUSL   AUS 4457  12.791  31.060   8.012
 4538AUL    AUL 4458  12.753  30.682   7.992
 4539THSLK    S 4459  12.851  30.563   7.745
 4540ETHY    C1 4460  12.606  30.182   7.801
 4541ETHY    C1 4461  12.393  29.697   7.897
 4542ETHY    C1 4462  12.278  29.194   8.025
 4543ETHY    C1 4463  12.259  28.685   8.186
 4544ETHY    C1 4464  12.333  28.182   8.374
 4545THSLK    S 4465  12.613  30.892   8.133
 4546ETHY    C1 4466  12.325  30.574   8.289
 4547ETHY    C1 4467  12.025  30.214   8.552
 4548ETHY    C1 4468  11.782  29.888   8.896
 4549ETHY    C1 4469  11.598  29.605   9.309
 4550ETHY    C1 4470  11.474  29.371   9.783
 4551AUSL   AUS 4471  13.208  30.803   7.665
 4552AUSL   AUS 4472  12.904  30.803   7.338
 4553AUL    AUL 4473  13.056  30.495   7.502
 4554THSLK    S 4474  12.853  30.560   7.266
 4555ETHY    C1 4475  12.609  30.178   7.215
 4556ETHY    C1 4476  12.396  29.694   7.117
 4557ETHY    C1 4477  12.280  29.192   6.984
 4558ETHY    C1 4478  12.261  28.683   6.825
 4559ETHY    C1 4479  12.337  28.178   6.642
 4560THSLK    S 4480  13.165  30.547   7.749
 4561ETHY    C1 4481  13.055  30.111   7.821
 4562ETHY    C1 4482  13.012  29.585   7.928
 4563ETHY    C1 4483  13.069  29.073   8.059
 4564ETHY    C1 4484  13.222  28.585   8.213
 4565ETHY    C1 4485  13.464  28.132   8.388
 4566AUSL   AUS 4486  13.056  32.057   7.093
 4567AUSL   AUS 4487  13.473  31.987   7.237
 4568AUL    AUL 4488  13.359  32.271   7.011
 4569THSLK    S 4489  13.100  32.287   6.975
 4570ETHY    C1 4490  13.260  32.591   6.674
 4571ETHY    C1 4491  13.374  32.996   6.339
 4572ETHY    C1 4492  13.399  33.439   6.045
 4573ETHY    C1 4493  13.340  33.908   5.798
 4574ETHY    C1 4494  13.199  34.395   5.604
 4575THSLK    S 4495  13.660  32.108   7.085
 4576ETHY    C1 4496  14.034  32.264   6.876
 4577ETHY    C1 4497  14.432  32.528   6.629
 4578ETHY    C1 4498  14.765  32.872   6.395
 4579ETHY    C1 4499  15.027  33.284   6.184
 4580ETHY    C1 4500  15.218  33.758   5.998
 4581AUSL   AUS 4501  12.904  32.150   7.338
 4582AUSL   AUS 4502  12.791  31.893   6.992
 4583AUL    AUL 4503  12.753  32.271   7.011
 4584THSLK    S 4504  12.947  32.401   7.237
 4585ETHY    C1 4505  13.057  32.812   7.074
 4586ETHY    C1 4506  13.100  33.318   6.896
 4587ETHY    C1 4507  13.043  33.826   6.745
 4588ETHY    C1 4508  12.890  34.323   6.627
 4589ETHY    C1 4509  12.648  34.802   6.545
 4590THSLK    S 4510  12.677  32.028   6.802
 4591ETHY    C1 4511  12.611  32.200   6.385
 4592ETHY    C1 4512  12.468  32.452   5.932
 4593ETHY    C1 4513  12.259  32.751   5.544
 4594ETHY    C1 4514  11.993  33.089   5.230
 4595ETHY    C1 4515  11.677  33.462   4.993
 4596AUSL   AUS 4516  13.056  30.897   7.093
 4597AUSL   AUS 4517  12.640  30.966   7.237
 4598AUL    AUL 4518  12.753  30.682   7.011
 4599THSLK    S 4519  12.456  30.816   7.128
 4600ETHY    C1 4520  12.084  30.555   7.085
 4601ETHY    C1 4521  11.685  30.217   6.958
 4602ETHY    C1 4522  11.350  29.858   6.753
 4603ETHY    C1 4523  11.088  29.484   6.478
 4604ETHY    C1 4524  10.901  29.101   6.142
 4605THSLK    S 4525  13.016  30.638   7.019
 4606ETHY    C1 4526  12.859  30.232   6.885
 4607ETHY    C1 4527  12.744  29.752   6.671
 4608ETHY    C1 4528  12.717  29.293   6.404
 4609ETHY    C1 4529  12.777  28.862   6.094
 4610ETHY    C1 4530  12.921  28.467   5.751
 4611AUSL   AUS 4531  13.208  30.803   7.338
 4612AUSL   AUS 4532  13.321  31.060   6.992
 4613AUL    AUL 4533  13.359  30.682   7.011
 4614THSLK    S 4534  13.167  30.546   7.262
 4615ETHY    C1 4535  13.058  30.108   7.195
 4616ETHY    C1 4536  13.015  29.582   7.086
 4617ETHY    C1 4537  13.071  29.071   6.951
 4618ETHY    C1 4538  13.224  28.583   6.798
 4619ETHY    C1 4539  13.468  28.129   6.629
 4620THSLK    S 4540  13.441  30.870   6.853
 4621ETHY    C1 4541  13.510  30.484   6.621
 4622ETHY    C1 4542  13.652  30.076   6.300
 4623ETHY    C1 4543  13.859  29.740   5.942
 4624ETHY    C1 4544  14.125  29.483   5.559
 4625ETHY    C1 4545  14.445  29.305   5.158
 4626AUC    AUC 4546   2.937  24.842   7.502
 4627AUC    AUC 4547   3.183  24.842   7.350
 4628AUC    AUC 4548   3.183  24.842   7.653
 4629AUC    AUC 4549   2.692  24.842   7.350
 4630AUC    AUC 4550   2.692  24.842   7.653
 4631AUC    AUC 4551   2.785  25.087   7.502
 4632AUC    AUC 4552   3.089  25.087   7.502
 4633AUC    AUC 4553   2.785  24.596   7.502
 4634AUC    AUC 4554   3.089  24.596   7.502
 4635AUC    AUC 4555   2.937  24.690   7.747
 4636AUC    AUC 4556   2.937  24.993   7.747
 4637AUC    AUC 4557   2.937  24.690   7.256
 4638AUC    AUC 4558   2.937  24.993   7.256
 4639AUC    AUC 4559   3.428  24.842   7.198
 4640AUC    AUC 4560   3.428  24.842   7.502
 4641AUC    AUC 4561   3.428  24.842   7.805
 4642AUC    AUC 4562   2.446  24.842   7.198
 4643AUC    AUC 4563   2.446  24.842   7.502
 4644AUC    AUC 4564   2.446  24.842   7.805
 4645AUC    AUC 4565   2.634  25.332   7.502
 4646AUC    AUC 4566   2.937  25.332   7.502
 4647AUC    AUC 4567   3.240  25.332   7.502
 4648AUC    AUC 4568   2.634  24.351   7.502
 4649AUC    AUC 4569   2.937  24.351   7.502
 4650AUC    AUC 4570   3.240  24.351   7.502
 4651AUC    AUC 4571   2.937  24.538   7.992
 4652AUC    AUC 4572   2.937  24.842   7.992
 4653AUC    AUC 4573   2.937  25.145   7.992
 4654AUC    AUC 4574   2.937  24.538   7.011
 4655AUC    AUC 4575   2.937  24.842   7.011
 4656AUC    AUC 4576   2.937  25.145   7.011
 4657AUC    AUC 4577   3.183  24.690   7.899
 4658AUC    AUC 4578   3.183  24.993   7.899
 4659AUC    AUC 4579   3.183  24.690   7.105
 4660AUC    AUC 4580   3.183  24.993   7.105
 4661AUC    AUC 4581   2.692  24.690   7.899
 4662AUC    AUC 4582   2.692  24.993   7.899
 4663AUC    AUC 4583   2.692  24.690   7.105
 4664AUC    AUC 4584   2.692  24.993   7.105
 4665AUC    AUC 4585   3.334  25.087   7.350
 4666AUC    AUC 4586   3.334  25.087   7.653
 4667AUC    AUC 4587   2.540  25.087   7.350
 4668AUC    AUC 4588   2.540  25.087   7.653
 4669AUC    AUC 4589   3.334  24.596   7.350
 4670AUC    AUC 4590   3.334  24.596   7.653
 4671AUC    AUC 4591   2.540  24.596   7.350
 4672AUC    AUC 4592   2.540  24.596   7.653
 4673AUC    AUC 4593   2.785  25.239   7.747
 4674AUC    AUC 4594   3.089  25.239   7.747
 4675AUC    AUC 4595   2.785  24.444   7.747
 4676AUC    AUC 4596   3.089  24.444   7.747
 4677AUC    AUC 4597   2.785  25.239   7.256
 4678AUC    AUC 4598   3.089  25.239   7.256
 4679AUC    AUC 4599   2.785  24.444   7.256
 4680AUC    AUC 4600   3.089  24.444   7.256
 4681AUSL   AUS 4601   3.346  24.842   8.082
 4682AUSL   AUS 4602   3.202  24.425   8.012
 4683AUL    AUL 4603   3.428  24.538   8.296
 4684THSLK    S 4604   3.316  24.237   8.156
 4685ETHY    C1 4605   3.382  23.852   8.391
 4686ETHY    C1 4606   3.525  23.444   8.710
 4687ETHY    C1 4607   3.734  23.108   9.066
 4688ETHY    C1 4608   4.000  22.850   9.450
 4689ETHY    C1 4609   4.316  22.674   9.855
 4690THSLK    S 4610   3.442  24.792   8.326
 4691ETHY    C1 4611   3.658  24.606   8.681
 4692ETHY    C1 4612   3.933  24.471   9.124
 4693ETHY    C1 4613   4.214  24.441   9.575
 4694ETHY    C1 4614   4.492  24.510  10.025
 4695ETHY    C1 4615   4.761  24.678  10.466
 4696AUSL   AUS 4616   3.101  24.690   8.175
 4697AUSL   AUS 4617   2.774  24.993   8.175
 4698AUL    AUL 4618   2.937  24.842   8.483
 4699THSLK    S 4619   3.179  24.637   8.417
 4700ETHY    C1 4620   3.256  24.387   8.790
 4701ETHY    C1 4621   3.372  24.170   9.269
 4702ETHY    C1 4622   3.509  24.054   9.769
 4703ETHY    C1 4623   3.659  24.036  10.281
 4704ETHY    C1 4624   3.818  24.117  10.794
 4705THSLK    S 4625   2.687  24.950   8.431
 4706ETHY    C1 4626   2.605  24.838   8.864
 4707ETHY    C1 4627   2.491  24.792   9.388
 4708ETHY    C1 4628   2.359  24.850   9.901
 4709ETHY    C1 4629   2.208  25.003  10.389
 4710ETHY    C1 4630   2.042  25.247  10.844
 4711AUSL   AUS 4631   3.101  24.993   8.175
 4712AUSL   AUS 4632   3.447  25.106   7.918
 4713AUL    AUL 4633   3.428  25.145   8.296
 4714THSLK    S 4634   3.188  25.047   8.414
 4715ETHY    C1 4635   3.269  25.298   8.786
 4716ETHY    C1 4636   3.383  25.514   9.265
 4717ETHY    C1 4637   3.516  25.630   9.767
 4718ETHY    C1 4638   3.666  25.648  10.279
 4719ETHY    C1 4639   3.832  25.568  10.789
 4720THSLK    S 4640   3.621  25.208   8.080
 4721ETHY    C1 4641   3.985  25.218   8.354
 4722ETHY    C1 4642   4.401  25.320   8.680
 4723ETHY    C1 4643   4.781  25.519   8.995
 4724ETHY    C1 4644   5.116  25.806   9.296
 4725ETHY    C1 4645   5.397  26.174   9.577
 4726AUSL   AUS 4646   3.346  24.842   6.922
 4727AUSL   AUS 4647   3.202  25.258   6.992
 4728AUL    AUL 4648   3.428  25.145   6.707
 4729THSLK    S 4649   3.449  24.792   6.681
 4730ETHY    C1 4650   3.670  24.606   6.329
 4731ETHY    C1 4651   3.943  24.471   5.885
 4732ETHY    C1 4652   4.221  24.441   5.432
 4733ETHY    C1 4653   4.499  24.510   4.982
 4734ETHY    C1 4654   4.773  24.678   4.545
 4735THSLK    S 4655   3.380  25.373   6.825
 4736ETHY    C1 4656   3.668  25.478   6.488
 4737ETHY    C1 4657   3.968  25.682   6.090
 4738ETHY    C1 4658   4.211  25.970   5.714
 4739ETHY    C1 4659   4.395  26.334   5.371
 4740ETHY    C1 4660   4.519  26.765   5.065
 4741AUSL   AUS 4661   3.101  24.690   6.828
 4742AUSL   AUS 4662   3.447  24.577   7.085
 4743AUL    AUL 4663   3.428  24.538   6.707
 4744THSLK    S 4664   3.584  24.385   6.944
 4745ETHY    C1 4665   3.792  24.042   6.729
 4746ETHY    C1 4666   4.093  23.700   6.442
 4747ETHY    C1 4667   4.444  23.447   6.133
 4748ETHY    C1 4668   4.838  23.285   5.812
 4749ETHY    C1 4669   5.267  23.214   5.486
 4750THSLK    S 4670   3.188  24.636   6.590
 4751ETHY    C1 4671   3.269  24.385   6.217
 4752ETHY    C1 4672   3.383  24.169   5.738
 4753ETHY    C1 4673   3.516  24.053   5.236
 4754ETHY    C1 4674   3.666  24.035   4.725
 4755ETHY    C1 4675   3.832  24.115   4.214
 4756AUSL   AUS 4676   3.101  24.993   6.828
 4757AUSL   AUS 4677   2.774  24.690   6.828
 4758AUL    AUL 4678   2.937  24.842   6.520
 4759THSLK    S 4679   2.679  24.636   6.592
 4760ETHY    C1 4680   2.542  24.388   6.235
 4761ETHY    C1 4681   2.382  24.174   5.767
 4762ETHY    C1 4682   2.235  24.059   5.269
 4763ETHY    C1 4683   2.108  24.040   4.751
 4764ETHY    C1 4684   2.003  24.116   4.224
 4765THSLK    S 4685   3.204  24.951   6.578
 4766ETHY    C1 4686   3.345  24.836   6.160
 4767ETHY    C1 4687   3.503  24.789   5.647
 4768ETHY    C1 4688   3.646  24.845   5.138
 4769ETHY    C1 4689   3.774  24.999   4.643
 4770ETHY    C1 4690   3.885  25.247   4.174
 4771AUSL   AUS 4691   2.528  24.842   8.082
 4772AUSL   AUS 4692   2.672  25.258   8.012
 4773AUL    AUL 4693   2.446  25.145   8.296
 4774THSLK    S 4694   2.425  24.792   8.322
 4775ETHY    C1 4695   2.204  24.606   8.674
 4776ETHY    C1 4696   1.931  24.471   9.118
 4777ETHY    C1 4697   1.654  24.441   9.571
 4778ETHY    C1 4698   1.376  24.510  10.021
 4779ETHY    C1 4699   1.101  24.678  10.458
 4780THSLK    S 4700   2.552  25.387   8.202
 4781ETHY    C1 4701   2.483  25.556   8.620
 4782ETHY    C1 4702   2.341  25.809   9.073
 4783ETHY    C1 4703   2.135  26.110   9.460
 4784ETHY    C1 4704   1.868  26.449   9.775
 4785ETHY    C1 4705   1.548  26.816  10.013
 4786AUSL   AUS 4706   2.774  24.690   8.175
 4787AUSL   AUS 4707   2.427  24.577   7.918
 4788AUL    AUL 4708   2.446  24.538   8.296
 4789THSLK    S 4709   2.249  24.413   8.029
 4790ETHY    C1 4710   1.881  24.160   8.125
 4791ETHY    C1 4711   1.466  23.881   8.323
 4792ETHY    C1 4712   1.088  23.641   8.611
 4793ETHY    C1 4713   0.754  23.445   8.978
 4794ETHY    C1 4714   0.468  23.299   9.415
 4795THSLK    S 4715   2.671  24.638   8.410
 4796ETHY    C1 4716   2.529  24.391   8.766
 4797ETHY    C1 4717   2.371  24.176   9.233
 4798ETHY    C1 4718   2.228  24.060   9.733
 4799ETHY    C1 4719   2.101  24.042  10.250
 4800ETHY    C1 4720   1.989  24.120  10.775
 4801AUSL   AUS 4721   2.528  24.842   6.922
 4802AUSL   AUS 4722   2.672  24.425   6.992
 4803AUL    AUL 4723   2.446  24.538   6.707
 4804THSLK    S 4724   2.433  24.792   6.677
 4805ETHY    C1 4725   2.216  24.606   6.322
 4806ETHY    C1 4726   1.941  24.471   5.879
 4807ETHY    C1 4727   1.660  24.441   5.429
 4808ETHY    C1 4728   1.382  24.510   4.978
 4809ETHY    C1 4729   1.114  24.678   4.537
 4810THSLK    S 4730   2.500  24.251   6.872
 4811ETHY    C1 4731   2.215  23.930   6.717
 4812ETHY    C1 4732   1.914  23.571   6.453
 4813ETHY    C1 4733   1.669  23.248   6.109
 4814ETHY    C1 4734   1.485  22.965   5.696
 4815ETHY    C1 4735   1.366  22.725   5.223
 4816AUSL   AUS 4736   2.774  24.993   6.828
 4817AUSL   AUS 4737   2.427  25.106   7.085
 4818AUL    AUL 4738   2.446  25.145   6.707
 4819THSLK    S 4739   2.296  25.236   6.893
 4820ETHY    C1 4740   2.090  25.336   6.499
 4821ETHY    C1 4741   1.788  25.500   6.085
 4822ETHY    C1 4742   1.434  25.712   5.748
 4823ETHY    C1 4743   1.041  25.966   5.494
 4824ETHY    C1 4744   0.616  26.259   5.324
 4825THSLK    S 4745   2.695  24.952   6.571
 4826ETHY    C1 4746   2.618  24.840   6.136
 4827ETHY    C1 4747   2.502  24.795   5.612
 4828ETHY    C1 4748   2.366  24.851   5.101
 4829ETHY    C1 4749   2.216  25.005   4.613
 4830ETHY    C1 4750   2.056  25.250   4.156
 4831AUSL   AUS 4751   3.517  25.251   7.502
 4832AUSL   AUS 4752   3.447  25.106   7.085
 4833AUL    AUL 4753   3.731  25.332   7.198
 4834THSLK    S 4754   3.626  25.209   6.930
 4835ETHY    C1 4755   3.993  25.220   6.659
 4836ETHY    C1 4756   4.408  25.322   6.332
 4837ETHY    C1 4757   4.786  25.520   6.014
 4838ETHY    C1 4758   5.120  25.807   5.713
 4839ETHY    C1 4759   5.406  26.177   5.438
 4840THSLK    S 4760   3.785  25.307   7.506
 4841ETHY    C1 4761   4.237  25.368   7.508
 4842ETHY    C1 4762   4.751  25.527   7.507
 4843ETHY    C1 4763   5.219  25.781   7.505
 4844ETHY    C1 4764   5.632  26.118   7.506
 4845ETHY    C1 4765   5.984  26.532   7.509
 4846AUSL   AUS 4766   3.611  25.005   7.350
 4847AUSL   AUS 4767   3.611  24.678   7.653
 4848AUL    AUL 4768   3.919  24.842   7.502
 4849THSLK    S 4769   3.870  25.048   7.348
 4850ETHY    C1 4770   4.315  24.978   7.278
 4851ETHY    C1 4771   4.846  24.985   7.190
 4852ETHY    C1 4772   5.359  25.095   7.101
 4853ETHY    C1 4773   5.844  25.301   7.017
 4854ETHY    C1 4774   6.291  25.598   6.940
 4855THSLK    S 4775   3.843  24.540   7.662
 4856ETHY    C1 4776   4.189  24.251   7.728
 4857ETHY    C1 4777   4.650  23.984   7.809
 4858ETHY    C1 4778   5.147  23.815   7.892
 4859ETHY    C1 4779   5.668  23.743   7.980
 4860ETHY    C1 4780   6.203  23.769   8.071
 4861AUSL   AUS 4781   3.611  25.005   7.653
 4862AUSL   AUS 4782   3.354  25.352   7.766
 4863AUL    AUL 4783   3.731  25.332   7.805
 4864THSLK    S 4784   3.537  25.471   7.926
 4865ETHY    C1 4785   3.909  25.626   8.139
 4866ETHY    C1 4786   4.309  25.891   8.385
 4867ETHY    C1 4787   4.643  26.235   8.615
 4868ETHY    C1 4788   4.905  26.648   8.827
 4869ETHY    C1 4789   5.092  27.120   9.019
 4870THSLK    S 4790   3.869  25.048   7.664
 4871ETHY    C1 4791   4.313  24.978   7.738
 4872ETHY    C1 4792   4.844  24.985   7.825
 4873ETHY    C1 4793   5.358  25.095   7.910
 4874ETHY    C1 4794   5.842  25.301   7.994
 4875ETHY    C1 4795   6.289  25.598   8.078
 4876AUSL   AUS 4796   2.357  25.251   7.502
 4877AUSL   AUS 4797   2.427  25.106   7.918
 4878AUL    AUL 4798   2.143  25.332   7.805
 4879THSLK    S 4799   2.291  25.229   8.109
 4880ETHY    C1 4800   2.082  25.325   8.503
 4881ETHY    C1 4801   1.781  25.491   8.917
 4882ETHY    C1 4802   1.430  25.706   9.254
 4883ETHY    C1 4803   1.036  25.960   9.509
 4884ETHY    C1 4804   0.607  26.247   9.678
 4885THSLK    S 4805   2.141  25.391   7.506
 4886ETHY    C1 4806   1.885  25.769   7.508
 4887ETHY    C1 4807   1.512  26.157   7.507
 4888ETHY    C1 4808   1.076  26.463   7.505
 4889ETHY    C1 4809   0.590  26.681   7.506
 4890ETHY    C1 4810   0.063  26.811   7.509
 4891AUSL   AUS 4811   2.263  25.005   7.350
 4892AUSL   AUS 4812   2.521  25.352   7.237
 4893AUL    AUL 4813   2.143  25.332   7.198
 4894THSLK    S 4814   2.032  25.120   7.303
 4895ETHY    C1 4815   1.685  25.308   7.075
 4896ETHY    C1 4816   1.225  25.500   6.872
 4897ETHY    C1 4817   0.727  25.650   6.758
 4898ETHY    C1 4818   0.206  25.760   6.733
 4899ETHY    C1 4819  -0.328  25.830   6.796
 4900THSLK    S 4820   2.405  25.517   7.058
 4901ETHY    C1 4821   2.289  25.833   6.750
 4902ETHY    C1 4822   2.075  26.211   6.432
 4903ETHY    C1 4823   1.783  26.580   6.183
 4904ETHY    C1 4824   1.425  26.933   6.008
 4905ETHY    C1 4825   1.007  27.266   5.909
 4906AUSL   AUS 4826   2.263  25.005   7.653
 4907AUSL   AUS 4827   2.263  24.678   7.350
 4908AUL    AUL 4828   1.955  24.842   7.502
 4909THSLK    S 4829   2.005  24.604   7.390
 4910ETHY    C1 4830   1.561  24.569   7.486
 4911ETHY    C1 4831   1.030  24.488   7.518
 4912ETHY    C1 4832   0.516  24.363   7.458
 4913ETHY    C1 4833   0.032  24.195   7.311
 4914ETHY    C1 4834  -0.415  23.988   7.083
 4915THSLK    S 4835   2.030  25.112   7.704
 4916ETHY    C1 4836   1.683  25.296   7.935
 4917ETHY    C1 4837   1.223  25.489   8.137
 4918ETHY    C1 4838   0.726  25.644   8.249
 4919ETHY    C1 4839   0.205  25.754   8.274
 4920ETHY    C1 4840  -0.331  25.817   8.213
 4921AUSL   AUS 4841   3.517  24.432   7.502
 4922AUSL   AUS 4842   3.447  24.577   7.918
 4923AUL    AUL 4843   3.731  24.351   7.805
 4924THSLK    S 4844   3.733  24.292   7.506
 4925ETHY    C1 4845   3.989  23.914   7.508
 4926ETHY    C1 4846   4.362  23.526   7.507
 4927ETHY    C1 4847   4.798  23.220   7.505
 4928ETHY    C1 4848   5.284  23.002   7.506
 4929ETHY    C1 4849   5.811  22.872   7.509
 4930THSLK    S 4850   3.579  24.387   8.066
 4931ETHY    C1 4851   3.784  24.044   8.285
 4932ETHY    C1 4852   4.086  23.702   8.570
 4933ETHY    C1 4853   4.440  23.449   8.877
 4934ETHY    C1 4854   4.834  23.286   9.198
 4935ETHY    C1 4855   5.258  23.216   9.529
 4936AUSL   AUS 4856   3.611  24.678   7.350
 4937AUSL   AUS 4857   3.354  24.331   7.237
 4938AUL    AUL 4858   3.731  24.351   7.198
 4939THSLK    S 4859   3.844  24.540   7.350
 4940ETHY    C1 4860   4.192  24.251   7.289
 4941ETHY    C1 4861   4.651  23.984   7.206
 4942ETHY    C1 4862   5.148  23.815   7.118
 4943ETHY    C1 4863   5.670  23.743   7.031
 4944ETHY    C1 4864   6.205  23.769   6.947
 4945THSLK    S 4865   3.473  24.141   7.104
 4946ETHY    C1 4866   3.590  23.724   6.963
 4947ETHY    C1 4867   3.804  23.270   6.765
 4948ETHY    C1 4868   4.094  22.884   6.543
 4949ETHY    C1 4869   4.453  22.569   6.306
 4950ETHY    C1 4870   4.873  22.330   6.058
 4951AUSL   AUS 4871   2.357  24.432   7.502
 4952AUSL   AUS 4872   2.427  24.577   7.085
 4953AUL    AUL 4873   2.143  24.351   7.198
 4954THSLK    S 4874   2.254  24.406   6.973
 4955ETHY    C1 4875   1.889  24.149   6.877
 4956ETHY    C1 4876   1.473  23.872   6.679
 4957ETHY    C1 4877   1.093  23.635   6.392
 4958ETHY    C1 4878   0.759  23.439   6.025
 4959ETHY    C1 4879   0.477  23.287   5.587
 4960THSLK    S 4880   2.089  24.376   7.506
 4961ETHY    C1 4881   1.637  24.315   7.508
 4962ETHY    C1 4882   1.123  24.156   7.507
 4963ETHY    C1 4883   0.655  23.902   7.505
 4964ETHY    C1 4884   0.242  23.565   7.506
 4965ETHY    C1 4885  -0.110  23.151   7.509
 4966AUSL   AUS 4886   2.263  24.678   7.653
 4967AUSL   AUS 4887   2.521  24.331   7.766
 4968AUL    AUL 4888   2.143  24.351   7.805
 4969THSLK    S 4889   2.333  24.187   7.880
 4970ETHY    C1 4890   1.959  23.930   7.926
 4971ETHY    C1 4891   1.561  23.590   8.052
 4972ETHY    C1 4892   1.228  23.228   8.255
 4973ETHY    C1 4893   0.966  22.854   8.529
 4974ETHY    C1 4894   0.775  22.476   8.870
 4975THSLK    S 4895   2.004  24.611   7.617
 4976ETHY    C1 4896   1.559  24.581   7.524
 4977ETHY    C1 4897   1.028  24.499   7.490
 4978ETHY    C1 4898   0.515  24.370   7.549
 4979ETHY    C1 4899   0.031  24.202   7.696
 4980ETHY    C1 4900  -0.417  24.000   7.928
 4981AUSL   AUS 4901   2.937  25.422   7.911
 4982AUSL   AUS 4902   2.521  25.352   7.766
 4983AUL    AUL 4903   2.634  25.636   7.992
 4984THSLK    S 4904   2.401  25.511   7.950
 4985ETHY    C1 4905   2.284  25.823   8.261
 4986ETHY    C1 4906   2.070  26.203   8.578
 4987ETHY    C1 4907   1.780  26.574   8.824
 4988ETHY    C1 4908   1.422  26.928   9.000
 4989ETHY    C1 4909   1.001  27.256   9.102
 4990THSLK    S 4910   2.977  25.648   8.035
 4991ETHY    C1 4911   3.134  25.950   8.339
 4992ETHY    C1 4912   3.249  26.356   8.672
 4993ETHY    C1 4913   3.276  26.800   8.964
 4994ETHY    C1 4914   3.216  27.269   9.211
 4995ETHY    C1 4915   3.072  27.753   9.410
 4996AUSL   AUS 4916   2.785  25.515   7.665
 4997AUSL   AUS 4917   3.089  25.515   7.338
 4998AUL    AUL 4918   2.937  25.823   7.502
 4999THSLK    S 4919   2.826  25.763   7.774
 5000ETHY    C1 4920   2.935  26.173   7.942
 5001ETHY    C1 4921   2.979  26.680   8.118
 5002ETHY    C1 4922   2.922  27.188   8.265
 5003ETHY    C1 4923   2.769  27.685   8.383
 5004ETHY    C1 4924   2.526  28.162   8.472
 5005THSLK    S 4925   3.142  25.750   7.241
 5006ETHY    C1 4926   3.387  26.106   7.094
 5007ETHY    C1 4927   3.600  26.571   6.927
 5008ETHY    C1 4928   3.715  27.069   6.779
 5009ETHY    C1 4929   3.735  27.588   6.655
 5010ETHY    C1 4930   3.660  28.117   6.558
 5011AUSL   AUS 4931   3.089  25.515   7.665
 5012AUSL   AUS 4932   3.202  25.258   8.012
 5013AUL    AUL 4933   3.240  25.636   7.992
 5014THSLK    S 4934   3.374  25.371   8.184
 5015ETHY    C1 4935   3.659  25.474   8.524
 5016ETHY    C1 4936   3.961  25.678   8.921
 5017ETHY    C1 4937   4.206  25.968   9.294
 5018ETHY    C1 4938   4.390  26.331   9.638
 5019ETHY    C1 4939   4.509  26.761   9.948
 5020THSLK    S 4940   3.140  25.749   7.771
 5021ETHY    C1 4941   3.384  26.103   7.922
 5022ETHY    C1 4942   3.597  26.569   8.087
 5023ETHY    C1 4943   3.713  27.068   8.231
 5024ETHY    C1 4944   3.732  27.586   8.356
 5025ETHY    C1 4945   3.657  28.114   8.458
 5026AUSL   AUS 4946   2.937  24.262   7.911
 5027AUSL   AUS 4947   3.354  24.331   7.766
 5028AUL    AUL 4948   3.240  24.047   7.992
 5029THSLK    S 4949   2.893  24.007   7.990
 5030ETHY    C1 4950   2.733  23.603   8.128
 5031ETHY    C1 4951   2.619  23.122   8.341
 5032ETHY    C1 4952   2.594  22.661   8.605
 5033ETHY    C1 4953   2.653  22.231   8.915
 5034ETHY    C1 4954   2.794  21.839   9.263
 5035THSLK    S 4955   3.469  24.142   7.908
 5036ETHY    C1 4956   3.585  23.726   8.052
 5037ETHY    C1 4957   3.799  23.273   8.248
 5038ETHY    C1 4958   4.091  22.885   8.467
 5039ETHY    C1 4959   4.450  22.570   8.705
 5040ETHY    C1 4960   4.867  22.333   8.958
 5041AUSL   AUS 4961   2.785  24.168   7.665
 5042AUSL   AUS 4962   2.672  24.425   8.012
 5043AUL    AUL 4963   2.634  24.047   7.992
 5044THSLK    S 4964   2.732  23.928   7.745
 5045ETHY    C1 4965   2.487  23.547   7.801
 5046ETHY    C1 4966   2.274  23.062   7.897
 5047ETHY    C1 4967   2.159  22.559   8.025
 5048ETHY    C1 4968   2.140  22.050   8.186
 5049ETHY    C1 4969   2.214  21.547   8.374
 5050THSLK    S 4970   2.494  24.257   8.133
 5051ETHY    C1 4971   2.206  23.939   8.289
 5052ETHY    C1 4972   1.906  23.579   8.552
 5053ETHY    C1 4973   1.663  23.253   8.896
 5054ETHY    C1 4974   1.479  22.970   9.309
 5055ETHY    C1 4975   1.355  22.736   9.783
 5056AUSL   AUS 4976   3.089  24.168   7.665
 5057AUSL   AUS 4977   2.785  24.168   7.338
 5058AUL    AUL 4978   2.937  23.860   7.502
 5059THSLK    S 4979   2.734  23.925   7.266
 5060ETHY    C1 4980   2.490  23.543   7.215
 5061ETHY    C1 4981   2.277  23.059   7.117
 5062ETHY    C1 4982   2.161  22.557   6.984
 5063ETHY    C1 4983   2.142  22.048   6.825
 5064ETHY    C1 4984   2.218  21.543   6.642
 5065THSLK    S 4985   3.046  23.912   7.749
 5066ETHY    C1 4986   2.936  23.476   7.821
 5067ETHY    C1 4987   2.893  22.950   7.928
 5068ETHY    C1 4988   2.950  22.438   8.059
 5069ETHY    C1 4989   3.103  21.950   8.213
 5070ETHY    C1 4990   3.345  21.497   8.388
 5071AUSL   AUS 4991   2.937  25.422   7.093
 5072AUSL   AUS 4992   3.354  25.352   7.237
 5073AUL    AUL 4993   3.240  25.636   7.011
 5074THSLK    S 4994   2.981  25.652   6.975
 5075ETHY    C1 4995   3.141  25.956   6.674
 5076ETHY    C1 4996   3.255  26.361   6.339
 5077ETHY    C1 4997   3.280  26.804   6.045
 5078ETHY    C1 4998   3.221  27.273   5.798
 5079ETHY    C1 4999   3.080  27.760   5.604
 5080THSLK    S 5000   3.541  25.473   7.085
 5081ETHY    C1 5001   3.915  25.629   6.876
 5082ETHY    C1 5002   4.313  25.893   6.629
 5083ETHY    C1 5003   4.646  26.237   6.395
 5084ETHY    C1 5004   4.908  26.649   6.184
 5085ETHY    C1 5005   5.099  27.123   5.998
 5086AUSL   AUS 5006   2.785  25.515   7.338
 5087AUSL   AUS 5007   2.672  25.258   6.992
 5088AUL    AUL 5008   2.634  25.636   7.011
 5089THSLK    S 5009   2.828  25.766   7.237
 5090ETHY    C1 5010   2.938  26.177   7.074
 5091ETHY    C1 5011   2.981  26.683   6.896
 5092ETHY    C1 5012   2.924  27.191   6.745
 5093ETHY    C1 5013   2.771  27.688   6.627
 5094ETHY    C1 5014   2.529  28.167   6.545
 5095THSLK    S 5015   2.558  25.393   6.802
 5096ETHY    C1 5016   2.492  25.565   6.385
 5097ETHY    C1 5017   2.349  25.817   5.932
 5098ETHY    C1 5018   2.140  26.116   5.544
 5099ETHY    C1 5019   1.874  26.454   5.230
 5100ETHY    C1 5020   1.558  26.827   4.993
 5101AUSL   AUS 5021   2.937  24.262   7.093
 5102AUSL   AUS 5022   2.521  24.331   7.237
 5103AUL    AUL 5023   2.634  24.047   7.011
 5104THSLK    S 5024   2.337  24.181   7.128
 5105ETHY    C1 5025   1.965  23.920   7.085
 5106ETHY    C1 5026   1.566  23.582   6.958
 5107ETHY    C1 5027   1.231  23.223   6.753
 5108ETHY    C1 5028   0.969  22.849   6.478
 5109ETHY    C1 5029   0.782  22.466   6.142
 5110THSLK    S 5030   2.897  24.003   7.019
 5111ETHY    C1 5031   2.740  23.597   6.885
 5112ETHY    C1 5032   2.625  23.117   6.671
 5113ETHY    C1 5033   2.598  22.658   6.404
 5114ETHY    C1 5034   2.658  22.227   6.094
 5115ETHY    C1 5035   2.802  21.832   5.751
 5116AUSL   AUS 5036   3.089  24.168   7.338
 5117AUSL   AUS 5037   3.202  24.425   6.992
 5118AUL    AUL 5038   3.240  24.047   7.011
 5119THSLK    S 5039   3.048  23.911   7.262
 5120ETHY    C1 5040   2.939  23.473   7.195
 5121ETHY    C1 5041   2.896  22.947   7.086
 5122ETHY    C1 5042   2.952  22.436   6.951
 5123ETHY    C1 5043   3.105  21.948   6.798
 5124ETHY    C1 5044   3.349  21.494   6.629
 5125THSLK    S 5045   3.322  24.235   6.853
 5126ETHY    C1 5046   3.391  23.849   6.621
 5127ETHY    C1 5047   3.533  23.441   6.300
 5128ETHY    C1 5048   3.740  23.105   5.942
 5129ETHY    C1 5049   4.006  22.848   5.559
 5130ETHY    C1 5050   4.326  22.670   5.158
 5131POPC   NC3 5051  14.401   5.902   9.453
 5131POPC   PO4 5052  14.429   5.905   9.153
 5131POPC   GL1 5053  14.400   5.853   8.853
 5131POPC   GL2 5054  14.455   5.973   8.853
 5131POPC   C1A 5055  14.427   5.855   8.553
 5131POPC   D2A 5056  14.379   5.871   8.253
 5131POPC   C3A 5057  14.426   5.835   7.953
 5131POPC   C4A 5058  14.445   5.835   7.653
 5131POPC   C1B 5059  14.454   6.112   8.553
 5131POPC   C2B 5060  14.389   6.121   8.253
 5131POPC   C3B 5061  14.422   6.075   7.953
 5131POPC   C4B 5062  14.468   6.108   7.653
 5132POPC   NC3 5063  26.834  22.131   9.453
 5132POPC   PO4 5064  26.848  22.194   9.153
 5132POPC   GL1 5065  26.808  22.182   8.853
 5132POPC   GL2 5066  26.711  22.032   8.853
 5132POPC   C1A 5067  26.824  22.149   8.553
 5132POPC   D2A 5068  26.857  22.156   8.253
 5132POPC   C3A 5069  26.778  22.155   7.953
 5132POPC   C4A 5070  26.771  22.205   7.653
 5132POPC   C1B 5071  26.695  21.926   8.553
 5132POPC   C2B 5072  26.616  21.933   8.253
 5132POPC   C3B 5073  26.701  21.994   7.953
 5132POPC   C4B 5074  26.657  21.966   7.653
 5133POPC   NC3 5075  12.061  34.605   9.453
 5133POPC   PO4 5076  12.075  34.528   9.153
 5133POPC   GL1 5077  12.062  34.538   8.853
 5133POPC   GL2 5078  12.007  34.690   8.853
 5133POPC   C1A 5079  12.068  34.540   8.553
 5133POPC   D2A 5080  12.103  34.593   8.253
 5133POPC   C3A 5081  12.069  34.575   7.953
 5133POPC   C4A 5082  12.059  34.614   7.653
 5133POPC   C1B 5083  12.038  34.823   8.553
 5133POPC   C2B 5084  11.962  34.810   8.253
 5133POPC   C3B 5085  12.027  34.855   7.953
 5133POPC   C4B 5086  11.974  34.785   7.653
 5134POPC   NC3 5087  17.468  14.440   9.453
 5134POPC   PO4 5088  17.469  14.354   9.153
 5134POPC   GL1 5089  17.531  14.412   8.853
 5134POPC   GL2 5090  17.350  14.435   8.853
 5134POPC   C1A 5091  17.486  14.356   8.553
 5134POPC   D2A 5092  17.550  14.384   8.253
 5134POPC   C3A 5093  17.503  14.420   7.953
 5134POPC   C4A 5094  17.487  14.386   7.653
 5134POPC   C1B 5095  17.273  14.388   8.553
 5134POPC   C2B 5096  17.247  14.360   8.253
 5134POPC   C3B 5097  17.221  14.377   7.953
 5134POPC   C4B 5098  17.256  14.394   7.653
 5135POPC   NC3 5099  42.325  31.520   9.453
 5135POPC   PO4 5100  42.375  31.447   9.153
 5135POPC   GL1 5101  42.382  31.436   8.853
 5135POPC   GL2 5102  42.414  31.454   8.853
 5135POPC   C1A 5103  42.381  31.518   8.553
 5135POPC   D2A 5104  42.306  31.505   8.253
 5135POPC   C3A 5105  42.333  31.430   7.953
 5135POPC   C4A 5106  42.353  31.516   7.653
 5135POPC   C1B 5107  42.566  31.338   8.553
 5135POPC   C2B 5108  42.528  31.378   8.253
 5135POPC   C3B 5109  42.524  31.350   7.953
 5135POPC   C4B 5110  42.580  31.362   7.653
 5136POPC   NC3 5111  11.264  42.342   9.453
 5136POPC   PO4 5112  11.343  42.359   9.153
 5136POPC   GL1 5113  11.261  42.303   8.853
 5136POPC   GL2 5114  11.350  42.261   8.853
 5136POPC   C1A 5115  11.291  42.360   8.553
 5136POPC   D2A 5116  11.347  42.298   8.253
 5136POPC   C3A 5117  11.315  42.332   7.953
 5136POPC   C4A 5118  11.309  42.380   7.653
 5136POPC   C1B 5119  11.401  42.063   8.553
 5136POPC   C2B 5120  11.319  42.105   8.253
 5136POPC   C3B 5121  11.321  42.097   7.953
 5136POPC   C4B 5122  11.334  42.089   7.653
 5137POPC   NC3 5123  21.374  22.167   9.453
 5137POPC   PO4 5124  21.430  22.135   9.153
 5137POPC   GL1 5125  21.355  22.182   8.853
 5137POPC   GL2 5126  21.519  22.247   8.853
 5137POPC   C1A 5127  21.370  22.151   8.553
 5137POPC   D2A 5128  21.351  22.121   8.253
 5137POPC   C3A 5129  21.368  22.116   7.953
 5137POPC   C4A 5130  21.389  22.122   7.653
 5137POPC   C1B 5131  21.587  22.286   8.553
 5137POPC   C2B 5132  21.622  22.297   8.253
 5137POPC   C3B 5133  21.565  22.247   7.953
 5137POPC   C4B 5134  21.586  22.239   7.653
 5138POPC   NC3 5135   3.512  15.202   9.453
 5138POPC   PO4 5136   3.587  15.206   9.153
 5138POPC   GL1 5137   3.571  15.219   8.853
 5138POPC   GL2 5138   3.520  15.043   8.853
 5138POPC   C1A 5139   3.501  15.173   8.553
 5138POPC   D2A 5140   3.494  15.229   8.253
 5138POPC   C3A 5141   3.519  15.168   7.953
 5138POPC   C4A 5142   3.493  15.150   7.653
 5138POPC   C1B 5143   3.569  14.950   8.553
 5138POPC   C2B 5144   3.606  14.947   8.253
 5138POPC   C3B 5145   3.528  14.896   7.953
 5138POPC   C4B 5146   3.563  14.945   7.653
 5139POPC   NC3 5147  21.351  20.643   9.453
 5139POPC   PO4 5148  21.384  20.597   9.153
 5139POPC   GL1 5149  21.397  20.647   8.853
 5139POPC   GL2 5150  21.253  20.586   8.853
 5139POPC   C1A 5151  21.431  20.608   8.553
 5139POPC   D2A 5152  21.379  20.624   8.253
 5139POPC   C3A 5153  21.379  20.609   7.953
 5139POPC   C4A 5154  21.339  20.623   7.653
 5139POPC   C1B 5155  21.121  20.688   8.553
 5139POPC   C2B 5156  21.142  20.695   8.253
 5139POPC   C3B 5157  21.189  20.615   7.953
 5139POPC   C4B 5158  21.156  20.684   7.653
 5140POPC   NC3 5159  10.553  15.197   9.453
 5140POPC   PO4 5160  10.507  15.219   9.153
 5140POPC   GL1 5161  10.553  15.195   8.853
 5140POPC   GL2 5162  10.515  15.049   8.853
 5140POPC   C1A 5163  10.559  15.141   8.553
 5140POPC   D2A 5164  10.543  15.223   8.253
 5140POPC   C3A 5165  10.555  15.145   7.953
 5140POPC   C4A 5166  10.511  15.181   7.653
 5140POPC   C1B 5167  10.443  14.908   8.553
 5140POPC   C2B 5168  10.435  14.918   8.253
 5140POPC   C3B 5169  10.390  14.916   7.953
 5140POPC   C4B 5170  10.414  14.925   7.653
 5141POPC   NC3 5171   6.666  26.004   9.453
 5141POPC   PO4 5172   6.605  26.019   9.153
 5141POPC   GL1 5173   6.648  25.997   8.853
 5141POPC   GL2 5174   6.775  26.010   8.853
 5141POPC   C1A 5175   6.633  26.030   8.553
 5141POPC   D2A 5176   6.616  26.002   8.253
 5141POPC   C3A 5177   6.599  25.992   7.953
 5141POPC   C4A 5178   6.680  26.013   7.653
 5141POPC   C1B 5179   6.910  26.064   8.553
 5141POPC   C2B 5180   6.884  26.024   8.253
 5141POPC   C3B 5181   6.901  26.082   7.953
 5141POPC   C4B 5182   6.894  26.058   7.653
 5142POPC   NC3 5183  30.663  38.486   9.453
 5142POPC   PO4 5184  30.746  38.438   9.153
 5142POPC   GL1 5185  30.734  38.482   8.853
 5142POPC   GL2 5186  30.814  38.586   8.853
 5142POPC   C1A 5187  30.735  38.463   8.553
 5142POPC   D2A 5188  30.723  38.406   8.253
 5142POPC   C3A 5189  30.673  38.458   7.953
 5142POPC   C4A 5190  30.696  38.445   7.653
 5142POPC   C1B 5191  30.827  38.605   8.553
 5142POPC   C2B 5192  30.839  38.599   8.253
 5142POPC   C3B 5193  30.838  38.673   7.953
 5142POPC   C4B 5194  30.888  38.650   7.653
 5143POPC   NC3 5195  12.124  26.075   9.453
 5143POPC   PO4 5196  12.063  26.067   9.153
 5143POPC   GL1 5197  12.122  26.029   8.853
 5143POPC   GL2 5198  12.054  26.132   8.853
 5143POPC   C1A 5199  12.056  26.053   8.553
 5143POPC   D2A 5200  12.084  26.075   8.253
 5143POPC   C3A 5201  12.030  26.005   7.953
 5143POPC   C4A 5202  12.094  26.043   7.653
 5143POPC   C1B 5203  12.029  26.309   8.553
 5143POPC   C2B 5204  11.977  26.312   8.253
 5143POPC   C3B 5205  12.031  26.281   7.953
 5143POPC   C4B 5206  12.068  26.319   7.653
 5144POPC   NC3 5207   2.750  37.698   9.453
 5144POPC   PO4 5208   2.781  37.695   9.153
 5144POPC   GL1 5209   2.807  37.669   8.853
 5144POPC   GL2 5210   2.923  37.681   8.853
 5144POPC   C1A 5211   2.757  37.643   8.553
 5144POPC   D2A 5212   2.789  37.675   8.253
 5144POPC   C3A 5213   2.733  37.682   7.953
 5144POPC   C4A 5214   2.813  37.660   7.653
 5144POPC   C1B 5215   3.051  37.645   8.553
 5144POPC   C2B 5216   3.006  37.630   8.253
 5144POPC   C3B 5217   3.046  37.635   7.953
 5144POPC   C4B 5218   3.030  37.693   7.653
 5145POPC   NC3 5219  14.429   4.334   9.453
 5145POPC   PO4 5220  14.434   4.311   9.153
 5145POPC   GL1 5221  14.354   4.278   8.853
 5145POPC   GL2 5222  14.258   4.365   8.853
 5145POPC   C1A 5223  14.444   4.365   8.553
 5145POPC   D2A 5224  14.363   4.286   8.253
 5145POPC   C3A 5225  14.419   4.328   7.953
 5145POPC   C4A 5226  14.425   4.280   7.653
 5145POPC   C1B 5227  14.141   4.369   8.553
 5145POPC   C2B 5228  14.128   4.310   8.253
 5145POPC   C3B 5229  14.135   4.326   7.953
 5145POPC   C4B 5230  14.198   4.347   7.653
 5146POPC   NC3 5231  36.099  19.812   9.453
 5146POPC   PO4 5232  36.129  19.786   9.153
 5146POPC   GL1 5233  36.110  19.841   8.853
 5146POPC   GL2 5234  36.149  19.715   8.853
 5146POPC   C1A 5235  36.155  19.878   8.553
 5146POPC   D2A 5236  36.158  19.853   8.253
 5146POPC   C3A 5237  36.101  19.812   7.953
 5146POPC   C4A 5238  36.167  19.859   7.653
 5146POPC   C1B 5239  36.188  19.611   8.553
 5146POPC   C2B 5240  36.210  19.587   8.253
 5146POPC   C3B 5241  36.160  19.564   7.953
 5146POPC   C4B 5242  36.197  19.626   7.653
 5147POPC   NC3 5243  33.825   9.022   9.453
 5147POPC   PO4 5244  33.833   8.993   9.153
 5147POPC   GL1 5245  33.808   9.004   8.853
 5147POPC   GL2 5246  33.788   9.064   8.853
 5147POPC   C1A 5247  33.832   8.925   8.553
 5147POPC   D2A 5248  33.773   8.994   8.253
 5147POPC   C3A 5249  33.788   8.953   7.953
 5147POPC   C4A 5250  33.809   8.948   7.653
 5147POPC   C1B 5251  33.669   9.219   8.553
 5147POPC   C2B 5252  33.700   9.170   8.253
 5147POPC   C3B 5253  33.637   9.186   7.953
 5147POPC   C4B 5254  33.714   9.142   7.653
 5148POPC   NC3 5255  42.357   3.563   9.453
 5148POPC   PO4 5256  42.318   3.556   9.153
 5148POPC   GL1 5257  42.325   3.562   8.853
 5148POPC   GL2 5258  42.455   3.430   8.853
 5148POPC   C1A 5259  42.337   3.574   8.553
 5148POPC   D2A 5260  42.324   3.518   8.253
 5148POPC   C3A 5261  42.339   3.509   7.953
 5148POPC   C4A 5262  42.322   3.566   7.653
 5148POPC   C1B 5263  42.471   3.315   8.553
 5148POPC   C2B 5264  42.536   3.397   8.253
 5148POPC   C3B 5265  42.536   3.375   7.953
 5148POPC   C4B 5266  42.454   3.390   7.653
 5149POPC   NC3 5267  40.741   4.332   9.453
 5149POPC   PO4 5268  40.744   4.321   9.153
 5149POPC   GL1 5269  40.770   4.353   8.853
 5149POPC   GL2 5270  40.802   4.413   8.853
 5149POPC   C1A 5271  40.768   4.351   8.553
 5149POPC   D2A 5272  40.778   4.362   8.253
 5149POPC   C3A 5273  40.734   4.309   7.953
 5149POPC   C4A 5274  40.787   4.349   7.653
 5149POPC   C1B 5275  40.830   4.543   8.553
 5149POPC   C2B 5276  40.874   4.535   8.253
 5149POPC   C3B 5277  40.860   4.602   7.953
 5149POPC   C4B 5278  40.882   4.564   7.653
 5150POPC   NC3 5279  19.071  30.665   9.453
 5150POPC   PO4 5280  19.098  30.720   9.153
 5150POPC   GL1 5281  19.071  30.682   8.853
 5150POPC   GL2 5282  19.196  30.661   8.853
 5150POPC   C1A 5283  19.048  30.690   8.553
 5150POPC   D2A 5284  19.025  30.741   8.253
 5150POPC   C3A 5285  19.071  30.705   7.953
 5150POPC   C4A 5286  19.037  30.694   7.653
 5150POPC   C1B 5287  19.312  30.635   8.553
 5150POPC   C2B 5288  19.289  30.637   8.253
 5150POPC   C3B 5289  19.303  30.714   7.953
 5150POPC   C4B 5290  19.334  30.683   7.653
 5151POPC   NC3 5291  42.359  15.179   9.453
 5151POPC   PO4 5292  42.315  15.181   9.153
 5151POPC   GL1 5293  42.309  15.194   8.853
 5151POPC   GL2 5294  42.282  15.281   8.853
 5151POPC   C1A 5295  42.367  15.189   8.553
 5151POPC   D2A 5296  42.374  15.187   8.253
 5151POPC   C3A 5297  42.339  15.225   7.953
 5151POPC   C4A 5298  42.378  15.151   7.653
 5151POPC   C1B 5299  42.291  15.417   8.553
 5151POPC   C2B 5300  42.263  15.459   8.253
 5151POPC   C3B 5301  42.239  15.378   7.953
 5151POPC   C4B 5302  42.271  15.412   7.653
 5152POPC   NC3 5303  30.659   2.744   9.453
 5152POPC   PO4 5304  30.719   2.813   9.153
 5152POPC   GL1 5305  30.664   2.768   8.853
 5152POPC   GL2 5306  30.601   2.669   8.853
 5152POPC   C1A 5307  30.740   2.808   8.553
 5152POPC   D2A 5308  30.680   2.720   8.253
 5152POPC   C3A 5309  30.736   2.805   7.953
 5152POPC   C4A 5310  30.719   2.767   7.653
 5152POPC   C1B 5311  30.442   2.672   8.553
 5152POPC   C2B 5312  30.463   2.676   8.253
 5152POPC   C3B 5313  30.509   2.637   7.953
 5152POPC   C4B 5314  30.506   2.635   7.653
 5153POPC   NC3 5315  11.338  22.159   9.453
 5153POPC   PO4 5316  11.345  22.194   9.153
 5153POPC   GL1 5317  11.338  22.194   8.853
 5153POPC   GL2 5318  11.324  22.292   8.853
 5153POPC   C1A 5319  11.307  22.175   8.553
 5153POPC   D2A 5320  11.268  22.145   8.253
 5153POPC   C3A 5321  11.301  22.126   7.953
 5153POPC   C4A 5322  11.296  22.120   7.653
 5153POPC   C1B 5323  11.465  22.384   8.553
 5153POPC   C2B 5324  11.421  22.377   8.253
 5153POPC   C3B 5325  11.384  22.389   7.953
 5153POPC   C4B 5326  11.434  22.350   7.653
 5154POPC   NC3 5327  19.877  27.622   9.453
 5154POPC   PO4 5328  19.805  27.618   9.153
 5154POPC   GL1 5329  19.796  27.640   8.853
 5154POPC   GL2 5330  19.748  27.631   8.853
 5154POPC   C1A 5331  19.883  27.630   8.553
 5154POPC   D2A 5332  19.874  27.591   8.253
 5154POPC   C3A 5333  19.878  27.578   7.953
 5154POPC   C4A 5334  19.821  27.579   7.653
 5154POPC   C1B 5335  19.561  27.706   8.553
 5154POPC   C2B 5336  19.567  27.682   8.253
 5154POPC   C3B 5337  19.594  27.645   7.953
 5154POPC   C4B 5338  19.566  27.697   7.653
 5155POPC   NC3 5339  38.444  31.481   9.453
 5155POPC   PO4 5340  38.487  31.435   9.153
 5155POPC   GL1 5341  38.431  31.488   8.853
 5155POPC   GL2 5342  38.533  31.576   8.853
 5155POPC   C1A 5343  38.498  31.501   8.553
 5155POPC   D2A 5344  38.443  31.500   8.253
 5155POPC   C3A 5345  38.469  31.472   7.953
 5155POPC   C4A 5346  38.456  31.464   7.653
 5155POPC   C1B 5347  38.687  31.617   8.553
 5155POPC   C2B 5348  38.646  31.651   8.253
 5155POPC   C3B 5349  38.654  31.648   7.953
 5155POPC   C4B 5350  38.712  31.613   7.653
 5156POPC   NC3 5351  15.174  43.884   9.453
 5156POPC   PO4 5352  15.215  43.926   9.153
 5156POPC   GL1 5353  15.137  43.845   8.853
 5156POPC   GL2 5354  15.109  43.795   8.853
 5156POPC   C1A 5355  15.172  43.883   8.553
 5156POPC   D2A 5356  15.180  43.884   8.253
 5156POPC   C3A 5357  15.154  43.852   7.953
 5156POPC   C4A 5358  15.218  43.887   7.653
 5156POPC   C1B 5359  14.947  43.809   8.553
 5156POPC   C2B 5360  14.909  43.779   8.253
 5156POPC   C3B 5361  14.992  43.785   7.953
 5156POPC   C4B 5362  14.967  43.736   7.653
 5157POPC   NC3 5363   3.542  35.315   9.453
 5157POPC   PO4 5364   3.503  35.302   9.153
 5157POPC   GL1 5365   3.589  35.331   8.853
 5157POPC   GL2 5366   3.608  35.273   8.853
 5157POPC   C1A 5367   3.513  35.342   8.553
 5157POPC   D2A 5368   3.546  35.316   8.253
 5157POPC   C3A 5369   3.556  35.328   7.953
 5157POPC   C4A 5370   3.590  35.310   7.653
 5157POPC   C1B 5371   3.729  35.181   8.553
 5157POPC   C2B 5372   3.719  35.227   8.253
 5157POPC   C3B 5373   3.748  35.255   7.953
 5157POPC   C4B 5374   3.780  35.257   7.653
 5158POPC   NC3 5375  22.930  11.287   9.453
 5158POPC   PO4 5376  22.973  11.319   9.153
 5158POPC   GL1 5377  22.942  11.321   8.853
 5158POPC   GL2 5378  22.861  11.317   8.853
 5158POPC   C1A 5379  22.944  11.342   8.553
 5158POPC   D2A 5380  22.981  11.332   8.253
 5158POPC   C3A 5381  22.983  11.344   7.953
 5158POPC   C4A 5382  22.949  11.325   7.653
 5158POPC   C1B 5383  22.720  11.285   8.553
 5158POPC   C2B 5384  22.664  11.331   8.253
 5158POPC   C3B 5385  22.652  11.289   7.953
 5158POPC   C4B 5386  22.719  11.301   7.653
 5159POPC   NC3 5387   4.321  12.831   9.453
 5159POPC   PO4 5388   4.364  12.875   9.153
 5159POPC   GL1 5389   4.335  12.845   8.853
 5159POPC   GL2 5390   4.213  12.734   8.853
 5159POPC   C1A 5391   4.296  12.858   8.553
 5159POPC   D2A 5392   4.339  12.848   8.253
 5159POPC   C3A 5393   4.349  12.867   7.953
 5159POPC   C4A 5394   4.282  12.852   7.653
 5159POPC   C1B 5395   4.181  12.599   8.553
 5159POPC   C2B 5396   4.200  12.658   8.253
 5159POPC   C3B 5397   4.214  12.674   7.953
 5159POPC   C4B 5398   4.248  12.581   7.653
 5160POPC   NC3 5399   7.441  11.264   9.453
 5160POPC   PO4 5400   7.416  11.324   9.153
 5160POPC   GL1 5401   7.388  11.350   8.853
 5160POPC   GL2 5402   7.559  11.272   8.853
 5160POPC   C1A 5403   7.404  11.345   8.553
 5160POPC   D2A 5404   7.450  11.267   8.253
 5160POPC   C3A 5405   7.431  11.311   7.953
 5160POPC   C4A 5406   7.445  11.321   7.653
 5160POPC   C1B 5407   7.636  11.304   8.553
 5160POPC   C2B 5408   7.653  11.244   8.253
 5160POPC   C3B 5409   7.690  11.237   7.953
 5160POPC   C4B 5410   7.701  11.300   7.653
 5161POPC   NC3 5411  35.306  21.426   9.453
 5161POPC   PO4 5412  35.370  21.378   9.153
 5161POPC   GL1 5413  35.362  21.366   8.853
 5161POPC   GL2 5414  35.409  21.335   8.853
 5161POPC   C1A 5415  35.308  21.369   8.553
 5161POPC   D2A 5416  35.357  21.423   8.253
 5161POPC   C3A 5417  35.394  21.403   7.953
 5161POPC   C4A 5418  35.373  21.393   7.653
 5161POPC   C1B 5419  35.582  21.257   8.553
 5161POPC   C2B 5420  35.593  21.279   8.253
 5161POPC   C3B 5421  35.547  21.240   7.953
 5161POPC   C4B 5422  35.564  21.289   7.653
 5162POPC   NC3 5423  10.548  23.708   9.453
 5162POPC   PO4 5424  10.491  23.679   9.153
 5162POPC   GL1 5425  10.554  23.714   8.853
 5162POPC   GL2 5426  10.596  23.707   8.853
 5162POPC   C1A 5427  10.574  23.742   8.553
 5162POPC   D2A 5428  10.573  23.683   8.253
 5162POPC   C3A 5429  10.508  23.758   7.953
 5162POPC   C4A 5430  10.520  23.702   7.653
 5162POPC   C1B 5431  10.717  23.625   8.553
 5162POPC   C2B 5432  10.815  23.606   8.253
 5162POPC   C3B 5433  10.720  23.614   7.953
 5162POPC   C4B 5434  10.809  23.621   7.653
 5163POPC   NC3 5435  12.870  25.255   9.453
 5163POPC   PO4 5436  12.852  25.294   9.153
 5163POPC   GL1 5437  12.891  25.315   8.853
 5163POPC   GL2 5438  12.890  25.430   8.853
 5163POPC   C1A 5439  12.891  25.273   8.553
 5163POPC   D2A 5440  12.861  25.294   8.253
 5163POPC   C3A 5441  12.830  25.310   7.953
 5163POPC   C4A 5442  12.897  25.217   7.653
 5163POPC   C1B 5443  12.835  25.564   8.553
 5163POPC   C2B 5444  12.877  25.479   8.253
 5163POPC   C3B 5445  12.824  25.558   7.953
 5163POPC   C4B 5446  12.854  25.555   7.653
 5164POPC   NC3 5447   4.332  19.869   9.453
 5164POPC   PO4 5448   4.311  19.820   9.153
 5164POPC   GL1 5449   4.349  19.792   8.853
 5164POPC   GL2 5450   4.206  19.844   8.853
 5164POPC   C1A 5451   4.322  19.804   8.553
 5164POPC   D2A 5452   4.357  19.875   8.253
 5164POPC   C3A 5453   4.323  19.785   7.953
 5164POPC   C4A 5454   4.312  19.811   7.653
 5164POPC   C1B 5455   4.060  19.969   8.553
 5164POPC   C2B 5456   4.098  19.916   8.253
 5164POPC   C3B 5457   4.122  19.924   7.953
 5164POPC   C4B 5458   4.124  19.962   7.653
 5165POPC   NC3 5459  11.267  15.985   9.453
 5165POPC   PO4 5460  11.285  15.942   9.153
 5165POPC   GL1 5461  11.346  15.906   8.853
 5165POPC   GL2 5462  11.409  15.928   8.853
 5165POPC   C1A 5463  11.321  15.934   8.553
 5165POPC   D2A 5464  11.310  15.985   8.253
 5165POPC   C3A 5465  11.300  15.942   7.953
 5165POPC   C4A 5466  11.316  15.914   7.653
 5165POPC   C1B 5467  11.543  15.888   8.553
 5165POPC   C2B 5468  11.496  15.857   8.253
 5165POPC   C3B 5469  11.582  15.884   7.953
 5165POPC   C4B 5470  11.528  15.870   7.653
 5166POPC   NC3 5471  43.097  21.382   9.453
 5166POPC   PO4 5472  43.066  21.361   9.153
 5166POPC   GL1 5473  43.133  21.373   8.853
 5166POPC   GL2 5474  43.257  21.419   8.853
 5166POPC   C1A 5475  43.105  21.354   8.553
 5166POPC   D2A 5476  43.084  21.347   8.253
 5166POPC   C3A 5477  43.068  21.359   7.953
 5166POPC   C4A 5478  43.113  21.409   7.653
 5166POPC   C1B 5479  43.372  21.346   8.553
 5166POPC   C2B 5480  43.374  21.424   8.253
 5166POPC   C3B 5481  43.348  21.420   7.953
 5166POPC   C4B 5482  43.383  21.424   7.653
 5167POPC   NC3 5483  25.246   5.087   9.453
 5167POPC   PO4 5484  25.250   5.113   9.153
 5167POPC   GL1 5485  25.292   5.050   8.853
 5167POPC   GL2 5486  25.338   5.248   8.853
 5167POPC   C1A 5487  25.284   5.108   8.553
 5167POPC   D2A 5488  25.242   5.134   8.253
 5167POPC   C3A 5489  25.249   5.094   7.953
 5167POPC   C4A 5490  25.228   5.126   7.653
 5167POPC   C1B 5491  25.355   5.308   8.553
 5167POPC   C2B 5492  25.365   5.327   8.253
 5167POPC   C3B 5493  25.279   5.314   7.953
 5167POPC   C4B 5494  25.348   5.350   7.653
 5168POPC   NC3 5495  19.034  32.244   9.453
 5168POPC   PO4 5496  19.036  32.266   9.153
 5168POPC   GL1 5497  19.084  32.294   8.853
 5168POPC   GL2 5498  19.151  32.371   8.853
 5168POPC   C1A 5499  19.036  32.215   8.553
 5168POPC   D2A 5500  19.038  32.233   8.253
 5168POPC   C3A 5501  19.058  32.287   7.953
 5168POPC   C4A 5502  19.019  32.235   7.653
 5168POPC   C1B 5503  19.152  32.473   8.553
 5168POPC   C2B 5504  19.160  32.504   8.253
 5168POPC   C3B 5505  19.184  32.449   7.953
 5168POPC   C4B 5506  19.182  32.503   7.653
 5169POPC   NC3 5507  10.531   8.224   9.453
 5169POPC   PO4 5508  10.499   8.239   9.153
 5169POPC   GL1 5509  10.523   8.199   8.853
 5169POPC   GL2 5510  10.510   8.134   8.853
 5169POPC   C1A 5511  10.475   8.167   8.553
 5169POPC   D2A 5512  10.517   8.190   8.253
 5169POPC   C3A 5513  10.475   8.165   7.953
 5169POPC   C4A 5514  10.477   8.201   7.653
 5169POPC   C1B 5515  10.372   7.937   8.553
 5169POPC   C2B 5516  10.446   8.017   8.253
 5169POPC   C3B 5517  10.424   7.988   7.953
 5169POPC   C4B 5518  10.439   8.005   7.653
 5170POPC   NC3 5519  43.154  19.804   9.453
 5170POPC   PO4 5520  43.121  19.792   9.153
 5170POPC   GL1 5521  43.112  19.811   8.853
 5170POPC   GL2 5522  43.211  19.741   8.853
 5170POPC   C1A 5523  43.138  19.810   8.553
 5170POPC   D2A 5524  43.085  19.833   8.253
 5170POPC   C3A 5525  43.147  19.798   7.953
 5170POPC   C4A 5526  43.126  19.847   7.653
 5170POPC   C1B 5527  43.311  19.641   8.553
 5170POPC   C2B 5528  43.245  19.606   8.253
 5170POPC   C3B 5529  43.282  19.618   7.953
 5170POPC   C4B 5530  43.299  19.662   7.653
 5171POPC   NC3 5531  19.849  43.092   9.453
 5171POPC   PO4 5532  19.820  43.062   9.153
 5171POPC   GL1 5533  19.821  43.131   8.853
 5171POPC   GL2 5534  19.910  43.198   8.853
 5171POPC   C1A 5535  19.810  43.079   8.553
 5171POPC   D2A 5536  19.810  43.158   8.253
 5171POPC   C3A 5537  19.809  43.155   7.953
 5171POPC   C4A 5538  19.833  43.140   7.653
 5171POPC   C1B 5539  20.048  43.259   8.553
 5171POPC   C2B 5540  20.047  43.290   8.253
 5171POPC   C3B 5541  19.996  43.319   7.953
 5171POPC   C4B 5542  20.047  43.289   7.653
 5172POPC   NC3 5543  41.595   7.451   9.453
 5172POPC   PO4 5544  41.541   7.401   9.153
 5172POPC   GL1 5545  41.585   7.459   8.853
 5172POPC   GL2 5546  41.616   7.455   8.853
 5172POPC   C1A 5547  41.533   7.428   8.553
 5172POPC   D2A 5548  41.571   7.413   8.253
 5172POPC   C3A 5549  41.565   7.401   7.953
 5172POPC   C4A 5550  41.554   7.401   7.653
 5172POPC   C1B 5551  41.765   7.596   8.553
 5172POPC   C2B 5552  41.746   7.543   8.253
 5172POPC   C3B 5553  41.799   7.566   7.953
 5172POPC   C4B 5554  41.781   7.510   7.653
 5173POPC   NC3 5555   8.939   5.878   9.453
 5173POPC   PO4 5556   8.985   5.836   9.153
 5173POPC   GL1 5557   8.945   5.910   8.853
 5173POPC   GL2 5558   8.876   5.772   8.853
 5173POPC   C1A 5559   9.004   5.871   8.553
 5173POPC   D2A 5560   8.973   5.884   8.253
 5173POPC   C3A 5561   8.951   5.829   7.953
 5173POPC   C4A 5562   8.926   5.825   7.653
 5173POPC   C1B 5563   8.837   5.690   8.553
 5173POPC   C2B 5564   8.859   5.617   8.253
 5173POPC   C3B 5565   8.844   5.667   7.953
 5173POPC   C4B 5566   8.910   5.619   7.653
 5174POPC   NC3 5567  38.405  21.375   9.453
 5174POPC   PO4 5568  38.454  21.353   9.153
 5174POPC   GL1 5569  38.436  21.358   8.853
 5174POPC   GL2 5570  38.451  21.240   8.853
 5174POPC   C1A 5571  38.429  21.358   8.553
 5174POPC   D2A 5572  38.474  21.434   8.253
 5174POPC   C3A 5573  38.439  21.389   7.953
 5174POPC   C4A 5574  38.441  21.396   7.653
 5174POPC   C1B 5575  38.506  21.148   8.553
 5174POPC   C2B 5576  38.566  21.119   8.253
 5174POPC   C3B 5577  38.548  21.164   7.953
 5174POPC   C4B 5578  38.568  21.169   7.653
 5175POPC   NC3 5579  16.719   1.212   9.453
 5175POPC   PO4 5580  16.759   1.256   9.153
 5175POPC   GL1 5581  16.752   1.171   8.853
 5175POPC   GL2 5582  16.749   1.092   8.853
 5175POPC   C1A 5583  16.723   1.229   8.553
 5175POPC   D2A 5584  16.692   1.242   8.253
 5175POPC   C3A 5585  16.719   1.249   7.953
 5175POPC   C4A 5586  16.757   1.212   7.653
 5175POPC   C1B 5587  16.796   0.936   8.553
 5175POPC   C2B 5588  16.861   0.999   8.253
 5175POPC   C3B 5589  16.835   0.988   7.953
 5175POPC   C4B 5590  16.776   0.930   7.653
 5176POPC   NC3 5591  25.293  15.188   9.453
 5176POPC   PO4 5592  25.246  15.161   9.153
 5176POPC   GL1 5593  25.243  15.130   8.853
 5176POPC   GL2 5594  25.207  15.058   8.853
 5176POPC   C1A 5595  25.261  15.213   8.553
 5176POPC   D2A 5596  25.276  15.136   8.253
 5176POPC   C3A 5597  25.232  15.144   7.953
 5176POPC   C4A 5598  25.234  15.183   7.653
 5176POPC   C1B 5599  25.023  14.997   8.553
 5176POPC   C2B 5600  25.098  15.073   8.253
 5176POPC   C3B 5601  25.090  15.080   7.953
 5176POPC   C4B 5602  25.073  15.010   7.653
 5177POPC   NC3 5603  43.120  40.745   9.453
 5177POPC   PO4 5604  43.101  40.765   9.153
 5177POPC   GL1 5605  43.106  40.825   8.853
 5177POPC   GL2 5606  43.086  40.860   8.853
 5177POPC   C1A 5607  43.122  40.759   8.553
 5177POPC   D2A 5608  43.130  40.777   8.253
 5177POPC   C3A 5609  43.069  40.763   7.953
 5177POPC   C4A 5610  43.068  40.821   7.653
 5177POPC   C1B 5611  42.952  41.017   8.553
 5177POPC   C2B 5612  42.958  41.020   8.253
 5177POPC   C3B 5613  43.006  40.955   7.953
 5177POPC   C4B 5614  42.994  40.992   7.653
 5178POPC   NC3 5615   6.638   8.176   9.453
 5178POPC   PO4 5616   6.663   8.176   9.153
 5178POPC   GL1 5617   6.612   8.202   8.853
 5178POPC   GL2 5618   6.653   8.064   8.853
 5178POPC   C1A 5619   6.600   8.182   8.553
 5178POPC   D2A 5620   6.688   8.168   8.253
 5178POPC   C3A 5621   6.677   8.209   7.953
 5178POPC   C4A 5622   6.619   8.241   7.653
 5178POPC   C1B 5623   6.636   7.925   8.553
 5178POPC   C2B 5624   6.649   7.968   8.253
 5178POPC   C3B 5625   6.565   7.921   7.953
 5178POPC   C4B 5626   6.567   7.966   7.653
 5179POPC   NC3 5627  23.754   4.344   9.453
 5179POPC   PO4 5628  23.664   4.352   9.153
 5179POPC   GL1 5629  23.673   4.279   8.853
 5179POPC   GL2 5630  23.586   4.214   8.853
 5179POPC   C1A 5631  23.752   4.308   8.553
 5179POPC   D2A 5632  23.724   4.328   8.253
 5179POPC   C3A 5633  23.707   4.317   7.953
 5179POPC   C4A 5634  23.707   4.329   7.653
 5179POPC   C1B 5635  23.548   4.172   8.553
 5179POPC   C2B 5636  23.517   4.174   8.253
 5179POPC   C3B 5637  23.487   4.138   7.953
 5179POPC   C4B 5638  23.511   4.150   7.653
 5180POPC   NC3 5639  36.154  43.064   9.453
 5180POPC   PO4 5640  36.169  43.159   9.153
 5180POPC   GL1 5641  36.117  43.160   8.853
 5180POPC   GL2 5642  36.055  43.247   8.853
 5180POPC   C1A 5643  36.084  43.159   8.553
 5180POPC   D2A 5644  36.136  43.088   8.253
 5180POPC   C3A 5645  36.085  43.141   7.953
 5180POPC   C4A 5646  36.141  43.150   7.653
 5180POPC   C1B 5647  36.126  43.331   8.553
 5180POPC   C2B 5648  36.127  43.318   8.253
 5180POPC   C3B 5649  36.088  43.355   7.953
 5180POPC   C4B 5650  36.109  43.357   7.653
 5181POPC   NC3 5651  41.586  12.847   9.453
 5181POPC   PO4 5652  41.597  12.864   9.153
 5181POPC   GL1 5653  41.569  12.807   8.853
 5181POPC   GL2 5654  41.443  12.893   8.853
 5181POPC   C1A 5655  41.510  12.892   8.553
 5181POPC   D2A 5656  41.516  12.866   8.253
 5181POPC   C3A 5657  41.535  12.843   7.953
 5181POPC   C4A 5658  41.600  12.814   7.653
 5181POPC   C1B 5659  41.328  12.875   8.553
 5181POPC   C2B 5660  41.308  12.933   8.253
 5181POPC   C3B 5661  41.292  12.868   7.953
 5181POPC   C4B 5662  41.292  12.950   7.653
 5182POPC   NC3 5663  12.119  21.400   9.453
 5182POPC   PO4 5664  12.100  21.431   9.153
 5182POPC   GL1 5665  12.096  21.406   8.853
 5182POPC   GL2 5666  12.005  21.317   8.853
 5182POPC   C1A 5667  12.047  21.355   8.553
 5182POPC   D2A 5668  12.086  21.430   8.253
 5182POPC   C3A 5669  12.029  21.399   7.953
 5182POPC   C4A 5670  12.056  21.388   7.653
 5182POPC   C1B 5671  11.918  21.225   8.553
 5182POPC   C2B 5672  11.943  21.159   8.253
 5182POPC   C3B 5673  11.889  21.212   7.953
 5182POPC   C4B 5674  11.868  21.208   7.653
 5183POPC   NC3 5675   1.986  36.917   9.453
 5183POPC   PO4 5676   1.985  36.910   9.153
 5183POPC   GL1 5677   1.994  36.862   8.853
 5183POPC   GL2 5678   1.866  37.031   8.853
 5183POPC   C1A 5679   1.970  36.903   8.553
 5183POPC   D2A 5680   1.947  36.953   8.253
 5183POPC   C3A 5681   2.010  36.941   7.953
 5183POPC   C4A 5682   1.964  36.939   7.653
 5183POPC   C1B 5683   1.819  37.123   8.553
 5183POPC   C2B 5684   1.798  37.128   8.253
 5183POPC   C3B 5685   1.805  37.094   7.953
 5183POPC   C4B 5686   1.840  37.094   7.653
 5184POPC   NC3 5687  29.874  28.419   9.453
 5184POPC   PO4 5688  29.957  28.418   9.153
 5184POPC   GL1 5689  29.920  28.370   8.853
 5184POPC   GL2 5690  30.065  28.402   8.853
 5184POPC   C1A 5691  29.912  28.413   8.553
 5184POPC   D2A 5692  29.942  28.415   8.253
 5184POPC   C3A 5693  29.875  28.342   7.953
 5184POPC   C4A 5694  29.944  28.373   7.653
 5184POPC   C1B 5695  30.166  28.377   8.553
 5184POPC   C2B 5696  30.174  28.353   8.253
 5184POPC   C3B 5697  30.168  28.398   7.953
 5184POPC   C4B 5698  30.155  28.369   7.653
 5185POPC   NC3 5699   4.284  42.339   9.453
 5185POPC   PO4 5700   4.279  42.307   9.153
 5185POPC   GL1 5701   4.313  42.294   8.853
 5185POPC   GL2 5702   4.390  42.441   8.853
 5185POPC   C1A 5703   4.283  42.337   8.553
 5185POPC   D2A 5704   4.318  42.360   8.253
 5185POPC   C3A 5705   4.364  42.365   7.953
 5185POPC   C4A 5706   4.347  42.340   7.653
 5185POPC   C1B 5707   4.381  42.612   8.553
 5185POPC   C2B 5708   4.396  42.566   8.253
 5185POPC   C3B 5709   4.444  42.573   7.953
 5185POPC   C4B 5710   4.409  42.612   7.653
 5186POPC   NC3 5711  33.816  31.434   9.453
 5186POPC   PO4 5712  33.799  31.467   9.153
 5186POPC   GL1 5713  33.799  31.495   8.853
 5186POPC   GL2 5714  33.847  31.390   8.853
 5186POPC   C1A 5715  33.771  31.499   8.553
 5186POPC   D2A 5716  33.821  31.501   8.253
 5186POPC   C3A 5717  33.806  31.446   7.953
 5186POPC   C4A 5718  33.805  31.435   7.653
 5186POPC   C1B 5719  33.928  31.260   8.553
 5186POPC   C2B 5720  33.997  31.240   8.253
 5186POPC   C3B 5721  33.989  31.280   7.953
 5186POPC   C4B 5722  33.921  31.306   7.653
 5187POPC   NC3 5723  40.777  13.612   9.453
 5187POPC   PO4 5724  40.746  13.676   9.153
 5187POPC   GL1 5725  40.772  13.627   8.853
 5187POPC   GL2 5726  40.646  13.681   8.853
 5187POPC   C1A 5727  40.832  13.657   8.553
 5187POPC   D2A 5728  40.827  13.657   8.253
 5187POPC   C3A 5729  40.740  13.675   7.953
 5187POPC   C4A 5730  40.789  13.669   7.653
 5187POPC   C1B 5731  40.555  13.795   8.553
 5187POPC   C2B 5732  40.609  13.748   8.253
 5187POPC   C3B 5733  40.579  13.830   7.953
 5187POPC   C4B 5734  40.588  13.774   7.653
 5188POPC   NC3 5735   9.730  16.699   9.453
 5188POPC   PO4 5736   9.776  16.708   9.153
 5188POPC   GL1 5737   9.777  16.766   8.853
 5188POPC   GL2 5738   9.706  16.639   8.853
 5188POPC   C1A 5739   9.779  16.766   8.553
 5188POPC   D2A 5740   9.750  16.736   8.253
 5188POPC   C3A 5741   9.798  16.723   7.953
 5188POPC   C4A 5742   9.761  16.747   7.653
 5188POPC   C1B 5743   9.743  16.486   8.553
 5188POPC   C2B 5744   9.712  16.433   8.253
 5188POPC   C3B 5745   9.780  16.497   7.953
 5188POPC   C4B 5746   9.715  16.474   7.653
 5189POPC   NC3 5747  41.510  18.289   9.453
 5189POPC   PO4 5748  41.584  18.285   9.153
 5189POPC   GL1 5749  41.519  18.281   8.853
 5189POPC   GL2 5750  41.495  18.195   8.853
 5189POPC   C1A 5751  41.593  18.255   8.553
 5189POPC   D2A 5752  41.531  18.255   8.253
 5189POPC   C3A 5753  41.574  18.313   7.953
 5189POPC   C4A 5754  41.588  18.297   7.653
 5189POPC   C1B 5755  41.380  18.051   8.553
 5189POPC   C2B 5756  41.445  18.113   8.253
 5189POPC   C3B 5757  41.399  18.096   7.953
 5189POPC   C4B 5758  41.447  18.055   7.653
 5190POPC   NC3 5759  35.308   2.812   9.453
 5190POPC   PO4 5760  35.359   2.732   9.153
 5190POPC   GL1 5761  35.366   2.795   8.853
 5190POPC   GL2 5762  35.262   2.878   8.853
 5190POPC   C1A 5763  35.379   2.792   8.553
 5190POPC   D2A 5764  35.339   2.738   8.253
 5190POPC   C3A 5765  35.397   2.726   7.953
 5190POPC   C4A 5766  35.378   2.747   7.653
 5190POPC   C1B 5767  35.154   2.948   8.553
 5190POPC   C2B 5768  35.120   2.951   8.253
 5190POPC   C3B 5769  35.109   2.873   7.953
 5190POPC   C4B 5770  35.192   2.956   7.653
 5191POPC   NC3 5771  16.771   5.878   9.453
 5191POPC   PO4 5772  16.749   5.869   9.153
 5191POPC   GL1 5773  16.753   5.877   8.853
 5191POPC   GL2 5774  16.749   6.011   8.853
 5191POPC   C1A 5775  16.766   5.849   8.553
 5191POPC   D2A 5776  16.730   5.906   8.253
 5191POPC   C3A 5777  16.754   5.910   7.953
 5191POPC   C4A 5778  16.742   5.913   7.653
 5191POPC   C1B 5779  16.863   6.129   8.553
 5191POPC   C2B 5780  16.821   6.130   8.253
 5191POPC   C3B 5781  16.840   6.104   7.953
 5191POPC   C4B 5782  16.896   6.108   7.653
 5192POPC   NC3 5783   2.025  14.419   9.453
 5192POPC   PO4 5784   1.967  14.432   9.153
 5192POPC   GL1 5785   2.031  14.390   8.853
 5192POPC   GL2 5786   1.887  14.432   8.853
 5192POPC   C1A 5787   1.991  14.398   8.553
 5192POPC   D2A 5788   2.002  14.390   8.253
 5192POPC   C3A 5789   1.958  14.407   7.953
 5192POPC   C4A 5790   1.999  14.384   7.653
 5192POPC   C1B 5791   1.755  14.457   8.553
 5192POPC   C2B 5792   1.757  14.488   8.253
 5192POPC   C3B 5793   1.755  14.486   7.953
 5192POPC   C4B 5794   1.760  14.479   7.653
 5193POPC   NC3 5795  33.767  27.589   9.453
 5193POPC   PO4 5796  33.793  27.574   9.153
 5193POPC   GL1 5797  33.826  27.563   8.853
 5193POPC   GL2 5798  33.915  27.551   8.853
 5193POPC   C1A 5799  33.829  27.560   8.553
 5193POPC   D2A 5800  33.783  27.607   8.253
 5193POPC   C3A 5801  33.836  27.588   7.953
 5193POPC   C4A 5802  33.835  27.601   7.653
 5193POPC   C1B 5803  33.995  27.495   8.553
 5193POPC   C2B 5804  34.081  27.558   8.253
 5193POPC   C3B 5805  34.083  27.504   7.953
 5193POPC   C4B 5806  34.026  27.543   7.653
 5194POPC   NC3 5807  39.979   6.644   9.453
 5194POPC   PO4 5808  39.999   6.637   9.153
 5194POPC   GL1 5809  40.052   6.628   8.853
 5194POPC   GL2 5810  40.012   6.533   8.853
 5194POPC   C1A 5811  40.020   6.645   8.553
 5194POPC   D2A 5812  40.022   6.598   8.253
 5194POPC   C3A 5813  39.961   6.668   7.953
 5194POPC   C4A 5814  39.989   6.635   7.653
 5194POPC   C1B 5815  40.062   6.384   8.553
 5194POPC   C2B 5816  40.055   6.425   8.253
 5194POPC   C3B 5817  40.035   6.380   7.953
 5194POPC   C4B 5818  40.069   6.447   7.653
 5195POPC   NC3 5819  24.500  43.081   9.453
 5195POPC   PO4 5820  24.480  43.157   9.153
 5195POPC   GL1 5821  24.526  43.063   8.853
 5195POPC   GL2 5822  24.382  43.206   8.853
 5195POPC   C1A 5823  24.441  43.073   8.553
 5195POPC   D2A 5824  24.453  43.080   8.253
 5195POPC   C3A 5825  24.485  43.120   7.953
 5195POPC   C4A 5826  24.506  43.131   7.653
 5195POPC   C1B 5827  24.263  43.185   8.553
 5195POPC   C2B 5828  24.294  43.193   8.253
 5195POPC   C3B 5829  24.235  43.209   7.953
 5195POPC   C4B 5830  24.275  43.235   7.653
 5196POPC   NC3 5831  10.539  22.954   9.453
 5196POPC   PO4 5832  10.567  22.908   9.153
 5196POPC   GL1 5833  10.491  22.929   8.853
 5196POPC   GL2 5834  10.661  22.925   8.853
 5196POPC   C1A 5835  10.513  22.912   8.553
 5196POPC   D2A 5836  10.553  22.940   8.253
 5196POPC   C3A 5837  10.483  22.935   7.953
 5196POPC   C4A 5838  10.537  22.944   7.653
 5196POPC   C1B 5839  10.779  22.865   8.553
 5196POPC   C2B 5840  10.757  22.842   8.253
 5196POPC   C3B 5841  10.767  22.883   7.953
 5196POPC   C4B 5842  10.761  22.825   7.653
 5197POPC   NC3 5843   0.425  19.869   9.453
 5197POPC   PO4 5844   0.459  19.812   9.153
 5197POPC   GL1 5845   0.433  19.807   8.853
 5197POPC   GL2 5846   0.487  19.779   8.853
 5197POPC   C1A 5847   0.390  19.802   8.553
 5197POPC   D2A 5848   0.432  19.799   8.253
 5197POPC   C3A 5849   0.397  19.873   7.953
 5197POPC   C4A 5850   0.397  19.875   7.653
 5197POPC   C1B 5851   0.627  19.675   8.553
 5197POPC   C2B 5852   0.596  19.670   8.253
 5197POPC   C3B 5853   0.622  19.662   7.953
 5197POPC   C4B 5854   0.603  19.685   7.653
 5198POPC   NC3 5855   5.862  29.959   9.453
 5198POPC   PO4 5856   5.916  29.911   9.153
 5198POPC   GL1 5857   5.900  29.900   8.853
 5198POPC   GL2 5858   5.889  29.844   8.853
 5198POPC   C1A 5859   5.888  29.876   8.553
 5198POPC   D2A 5860   5.880  29.878   8.253
 5198POPC   C3A 5861   5.879  29.881   7.953
 5198POPC   C4A 5862   5.898  29.916   7.653
 5198POPC   C1B 5863   5.961  29.711   8.553
 5198POPC   C2B 5864   5.983  29.653   8.253
 5198POPC   C3B 5865   5.917  29.722   7.953
 5198POPC   C4B 5866   5.999  29.725   7.653
 5199POPC   NC3 5867   2.021  35.304   9.453
 5199POPC   PO4 5868   2.009  35.359   9.153
 5199POPC   GL1 5869   2.017  35.358   8.853
 5199POPC   GL2 5870   1.950  35.494   8.853
 5199POPC   C1A 5871   1.963  35.389   8.553
 5199POPC   D2A 5872   1.962  35.338   8.253
 5199POPC   C3A 5873   2.037  35.316   7.953
 5199POPC   C4A 5874   2.021  35.391   7.653
 5199POPC   C1B 5875   1.952  35.597   8.553
 5199POPC   C2B 5876   1.920  35.590   8.253
 5199POPC   C3B 5877   1.939  35.607   7.953
 5199POPC   C4B 5878   1.948  35.625   7.653
 5200POPC   NC3 5879  43.865  36.882   9.453
 5200POPC   PO4 5880  43.935  36.862   9.153
 5200POPC   GL1 5881  43.873  36.923   8.853
 5200POPC   GL2 5882  43.972  36.861   8.853
 5200POPC   C1A 5883  43.904  36.932   8.553
 5200POPC   D2A 5884  43.854  36.880   8.253
 5200POPC   C3A 5885  43.872  36.874   7.953
 5200POPC   C4A 5886  43.908  36.875   7.653
 5200POPC   C1B 5887  44.107  36.702   8.553
 5200POPC   C2B 5888  44.051  36.714   8.253
 5200POPC   C3B 5889  44.103  36.689   7.953
 5200POPC   C4B 5890  44.109  36.761   7.653
 5201POPC   NC3 5891   1.180  37.712   9.453
 5201POPC   PO4 5892   1.178  37.653   9.153
 5201POPC   GL1 5893   1.223  37.653   8.853
 5201POPC   GL2 5894   1.293  37.746   8.853
 5201POPC   C1A 5895   1.236  37.683   8.553
 5201POPC   D2A 5896   1.180  37.706   8.253
 5201POPC   C3A 5897   1.263  37.683   7.953
 5201POPC   C4A 5898   1.203  37.692   7.653
 5201POPC   C1B 5899   1.461  37.755   8.553
 5201POPC   C2B 5900   1.395  37.765   8.253
 5201POPC   C3B 5901   1.405  37.748   7.953
 5201POPC   C4B 5902   1.485  37.800   7.653
 5202POPC   NC3 5903  26.818  27.552   9.453
 5202POPC   PO4 5904  26.853  27.605   9.153
 5202POPC   GL1 5905  26.768  27.618   8.853
 5202POPC   GL2 5906  26.809  27.731   8.853
 5202POPC   C1A 5907  26.848  27.578   8.553
 5202POPC   D2A 5908  26.863  27.631   8.253
 5202POPC   C3A 5909  26.774  27.573   7.953
 5202POPC   C4A 5910  26.839  27.635   7.653
 5202POPC   C1B 5911  26.808  27.805   8.553
 5202POPC   C2B 5912  26.721  27.825   8.253
 5202POPC   C3B 5913  26.785  27.884   7.953
 5202POPC   C4B 5914  26.808  27.855   7.653
 5203POPC   NC3 5915  40.800  15.192   9.453
 5203POPC   PO4 5916  40.744  15.158   9.153
 5203POPC   GL1 5917  40.736  15.183   8.853
 5203POPC   GL2 5918  40.693  15.126   8.853
 5203POPC   C1A 5919  40.752  15.168   8.553
 5203POPC   D2A 5920  40.799  15.152   8.253
 5203POPC   C3A 5921  40.802  15.138   7.953
 5203POPC   C4A 5922  40.745  15.217   7.653
 5203POPC   C1B 5923  40.592  15.105   8.553
 5203POPC   C2B 5924  40.493  15.121   8.253
 5203POPC   C3B 5925  40.559  15.071   7.953
 5203POPC   C4B 5926  40.524  15.155   7.653
 5204POPC   NC3 5927   8.995  36.899   9.453
 5204POPC   PO4 5928   8.998  36.883   9.153
 5204POPC   GL1 5929   8.994  36.879   8.853
 5204POPC   GL2 5930   9.053  37.042   8.853
 5204POPC   C1A 5931   8.977  36.863   8.553
 5204POPC   D2A 5932   8.924  36.880   8.253
 5204POPC   C3A 5933   8.945  36.902   7.953
 5204POPC   C4A 5934   9.021  36.925   7.653
 5204POPC   C1B 5935   9.134  37.170   8.553
 5204POPC   C2B 5936   9.052  37.109   8.253
 5204POPC   C3B 5937   9.063  37.171   7.953
 5204POPC   C4B 5938   9.042  37.078   7.653
 5205POPC   NC3 5939  34.578   2.732   9.453
 5205POPC   PO4 5940  34.547   2.751   9.153
 5205POPC   GL1 5941  34.611   2.769   8.853
 5205POPC   GL2 5942  34.665   2.867   8.853
 5205POPC   C1A 5943  34.598   2.736   8.553
 5205POPC   D2A 5944  34.546   2.775   8.253
 5205POPC   C3A 5945  34.618   2.744   7.953
 5205POPC   C4A 5946  34.544   2.732   7.653
 5205POPC   C1B 5947  34.767   2.942   8.553
 5205POPC   C2B 5948  34.740   2.864   8.253
 5205POPC   C3B 5949  34.800   2.941   7.953
 5205POPC   C4B 5950  34.829   2.896   7.653
 5206POPC   NC3 5951  12.897  23.702   9.453
 5206POPC   PO4 5952  12.875  23.731   9.153
 5206POPC   GL1 5953  12.806  23.705   8.853
 5206POPC   GL2 5954  12.986  23.590   8.853
 5206POPC   C1A 5955  12.837  23.738   8.553
 5206POPC   D2A 5956  12.844  23.672   8.253
 5206POPC   C3A 5957  12.866  23.695   7.953
 5206POPC   C4A 5958  12.893  23.664   7.653
 5206POPC   C1B 5959  13.058  23.532   8.553
 5206POPC   C2B 5960  13.021  23.580   8.253
 5206POPC   C3B 5961  13.066  23.596   7.953
 5206POPC   C4B 5962  13.069  23.562   7.653
 5207POPC   NC3 5963  21.434   8.162   9.453
 5207POPC   PO4 5964  21.351   8.207   9.153
 5207POPC   GL1 5965  21.398   8.227   8.853
 5207POPC   GL2 5966  21.323   8.050   8.853
 5207POPC   C1A 5967  21.401   8.194   8.553
 5207POPC   D2A 5968  21.384   8.182   8.253
 5207POPC   C3A 5969  21.400   8.152   7.953
 5207POPC   C4A 5970  21.350   8.189   7.653
 5207POPC   C1B 5971  21.305   7.963   8.553
 5207POPC   C2B 5972  21.335   7.987   8.253
 5207POPC   C3B 5973  21.300   7.984   7.953
 5207POPC   C4B 5974  21.340   7.999   7.653
 5208POPC   NC3 5975   7.456  15.991   9.453
 5208POPC   PO4 5976   7.429  15.921   9.153
 5208POPC   GL1 5977   7.449  15.995   8.853
 5208POPC   GL2 5978   7.570  15.995   8.853
 5208POPC   C1A 5979   7.438  15.966   8.553
 5208POPC   D2A 5980   7.427  16.004   8.253
 5208POPC   C3A 5981   7.420  15.948   7.953
 5208POPC   C4A 5982   7.434  15.965   7.653
 5208POPC   C1B 5983   7.682  16.131   8.553
 5208POPC   C2B 5984   7.625  16.058   8.253
 5208POPC   C3B 5985   7.624  16.067   7.953
 5208POPC   C4B 5986   7.602  16.064   7.653
 5209POPC   NC3 5987  19.093  33.818   9.453
 5209POPC   PO4 5988  19.092  33.812   9.153
 5209POPC   GL1 5989  19.054  33.756   8.853
 5209POPC   GL2 5990  19.019  33.904   8.853
 5209POPC   C1A 5991  19.055  33.850   8.553
 5209POPC   D2A 5992  19.085  33.799   8.253
 5209POPC   C3A 5993  19.036  33.829   7.953
 5209POPC   C4A 5994  19.018  33.824   7.653
 5209POPC   C1B 5995  18.954  34.023   8.553
 5209POPC   C2B 5996  18.931  34.042   8.253
 5209POPC   C3B 5997  18.978  33.992   7.953
 5209POPC   C4B 5998  18.977  34.047   7.653
 5210POPC   NC3 5999  16.738   6.605   9.453
 5210POPC   PO4 6000  16.749   6.670   9.153
 5210POPC   GL1 6001  16.741   6.643   8.853
 5210POPC   GL2 6002  16.805   6.655   8.853
 5210POPC   C1A 6003  16.760   6.599   8.553
 5210POPC   D2A 6004  16.741   6.601   8.253
 5210POPC   C3A 6005  16.725   6.668   7.953
 5210POPC   C4A 6006  16.731   6.681   7.653
 5210POPC   C1B 6007  16.996   6.589   8.553
 5210POPC   C2B 6008  16.968   6.580   8.253
 5210POPC   C3B 6009  16.951   6.567   7.953
 5210POPC   C4B 6010  16.941   6.585   7.653
 5211POPC   NC3 6011  30.662  42.326   9.453
 5211POPC   PO4 6012  30.681  42.363   9.153
 5211POPC   GL1 6013  30.703  42.340   8.853
 5211POPC   GL2 6014  30.588  42.337   8.853
 5211POPC   C1A 6015  30.691  42.307   8.553
 5211POPC   D2A 6016  30.719  42.384   8.253
 5211POPC   C3A 6017  30.738  42.315   7.953
 5211POPC   C4A 6018  30.689  42.313   7.653
 5211POPC   C1B 6019  30.488  42.263   8.553
 5211POPC   C2B 6020  30.505  42.294   8.253
 5211POPC   C3B 6021  30.488  42.241   7.953
 5211POPC   C4B 6022  30.446  42.211   7.653
 5212POPC   NC3 6023  37.640  28.370   9.453
 5212POPC   PO4 6024  37.672  28.406   9.153
 5212POPC   GL1 6025  37.633  28.415   8.853
 5212POPC   GL2 6026  37.549  28.372   8.853
 5212POPC   C1A 6027  37.680  28.415   8.553
 5212POPC   D2A 6028  37.639  28.320   8.253
 5212POPC   C3A 6029  37.726  28.351   7.953
 5212POPC   C4A 6030  37.729  28.395   7.653
 5212POPC   C1B 6031  37.398  28.381   8.553
 5212POPC   C2B 6032  37.433  28.432   8.253
 5212POPC   C3B 6033  37.473  28.476   7.953
 5212POPC   C4B 6034  37.395  28.381   7.653
 5213POPC   NC3 6035  22.900  26.788   9.453
 5213POPC   PO4 6036  22.966  26.859   9.153
 5213POPC   GL1 6037  22.967  26.820   8.853
 5213POPC   GL2 6038  22.948  26.929   8.853
 5213POPC   C1A 6039  22.908  26.811   8.553
 5213POPC   D2A 6040  22.957  26.852   8.253
 5213POPC   C3A 6041  22.917  26.793   7.953
 5213POPC   C4A 6042  22.953  26.856   7.653
 5213POPC   C1B 6043  22.913  27.072   8.553
 5213POPC   C2B 6044  22.933  27.093   8.253
 5213POPC   C3B 6045  22.892  27.078   7.953
 5213POPC   C4B 6046  22.895  27.039   7.653
 5214POPC   NC3 6047  11.292  18.323   9.453
 5214POPC   PO4 6048  11.292  18.247   9.153
 5214POPC   GL1 6049  11.306  18.265   8.853
 5214POPC   GL2 6050  11.385  18.143   8.853
 5214POPC   C1A 6051  11.285  18.271   8.553
 5214POPC   D2A 6052  11.265  18.307   8.253
 5214POPC   C3A 6053  11.263  18.313   7.953
 5214POPC   C4A 6054  11.306  18.289   7.653
 5214POPC   C1B 6055  11.357  18.050   8.553
 5214POPC   C2B 6056  11.352  18.011   8.253
 5214POPC   C3B 6057  11.414  18.063   7.953
 5214POPC   C4B 6058  11.367  18.018   7.653
 5215POPC   NC3 6059  20.575  10.534   9.453
 5215POPC   PO4 6060  20.585  10.542   9.153
 5215POPC   GL1 6061  20.577  10.505   8.853
 5215POPC   GL2 6062  20.556  10.666   8.853
 5215POPC   C1A 6063  20.588  10.512   8.553
 5215POPC   D2A 6064  20.619  10.539   8.253
 5215POPC   C3A 6065  20.647  10.523   7.953
 5215POPC   C4A 6066  20.647  10.569   7.653
 5215POPC   C1B 6067  20.486  10.758   8.553
 5215POPC   C2B 6068  20.490  10.714   8.253
 5215POPC   C3B 6069  20.455  10.705   7.953
 5215POPC   C4B 6070  20.409  10.738   7.653
 5216POPC   NC3 6071  15.166  43.076   9.453
 5216POPC   PO4 6072  15.136  43.095   9.153
 5216POPC   GL1 6073  15.150  43.081   8.853
 5216POPC   GL2 6074  15.255  43.149   8.853
 5216POPC   C1A 6075  15.132  43.071   8.553
 5216POPC   D2A 6076  15.209  43.138   8.253
 5216POPC   C3A 6077  15.191  43.137   7.953
 5216POPC   C4A 6078  15.228  43.089   7.653
 5216POPC   C1B 6079  15.444  43.182   8.553
 5216POPC   C2B 6080  15.415  43.166   8.253
 5216POPC   C3B 6081  15.448  43.163   7.953
 5216POPC   C4B 6082  15.398  43.132   7.653
 5217POPC   NC3 6083  33.778   6.644   9.453
 5217POPC   PO4 6084  33.833   6.643   9.153
 5217POPC   GL1 6085  33.785   6.657   8.853
 5217POPC   GL2 6086  33.707   6.598   8.853
 5217POPC   C1A 6087  33.798   6.685   8.553
 5217POPC   D2A 6088  33.848   6.682   8.253
 5217POPC   C3A 6089  33.752   6.647   7.953
 5217POPC   C4A 6090  33.836   6.694   7.653
 5217POPC   C1B 6091  33.530   6.629   8.553
 5217POPC   C2B 6092  33.599   6.585   8.253
 5217POPC   C3B 6093  33.526   6.610   7.953
 5217POPC   C4B 6094  33.564   6.575   7.653
 5218POPC   NC3 6095  42.369  35.324   9.453
 5218POPC   PO4 6096  42.338  35.384   9.153
 5218POPC   GL1 6097  42.344  35.359   8.853
 5218POPC   GL2 6098  42.319  35.282   8.853
 5218POPC   C1A 6099  42.350  35.308   8.553
 5218POPC   D2A 6100  42.376  35.356   8.253
 5218POPC   C3A 6101  42.304  35.351   7.953
 5218POPC   C4A 6102  42.326  35.354   7.653
 5218POPC   C1B 6103  42.216  35.154   8.553
 5218POPC   C2B 6104  42.249  35.126   8.253
 5218POPC   C3B 6105  42.208  35.100   7.953
 5218POPC   C4B 6106  42.256  35.095   7.653
 5219POPC   NC3 6107   9.736  35.354   9.453
 5219POPC   PO4 6108   9.789  35.342   9.153
 5219POPC   GL1 6109   9.746  35.382   8.853
 5219POPC   GL2 6110   9.636  35.229   8.853
 5219POPC   C1A 6111   9.745  35.337   8.553
 5219POPC   D2A 6112   9.714  35.346   8.253
 5219POPC   C3A 6113   9.796  35.356   7.953
 5219POPC   C4A 6114   9.698  35.333   7.653
 5219POPC   C1B 6115   9.627  35.162   8.553
 5219POPC   C2B 6116   9.546  35.177   8.253
 5219POPC   C3B 6117   9.594  35.166   7.953
 5219POPC   C4B 6118   9.581  35.134   7.653
 5220POPC   NC3 6119  12.844  24.503   9.453
 5220POPC   PO4 6120  12.827  24.497   9.153
 5220POPC   GL1 6121  12.827  24.501   8.853
 5220POPC   GL2 6122  12.849  24.371   8.853
 5220POPC   C1A 6123  12.834  24.453   8.553
 5220POPC   D2A 6124  12.811  24.502   8.253
 5220POPC   C3A 6125  12.841  24.462   7.953
 5220POPC   C4A 6126  12.899  24.539   7.653
 5220POPC   C1B 6127  12.824  24.219   8.553
 5220POPC   C2B 6128  12.836  24.253   8.253
 5220POPC   C3B 6129  12.796  24.223   7.953
 5220POPC   C4B 6130  12.837  24.231   7.653
 5221POPC   NC3 6131  32.231   9.007   9.453
 5221POPC   PO4 6132  32.237   8.942   9.153
 5221POPC   GL1 6133  32.260   9.016   8.853
 5221POPC   GL2 6134  32.170   8.855   8.853
 5221POPC   C1A 6135  32.260   8.935   8.553
 5221POPC   D2A 6136  32.232   9.010   8.253
 5221POPC   C3A 6137  32.210   9.020   7.953
 5221POPC   C4A 6138  32.209   8.940   7.653
 5221POPC   C1B 6139  32.096   8.770   8.553
 5221POPC   C2B 6140  32.103   8.783   8.253
 5221POPC   C3B 6141  32.058   8.796   7.953
 5221POPC   C4B 6142  32.102   8.732   7.653
 5222POPC   NC3 6143  12.889  38.415   9.453
 5222POPC   PO4 6144  12.862  38.464   9.153
 5222POPC   GL1 6145  12.812  38.472   8.853
 5222POPC   GL2 6146  12.862  38.521   8.853
 5222POPC   C1A 6147  12.885  38.411   8.553
 5222POPC   D2A 6148  12.844  38.458   8.253
 5222POPC   C3A 6149  12.851  38.496   7.953
 5222POPC   C4A 6150  12.850  38.424   7.653
 5222POPC   C1B 6151  12.919  38.631   8.553
 5222POPC   C2B 6152  12.949  38.651   8.253
 5222POPC   C3B 6153  13.004  38.719   7.953
 5222POPC   C4B 6154  12.945  38.683   7.653
 5223POPC   NC3 6155   3.515   5.052   9.453
 5223POPC   PO4 6156   3.573   5.110   9.153
 5223POPC   GL1 6157   3.539   5.064   8.853
 5223POPC   GL2 6158   3.623   5.107   8.853
 5223POPC   C1A 6159   3.562   5.139   8.553
 5223POPC   D2A 6160   3.551   5.047   8.253
 5223POPC   C3A 6161   3.498   5.076   7.953
 5223POPC   C4A 6162   3.541   5.128   7.653
 5223POPC   C1B 6163   3.744   5.057   8.553
 5223POPC   C2B 6164   3.813   5.031   8.253
 5223POPC   C3B 6165   3.835   5.005   7.953
 5223POPC   C4B 6166   3.816   5.079   7.653
 5224POPC   NC3 6167  22.125  22.963   9.453
 5224POPC   PO4 6168  22.118  22.986   9.153
 5224POPC   GL1 6169  22.139  22.934   8.853
 5224POPC   GL2 6170  22.266  22.992   8.853
 5224POPC   C1A 6171  22.171  22.913   8.553
 5224POPC   D2A 6172  22.122  22.917   8.253
 5224POPC   C3A 6173  22.167  22.984   7.953
 5224POPC   C4A 6174  22.114  22.888   7.653
 5224POPC   C1B 6175  22.377  23.058   8.553
 5224POPC   C2B 6176  22.332  23.060   8.253
 5224POPC   C3B 6177  22.336  23.107   7.953
 5224POPC   C4B 6178  22.379  23.067   7.653
 5225POPC   NC3 6179  15.957   9.725   9.453
 5225POPC   PO4 6180  15.937   9.764   9.153
 5225POPC   GL1 6181  15.991   9.752   8.853
 5225POPC   GL2 6182  15.944   9.832   8.853
 5225POPC   C1A 6183  15.922   9.763   8.553
 5225POPC   D2A 6184  16.005   9.765   8.253
 5225POPC   C3A 6185  15.966   9.703   7.953
 5225POPC   C4A 6186  15.915   9.741   7.653
 5225POPC   C1B 6187  15.827  10.008   8.553
 5225POPC   C2B 6188  15.801   9.928   8.253
 5225POPC   C3B 6189  15.863   9.953   7.953
 5225POPC   C4B 6190  15.871   9.938   7.653
 5226POPC   NC3 6191  12.815  19.068   9.453
 5226POPC   PO4 6192  12.839  19.064   9.153
 5226POPC   GL1 6193  12.880  19.018   8.853
 5226POPC   GL2 6194  12.870  18.952   8.853
 5226POPC   C1A 6195  12.820  19.107   8.553
 5226POPC   D2A 6196  12.837  19.069   8.253
 5226POPC   C3A 6197  12.806  19.078   7.953
 5226POPC   C4A 6198  12.889  19.073   7.653
 5226POPC   C1B 6199  12.802  18.773   8.553
 5226POPC   C2B 6200  12.813  18.785   8.253
 5226POPC   C3B 6201  12.874  18.762   7.953
 5226POPC   C4B 6202  12.807  18.803   7.653
 5227POPC   NC3 6203  32.267  12.069   9.453
 5227POPC   PO4 6204  32.288  12.125   9.153
 5227POPC   GL1 6205  32.291  12.039   8.853
 5227POPC   GL2 6206  32.308  12.142   8.853
 5227POPC   C1A 6207  32.273  12.027   8.553
 5227POPC   D2A 6208  32.201  12.064   8.253
 5227POPC   C3A 6209  32.232  12.035   7.953
 5227POPC   C4A 6210  32.253  12.038   7.653
 5227POPC   C1B 6211  32.386  12.233   8.553
 5227POPC   C2B 6212  32.421  12.290   8.253
 5227POPC   C3B 6213  32.440  12.253   7.953
 5227POPC   C4B 6214  32.434  12.240   7.653
 5228POPC   NC3 6215  21.383  18.295   9.453
 5228POPC   PO4 6216  21.351  18.269   9.153
 5228POPC   GL1 6217  21.416  18.283   8.853
 5228POPC   GL2 6218  21.338  18.196   8.853
 5228POPC   C1A 6219  21.386  18.275   8.553
 5228POPC   D2A 6220  21.394  18.291   8.253
 5228POPC   C3A 6221  21.399  18.281   7.953
 5228POPC   C4A 6222  21.400  18.327   7.653
 5228POPC   C1B 6223  21.207  18.078   8.553
 5228POPC   C2B 6224  21.215  18.099   8.253
 5228POPC   C3B 6225  21.258  18.136   7.953
 5228POPC   C4B 6226  21.207  18.130   7.653
 5229POPC   NC3 6227  32.979  26.771   9.453
 5229POPC   PO4 6228  33.035  26.826   9.153
 5229POPC   GL1 6229  33.006  26.788   8.853
 5229POPC   GL2 6230  33.005  26.713   8.853
 5229POPC   C1A 6231  33.015  26.825   8.553
 5229POPC   D2A 6232  32.977  26.808   8.253
 5229POPC   C3A 6233  33.072  26.831   7.953
 5229POPC   C4A 6234  32.993  26.809   7.653
 5229POPC   C1B 6235  32.968  26.576   8.553
 5229POPC   C2B 6236  32.931  26.545   8.253
 5229POPC   C3B 6237  32.939  26.582   7.953
 5229POPC   C4B 6238  32.903  26.536   7.653
 5230POPC   NC3 6239   5.831  12.115   9.453
 5230POPC   PO4 6240   5.913  12.067   9.153
 5230POPC   GL1 6241   5.896  12.087   8.853
 5230POPC   GL2 6242   5.979  12.068   8.853
 5230POPC   C1A 6243   5.868  12.069   8.553
 5230POPC   D2A 6244   5.851  12.085   8.253
 5230POPC   C3A 6245   5.898  12.069   7.953
 5230POPC   C4A 6246   5.865  12.116   7.653
 5230POPC   C1B 6247   6.104  12.023   8.553
 5230POPC   C2B 6248   6.086  12.103   8.253
 5230POPC   C3B 6249   6.158  12.076   7.953
 5230POPC   C4B 6250   6.096  12.021   7.653
 5231POPC   NC3 6251  43.908   1.982   9.453
 5231POPC   PO4 6252  43.902   2.000   9.153
 5231POPC   GL1 6253  43.933   1.967   8.853
 5231POPC   GL2 6254  43.755   2.081   8.853
 5231POPC   C1A 6255  43.898   1.949   8.553
 5231POPC   D2A 6256  43.913   2.005   8.253
 5231POPC   C3A 6257  43.897   2.027   7.953
 5231POPC   C4A 6258  43.923   2.024   7.653
 5231POPC   C1B 6259  43.734   2.216   8.553
 5231POPC   C2B 6260  43.757   2.207   8.253
 5231POPC   C3B 6261  43.705   2.176   7.953
 5231POPC   C4B 6262  43.736   2.124   7.653
 5232POPC   NC3 6263  32.267  35.338   9.453
 5232POPC   PO4 6264  32.246  35.312   9.153
 5232POPC   GL1 6265  32.295  35.313   8.853
 5232POPC   GL2 6266  32.188  35.193   8.853
 5232POPC   C1A 6267  32.207  35.306   8.553
 5232POPC   D2A 6268  32.268  35.357   8.253
 5232POPC   C3A 6269  32.217  35.387   7.953
 5232POPC   C4A 6270  32.217  35.361   7.653
 5232POPC   C1B 6271  32.127  35.099   8.553
 5232POPC   C2B 6272  32.114  35.168   8.253
 5232POPC   C3B 6273  32.090  35.148   7.953
 5232POPC   C4B 6274  32.108  35.170   7.653
 5233POPC   NC3 6275  40.777  44.704   9.453
 5233POPC   PO4 6276  40.816  44.619   9.153
 5233POPC   GL1 6277  40.737  44.631   8.853
 5233POPC   GL2 6278  40.871  44.739   8.853
 5233POPC   C1A 6279  40.770  44.620   8.553
 5233POPC   D2A 6280  40.824  44.649   8.253
 5233POPC   C3A 6281  40.828  44.650   7.953
 5233POPC   C4A 6282  40.754  44.670   7.653
 5233POPC   C1B 6283  41.055  44.743   8.553
 5233POPC   C2B 6284  41.000  44.770   8.253
 5233POPC   C3B 6285  41.049  44.783   7.953
 5233POPC   C4B 6286  40.983  44.796   7.653
 5234POPC   NC3 6287  27.599  24.517   9.453
 5234POPC   PO4 6288  27.585  24.464   9.153
 5234POPC   GL1 6289  27.614  24.480   8.853
 5234POPC   GL2 6290  27.731  24.423   8.853
 5234POPC   C1A 6291  27.599  24.505   8.553
 5234POPC   D2A 6292  27.567  24.500   8.253
 5234POPC   C3A 6293  27.633  24.494   7.953
 5234POPC   C4A 6294  27.639  24.498   7.653
 5234POPC   C1B 6295  27.728  24.367   8.553
 5234POPC   C2B 6296  27.805  24.353   8.253
 5234POPC   C3B 6297  27.792  24.340   7.953
 5234POPC   C4B 6298  27.758  24.319   7.653
 5235POPC   NC3 6299   7.372  25.287   9.453
 5235POPC   PO4 6300   7.382  25.260   9.153
 5235POPC   GL1 6301   7.449  25.241   8.853
 5235POPC   GL2 6302   7.366  25.421   8.853
 5235POPC   C1A 6303   7.402  25.239   8.553
 5235POPC   D2A 6304   7.417  25.240   8.253
 5235POPC   C3A 6305   7.447  25.294   7.953
 5235POPC   C4A 6306   7.424  25.273   7.653
 5235POPC   C1B 6307   7.422  25.557   8.553
 5235POPC   C2B 6308   7.381  25.528   8.253
 5235POPC   C3B 6309   7.365  25.512   7.953
 5235POPC   C4B 6310   7.394  25.483   7.653
 5236POPC   NC3 6311   7.397  14.356   9.453
 5236POPC   PO4 6312   7.410  14.391   9.153
 5236POPC   GL1 6313   7.430  14.381   8.853
 5236POPC   GL2 6314   7.274  14.341   8.853
 5236POPC   C1A 6315   7.462  14.370   8.553
 5236POPC   D2A 6316   7.470  14.424   8.253
 5236POPC   C3A 6317   7.447  14.430   7.953
 5236POPC   C4A 6318   7.381  14.411   7.653
 5236POPC   C1B 6319   7.226  14.305   8.553
 5236POPC   C2B 6320   7.170  14.331   8.253
 5236POPC   C3B 6321   7.229  14.266   7.953
 5236POPC   C4B 6322   7.201  14.244   7.653
 5237POPC   NC3 6323  38.422  40.775   9.453
 5237POPC   PO4 6324  38.489  40.797   9.153
 5237POPC   GL1 6325  38.406  40.778   8.853
 5237POPC   GL2 6326  38.496  40.626   8.853
 5237POPC   C1A 6327  38.491  40.810   8.553
 5237POPC   D2A 6328  38.435  40.736   8.253
 5237POPC   C3A 6329  38.470  40.832   7.953
 5237POPC   C4A 6330  38.434  40.752   7.653
 5237POPC   C1B 6331  38.527  40.495   8.553
 5237POPC   C2B 6332  38.506  40.571   8.253
 5237POPC   C3B 6333  38.526  40.526   7.953
 5237POPC   C4B 6334  38.445  40.516   7.653
 5238POPC   NC3 6335  11.346  19.101   9.453
 5238POPC   PO4 6336  11.326  19.108   9.153
 5238POPC   GL1 6337  11.271  19.071   8.853
 5238POPC   GL2 6338  11.282  18.954   8.853
 5238POPC   C1A 6339  11.345  19.075   8.553
 5238POPC   D2A 6340  11.341  19.029   8.253
 5238POPC   C3A 6341  11.291  19.031   7.953
 5238POPC   C4A 6342  11.323  19.040   7.653
 5238POPC   C1B 6343  11.265  18.816   8.553
 5238POPC   C2B 6344  11.175  18.778   8.253
 5238POPC   C3B 6345  11.246  18.826   7.953
 5238POPC   C4B 6346  11.256  18.864   7.653
 5239POPC   NC3 6347  13.580  25.247   9.453
 5239POPC   PO4 6348  13.587  25.253   9.153
 5239POPC   GL1 6349  13.654  25.231   8.853
 5239POPC   GL2 6350  13.651  25.400   8.853
 5239POPC   C1A 6351  13.620  25.309   8.553
 5239POPC   D2A 6352  13.642  25.242   8.253
 5239POPC   C3A 6353  13.600  25.232   7.953
 5239POPC   C4A 6354  13.664  25.308   7.653
 5239POPC   C1B 6355  13.702  25.514   8.553
 5239POPC   C2B 6356  13.746  25.463   8.253
 5239POPC   C3B 6357  13.719  25.534   7.953
 5239POPC   C4B 6358  13.700  25.498   7.653
 5240POPC   NC3 6359  21.397  15.925   9.453
 5240POPC   PO4 6360  21.397  15.988   9.153
 5240POPC   GL1 6361  21.383  15.937   8.853
 5240POPC   GL2 6362  21.233  15.949   8.853
 5240POPC   C1A 6363  21.367  15.957   8.553
 5240POPC   D2A 6364  21.367  15.923   8.253
 5240POPC   C3A 6365  21.385  15.998   7.953
 5240POPC   C4A 6366  21.394  15.995   7.653
 5240POPC   C1B 6367  21.174  15.983   8.553
 5240POPC   C2B 6368  21.164  15.952   8.253
 5240POPC   C3B 6369  21.156  15.922   7.953
 5240POPC   C4B 6370  21.111  15.920   7.653
 5241POPC   NC3 6371  29.114  44.684   9.453
 5241POPC   PO4 6372  29.123  44.612   9.153
 5241POPC   GL1 6373  29.180  44.620   8.853
 5241POPC   GL2 6374  29.240  44.769   8.853
 5241POPC   C1A 6375  29.148  44.626   8.553
 5241POPC   D2A 6376  29.170  44.681   8.253
 5241POPC   C3A 6377  29.186  44.616   7.953
 5241POPC   C4A 6378  29.134  44.699   7.653
 5241POPC   C1B 6379  29.388  44.808   8.553
 5241POPC   C2B 6380  29.306  44.808   8.253
 5241POPC   C3B 6381  29.364  44.833   7.953
 5241POPC   C4B 6382  29.376  44.847   7.653
 5242POPC   NC3 6383  17.482   9.787   9.453
 5242POPC   PO4 6384  17.516   9.748   9.153
 5242POPC   GL1 6385  17.514   9.782   8.853
 5242POPC   GL2 6386  17.491   9.902   8.853
 5242POPC   C1A 6387  17.541   9.774   8.553
 5242POPC   D2A 6388  17.476   9.796   8.253
 5242POPC   C3A 6389  17.463   9.783   7.953
 5242POPC   C4A 6390  17.527   9.755   7.653
 5242POPC   C1B 6391  17.524  10.036   8.553
 5242POPC   C2B 6392  17.593  10.009   8.253
 5242POPC   C3B 6393  17.520   9.980   7.953
 5242POPC   C4B 6394  17.571   9.986   7.653
 5243POPC   NC3 6395  31.515  38.467   9.453
 5243POPC   PO4 6396  31.459  38.483   9.153
 5243POPC   GL1 6397  31.498  38.501   8.853
 5243POPC   GL2 6398  31.433  38.296   8.853
 5243POPC   C1A 6399  31.457  38.432   8.553
 5243POPC   D2A 6400  31.489  38.454   8.253
 5243POPC   C3A 6401  31.520  38.435   7.953
 5243POPC   C4A 6402  31.472  38.429   7.653
 5243POPC   C1B 6403  31.470  38.161   8.553
 5243POPC   C2B 6404  31.446  38.176   8.253
 5243POPC   C3B 6405  31.397  38.174   7.953
 5243POPC   C4B 6406  31.454  38.187   7.653
 5244POPC   NC3 6407   3.514  10.536   9.453
 5244POPC   PO4 6408   3.546  10.547   9.153
 5244POPC   GL1 6409   3.511  10.542   8.853
 5244POPC   GL2 6410   3.576  10.606   8.853
 5244POPC   C1A 6411   3.581  10.486   8.553
 5244POPC   D2A 6412   3.575  10.531   8.253
 5244POPC   C3A 6413   3.546  10.567   7.953
 5244POPC   C4A 6414   3.497  10.507   7.653
 5244POPC   C1B 6415   3.677  10.695   8.553
 5244POPC   C2B 6416   3.659  10.703   8.253
 5244POPC   C3B 6417   3.672  10.721   7.953
 5244POPC   C4B 6418   3.654  10.730   7.653
 5245POPC   NC3 6419  16.005  21.348   9.453
 5245POPC   PO4 6420  15.952  21.430   9.153
 5245POPC   GL1 6421  15.949  21.434   8.853
 5245POPC   GL2 6422  15.858  21.367   8.853
 5245POPC   C1A 6423  15.937  21.375   8.553
 5245POPC   D2A 6424  15.926  21.348   8.253
 5245POPC   C3A 6425  15.910  21.418   7.953
 5245POPC   C4A 6426  16.003  21.407   7.653
 5245POPC   C1B 6427  15.766  21.242   8.553
 5245POPC   C2B 6428  15.737  21.285   8.253
 5245POPC   C3B 6429  15.717  21.320   7.953
 5245POPC   C4B 6430  15.725  21.314   7.653
 5246POPC   NC3 6431   1.239  22.136   9.453
 5246POPC   PO4 6432   1.232  22.209   9.153
 5246POPC   GL1 6433   1.164  22.139   8.853
 5246POPC   GL2 6434   1.198  22.319   8.853
 5246POPC   C1A 6435   1.235  22.130   8.553
 5246POPC   D2A 6436   1.195  22.113   8.253
 5246POPC   C3A 6437   1.225  22.158   7.953
 5246POPC   C4A 6438   1.196  22.170   7.653
 5246POPC   C1B 6439   1.314  22.450   8.553
 5246POPC   C2B 6440   1.263  22.415   8.253
 5246POPC   C3B 6441   1.259  22.380   7.953
 5246POPC   C4B 6442   1.278  22.375   7.653
 5247POPC   NC3 6443  10.528  12.040   9.453
 5247POPC   PO4 6444  10.530  12.048   9.153
 5247POPC   GL1 6445  10.491  12.033   8.853
 5247POPC   GL2 6446  10.406  12.097   8.853
 5247POPC   C1A 6447  10.498  12.040   8.553
 5247POPC   D2A 6448  10.557  12.104   8.253
 5247POPC   C3A 6449  10.573  12.048   7.953
 5247POPC   C4A 6450  10.530  12.088   7.653
 5247POPC   C1B 6451  10.250  12.104   8.553
 5247POPC   C2B 6452  10.236  12.031   8.253
 5247POPC   C3B 6453  10.256  12.048   7.953
 5247POPC   C4B 6454  10.254  12.045   7.653
 5248POPC   NC3 6455  43.933  23.729   9.453
 5248POPC   PO4 6456  43.843  23.754   9.153
 5248POPC   GL1 6457  43.871  23.752   8.853
 5248POPC   GL2 6458  43.846  23.560   8.853
 5248POPC   C1A 6459  43.860  23.694   8.553
 5248POPC   D2A 6460  43.875  23.737   8.253
 5248POPC   C3A 6461  43.851  23.728   7.953
 5248POPC   C4A 6462  43.868  23.701   7.653
 5248POPC   C1B 6463  43.822  23.441   8.553
 5248POPC   C2B 6464  43.785  23.456   8.253
 5248POPC   C3B 6465  43.733  23.523   7.953
 5248POPC   C4B 6466  43.754  23.462   7.653
 5249POPC   NC3 6467  19.106   3.533   9.453
 5249POPC   PO4 6468  19.034   3.515   9.153
 5249POPC   GL1 6469  19.104   3.528   8.853
 5249POPC   GL2 6470  19.026   3.423   8.853
 5249POPC   C1A 6471  19.012   3.552   8.553
 5249POPC   D2A 6472  19.043   3.559   8.253
 5249POPC   C3A 6473  19.021   3.554   7.953
 5249POPC   C4A 6474  19.099   3.507   7.653
 5249POPC   C1B 6475  18.933   3.345   8.553
 5249POPC   C2B 6476  18.969   3.260   8.253
 5249POPC   C3B 6477  19.017   3.300   7.953
 5249POPC   C4B 6478  18.932   3.293   7.653
 5250POPC   NC3 6479  37.700  42.326   9.453
 5250POPC   PO4 6480  37.661  42.325   9.153
 5250POPC   GL1 6481  37.710  42.285   8.853
 5250POPC   GL2 6482  37.598  42.312   8.853
 5250POPC   C1A 6483  37.656  42.370   8.553
 5250POPC   D2A 6484  37.717  42.369   8.253
 5250POPC   C3A 6485  37.664  42.351   7.953
 5250POPC   C4A 6486  37.716  42.374   7.653
 5250POPC   C1B 6487  37.457  42.322   8.553
 5250POPC   C2B 6488  37.399  42.237   8.253
 5250POPC   C3B 6489  37.475  42.251   7.953
 5250POPC   C4B 6490  37.422  42.240   7.653
 5251POPC   NC3 6491  40.038  32.975   9.453
 5251POPC   PO4 6492  39.996  33.059   9.153
 5251POPC   GL1 6493  40.056  32.999   8.853
 5251POPC   GL2 6494  40.091  32.992   8.853
 5251POPC   C1A 6495  39.962  33.002   8.553
 5251POPC   D2A 6496  39.983  33.067   8.253
 5251POPC   C3A 6497  39.972  32.985   7.953
 5251POPC   C4A 6498  39.980  32.989   7.653
 5251POPC   C1B 6499  40.246  33.024   8.553
 5251POPC   C2B 6500  40.266  33.089   8.253
 5251POPC   C3B 6501  40.259  33.075   7.953
 5251POPC   C4B 6502  40.219  33.016   7.653
 5252POPC   NC3 6503   5.887  35.343   9.453
 5252POPC   PO4 6504   5.881  35.379   9.153
 5252POPC   GL1 6505   5.901  35.368   8.853
 5252POPC   GL2 6506   5.843  35.257   8.853
 5252POPC   C1A 6507   5.908  35.358   8.553
 5252POPC   D2A 6508   5.878  35.310   8.253
 5252POPC   C3A 6509   5.845  35.321   7.953
 5252POPC   C4A 6510   5.849  35.340   7.653
 5252POPC   C1B 6511   5.945  35.114   8.553
 5252POPC   C2B 6512   5.947  35.064   8.253
 5252POPC   C3B 6513   5.943  35.127   7.953
 5252POPC   C4B 6514   5.951  35.094   7.653
 5253POPC   NC3 6515  22.181  26.844   9.453
 5253POPC   PO4 6516  22.168  26.855   9.153
 5253POPC   GL1 6517  22.201  26.783   8.853
 5253POPC   GL2 6518  22.199  26.927   8.853
 5253POPC   C1A 6519  22.116  26.861   8.553
 5253POPC   D2A 6520  22.131  26.829   8.253
 5253POPC   C3A 6521  22.181  26.837   7.953
 5253POPC   C4A 6522  22.127  26.803   7.653
 5253POPC   C1B 6523  22.168  27.033   8.553
 5253POPC   C2B 6524  22.162  27.040   8.253
 5253POPC   C3B 6525  22.157  27.034   7.953
 5253POPC   C4B 6526  22.215  27.072   7.653
 5254POPC   NC3 6527   1.240  21.362   9.453
 5254POPC   PO4 6528   1.171  21.370   9.153
 5254POPC   GL1 6529   1.226  21.435   8.853
 5254POPC   GL2 6530   1.075  21.341   8.853
 5254POPC   C1A 6531   1.261  21.365   8.553
 5254POPC   D2A 6532   1.174  21.428   8.253
 5254POPC   C3A 6533   1.166  21.341   7.953
 5254POPC   C4A 6534   1.245  21.361   7.653
 5254POPC   C1B 6535   0.972  21.359   8.553
 5254POPC   C2B 6536   0.967  21.325   8.253
 5254POPC   C3B 6537   0.978  21.366   7.953
 5254POPC   C4B 6538   0.998  21.369   7.653
 5255POPC   NC3 6539  40.009  15.960   9.453
 5255POPC   PO4 6540  40.033  16.005   9.153
 5255POPC   GL1 6541  39.974  15.999   8.853
 5255POPC   GL2 6542  40.154  15.917   8.853
 5255POPC   C1A 6543  40.056  15.965   8.553
 5255POPC   D2A 6544  39.969  15.952   8.253
 5255POPC   C3A 6545  40.033  15.906   7.953
 5255POPC   C4A 6546  40.027  16.003   7.653
 5255POPC   C1B 6547  40.298  15.999   8.553
 5255POPC   C2B 6548  40.232  15.978   8.253
 5255POPC   C3B 6549  40.218  15.995   7.953
 5255POPC   C4B 6550  40.241  15.904   7.653
 5256POPC   NC3 6551  34.573  31.512   9.453
 5256POPC   PO4 6552  34.533  31.489   9.153
 5256POPC   GL1 6553  34.532  31.446   8.853
 5256POPC   GL2 6554  34.726  31.508   8.853
 5256POPC   C1A 6555  34.584  31.428   8.553
 5256POPC   D2A 6556  34.570  31.478   8.253
 5256POPC   C3A 6557  34.544  31.441   7.953
 5256POPC   C4A 6558  34.598  31.459   7.653
 5256POPC   C1B 6559  34.830  31.591   8.553
 5256POPC   C2B 6560  34.775  31.583   8.253
 5256POPC   C3B 6561  34.831  31.585   7.953
 5256POPC   C4B 6562  34.797  31.542   7.653
 5257POPC   NC3 6563  17.472  42.371   9.453
 5257POPC   PO4 6564  17.475  42.351   9.153
 5257POPC   GL1 6565  17.522  42.313   8.853
 5257POPC   GL2 6566  17.429  42.199   8.853
 5257POPC   C1A 6567  17.457  42.326   8.553
 5257POPC   D2A 6568  17.542  42.380   8.253
 5257POPC   C3A 6569  17.509  42.341   7.953
 5257POPC   C4A 6570  17.462  42.380   7.653
 5257POPC   C1B 6571  17.323  42.111   8.553
 5257POPC   C2B 6572  17.391  42.174   8.253
 5257POPC   C3B 6573  17.379  42.122   7.953
 5257POPC   C4B 6574  17.358  42.122   7.653
 5258POPC   NC3 6575  28.355  15.983   9.453
 5258POPC   PO4 6576  28.388  15.957   9.153
 5258POPC   GL1 6577  28.360  15.997   8.853
 5258POPC   GL2 6578  28.339  16.080   8.853
 5258POPC   C1A 6579  28.410  15.909   8.553
 5258POPC   D2A 6580  28.393  15.947   8.253
 5258POPC   C3A 6581  28.389  15.921   7.953
 5258POPC   C4A 6582  28.419  15.978   7.653
 5258POPC   C1B 6583  28.241  16.148   8.553
 5258POPC   C2B 6584  28.267  16.210   8.253
 5258POPC   C3B 6585  28.294  16.133   7.953
 5258POPC   C4B 6586  28.229  16.183   7.653
 5259POPC   NC3 6587  43.887  30.665   9.453
 5259POPC   PO4 6588  43.845  30.722   9.153
 5259POPC   GL1 6589  43.866  30.735   8.853
 5259POPC   GL2 6590  43.782  30.626   8.853
 5259POPC   C1A 6591  43.891  30.734   8.553
 5259POPC   D2A 6592  43.869  30.698   8.253
 5259POPC   C3A 6593  43.840  30.657   7.953
 5259POPC   C4A 6594  43.934  30.665   7.653
 5259POPC   C1B 6595  43.670  30.588   8.553
 5259POPC   C2B 6596  43.629  30.592   8.253
 5259POPC   C3B 6597  43.646  30.629   7.953
 5259POPC   C4B 6598  43.636  30.546   7.653
 5260POPC   NC3 6599  24.450   9.775   9.453
 5260POPC   PO4 6600  24.497   9.773   9.153
 5260POPC   GL1 6601  24.523   9.770   8.853
 5260POPC   GL2 6602  24.391   9.832   8.853
 5260POPC   C1A 6603  24.479   9.754   8.553
 5260POPC   D2A 6604  24.488   9.732   8.253
 5260POPC   C3A 6605  24.473   9.720   7.953
 5260POPC   C4A 6606  24.450   9.766   7.653
 5260POPC   C1B 6607  24.330   9.897   8.553
 5260POPC   C2B 6608  24.312   9.924   8.253
 5260POPC   C3B 6609  24.271   9.953   7.953
 5260POPC   C4B 6610  24.306   9.912   7.653
 5261POPC   NC3 6611   1.197  43.930   9.453
 5261POPC   PO4 6612   1.211  43.859   9.153
 5261POPC   GL1 6613   1.241  43.923   8.853
 5261POPC   GL2 6614   1.108  43.865   8.853
 5261POPC   C1A 6615   1.237  43.883   8.553
 5261POPC   D2A 6616   1.193  43.895   8.253
 5261POPC   C3A 6617   1.223  43.935   7.953
 5261POPC   C4A 6618   1.173  43.915   7.653
 5261POPC   C1B 6619   0.945  43.897   8.553
 5261POPC   C2B 6620   0.972  43.921   8.253
 5261POPC   C3B 6621   0.942  43.932   7.953
 5261POPC   C4B 6622   1.003  43.880   7.653
 5262POPC   NC3 6623   2.019  33.755   9.453
 5262POPC   PO4 6624   2.008  33.828   9.153
 5262POPC   GL1 6625   2.010  33.772   8.853
 5262POPC   GL2 6626   2.026  33.909   8.853
 5262POPC   C1A 6627   2.019  33.784   8.553
 5262POPC   D2A 6628   1.951  33.831   8.253
 5262POPC   C3A 6629   1.985  33.807   7.953
 5262POPC   C4A 6630   1.987  33.785   7.653
 5262POPC   C1B 6631   2.073  34.067   8.553
 5262POPC   C2B 6632   2.095  33.990   8.253
 5262POPC   C3B 6633   2.129  33.998   7.953
 5262POPC   C4B 6634   2.060  34.002   7.653
 5263POPC   NC3 6635  26.003  36.891   9.453
 5263POPC   PO4 6636  26.049  36.860   9.153
 5263POPC   GL1 6637  26.013  36.895   8.853
 5263POPC   GL2 6638  25.893  36.920   8.853
 5263POPC   C1A 6639  26.073  36.913   8.553
 5263POPC   D2A 6640  26.034  36.936   8.253
 5263POPC   C3A 6641  26.043  36.884   7.953
 5263POPC   C4A 6642  26.039  36.869   7.653
 5263POPC   C1B 6643  25.749  36.904   8.553
 5263POPC   C2B 6644  25.812  36.862   8.253
 5263POPC   C3B 6645  25.767  36.911   7.953
 5263POPC   C4B 6646  25.826  36.853   7.653
 5264POPC   NC3 6647  34.602   5.103   9.453
 5264POPC   PO4 6648  34.552   5.116   9.153
 5264POPC   GL1 6649  34.549   5.136   8.853
 5264POPC   GL2 6650  34.630   5.012   8.853
 5264POPC   C1A 6651  34.586   5.055   8.553
 5264POPC   D2A 6652  34.547   5.108   8.253
 5264POPC   C3A 6653  34.535   5.093   7.953
 5264POPC   C4A 6654  34.571   5.138   7.653
 5264POPC   C1B 6655  34.822   4.915   8.553
 5264POPC   C2B 6656  34.782   4.930   8.253
 5264POPC   C3B 6657  34.802   4.910   7.953
 5264POPC   C4B 6658  34.788   4.957   7.653
 5265POPC   NC3 6659   3.575  33.750   9.453
 5265POPC   PO4 6660   3.577  33.775   9.153
 5265POPC   GL1 6661   3.493  33.846   8.853
 5265POPC   GL2 6662   3.482  33.831   8.853
 5265POPC   C1A 6663   3.581  33.839   8.553
 5265POPC   D2A 6664   3.550  33.809   8.253
 5265POPC   C3A 6665   3.571  33.772   7.953
 5265POPC   C4A 6666   3.560  33.812   7.653
 5265POPC   C1B 6667   3.303  33.946   8.553
 5265POPC   C2B 6668   3.309  33.954   8.253
 5265POPC   C3B 6669   3.343  33.931   7.953
 5265POPC   C4B 6670   3.306  33.989   7.653
 5266POPC   NC3 6671  27.570  12.882   9.453
 5266POPC   PO4 6672  27.590  12.807   9.153
 5266POPC   GL1 6673  27.620  12.866   8.853
 5266POPC   GL2 6674  27.510  12.900   8.853
 5266POPC   C1A 6675  27.633  12.896   8.553
 5266POPC   D2A 6676  27.639  12.877   8.253
 5266POPC   C3A 6677  27.583  12.884   7.953
 5266POPC   C4A 6678  27.615  12.862   7.653
 5266POPC   C1B 6679  27.424  12.997   8.553
 5266POPC   C2B 6680  27.353  12.982   8.253
 5266POPC   C3B 6681  27.402  13.025   7.953
 5266POPC   C4B 6682  27.353  12.989   7.653
 5267POPC   NC3 6683  28.417  32.213   9.453
 5267POPC   PO4 6684  28.385  32.244   9.153
 5267POPC   GL1 6685  28.406  32.259   8.853
 5267POPC   GL2 6686  28.373  32.383   8.853
 5267POPC   C1A 6687  28.408  32.247   8.553
 5267POPC   D2A 6688  28.418  32.255   8.253
 5267POPC   C3A 6689  28.400  32.217   7.953
 5267POPC   C4A 6690  28.362  32.203   7.653
 5267POPC   C1B 6691  28.474  32.501   8.553
 5267POPC   C2B 6692  28.487  32.498   8.253
 5267POPC   C3B 6693  28.436  32.464   7.953
 5267POPC   C4B 6694  28.426  32.440   7.653
 5268POPC   NC3 6695  43.095  12.893   9.453
 5268POPC   PO4 6696  43.147  12.822   9.153
 5268POPC   GL1 6697  43.095  12.848   8.853
 5268POPC   GL2 6698  42.976  12.761   8.853
 5268POPC   C1A 6699  43.113  12.804   8.553
 5268POPC   D2A 6700  43.139  12.818   8.253
 5268POPC   C3A 6701  43.129  12.845   7.953
 5268POPC   C4A 6702  43.102  12.868   7.653
 5268POPC   C1B 6703  42.866  12.676   8.553
 5268POPC   C2B 6704  42.924  12.693   8.253
 5268POPC   C3B 6705  42.935  12.717   7.953
 5268POPC   C4B 6706  42.903  12.681   7.653
 5269POPC   NC3 6707  20.613  32.230   9.453
 5269POPC   PO4 6708  20.574  32.242   9.153
 5269POPC   GL1 6709  20.657  32.246   8.853
 5269POPC   GL2 6710  20.693  32.148   8.853
 5269POPC   C1A 6711  20.564  32.232   8.553
 5269POPC   D2A 6712  20.609  32.259   8.253
 5269POPC   C3A 6713  20.561  32.239   7.953
 5269POPC   C4A 6714  20.574  32.267   7.653
 5269POPC   C1B 6715  20.753  31.995   8.553
 5269POPC   C2B 6716  20.690  31.999   8.253
 5269POPC   C3B 6717  20.759  31.985   7.953
 5269POPC   C4B 6718  20.699  32.052   7.653
 5270POPC   NC3 6719  34.576  32.996   9.453
 5270POPC   PO4 6720  34.533  33.008   9.153
 5270POPC   GL1 6721  34.546  32.977   8.853
 5270POPC   GL2 6722  34.511  33.089   8.853
 5270POPC   C1A 6723  34.582  33.005   8.553
 5270POPC   D2A 6724  34.556  33.000   8.253
 5270POPC   C3A 6725  34.536  33.072   7.953
 5270POPC   C4A 6726  34.528  32.999   7.653
 5270POPC   C1B 6727  34.312  33.147   8.553
 5270POPC   C2B 6728  34.377  33.157   8.253
 5270POPC   C3B 6729  34.390  33.185   7.953
 5270POPC   C4B 6730  34.394  33.109   7.653
 5271POPC   NC3 6731  40.016  37.704   9.453
 5271POPC   PO4 6732  40.004  37.696   9.153
 5271POPC   GL1 6733  39.982  37.692   8.853
 5271POPC   GL2 6734  40.143  37.692   8.853
 5271POPC   C1A 6735  40.000  37.630   8.553
 5271POPC   D2A 6736  40.018  37.682   8.253
 5271POPC   C3A 6737  39.959  37.707   7.953
 5271POPC   C4A 6738  40.021  37.717   7.653
 5271POPC   C1B 6739  40.296  37.697   8.553
 5271POPC   C2B 6740  40.254  37.639   8.253
 5271POPC   C3B 6741  40.249  37.640   7.953
 5271POPC   C4B 6742  40.258  37.715   7.653
 5272POPC   NC3 6743  39.982  23.761   9.453
 5272POPC   PO4 6744  40.023  23.718   9.153
 5272POPC   GL1 6745  40.030  23.717   8.853
 5272POPC   GL2 6746  39.979  23.594   8.853
 5272POPC   C1A 6747  40.024  23.725   8.553
 5272POPC   D2A 6748  40.027  23.705   8.253
 5272POPC   C3A 6749  39.962  23.685   7.953
 5272POPC   C4A 6750  40.053  23.710   7.653
 5272POPC   C1B 6751  39.983  23.497   8.553
 5272POPC   C2B 6752  39.985  23.503   8.253
 5272POPC   C3B 6753  39.977  23.505   7.953
 5272POPC   C4B 6754  39.916  23.498   7.653
 5273POPC   NC3 6755  35.351  32.215   9.453
 5273POPC   PO4 6756  35.398  32.227   9.153
 5273POPC   GL1 6757  35.341  32.201   8.853
 5273POPC   GL2 6758  35.445  32.313   8.853
 5273POPC   C1A 6759  35.302  32.288   8.553
 5273POPC   D2A 6760  35.387  32.272   8.253
 5273POPC   C3A 6761  35.318  32.226   7.953
 5273POPC   C4A 6762  35.318  32.212   7.653
 5273POPC   C1B 6763  35.610  32.400   8.553
 5273POPC   C2B 6764  35.593  32.330   8.253
 5273POPC   C3B 6765  35.590  32.318   7.953
 5273POPC   C4B 6766  35.585  32.375   7.653
 5274POPC   NC3 6767  43.105  39.278   9.453
 5274POPC   PO4 6768  43.144  39.211   9.153
 5274POPC   GL1 6769  43.121  39.229   8.853
 5274POPC   GL2 6770  42.961  39.168   8.853
 5274POPC   C1A 6771  43.138  39.241   8.553
 5274POPC   D2A 6772  43.087  39.271   8.253
 5274POPC   C3A 6773  43.076  39.250   7.953
 5274POPC   C4A 6774  43.075  39.207   7.653
 5274POPC   C1B 6775  42.885  39.184   8.553
 5274POPC   C2B 6776  42.825  39.235   8.253
 5274POPC   C3B 6777  42.892  39.206   7.953
 5274POPC   C4B 6778  42.869  39.233   7.653
 5275POPC   NC3 6779  27.622  21.339   9.453
 5275POPC   PO4 6780  27.547  21.401   9.153
 5275POPC   GL1 6781  27.546  21.404   8.853
 5275POPC   GL2 6782  27.536  21.508   8.853
 5275POPC   C1A 6783  27.600  21.353   8.553
 5275POPC   D2A 6784  27.561  21.384   8.253
 5275POPC   C3A 6785  27.626  21.344   7.953
 5275POPC   C4A 6786  27.637  21.386   7.653
 5275POPC   C1B 6787  27.517  21.674   8.553
 5275POPC   C2B 6788  27.535  21.587   8.253
 5275POPC   C3B 6789  27.532  21.674   7.953
 5275POPC   C4B 6790  27.542  21.657   7.653
 5276POPC   NC3 6791   0.405  12.804   9.453
 5276POPC   PO4 6792   0.477  12.831   9.153
 5276POPC   GL1 6793   0.465  12.842   8.853
 5276POPC   GL2 6794   0.512  12.989   8.853
 5276POPC   C1A 6795   0.451  12.845   8.553
 5276POPC   D2A 6796   0.427  12.846   8.253
 5276POPC   C3A 6797   0.428  12.872   7.953
 5276POPC   C4A 6798   0.486  12.805   7.653
 5276POPC   C1B 6799   0.585  13.023   8.553
 5276POPC   C2B 6800   0.535  13.080   8.253
 5276POPC   C3B 6801   0.566  13.101   7.953
 5276POPC   C4B 6802   0.528  13.097   7.653
 5277POPC   NC3 6803   9.713   8.995   9.453
 5277POPC   PO4 6804   9.718   8.978   9.153
 5277POPC   GL1 6805   9.768   9.003   8.853
 5277POPC   GL2 6806   9.678   8.845   8.853
 5277POPC   C1A 6807   9.759   8.977   8.553
 5277POPC   D2A 6808   9.728   8.994   8.253
 5277POPC   C3A 6809   9.702   8.969   7.953
 5277POPC   C4A 6810   9.774   9.002   7.653
 5277POPC   C1B 6811   9.635   8.760   8.553
 5277POPC   C2B 6812   9.613   8.786   8.253
 5277POPC   C3B 6813   9.555   8.764   7.953
 5277POPC   C4B 6814   9.566   8.739   7.653
 5278POPC   NC3 6815   1.252   7.403   9.453
 5278POPC   PO4 6816   1.192   7.447   9.153
 5278POPC   GL1 6817   1.177   7.374   8.853
 5278POPC   GL2 6818   1.386   7.383   8.853
 5278POPC   C1A 6819   1.208   7.450   8.553
 5278POPC   D2A 6820   1.225   7.451   8.253
 5278POPC   C3A 6821   1.234   7.457   7.953
 5278POPC   C4A 6822   1.228   7.387   7.653
 5278POPC   C1B 6823   1.436   7.429   8.553
 5278POPC   C2B 6824   1.500   7.418   8.253
 5278POPC   C3B 6825   1.497   7.396   7.953
 5278POPC   C4B 6826   1.505   7.454   7.653
 5279POPC   NC3 6827  13.601  19.853   9.453
 5279POPC   PO4 6828  13.616  19.827   9.153
 5279POPC   GL1 6829  13.652  19.804   8.853
 5279POPC   GL2 6830  13.703  19.837   8.853
 5279POPC   C1A 6831  13.653  19.848   8.553
 5279POPC   D2A 6832  13.626  19.866   8.253
 5279POPC   C3A 6833  13.594  19.856   7.953
 5279POPC   C4A 6834  13.602  19.799   7.653
 5279POPC   C1B 6835  13.897  19.923   8.553
 5279POPC   C2B 6836  13.914  19.878   8.253
 5279POPC   C3B 6837  13.902  19.904   7.953
 5279POPC   C4B 6838  13.912  19.878   7.653
 5280POPC   NC3 6839  29.916  42.337   9.453
 5280POPC   PO4 6840  29.877  42.348   9.153
 5280POPC   GL1 6841  29.966  42.348   8.853
 5280POPC   GL2 6842  30.016  42.213   8.853
 5280POPC   C1A 6843  29.942  42.352   8.553
 5280POPC   D2A 6844  29.916  42.383   8.253
 5280POPC   C3A 6845  29.939  42.315   7.953
 5280POPC   C4A 6846  29.888  42.368   7.653
 5280POPC   C1B 6847  30.050  42.126   8.553
 5280POPC   C2B 6848  30.044  42.101   8.253
 5280POPC   C3B 6849  30.027  42.073   7.953
 5280POPC   C4B 6850  30.064  42.171   7.653
 5281POPC   NC3 6851  27.643   5.142   9.453
 5281POPC   PO4 6852  27.634   5.093   9.153
 5281POPC   GL1 6853  27.609   5.093   8.853
 5281POPC   GL2 6854  27.603   5.244   8.853
 5281POPC   C1A 6855  27.583   5.056   8.553
 5281POPC   D2A 6856  27.583   5.138   8.253
 5281POPC   C3A 6857  27.549   5.138   7.953
 5281POPC   C4A 6858  27.566   5.056   7.653
 5281POPC   C1B 6859  27.581   5.383   8.553
 5281POPC   C2B 6860  27.616   5.317   8.253
 5281POPC   C3B 6861  27.604   5.377   7.953
 5281POPC   C4B 6862  27.600   5.345   7.653
 5282POPC   NC3 6863  37.727   2.772   9.453
 5282POPC   PO4 6864  37.672   2.758   9.153
 5282POPC   GL1 6865  37.710   2.742   8.853
 5282POPC   GL2 6866  37.833   2.771   8.853
 5282POPC   C1A 6867  37.651   2.744   8.553
 5282POPC   D2A 6868  37.686   2.737   8.253
 5282POPC   C3A 6869  37.659   2.775   7.953
 5282POPC   C4A 6870  37.645   2.745   7.653
 5282POPC   C1B 6871  37.927   2.748   8.553
 5282POPC   C2B 6872  37.894   2.783   8.253
 5282POPC   C3B 6873  37.970   2.730   7.953
 5282POPC   C4B 6874  37.977   2.719   7.653
 5283POPC   NC3 6875  44.657  38.450   9.453
 5283POPC   PO4 6876  44.703  38.483   9.153
 5283POPC   GL1 6877  44.651  38.409   8.853
 5283POPC   GL2 6878  44.639  38.359   8.853
 5283POPC   C1A 6879  44.667  38.459   8.553
 5283POPC   D2A 6880  44.707  38.434   8.253
 5283POPC   C3A 6881  44.613  38.415   7.953
 5283POPC   C4A 6882  44.615  38.460   7.653
 5283POPC   C1B 6883  44.578  38.255   8.553
 5283POPC   C2B 6884  44.580  38.233   8.253
 5283POPC   C3B 6885  44.503  38.236   7.953
 5283POPC   C4B 6886  44.559  38.250   7.653
 5284POPC   NC3 6887  22.115   5.108   9.453
 5284POPC   PO4 6888  22.188   5.057   9.153
 5284POPC   GL1 6889  22.160   5.111   8.853
 5284POPC   GL2 6890  22.038   4.954   8.853
 5284POPC   C1A 6891  22.209   5.099   8.553
 5284POPC   D2A 6892  22.206   5.060   8.253
 5284POPC   C3A 6893  22.189   5.130   7.953
 5284POPC   C4A 6894  22.192   5.095   7.653
 5284POPC   C1B 6895  22.002   4.917   8.553
 5284POPC   C2B 6896  21.982   4.892   8.253
 5284POPC   C3B 6897  21.990   4.873   7.953
 5284POPC   C4B 6898  22.019   4.860   7.653
 5285POPC   NC3 6899   0.403   8.980   9.453
 5285POPC   PO4 6900   0.410   8.944   9.153
 5285POPC   GL1 6901   0.474   9.015   8.853
 5285POPC   GL2 6902   0.431   9.077   8.853
 5285POPC   C1A 6903   0.411   9.013   8.553
 5285POPC   D2A 6904   0.453   8.962   8.253
 5285POPC   C3A 6905   0.459   9.019   7.953
 5285POPC   C4A 6906   0.411   8.974   7.653
 5285POPC   C1B 6907   0.353   9.168   8.553
 5285POPC   C2B 6908   0.367   9.177   8.253
 5285POPC   C3B 6909   0.383   9.203   7.953
 5285POPC   C4B 6910   0.360   9.196   7.653
 5286POPC   NC3 6911  26.822  15.953   9.453
 5286POPC   PO4 6912  26.850  15.951   9.153
 5286POPC   GL1 6913  26.767  15.979   8.853
 5286POPC   GL2 6914  26.807  16.058   8.853
 5286POPC   C1A 6915  26.839  15.984   8.553
 5286POPC   D2A 6916  26.862  15.998   8.253
 5286POPC   C3A 6917  26.842  15.990   7.953
 5286POPC   C4A 6918  26.861  15.966   7.653
 5286POPC   C1B 6919  26.798  16.165   8.553
 5286POPC   C2B 6920  26.788  16.196   8.253
 5286POPC   C3B 6921  26.782  16.178   7.953
 5286POPC   C4B 6922  26.797  16.201   7.653
 5287POPC   NC3 6923  27.636  35.333   9.453
 5287POPC   PO4 6924  27.601  35.395   9.153
 5287POPC   GL1 6925  27.591  35.303   8.853
 5287POPC   GL2 6926  27.590  35.449   8.853
 5287POPC   C1A 6927  27.614  35.343   8.553
 5287POPC   D2A 6928  27.620  35.329   8.253
 5287POPC   C3A 6929  27.632  35.336   7.953
 5287POPC   C4A 6930  27.563  35.372   7.653
 5287POPC   C1B 6931  27.614  35.632   8.553
 5287POPC   C2B 6932  27.697  35.555   8.253
 5287POPC   C3B 6933  27.641  35.620   7.953
 5287POPC   C4B 6934  27.619  35.571   7.653
 5288POPC   NC3 6935  29.906  38.500   9.453
 5288POPC   PO4 6936  29.880  38.423   9.153
 5288POPC   GL1 6937  29.901  38.452   8.853
 5288POPC   GL2 6938  29.791  38.325   8.853
 5288POPC   C1A 6939  29.887  38.498   8.553
 5288POPC   D2A 6940  29.881  38.459   8.253
 5288POPC   C3A 6941  29.905  38.502   7.953
 5288POPC   C4A 6942  29.941  38.500   7.653
 5288POPC   C1B 6943  29.699  38.249   8.553
 5288POPC   C2B 6944  29.687  38.338   8.253
 5288POPC   C3B 6945  29.783  38.273   7.953
 5288POPC   C4B 6946  29.781  38.295   7.653
 5289POPC   NC3 6947   4.277  36.129   9.453
 5289POPC   PO4 6948   4.268  36.131   9.153
 5289POPC   GL1 6949   4.323  36.151   8.853
 5289POPC   GL2 6950   4.271  36.227   8.853
 5289POPC   C1A 6951   4.308  36.165   8.553
 5289POPC   D2A 6952   4.351  36.078   8.253
 5289POPC   C3A 6953   4.349  36.115   7.953
 5289POPC   C4A 6954   4.272  36.098   7.653
 5289POPC   C1B 6955   4.174  36.362   8.553
 5289POPC   C2B 6956   4.175  36.372   8.253
 5289POPC   C3B 6957   4.164  36.316   7.953
 5289POPC   C4B 6958   4.179  36.341   7.653
 5290POPC   NC3 6959  24.514   7.424   9.453
 5290POPC   PO4 6960  24.447   7.470   9.153
 5290POPC   GL1 6961  24.452   7.460   8.853
 5290POPC   GL2 6962  24.571   7.309   8.853
 5290POPC   C1A 6963  24.472   7.425   8.553
 5290POPC   D2A 6964  24.537   7.466   8.253
 5290POPC   C3A 6965  24.454   7.424   7.953
 5290POPC   C4A 6966  24.516   7.433   7.653
 5290POPC   C1B 6967  24.630   7.252   8.553
 5290POPC   C2B 6968  24.618   7.258   8.253
 5290POPC   C3B 6969  24.644   7.181   7.953
 5290POPC   C4B 6970  24.618   7.260   7.653
 5291POPC   NC3 6971  43.099  44.691   9.453
 5291POPC   PO4 6972  43.123  44.623   9.153
 5291POPC   GL1 6973  43.083  44.676   8.853
 5291POPC   GL2 6974  43.027  44.691   8.853
 5291POPC   C1A 6975  43.157  44.697   8.553
 5291POPC   D2A 6976  43.148  44.712   8.253
 5291POPC   C3A 6977  43.136  44.621   7.953
 5291POPC   C4A 6978  43.099  44.625   7.653
 5291POPC   C1B 6979  42.912  44.756   8.553
 5291POPC   C2B 6980  42.929  44.776   8.253
 5291POPC   C3B 6981  42.867  44.814   7.953
 5291POPC   C4B 6982  42.850  44.807   7.653
 5292POPC   NC3 6983  31.508  29.164   9.453
 5292POPC   PO4 6984  31.442  29.145   9.153
 5292POPC   GL1 6985  31.470  29.144   8.853
 5292POPC   GL2 6986  31.334  29.058   8.853
 5292POPC   C1A 6987  31.501  29.108   8.553
 5292POPC   D2A 6988  31.483  29.104   8.253
 5292POPC   C3A 6989  31.475  29.141   7.953
 5292POPC   C4A 6990  31.491  29.135   7.653
 5292POPC   C1B 6991  31.223  29.013   8.553
 5292POPC   C2B 6992  31.229  29.028   8.253
 5292POPC   C3B 6993  31.219  29.040   7.953
 5292POPC   C4B 6994  31.234  29.046   7.653
 5293POPC   NC3 6995  43.840   5.053   9.453
 5293POPC   PO4 6996  43.902   5.061   9.153
 5293POPC   GL1 6997  43.888   5.140   8.853
 5293POPC   GL2 6998  43.770   5.110   8.853
 5293POPC   C1A 6999  43.885   5.139   8.553
 5293POPC   D2A 7000  43.899   5.109   8.253
 5293POPC   C3A 7001  43.909   5.087   7.953
 5293POPC   C4A 7002  43.903   5.050   7.653
 5293POPC   C1B 7003  43.601   5.082   8.553
 5293POPC   C2B 7004  43.680   5.076   8.253
 5293POPC   C3B 7005  43.615   5.016   7.953
 5293POPC   C4B 7006  43.602   5.055   7.653
 5294POPC   NC3 7007   6.655  19.104   9.453
 5294POPC   PO4 7008   6.604  19.023   9.153
 5294POPC   GL1 7009   6.667  19.027   8.853
 5294POPC   GL2 7010   6.773  19.081   8.853
 5294POPC   C1A 7011   6.627  19.094   8.553
 5294POPC   D2A 7012   6.603  19.043   8.253
 5294POPC   C3A 7013   6.681  19.109   7.953
 5294POPC   C4A 7014   6.648  19.106   7.653
 5294POPC   C1B 7015   6.917  19.080   8.553
 5294POPC   C2B 7016   6.922  19.159   8.253
 5294POPC   C3B 7017   6.931  19.148   7.953
 5294POPC   C4B 7018   6.933  19.122   7.653
 5295POPC   NC3 7019   2.814  12.055   9.453
 5295POPC   PO4 7020   2.783  12.058   9.153
 5295POPC   GL1 7021   2.757  12.122   8.853
 5295POPC   GL2 7022   2.675  11.961   8.853
 5295POPC   C1A 7023   2.755  12.082   8.553
 5295POPC   D2A 7024   2.788  12.074   8.253
 5295POPC   C3A 7025   2.724  12.072   7.953
 5295POPC   C4A 7026   2.746  12.123   7.653
 5295POPC   C1B 7027   2.553  11.930   8.553
 5295POPC   C2B 7028   2.550  11.946   8.253
 5295POPC   C3B 7029   2.607  11.934   7.953
 5295POPC   C4B 7030   2.575  11.927   7.653
 5296POPC   NC3 7031  43.902   3.524   9.453
 5296POPC   PO4 7032  43.851   3.577   9.153
 5296POPC   GL1 7033  43.882   3.581   8.853
 5296POPC   GL2 7034  44.010   3.611   8.853
 5296POPC   C1A 7035  43.854   3.513   8.553
 5296POPC   D2A 7036  43.929   3.541   8.253
 5296POPC   C3A 7037  43.876   3.542   7.953
 5296POPC   C4A 7038  43.846   3.561   7.653
 5296POPC   C1B 7039  44.104   3.624   8.553
 5296POPC   C2B 7040  44.076   3.638   8.253
 5296POPC   C3B 7041  44.053   3.660   7.953
 5296POPC   C4B 7042  44.123   3.631   7.653
 5297POPC   NC3 7043  25.301  28.367   9.453
 5297POPC   PO4 7044  25.224  28.394   9.153
 5297POPC   GL1 7045  25.315  28.410   8.853
 5297POPC   GL2 7046  25.301  28.291   8.853
 5297POPC   C1A 7047  25.240  28.347   8.553
 5297POPC   D2A 7048  25.279  28.357   8.253
 5297POPC   C3A 7049  25.222  28.358   7.953
 5297POPC   C4A 7050  25.246  28.417   7.653
 5297POPC   C1B 7051  25.287  28.139   8.553
 5297POPC   C2B 7052  25.363  28.090   8.253
 5297POPC   C3B 7053  25.365  28.076   7.953
 5297POPC   C4B 7054  25.289  28.106   7.653
 5298POPC   NC3 7055  19.078   1.947   9.453
 5298POPC   PO4 7056  19.016   2.017   9.153
 5298POPC   GL1 7057  19.046   2.012   8.853
 5298POPC   GL2 7058  18.966   1.952   8.853
 5298POPC   C1A 7059  19.101   2.035   8.553
 5298POPC   D2A 7060  19.108   2.010   8.253
 5298POPC   C3A 7061  19.043   1.987   7.953
 5298POPC   C4A 7062  19.023   2.012   7.653
 5298POPC   C1B 7063  18.806   1.888   8.553
 5298POPC   C2B 7064  18.829   1.804   8.253
 5298POPC   C3B 7065  18.870   1.827   7.953
 5298POPC   C4B 7066  18.853   1.833   7.653
 5299POPC   NC3 7067  35.360  44.695   9.453
 5299POPC   PO4 7068  35.390  44.632   9.153
 5299POPC   GL1 7069  35.310  44.650   8.853
 5299POPC   GL2 7070  35.430  44.691   8.853
 5299POPC   C1A 7071  35.389  44.637   8.553
 5299POPC   D2A 7072  35.358  44.711   8.253
 5299POPC   C3A 7073  35.380  44.669   7.953
 5299POPC   C4A 7074  35.377  44.663   7.653
 5299POPC   C1B 7075  35.590  44.602   8.553
 5299POPC   C2B 7076  35.573  44.630   8.253
 5299POPC   C3B 7077  35.597  44.651   7.953
 5299POPC   C4B 7078  35.635  44.668   7.653
 5300POPC   NC3 7079  39.992   2.011   9.453
 5300POPC   PO4 7080  39.995   1.940   9.153
 5300POPC   GL1 7081  40.021   1.941   8.853
 5300POPC   GL2 7082  40.070   2.076   8.853
 5300POPC   C1A 7083  40.029   2.002   8.553
 5300POPC   D2A 7084  40.018   1.972   8.253
 5300POPC   C3A 7085  39.990   2.034   7.953
 5300POPC   C4A 7086  39.985   1.944   7.653
 5300POPC   C1B 7087  40.100   2.233   8.553
 5300POPC   C2B 7088  40.095   2.178   8.253
 5300POPC   C3B 7089  40.149   2.157   7.953
 5300POPC   C4B 7090  40.107   2.248   7.653
 5301POPC   NC3 7091   3.565   8.149   9.453
 5301POPC   PO4 7092   3.501   8.189   9.153
 5301POPC   GL1 7093   3.569   8.228   8.853
 5301POPC   GL2 7094   3.540   8.100   8.853
 5301POPC   C1A 7095   3.510   8.199   8.553
 5301POPC   D2A 7096   3.511   8.201   8.253
 5301POPC   C3A 7097   3.544   8.206   7.953
 5301POPC   C4A 7098   3.557   8.169   7.653
 5301POPC   C1B 7099   3.500   7.943   8.553
 5301POPC   C2B 7100   3.498   7.984   8.253
 5301POPC   C3B 7101   3.444   7.951   7.953
 5301POPC   C4B 7102   3.433   7.938   7.653
 5302POPC   NC3 7103  31.474  36.145   9.453
 5302POPC   PO4 7104  31.489  36.172   9.153
 5302POPC   GL1 7105  31.479  36.116   8.853
 5302POPC   GL2 7106  31.345  36.189   8.853
 5302POPC   C1A 7107  31.464  36.175   8.553
 5302POPC   D2A 7108  31.445  36.166   8.253
 5302POPC   C3A 7109  31.521  36.085   7.953
 5302POPC   C4A 7110  31.499  36.084   7.653
 5302POPC   C1B 7111  31.274  36.290   8.553
 5302POPC   C2B 7112  31.301  36.274   8.253
 5302POPC   C3B 7113  31.270  36.310   7.953
 5302POPC   C4B 7114  31.234  36.242   7.653
 5303POPC   NC3 7115   0.400  42.338   9.453
 5303POPC   PO4 7116   0.484  42.376   9.153
 5303POPC   GL1 7117   0.418  42.353   8.853
 5303POPC   GL2 7118   0.431  42.248   8.853
 5303POPC   C1A 7119   0.467  42.384   8.553
 5303POPC   D2A 7120   0.414  42.320   8.253
 5303POPC   C3A 7121   0.420  42.357   7.953
 5303POPC   C4A 7122   0.444  42.343   7.653
 5303POPC   C1B 7123   0.442  42.104   8.553
 5303POPC   C2B 7124   0.495  42.068   8.253
 5303POPC   C3B 7125   0.478  42.071   7.953
 5303POPC   C4B 7126   0.474  42.128   7.653
 5304POPC   NC3 7127  44.639  44.693   9.453
 5304POPC   PO4 7128  44.619  44.705   9.153
 5304POPC   GL1 7129  44.677  44.708   8.853
 5304POPC   GL2 7130  44.645  44.579   8.853
 5304POPC   C1A 7131  44.657  44.627   8.553
 5304POPC   D2A 7132  44.623  44.628   8.253
 5304POPC   C3A 7133  44.622  44.709   7.953
 5304POPC   C4A 7134  44.628  44.632   7.653
 5304POPC   C1B 7135  44.695  44.375   8.553
 5304POPC   C2B 7136  44.677  44.379   8.253
 5304POPC   C3B 7137  44.684  44.456   7.953
 5304POPC   C4B 7138  44.703  44.447   7.653
 5305POPC   NC3 7139  31.479  12.867   9.453
 5305POPC   PO4 7140  31.487  12.848   9.153
 5305POPC   GL1 7141  31.436  12.840   8.853
 5305POPC   GL2 7142  31.441  12.933   8.853
 5305POPC   C1A 7143  31.470  12.806   8.553
 5305POPC   D2A 7144  31.447  12.870   8.253
 5305POPC   C3A 7145  31.468  12.840   7.953
 5305POPC   C4A 7146  31.517  12.851   7.653
 5305POPC   C1B 7147  31.337  13.061   8.553
 5305POPC   C2B 7148  31.304  13.075   8.253
 5305POPC   C3B 7149  31.352  13.052   7.953
 5305POPC   C4B 7150  31.346  13.101   7.653
 5306POPC   NC3 7151  41.559  32.223   9.453
 5306POPC   PO4 7152  41.521  32.262   9.153
 5306POPC   GL1 7153  41.578  32.275   8.853
 5306POPC   GL2 7154  41.509  32.367   8.853
 5306POPC   C1A 7155  41.595  32.297   8.553
 5306POPC   D2A 7156  41.560  32.290   8.253
 5306POPC   C3A 7157  41.514  32.281   7.953
 5306POPC   C4A 7158  41.569  32.284   7.653
 5306POPC   C1B 7159  41.426  32.408   8.553
 5306POPC   C2B 7160  41.367  32.406   8.253
 5306POPC   C3B 7161  41.343  32.408   7.953
 5306POPC   C4B 7162  41.337  32.454   7.653
 5307POPC   NC3 7163  44.622  25.297   9.453
 5307POPC   PO4 7164  44.665  25.224   9.153
 5307POPC   GL1 7165  44.623  25.223   8.853
 5307POPC   GL2 7166  44.798  25.240   8.853
 5307POPC   C1A 7167  44.692  25.260   8.553
 5307POPC   D2A 7168  44.674  25.311   8.253
 5307POPC   C3A 7169  44.673  25.223   7.953
 5307POPC   C4A 7170  44.670  25.286   7.653
 5307POPC   C1B 7171  44.867  25.218   8.553
 5307POPC   C2B 7172  44.950  25.218   8.253
 5307POPC   C3B 7173  44.862  25.172   7.953
 5307POPC   C4B 7174  44.921  25.233   7.653
 5308POPC   NC3 7175  12.869  14.363   9.453
 5308POPC   PO4 7176  12.817  14.375   9.153
 5308POPC   GL1 7177  12.853  14.395   8.853
 5308POPC   GL2 7178  12.926  14.299   8.853
 5308POPC   C1A 7179  12.846  14.384   8.553
 5308POPC   D2A 7180  12.832  14.367   8.253
 5308POPC   C3A 7181  12.890  14.451   7.953
 5308POPC   C4A 7182  12.867  14.357   7.653
 5308POPC   C1B 7183  13.051  14.268   8.553
 5308POPC   C2B 7184  13.056  14.210   8.253
 5308POPC   C3B 7185  13.018  14.202   7.953
 5308POPC   C4B 7186  13.078  14.240   7.653
 5309POPC   NC3 7187  15.224   5.132   9.453
 5309POPC   PO4 7188  15.195   5.122   9.153
 5309POPC   GL1 7189  15.135   5.048   8.853
 5309POPC   GL2 7190  15.263   5.191   8.853
 5309POPC   C1A 7191  15.175   5.053   8.553
 5309POPC   D2A 7192  15.176   5.115   8.253
 5309POPC   C3A 7193  15.200   5.060   7.953
 5309POPC   C4A 7194  15.150   5.088   7.653
 5309POPC   C1B 7195  15.386   5.277   8.553
 5309POPC   C2B 7196  15.398   5.319   8.253
 5309POPC   C3B 7197  15.396   5.264   7.953
 5309POPC   C4B 7198  15.317   5.282   7.653
 5310POPC   NC3 7199  43.857  33.053   9.453
 5310POPC   PO4 7200  43.913  33.073   9.153
 5310POPC   GL1 7201  43.844  33.022   8.853
 5310POPC   GL2 7202  43.913  32.893   8.853
 5310POPC   C1A 7203  43.919  33.027   8.553
 5310POPC   D2A 7204  43.909  33.023   8.253
 5310POPC   C3A 7205  43.837  33.017   7.953
 5310POPC   C4A 7206  43.848  33.006   7.653
 5310POPC   C1B 7207  44.031  32.788   8.553
 5310POPC   C2B 7208  44.075  32.856   8.253
 5310POPC   C3B 7209  44.037  32.855   7.953
 5310POPC   C4B 7210  44.008  32.778   7.653
 5311POPC   NC3 7211   0.396  34.571   9.453
 5311POPC   PO4 7212   0.416  34.602   9.153
 5311POPC   GL1 7213   0.428  34.544   8.853
 5311POPC   GL2 7214   0.378  34.632   8.853
 5311POPC   C1A 7215   0.443  34.619   8.553
 5311POPC   D2A 7216   0.480  34.536   8.253
 5311POPC   C3A 7217   0.449  34.625   7.953
 5311POPC   C4A 7218   0.484  34.609   7.653
 5311POPC   C1B 7219   0.230  34.690   8.553
 5311POPC   C2B 7220   0.238  34.702   8.253
 5311POPC   C3B 7221   0.270  34.744   7.953
 5311POPC   C4B 7222   0.256  34.754   7.653
 5312POPC   NC3 7223  10.500  21.349   9.453
 5312POPC   PO4 7224  10.561  21.368   9.153
 5312POPC   GL1 7225  10.520  21.341   8.853
 5312POPC   GL2 7226  10.614  21.319   8.853
 5312POPC   C1A 7227  10.484  21.398   8.553
 5312POPC   D2A 7228  10.567  21.408   8.253
 5312POPC   C3A 7229  10.492  21.396   7.953
 5312POPC   C4A 7230  10.505  21.427   7.653
 5312POPC   C1B 7231  10.695  21.183   8.553
 5312POPC   C2B 7232  10.722  21.245   8.253
 5312POPC   C3B 7233  10.732  21.259   7.953
 5312POPC   C4B 7234  10.729  21.268   7.653
 5313POPC   NC3 7235  44.630  21.363   9.453
 5313POPC   PO4 7236  44.672  21.381   9.153
 5313POPC   GL1 7237  44.653  21.379   8.853
 5313POPC   GL2 7238  44.590  21.438   8.853
 5313POPC   C1A 7239  44.640  21.341   8.553
 5313POPC   D2A 7240  44.671  21.356   8.253
 5313POPC   C3A 7241  44.655  21.402   7.953
 5313POPC   C4A 7242  44.640  21.434   7.653
 5313POPC   C1B 7243  44.484  21.558   8.553
 5313POPC   C2B 7244  44.531  21.567   8.253
 5313POPC   C3B 7245  44.565  21.575   7.953
 5313POPC   C4B 7246  44.527  21.550   7.653
 5314POPC   NC3 7247   1.989  12.053   9.453
 5314POPC   PO4 7248   1.995  12.049   9.153
 5314POPC   GL1 7249   1.941  12.087   8.853
 5314POPC   GL2 7250   2.034  12.151   8.853
 5314POPC   C1A 7251   1.961  12.094   8.553
 5314POPC   D2A 7252   1.993  12.059   8.253
 5314POPC   C3A 7253   1.971  12.040   7.953
 5314POPC   C4A 7254   2.011  12.084   7.653
 5314POPC   C1B 7255   2.060  12.282   8.553
 5314POPC   C2B 7256   2.071  12.339   8.253
 5314POPC   C3B 7257   2.014  12.331   7.953
 5314POPC   C4B 7258   2.046  12.316   7.653
 5315POPC   NC3 7259  22.150  24.511   9.453
 5315POPC   PO4 7260  22.171  24.512   9.153
 5315POPC   GL1 7261  22.120  24.442   8.853
 5315POPC   GL2 7262  22.206  24.384   8.853
 5315POPC   C1A 7263  22.169  24.452   8.553
 5315POPC   D2A 7264  22.149  24.540   8.253
 5315POPC   C3A 7265  22.150  24.505   7.953
 5315POPC   C4A 7266  22.186  24.516   7.653
 5315POPC   C1B 7267  22.278  24.265   8.553
 5315POPC   C2B 7268  22.358  24.299   8.253
 5315POPC   C3B 7269  22.276  24.333   7.953
 5315POPC   C4B 7270  22.307  24.281   7.653
 5316POPC   NC3 7271  12.124  12.104   9.453
 5316POPC   PO4 7272  12.120  12.088   9.153
 5316POPC   GL1 7273  12.064  12.057   8.853
 5316POPC   GL2 7274  11.992  12.090   8.853
 5316POPC   C1A 7275  12.042  12.112   8.553
 5316POPC   D2A 7276  12.104  12.104   8.253
 5316POPC   C3A 7277  12.087  12.100   7.953
 5316POPC   C4A 7278  12.068  12.045   7.653
 5316POPC   C1B 7279  11.836  12.151   8.553
 5316POPC   C2B 7280  11.832  12.093   8.253
 5316POPC   C3B 7281  11.850  12.069   7.953
 5316POPC   C4B 7282  11.792  12.098   7.653
 5317POPC   NC3 7283  25.255   4.269   9.453
 5317POPC   PO4 7284  25.276   4.336   9.153
 5317POPC   GL1 7285  25.275   4.323   8.853
 5317POPC   GL2 7286  25.096   4.273   8.853
 5317POPC   C1A 7287  25.266   4.366   8.553
 5317POPC   D2A 7288  25.259   4.347   8.253
 5317POPC   C3A 7289  25.224   4.273   7.953
 5317POPC   C4A 7290  25.264   4.271   7.653
 5317POPC   C1B 7291  25.037   4.283   8.553
 5317POPC   C2B 7292  24.974   4.326   8.253
 5317POPC   C3B 7293  25.045   4.314   7.953
 5317POPC   C4B 7294  24.982   4.338   7.653
 5318POPC   NC3 7295   6.636  34.592   9.453
 5318POPC   PO4 7296   6.689  34.590   9.153
 5318POPC   GL1 7297   6.642  34.616   8.853
 5318POPC   GL2 7298   6.611  34.475   8.853
 5318POPC   C1A 7299   6.666  34.583   8.553
 5318POPC   D2A 7300   6.662  34.586   8.253
 5318POPC   C3A 7301   6.619  34.533   7.953
 5318POPC   C4A 7302   6.661  34.609   7.653
 5318POPC   C1B 7303   6.612  34.377   8.553
 5318POPC   C2B 7304   6.614  34.282   8.253
 5318POPC   C3B 7305   6.567  34.316   7.953
 5318POPC   C4B 7306   6.612  34.346   7.653
 5319POPC   NC3 7307  25.224  38.436   9.453
 5319POPC   PO4 7308  25.221  38.501   9.153
 5319POPC   GL1 7309  25.314  38.411   8.853
 5319POPC   GL2 7310  25.134  38.403   8.853
 5319POPC   C1A 7311  25.228  38.485   8.553
 5319POPC   D2A 7312  25.217  38.453   8.253
 5319POPC   C3A 7313  25.295  38.424   7.953
 5319POPC   C4A 7314  25.218  38.453   7.653
 5319POPC   C1B 7315  25.038  38.279   8.553
 5319POPC   C2B 7316  25.036  38.269   8.253
 5319POPC   C3B 7317  25.026  38.342   7.953
 5319POPC   C4B 7318  25.111  38.273   7.653
 5320POPC   NC3 7319  44.694  26.829   9.453
 5320POPC   PO4 7320  44.704  26.831   9.153
 5320POPC   GL1 7321  44.676  26.822   8.853
 5320POPC   GL2 7322  44.742  26.878   8.853
 5320POPC   C1A 7323  44.634  26.770   8.553
 5320POPC   D2A 7324  44.637  26.777   8.253
 5320POPC   C3A 7325  44.629  26.797   7.953
 5320POPC   C4A 7326  44.668  26.818   7.653
 5320POPC   C1B 7327  44.921  26.886   8.553
 5320POPC   C2B 7328  44.839  26.948   8.253
 5320POPC   C3B 7329  44.853  26.910   7.953
 5320POPC   C4B 7330  44.889  26.970   7.653
 5321POPC   NC3 7331  11.318  36.906   9.453
 5321POPC   PO4 7332  11.286  36.912   9.153
 5321POPC   GL1 7333  11.305  36.889   8.853
 5321POPC   GL2 7334  11.275  36.814   8.853
 5321POPC   C1A 7335  11.292  36.869   8.553
 5321POPC   D2A 7336  11.317  36.862   8.253
 5321POPC   C3A 7337  11.305  36.939   7.953
 5321POPC   C4A 7338  11.320  36.904   7.653
 5321POPC   C1B 7339  11.190  36.677   8.553
 5321POPC   C2B 7340  11.137  36.666   8.253
 5321POPC   C3B 7341  11.224  36.701   7.953
 5321POPC   C4B 7342  11.189  36.644   7.653
 5322POPC   NC3 7343  30.690  22.133   9.453
 5322POPC   PO4 7344  30.706  22.112   9.153
 5322POPC   GL1 7345  30.687  22.120   8.853
 5322POPC   GL2 7346  30.820  22.141   8.853
 5322POPC   C1A 7347  30.685  22.210   8.553
 5322POPC   D2A 7348  30.664  22.115   8.253
 5322POPC   C3A 7349  30.721  22.145   7.953
 5322POPC   C4A 7350  30.720  22.179   7.653
 5322POPC   C1B 7351  30.932  22.027   8.553
 5322POPC   C2B 7352  30.885  22.095   8.253
 5322POPC   C3B 7353  30.887  22.041   7.953
 5322POPC   C4B 7354  30.930  22.027   7.653
 5323POPC   NC3 7355   1.203   2.815   9.453
 5323POPC   PO4 7356   1.191   2.736   9.153
 5323POPC   GL1 7357   1.215   2.729   8.853
 5323POPC   GL2 7358   1.081   2.677   8.853
 5323POPC   C1A 7359   1.196   2.804   8.553
 5323POPC   D2A 7360   1.225   2.789   8.253
 5323POPC   C3A 7361   1.248   2.791   7.953
 5323POPC   C4A 7362   1.168   2.752   7.653
 5323POPC   C1B 7363   0.976   2.658   8.553
 5323POPC   C2B 7364   1.062   2.616   8.253
 5323POPC   C3B 7365   1.015   2.589   7.953
 5323POPC   C4B 7366   1.000   2.590   7.653
 5324POPC   NC3 7367  38.411  27.574   9.453
 5324POPC   PO4 7368  38.443  27.580   9.153
 5324POPC   GL1 7369  38.501  27.612   8.853
 5324POPC   GL2 7370  38.387  27.648   8.853
 5324POPC   C1A 7371  38.451  27.637   8.553
 5324POPC   D2A 7372  38.490  27.622   8.253
 5324POPC   C3A 7373  38.481  27.576   7.953
 5324POPC   C4A 7374  38.439  27.553   7.653
 5324POPC   C1B 7375  38.317  27.788   8.553
 5324POPC   C2B 7376  38.278  27.758   8.253
 5324POPC   C3B 7377  38.283  27.753   7.953
 5324POPC   C4B 7378  38.344  27.835   7.653
 5325POPC   NC3 7379  24.448   0.397   9.453
 5325POPC   PO4 7380  24.530   0.473   9.153
 5325POPC   GL1 7381  24.507   0.396   8.853
 5325POPC   GL2 7382  24.439   0.491   8.853
 5325POPC   C1A 7383  24.479   0.403   8.553
 5325POPC   D2A 7384  24.465   0.469   8.253
 5325POPC   C3A 7385  24.534   0.477   7.953
 5325POPC   C4A 7386  24.539   0.480   7.653
 5325POPC   C1B 7387  24.354   0.632   8.553
 5325POPC   C2B 7388  24.293   0.585   8.253
 5325POPC   C3B 7389  24.350   0.657   7.953
 5325POPC   C4B 7390  24.334   0.594   7.653
 5326POPC   NC3 7391  34.579  20.612   9.453
 5326POPC   PO4 7392  34.579  20.579   9.153
 5326POPC   GL1 7393  34.534  20.657   8.853
 5326POPC   GL2 7394  34.698  20.609   8.853
 5326POPC   C1A 7395  34.564  20.591   8.553
 5326POPC   D2A 7396  34.558  20.649   8.253
 5326POPC   C3A 7397  34.559  20.564   7.953
 5326POPC   C4A 7398  34.542  20.617   7.653
 5326POPC   C1B 7399  34.851  20.601   8.553
 5326POPC   C2B 7400  34.819  20.607   8.253
 5326POPC   C3B 7401  34.817  20.649   7.953
 5326POPC   C4B 7402  34.796  20.655   7.653
 5327POPC   NC3 7403   5.880  16.765   9.453
 5327POPC   PO4 7404   5.884  16.705   9.153
 5327POPC   GL1 7405   5.896  16.748   8.853
 5327POPC   GL2 7406   5.898  16.591   8.853
 5327POPC   C1A 7407   5.836  16.685   8.553
 5327POPC   D2A 7408   5.893  16.756   8.253
 5327POPC   C3A 7409   5.824  16.692   7.953
 5327POPC   C4A 7410   5.834  16.776   7.653
 5327POPC   C1B 7411   5.977  16.550   8.553
 5327POPC   C2B 7412   5.971  16.501   8.253
 5327POPC   C3B 7413   5.985  16.488   7.953
 5327POPC   C4B 7414   6.013  16.478   7.653
 5328POPC   NC3 7415  24.505   6.666   9.453
 5328POPC   PO4 7416  24.490   6.686   9.153
 5328POPC   GL1 7417  24.487   6.645   8.853
 5328POPC   GL2 7418  24.493   6.743   8.853
 5328POPC   C1A 7419  24.532   6.632   8.553
 5328POPC   D2A 7420  24.504   6.672   8.253
 5328POPC   C3A 7421  24.482   6.679   7.953
 5328POPC   C4A 7422  24.506   6.637   7.653
 5328POPC   C1B 7423  24.401   6.906   8.553
 5328POPC   C2B 7424  24.474   6.870   8.253
 5328POPC   C3B 7425  24.428   6.938   7.953
 5328POPC   C4B 7426  24.479   6.939   7.653
 5329POPC   NC3 7427  29.931  43.896   9.453
 5329POPC   PO4 7428  29.885  43.883   9.153
 5329POPC   GL1 7429  29.951  43.846   8.853
 5329POPC   GL2 7430  29.965  43.770   8.853
 5329POPC   C1A 7431  29.922  43.848   8.553
 5329POPC   D2A 7432  29.917  43.915   8.253
 5329POPC   C3A 7433  29.929  43.892   7.953
 5329POPC   C4A 7434  29.954  43.934   7.653
 5329POPC   C1B 7435  29.915  43.617   8.553
 5329POPC   C2B 7436  29.902  43.618   8.253
 5329POPC   C3B 7437  29.944  43.667   7.953
 5329POPC   C4B 7438  29.957  43.655   7.653
 5330POPC   NC3 7439  10.543  40.043   9.453
 5330POPC   PO4 7440  10.545  40.002   9.153
 5330POPC   GL1 7441  10.555  39.966   8.853
 5330POPC   GL2 7442  10.494  39.900   8.853
 5330POPC   C1A 7443  10.562  39.994   8.553
 5330POPC   D2A 7444  10.569  40.034   8.253
 5330POPC   C3A 7445  10.552  40.024   7.953
 5330POPC   C4A 7446  10.521  40.015   7.653
 5330POPC   C1B 7447  10.443  39.786   8.553
 5330POPC   C2B 7448  10.488  39.802   8.253
 5330POPC   C3B 7449  10.471  39.729   7.953
 5330POPC   C4B 7450  10.513  39.781   7.653
 5331POPC   NC3 7451  19.867   0.439   9.453
 5331POPC   PO4 7452  19.844   0.407   9.153
 5331POPC   GL1 7453  19.859   0.407   8.853
 5331POPC   GL2 7454  19.811   0.604   8.853
 5331POPC   C1A 7455  19.801   0.444   8.553
 5331POPC   D2A 7456  19.802   0.441   8.253
 5331POPC   C3A 7457  19.845   0.446   7.953
 5331POPC   C4A 7458  19.874   0.425   7.653
 5331POPC   C1B 7459  19.739   0.641   8.553
 5331POPC   C2B 7460  19.821   0.682   8.253
 5331POPC   C3B 7461  19.786   0.717   7.953
 5331POPC   C4B 7462  19.801   0.677   7.653
 5332POPC   NC3 7463  36.884  44.637   9.453
 5332POPC   PO4 7464  36.889  44.683   9.153
 5332POPC   GL1 7465  36.899  44.639   8.853
 5332POPC   GL2 7466  36.810  44.640   8.853
 5332POPC   C1A 7467  36.903  44.701   8.553
 5332POPC   D2A 7468  36.897  44.619   8.253
 5332POPC   C3A 7469  36.907  44.653   7.953
 5332POPC   C4A 7470  36.950  44.618   7.653
 5332POPC   C1B 7471  36.614  44.665   8.553
 5332POPC   C2B 7472  36.650  44.652   8.253
 5332POPC   C3B 7473  36.639  44.667   7.953
 5332POPC   C4B 7474  36.674  44.662   7.653
 5333POPC   NC3 7475  40.001  29.147   9.453
 5333POPC   PO4 7476  40.026  29.167   9.153
 5333POPC   GL1 7477  40.056  29.161   8.853
 5333POPC   GL2 7478  39.941  29.266   8.853
 5333POPC   C1A 7479  39.978  29.099   8.553
 5333POPC   D2A 7480  40.031  29.171   8.253
 5333POPC   C3A 7481  39.998  29.187   7.953
 5333POPC   C4A 7482  39.969  29.177   7.653
 5333POPC   C1B 7483  39.906  29.316   8.553
 5333POPC   C2B 7484  39.828  29.316   8.253
 5333POPC   C3B 7485  39.829  29.330   7.953
 5333POPC   C4B 7486  39.890  29.372   7.653
 5334POPC   NC3 7487  39.214   6.608   9.453
 5334POPC   PO4 7488  39.248   6.619   9.153
 5334POPC   GL1 7489  39.236   6.661   8.853
 5334POPC   GL2 7490  39.185   6.546   8.853
 5334POPC   C1A 7491  39.242   6.654   8.553
 5334POPC   D2A 7492  39.188   6.648   8.253
 5334POPC   C3A 7493  39.246   6.672   7.953
 5334POPC   C4A 7494  39.244   6.674   7.653
 5334POPC   C1B 7495  39.069   6.485   8.553
 5334POPC   C2B 7496  39.124   6.438   8.253
 5334POPC   C3B 7497  39.128   6.488   7.953
 5334POPC   C4B 7498  39.062   6.432   7.653
 5335POPC   NC3 7499  40.823  26.799   9.453
 5335POPC   PO4 7500  40.779  26.782   9.153
 5335POPC   GL1 7501  40.749  26.854   8.853
 5335POPC   GL2 7502  40.742  26.902   8.853
 5335POPC   C1A 7503  40.786  26.799   8.553
 5335POPC   D2A 7504  40.805  26.803   8.253
 5335POPC   C3A 7505  40.820  26.843   7.953
 5335POPC   C4A 7506  40.771  26.775   7.653
 5335POPC   C1B 7507  40.655  27.026   8.553
 5335POPC   C2B 7508  40.702  27.051   8.253
 5335POPC   C3B 7509  40.734  27.067   7.953
 5335POPC   C4B 7510  40.731  27.085   7.653
 5336POPC   NC3 7511  28.369  37.660   9.453
 5336POPC   PO4 7512  28.391  37.703   9.153
 5336POPC   GL1 7513  28.373  37.679   8.853
 5336POPC   GL2 7514  28.204  37.618   8.853
 5336POPC   C1A 7515  28.320  37.709   8.553
 5336POPC   D2A 7516  28.391  37.722   8.253
 5336POPC   C3A 7517  28.375  37.687   7.953
 5336POPC   C4A 7518  28.389  37.721   7.653
 5336POPC   C1B 7519  28.171  37.650   8.553
 5336POPC   C2B 7520  28.153  37.594   8.253
 5336POPC   C3B 7521  28.089  37.567   7.953
 5336POPC   C4B 7522  28.132  37.559   7.653
 5337POPC   NC3 7523  15.154   8.149   9.453
 5337POPC   PO4 7524  15.150   8.190   9.153
 5337POPC   GL1 7525  15.226   8.221   8.853
 5337POPC   GL2 7526  15.065   8.265   8.853
 5337POPC   C1A 7527  15.211   8.170   8.553
 5337POPC   D2A 7528  15.219   8.216   8.253
 5337POPC   C3A 7529  15.150   8.204   7.953
 5337POPC   C4A 7530  15.146   8.159   7.653
 5337POPC   C1B 7531  14.922   8.348   8.553
 5337POPC   C2B 7532  14.948   8.302   8.253
 5337POPC   C3B 7533  14.936   8.331   7.953
 5337POPC   C4B 7534  14.991   8.349   7.653
 5338POPC   NC3 7535  12.117  44.687   9.453
 5338POPC   PO4 7536  12.119  44.689   9.153
 5338POPC   GL1 7537  12.057  44.676   8.853
 5338POPC   GL2 7538  12.230  44.577   8.853
 5338POPC   C1A 7539  12.091  44.709   8.553
 5338POPC   D2A 7540  12.113  44.651   8.253
 5338POPC   C3A 7541  12.087  44.654   7.953
 5338POPC   C4A 7542  12.052  44.671   7.653
 5338POPC   C1B 7543  12.287  44.549   8.553
 5338POPC   C2B 7544  12.264  44.543   8.253
 5338POPC   C3B 7545  12.312  44.518   7.953
 5338POPC   C4B 7546  12.324  44.510   7.653
 5339POPC   NC3 7547  29.877   5.073   9.453
 5339POPC   PO4 7548  29.945   5.089   9.153
 5339POPC   GL1 7549  29.954   5.055   8.853
 5339POPC   GL2 7550  29.967   5.047   8.853
 5339POPC   C1A 7551  29.920   5.059   8.553
 5339POPC   D2A 7552  29.926   5.077   8.253
 5339POPC   C3A 7553  29.925   5.047   7.953
 5339POPC   C4A 7554  29.939   5.113   7.653
 5339POPC   C1B 7555  30.097   4.926   8.553
 5339POPC   C2B 7556  30.113   4.888   8.253
 5339POPC   C3B 7557  30.144   4.918   7.953
 5339POPC   C4B 7558  30.101   4.881   7.653
 5340POPC   NC3 7559  22.207  20.616   9.453
 5340POPC   PO4 7560  22.137  20.563   9.153
 5340POPC   GL1 7561  22.200  20.620   8.853
 5340POPC   GL2 7562  22.293  20.590   8.853
 5340POPC   C1A 7563  22.144  20.578   8.553
 5340POPC   D2A 7564  22.129  20.640   8.253
 5340POPC   C3A 7565  22.182  20.659   7.953
 5340POPC   C4A 7566  22.171  20.624   7.653
 5340POPC   C1B 7567  22.439  20.576   8.553
 5340POPC   C2B 7568  22.366  20.612   8.253
 5340POPC   C3B 7569  22.401  20.546   7.953
 5340POPC   C4B 7570  22.384  20.582   7.653
 5341POPC   NC3 7571   8.217  38.442   9.453
 5341POPC   PO4 7572   8.153  38.406   9.153
 5341POPC   GL1 7573   8.229  38.413   8.853
 5341POPC   GL2 7574   8.139  38.597   8.853
 5341POPC   C1A 7575   8.180  38.449   8.553
 5341POPC   D2A 7576   8.238  38.449   8.253
 5341POPC   C3A 7577   8.207  38.431   7.953
 5341POPC   C4A 7578   8.202  38.449   7.653
 5341POPC   C1B 7579   7.999  38.697   8.553
 5341POPC   C2B 7580   8.071  38.672   8.253
 5341POPC   C3B 7581   8.046  38.652   7.953
 5341POPC   C4B 7582   8.091  38.606   7.653
 5342POPC   NC3 7583  33.056  44.708   9.453
 5342POPC   PO4 7584  33.035  44.705   9.153
 5342POPC   GL1 7585  33.038  44.661   8.853
 5342POPC   GL2 7586  32.960  44.587   8.853
 5342POPC   C1A 7587  33.015  44.677   8.553
 5342POPC   D2A 7588  32.974  44.665   8.253
 5342POPC   C3A 7589  33.063  44.708   7.953
 5342POPC   C4A 7590  32.990  44.708   7.653
 5342POPC   C1B 7591  32.795  44.511   8.553
 5342POPC   C2B 7592  32.877  44.507   8.253
 5342POPC   C3B 7593  32.824  44.519   7.953
 5342POPC   C4B 7594  32.839  44.459   7.653
 5343POPC   NC3 7595   2.773   8.935   9.453
 5343POPC   PO4 7596   2.749   8.978   9.153
 5343POPC   GL1 7597   2.763   8.978   8.853
 5343POPC   GL2 7598   2.929   8.935   8.853
 5343POPC   C1A 7599   2.799   9.012   8.553
 5343POPC   D2A 7600   2.730   8.990   8.253
 5343POPC   C3A 7601   2.734   8.959   7.953
 5343POPC   C4A 7602   2.793   9.006   7.653
 5343POPC   C1B 7603   3.035   8.902   8.553
 5343POPC   C2B 7604   2.965   8.895   8.253
 5343POPC   C3B 7605   2.987   8.868   7.953
 5343POPC   C4B 7606   2.992   8.945   7.653
 5344POPC   NC3 7607  12.899  15.973   9.453
 5344POPC   PO4 7608  12.815  15.985   9.153
 5344POPC   GL1 7609  12.893  15.952   8.853
 5344POPC   GL2 7610  12.794  16.072   8.853
 5344POPC   C1A 7611  12.817  15.942   8.553
 5344POPC   D2A 7612  12.890  16.001   8.253
 5344POPC   C3A 7613  12.819  15.953   7.953
 5344POPC   C4A 7614  12.901  15.953   7.653
 5344POPC   C1B 7615  12.625  16.092   8.553
 5344POPC   C2B 7616  12.613  16.106   8.253
 5344POPC   C3B 7617  12.642  16.146   7.953
 5344POPC   C4B 7618  12.631  16.132   7.653
 5345POPC   NC3 7619  26.819  21.379   9.453
 5345POPC   PO4 7620  26.858  21.390   9.153
 5345POPC   GL1 7621  26.838  21.388   8.853
 5345POPC   GL2 7622  26.729  21.473   8.853
 5345POPC   C1A 7623  26.828  21.415   8.553
 5345POPC   D2A 7624  26.844  21.387   8.253
 5345POPC   C3A 7625  26.768  21.387   7.953
 5345POPC   C4A 7626  26.798  21.374   7.653
 5345POPC   C1B 7627  26.699  21.567   8.553
 5345POPC   C2B 7628  26.729  21.638   8.253
 5345POPC   C3B 7629  26.678  21.601   7.953
 5345POPC   C4B 7630  26.650  21.630   7.653
 5346POPC   NC3 7631  39.987  25.314   9.453
 5346POPC   PO4 7632  39.972  25.237   9.153
 5346POPC   GL1 7633  40.000  25.288   8.853
 5346POPC   GL2 7634  40.159  25.267   8.853
 5346POPC   C1A 7635  40.044  25.217   8.553
 5346POPC   D2A 7636  39.985  25.305   8.253
 5346POPC   C3A 7637  40.020  25.292   7.953
 5346POPC   C4A 7638  39.959  25.221   7.653
 5346POPC   C1B 7639  40.275  25.200   8.553
 5346POPC   C2B 7640  40.223  25.230   8.253
 5346POPC   C3B 7641  40.243  25.223   7.953
 5346POPC   C4B 7642  40.289  25.271   7.653
 5347POPC   NC3 7643  17.537  32.252   9.453
 5347POPC   PO4 7644  17.551  32.220   9.153
 5347POPC   GL1 7645  17.538  32.282   8.853
 5347POPC   GL2 7646  17.426  32.258   8.853
 5347POPC   C1A 7647  17.493  32.283   8.553
 5347POPC   D2A 7648  17.478  32.223   8.253
 5347POPC   C3A 7649  17.530  32.202   7.953
 5347POPC   C4A 7650  17.532  32.268   7.653
 5347POPC   C1B 7651  17.309  32.357   8.553
 5347POPC   C2B 7652  17.307  32.343   8.253
 5347POPC   C3B 7653  17.278  32.327   7.953
 5347POPC   C4B 7654  17.232  32.331   7.653
 5348POPC   NC3 7655  32.989  41.523   9.453
 5348POPC   PO4 7656  32.977  41.589   9.153
 5348POPC   GL1 7657  33.048  41.516   8.853
 5348POPC   GL2 7658  33.096  41.634   8.853
 5348POPC   C1A 7659  33.025  41.581   8.553
 5348POPC   D2A 7660  32.987  41.518   8.253
 5348POPC   C3A 7661  33.048  41.516   7.953
 5348POPC   C4A 7662  33.034  41.515   7.653
 5348POPC   C1B 7663  33.269  41.601   8.553
 5348POPC   C2B 7664  33.300  41.655   8.253
 5348POPC   C3B 7665  33.258  41.587   7.953
 5348POPC   C4B 7666  33.295  41.612   7.653
 5349POPC   NC3 7667  23.682   8.167   9.453
 5349POPC   PO4 7668  23.740   8.216   9.153
 5349POPC   GL1 7669  23.672   8.190   8.853
 5349POPC   GL2 7670  23.804   8.137   8.853
 5349POPC   C1A 7671  23.664   8.227   8.553
 5349POPC   D2A 7672  23.761   8.190   8.253
 5349POPC   C3A 7673  23.675   8.198   7.953
 5349POPC   C4A 7674  23.678   8.184   7.653
 5349POPC   C1B 7675  23.842   7.997   8.553
 5349POPC   C2B 7676  23.824   8.034   8.253
 5349POPC   C3B 7677  23.902   8.046   7.953
 5349POPC   C4B 7678  23.912   7.984   7.653
 5350POPC   NC3 7679  12.804  12.050   9.453
 5350POPC   PO4 7680  12.893  12.093   9.153
 5350POPC   GL1 7681  12.821  12.112   8.853
 5350POPC   GL2 7682  12.957  12.046   8.853
 5350POPC   C1A 7683  12.804  12.053   8.553
 5350POPC   D2A 7684  12.898  12.066   8.253
 5350POPC   C3A 7685  12.817  12.066   7.953
 5350POPC   C4A 7686  12.882  12.097   7.653
 5350POPC   C1B 7687  13.033  11.974   8.553
 5350POPC   C2B 7688  13.109  11.927   8.253
 5350POPC   C3B 7689  13.052  11.902   7.953
 5350POPC   C4B 7690  13.023  11.901   7.653
 5351POPC   NC3 7691  25.258  34.616   9.453
 5351POPC   PO4 7692  25.307  34.542   9.153
 5351POPC   GL1 7693  25.312  34.556   8.853
 5351POPC   GL2 7694  25.141  34.451   8.853
 5351POPC   C1A 7695  25.233  34.565   8.553
 5351POPC   D2A 7696  25.289  34.537   8.253
 5351POPC   C3A 7697  25.313  34.577   7.953
 5351POPC   C4A 7698  25.269  34.608   7.653
 5351POPC   C1B 7699  25.087  34.405   8.553
 5351POPC   C2B 7700  25.038  34.374   8.253
 5351POPC   C3B 7701  25.050  34.422   7.953
 5351POPC   C4B 7702  25.041  34.374   7.653
 5352POPC   NC3 7703  35.332  10.559   9.453
 5352POPC   PO4 7704  35.319  10.544   9.153
 5352POPC   GL1 7705  35.314  10.531   8.853
 5352POPC   GL2 7706  35.251  10.377   8.853
 5352POPC   C1A 7707  35.365  10.535   8.553
 5352POPC   D2A 7708  35.363  10.487   8.253
 5352POPC   C3A 7709  35.352  10.509   7.953
 5352POPC   C4A 7710  35.322  10.523   7.653
 5352POPC   C1B 7711  35.221  10.330   8.553
 5352POPC   C2B 7712  35.250  10.346   8.253
 5352POPC   C3B 7713  35.278  10.333   7.953
 5352POPC   C4B 7714  35.277  10.258   7.653
 5353POPC   NC3 7715  15.961  31.498   9.453
 5353POPC   PO4 7716  15.954  31.476   9.153
 5353POPC   GL1 7717  15.958  31.495   8.853
 5353POPC   GL2 7718  15.817  31.485   8.853
 5353POPC   C1A 7719  16.004  31.501   8.553
 5353POPC   D2A 7720  15.934  31.478   8.253
 5353POPC   C3A 7721  15.993  31.511   7.953
 5353POPC   C4A 7722  15.929  31.457   7.653
 5353POPC   C1B 7723  15.667  31.514   8.553
 5353POPC   C2B 7724  15.667  31.477   8.253
 5353POPC   C3B 7725  15.661  31.443   7.953
 5353POPC   C4B 7726  15.694  31.443   7.653
 5354POPC   NC3 7727   9.734  18.283   9.453
 5354POPC   PO4 7728   9.718  18.314   9.153
 5354POPC   GL1 7729   9.720  18.330   8.853
 5354POPC   GL2 7730   9.802  18.410   8.853
 5354POPC   C1A 7731   9.742  18.280   8.553
 5354POPC   D2A 7732   9.796  18.246   8.253
 5354POPC   C3A 7733   9.720  18.270   7.953
 5354POPC   C4A 7734   9.783  18.267   7.653
 5354POPC   C1B 7735   9.760  18.548   8.553
 5354POPC   C2B 7736   9.760  18.547   8.253
 5354POPC   C3B 7737   9.821  18.493   7.953
 5354POPC   C4B 7738   9.736  18.504   7.653
 5355POPC   NC3 7739   3.494  40.817   9.453
 5355POPC   PO4 7740   3.520  40.776   9.153
 5355POPC   GL1 7741   3.554  40.751   8.853
 5355POPC   GL2 7742   3.455  40.880   8.853
 5355POPC   C1A 7743   3.556  40.829   8.553
 5355POPC   D2A 7744   3.492  40.753   8.253
 5355POPC   C3A 7745   3.567  40.783   7.953
 5355POPC   C4A 7746   3.509  40.824   7.653
 5355POPC   C1B 7747   3.331  40.857   8.553
 5355POPC   C2B 7748   3.305  40.895   8.253
 5355POPC   C3B 7749   3.358  40.917   7.953
 5355POPC   C4B 7750   3.293  40.859   7.653
 5356POPC   NC3 7751  15.223  21.415   9.453
 5356POPC   PO4 7752  15.156  21.433   9.153
 5356POPC   GL1 7753  15.220  21.424   8.853
 5356POPC   GL2 7754  15.196  21.294   8.853
 5356POPC   C1A 7755  15.137  21.345   8.553
 5356POPC   D2A 7756  15.197  21.348   8.253
 5356POPC   C3A 7757  15.221  21.406   7.953
 5356POPC   C4A 7758  15.133  21.362   7.653
 5356POPC   C1B 7759  15.170  21.114   8.553
 5356POPC   C2B 7760  15.095  21.185   8.253
 5356POPC   C3B 7761  15.100  21.173   7.953
 5356POPC   C4B 7762  15.146  21.133   7.653
 5357POPC   NC3 7763  26.090  21.340   9.453
 5357POPC   PO4 7764  26.035  21.343   9.153
 5357POPC   GL1 7765  26.059  21.430   8.853
 5357POPC   GL2 7766  26.148  21.416   8.853
 5357POPC   C1A 7767  26.018  21.355   8.553
 5357POPC   D2A 7768  26.044  21.420   8.253
 5357POPC   C3A 7769  26.047  21.423   7.953
 5357POPC   C4A 7770  26.057  21.382   7.653
 5357POPC   C1B 7771  26.333  21.332   8.553
 5357POPC   C2B 7772  26.281  21.349   8.253
 5357POPC   C3B 7773  26.328  21.365   7.953
 5357POPC   C4B 7774  26.291  21.397   7.653
 5358POPC   NC3 7775  17.545  16.774   9.453
 5358POPC   PO4 7776  17.486  16.682   9.153
 5358POPC   GL1 7777  17.463  16.707   8.853
 5358POPC   GL2 7778  17.367  16.713   8.853
 5358POPC   C1A 7779  17.461  16.759   8.553
 5358POPC   D2A 7780  17.514  16.737   8.253
 5358POPC   C3A 7781  17.464  16.767   7.953
 5358POPC   C4A 7782  17.498  16.691   7.653
 5358POPC   C1B 7783  17.243  16.822   8.553
 5358POPC   C2B 7784  17.225  16.765   8.253
 5358POPC   C3B 7785  17.266  16.741   7.953
 5358POPC   C4B 7786  17.289  16.770   7.653
 5359POPC   NC3 7787  15.945   7.438   9.453
 5359POPC   PO4 7788  15.923   7.379   9.153
 5359POPC   GL1 7789  15.996   7.440   8.853
 5359POPC   GL2 7790  15.836   7.465   8.853
 5359POPC   C1A 7791  15.947   7.469   8.553
 5359POPC   D2A 7792  15.925   7.415   8.253
 5359POPC   C3A 7793  15.974   7.426   7.953
 5359POPC   C4A 7794  15.930   7.379   7.653
 5359POPC   C1B 7795  15.729   7.507   8.553
 5359POPC   C2B 7796  15.769   7.490   8.253
 5359POPC   C3B 7797  15.725   7.476   7.953
 5359POPC   C4B 7798  15.774   7.558   7.653
 5360POPC   NC3 7799   5.819  44.620   9.453
 5360POPC   PO4 7800   5.864  44.692   9.153
 5360POPC   GL1 7801   5.902  44.672   8.853
 5360POPC   GL2 7802   5.776  44.774   8.853
 5360POPC   C1A 7803   5.858  44.681   8.553
 5360POPC   D2A 7804   5.843  44.666   8.253
 5360POPC   C3A 7805   5.841  44.705   7.953
 5360POPC   C4A 7806   5.825  44.667   7.653
 5360POPC   C1B 7807   5.664  44.809   8.553
 5360POPC   C2B 7808   5.726  44.801   8.253
 5360POPC   C3B 7809   5.688  44.818   7.953
 5360POPC   C4B 7810   5.698  44.808   7.653
 5361POPC   NC3 7811  22.950   6.672   9.453
 5361POPC   PO4 7812  22.957   6.690   9.153
 5361POPC   GL1 7813  22.926   6.619   8.853
 5361POPC   GL2 7814  22.936   6.775   8.853
 5361POPC   C1A 7815  22.894   6.675   8.553
 5361POPC   D2A 7816  22.926   6.658   8.253
 5361POPC   C3A 7817  22.924   6.596   7.953
 5361POPC   C4A 7818  22.962   6.675   7.653
 5361POPC   C1B 7819  22.927   6.916   8.553
 5361POPC   C2B 7820  22.953   6.850   8.253
 5361POPC   C3B 7821  22.906   6.845   7.953
 5361POPC   C4B 7822  22.887   6.932   7.653
 5362POPC   NC3 7823  24.443  21.423   9.453
 5362POPC   PO4 7824  24.445  21.431   9.153
 5362POPC   GL1 7825  24.498  21.355   8.853
 5362POPC   GL2 7826  24.510  21.479   8.853
 5362POPC   C1A 7827  24.497  21.408   8.553
 5362POPC   D2A 7828  24.453  21.369   8.253
 5362POPC   C3A 7829  24.450  21.373   7.953
 5362POPC   C4A 7830  24.476  21.343   7.653
 5362POPC   C1B 7831  24.644  21.560   8.553
 5362POPC   C2B 7832  24.639  21.636   8.253
 5362POPC   C3B 7833  24.620  21.648   7.953
 5362POPC   C4B 7834  24.619  21.574   7.653
 5363POPC   NC3 7835  12.804  16.718   9.453
 5363POPC   PO4 7836  12.900  16.751   9.153
 5363POPC   GL1 7837  12.861  16.735   8.853
 5363POPC   GL2 7838  12.932  16.817   8.853
 5363POPC   C1A 7839  12.822  16.750   8.553
 5363POPC   D2A 7840  12.826  16.719   8.253
 5363POPC   C3A 7841  12.808  16.749   7.953
 5363POPC   C4A 7842  12.860  16.773   7.653
 5363POPC   C1B 7843  13.067  16.830   8.553
 5363POPC   C2B 7844  13.058  16.803   8.253
 5363POPC   C3B 7845  13.094  16.809   7.953
 5363POPC   C4B 7846  13.045  16.811   7.653
 5364POPC   NC3 7847  36.871  29.883   9.453
 5364POPC   PO4 7848  36.897  29.947   9.153
 5364POPC   GL1 7849  36.924  29.957   8.853
 5364POPC   GL2 7850  36.733  29.935   8.853
 5364POPC   C1A 7851  36.940  29.953   8.553
 5364POPC   D2A 7852  36.879  29.890   8.253
 5364POPC   C3A 7853  36.931  29.965   7.953
 5364POPC   C4A 7854  36.894  29.928   7.653
 5364POPC   C1B 7855  36.613  29.927   8.553
 5364POPC   C2B 7856  36.680  29.922   8.253
 5364POPC   C3B 7857  36.679  29.943   7.953
 5364POPC   C4B 7858  36.683  29.948   7.653
 5365POPC   NC3 7859   2.723   2.792   9.453
 5365POPC   PO4 7860   2.759   2.766   9.153
 5365POPC   GL1 7861   2.767   2.767   8.853
 5365POPC   GL2 7862   2.749   2.912   8.853
 5365POPC   C1A 7863   2.745   2.717   8.553
 5365POPC   D2A 7864   2.792   2.795   8.253
 5365POPC   C3A 7865   2.716   2.781   7.953
 5365POPC   C4A 7866   2.800   2.758   7.653
 5365POPC   C1B 7867   2.761   2.980   8.553
 5365POPC   C2B 7868   2.799   3.003   8.253
 5365POPC   C3B 7869   2.789   3.011   7.953
 5365POPC   C4B 7870   2.724   3.045   7.653
 5366POPC   NC3 7871   3.522  20.572   9.453
 5366POPC   PO4 7872   3.580  20.655   9.153
 5366POPC   GL1 7873   3.503  20.606   8.853
 5366POPC   GL2 7874   3.471  20.450   8.853
 5366POPC   C1A 7875   3.582  20.568   8.553
 5366POPC   D2A 7876   3.565  20.638   8.253
 5366POPC   C3A 7877   3.580  20.630   7.953
 5366POPC   C4A 7878   3.574  20.576   7.653
 5366POPC   C1B 7879   3.439  20.395   8.553
 5366POPC   C2B 7880   3.479  20.332   8.253
 5366POPC   C3B 7881   3.472  20.407   7.953
 5366POPC   C4B 7882   3.424  20.381   7.653
 5367POPC   NC3 7883  17.531   0.423   9.453
 5367POPC   PO4 7884  17.479   0.487   9.153
 5367POPC   GL1 7885  17.504   0.470   8.853
 5367POPC   GL2 7886  17.612   0.326   8.853
 5367POPC   C1A 7887  17.511   0.394   8.553
 5367POPC   D2A 7888  17.468   0.454   8.253
 5367POPC   C3A 7889  17.539   0.457   7.953
 5367POPC   C4A 7890  17.466   0.396   7.653
 5367POPC   C1B 7891  17.748   0.314   8.553
 5367POPC   C2B 7892  17.681   0.276   8.253
 5367POPC   C3B 7893  17.706   0.251   7.953
 5367POPC   C4B 7894  17.663   0.231   7.653
 5368POPC   NC3 7895   5.089   5.868   9.453
 5368POPC   PO4 7896   5.142   5.829   9.153
 5368POPC   GL1 7897   5.054   5.860   8.853
 5368POPC   GL2 7898   5.035   6.004   8.853
 5368POPC   C1A 7899   5.120   5.859   8.553
 5368POPC   D2A 7900   5.132   5.838   8.253
 5368POPC   C3A 7901   5.086   5.819   7.953
 5368POPC   C4A 7902   5.100   5.824   7.653
 5368POPC   C1B 7903   4.937   6.008   8.553
 5368POPC   C2B 7904   4.908   6.009   8.253
 5368POPC   C3B 7905   4.949   6.102   7.953
 5368POPC   C4B 7906   4.954   6.036   7.653
 5369POPC   NC3 7907  38.488   3.513   9.453
 5369POPC   PO4 7908  38.450   3.581   9.153
 5369POPC   GL1 7909  38.406   3.529   8.853
 5369POPC   GL2 7910  38.367   3.465   8.853
 5369POPC   C1A 7911  38.501   3.518   8.553
 5369POPC   D2A 7912  38.423   3.586   8.253
 5369POPC   C3A 7913  38.458   3.561   7.953
 5369POPC   C4A 7914  38.460   3.585   7.653
 5369POPC   C1B 7915  38.293   3.372   8.553
 5369POPC   C2B 7916  38.232   3.412   8.253
 5369POPC   C3B 7917  38.256   3.387   7.953
 5369POPC   C4B 7918  38.283   3.368   7.653
 5370POPC   NC3 7919  12.065  10.537   9.453
 5370POPC   PO4 7920  12.076  10.572   9.153
 5370POPC   GL1 7921  12.054  10.559   8.853
 5370POPC   GL2 7922  11.962  10.512   8.853
 5370POPC   C1A 7923  12.109  10.493   8.553
 5370POPC   D2A 7924  12.095  10.519   8.253
 5370POPC   C3A 7925  12.095  10.535   7.953
 5370POPC   C4A 7926  12.085  10.489   7.653
 5370POPC   C1B 7927  11.847  10.541   8.553
 5370POPC   C2B 7928  11.802  10.490   8.253
 5370POPC   C3B 7929  11.797  10.545   7.953
 5370POPC   C4B 7930  11.782  10.536   7.653
 5371POPC   NC3 7931   2.803  43.857   9.453
 5371POPC   PO4 7932   2.775  43.929   9.153
 5371POPC   GL1 7933   2.738  43.886   8.853
 5371POPC   GL2 7934   2.921  43.893   8.853
 5371POPC   C1A 7935   2.733  43.872   8.553
 5371POPC   D2A 7936   2.806  43.867   8.253
 5371POPC   C3A 7937   2.758  43.839   7.953
 5371POPC   C4A 7938   2.766  43.901   7.653
 5371POPC   C1B 7939   2.988  43.911   8.553
 5371POPC   C2B 7940   3.062  43.889   8.253
 5371POPC   C3B 7941   3.016  43.875   7.953
 5371POPC   C4B 7942   2.997  43.925   7.653
 5372POPC   NC3 7943  26.085  26.051   9.453
 5372POPC   PO4 7944  26.059  26.071   9.153
 5372POPC   GL1 7945  26.081  25.993   8.853
 5372POPC   GL2 7946  25.956  26.132   8.853
 5372POPC   C1A 7947  25.993  26.024   8.553
 5372POPC   D2A 7948  26.001  26.086   8.253
 5372POPC   C3A 7949  26.059  26.064   7.953
 5372POPC   C4A 7950  26.028  25.994   7.653
 5372POPC   C1B 7951  25.848  26.202   8.553
 5372POPC   C2B 7952  25.820  26.217   8.253
 5372POPC   C3B 7953  25.862  26.152   7.953
 5372POPC   C4B 7954  25.818  26.162   7.653
 5373POPC   NC3 7955  10.560  40.789   9.453
 5373POPC   PO4 7956  10.478  40.756   9.153
 5373POPC   GL1 7957  10.524  40.811   8.853
 5373POPC   GL2 7958  10.689  40.858   8.853
 5373POPC   C1A 7959  10.508  40.735   8.553
 5373POPC   D2A 7960  10.478  40.741   8.253
 5373POPC   C3A 7961  10.497  40.786   7.953
 5373POPC   C4A 7962  10.538  40.769   7.653
 5373POPC   C1B 7963  10.716  40.883   8.553
 5373POPC   C2B 7964  10.719  40.848   8.253
 5373POPC   C3B 7965  10.776  40.839   7.953
 5373POPC   C4B 7966  10.732  40.807   7.653
 5374POPC   NC3 7967  25.247  37.662   9.453
 5374POPC   PO4 7968  25.281  37.720   9.153
 5374POPC   GL1 7969  25.232  37.637   8.853
 5374POPC   GL2 7970  25.265  37.549   8.853
 5374POPC   C1A 7971  25.235  37.658   8.553
 5374POPC   D2A 7972  25.294  37.639   8.253
 5374POPC   C3A 7973  25.297  37.631   7.953
 5374POPC   C4A 7974  25.253  37.647   7.653
 5374POPC   C1B 7975  25.139  37.458   8.553
 5374POPC   C2B 7976  25.157  37.413   8.253
 5374POPC   C3B 7977  25.154  37.411   7.953
 5374POPC   C4B 7978  25.131  37.442   7.653
 5375POPC   NC3 7979  26.080  41.536   9.453
 5375POPC   PO4 7980  26.028  41.555   9.153
 5375POPC   GL1 7981  26.009  41.517   8.853
 5375POPC   GL2 7982  26.178  41.542   8.853
 5375POPC   C1A 7983  26.033  41.572   8.553
 5375POPC   D2A 7984  26.056  41.606   8.253
 5375POPC   C3A 7985  26.056  41.568   7.953
 5375POPC   C4A 7986  26.029  41.551   7.653
 5375POPC   C1B 7987  26.215  41.432   8.553
 5375POPC   C2B 7988  26.268  41.405   8.253
 5375POPC   C3B 7989  26.288  41.400   7.953
 5375POPC   C4B 7990  26.220  41.420   7.653
 5376POPC   NC3 7991  29.096  19.850   9.453
 5376POPC   PO4 7992  29.127  19.862   9.153
 5376POPC   GL1 7993  29.151  19.872   8.853
 5376POPC   GL2 7994  29.214  19.927   8.853
 5376POPC   C1A 7995  29.150  19.873   8.553
 5376POPC   D2A 7996  29.171  19.871   8.253
 5376POPC   C3A 7997  29.158  19.844   7.953
 5376POPC   C4A 7998  29.120  19.844   7.653
 5376POPC   C1B 7999  29.308  20.035   8.553
 5376POPC   C2B 8000  29.290  20.034   8.253
 5376POPC   C3B 8001  29.222  20.068   7.953
 5376POPC   C4B 8002  29.226  20.090   7.653
 5377POPC   NC3 8003  22.960  23.675   9.453
 5377POPC   PO4 8004  22.945  23.670   9.153
 5377POPC   GL1 8005  22.932  23.748   8.853
 5377POPC   GL2 8006  23.055  23.612   8.853
 5377POPC   C1A 8007  22.954  23.762   8.553
 5377POPC   D2A 8008  22.935  23.705   8.253
 5377POPC   C3A 8009  22.956  23.741   7.953
 5377POPC   C4A 8010  22.987  23.672   7.653
 5377POPC   C1B 8011  23.181  23.622   8.553
 5377POPC   C2B 8012  23.120  23.593   8.253
 5377POPC   C3B 8013  23.155  23.637   7.953
 5377POPC   C4B 8014  23.160  23.603   7.653
 5378POPC   NC3 8015   2.815  30.661   9.453
 5378POPC   PO4 8016   2.738  30.710   9.153
 5378POPC   GL1 8017   2.799  30.713   8.853
 5378POPC   GL2 8018   2.713  30.810   8.853
 5378POPC   C1A 8019   2.789  30.723   8.553
 5378POPC   D2A 8020   2.779  30.661   8.253
 5378POPC   C3A 8021   2.746  30.718   7.953
 5378POPC   C4A 8022   2.717  30.732   7.653
 5378POPC   C1B 8023   2.590  30.871   8.553
 5378POPC   C2B 8024   2.607  30.876   8.253
 5378POPC   C3B 8025   2.534  30.872   7.953
 5378POPC   C4B 8026   2.549  30.805   7.653
 5379POPC   NC3 8027   4.320  33.840   9.453
 5379POPC   PO4 8028   4.298  33.804   9.153
 5379POPC   GL1 8029   4.366  33.766   8.853
 5379POPC   GL2 8030   4.388  33.883   8.853
 5379POPC   C1A 8031   4.317  33.844   8.553
 5379POPC   D2A 8032   4.341  33.832   8.253
 5379POPC   C3A 8033   4.340  33.838   7.953
 5379POPC   C4A 8034   4.275  33.820   7.653
 5379POPC   C1B 8035   4.373  33.994   8.553
 5379POPC   C2B 8036   4.418  34.057   8.253
 5379POPC   C3B 8037   4.352  33.985   7.953
 5379POPC   C4B 8038   4.437  33.997   7.653
 5380POPC   NC3 8039  37.722  20.649   9.453
 5380POPC   PO4 8040  37.716  20.604   9.153
 5380POPC   GL1 8041  37.697  20.623   8.853
 5380POPC   GL2 8042  37.621  20.740   8.853
 5380POPC   C1A 8043  37.647  20.650   8.553
 5380POPC   D2A 8044  37.719  20.608   8.253
 5380POPC   C3A 8045  37.684  20.659   7.953
 5380POPC   C4A 8046  37.631  20.602   7.653
 5380POPC   C1B 8047  37.556  20.887   8.553
 5380POPC   C2B 8048  37.549  20.857   8.253
 5380POPC   C3B 8049  37.583  20.867   7.953
 5380POPC   C4B 8050  37.602  20.797   7.653
 5381POPC   NC3 8051  42.352   2.725   9.453
 5381POPC   PO4 8052  42.314   2.761   9.153
 5381POPC   GL1 8053  42.313   2.776   8.853
 5381POPC   GL2 8054  42.439   2.740   8.853
 5381POPC   C1A 8055  42.349   2.762   8.553
 5381POPC   D2A 8056  42.289   2.764   8.253
 5381POPC   C3A 8057  42.344   2.800   7.953
 5381POPC   C4A 8058  42.352   2.787   7.653
 5381POPC   C1B 8059  42.540   2.827   8.553
 5381POPC   C2B 8060  42.629   2.755   8.253
 5381POPC   C3B 8061  42.592   2.791   7.953
 5381POPC   C4B 8062  42.599   2.811   7.653
 5382POPC   NC3 8063  33.040  33.066   9.453
 5382POPC   PO4 8064  33.062  32.986   9.153
 5382POPC   GL1 8065  33.033  33.043   8.853
 5382POPC   GL2 8066  33.145  33.001   8.853
 5382POPC   C1A 8067  33.048  33.056   8.553
 5382POPC   D2A 8068  33.072  32.990   8.253
 5382POPC   C3A 8069  33.028  33.051   7.953
 5382POPC   C4A 8070  33.041  32.974   7.653
 5382POPC   C1B 8071  33.201  32.898   8.553
 5382POPC   C2B 8072  33.220  32.882   8.253
 5382POPC   C3B 8073  33.262  32.879   7.953
 5382POPC   C4B 8074  33.236  32.920   7.653
 5383POPC   NC3 8075  33.775  35.377   9.453
 5383POPC   PO4 8076  33.802  35.348   9.153
 5383POPC   GL1 8077  33.780  35.371   8.853
 5383POPC   GL2 8078  33.797  35.465   8.853
 5383POPC   C1A 8079  33.766  35.326   8.553
 5383POPC   D2A 8080  33.791  35.314   8.253
 5383POPC   C3A 8081  33.809  35.375   7.953
 5383POPC   C4A 8082  33.755  35.309   7.653
 5383POPC   C1B 8083  33.873  35.638   8.553
 5383POPC   C2B 8084  33.869  35.624   8.253
 5383POPC   C3B 8085  33.799  35.553   7.953
 5383POPC   C4B 8086  33.848  35.606   7.653
 5384POPC   NC3 8087  43.139  40.015   9.453
 5384POPC   PO4 8088  43.158  40.057   9.153
 5384POPC   GL1 8089  43.070  40.006   8.853
 5384POPC   GL2 8090  43.213  39.992   8.853
 5384POPC   C1A 8091  43.118  40.034   8.553
 5384POPC   D2A 8092  43.087  40.046   8.253
 5384POPC   C3A 8093  43.129  39.973   7.953
 5384POPC   C4A 8094  43.157  40.016   7.653
 5384POPC   C1B 8095  43.371  39.909   8.553
 5384POPC   C2B 8096  43.368  39.963   8.253
 5384POPC   C3B 8097  43.317  39.914   7.953
 5384POPC   C4B 8098  43.314  39.985   7.653
 5385POPC   NC3 8099  18.296  15.149   9.453
 5385POPC   PO4 8100  18.333  15.147   9.153
 5385POPC   GL1 8101  18.261  15.156   8.853
 5385POPC   GL2 8102  18.183  15.218   8.853
 5385POPC   C1A 8103  18.317  15.150   8.553
 5385POPC   D2A 8104  18.280  15.133   8.253
 5385POPC   C3A 8105  18.297  15.226   7.953
 5385POPC   C4A 8106  18.281  15.193   7.653
 5385POPC   C1B 8107  18.064  15.262   8.553
 5385POPC   C2B 8108  18.063  15.205   8.253
 5385POPC   C3B 8109  18.006  15.235   7.953
 5385POPC   C4B 8110  18.068  15.290   7.653
 5386POPC   NC3 8111   2.011  40.040   9.453
 5386POPC   PO4 8112   1.986  39.989   9.153
 5386POPC   GL1 8113   1.975  39.983   8.853
 5386POPC   GL2 8114   1.916  40.087   8.853
 5386POPC   C1A 8115   1.963  40.042   8.553
 5386POPC   D2A 8116   1.980  39.959   8.253
 5386POPC   C3A 8117   2.018  40.029   7.953
 5386POPC   C4A 8118   1.949  40.004   7.653
 5386POPC   C1B 8119   1.762  40.166   8.553
 5386POPC   C2B 8120   1.790  40.151   8.253
 5386POPC   C3B 8121   1.766  40.152   7.953
 5386POPC   C4B 8122   1.810  40.158   7.653
 5387POPC   NC3 8123  16.748  18.290   9.453
 5387POPC   PO4 8124  16.775  18.282   9.153
 5387POPC   GL1 8125  16.735  18.271   8.853
 5387POPC   GL2 8126  16.667  18.190   8.853
 5387POPC   C1A 8127  16.757  18.238   8.553
 5387POPC   D2A 8128  16.719  18.245   8.253
 5387POPC   C3A 8129  16.696  18.267   7.953
 5387POPC   C4A 8130  16.689  18.253   7.653
 5387POPC   C1B 8131  16.630  18.075   8.553
 5387POPC   C2B 8132  16.644  18.069   8.253
 5387POPC   C3B 8133  16.622  18.039   7.953
 5387POPC   C4B 8134  16.682  18.027   7.653
 5388POPC   NC3 8135  30.744   3.495   9.453
 5388POPC   PO4 8136  30.676   3.547   9.153
 5388POPC   GL1 8137  30.731   3.528   8.853
 5388POPC   GL2 8138  30.695   3.642   8.853
 5388POPC   C1A 8139  30.746   3.520   8.553
 5388POPC   D2A 8140  30.666   3.492   8.253
 5388POPC   C3A 8141  30.683   3.549   7.953
 5388POPC   C4A 8142  30.688   3.540   7.653
 5388POPC   C1B 8143  30.621   3.798   8.553
 5388POPC   C2B 8144  30.631   3.768   8.253
 5388POPC   C3B 8145  30.619   3.778   7.953
 5388POPC   C4B 8146  30.616   3.741   7.653
 5389POPC   NC3 8147   3.506   1.209   9.453
 5389POPC   PO4 8148   3.511   1.227   9.153
 5389POPC   GL1 8149   3.586   1.241   8.853
 5389POPC   GL2 8150   3.684   1.099   8.853
 5389POPC   C1A 8151   3.586   1.182   8.553
 5389POPC   D2A 8152   3.513   1.194   8.253
 5389POPC   C3A 8153   3.544   1.199   7.953
 5389POPC   C4A 8154   3.573   1.184   7.653
 5389POPC   C1B 8155   3.773   1.055   8.553
 5389POPC   C2B 8156   3.754   1.061   8.253
 5389POPC   C3B 8157   3.793   1.094   7.953
 5389POPC   C4B 8158   3.757   1.129   7.653
 5390POPC   NC3 8159   1.175  30.680   9.453
 5390POPC   PO4 8160   1.175  30.743   9.153
 5390POPC   GL1 8161   1.197  30.738   8.853
 5390POPC   GL2 8162   1.135  30.546   8.853
 5390POPC   C1A 8163   1.229  30.647   8.553
 5390POPC   D2A 8164   1.193  30.648   8.253
 5390POPC   C3A 8165   1.232  30.733   7.953
 5390POPC   C4A 8166   1.235  30.702   7.653
 5390POPC   C1B 8167   1.078  30.448   8.553
 5390POPC   C2B 8168   1.163  30.448   8.253
 5390POPC   C3B 8169   1.165  30.437   7.953
 5390POPC   C4B 8170   1.164  30.449   7.653
 5391POPC   NC3 8171   8.212  23.728   9.453
 5391POPC   PO4 8172   8.158  23.729   9.153
 5391POPC   GL1 8173   8.148  23.674   8.853
 5391POPC   GL2 8174   8.192  23.563   8.853
 5391POPC   C1A 8175   8.150  23.736   8.553
 5391POPC   D2A 8176   8.170  23.684   8.253
 5391POPC   C3A 8177   8.210  23.711   7.953
 5391POPC   C4A 8178   8.233  23.698   7.653
 5391POPC   C1B 8179   8.263  23.481   8.553
 5391POPC   C2B 8180   8.248  23.499   8.253
 5391POPC   C3B 8181   8.268  23.424   7.953
 5391POPC   C4B 8182   8.179  23.496   7.653
 5392POPC   NC3 8183  20.630  33.006   9.453
 5392POPC   PO4 8184  20.612  33.050   9.153
 5392POPC   GL1 8185  20.563  33.010   8.853
 5392POPC   GL2 8186  20.708  33.021   8.853
 5392POPC   C1A 8187  20.581  33.017   8.553
 5392POPC   D2A 8188  20.640  33.009   8.253
 5392POPC   C3A 8189  20.606  33.007   7.953
 5392POPC   C4A 8190  20.654  33.014   7.653
 5392POPC   C1B 8191  20.871  32.940   8.553
 5392POPC   C2B 8192  20.843  32.960   8.253
 5392POPC   C3B 8193  20.837  32.875   7.953
 5392POPC   C4B 8194  20.836  32.880   7.653
 5393POPC   NC3 8195  42.304  33.754   9.453
 5393POPC   PO4 8196  42.363  33.846   9.153
 5393POPC   GL1 8197  42.384  33.794   8.853
 5393POPC   GL2 8198  42.174  33.807   8.853
 5393POPC   C1A 8199  42.298  33.770   8.553
 5393POPC   D2A 8200  42.340  33.783   8.253
 5393POPC   C3A 8201  42.361  33.834   7.953
 5393POPC   C4A 8202  42.336  33.826   7.653
 5393POPC   C1B 8203  42.088  33.815   8.553
 5393POPC   C2B 8204  42.120  33.845   8.253
 5393POPC   C3B 8205  42.039  33.871   7.953
 5393POPC   C4B 8206  42.071  33.803   7.653
 5394POPC   NC3 8207  40.741  36.901   9.453
 5394POPC   PO4 8208  40.801  36.948   9.153
 5394POPC   GL1 8209  40.736  36.860   8.853
 5394POPC   GL2 8210  40.644  36.895   8.853
 5394POPC   C1A 8211  40.760  36.919   8.553
 5394POPC   D2A 8212  40.745  36.936   8.253
 5394POPC   C3A 8213  40.814  36.932   7.953
 5394POPC   C4A 8214  40.794  36.875   7.653
 5394POPC   C1B 8215  40.573  36.937   8.553
 5394POPC   C2B 8216  40.525  36.951   8.253
 5394POPC   C3B 8217  40.509  36.965   7.953
 5394POPC   C4B 8218  40.580  37.003   7.653
 5395POPC   NC3 8219  12.821  13.578   9.453
 5395POPC   PO4 8220  12.821  13.663   9.153
 5395POPC   GL1 8221  12.862  13.616   8.853
 5395POPC   GL2 8222  12.766  13.484   8.853
 5395POPC   C1A 8223  12.852  13.643   8.553
 5395POPC   D2A 8224  12.872  13.653   8.253
 5395POPC   C3A 8225  12.862  13.607   7.953
 5395POPC   C4A 8226  12.850  13.594   7.653
 5395POPC   C1B 8227  12.797  13.377   8.553
 5395POPC   C2B 8228  12.715  13.395   8.253
 5395POPC   C3B 8229  12.788  13.432   7.953
 5395POPC   C4B 8230  12.789  13.430   7.653
 5396POPC   NC3 8231  28.394  33.824   9.453
 5396POPC   PO4 8232  28.347  33.839   9.153
 5396POPC   GL1 8233  28.378  33.811   8.853
 5396POPC   GL2 8234  28.491  33.874   8.853
 5396POPC   C1A 8235  28.407  33.836   8.553
 5396POPC   D2A 8236  28.359  33.771   8.253
 5396POPC   C3A 8237  28.369  33.756   7.953
 5396POPC   C4A 8238  28.321  33.821   7.653
 5396POPC   C1B 8239  28.539  34.031   8.553
 5396POPC   C2B 8240  28.521  34.004   8.253
 5396POPC   C3B 8241  28.524  33.973   7.953
 5396POPC   C4B 8242  28.493  33.960   7.653
 5397POPC   NC3 8243  14.450  34.566   9.453
 5397POPC   PO4 8244  14.423  34.622   9.153
 5397POPC   GL1 8245  14.361  34.592   8.853
 5397POPC   GL2 8246  14.370  34.490   8.853
 5397POPC   C1A 8247  14.385  34.537   8.553
 5397POPC   D2A 8248  14.441  34.580   8.253
 5397POPC   C3A 8249  14.420  34.566   7.953
 5397POPC   C4A 8250  14.451  34.529   7.653
 5397POPC   C1B 8251  14.371  34.352   8.553
 5397POPC   C2B 8252  14.331  34.281   8.253
 5397POPC   C3B 8253  14.411  34.342   7.953
 5397POPC   C4B 8254  14.392  34.340   7.653
 5398POPC   NC3 8255  44.662  22.943   9.453
 5398POPC   PO4 8256  44.711  22.923   9.153
 5398POPC   GL1 8257  44.643  22.891   8.853
 5398POPC   GL2 8258  44.634  23.096   8.853
 5398POPC   C1A 8259  44.632  22.890   8.553
 5398POPC   D2A 8260  44.622  22.925   8.253
 5398POPC   C3A 8261  44.666  22.952   7.953
 5398POPC   C4A 8262  44.629  22.948   7.653
 5398POPC   C1B 8263  44.736  23.209   8.553
 5398POPC   C2B 8264  44.662  23.180   8.253
 5398POPC   C3B 8265  44.696  23.144   7.953
 5398POPC   C4B 8266  44.700  23.185   7.653
 5399POPC   NC3 8267  34.588   0.464   9.453
 5399POPC   PO4 8268  34.551   0.480   9.153
 5399POPC   GL1 8269  34.599   0.464   8.853
 5399POPC   GL2 8270  34.413   0.474   8.853
 5399POPC   C1A 8271  34.621   0.447   8.553
 5399POPC   D2A 8272  34.529   0.462   8.253
 5399POPC   C3A 8273  34.528   0.395   7.953
 5399POPC   C4A 8274  34.606   0.435   7.653
 5399POPC   C1B 8275  34.321   0.479   8.553
 5399POPC   C2B 8276  34.347   0.464   8.253
 5399POPC   C3B 8277  34.277   0.490   7.953
 5399POPC   C4B 8278  34.335   0.448   7.653
 5400POPC   NC3 8279  39.201  35.362   9.453
 5400POPC   PO4 8280  39.268  35.362   9.153
 5400POPC   GL1 8281  39.265  35.390   8.853
 5400POPC   GL2 8282  39.277  35.205   8.853
 5400POPC   C1A 8283  39.275  35.318   8.553
 5400POPC   D2A 8284  39.271  35.389   8.253
 5400POPC   C3A 8285  39.247  35.353   7.953
 5400POPC   C4A 8286  39.212  35.337   7.653
 5400POPC   C1B 8287  39.242  35.112   8.553
 5400POPC   C2B 8288  39.265  35.059   8.253
 5400POPC   C3B 8289  39.236  35.086   7.953
 5400POPC   C4B 8290  39.220  35.107   7.653
 5401POPC   NC3 8291  21.417   2.005   9.453
 5401POPC   PO4 8292  21.367   1.961   9.153
 5401POPC   GL1 8293  21.357   2.019   8.853
 5401POPC   GL2 8294  21.533   2.032   8.853
 5401POPC   C1A 8295  21.384   1.994   8.553
 5401POPC   D2A 8296  21.353   1.964   8.253
 5401POPC   C3A 8297  21.392   2.026   7.953
 5401POPC   C4A 8298  21.429   2.019   7.653
 5401POPC   C1B 8299  21.672   1.997   8.553
 5401POPC   C2B 8300  21.591   2.053   8.253
 5401POPC   C3B 8301  21.629   1.979   7.953
 5401POPC   C4B 8302  21.624   2.070   7.653
 5402POPC   NC3 8303  22.184  27.568   9.453
 5402POPC   PO4 8304  22.177  27.624   9.153
 5402POPC   GL1 8305  22.173  27.604   8.853
 5402POPC   GL2 8306  22.244  27.639   8.853
 5402POPC   C1A 8307  22.170  27.578   8.553
 5402POPC   D2A 8308  22.130  27.619   8.253
 5402POPC   C3A 8309  22.173  27.613   7.953
 5402POPC   C4A 8310  22.190  27.559   7.653
 5402POPC   C1B 8311  22.323  27.737   8.553
 5402POPC   C2B 8312  22.358  27.741   8.253
 5402POPC   C3B 8313  22.414  27.693   7.953
 5402POPC   C4B 8314  22.336  27.695   7.653
 5403POPC   NC3 8315  43.076  36.100   9.453
 5403POPC   PO4 8316  43.091  36.177   9.153
 5403POPC   GL1 8317  43.117  36.083   8.853
 5403POPC   GL2 8318  43.249  36.130   8.853
 5403POPC   C1A 8319  43.086  36.148   8.553
 5403POPC   D2A 8320  43.105  36.151   8.253
 5403POPC   C3A 8321  43.139  36.120   7.953
 5403POPC   C4A 8322  43.067  36.174   7.653
 5403POPC   C1B 8323  43.369  36.077   8.553
 5403POPC   C2B 8324  43.390  36.059   8.253
 5403POPC   C3B 8325  43.332  36.103   7.953
 5403POPC   C4B 8326  43.323  36.063   7.653
 5404POPC   NC3 8327  29.139  17.503   9.453
 5404POPC   PO4 8328  29.125  17.546   9.153
 5404POPC   GL1 8329  29.154  17.495   8.853
 5404POPC   GL2 8330  29.258  17.522   8.853
 5404POPC   C1A 8331  29.134  17.501   8.553
 5404POPC   D2A 8332  29.192  17.500   8.253
 5404POPC   C3A 8333  29.156  17.536   7.953
 5404POPC   C4A 8334  29.180  17.550   7.653
 5404POPC   C1B 8335  29.355  17.565   8.553
 5404POPC   C2B 8336  29.360  17.551   8.253
 5404POPC   C3B 8337  29.374  17.568   7.953
 5404POPC   C4B 8338  29.371  17.546   7.653
 5405POPC   NC3 8339  33.810   2.015   9.453
 5405POPC   PO4 8340  33.817   1.991   9.153
 5405POPC   GL1 8341  33.794   1.964   8.853
 5405POPC   GL2 8342  33.783   1.857   8.853
 5405POPC   C1A 8343  33.769   2.029   8.553
 5405POPC   D2A 8344  33.777   1.999   8.253
 5405POPC   C3A 8345  33.802   1.955   7.953
 5405POPC   C4A 8346  33.840   1.989   7.653
 5405POPC   C1B 8347  33.866   1.752   8.553
 5405POPC   C2B 8348  33.849   1.750   8.253
 5405POPC   C3B 8349  33.832   1.767   7.953
 5405POPC   C4B 8350  33.823   1.706   7.653
 5406POPC   NC3 8351   0.399  29.882   9.453
 5406POPC   PO4 8352   0.430  29.888   9.153
 5406POPC   GL1 8353   0.460  29.941   8.853
 5406POPC   GL2 8354   0.362  30.051   8.853
 5406POPC   C1A 8355   0.447  29.935   8.553
 5406POPC   D2A 8356   0.438  29.958   8.253
 5406POPC   C3A 8357   0.427  29.917   7.953
 5406POPC   C4A 8358   0.487  29.946   7.653
 5406POPC   C1B 8359   0.369  30.188   8.553
 5406POPC   C2B 8360   0.354  30.172   8.253
 5406POPC   C3B 8361   0.334  30.155   7.953
 5406POPC   C4B 8362   0.301  30.109   7.653
 5407POPC   NC3 8363  33.792  10.495   9.453
 5407POPC   PO4 8364  33.767  10.545   9.153
 5407POPC   GL1 8365  33.782  10.548   8.853
 5407POPC   GL2 8366  33.775  10.672   8.853
 5407POPC   C1A 8367  33.825  10.513   8.553
 5407POPC   D2A 8368  33.812  10.571   8.253
 5407POPC   C3A 8369  33.780  10.478   7.953
 5407POPC   C4A 8370  33.781  10.494   7.653
 5407POPC   C1B 8371  33.674  10.803   8.553
 5407POPC   C2B 8372  33.714  10.762   8.253
 5407POPC   C3B 8373  33.716  10.797   7.953
 5407POPC   C4B 8374  33.671  10.721   7.653
 5408POPC   NC3 8375  23.762  36.888   9.453
 5408POPC   PO4 8376  23.673  36.942   9.153
 5408POPC   GL1 8377  23.751  36.953   8.853
 5408POPC   GL2 8378  23.814  36.824   8.853
 5408POPC   C1A 8379  23.718  36.944   8.553
 5408POPC   D2A 8380  23.718  36.948   8.253
 5408POPC   C3A 8381  23.665  36.859   7.953
 5408POPC   C4A 8382  23.705  36.878   7.653
 5408POPC   C1B 8383  23.991  36.834   8.553
 5408POPC   C2B 8384  23.962  36.842   8.253
 5408POPC   C3B 8385  23.940  36.817   7.953
 5408POPC   C4B 8386  23.983  36.765   7.653
 5409POPC   NC3 8387  19.041  19.787   9.453
 5409POPC   PO4 8388  19.078  19.825   9.153
 5409POPC   GL1 8389  19.096  19.843   8.853
 5409POPC   GL2 8390  18.925  19.862   8.853
 5409POPC   C1A 8391  19.011  19.869   8.553
 5409POPC   D2A 8392  19.022  19.785   8.253
 5409POPC   C3A 8393  19.051  19.807   7.953
 5409POPC   C4A 8394  19.069  19.801   7.653
 5409POPC   C1B 8395  18.883  19.978   8.553
 5409POPC   C2B 8396  18.834  19.902   8.253
 5409POPC   C3B 8397  18.796  19.904   7.953
 5409POPC   C4B 8398  18.880  19.909   7.653
 5410POPC   NC3 8399  12.052  15.155   9.453
 5410POPC   PO4 8400  12.032  15.199   9.153
 5410POPC   GL1 8401  12.074  15.149   8.853
 5410POPC   GL2 8402  11.979  15.121   8.853
 5410POPC   C1A 8403  12.043  15.211   8.553
 5410POPC   D2A 8404  12.065  15.220   8.253
 5410POPC   C3A 8405  12.073  15.183   7.953
 5410POPC   C4A 8406  12.030  15.197   7.653
 5410POPC   C1B 8407  11.978  14.981   8.553
 5410POPC   C2B 8408  11.957  15.013   8.253
 5410POPC   C3B 8409  11.953  14.968   7.953
 5410POPC   C4B 8410  11.934  14.927   7.653
 5411POPC   NC3 8411  32.222  22.171   9.453
 5411POPC   PO4 8412  32.199  22.155   9.153
 5411POPC   GL1 8413  32.279  22.154   8.853
 5411POPC   GL2 8414  32.124  22.195   8.853
 5411POPC   C1A 8415  32.226  22.138   8.553
 5411POPC   D2A 8416  32.279  22.202   8.253
 5411POPC   C3A 8417  32.279  22.175   7.953
 5411POPC   C4A 8418  32.204  22.166   7.653
 5411POPC   C1B 8419  32.046  22.115   8.553
 5411POPC   C2B 8420  31.960  22.107   8.253
 5411POPC   C3B 8421  32.014  22.177   7.953
 5411POPC   C4B 8422  31.997  22.165   7.653
 5412POPC   NC3 8423   2.007  39.233   9.453
 5412POPC   PO4 8424   2.028  39.206   9.153
 5412POPC   GL1 8425   2.033  39.231   8.853
 5412POPC   GL2 8426   1.920  39.347   8.853
 5412POPC   C1A 8427   2.022  39.253   8.553
 5412POPC   D2A 8428   2.005  39.257   8.253
 5412POPC   C3A 8429   1.970  39.264   7.953
 5412POPC   C4A 8430   2.010  39.272   7.653
 5412POPC   C1B 8431   1.941  39.426   8.553
 5412POPC   C2B 8432   1.863  39.496   8.253
 5412POPC   C3B 8433   1.885  39.457   7.953
 5412POPC   C4B 8434   1.958  39.429   7.653
 5413POPC   NC3 8435  12.831  19.844   9.453
 5413POPC   PO4 8436  12.860  19.827   9.153
 5413POPC   GL1 8437  12.874  19.790   8.853
 5413POPC   GL2 8438  12.933  19.823   8.853
 5413POPC   C1A 8439  12.891  19.841   8.553
 5413POPC   D2A 8440  12.827  19.847   8.253
 5413POPC   C3A 8441  12.874  19.808   7.953
 5413POPC   C4A 8442  12.843  19.818   7.653
 5413POPC   C1B 8443  13.076  19.740   8.553
 5413POPC   C2B 8444  13.113  19.723   8.253
 5413POPC   C3B 8445  13.111  19.763   7.953
 5413POPC   C4B 8446  13.081  19.720   7.653
 5414POPC   NC3 8447   5.052   8.949   9.453
 5414POPC   PO4 8448   5.138   8.923   9.153
 5414POPC   GL1 8449   5.075   9.010   8.853
 5414POPC   GL2 8450   5.235   9.046   8.853
 5414POPC   C1A 8451   5.113   8.955   8.553
 5414POPC   D2A 8452   5.053   8.972   8.253
 5414POPC   C3A 8453   5.073   8.946   7.953
 5414POPC   C4A 8454   5.106   9.008   7.653
 5414POPC   C1B 8455   5.308   9.113   8.553
 5414POPC   C2B 8456   5.293   9.166   8.253
 5414POPC   C3B 8457   5.268   9.134   7.953
 5414POPC   C4B 8458   5.243   9.177   7.653
 5415POPC   NC3 8459  21.373  30.680   9.453
 5415POPC   PO4 8460  21.369  30.699   9.153
 5415POPC   GL1 8461  21.402  30.697   8.853
 5415POPC   GL2 8462  21.309  30.839   8.853
 5415POPC   C1A 8463  21.422  30.698   8.553
 5415POPC   D2A 8464  21.355  30.654   8.253
 5415POPC   C3A 8465  21.433  30.672   7.953
 5415POPC   C4A 8466  21.383  30.718   7.653
 5415POPC   C1B 8467  21.316  30.949   8.553
 5415POPC   C2B 8468  21.283  30.885   8.253
 5415POPC   C3B 8469  21.289  30.888   7.953
 5415POPC   C4B 8470  21.280  30.886   7.653
 5416POPC   NC3 8471  25.233  17.474   9.453
 5416POPC   PO4 8472  25.309  17.505   9.153
 5416POPC   GL1 8473  25.223  17.470   8.853
 5416POPC   GL2 8474  25.130  17.567   8.853
 5416POPC   C1A 8475  25.291  17.473   8.553
 5416POPC   D2A 8476  25.277  17.488   8.253
 5416POPC   C3A 8477  25.299  17.467   7.953
 5416POPC   C4A 8478  25.265  17.483   7.653
 5416POPC   C1B 8479  25.010  17.598   8.553
 5416POPC   C2B 8480  25.085  17.642   8.253
 5416POPC   C3B 8481  25.086  17.653   7.953
 5416POPC   C4B 8482  25.017  17.639   7.653
 5417POPC   NC3 8483  12.899   8.207   9.453
 5417POPC   PO4 8484  12.865   8.180   9.153
 5417POPC   GL1 8485  12.893   8.153   8.853
 5417POPC   GL2 8486  12.767   8.300   8.853
 5417POPC   C1A 8487  12.820   8.222   8.553
 5417POPC   D2A 8488  12.835   8.232   8.253
 5417POPC   C3A 8489  12.899   8.155   7.953
 5417POPC   C4A 8490  12.847   8.187   7.653
 5417POPC   C1B 8491  12.674   8.285   8.553
 5417POPC   C2B 8492  12.608   8.290   8.253
 5417POPC   C3B 8493  12.668   8.367   7.953
 5417POPC   C4B 8494  12.647   8.298   7.653
 5418POPC   NC3 8495   9.717  20.602   9.453
 5418POPC   PO4 8496   9.761  20.578   9.153
 5418POPC   GL1 8497   9.795  20.587   8.853
 5418POPC   GL2 8498   9.837  20.611   8.853
 5418POPC   C1A 8499   9.761  20.650   8.553
 5418POPC   D2A 8500   9.738  20.580   8.253
 5418POPC   C3A 8501   9.700  20.585   7.953
 5418POPC   C4A 8502   9.744  20.586   7.653
 5418POPC   C1B 8503   9.963  20.615   8.553
 5418POPC   C2B 8504  10.012  20.586   8.253
 5418POPC   C3B 8505  10.018  20.601   7.953
 5418POPC   C4B 8506   9.989  20.538   7.653
 5419POPC   NC3 8507  43.840  12.870   9.453
 5419POPC   PO4 8508  43.880  12.879   9.153
 5419POPC   GL1 8509  43.873  12.897   8.853
 5419POPC   GL2 8510  43.751  12.734   8.853
 5419POPC   C1A 8511  43.919  12.807   8.553
 5419POPC   D2A 8512  43.923  12.861   8.253
 5419POPC   C3A 8513  43.882  12.820   7.953
 5419POPC   C4A 8514  43.857  12.881   7.653
 5419POPC   C1B 8515  43.721  12.686   8.553
 5419POPC   C2B 8516  43.656  12.702   8.253
 5419POPC   C3B 8517  43.723  12.689   7.953
 5419POPC   C4B 8518  43.690  12.633   7.653
 5420POPC   NC3 8519   2.809  29.172   9.453
 5420POPC   PO4 8520   2.777  29.149   9.153
 5420POPC   GL1 8521   2.784  29.179   8.853
 5420POPC   GL2 8522   2.632  29.180   8.853
 5420POPC   C1A 8523   2.787  29.113   8.553
 5420POPC   D2A 8524   2.728  29.149   8.253
 5420POPC   C3A 8525   2.717  29.184   7.953
 5420POPC   C4A 8526   2.766  29.177   7.653
 5420POPC   C1B 8527   2.520  29.156   8.553
 5420POPC   C2B 8528   2.566  29.204   8.253
 5420POPC   C3B 8529   2.472  29.135   7.953
 5420POPC   C4B 8530   2.495  29.139   7.653
 5421POPC   NC3 8531   7.395  43.883   9.453
 5421POPC   PO4 8532   7.403  43.872   9.153
 5421POPC   GL1 8533   7.401  43.910   8.853
 5421POPC   GL2 8534   7.387  44.028   8.853
 5421POPC   C1A 8535   7.459  43.894   8.553
 5421POPC   D2A 8536   7.443  43.901   8.253
 5421POPC   C3A 8537   7.411  43.852   7.953
 5421POPC   C4A 8538   7.424  43.858   7.653
 5421POPC   C1B 8539   7.305  44.104   8.553
 5421POPC   C2B 8540   7.316  44.136   8.253
 5421POPC   C3B 8541   7.256  44.152   7.953
 5421POPC   C4B 8542   7.337  44.082   7.653
 5422POPC   NC3 8543  17.470  33.759   9.453
 5422POPC   PO4 8544  17.468  33.802   9.153
 5422POPC   GL1 8545  17.527  33.800   8.853
 5422POPC   GL2 8546  17.575  33.891   8.853
 5422POPC   C1A 8547  17.459  33.803   8.553
 5422POPC   D2A 8548  17.519  33.789   8.253
 5422POPC   C3A 8549  17.550  33.808   7.953
 5422POPC   C4A 8550  17.551  33.843   7.653
 5422POPC   C1B 8551  17.576  34.089   8.553
 5422POPC   C2B 8552  17.565  34.016   8.253
 5422POPC   C3B 8553  17.544  34.086   7.953
 5422POPC   C4B 8554  17.534  34.045   7.653
 5423POPC   NC3 8555  23.740  25.309   9.453
 5423POPC   PO4 8556  23.735  25.274   9.153
 5423POPC   GL1 8557  23.762  25.300   8.853
 5423POPC   GL2 8558  23.723  25.183   8.853
 5423POPC   C1A 8559  23.737  25.301   8.553
 5423POPC   D2A 8560  23.711  25.314   8.253
 5423POPC   C3A 8561  23.671  25.224   7.953
 5423POPC   C4A 8562  23.685  25.259   7.653
 5423POPC   C1B 8563  23.797  25.056   8.553
 5423POPC   C2B 8564  23.865  25.013   8.253
 5423POPC   C3B 8565  23.825  25.006   7.953
 5423POPC   C4B 8566  23.778  25.022   7.653
 5424POPC   NC3 8567  25.994   2.725   9.453
 5424POPC   PO4 8568  26.049   2.814   9.153
 5424POPC   GL1 8569  26.027   2.796   8.853
 5424POPC   GL2 8570  26.138   2.675   8.853
 5424POPC   C1A 8571  26.022   2.758   8.553
 5424POPC   D2A 8572  26.063   2.751   8.253
 5424POPC   C3A 8573  26.065   2.718   7.953
 5424POPC   C4A 8574  26.079   2.772   7.653
 5424POPC   C1B 8575  26.263   2.595   8.553
 5424POPC   C2B 8576  26.224   2.614   8.253
 5424POPC   C3B 8577  26.245   2.620   7.953
 5424POPC   C4B 8578  26.239   2.641   7.653
 5425POPC   NC3 8579   1.209  43.075   9.453
 5425POPC   PO4 8580   1.166  43.148   9.153
 5425POPC   GL1 8581   1.167  43.148   8.853
 5425POPC   GL2 8582   1.252  43.267   8.853
 5425POPC   C1A 8583   1.191  43.100   8.553
 5425POPC   D2A 8584   1.191  43.151   8.253
 5425POPC   C3A 8585   1.214  43.111   7.953
 5425POPC   C4A 8586   1.235  43.118   7.653
 5425POPC   C1B 8587   1.171  43.335   8.553
 5425POPC   C2B 8588   1.212  43.350   8.253
 5425POPC   C3B 8589   1.216  43.352   7.953
 5425POPC   C4B 8590   1.220  43.321   7.653
 5426POPC   NC3 8591  34.615  39.981   9.453
 5426POPC   PO4 8592  34.604  39.958   9.153
 5426POPC   GL1 8593  34.598  39.991   8.853
 5426POPC   GL2 8594  34.507  40.098   8.853
 5426POPC   C1A 8595  34.538  40.056   8.553
 5426POPC   D2A 8596  34.571  40.056   8.253
 5426POPC   C3A 8597  34.550  40.051   7.953
 5426POPC   C4A 8598  34.582  39.989   7.653
 5426POPC   C1B 8599  34.401  40.155   8.553
 5426POPC   C2B 8600  34.386  40.154   8.253
 5426POPC   C3B 8601  34.396  40.085   7.953
 5426POPC   C4B 8602  34.385  40.085   7.653
 5427POPC   NC3 8603  37.632  32.290   9.453
 5427POPC   PO4 8604  37.697  32.213   9.153
 5427POPC   GL1 8605  37.708  32.232   8.853
 5427POPC   GL2 8606  37.721  32.204   8.853
 5427POPC   C1A 8607  37.698  32.202   8.553
 5427POPC   D2A 8608  37.638  32.259   8.253
 5427POPC   C3A 8609  37.707  32.288   7.953
 5427POPC   C4A 8610  37.707  32.266   7.653
 5427POPC   C1B 8611  37.887  32.107   8.553
 5427POPC   C2B 8612  37.865  32.104   8.253
 5427POPC   C3B 8613  37.872  32.073   7.953
 5427POPC   C4B 8614  37.895  32.105   7.653
 5428POPC   NC3 8615  42.300  40.025   9.453
 5428POPC   PO4 8616  42.333  39.959   9.153
 5428POPC   GL1 8617  42.380  40.046   8.853
 5428POPC   GL2 8618  42.257  40.139   8.853
 5428POPC   C1A 8619  42.328  39.990   8.553
 5428POPC   D2A 8620  42.323  40.041   8.253
 5428POPC   C3A 8621  42.305  40.023   7.953
 5428POPC   C4A 8622  42.377  39.987   7.653
 5428POPC   C1B 8623  42.165  40.189   8.553
 5428POPC   C2B 8624  42.138  40.134   8.253
 5428POPC   C3B 8625  42.178  40.209   7.953
 5428POPC   C4B 8626  42.141  40.220   7.653
 5429POPC   NC3 8627  19.046  16.711   9.453
 5429POPC   PO4 8628  19.056  16.745   9.153
 5429POPC   GL1 8629  19.052  16.762   8.853
 5429POPC   GL2 8630  19.037  16.894   8.853
 5429POPC   C1A 8631  19.104  16.766   8.553
 5429POPC   D2A 8632  19.080  16.717   8.253
 5429POPC   C3A 8633  19.101  16.779   7.953
 5429POPC   C4A 8634  19.103  16.693   7.653
 5429POPC   C1B 8635  18.973  16.981   8.553
 5429POPC   C2B 8636  19.017  16.926   8.253
 5429POPC   C3B 8637  19.012  16.991   7.953
 5429POPC   C4B 8638  18.990  16.982   7.653
 5430POPC   NC3 8639   5.128  12.029   9.453
 5430POPC   PO4 8640   5.067  12.108   9.153
 5430POPC   GL1 8641   5.104  12.111   8.853
 5430POPC   GL2 8642   5.235  11.965   8.853
 5430POPC   C1A 8643   5.130  12.040   8.553
 5430POPC   D2A 8644   5.081  12.086   8.253
 5430POPC   C3A 8645   5.089  12.095   7.953
 5430POPC   C4A 8646   5.115  12.049   7.653
 5430POPC   C1B 8647   5.283  11.867   8.553
 5430POPC   C2B 8648   5.320  11.892   8.253
 5430POPC   C3B 8649   5.300  11.942   7.953
 5430POPC   C4B 8650   5.277  11.948   7.653
 5431POPC   NC3 8651  32.211  19.042   9.453
 5431POPC   PO4 8652  32.234  19.010   9.153
 5431POPC   GL1 8653  32.221  19.050   8.853
 5431POPC   GL2 8654  32.218  19.223   8.853
 5431POPC   C1A 8655  32.237  19.072   8.553
 5431POPC   D2A 8656  32.208  19.013   8.253
 5431POPC   C3A 8657  32.264  19.013   7.953
 5431POPC   C4A 8658  32.277  19.056   7.653
 5431POPC   C1B 8659  32.290  19.315   8.553
 5431POPC   C2B 8660  32.313  19.302   8.253
 5431POPC   C3B 8661  32.311  19.297   7.953
 5431POPC   C4B 8662  32.254  19.311   7.653
 5432POPC   NC3 8663   6.599  42.311   9.453
 5432POPC   PO4 8664   6.644  42.311   9.153
 5432POPC   GL1 8665   6.636  42.313   8.853
 5432POPC   GL2 8666   6.711  42.421   8.853
 5432POPC   C1A 8667   6.673  42.313   8.553
 5432POPC   D2A 8668   6.608  42.326   8.253
 5432POPC   C3A 8669   6.613  42.330   7.953
 5432POPC   C4A 8670   6.646  42.337   7.653
 5432POPC   C1B 8671   6.762  42.532   8.553
 5432POPC   C2B 8672   6.764  42.581   8.253
 5432POPC   C3B 8673   6.764  42.576   7.953
 5432POPC   C4B 8674   6.766  42.588   7.653
 5433POPC   NC3 8675  10.497  16.735   9.453
 5433POPC   PO4 8676  10.527  16.754   9.153
 5433POPC   GL1 8677  10.522  16.773   8.853
 5433POPC   GL2 8678  10.601  16.782   8.853
 5433POPC   C1A 8679  10.485  16.719   8.553
 5433POPC   D2A 8680  10.557  16.727   8.253
 5433POPC   C3A 8681  10.541  16.726   7.953
 5433POPC   C4A 8682  10.488  16.730   7.653
 5433POPC   C1B 8683  10.745  16.861   8.553
 5433POPC   C2B 8684  10.801  16.816   8.253
 5433POPC   C3B 8685  10.729  16.783   7.953
 5433POPC   C4B 8686  10.788  16.822   7.653
 5434POPC   NC3 8687  40.820  43.907   9.453
 5434POPC   PO4 8688  40.765  43.930   9.153
 5434POPC   GL1 8689  40.796  43.867   8.853
 5434POPC   GL2 8690  40.718  43.827   8.853
 5434POPC   C1A 8691  40.831  43.845   8.553
 5434POPC   D2A 8692  40.823  43.882   8.253
 5434POPC   C3A 8693  40.832  43.863   7.953
 5434POPC   C4A 8694  40.756  43.840   7.653
 5434POPC   C1B 8695  40.549  43.689   8.553
 5434POPC   C2B 8696  40.617  43.682   8.253
 5434POPC   C3B 8697  40.566  43.697   7.953
 5434POPC   C4B 8698  40.551  43.721   7.653
 5435POPC   NC3 8699  13.579  37.709   9.453
 5435POPC   PO4 8700  13.593  37.664   9.153
 5435POPC   GL1 8701  13.586  37.660   8.853
 5435POPC   GL2 8702  13.571  37.794   8.853
 5435POPC   C1A 8703  13.616  37.682   8.553
 5435POPC   D2A 8704  13.580  37.640   8.253
 5435POPC   C3A 8705  13.647  37.680   7.953
 5435POPC   C4A 8706  13.625  37.725   7.653
 5435POPC   C1B 8707  13.575  37.939   8.553
 5435POPC   C2B 8708  13.558  37.868   8.253
 5435POPC   C3B 8709  13.564  37.865   7.953
 5435POPC   C4B 8710  13.565  37.925   7.653
 5436POPC   NC3 8711  29.180  16.693   9.453
 5436POPC   PO4 8712  29.174  16.706   9.153
 5436POPC   GL1 8713  29.098  16.742   8.853
 5436POPC   GL2 8714  29.192  16.607   8.853
 5436POPC   C1A 8715  29.115  16.722   8.553
 5436POPC   D2A 8716  29.170  16.755   8.253
 5436POPC   C3A 8717  29.112  16.696   7.953
 5436POPC   C4A 8718  29.113  16.709   7.653
 5436POPC   C1B 8719  29.360  16.528   8.553
 5436POPC   C2B 8720  29.349  16.578   8.253
 5436POPC   C3B 8721  29.308  16.533   7.953
 5436POPC   C4B 8722  29.307  16.522   7.653
 5437POPC   NC3 8723  29.931  40.001   9.453
 5437POPC   PO4 8724  29.902  40.047   9.153
 5437POPC   GL1 8725  29.894  40.044   8.853
 5437POPC   GL2 8726  29.901  39.868   8.853
 5437POPC   C1A 8727  29.917  40.018   8.553
 5437POPC   D2A 8728  29.968  40.018   8.253
 5437POPC   C3A 8729  29.927  39.989   7.953
 5437POPC   C4A 8730  29.927  39.980   7.653
 5437POPC   C1B 8731  29.866  39.721   8.553
 5437POPC   C2B 8732  29.939  39.794   8.253
 5437POPC   C3B 8733  29.907  39.764   7.953
 5437POPC   C4B 8734  29.883  39.737   7.653
 5438POPC   NC3 8735  29.135  29.110   9.453
 5438POPC   PO4 8736  29.104  29.133   9.153
 5438POPC   GL1 8737  29.158  29.141   8.853
 5438POPC   GL2 8738  28.971  29.104   8.853
 5438POPC   C1A 8739  29.115  29.119   8.553
 5438POPC   D2A 8740  29.136  29.131   8.253
 5438POPC   C3A 8741  29.142  29.124   7.953
 5438POPC   C4A 8742  29.124  29.160   7.653
 5438POPC   C1B 8743  28.873  29.151   8.553
 5438POPC   C2B 8744  28.923  29.085   8.253
 5438POPC   C3B 8745  28.901  29.161   7.953
 5438POPC   C4B 8746  28.905  29.113   7.653
 5439POPC   NC3 8747  10.503  37.689   9.453
 5439POPC   PO4 8748  10.544  37.697   9.153
 5439POPC   GL1 8749  10.515  37.690   8.853
 5439POPC   GL2 8750  10.548  37.808   8.853
 5439POPC   C1A 8751  10.544  37.727   8.553
 5439POPC   D2A 8752  10.493  37.695   8.253
 5439POPC   C3A 8753  10.555  37.674   7.953
 5439POPC   C4A 8754  10.501  37.675   7.653
 5439POPC   C1B 8755  10.606  37.891   8.553
 5439POPC   C2B 8756  10.619  37.949   8.253
 5439POPC   C3B 8757  10.667  37.889   7.953
 5439POPC   C4B 8758  10.637  37.876   7.653
 5440POPC   NC3 8759  23.732  10.553   9.453
 5440POPC   PO4 8760  23.750  10.557   9.153
 5440POPC   GL1 8761  23.746  10.532   8.853
 5440POPC   GL2 8762  23.596  10.484   8.853
 5440POPC   C1A 8763  23.676  10.482   8.553
 5440POPC   D2A 8764  23.737  10.519   8.253
 5440POPC   C3A 8765  23.690  10.519   7.953
 5440POPC   C4A 8766  23.736  10.502   7.653
 5440POPC   C1B 8767  23.469  10.492   8.553
 5440POPC   C2B 8768  23.477  10.451   8.253
 5440POPC   C3B 8769  23.461  10.448   7.953
 5440POPC   C4B 8770  23.441  10.438   7.653
 5441POPC   NC3 8771  16.687  44.651   9.453
 5441POPC   PO4 8772  16.730  44.663   9.153
 5441POPC   GL1 8773  16.781  44.650   8.853
 5441POPC   GL2 8774  16.635  44.569   8.853
 5441POPC   C1A 8775  16.701  44.701   8.553
 5441POPC   D2A 8776  16.754  44.707   8.253
 5441POPC   C3A 8777  16.692  44.621   7.953
 5441POPC   C4A 8778  16.733  44.705   7.653
 5441POPC   C1B 8779  16.609  44.421   8.553
 5441POPC   C2B 8780  16.648  44.397   8.253
 5441POPC   C3B 8781  16.650  44.430   7.953
 5441POPC   C4B 8782  16.638  44.410   7.653
 5442POPC   NC3 8783   9.763  31.505   9.453
 5442POPC   PO4 8784   9.706  31.511   9.153
 5442POPC   GL1 8785   9.753  31.430   8.853
 5442POPC   GL2 8786   9.740  31.594   8.853
 5442POPC   C1A 8787   9.727  31.476   8.553
 5442POPC   D2A 8788   9.746  31.483   8.253
 5442POPC   C3A 8789   9.792  31.425   7.953
 5442POPC   C4A 8790   9.745  31.475   7.653
 5442POPC   C1B 8791   9.719  31.672   8.553
 5442POPC   C2B 8792   9.691  31.667   8.253
 5442POPC   C3B 8793   9.704  31.691   7.953
 5442POPC   C4B 8794   9.721  31.751   7.653
 5443POPC   NC3 8795  13.579  10.502   9.453
 5443POPC   PO4 8796  13.590  10.479   9.153
 5443POPC   GL1 8797  13.616  10.573   8.853
 5443POPC   GL2 8798  13.672  10.365   8.853
 5443POPC   C1A 8799  13.665  10.532   8.553
 5443POPC   D2A 8800  13.633  10.522   8.253
 5443POPC   C3A 8801  13.645  10.497   7.953
 5443POPC   C4A 8802  13.655  10.550   7.653
 5443POPC   C1B 8803  13.642  10.228   8.553
 5443POPC   C2B 8804  13.618  10.275   8.253
 5443POPC   C3B 8805  13.672  10.228   7.953
 5443POPC   C4B 8806  13.627  10.261   7.653
 5444POPC   NC3 8807  28.325  38.464   9.453
 5444POPC   PO4 8808  28.368  38.499   9.153
 5444POPC   GL1 8809  28.342  38.446   8.853
 5444POPC   GL2 8810  28.289  38.387   8.853
 5444POPC   C1A 8811  28.353  38.435   8.553
 5444POPC   D2A 8812  28.378  38.480   8.253
 5444POPC   C3A 8813  28.378  38.410   7.953
 5444POPC   C4A 8814  28.383  38.417   7.653
 5444POPC   C1B 8815  28.145  38.253   8.553
 5444POPC   C2B 8816  28.167  38.275   8.253
 5444POPC   C3B 8817  28.207  38.286   7.953
 5444POPC   C4B 8818  28.185  38.304   7.653
 5445POPC   NC3 8819  34.530  30.686   9.453
 5445POPC   PO4 8820  34.615  30.717   9.153
 5445POPC   GL1 8821  34.608  30.681   8.853
 5445POPC   GL2 8822  34.554  30.608   8.853
 5445POPC   C1A 8823  34.580  30.659   8.553
 5445POPC   D2A 8824  34.538  30.661   8.253
 5445POPC   C3A 8825  34.530  30.672   7.953
 5445POPC   C4A 8826  34.531  30.739   7.653
 5445POPC   C1B 8827  34.504  30.424   8.553
 5445POPC   C2B 8828  34.449  30.412   8.253
 5445POPC   C3B 8829  34.482  30.436   7.953
 5445POPC   C4B 8830  34.539  30.453   7.653
 5446POPC   NC3 8831  20.578  15.190   9.453
 5446POPC   PO4 8832  20.620  15.174   9.153
 5446POPC   GL1 8833  20.579  15.184   8.853
 5446POPC   GL2 8834  20.536  15.065   8.853
 5446POPC   C1A 8835  20.600  15.191   8.553
 5446POPC   D2A 8836  20.565  15.167   8.253
 5446POPC   C3A 8837  20.583  15.188   7.953
 5446POPC   C4A 8838  20.654  15.169   7.653
 5446POPC   C1B 8839  20.558  14.919   8.553
 5446POPC   C2B 8840  20.516  14.927   8.253
 5446POPC   C3B 8841  20.533  14.975   7.953
 5446POPC   C4B 8842  20.478  14.969   7.653
 5447POPC   NC3 8843  17.530  40.797   9.453
 5447POPC   PO4 8844  17.483  40.830   9.153
 5447POPC   GL1 8845  17.527  40.807   8.853
 5447POPC   GL2 8846  17.542  40.895   8.853
 5447POPC   C1A 8847  17.531  40.788   8.553
 5447POPC   D2A 8848  17.488  40.751   8.253
 5447POPC   C3A 8849  17.466  40.786   7.953
 5447POPC   C4A 8850  17.549  40.811   7.653
 5447POPC   C1B 8851  17.606  40.949   8.553
 5447POPC   C2B 8852  17.691  41.002   8.253
 5447POPC   C3B 8853  17.661  41.019   7.953
 5447POPC   C4B 8854  17.692  41.013   7.653
 5448POPC   NC3 8855  39.232   5.129   9.453
 5448POPC   PO4 8856  39.251   5.090   9.153
 5448POPC   GL1 8857  39.181   5.137   8.853
 5448POPC   GL2 8858  39.111   5.200   8.853
 5448POPC   C1A 8859  39.185   5.076   8.553
 5448POPC   D2A 8860  39.231   5.104   8.253
 5448POPC   C3A 8861  39.229   5.111   7.953
 5448POPC   C4A 8862  39.183   5.117   7.653
 5448POPC   C1B 8863  39.037   5.329   8.553
 5448POPC   C2B 8864  39.116   5.294   8.253
 5448POPC   C3B 8865  39.060   5.288   7.953
 5448POPC   C4B 8866  39.045   5.298   7.653
 5449POPC   NC3 8867  29.885   2.789   9.453
 5449POPC   PO4 8868  29.888   2.767   9.153
 5449POPC   GL1 8869  29.887   2.776   8.853
 5449POPC   GL2 8870  30.043   2.844   8.853
 5449POPC   C1A 8871  29.963   2.767   8.553
 5449POPC   D2A 8872  29.910   2.804   8.253
 5449POPC   C3A 8873  29.873   2.736   7.953
 5449POPC   C4A 8874  29.896   2.792   7.653
 5449POPC   C1B 8875  30.070   3.009   8.553
 5449POPC   C2B 8876  30.029   2.983   8.253
 5449POPC   C3B 8877  30.045   3.005   7.953
 5449POPC   C4B 8878  30.040   3.004   7.653
 5450POPC   NC3 8879  43.087   6.641   9.453
 5450POPC   PO4 8880  43.104   6.615   9.153
 5450POPC   GL1 8881  43.078   6.608   8.853
 5450POPC   GL2 8882  43.039   6.769   8.853
 5450POPC   C1A 8883  43.121   6.609   8.553
 5450POPC   D2A 8884  43.152   6.636   8.253
 5450POPC   C3A 8885  43.111   6.644   7.953
 5450POPC   C4A 8886  43.152   6.687   7.653
 5450POPC   C1B 8887  42.965   6.822   8.553
 5450POPC   C2B 8888  42.895   6.831   8.253
 5450POPC   C3B 8889  42.890   6.835   7.953
 5450POPC   C4B 8890  42.956   6.768   7.653
 5451POPC   NC3 8891  22.901  36.118   9.453
 5451POPC   PO4 8892  22.961  36.166   9.153
 5451POPC   GL1 8893  22.968  36.114   8.853
 5451POPC   GL2 8894  22.855  36.166   8.853
 5451POPC   C1A 8895  22.986  36.103   8.553
 5451POPC   D2A 8896  22.959  36.129   8.253
 5451POPC   C3A 8897  22.926  36.117   7.953
 5451POPC   C4A 8898  22.930  36.123   7.653
 5451POPC   C1B 8899  22.780  36.249   8.553
 5451POPC   C2B 8900  22.759  36.275   8.253
 5451POPC   C3B 8901  22.724  36.270   7.953
 5451POPC   C4B 8902  22.762  36.239   7.653
 5452POPC   NC3 8903  17.521  43.929   9.453
 5452POPC   PO4 8904  17.479  43.882   9.153
 5452POPC   GL1 8905  17.477  43.866   8.853
 5452POPC   GL2 8906  17.438  43.992   8.853
 5452POPC   C1A 8907  17.494  43.864   8.553
 5452POPC   D2A 8908  17.457  43.862   8.253
 5452POPC   C3A 8909  17.545  43.932   7.953
 5452POPC   C4A 8910  17.499  43.845   7.653
 5452POPC   C1B 8911  17.404  44.077   8.553
 5452POPC   C2B 8912  17.421  44.141   8.253
 5452POPC   C3B 8913  17.443  44.151   7.953
 5452POPC   C4B 8914  17.373  44.166   7.653
 5453POPC   NC3 8915  36.097  43.842   9.453
 5453POPC   PO4 8916  36.137  43.890   9.153
 5453POPC   GL1 8917  36.121  43.891   8.853
 5453POPC   GL2 8918  36.052  44.042   8.853
 5453POPC   C1A 8919  36.079  43.882   8.553
 5453POPC   D2A 8920  36.126  43.867   8.253
 5453POPC   C3A 8921  36.087  43.890   7.953
 5453POPC   C4A 8922  36.140  43.865   7.653
 5453POPC   C1B 8923  36.035  44.116   8.553
 5453POPC   C2B 8924  35.985  44.088   8.253
 5453POPC   C3B 8925  36.035  44.121   7.953
 5453POPC   C4B 8926  35.962  44.132   7.653
 5454POPC   NC3 8927  20.640   3.569   9.453
 5454POPC   PO4 8928  20.567   3.502   9.153
 5454POPC   GL1 8929  20.640   3.559   8.853
 5454POPC   GL2 8930  20.544   3.655   8.853
 5454POPC   C1A 8931  20.644   3.492   8.553
 5454POPC   D2A 8932  20.626   3.540   8.253
 5454POPC   C3A 8933  20.650   3.511   7.953
 5454POPC   C4A 8934  20.650   3.545   7.653
 5454POPC   C1B 8935  20.587   3.769   8.553
 5454POPC   C2B 8936  20.557   3.833   8.253
 5454POPC   C3B 8937  20.511   3.738   7.953
 5454POPC   C4B 8938  20.519   3.788   7.653
 5455POPC   NC3 8939  29.099  33.828   9.453
 5455POPC   PO4 8940  29.118  33.765   9.153
 5455POPC   GL1 8941  29.184  33.812   8.853
 5455POPC   GL2 8942  29.308  33.813   8.853
 5455POPC   C1A 8943  29.106  33.807   8.553
 5455POPC   D2A 8944  29.174  33.834   8.253
 5455POPC   C3A 8945  29.180  33.757   7.953
 5455POPC   C4A 8946  29.162  33.794   7.653
 5455POPC   C1B 8947  29.404  33.868   8.553
 5455POPC   C2B 8948  29.427  33.880   8.253
 5455POPC   C3B 8949  29.345  33.850   7.953
 5455POPC   C4B 8950  29.368  33.849   7.653
 5456POPC   NC3 8951   5.829  31.476   9.453
 5456POPC   PO4 8952   5.858  31.487   9.153
 5456POPC   GL1 8953   5.856  31.503   8.853
 5456POPC   GL2 8954   5.958  31.357   8.853
 5456POPC   C1A 8955   5.901  31.446   8.553
 5456POPC   D2A 8956   5.834  31.521   8.253
 5456POPC   C3A 8957   5.916  31.426   7.953
 5456POPC   C4A 8958   5.852  31.521   7.653
 5456POPC   C1B 8959   5.998  31.288   8.553
 5456POPC   C2B 8960   6.023  31.278   8.253
 5456POPC   C3B 8961   6.092  31.326   7.953
 5456POPC   C4B 8962   6.074  31.324   7.653
 5457POPC   NC3 8963  43.069  30.672   9.453
 5457POPC   PO4 8964  43.155  30.723   9.153
 5457POPC   GL1 8965  43.144  30.701   8.853
 5457POPC   GL2 8966  43.192  30.539   8.853
 5457POPC   C1A 8967  43.101  30.701   8.553
 5457POPC   D2A 8968  43.088  30.673   8.253
 5457POPC   C3A 8969  43.075  30.661   7.953
 5457POPC   C4A 8970  43.084  30.666   7.653
 5457POPC   C1B 8971  43.202  30.441   8.553
 5457POPC   C2B 8972  43.217  30.502   8.253
 5457POPC   C3B 8973  43.165  30.448   7.953
 5457POPC   C4B 8974  43.155  30.443   7.653
 5458POPC   NC3 8975  15.132  34.600   9.453
 5458POPC   PO4 8976  15.209  34.574   9.153
 5458POPC   GL1 8977  15.170  34.563   8.853
 5458POPC   GL2 8978  15.060  34.583   8.853
 5458POPC   C1A 8979  15.144  34.544   8.553
 5458POPC   D2A 8980  15.204  34.529   8.253
 5458POPC   C3A 8981  15.154  34.545   7.953
 5458POPC   C4A 8982  15.187  34.620   7.653
 5458POPC   C1B 8983  14.884  34.547   8.553
 5458POPC   C2B 8984  14.940  34.541   8.253
 5458POPC   C3B 8985  14.922  34.543   7.953
 5458POPC   C4B 8986  14.907  34.557   7.653
 5459POPC   NC3 8987   3.498   8.996   9.453
 5459POPC   PO4 8988   3.539   8.960   9.153
 5459POPC   GL1 8989   3.575   8.956   8.853
 5459POPC   GL2 8990   3.555   8.874   8.853
 5459POPC   C1A 8991   3.539   9.011   8.553
 5459POPC   D2A 8992   3.525   8.989   8.253
 5459POPC   C3A 8993   3.553   8.932   7.953
 5459POPC   C4A 8994   3.540   8.946   7.653
 5459POPC   C1B 8995   3.536   8.761   8.553
 5459POPC   C2B 8996   3.519   8.682   8.253
 5459POPC   C3B 8997   3.489   8.677   7.953
 5459POPC   C4B 8998   3.475   8.688   7.653
 5460POPC   NC3 8999  14.383  12.089   9.453
 5460POPC   PO4 9000  14.357  12.034   9.153
 5460POPC   GL1 9001  14.445  12.040   8.853
 5460POPC   GL2 9002  14.548  12.096   8.853
 5460POPC   C1A 9003  14.374  12.065   8.553
 5460POPC   D2A 9004  14.396  12.082   8.253
 5460POPC   C3A 9005  14.374  12.121   7.953
 5460POPC   C4A 9006  14.388  12.112   7.653
 5460POPC   C1B 9007  14.608  12.063   8.553
 5460POPC   C2B 9008  14.653  12.082   8.253
 5460POPC   C3B 9009  14.673  12.068   7.953
 5460POPC   C4B 9010  14.664  12.127   7.653
 5461POPC   NC3 9011  13.590  22.960   9.453
 5461POPC   PO4 9012  13.623  22.976   9.153
 5461POPC   GL1 9013  13.634  22.904   8.853
 5461POPC   GL2 9014  13.506  22.855   8.853
 5461POPC   C1A 9015  13.676  22.907   8.553
 5461POPC   D2A 9016  13.630  22.987   8.253
 5461POPC   C3A 9017  13.663  22.913   7.953
 5461POPC   C4A 9018  13.668  22.982   7.653
 5461POPC   C1B 9019  13.354  22.893   8.553
 5461POPC   C2B 9020  13.356  22.857   8.253
 5461POPC   C3B 9021  13.354  22.870   7.953
 5461POPC   C4B 9022  13.412  22.874   7.653
 5462POPC   NC3 9023   8.227  27.617   9.453
 5462POPC   PO4 9024   8.179  27.550   9.153
 5462POPC   GL1 9025   8.222  27.629   8.853
 5462POPC   GL2 9026   8.293  27.635   8.853
 5462POPC   C1A 9027   8.188  27.586   8.553
 5462POPC   D2A 9028   8.242  27.590   8.253
 5462POPC   C3A 9029   8.161  27.602   7.953
 5462POPC   C4A 9030   8.150  27.547   7.653
 5462POPC   C1B 9031   8.463  27.608   8.553
 5462POPC   C2B 9032   8.432  27.653   8.253
 5462POPC   C3B 9033   8.429  27.638   7.953
 5462POPC   C4B 9034   8.440  27.573   7.653
 5463POPC   NC3 9035  15.943  29.190   9.453
 5463POPC   PO4 9036  15.999  29.174   9.153
 5463POPC   GL1 9037  15.955  29.170   8.853
 5463POPC   GL2 9038  15.852  29.050   8.853
 5463POPC   C1A 9039  16.003  29.167   8.553
 5463POPC   D2A 9040  15.944  29.194   8.253
 5463POPC   C3A 9041  15.989  29.195   7.953
 5463POPC   C4A 9042  15.959  29.153   7.653
 5463POPC   C1B 9043  15.819  28.982   8.553
 5463POPC   C2B 9044  15.784  28.980   8.253
 5463POPC   C3B 9045  15.861  28.901   7.953
 5463POPC   C4B 9046  15.847  28.889   7.653
 5464POPC   NC3 9047   6.678  33.785   9.453
 5464POPC   PO4 9048   6.655  33.794   9.153
 5464POPC   GL1 9049   6.677  33.835   8.853
 5464POPC   GL2 9050   6.633  33.721   8.853
 5464POPC   C1A 9051   6.680  33.770   8.553
 5464POPC   D2A 9052   6.667  33.848   8.253
 5464POPC   C3A 9053   6.688  33.750   7.953
 5464POPC   C4A 9054   6.621  33.801   7.653
 5464POPC   C1B 9055   6.591  33.539   8.553
 5464POPC   C2B 9056   6.522  33.563   8.253
 5464POPC   C3B 9057   6.527  33.548   7.953
 5464POPC   C4B 9058   6.564  33.550   7.653
 5465POPC   NC3 9059   9.004   4.323   9.453
 5465POPC   PO4 9060   8.963   4.278   9.153
 5465POPC   GL1 9061   8.925   4.279   8.853
 5465POPC   GL2 9062   9.036   4.413   8.853
 5465POPC   C1A 9063   9.016   4.276   8.553
 5465POPC   D2A 9064   8.999   4.285   8.253
 5465POPC   C3A 9065   8.973   4.345   7.953
 5465POPC   C4A 9066   8.964   4.324   7.653
 5465POPC   C1B 9067   9.140   4.513   8.553
 5465POPC   C2B 9068   9.166   4.473   8.253
 5465POPC   C3B 9069   9.155   4.504   7.953
 5465POPC   C4B 9070   9.180   4.462   7.653
 5466POPC   NC3 9071  43.844  33.829   9.453
 5466POPC   PO4 9072  43.847  33.775   9.153
 5466POPC   GL1 9073  43.925  33.829   8.853
 5466POPC   GL2 9074  43.981  33.926   8.853
 5466POPC   C1A 9075  43.853  33.785   8.553
 5466POPC   D2A 9076  43.884  33.828   8.253
 5466POPC   C3A 9077  43.903  33.776   7.953
 5466POPC   C4A 9078  43.873  33.775   7.653
 5466POPC   C1B 9079  43.963  34.047   8.553
 5466POPC   C2B 9080  44.047  34.024   8.253
 5466POPC   C3B 9081  43.979  33.977   7.953
 5466POPC   C4B 9082  44.029  34.057   7.653
 5467POPC   NC3 9083   8.206  40.761   9.453
 5467POPC   PO4 9084   8.164  40.791   9.153
 5467POPC   GL1 9085   8.199  40.813   8.853
 5467POPC   GL2 9086   8.282  40.783   8.853
 5467POPC   C1A 9087   8.193  40.832   8.553
 5467POPC   D2A 9088   8.180  40.829   8.253
 5467POPC   C3A 9089   8.233  40.802   7.953
 5467POPC   C4A 9090   8.194  40.766   7.653
 5467POPC   C1B 9091   8.409  40.759   8.553
 5467POPC   C2B 9092   8.453  40.819   8.253
 5467POPC   C3B 9093   8.414  40.784   7.953
 5467POPC   C4B 9094   8.401  40.729   7.653
 5468POPC   NC3 9095  33.043  24.488   9.453
 5468POPC   PO4 9096  32.999  24.459   9.153
 5468POPC   GL1 9097  33.061  24.529   8.853
 5468POPC   GL2 9098  33.124  24.458   8.853
 5468POPC   C1A 9099  33.062  24.441   8.553
 5468POPC   D2A 9100  33.056  24.445   8.253
 5468POPC   C3A 9101  33.022  24.473   7.953
 5468POPC   C4A 9102  33.004  24.502   7.653
 5468POPC   C1B 9103  33.253  24.418   8.553
 5468POPC   C2B 9104  33.223  24.401   8.253
 5468POPC   C3B 9105  33.312  24.451   7.953
 5468POPC   C4B 9106  33.266  24.417   7.653
 5469POPC   NC3 9107   1.217  38.460   9.453
 5469POPC   PO4 9108   1.188  38.456   9.153
 5469POPC   GL1 9109   1.238  38.489   8.853
 5469POPC   GL2 9110   1.067  38.551   8.853
 5469POPC   C1A 9111   1.222  38.418   8.553
 5469POPC   D2A 9112   1.172  38.483   8.253
 5469POPC   C3A 9113   1.243  38.485   7.953
 5469POPC   C4A 9114   1.259  38.410   7.653
 5469POPC   C1B 9115   1.060  38.620   8.553
 5469POPC   C2B 9116   1.065  38.648   8.253
 5469POPC   C3B 9117   1.006  38.587   7.953
 5469POPC   C4B 9118   1.034  38.613   7.653
 5470POPC   NC3 9119  40.744  12.853   9.453
 5470POPC   PO4 9120  40.805  12.829   9.153
 5470POPC   GL1 9121  40.796  12.834   8.853
 5470POPC   GL2 9122  40.831  12.801   8.853
 5470POPC   C1A 9123  40.757  12.831   8.553
 5470POPC   D2A 9124  40.792  12.829   8.253
 5470POPC   C3A 9125  40.831  12.874   7.953
 5470POPC   C4A 9126  40.811  12.811   7.653
 5470POPC   C1B 9127  40.915  12.621   8.553
 5470POPC   C2B 9128  40.891  12.701   8.253
 5470POPC   C3B 9129  40.897  12.645   7.953
 5470POPC   C4B 9130  40.941  12.698   7.653
 5471POPC   NC3 9131  28.367  22.174   9.453
 5471POPC   PO4 9132  28.407  22.152   9.153
 5471POPC   GL1 9133  28.344  22.210   8.853
 5471POPC   GL2 9134  28.519  22.201   8.853
 5471POPC   C1A 9135  28.370  22.112   8.553
 5471POPC   D2A 9136  28.377  22.181   8.253
 5471POPC   C3A 9137  28.383  22.151   7.953
 5471POPC   C4A 9138  28.366  22.198   7.653
 5471POPC   C1B 9139  28.635  22.128   8.553
 5471POPC   C2B 9140  28.646  22.135   8.253
 5471POPC   C3B 9141  28.662  22.202   7.953
 5471POPC   C4B 9142  28.620  22.126   7.653
 5472POPC   NC3 9143  17.520  39.210   9.453
 5472POPC   PO4 9144  17.521  39.242   9.153
 5472POPC   GL1 9145  17.487  39.223   8.853
 5472POPC   GL2 9146  17.440  39.316   8.853
 5472POPC   C1A 9147  17.486  39.225   8.553
 5472POPC   D2A 9148  17.512  39.251   8.253
 5472POPC   C3A 9149  17.460  39.249   7.953
 5472POPC   C4A 9150  17.476  39.192   7.653
 5472POPC   C1B 9151  17.388  39.463   8.553
 5472POPC   C2B 9152  17.388  39.468   8.253
 5472POPC   C3B 9153  17.427  39.495   7.953
 5472POPC   C4B 9154  17.399  39.471   7.653
 5473POPC   NC3 9155  28.405  44.706   9.453
 5473POPC   PO4 9156  28.371  44.679   9.153
 5473POPC   GL1 9157  28.365  44.699   8.853
 5473POPC   GL2 9158  28.267  44.675   8.853
 5473POPC   C1A 9159  28.380  44.654   8.553
 5473POPC   D2A 9160  28.326  44.618   8.253
 5473POPC   C3A 9161  28.418  44.644   7.953
 5473POPC   C4A 9162  28.364  44.628   7.653
 5473POPC   C1B 9163  28.106  44.702   8.553
 5473POPC   C2B 9164  28.092  44.660   8.253
 5473POPC   C3B 9165  28.137  44.640   7.953
 5473POPC   C4B 9166  28.074  44.698   7.653
 5474POPC   NC3 9167  19.053  10.528   9.453
 5474POPC   PO4 9168  19.018  10.557   9.153
 5474POPC   GL1 9169  19.049  10.503   8.853
 5474POPC   GL2 9170  18.890  10.571   8.853
 5474POPC   C1A 9171  19.016  10.498   8.553
 5474POPC   D2A 9172  19.030  10.544   8.253
 5474POPC   C3A 9173  19.105  10.488   7.953
 5474POPC   C4A 9174  19.077  10.498   7.653
 5474POPC   C1B 9175  18.814  10.605   8.553
 5474POPC   C2B 9176  18.832  10.575   8.253
 5474POPC   C3B 9177  18.815  10.553   7.953
 5474POPC   C4B 9178  18.857  10.614   7.653
 5475POPC   NC3 9179  19.091  15.911   9.453
 5475POPC   PO4 9180  19.070  15.945   9.153
 5475POPC   GL1 9181  19.088  15.973   8.853
 5475POPC   GL2 9182  19.122  15.827   8.853
 5475POPC   C1A 9183  19.030  15.984   8.553
 5475POPC   D2A 9184  19.051  15.970   8.253
 5475POPC   C3A 9185  19.064  15.942   7.953
 5475POPC   C4A 9186  19.010  15.924   7.653
 5475POPC   C1B 9187  19.170  15.741   8.553
 5475POPC   C2B 9188  19.178  15.777   8.253
 5475POPC   C3B 9189  19.212  15.695   7.953
 5475POPC   C4B 9190  19.178  15.722   7.653
 5476POPC   NC3 9191   9.771  12.070   9.453
 5476POPC   PO4 9192   9.762  12.027   9.153
 5476POPC   GL1 9193   9.711  12.038   8.853
 5476POPC   GL2 9194   9.598  12.012   8.853
 5476POPC   C1A 9195   9.775  12.056   8.553
 5476POPC   D2A 9196   9.735  12.105   8.253
 5476POPC   C3A 9197   9.759  12.110   7.953
 5476POPC   C4A 9198   9.745  12.124   7.653
 5476POPC   C1B 9199   9.514  11.988   8.553
 5476POPC   C2B 9200   9.513  11.982   8.253
 5476POPC   C3B 9201   9.554  11.977   7.953
 5476POPC   C4B 9202   9.471  12.008   7.653
 5477POPC   NC3 9203  19.827  31.515   9.453
 5477POPC   PO4 9204  19.832  31.437   9.153
 5477POPC   GL1 9205  19.819  31.453   8.853
 5477POPC   GL2 9206  19.716  31.472   8.853
 5477POPC   C1A 9207  19.816  31.430   8.553
 5477POPC   D2A 9208  19.808  31.432   8.253
 5477POPC   C3A 9209  19.839  31.445   7.953
 5477POPC   C4A 9210  19.861  31.459   7.653
 5477POPC   C1B 9211  19.580  31.417   8.553
 5477POPC   C2B 9212  19.630  31.411   8.253
 5477POPC   C3B 9213  19.586  31.408   7.953
 5477POPC   C4B 9214  19.550  31.381   7.653
 5478POPC   NC3 9215   2.738  19.092   9.453
 5478POPC   PO4 9216   2.761  19.039   9.153
 5478POPC   GL1 9217   2.760  19.098   8.853
 5478POPC   GL2 9218   2.879  19.043   8.853
 5478POPC   C1A 9219   2.744  19.015   8.553
 5478POPC   D2A 9220   2.794  19.041   8.253
 5478POPC   C3A 9221   2.749  19.074   7.953
 5478POPC   C4A 9222   2.729  19.102   7.653
 5478POPC   C1B 9223   3.025  19.024   8.553
 5478POPC   C2B 9224   3.006  18.974   8.253
 5478POPC   C3B 9225   3.047  19.053   7.953
 5478POPC   C4B 9226   2.992  18.990   7.653
 5479POPC   NC3 9227  43.855  20.592   9.453
 5479POPC   PO4 9228  43.875  20.598   9.153
 5479POPC   GL1 9229  43.918  20.631   8.853
 5479POPC   GL2 9230  43.813  20.508   8.853
 5479POPC   C1A 9231  43.895  20.562   8.553
 5479POPC   D2A 9232  43.841  20.645   8.253
 5479POPC   C3A 9233  43.864  20.587   7.953
 5479POPC   C4A 9234  43.929  20.577   7.653
 5479POPC   C1B 9235  43.753  20.393   8.553
 5479POPC   C2B 9236  43.813  20.381   8.253
 5479POPC   C3B 9237  43.728  20.368   7.953
 5479POPC   C4B 9238  43.748  20.435   7.653
 5480POPC   NC3 9239  42.324  23.725   9.453
 5480POPC   PO4 9240  42.294  23.666   9.153
 5480POPC   GL1 9241  42.369  23.667   8.853
 5480POPC   GL2 9242  42.306  23.558   8.853
 5480POPC   C1A 9243  42.297  23.665   8.553
 5480POPC   D2A 9244  42.318  23.685   8.253
 5480POPC   C3A 9245  42.328  23.672   7.953
 5480POPC   C4A 9246  42.299  23.709   7.653
 5480POPC   C1B 9247  42.259  23.515   8.553
 5480POPC   C2B 9248  42.230  23.517   8.253
 5480POPC   C3B 9249  42.273  23.462   7.953
 5480POPC   C4B 9250  42.274  23.465   7.653
 5481POPC   NC3 9251  26.784  14.401   9.453
 5481POPC   PO4 9252  26.773  14.357   9.153
 5481POPC   GL1 9253  26.830  14.376   8.853
 5481POPC   GL2 9254  26.988  14.369   8.853
 5481POPC   C1A 9255  26.855  14.415   8.553
 5481POPC   D2A 9256  26.825  14.361   8.253
 5481POPC   C3A 9257  26.810  14.369   7.953
 5481POPC   C4A 9258  26.778  14.434   7.653
 5481POPC   C1B 9259  27.019  14.370   8.553
 5481POPC   C2B 9260  27.088  14.416   8.253
 5481POPC   C3B 9261  27.062  14.378   7.953
 5481POPC   C4B 9262  27.083  14.319   7.653
 5482POPC   NC3 9263  26.002   4.278   9.453
 5482POPC   PO4 9264  26.036   4.287   9.153
 5482POPC   GL1 9265  26.026   4.342   8.853
 5482POPC   GL2 9266  26.188   4.254   8.853
 5482POPC   C1A 9267  26.022   4.301   8.553
 5482POPC   D2A 9268  26.014   4.312   8.253
 5482POPC   C3A 9269  26.000   4.340   7.953
 5482POPC   C4A 9270  26.029   4.298   7.653
 5482POPC   C1B 9271  26.242   4.137   8.553
 5482POPC   C2B 9272  26.266   4.124   8.253
 5482POPC   C3B 9273  26.216   4.131   7.953
 5482POPC   C4B 9274  26.284   4.137   7.653
 5483POPC   NC3 9275  17.550   2.753   9.453
 5483POPC   PO4 9276  17.519   2.812   9.153
 5483POPC   GL1 9277  17.515   2.803   8.853
 5483POPC   GL2 9278  17.617   2.759   8.853
 5483POPC   C1A 9279  17.497   2.726   8.553
 5483POPC   D2A 9280  17.475   2.758   8.253
 5483POPC   C3A 9281  17.470   2.721   7.953
 5483POPC   C4A 9282  17.543   2.745   7.653
 5483POPC   C1B 9283  17.775   2.741   8.553
 5483POPC   C2B 9284  17.801   2.790   8.253
 5483POPC   C3B 9285  17.716   2.817   7.953
 5483POPC   C4B 9286  17.763   2.757   7.653
 5484POPC   NC3 9287  16.766  41.566   9.453
 5484POPC   PO4 9288  16.692  41.554   9.153
 5484POPC   GL1 9289  16.701  41.602   8.853
 5484POPC   GL2 9290  16.732  41.667   8.853
 5484POPC   C1A 9291  16.734  41.599   8.553
 5484POPC   D2A 9292  16.720  41.540   8.253
 5484POPC   C3A 9293  16.769  41.557   7.953
 5484POPC   C4A 9294  16.690  41.543   7.653
 5484POPC   C1B 9295  16.614  41.773   8.553
 5484POPC   C2B 9296  16.621  41.812   8.253
 5484POPC   C3B 9297  16.686  41.825   7.953
 5484POPC   C4B 9298  16.658  41.834   7.653
 5485POPC   NC3 9299  18.266  18.310   9.453
 5485POPC   PO4 9300  18.258  18.297   9.153
 5485POPC   GL1 9301  18.273  18.311   8.853
 5485POPC   GL2 9302  18.298  18.199   8.853
 5485POPC   C1A 9303  18.246  18.279   8.553
 5485POPC   D2A 9304  18.261  18.323   8.253
 5485POPC   C3A 9305  18.246  18.280   7.953
 5485POPC   C4A 9306  18.318  18.289   7.653
 5485POPC   C1B 9307  18.441  18.085   8.553
 5485POPC   C2B 9308  18.389  18.009   8.253
 5485POPC   C3B 9309  18.404  18.105   7.953
 5485POPC   C4B 9310  18.403  18.072   7.653
 5486POPC   NC3 9311  16.732  38.498   9.453
 5486POPC   PO4 9312  16.758  38.416   9.153
 5486POPC   GL1 9313  16.746  38.439   8.853
 5486POPC   GL2 9314  16.897  38.524   8.853
 5486POPC   C1A 9315  16.759  38.469   8.553
 5486POPC   D2A 9316  16.778  38.439   8.253
 5486POPC   C3A 9317  16.736  38.406   7.953
 5486POPC   C4A 9318  16.742  38.500   7.653
 5486POPC   C1B 9319  17.020  38.506   8.553
 5486POPC   C2B 9320  16.935  38.554   8.253
 5486POPC   C3B 9321  16.939  38.550   7.953
 5486POPC   C4B 9322  17.007  38.548   7.653
 5487POPC   NC3 9323  43.872  19.792   9.453
 5487POPC   PO4 9324  43.869  19.865   9.153
 5487POPC   GL1 9325  43.921  19.850   8.853
 5487POPC   GL2 9326  43.760  19.852   8.853
 5487POPC   C1A 9327  43.934  19.820   8.553
 5487POPC   D2A 9328  43.892  19.850   8.253
 5487POPC   C3A 9329  43.895  19.866   7.953
 5487POPC   C4A 9330  43.906  19.861   7.653
 5487POPC   C1B 9331  43.628  19.847   8.553
 5487POPC   C2B 9332  43.677  19.828   8.253
 5487POPC   C3B 9333  43.630  19.799   7.953
 5487POPC   C4B 9334  43.667  19.818   7.653
 5488POPC   NC3 9335  37.719   5.834   9.453
 5488POPC   PO4 9336  37.699   5.839   9.153
 5488POPC   GL1 9337  37.693   5.902   8.853
 5488POPC   GL2 9338  37.686   6.011   8.853
 5488POPC   C1A 9339  37.694   5.910   8.553
 5488POPC   D2A 9340  37.712   5.865   8.253
 5488POPC   C3A 9341  37.685   5.875   7.953
 5488POPC   C4A 9342  37.647   5.861   7.653
 5488POPC   C1B 9343  37.590   6.109   8.553
 5488POPC   C2B 9344  37.665   6.074   8.253
 5488POPC   C3B 9345  37.621   6.149   7.953
 5488POPC   C4B 9346  37.644   6.144   7.653
 5489POPC   NC3 9347  15.219  12.119   9.453
 5489POPC   PO4 9348  15.198  12.044   9.153
 5489POPC   GL1 9349  15.210  12.076   8.853
 5489POPC   GL2 9350  15.262  12.105   8.853
 5489POPC   C1A 9351  15.153  12.090   8.553
 5489POPC   D2A 9352  15.207  12.053   8.253
 5489POPC   C3A 9353  15.222  12.088   7.953
 5489POPC   C4A 9354  15.171  12.109   7.653
 5489POPC   C1B 9355  15.441  12.069   8.553
 5489POPC   C2B 9356  15.440  12.076   8.253
 5489POPC   C3B 9357  15.451  12.080   7.953
 5489POPC   C4B 9358  15.473  12.105   7.653
 5490POPC   NC3 9359  44.690  18.267   9.453
 5490POPC   PO4 9360  44.640  18.270   9.153
 5490POPC   GL1 9361  44.667  18.316   8.853
 5490POPC   GL2 9362  44.637  18.118   8.853
 5490POPC   C1A 9363  44.615  18.239   8.553
 5490POPC   D2A 9364  44.709  18.260   8.253
 5490POPC   C3A 9365  44.633  18.273   7.953
 5490POPC   C4A 9366  44.634  18.246   7.653
 5490POPC   C1B 9367  44.680  18.041   8.553
 5490POPC   C2B 9368  44.656  17.991   8.253
 5490POPC   C3B 9369  44.592  18.009   7.953
 5490POPC   C4B 9370  44.656  18.082   7.653
 5491POPC   NC3 9371  44.710   1.201   9.453
 5491POPC   PO4 9372  44.697   1.234   9.153
 5491POPC   GL1 9373  44.656   1.256   8.853
 5491POPC   GL2 9374  44.805   1.181   8.853
 5491POPC   C1A 9375  44.649   1.181   8.553
 5491POPC   D2A 9376  44.640   1.167   8.253
 5491POPC   C3A 9377  44.658   1.183   7.953
 5491POPC   C4A 9378  44.688   1.181   7.653
 5491POPC   C1B 9379  44.840   1.128   8.553
 5491POPC   C2B 9380  44.902   1.138   8.253
 5491POPC   C3B 9381  44.904   1.137   7.953
 5491POPC   C4B 9382  44.910   1.111   7.653
 5492POPC   NC3 9383  11.288  37.697   9.453
 5492POPC   PO4 9384  11.292  37.648   9.153
 5492POPC   GL1 9385  11.285  37.683   8.853
 5492POPC   GL2 9386  11.368  37.819   8.853
 5492POPC   C1A 9387  11.335  37.654   8.553
 5492POPC   D2A 9388  11.328  37.692   8.253
 5492POPC   C3A 9389  11.294  37.659   7.953
 5492POPC   C4A 9390  11.302  37.711   7.653
 5492POPC   C1B 9391  11.440  37.889   8.553
 5492POPC   C2B 9392  11.380  37.948   8.253
 5492POPC   C3B 9393  11.415  37.866   7.953
 5492POPC   C4B 9394  11.430  37.863   7.653
 5493POPC   NC3 9395   5.838  40.825   9.453
 5493POPC   PO4 9396   5.841  40.745   9.153
 5493POPC   GL1 9397   5.915  40.770   8.853
 5493POPC   GL2 9398   5.792  40.950   8.853
 5493POPC   C1A 9399   5.836  40.745   8.553
 5493POPC   D2A 9400   5.894  40.778   8.253
 5493POPC   C3A 9401   5.913  40.816   7.953
 5493POPC   C4A 9402   5.860  40.734   7.653
 5493POPC   C1B 9403   5.840  41.016   8.553
 5493POPC   C2B 9404   5.832  41.051   8.253
 5493POPC   C3B 9405   5.835  41.073   7.953
 5493POPC   C4B 9406   5.851  40.980   7.653
 5494POPC   NC3 9407  23.699  13.592   9.453
 5494POPC   PO4 9408  23.744  13.647   9.153
 5494POPC   GL1 9409  23.732  13.665   8.853
 5494POPC   GL2 9410  23.704  13.751   8.853
 5494POPC   C1A 9411  23.746  13.615   8.553
 5494POPC   D2A 9412  23.689  13.629   8.253
 5494POPC   C3A 9413  23.697  13.673   7.953
 5494POPC   C4A 9414  23.712  13.587   7.653
 5494POPC   C1B 9415  23.736  13.879   8.553
 5494POPC   C2B 9416  23.731  13.861   8.253
 5494POPC   C3B 9417  23.663  13.837   7.953
 5494POPC   C4B 9418  23.688  13.905   7.653
 5495POPC   NC3 9419  28.383  36.928   9.453
 5495POPC   PO4 9420  28.419  36.933   9.153
 5495POPC   GL1 9421  28.326  36.896   8.853
 5495POPC   GL2 9422  28.459  36.958   8.853
 5495POPC   C1A 9423  28.413  36.901   8.553
 5495POPC   D2A 9424  28.417  36.884   8.253
 5495POPC   C3A 9425  28.322  36.916   7.953
 5495POPC   C4A 9426  28.329  36.862   7.653
 5495POPC   C1B 9427  28.615  36.997   8.553
 5495POPC   C2B 9428  28.599  36.996   8.253
 5495POPC   C3B 9429  28.637  37.005   7.953
 5495POPC   C4B 9430  28.616  36.970   7.653
 5496POPC   NC3 9431  26.779  26.033   9.453
 5496POPC   PO4 9432  26.809  26.003   9.153
 5496POPC   GL1 9433  26.861  26.084   8.853
 5496POPC   GL2 9434  26.781  26.154   8.853
 5496POPC   C1A 9435  26.795  26.039   8.553
 5496POPC   D2A 9436  26.779  26.055   8.253
 5496POPC   C3A 9437  26.859  26.001   7.953
 5496POPC   C4A 9438  26.822  26.014   7.653
 5496POPC   C1B 9439  26.780  26.265   8.553
 5496POPC   C2B 9440  26.871  26.266   8.253
 5496POPC   C3B 9441  26.863  26.299   7.953
 5496POPC   C4B 9442  26.786  26.274   7.653
 5497POPC   NC3 9443  43.070  37.657   9.453
 5497POPC   PO4 9444  43.131  37.714   9.153
 5497POPC   GL1 9445  43.111  37.662   8.853
 5497POPC   GL2 9446  43.198  37.674   8.853
 5497POPC   C1A 9447  43.154  37.644   8.553
 5497POPC   D2A 9448  43.066  37.693   8.253
 5497POPC   C3A 9449  43.095  37.650   7.953
 5497POPC   C4A 9450  43.112  37.662   7.653
 5497POPC   C1B 9451  43.375  37.632   8.553
 5497POPC   C2B 9452  43.398  37.635   8.253
 5497POPC   C3B 9453  43.382  37.667   7.953
 5497POPC   C4B 9454  43.397  37.651   7.653
 5498POPC   NC3 9455  43.875  34.618   9.453
 5498POPC   PO4 9456  43.884  34.550   9.153
 5498POPC   GL1 9457  43.883  34.584   8.853
 5498POPC   GL2 9458  43.855  34.455   8.853
 5498POPC   C1A 9459  43.920  34.546   8.553
 5498POPC   D2A 9460  43.883  34.613   8.253
 5498POPC   C3A 9461  43.858  34.536   7.953
 5498POPC   C4A 9462  43.852  34.599   7.653
 5498POPC   C1B 9463  43.802  34.343   8.553
 5498POPC   C2B 9464  43.805  34.336   8.253
 5498POPC   C3B 9465  43.812  34.317   7.953
 5498POPC   C4B 9466  43.832  34.321   7.653
 5499POPC   NC3 9467   5.069  18.236   9.453
 5499POPC   PO4 9468   5.051  18.290   9.153
 5499POPC   GL1 9469   5.122  18.307   8.853
 5499POPC   GL2 9470   5.166  18.152   8.853
 5499POPC   C1A 9471   5.101  18.291   8.553
 5499POPC   D2A 9472   5.049  18.318   8.253
 5499POPC   C3A 9473   5.052  18.255   7.953
 5499POPC   C4A 9474   5.070  18.281   7.653
 5499POPC   C1B 9475   5.223  18.064   8.553
 5499POPC   C2B 9476   5.144  18.093   8.253
 5499POPC   C3B 9477   5.143  18.024   7.953
 5499POPC   C4B 9478   5.161  18.061   7.653
 5500POPC   NC3 9479   7.437  10.507   9.453
 5500POPC   PO4 9480   7.422  10.517   9.153
 5500POPC   GL1 9481   7.455  10.543   8.853
 5500POPC   GL2 9482   7.522  10.594   8.853
 5500POPC   C1A 9483   7.467  10.512   8.553
 5500POPC   D2A 9484   7.375  10.497   8.253
 5500POPC   C3A 9485   7.445  10.501   7.953
 5500POPC   C4A 9486   7.404  10.533   7.653
 5500POPC   C1B 9487   7.582  10.687   8.553
 5500POPC   C2B 9488   7.672  10.621   8.253
 5500POPC   C3B 9489   7.641  10.704   7.953
 5500POPC   C4B 9490   7.638  10.681   7.653
 5501POPC   NC3 9491  16.710  26.814   9.453
 5501POPC   PO4 9492  16.727  26.863   9.153
 5501POPC   GL1 9493  16.719  26.819   8.853
 5501POPC   GL2 9494  16.748  26.663   8.853
 5501POPC   C1A 9495  16.691  26.805   8.553
 5501POPC   D2A 9496  16.711  26.811   8.253
 5501POPC   C3A 9497  16.714  26.827   7.953
 5501POPC   C4A 9498  16.759  26.844   7.653
 5501POPC   C1B 9499  16.854  26.645   8.553
 5501POPC   C2B 9500  16.873  26.615   8.253
 5501POPC   C3B 9501  16.840  26.611   7.953
 5501POPC   C4B 9502  16.808  26.594   7.653
 5502POPC   NC3 9503  24.525   1.980   9.453
 5502POPC   PO4 9504  24.531   2.012   9.153
 5502POPC   GL1 9505  24.504   1.960   8.853
 5502POPC   GL2 9506  24.541   2.152   8.853
 5502POPC   C1A 9507  24.476   2.033   8.553
 5502POPC   D2A 9508  24.507   1.944   8.253
 5502POPC   C3A 9509  24.508   1.946   7.953
 5502POPC   C4A 9510  24.450   2.007   7.653
 5502POPC   C1B 9511  24.463   2.219   8.553
 5502POPC   C2B 9512  24.546   2.255   8.253
 5502POPC   C3B 9513  24.478   2.238   7.953
 5502POPC   C4B 9514  24.507   2.236   7.653
 5503POPC   NC3 9515  28.390  24.499   9.453
 5503POPC   PO4 9516  28.415  24.516   9.153
 5503POPC   GL1 9517  28.402  24.527   8.853
 5503POPC   GL2 9518  28.438  24.574   8.853
 5503POPC   C1A 9519  28.373  24.530   8.553
 5503POPC   D2A 9520  28.334  24.505   8.253
 5503POPC   C3A 9521  28.386  24.505   7.953
 5503POPC   C4A 9522  28.360  24.451   7.653
 5503POPC   C1B 9523  28.578  24.633   8.553
 5503POPC   C2B 9524  28.534  24.651   8.253
 5503POPC   C3B 9525  28.588  24.613   7.953
 5503POPC   C4B 9526  28.587  24.611   7.653
 5504POPC   NC3 9527   9.015  15.166   9.453
 5504POPC   PO4 9528   8.972  15.213   9.153
 5504POPC   GL1 9529   8.956  15.172   8.853
 5504POPC   GL2 9530   8.835  15.167   8.853
 5504POPC   C1A 9531   8.974  15.145   8.553
 5504POPC   D2A 9532   8.936  15.174   8.253
 5504POPC   C3A 9533   8.944  15.176   7.953
 5504POPC   C4A 9534   8.956  15.173   7.653
 5504POPC   C1B 9535   8.687  15.124   8.553
 5504POPC   C2B 9536   8.705  15.163   8.253
 5504POPC   C3B 9537   8.739  15.109   7.953
 5504POPC   C4B 9538   8.738  15.184   7.653
 5505POPC   NC3 9539  26.825  36.859   9.453
 5505POPC   PO4 9540  26.822  36.891   9.153
 5505POPC   GL1 9541  26.782  36.894   8.853
 5505POPC   GL2 9542  26.685  36.798   8.853
 5505POPC   C1A 9543  26.839  36.898   8.553
 5505POPC   D2A 9544  26.841  36.949   8.253
 5505POPC   C3A 9545  26.851  36.941   7.953
 5505POPC   C4A 9546  26.770  36.915   7.653
 5505POPC   C1B 9547  26.624  36.715   8.553
 5505POPC   C2B 9548  26.610  36.784   8.253
 5505POPC   C3B 9549  26.618  36.734   7.953
 5505POPC   C4B 9550  26.617  36.747   7.653
 5506POPC   NC3 9551  19.864  19.019   9.453
 5506POPC   PO4 9552  19.823  19.077   9.153
 5506POPC   GL1 9553  19.877  19.054   8.853
 5506POPC   GL2 9554  19.695  19.049   8.853
 5506POPC   C1A 9555  19.862  19.100   8.553
 5506POPC   D2A 9556  19.825  19.053   8.253
 5506POPC   C3A 9557  19.877  19.031   7.953
 5506POPC   C4A 9558  19.807  19.031   7.653
 5506POPC   C1B 9559  19.555  19.011   8.553
 5506POPC   C2B 9560  19.588  19.051   8.253
 5506POPC   C3B 9561  19.564  18.982   7.953
 5506POPC   C4B 9562  19.610  18.987   7.653
 5507POPC   NC3 9563   1.958   7.397   9.453
 5507POPC   PO4 9564   1.971   7.401   9.153
 5507POPC   GL1 9565   1.956   7.379   8.853
 5507POPC   GL2 9566   2.074   7.340   8.853
 5507POPC   C1A 9567   1.971   7.417   8.553
 5507POPC   D2A 9568   1.975   7.444   8.253
 5507POPC   C3A 9569   1.960   7.392   7.953
 5507POPC   C4A 9570   1.947   7.420   7.653
 5507POPC   C1B 9571   2.064   7.232   8.553
 5507POPC   C2B 9572   2.076   7.181   8.253
 5507POPC   C3B 9573   2.131   7.231   7.953
 5507POPC   C4B 9574   2.060   7.178   7.653
 5508POPC   NC3 9575  18.329  33.808   9.453
 5508POPC   PO4 9576  18.300  33.799   9.153
 5508POPC   GL1 9577  18.253  33.781   8.853
 5508POPC   GL2 9578  18.121  33.772   8.853
 5508POPC   C1A 9579  18.277  33.814   8.553
 5508POPC   D2A 9580  18.258  33.846   8.253
 5508POPC   C3A 9581  18.302  33.794   7.953
 5508POPC   C4A 9582  18.309  33.768   7.653
 5508POPC   C1B 9583  18.013  33.825   8.553
 5508POPC   C2B 9584  18.055  33.747   8.253
 5508POPC   C3B 9585  18.061  33.745   7.953
 5508POPC   C4B 9586  18.003  33.793   7.653
 5509POPC   NC3 9587   8.244  13.626   9.453
 5509POPC   PO4 9588   8.167  13.636   9.153
 5509POPC   GL1 9589   8.172  13.612   8.853
 5509POPC   GL2 9590   8.149  13.736   8.853
 5509POPC   C1A 9591   8.151  13.635   8.553
 5509POPC   D2A 9592   8.238  13.633   8.253
 5509POPC   C3A 9593   8.165  13.650   7.953
 5509POPC   C4A 9594   8.153  13.663   7.653
 5509POPC   C1B 9595   8.033  13.769   8.553
 5509POPC   C2B 9596   8.024  13.793   8.253
 5509POPC   C3B 9597   8.009  13.797   7.953
 5509POPC   C4B 9598   8.007  13.769   7.653
 5510POPC   NC3 9599   8.189  41.540   9.453
 5510POPC   PO4 9600   8.152  41.601   9.153
 5510POPC   GL1 9601   8.161  41.588   8.853
 5510POPC   GL2 9602   8.244  41.461   8.853
 5510POPC   C1A 9603   8.179  41.561   8.553
 5510POPC   D2A 9604   8.176  41.547   8.253
 5510POPC   C3A 9605   8.178  41.525   7.953
 5510POPC   C4A 9606   8.227  41.558   7.653
 5510POPC   C1B 9607   8.401  41.427   8.553
 5510POPC   C2B 9608   8.374  41.341   8.253
 5510POPC   C3B 9609   8.414  41.346   7.953
 5510POPC   C4B 9610   8.340  41.366   7.653
 5511POPC   NC3 9611  29.931  22.162   9.453
 5511POPC   PO4 9612  29.932  22.189   9.153
 5511POPC   GL1 9613  29.897  22.179   8.853
 5511POPC   GL2 9614  29.984  22.082   8.853
 5511POPC   C1A 9615  29.877  22.127   8.553
 5511POPC   D2A 9616  29.928  22.170   8.253
 5511POPC   C3A 9617  29.893  22.159   7.953
 5511POPC   C4A 9618  29.916  22.152   7.653
 5511POPC   C1B 9619  30.101  21.986   8.553
 5511POPC   C2B 9620  30.150  22.042   8.253
 5511POPC   C3B 9621  30.086  22.008   7.953
 5511POPC   C4B 9622  30.092  21.977   7.653
 5512POPC   NC3 9623  33.763   5.842   9.453
 5512POPC   PO4 9624  33.784   5.894   9.153
 5512POPC   GL1 9625  33.773   5.853   8.853
 5512POPC   GL2 9626  33.878   5.720   8.853
 5512POPC   C1A 9627  33.830   5.845   8.553
 5512POPC   D2A 9628  33.818   5.860   8.253
 5512POPC   C3A 9629  33.817   5.857   7.953
 5512POPC   C4A 9630  33.806   5.898   7.653
 5512POPC   C1B 9631  33.866   5.640   8.553
 5512POPC   C2B 9632  33.889   5.635   8.253
 5512POPC   C3B 9633  33.919   5.634   7.953
 5512POPC   C4B 9634  33.889   5.679   7.653
 5513POPC   NC3 9635  25.307  13.658   9.453
 5513POPC   PO4 9636  25.244  13.634   9.153
 5513POPC   GL1 9637  25.245  13.591   8.853
 5513POPC   GL2 9638  25.196  13.709   8.853
 5513POPC   C1A 9639  25.286  13.596   8.553
 5513POPC   D2A 9640  25.255  13.581   8.253
 5513POPC   C3A 9641  25.216  13.674   7.953
 5513POPC   C4A 9642  25.298  13.580   7.653
 5513POPC   C1B 9643  24.999  13.765   8.553
 5513POPC   C2B 9644  25.022  13.739   8.253
 5513POPC   C3B 9645  25.009  13.773   7.953
 5513POPC   C4B 9646  25.005  13.767   7.653
 5514POPC   NC3 9647  18.300  43.853   9.453
 5514POPC   PO4 9648  18.312  43.876   9.153
 5514POPC   GL1 9649  18.245  43.889   8.853
 5514POPC   GL2 9650  18.337  43.760   8.853
 5514POPC   C1A 9651  18.254  43.854   8.553
 5514POPC   D2A 9652  18.275  43.914   8.253
 5514POPC   C3A 9653  18.317  43.881   7.953
 5514POPC   C4A 9654  18.240  43.936   7.653
 5514POPC   C1B 9655  18.265  43.671   8.553
 5514POPC   C2B 9656  18.263  43.657   8.253
 5514POPC   C3B 9657  18.302  43.616   7.953
 5514POPC   C4B 9658  18.321  43.589   7.653
 5515POPC   NC3 9659  34.561  22.949   9.453
 5515POPC   PO4 9660  34.606  22.946   9.153
 5515POPC   GL1 9661  34.551  22.964   8.853
 5515POPC   GL2 9662  34.564  23.013   8.853
 5515POPC   C1A 9663  34.593  22.897   8.553
 5515POPC   D2A 9664  34.622  22.895   8.253
 5515POPC   C3A 9665  34.554  22.920   7.953
 5515POPC   C4A 9666  34.593  22.916   7.653
 5515POPC   C1B 9667  34.588  23.219   8.553
 5515POPC   C2B 9668  34.592  23.193   8.253
 5515POPC   C3B 9669  34.619  23.215   7.953
 5515POPC   C4B 9670  34.645  23.193   7.653
 5516POPC   NC3 9671   2.781   4.366   9.453
 5516POPC   PO4 9672   2.814   4.279   9.153
 5516POPC   GL1 9673   2.727   4.334   8.853
 5516POPC   GL2 9674   2.676   4.351   8.853
 5516POPC   C1A 9675   2.738   4.333   8.553
 5516POPC   D2A 9676   2.771   4.271   8.253
 5516POPC   C3A 9677   2.728   4.360   7.953
 5516POPC   C4A 9678   2.717   4.366   7.653
 5516POPC   C1B 9679   2.499   4.436   8.553
 5516POPC   C2B 9680   2.554   4.449   8.253
 5516POPC   C3B 9681   2.530   4.439   7.953
 5516POPC   C4B 9682   2.527   4.437   7.653
 5517POPC   NC3 9683  22.149  18.282   9.453
 5517POPC   PO4 9684  22.208  18.332   9.153
 5517POPC   GL1 9685  22.198  18.312   8.853
 5517POPC   GL2 9686  22.124  18.389   8.853
 5517POPC   C1A 9687  22.113  18.280   8.553
 5517POPC   D2A 9688  22.201  18.314   8.253
 5517POPC   C3A 9689  22.137  18.294   7.953
 5517POPC   C4A 9690  22.199  18.248   7.653
 5517POPC   C1B 9691  22.064  18.547   8.553
 5517POPC   C2B 9692  22.056  18.505   8.253
 5517POPC   C3B 9693  22.127  18.477   7.953
 5517POPC   C4B 9694  22.122  18.502   7.653
 5518POPC   NC3 9695  15.984   1.240   9.453
 5518POPC   PO4 9696  15.968   1.219   9.153
 5518POPC   GL1 9697  15.943   1.191   8.853
 5518POPC   GL2 9698  16.013   1.152   8.853
 5518POPC   C1A 9699  15.968   1.167   8.553
 5518POPC   D2A 9700  15.908   1.217   8.253
 5518POPC   C3A 9701  15.937   1.181   7.953
 5518POPC   C4A 9702  15.909   1.175   7.653
 5518POPC   C1B 9703  16.166   1.068   8.553
 5518POPC   C2B 9704  16.160   1.061   8.253
 5518POPC   C3B 9705  16.140   1.080   7.953
 5518POPC   C4B 9706  16.174   1.057   7.653
 5519POPC   NC3 9707  24.457  15.223   9.453
 5519POPC   PO4 9708  24.507  15.157   9.153
 5519POPC   GL1 9709  24.512  15.227   8.853
 5519POPC   GL2 9710  24.413  15.272   8.853
 5519POPC   C1A 9711  24.494  15.223   8.553
 5519POPC   D2A 9712  24.509  15.149   8.253
 5519POPC   C3A 9713  24.451  15.160   7.953
 5519POPC   C4A 9714  24.440  15.206   7.653
 5519POPC   C1B 9715  24.338  15.410   8.553
 5519POPC   C2B 9716  24.321  15.439   8.253
 5519POPC   C3B 9717  24.342  15.433   7.953
 5519POPC   C4B 9718  24.330  15.404   7.653
 5520POPC   NC3 9719  11.322  16.709   9.453
 5520POPC   PO4 9720  11.334  16.780   9.153
 5520POPC   GL1 9721  11.294  16.759   8.853
 5520POPC   GL2 9722  11.305  16.829   8.853
 5520POPC   C1A 9723  11.331  16.716   8.553
 5520POPC   D2A 9724  11.309  16.736   8.253
 5520POPC   C3A 9725  11.277  16.716   7.953
 5520POPC   C4A 9726  11.255  16.689   7.653
 5520POPC   C1B 9727  11.226  16.974   8.553
 5520POPC   C2B 9728  11.298  16.987   8.253
 5520POPC   C3B 9729  11.268  16.971   7.953
 5520POPC   C4B 9730  11.228  16.964   7.653
 5521POPC   NC3 9731  44.651   7.415   9.453
 5521POPC   PO4 9732  44.615   7.453   9.153
 5521POPC   GL1 9733  44.671   7.385   8.853
 5521POPC   GL2 9734  44.705   7.299   8.853
 5521POPC   C1A 9735  44.632   7.441   8.553
 5521POPC   D2A 9736  44.671   7.425   8.253
 5521POPC   C3A 9737  44.664   7.375   7.953
 5521POPC   C4A 9738  44.666   7.374   7.653
 5521POPC   C1B 9739  44.767   7.173   8.553
 5521POPC   C2B 9740  44.772   7.244   8.253
 5521POPC   C3B 9741  44.837   7.213   7.953
 5521POPC   C4B 9742  44.800   7.210   7.653
 5522POPC   NC3 9743   5.870  36.147   9.453
 5522POPC   PO4 9744   5.867  36.165   9.153
 5522POPC   GL1 9745   5.899  36.140   8.853
 5522POPC   GL2 9746   6.018  36.116   8.853
 5522POPC   C1A 9747   5.856  36.118   8.553
 5522POPC   D2A 9748   5.898  36.108   8.253
 5522POPC   C3A 9749   5.870  36.141   7.953
 5522POPC   C4A 9750   5.827  36.158   7.653
 5522POPC   C1B 9751   6.112  36.144   8.553
 5522POPC   C2B 9752   6.129  36.129   8.253
 5522POPC   C3B 9753   6.128  36.113   7.953
 5522POPC   C4B 9754   6.129  36.129   7.653
 5523POPC   NC3 9755  29.969  32.225   9.453
 5523POPC   PO4 9756  29.913  32.279   9.153
 5523POPC   GL1 9757  29.904  32.263   8.853
 5523POPC   GL2 9758  29.954  32.103   8.853
 5523POPC   C1A 9759  29.905  32.238   8.553
 5523POPC   D2A 9760  29.913  32.282   8.253
 5523POPC   C3A 9761  29.911  32.252   7.953
 5523POPC   C4A 9762  29.917  32.215   7.653
 5523POPC   C1B 9763  29.976  32.028   8.553
 5523POPC   C2B 9764  29.996  32.046   8.253
 5523POPC   C3B 9765  29.985  32.008   7.953
 5523POPC   C4B 9766  29.940  32.002   7.653
 5524POPC   NC3 9767  33.755  11.251   9.453
 5524POPC   PO4 9768  33.769  11.286   9.153
 5524POPC   GL1 9769  33.802  11.256   8.853
 5524POPC   GL2 9770  33.712  11.327   8.853
 5524POPC   C1A 9771  33.834  11.317   8.553
 5524POPC   D2A 9772  33.807  11.330   8.253
 5524POPC   C3A 9773  33.759  11.311   7.953
 5524POPC   C4A 9774  33.839  11.301   7.653
 5524POPC   C1B 9775  33.569  11.330   8.553
 5524POPC   C2B 9776  33.577  11.391   8.253
 5524POPC   C3B 9777  33.508  11.346   7.953
 5524POPC   C4B 9778  33.576  11.393   7.653
 5525POPC   NC3 9779  33.757  41.558   9.453
 5525POPC   PO4 9780  33.782  41.548   9.153
 5525POPC   GL1 9781  33.757  41.547   8.853
 5525POPC   GL2 9782  33.680  41.683   8.853
 5525POPC   C1A 9783  33.847  41.550   8.553
 5525POPC   D2A 9784  33.794  41.565   8.253
 5525POPC   C3A 9785  33.845  41.582   7.953
 5525POPC   C4A 9786  33.753  41.534   7.653
 5525POPC   C1B 9787  33.612  41.787   8.553
 5525POPC   C2B 9788  33.647  41.748   8.253
 5525POPC   C3B 9789  33.619  41.704   7.953
 5525POPC   C4B 9790  33.660  41.762   7.653
 5526POPC   NC3 9791  14.395  16.745   9.453
 5526POPC   PO4 9792  14.424  16.749   9.153
 5526POPC   GL1 9793  14.366  16.744   8.853
 5526POPC   GL2 9794  14.493  16.759   8.853
 5526POPC   C1A 9795  14.434  16.705   8.553
 5526POPC   D2A 9796  14.375  16.732   8.253
 5526POPC   C3A 9797  14.375  16.716   7.953
 5526POPC   C4A 9798  14.436  16.731   7.653
 5526POPC   C1B 9799  14.681  16.798   8.553
 5526POPC   C2B 9800  14.696  16.832   8.253
 5526POPC   C3B 9801  14.638  16.786   7.953
 5526POPC   C4B 9802  14.673  16.773   7.653
 5527POPC   NC3 9803   6.669  14.385   9.453
 5527POPC   PO4 9804   6.641  14.415   9.153
 5527POPC   GL1 9805   6.610  14.422   8.853
 5527POPC   GL2 9806   6.608  14.542   8.853
 5527POPC   C1A 9807   6.612  14.442   8.553
 5527POPC   D2A 9808   6.619  14.354   8.253
 5527POPC   C3A 9809   6.619  14.363   7.953
 5527POPC   C4A 9810   6.632  14.442   7.653
 5527POPC   C1B 9811   6.525  14.612   8.553
 5527POPC   C2B 9812   6.576  14.634   8.253
 5527POPC   C3B 9813   6.529  14.633   7.953
 5527POPC   C4B 9814   6.525  14.640   7.653
 5528POPC   NC3 9815  41.527  19.795   9.453
 5528POPC   PO4 9816  41.517  19.865   9.153
 5528POPC   GL1 9817  41.578  19.832   8.853
 5528POPC   GL2 9818  41.582  19.913   8.853
 5528POPC   C1A 9819  41.560  19.833   8.553
 5528POPC   D2A 9820  41.544  19.813   8.253
 5528POPC   C3A 9821  41.547  19.829   7.953
 5528POPC   C4A 9822  41.592  19.862   7.653
 5528POPC   C1B 9823  41.500  20.087   8.553
 5528POPC   C2B 9824  41.564  20.082   8.253
 5528POPC   C3B 9825  41.487  20.092   7.953
 5528POPC   C4B 9826  41.517  20.063   7.653
 5529POPC   NC3 9827  36.090   6.607   9.453
 5529POPC   PO4 9828  36.096   6.633   9.153
 5529POPC   GL1 9829  36.129   6.614   8.853
 5529POPC   GL2 9830  36.174   6.509   8.853
 5529POPC   C1A 9831  36.127   6.665   8.553
 5529POPC   D2A 9832  36.143   6.638   8.253
 5529POPC   C3A 9833  36.170   6.673   7.953
 5529POPC   C4A 9834  36.144   6.649   7.653
 5529POPC   C1B 9835  36.176   6.382   8.553
 5529POPC   C2B 9836  36.206   6.433   8.253
 5529POPC   C3B 9837  36.259   6.419   7.953
 5529POPC   C4B 9838  36.219   6.456   7.653
 5530POPC   NC3 9839  16.714  36.123   9.453
 5530POPC   PO4 9840  16.769  36.151   9.153
 5530POPC   GL1 9841  16.708  36.170   8.853
 5530POPC   GL2 9842  16.761  35.990   8.853
 5530POPC   C1A 9843  16.738  36.154   8.553
 5530POPC   D2A 9844  16.728  36.102   8.253
 5530POPC   C3A 9845  16.685  36.170   7.953
 5530POPC   C4A 9846  16.777  36.089   7.653
 5530POPC   C1B 9847  16.737  35.856   8.553
 5530POPC   C2B 9848  16.809  35.888   8.253
 5530POPC   C3B 9849  16.794  35.867   7.953
 5530POPC   C4B 9850  16.759  35.912   7.653
 5531POPC   NC3 9851   6.676  20.633   9.453
 5531POPC   PO4 9852   6.634  20.572   9.153
 5531POPC   GL1 9853   6.595  20.627   8.853
 5531POPC   GL2 9854   6.566  20.523   8.853
 5531POPC   C1A 9855   6.646  20.603   8.553
 5531POPC   D2A 9856   6.604  20.612   8.253
 5531POPC   C3A 9857   6.658  20.590   7.953
 5531POPC   C4A 9858   6.678  20.630   7.653
 5531POPC   C1B 9859   6.400  20.507   8.553
 5531POPC   C2B 9860   6.462  20.492   8.253
 5531POPC   C3B 9861   6.377  20.474   7.953
 5531POPC   C4B 9862   6.384  20.486   7.653
 5532POPC   NC3 9863  21.352   6.603   9.453
 5532POPC   PO4 9864  21.428   6.694   9.153
 5532POPC   GL1 9865  21.399   6.605   8.853
 5532POPC   GL2 9866  21.392   6.555   8.853
 5532POPC   C1A 9867  21.414   6.681   8.553
 5532POPC   D2A 9868  21.432   6.655   8.253
 5532POPC   C3A 9869  21.387   6.641   7.953
 5532POPC   C4A 9870  21.424   6.685   7.653
 5532POPC   C1B 9871  21.323   6.362   8.553
 5532POPC   C2B 9872  21.371   6.428   8.253
 5532POPC   C3B 9873  21.302   6.371   7.953
 5532POPC   C4B 9874  21.367   6.353   7.653
 5533POPC   NC3 9875  20.617  12.075   9.453
 5533POPC   PO4 9876  20.583  12.059   9.153
 5533POPC   GL1 9877  20.598  12.095   8.853
 5533POPC   GL2 9878  20.724  12.139   8.853
 5533POPC   C1A 9879  20.586  12.075   8.553
 5533POPC   D2A 9880  20.629  12.100   8.253
 5533POPC   C3A 9881  20.570  12.106   7.953
 5533POPC   C4A 9882  20.591  12.051   7.653
 5533POPC   C1B 9883  20.775  12.265   8.553
 5533POPC   C2B 9884  20.785  12.261   8.253
 5533POPC   C3B 9885  20.740  12.263   7.953
 5533POPC   C4B 9886  20.765  12.242   7.653
 5534POPC   NC3 9887  13.654  14.438   9.453
 5534POPC   PO4 9888  13.615  14.437   9.153
 5534POPC   GL1 9889  13.588  14.442   8.853
 5534POPC   GL2 9890  13.685  14.454   8.853
 5534POPC   C1A 9891  13.585  14.373   8.553
 5534POPC   D2A 9892  13.639  14.414   8.253
 5534POPC   C3A 9893  13.663  14.401   7.953
 5534POPC   C4A 9894  13.604  14.389   7.653
 5534POPC   C1B 9895  13.781  14.605   8.553
 5534POPC   C2B 9896  13.814  14.526   8.253
 5534POPC   C3B 9897  13.835  14.563   7.953
 5534POPC   C4B 9898  13.857  14.529   7.653
 5535POPC   NC3 9899  37.682  15.975   9.453
 5535POPC   PO4 9900  37.671  15.929   9.153
 5535POPC   GL1 9901  37.630  15.980   8.853
 5535POPC   GL2 9902  37.552  15.987   8.853
 5535POPC   C1A 9903  37.712  15.953   8.553
 5535POPC   D2A 9904  37.660  15.957   8.253
 5535POPC   C3A 9905  37.704  15.942   7.953
 5535POPC   C4A 9906  37.683  15.954   7.653
 5535POPC   C1B 9907  37.412  16.028   8.553
 5535POPC   C2B 9908  37.432  16.048   8.253
 5535POPC   C3B 9909  37.443  16.042   7.953
 5535POPC   C4B 9910  37.448  16.009   7.653
 5536POPC   NC3 9911  12.823  26.794   9.453
 5536POPC   PO4 9912  12.806  26.820   9.153
 5536POPC   GL1 9913  12.855  26.820   8.853
 5536POPC   GL2 9914  12.826  26.679   8.853
 5536POPC   C1A 9915  12.833  26.770   8.553
 5536POPC   D2A 9916  12.893  26.846   8.253
 5536POPC   C3A 9917  12.857  26.792   7.953
 5536POPC   C4A 9918  12.807  26.843   7.653
 5536POPC   C1B 9919  12.815  26.565   8.553
 5536POPC   C2B 9920  12.754  26.623   8.253
 5536POPC   C3B 9921  12.770  26.562   7.953
 5536POPC   C4B 9922  12.791  26.593   7.653
 5537POPC   NC3 9923  25.267   0.446   9.453
 5537POPC   PO4 9924  25.236   0.389   9.153
 5537POPC   GL1 9925  25.286   0.484   8.853
 5537POPC   GL2 9926  25.274   0.532   8.853
 5537POPC   C1A 9927  25.228   0.408   8.553
 5537POPC   D2A 9928  25.310   0.449   8.253
 5537POPC   C3A 9929  25.293   0.390   7.953
 5537POPC   C4A 9930  25.263   0.479   7.653
 5537POPC   C1B 9931  25.372   0.660   8.553
 5537POPC   C2B 9932  25.386   0.665   8.253
 5537POPC   C3B 9933  25.348   0.679   7.953
 5537POPC   C4B 9934  25.319   0.662   7.653
 5538POPC   NC3 9935  14.442  33.785   9.453
 5538POPC   PO4 9936  14.360  33.824   9.153
 5538POPC   GL1 9937  14.426  33.783   8.853
 5538POPC   GL2 9938  14.491  33.843   8.853
 5538POPC   C1A 9939  14.387  33.784   8.553
 5538POPC   D2A 9940  14.361  33.797   8.253
 5538POPC   C3A 9941  14.444  33.801   7.953
 5538POPC   C4A 9942  14.437  33.770   7.653
 5538POPC   C1B 9943  14.604  33.773   8.553
 5538POPC   C2B 9944  14.696  33.767   8.253
 5538POPC   C3B 9945  14.680  33.804   7.953
 5538POPC   C4B 9946  14.667  33.838   7.653
 5539POPC   NC3 9947   6.674  37.679   9.453
 5539POPC   PO4 9948   6.692  37.703   9.153
 5539POPC   GL1 9949   6.680  37.698   8.853
 5539POPC   GL2 9950   6.734  37.764   8.853
 5539POPC   C1A 9951   6.682  37.651   8.553
 5539POPC   D2A 9952   6.650  37.724   8.253
 5539POPC   C3A 9953   6.612  37.716   7.953
 5539POPC   C4A 9954   6.664  37.697   7.653
 5539POPC   C1B 9955   6.846  37.814   8.553
 5539POPC   C2B 9956   6.886  37.744   8.253
 5539POPC   C3B 9957   6.854  37.773   7.953
 5539POPC   C4B 9958   6.880  37.756   7.653
 5540POPC   NC3 9959  16.752  39.967   9.453
 5540POPC   PO4 9960  16.719  39.970   9.153
 5540POPC   GL1 9961  16.769  39.998   8.853
 5540POPC   GL2 9962  16.697  39.905   8.853
 5540POPC   C1A 9963  16.757  39.993   8.553
 5540POPC   D2A 9964  16.736  40.036   8.253
 5540POPC   C3A 9965  16.781  39.992   7.953
 5540POPC   C4A 9966  16.757  39.986   7.653
 5540POPC   C1B 9967  16.605  39.829   8.553
 5540POPC   C2B 9968  16.629  39.805   8.253
 5540POPC   C3B 9969  16.627  39.781   7.953
 5540POPC   C4B 9970  16.585  39.827   7.653
 5541POPC   NC3 9971  11.324  26.852   9.453
 5541POPC   PO4 9972  11.344  26.842   9.153
 5541POPC   GL1 9973  11.325  26.829   8.853
 5541POPC   GL2 9974  11.167  26.756   8.853
 5541POPC   C1A 9975  11.280  26.779   8.553
 5541POPC   D2A 9976  11.329  26.836   8.253
 5541POPC   C3A 9977  11.301  26.799   7.953
 5541POPC   C4A 9978  11.268  26.854   7.653
 5541POPC   C1B 9979  11.086  26.693   8.553
 5541POPC   C2B 9980  11.082  26.635   8.253
 5541POPC   C3B 9981  11.117  26.677   7.953
 5541POPC   C4B 9982  11.139  26.632   7.653
 5542POPC   NC3 9983   8.156  19.011   9.453
 5542POPC   PO4 9984   8.179  19.027   9.153
 5542POPC   GL1 9985   8.153  19.030   8.853
 5542POPC   GL2 9986   8.231  19.137   8.853
 5542POPC   C1A 9987   8.176  19.025   8.553
 5542POPC   D2A 9988   8.236  19.020   8.253
 5542POPC   C3A 9989   8.193  19.021   7.953
 5542POPC   C4A 9990   8.172  19.018   7.653
 5542POPC   C1B 9991   8.251  19.347   8.553
 5542POPC   C2B 9992   8.254  19.286   8.253
 5542POPC   C3B 9993   8.264  19.337   7.953
 5542POPC   C4B 9994   8.171  19.321   7.653
 5543POPC   NC3 9995  40.831  14.390   9.453
 5543POPC   PO4 9996  40.746  14.453   9.153
 5543POPC   GL1 9997  40.750  14.377   8.853
 5543POPC   GL2 9998  40.873  14.345   8.853
 5543POPC   C1A 9999  40.758  14.442   8.553
 5543POPC   D2A10000  40.741  14.404   8.253
 5543POPC   C3A10001  40.819  14.361   7.953
 5543POPC   C4A10002  40.790  14.423   7.653
 5543POPC   C1B10003  40.964  14.203   8.553
 5543POPC   C2B10004  40.958  14.211   8.253
 5543POPC   C3B10005  40.914  14.234   7.953
 5543POPC   C4B10006  40.964  14.253   7.653
 5544POPC   NC310007  18.326   9.700   9.453
 5544POPC   PO410008  18.330   9.767   9.153
 5544POPC   GL110009  18.317   9.725   8.853
 5544POPC   GL210010  18.371   9.682   8.853
 5544POPC   C1A10011  18.330   9.730   8.553
 5544POPC   D2A10012  18.317   9.742   8.253
 5544POPC   C3A10013  18.287   9.750   7.953
 5544POPC   C4A10014  18.289   9.712   7.653
 5544POPC   C1B10015  18.524   9.692   8.553
 5544POPC   C2B10016  18.532   9.659   8.253
 5544POPC   C3B10017  18.516   9.686   7.953
 5544POPC   C4B10018  18.561   9.650   7.653
 5545POPC   NC310019  27.547  26.017   9.453
 5545POPC   PO410020  27.616  26.068   9.153
 5545POPC   GL110021  27.619  26.048   8.853
 5545POPC   GL210022  27.637  26.138   8.853
 5545POPC   C1A10023  27.617  26.067   8.553
 5545POPC   D2A10024  27.627  26.002   8.253
 5545POPC   C3A10025  27.584  26.081   7.953
 5545POPC   C4A10026  27.634  26.057   7.653
 5545POPC   C1B10027  27.774  26.207   8.553
 5545POPC   C2B10028  27.751  26.231   8.253
 5545POPC   C3B10029  27.720  26.231   7.953
 5545POPC   C4B10030  27.754  26.176   7.653
 5546POPC   NC310031   7.455  30.665   9.453
 5546POPC   PO410032   7.381  30.744   9.153
 5546POPC   GL110033   7.381  30.708   8.853
 5546POPC   GL210034   7.404  30.565   8.853
 5546POPC   C1A10035   7.454  30.721   8.553
 5546POPC   D2A10036   7.451  30.683   8.253
 5546POPC   C3A10037   7.468  30.703   7.953
 5546POPC   C4A10038   7.381  30.712   7.653
 5546POPC   C1B10039   7.390  30.496   8.553
 5546POPC   C2B10040   7.375  30.453   8.253
 5546POPC   C3B10041   7.382  30.466   7.953
 5546POPC   C4B10042   7.394  30.414   7.653
 5547POPC   NC310043  42.335  27.570   9.453
 5547POPC   PO410044  42.322  27.613   9.153
 5547POPC   GL110045  42.368  27.581   8.853
 5547POPC   GL210046  42.501  27.621   8.853
 5547POPC   C1A10047  42.359  27.553   8.553
 5547POPC   D2A10048  42.372  27.566   8.253
 5547POPC   C3A10049  42.319  27.635   7.953
 5547POPC   C4A10050  42.333  27.595   7.653
 5547POPC   C1B10051  42.631  27.666   8.553
 5547POPC   C2B10052  42.601  27.575   8.253
 5547POPC   C3B10053  42.584  27.651   7.953
 5547POPC   C4B10054  42.614  27.592   7.653
 5548POPC   NC310055   7.408  44.689   9.453
 5548POPC   PO410056   7.395  44.635   9.153
 5548POPC   GL110057   7.415  44.665   8.853
 5548POPC   GL210058   7.538  44.717   8.853
 5548POPC   C1A10059   7.436  44.657   8.553
 5548POPC   D2A10060   7.437  44.670   8.253
 5548POPC   C3A10061   7.437  44.683   7.953
 5548POPC   C4A10062   7.393  44.682   7.653
 5548POPC   C1B10063   7.697  44.681   8.553
 5548POPC   C2B10064   7.641  44.710   8.253
 5548POPC   C3B10065   7.641  44.726   7.953
 5548POPC   C4B10066   7.673  44.657   7.653
 5549POPC   NC310067  30.695  40.773   9.453
 5549POPC   PO410068  30.677  40.820   9.153
 5549POPC   GL110069  30.738  40.764   8.853
 5549POPC   GL210070  30.683  40.661   8.853
 5549POPC   C1A10071  30.718  40.763   8.553
 5549POPC   D2A10072  30.696  40.745   8.253
 5549POPC   C3A10073  30.696  40.807   7.953
 5549POPC   C4A10074  30.701  40.770   7.653
 5549POPC   C1B10075  30.643  40.493   8.553
 5549POPC   C2B10076  30.610  40.540   8.253
 5549POPC   C3B10077  30.591  40.551   7.953
 5549POPC   C4B10078  30.647  40.518   7.653
 5550POPC   NC310079  36.892  43.132   9.453
 5550POPC   PO410080  36.916  43.106   9.153
 5550POPC   GL110081  36.940  43.112   8.853
 5550POPC   GL210082  36.858  43.164   8.853
 5550POPC   C1A10083  36.902  43.158   8.553
 5550POPC   D2A10084  36.873  43.150   8.253
 5550POPC   C3A10085  36.913  43.095   7.953
 5550POPC   C4A10086  36.895  43.067   7.653
 5550POPC   C1B10087  36.711  43.278   8.553
 5550POPC   C2B10088  36.738  43.323   8.253
 5550POPC   C3B10089  36.736  43.299   7.953
 5550POPC   C4B10090  36.738  43.349   7.653
 5551POPC   NC310091  37.709  44.637   9.453
 5551POPC   PO410092  37.657  44.686   9.153
 5551POPC   GL110093  37.636  44.660   8.853
 5551POPC   GL210094  37.712  44.523   8.853
 5551POPC   C1A10095  37.657  44.644   8.553
 5551POPC   D2A10096  37.677  44.660   8.253
 5551POPC   C3A10097  37.660  44.616   7.953
 5551POPC   C4A10098  37.650  44.703   7.653
 5551POPC   C1B10099  37.677  44.415   8.553
 5551POPC   C2B10100  37.710  44.437   8.253
 5551POPC   C3B10101  37.642  44.438   7.953
 5551POPC   C4B10102  37.691  44.422   7.653
 5552POPC   NC310103  29.894  36.933   9.453
 5552POPC   PO410104  29.883  36.883   9.153
 5552POPC   GL110105  29.968  36.919   8.853
 5552POPC   GL210106  29.915  37.072   8.853
 5552POPC   C1A10107  29.894  36.916   8.553
 5552POPC   D2A10108  29.896  36.902   8.253
 5552POPC   C3A10109  29.935  36.914   7.953
 5552POPC   C4A10110  29.916  36.951   7.653
 5552POPC   C1B10111  29.959  37.132   8.553
 5552POPC   C2B10112  29.950  37.185   8.253
 5552POPC   C3B10113  29.886  37.172   7.953
 5552POPC   C4B10114  29.884  37.203   7.653
 5553POPC   NC310115  25.294   5.880   9.453
 5553POPC   PO410116  25.265   5.918   9.153
 5553POPC   GL110117  25.257   5.854   8.853
 5553POPC   GL210118  25.347   5.963   8.853
 5553POPC   C1A10119  25.288   5.857   8.553
 5553POPC   D2A10120  25.315   5.917   8.253
 5553POPC   C3A10121  25.310   5.896   7.953
 5553POPC   C4A10122  25.280   5.827   7.653
 5553POPC   C1B10123  25.423   6.109   8.553
 5553POPC   C2B10124  25.398   6.055   8.253
 5553POPC   C3B10125  25.373   6.107   7.953
 5553POPC   C4B10126  25.375   6.092   7.653
 5554POPC   NC310127   2.734  33.784   9.453
 5554POPC   PO410128   2.743  33.791   9.153
 5554POPC   GL110129   2.806  33.784   8.853
 5554POPC   GL210130   2.792  33.709   8.853
 5554POPC   C1A10131   2.778  33.786   8.553
 5554POPC   D2A10132   2.808  33.808   8.253
 5554POPC   C3A10133   2.750  33.819   7.953
 5554POPC   C4A10134   2.739  33.751   7.653
 5554POPC   C1B10135   2.750  33.597   8.553
 5554POPC   C2B10136   2.763  33.547   8.253
 5554POPC   C3B10137   2.721  33.589   7.953
 5554POPC   C4B10138   2.685  33.537   7.653
 5555POPC   NC310139  32.262   5.048   9.453
 5555POPC   PO410140  32.240   5.072   9.153
 5555POPC   GL110141  32.211   5.079   8.853
 5555POPC   GL210142  32.264   5.258   8.853
 5555POPC   C1A10143  32.217   5.133   8.553
 5555POPC   D2A10144  32.289   5.094   8.253
 5555POPC   C3A10145  32.287   5.056   7.953
 5555POPC   C4A10146  32.262   5.134   7.653
 5555POPC   C1B10147  32.342   5.322   8.553
 5555POPC   C2B10148  32.273   5.329   8.253
 5555POPC   C3B10149  32.301   5.308   7.953
 5555POPC   C4B10150  32.284   5.332   7.653
 5556POPC   NC310151  22.955   2.732   9.453
 5556POPC   PO410152  22.917   2.781   9.153
 5556POPC   GL110153  22.963   2.768   8.853
 5556POPC   GL210154  22.826   2.670   8.853
 5556POPC   C1A10155  22.943   2.751   8.553
 5556POPC   D2A10156  22.894   2.765   8.253
 5556POPC   C3A10157  22.950   2.733   7.953
 5556POPC   C4A10158  22.914   2.790   7.653
 5556POPC   C1B10159  22.724   2.604   8.553
 5556POPC   C2B10160  22.751   2.577   8.253
 5556POPC   C3B10161  22.752   2.592   7.953
 5556POPC   C4B10162  22.754   2.633   7.653
 5557POPC   NC310163  30.690  17.504   9.453
 5557POPC   PO410164  30.729  17.518   9.153
 5557POPC   GL110165  30.709  17.489   8.853
 5557POPC   GL210166  30.819  17.516   8.853
 5557POPC   C1A10167  30.672  17.544   8.553
 5557POPC   D2A10168  30.654  17.538   8.253
 5557POPC   C3A10169  30.679  17.513   7.953
 5557POPC   C4A10170  30.730  17.462   7.653
 5557POPC   C1B10171  30.943  17.468   8.553
 5557POPC   C2B10172  30.986  17.461   8.253
 5557POPC   C3B10173  30.905  17.454   7.953
 5557POPC   C4B10174  30.917  17.452   7.653
 5558POPC   NC310175  15.164  16.686   9.453
 5558POPC   PO410176  15.163  16.742   9.153
 5558POPC   GL110177  15.187  16.760   8.853
 5558POPC   GL210178  15.070  16.682   8.853
 5558POPC   C1A10179  15.200  16.747   8.553
 5558POPC   D2A10180  15.174  16.768   8.253
 5558POPC   C3A10181  15.192  16.740   7.953
 5558POPC   C4A10182  15.189  16.692   7.653
 5558POPC   C1B10183  14.950  16.675   8.553
 5558POPC   C2B10184  14.975  16.675   8.253
 5558POPC   C3B10185  14.896  16.663   7.953
 5558POPC   C4B10186  14.915  16.719   7.653
 5559POPC   NC310187  15.949   4.296   9.453
 5559POPC   PO410188  15.987   4.347   9.153
 5559POPC   GL110189  15.952   4.279   8.853
 5559POPC   GL210190  15.874   4.355   8.853
 5559POPC   C1A10191  15.986   4.311   8.553
 5559POPC   D2A10192  15.927   4.336   8.253
 5559POPC   C3A10193  16.002   4.269   7.953
 5559POPC   C4A10194  15.958   4.275   7.653
 5559POPC   C1B10195  15.663   4.351   8.553
 5559POPC   C2B10196  15.688   4.378   8.253
 5559POPC   C3B10197  15.712   4.368   7.953
 5559POPC   C4B10198  15.680   4.319   7.653
 5560POPC   NC310199  43.854  35.401   9.453
 5560POPC   PO410200  43.879  35.314   9.153
 5560POPC   GL110201  43.895  35.305   8.853
 5560POPC   GL210202  43.772  35.243   8.853
 5560POPC   C1A10203  43.846  35.371   8.553
 5560POPC   D2A10204  43.931  35.341   8.253
 5560POPC   C3A10205  43.865  35.322   7.953
 5560POPC   C4A10206  43.930  35.359   7.653
 5560POPC   C1B10207  43.710  35.163   8.553
 5560POPC   C2B10208  43.701  35.163   8.253
 5560POPC   C3B10209  43.781  35.133   7.953
 5560POPC   C4B10210  43.728  35.113   7.653
 5561POPC   NC310211   7.371   6.601   9.453
 5561POPC   PO410212   7.427   6.673   9.153
 5561POPC   GL110213   7.378   6.667   8.853
 5561POPC   GL210214   7.334   6.561   8.853
 5561POPC   C1A10215   7.398   6.612   8.553
 5561POPC   D2A10216   7.373   6.668   8.253
 5561POPC   C3A10217   7.465   6.601   7.953
 5561POPC   C4A10218   7.430   6.672   7.653
 5561POPC   C1B10219   7.266   6.466   8.553
 5561POPC   C2B10220   7.294   6.436   8.253
 5561POPC   C3B10221   7.222   6.497   7.953
 5561POPC   C4B10222   7.298   6.480   7.653
 5562POPC   NC310223  13.587  18.245   9.453
 5562POPC   PO410224  13.612  18.268   9.153
 5562POPC   GL110225  13.604  18.316   8.853
 5562POPC   GL210226  13.565  18.418   8.853
 5562POPC   C1A10227  13.592  18.270   8.553
 5562POPC   D2A10228  13.595  18.286   8.253
 5562POPC   C3A10229  13.670  18.332   7.953
 5562POPC   C4A10230  13.633  18.237   7.653
 5562POPC   C1B10231  13.534  18.490   8.553
 5562POPC   C2B10232  13.486  18.504   8.253
 5562POPC   C3B10233  13.477  18.516   7.953
 5562POPC   C4B10234  13.477  18.467   7.653
 5563POPC   NC310235  31.470   1.944   9.453
 5563POPC   PO410236  31.428   2.008   9.153
 5563POPC   GL110237  31.517   2.007   8.853
 5563POPC   GL210238  31.577   2.124   8.853
 5563POPC   C1A10239  31.451   2.027   8.553
 5563POPC   D2A10240  31.505   1.993   8.253
 5563POPC   C3A10241  31.423   2.031   7.953
 5563POPC   C4A10242  31.504   2.028   7.653
 5563POPC   C1B10243  31.575   2.180   8.553
 5563POPC   C2B10244  31.567   2.211   8.253
 5563POPC   C3B10245  31.588   2.206   7.953
 5563POPC   C4B10246  31.631   2.199   7.653
 5564POPC   NC310247  39.960  13.626   9.453
 5564POPC   PO410248  40.014  13.587   9.153
 5564POPC   GL110249  40.037  13.583   8.853
 5564POPC   GL210250  40.062  13.509   8.853
 5564POPC   C1A10251  39.990  13.594   8.553
 5564POPC   D2A10252  40.038  13.595   8.253
 5564POPC   C3A10253  40.029  13.588   7.953
 5564POPC   C4A10254  40.030  13.640   7.653
 5564POPC   C1B10255  40.169  13.431   8.553
 5564POPC   C2B10256  40.198  13.459   8.253
 5564POPC   C3B10257  40.198  13.423   7.953
 5564POPC   C4B10258  40.147  13.479   7.653
 5565POPC   NC310259  19.018  36.115   9.453
 5565POPC   PO410260  19.076  36.163   9.153
 5565POPC   GL110261  19.057  36.138   8.853
 5565POPC   GL210262  19.009  36.089   8.853
 5565POPC   C1A10263  19.027  36.127   8.553
 5565POPC   D2A10264  19.042  36.163   8.253
 5565POPC   C3A10265  19.032  36.164   7.953
 5565POPC   C4A10266  19.036  36.117   7.653
 5565POPC   C1B10267  18.904  35.960   8.553
 5565POPC   C2B10268  18.888  35.943   8.253
 5565POPC   C3B10269  18.850  35.996   7.953
 5565POPC   C4B10270  18.855  35.981   7.653
 5566POPC   NC310271   9.727  21.394   9.453
 5566POPC   PO410272   9.699  21.365   9.153
 5566POPC   GL110273   9.748  21.347   8.853
 5566POPC   GL210274   9.839  21.272   8.853
 5566POPC   C1A10275   9.709  21.358   8.553
 5566POPC   D2A10276   9.730  21.357   8.253
 5566POPC   C3A10277   9.785  21.350   7.953
 5566POPC   C4A10278   9.741  21.360   7.653
 5566POPC   C1B10279   9.892  21.134   8.553
 5566POPC   C2B10280   9.799  21.152   8.253
 5566POPC   C3B10281   9.838  21.105   7.953
 5566POPC   C4B10282   9.857  21.155   7.653
 5567POPC   NC310283  23.743   7.379   9.453
 5567POPC   PO410284  23.746   7.423   9.153
 5567POPC   GL110285  23.736   7.455   8.853
 5567POPC   GL210286  23.852   7.355   8.853
 5567POPC   C1A10287  23.675   7.393   8.553
 5567POPC   D2A10288  23.749   7.413   8.253
 5567POPC   C3A10289  23.709   7.412   7.953
 5567POPC   C4A10290  23.749   7.421   7.653
 5567POPC   C1B10291  23.940   7.371   8.553
 5567POPC   C2B10292  23.938   7.374   8.253
 5567POPC   C3B10293  23.922   7.365   7.953
 5567POPC   C4B10294  23.973   7.314   7.653
 5568POPC   NC310295  42.381  18.308   9.453
 5568POPC   PO410296  42.329  18.237   9.153
 5568POPC   GL110297  42.310  18.314   8.853
 5568POPC   GL210298  42.499  18.228   8.853
 5568POPC   C1A10299  42.375  18.308   8.553
 5568POPC   D2A10300  42.367  18.280   8.253
 5568POPC   C3A10301  42.295  18.312   7.953
 5568POPC   C4A10302  42.348  18.270   7.653
 5568POPC   C1B10303  42.614  18.239   8.553
 5568POPC   C2B10304  42.564  18.153   8.253
 5568POPC   C3B10305  42.535  18.222   7.953
 5568POPC   C4B10306  42.612  18.198   7.653
 5569POPC   NC310307  34.608  44.616   9.453
 5569POPC   PO410308  34.590  44.613   9.153
 5569POPC   GL110309  34.601  44.672   8.853
 5569POPC   GL210310  34.655  44.590   8.853
 5569POPC   C1A10311  34.566  44.697   8.553
 5569POPC   D2A10312  34.593  44.616   8.253
 5569POPC   C3A10313  34.538  44.627   7.953
 5569POPC   C4A10314  34.560  44.696   7.653
 5569POPC   C1B10315  34.761  44.593   8.553
 5569POPC   C2B10316  34.804  44.520   8.253
 5569POPC   C3B10317  34.767  44.592   7.953
 5569POPC   C4B10318  34.801  44.519   7.653
 5570POPC   NC310319  13.611  40.001   9.453
 5570POPC   PO410320  13.648  39.970   9.153
 5570POPC   GL110321  13.580  39.962   8.853
 5570POPC   GL210322  13.764  39.968   8.853
 5570POPC   C1A10323  13.587  40.023   8.553
 5570POPC   D2A10324  13.622  40.025   8.253
 5570POPC   C3A10325  13.597  40.015   7.953
 5570POPC   C4A10326  13.642  40.041   7.653
 5570POPC   C1B10327  13.851  39.968   8.553
 5570POPC   C2B10328  13.855  39.968   8.253
 5570POPC   C3B10329  13.915  40.016   7.953
 5570POPC   C4B10330  13.854  39.991   7.653
 5571POPC   NC310331  29.956  33.844   9.453
 5571POPC   PO410332  29.952  33.755   9.153
 5571POPC   GL110333  29.919  33.767   8.853
 5571POPC   GL210334  29.863  33.891   8.853
 5571POPC   C1A10335  29.907  33.786   8.553
 5571POPC   D2A10336  29.952  33.834   8.253
 5571POPC   C3A10337  29.900  33.763   7.953
 5571POPC   C4A10338  29.901  33.782   7.653
 5571POPC   C1B10339  29.809  34.009   8.553
 5571POPC   C2B10340  29.765  34.009   8.253
 5571POPC   C3B10341  29.810  34.054   7.953
 5571POPC   C4B10342  29.761  34.068   7.653
 5572POPC   NC310343  15.214  12.871   9.453
 5572POPC   PO410344  15.221  12.844   9.153
 5572POPC   GL110345  15.218  12.887   8.853
 5572POPC   GL210346  15.171  12.718   8.853
 5572POPC   C1A10347  15.226  12.887   8.553
 5572POPC   D2A10348  15.138  12.842   8.253
 5572POPC   C3A10349  15.224  12.872   7.953
 5572POPC   C4A10350  15.197  12.830   7.653
 5572POPC   C1B10351  15.116  12.651   8.553
 5572POPC   C2B10352  15.155  12.600   8.253
 5572POPC   C3B10353  15.069  12.597   7.953
 5572POPC   C4B10354  15.141  12.625   7.653
 5573POPC   NC310355  12.837  36.869   9.453
 5573POPC   PO410356  12.858  36.857   9.153
 5573POPC   GL110357  12.899  36.930   8.853
 5573POPC   GL210358  12.896  37.016   8.853
 5573POPC   C1A10359  12.842  36.856   8.553
 5573POPC   D2A10360  12.820  36.949   8.253
 5573POPC   C3A10361  12.868  36.890   7.953
 5573POPC   C4A10362  12.811  36.897   7.653
 5573POPC   C1B10363  12.910  37.098   8.553
 5573POPC   C2B10364  12.946  37.130   8.253
 5573POPC   C3B10365  12.894  37.138   7.953
 5573POPC   C4B10366  12.936  37.119   7.653
 5574POPC   NC310367  19.102   8.931   9.453
 5574POPC   PO410368  19.050   8.997   9.153
 5574POPC   GL110369  19.089   9.020   8.853
 5574POPC   GL210370  19.135   8.846   8.853
 5574POPC   C1A10371  19.016   8.960   8.553
 5574POPC   D2A10372  19.028   8.940   8.253
 5574POPC   C3A10373  19.015   8.997   7.953
 5574POPC   C4A10374  19.058   8.933   7.653
 5574POPC   C1B10375  19.124   8.736   8.553
 5574POPC   C2B10376  19.131   8.742   8.253
 5574POPC   C3B10377  19.132   8.741   7.953
 5574POPC   C4B10378  19.161   8.734   7.653
 5575POPC   NC310379  13.583  29.119   9.453
 5575POPC   PO410380  13.619  29.136   9.153
 5575POPC   GL110381  13.647  29.132   8.853
 5575POPC   GL210382  13.551  29.153   8.853
 5575POPC   C1A10383  13.622  29.155   8.553
 5575POPC   D2A10384  13.662  29.157   8.253
 5575POPC   C3A10385  13.640  29.160   7.953
 5575POPC   C4A10386  13.656  29.167   7.653
 5575POPC   C1B10387  13.420  29.090   8.553
 5575POPC   C2B10388  13.393  29.074   8.253
 5575POPC   C3B10389  13.421  29.136   7.953
 5575POPC   C4B10390  13.350  29.100   7.653
 5576POPC   NC310391   1.976  29.957   9.453
 5576POPC   PO410392   2.039  29.922   9.153
 5576POPC   GL110393   1.973  29.939   8.853
 5576POPC   GL210394   2.151  29.855   8.853
 5576POPC   C1A10395   1.997  29.910   8.553
 5576POPC   D2A10396   1.980  29.882   8.253
 5576POPC   C3A10397   2.021  29.924   7.953
 5576POPC   C4A10398   2.012  29.970   7.653
 5576POPC   C1B10399   2.183  29.892   8.553
 5576POPC   C2B10400   2.261  29.894   8.253
 5576POPC   C3B10401   2.227  29.808   7.953
 5576POPC   C4B10402   2.239  29.901   7.653
 5577POPC   NC310403  26.858  36.090   9.453
 5577POPC   PO410404  26.783  36.095   9.153
 5577POPC   GL110405  26.768  36.131   8.853
 5577POPC   GL210406  26.680  36.188   8.853
 5577POPC   C1A10407  26.843  36.136   8.553
 5577POPC   D2A10408  26.800  36.108   8.253
 5577POPC   C3A10409  26.785  36.097   7.953
 5577POPC   C4A10410  26.774  36.149   7.653
 5577POPC   C1B10411  26.624  36.306   8.553
 5577POPC   C2B10412  26.588  36.251   8.253
 5577POPC   C3B10413  26.575  36.315   7.953
 5577POPC   C4B10414  26.608  36.304   7.653
 5578POPC   NC310415   7.373  16.721   9.453
 5578POPC   PO410416   7.388  16.720   9.153
 5578POPC   GL110417   7.452  16.761   8.853
 5578POPC   GL210418   7.394  16.840   8.853
 5578POPC   C1A10419   7.421  16.718   8.553
 5578POPC   D2A10420   7.453  16.762   8.253
 5578POPC   C3A10421   7.383  16.771   7.953
 5578POPC   C4A10422   7.378  16.777   7.653
 5578POPC   C1B10423   7.347  16.976   8.553
 5578POPC   C2B10424   7.364  16.925   8.253
 5578POPC   C3B10425   7.407  17.014   7.953
 5578POPC   C4B10426   7.371  16.987   7.653
 5579POPC   NC310427  31.441   4.307   9.453
 5579POPC   PO410428  31.494   4.292   9.153
 5579POPC   GL110429  31.519   4.321   8.853
 5579POPC   GL210430  31.520   4.238   8.853
 5579POPC   C1A10431  31.450   4.309   8.553
 5579POPC   D2A10432  31.426   4.308   8.253
 5579POPC   C3A10433  31.511   4.272   7.953
 5579POPC   C4A10434  31.521   4.354   7.653
 5579POPC   C1B10435  31.614   4.150   8.553
 5579POPC   C2B10436  31.708   4.166   8.253
 5579POPC   C3B10437  31.666   4.121   7.953
 5579POPC   C4B10438  31.648   4.134   7.653
 5580POPC   NC310439  27.558  34.529   9.453
 5580POPC   PO410440  27.596  34.579   9.153
 5580POPC   GL110441  27.581  34.589   8.853
 5580POPC   GL210442  27.634  34.694   8.853
 5580POPC   C1A10443  27.598  34.590   8.553
 5580POPC   D2A10444  27.558  34.606   8.253
 5580POPC   C3A10445  27.567  34.546   7.953
 5580POPC   C4A10446  27.609  34.546   7.653
 5580POPC   C1B10447  27.706  34.792   8.553
 5580POPC   C2B10448  27.667  34.828   8.253
 5580POPC   C3B10449  27.672  34.752   7.953
 5580POPC   C4B10450  27.749  34.826   7.653
 5581POPC   NC310451   1.256  40.773   9.453
 5581POPC   PO410452   1.261  40.798   9.153
 5581POPC   GL110453   1.232  40.803   8.853
 5581POPC   GL210454   1.332  40.758   8.853
 5581POPC   C1A10455   1.243  40.821   8.553
 5581POPC   D2A10456   1.214  40.798   8.253
 5581POPC   C3A10457   1.193  40.801   7.953
 5581POPC   C4A10458   1.247  40.826   7.653
 5581POPC   C1B10459   1.455  40.607   8.553
 5581POPC   C2B10460   1.390  40.610   8.253
 5581POPC   C3B10461   1.389  40.595   7.953
 5581POPC   C4B10462   1.465  40.621   7.653
 5582POPC   NC310463  16.736  12.027   9.453
 5582POPC   PO410464  16.753  12.031   9.153
 5582POPC   GL110465  16.774  12.051   8.853
 5582POPC   GL210466  16.684  12.162   8.853
 5582POPC   C1A10467  16.751  12.031   8.553
 5582POPC   D2A10468  16.687  12.072   8.253
 5582POPC   C3A10469  16.756  12.033   7.953
 5582POPC   C4A10470  16.747  12.102   7.653
 5582POPC   C1B10471  16.671  12.321   8.553
 5582POPC   C2B10472  16.584  12.340   8.253
 5582POPC   C3B10473  16.627  12.320   7.953
 5582POPC   C4B10474  16.610  12.350   7.653
 5583POPC   NC310475  19.026  42.331   9.453
 5583POPC   PO410476  19.073  42.358   9.153
 5583POPC   GL110477  19.059  42.352   8.853
 5583POPC   GL210478  18.975  42.290   8.853
 5583POPC   C1A10479  19.054  42.325   8.553
 5583POPC   D2A10480  19.083  42.316   8.253
 5583POPC   C3A10481  19.014  42.346   7.953
 5583POPC   C4A10482  19.045  42.288   7.653
 5583POPC   C1B10483  18.826  42.368   8.553
 5583POPC   C2B10484  18.813  42.309   8.253
 5583POPC   C3B10485  18.791  42.277   7.953
 5583POPC   C4B10486  18.780  42.356   7.653
 5584POPC   NC310487  14.383  44.631   9.453
 5584POPC   PO410488  14.375  44.672   9.153
 5584POPC   GL110489  14.431  44.683   8.853
 5584POPC   GL210490  14.505  44.590   8.853
 5584POPC   C1A10491  14.447  44.710   8.553
 5584POPC   D2A10492  14.448  44.658   8.253
 5584POPC   C3A10493  14.394  44.712   7.953
 5584POPC   C4A10494  14.433  44.617   7.653
 5584POPC   C1B10495  14.525  44.459   8.553
 5584POPC   C2B10496  14.463  44.437   8.253
 5584POPC   C3B10497  14.546  44.470   7.953
 5584POPC   C4B10498  14.482  44.403   7.653
 5585POPC   NC310499  27.579  17.526   9.453
 5585POPC   PO410500  27.637  17.477   9.153
 5585POPC   GL110501  27.549  17.553   8.853
 5585POPC   GL210502  27.570  17.351   8.853
 5585POPC   C1A10503  27.637  17.542   8.553
 5585POPC   D2A10504  27.585  17.527   8.253
 5585POPC   C3A10505  27.635  17.467   7.953
 5585POPC   C4A10506  27.577  17.494   7.653
 5585POPC   C1B10507  27.561  17.218   8.553
 5585POPC   C2B10508  27.582  17.287   8.253
 5585POPC   C3B10509  27.535  17.285   7.953
 5585POPC   C4B10510  27.555  17.255   7.653
 5586POPC   NC310511  20.655  31.436   9.453
 5586POPC   PO410512  20.614  31.505   9.153
 5586POPC   GL110513  20.590  31.507   8.853
 5586POPC   GL210514  20.652  31.621   8.853
 5586POPC   C1A10515  20.636  31.449   8.553
 5586POPC   D2A10516  20.655  31.440   8.253
 5586POPC   C3A10517  20.645  31.445   7.953
 5586POPC   C4A10518  20.631  31.443   7.653
 5586POPC   C1B10519  20.763  31.704   8.553
 5586POPC   C2B10520  20.721  31.736   8.253
 5586POPC   C3B10521  20.693  31.738   7.953
 5586POPC   C4B10522  20.762  31.692   7.653
 5587POPC   NC310523  13.636   9.746   9.453
 5587POPC   PO410524  13.655   9.737   9.153
 5587POPC   GL110525  13.601   9.736   8.853
 5587POPC   GL210526  13.737   9.825   8.853
 5587POPC   C1A10527  13.608   9.795   8.553
 5587POPC   D2A10528  13.584   9.719   8.253
 5587POPC   C3A10529  13.651   9.700   7.953
 5587POPC   C4A10530  13.618   9.708   7.653
 5587POPC   C1B10531  13.775   9.906   8.553
 5587POPC   C2B10532  13.770   9.974   8.253
 5587POPC   C3B10533  13.777   9.902   7.953
 5587POPC   C4B10534  13.799   9.926   7.653
 5588POPC   NC310535   7.423  40.789   9.453
 5588POPC   PO410536   7.421  40.832   9.153
 5588POPC   GL110537   7.441  40.786   8.853
 5588POPC   GL210538   7.552  40.741   8.853
 5588POPC   C1A10539   7.386  40.795   8.553
 5588POPC   D2A10540   7.412  40.822   8.253
 5588POPC   C3A10541   7.436  40.767   7.953
 5588POPC   C4A10542   7.387  40.813   7.653
 5588POPC   C1B10543   7.647  40.740   8.553
 5588POPC   C2B10544   7.703  40.772   8.253
 5588POPC   C3B10545   7.707  40.727   7.953
 5588POPC   C4B10546   7.626  40.735   7.653
 5589POPC   NC310547   5.071  13.638   9.453
 5589POPC   PO410548   5.093  13.622   9.153
 5589POPC   GL110549   5.066  13.616   8.853
 5589POPC   GL210550   5.046  13.690   8.853
 5589POPC   C1A10551   5.116  13.649   8.553
 5589POPC   D2A10552   5.093  13.644   8.253
 5589POPC   C3A10553   5.113  13.580   7.953
 5589POPC   C4A10554   5.121  13.581   7.653
 5589POPC   C1B10555   4.918  13.789   8.553
 5589POPC   C2B10556   4.969  13.819   8.253
 5589POPC   C3B10557   4.963  13.760   7.953
 5589POPC   C4B10558   4.955  13.856   7.653
 5590POPC   NC310559  21.400  14.391   9.453
 5590POPC   PO410560  21.369  14.434   9.153
 5590POPC   GL110561  21.381  14.437   8.853
 5590POPC   GL210562  21.307  14.360   8.853
 5590POPC   C1A10563  21.412  14.414   8.553
 5590POPC   D2A10564  21.363  14.402   8.253
 5590POPC   C3A10565  21.367  14.383   7.953
 5590POPC   C4A10566  21.415  14.364   7.653
 5590POPC   C1B10567  21.216  14.243   8.553
 5590POPC   C2B10568  21.144  14.307   8.253
 5590POPC   C3B10569  21.134  14.271   7.953
 5590POPC   C4B10570  21.171  14.314   7.653
 5591POPC   NC310571  27.560   1.250   9.453
 5591POPC   PO410572  27.593   1.238   9.153
 5591POPC   GL110573  27.554   1.262   8.853
 5591POPC   GL210574  27.491   1.128   8.853
 5591POPC   C1A10575  27.575   1.166   8.553
 5591POPC   D2A10576  27.620   1.216   8.253
 5591POPC   C3A10577  27.595   1.239   7.953
 5591POPC   C4A10578  27.586   1.239   7.653
 5591POPC   C1B10579  27.403   1.054   8.553
 5591POPC   C2B10580  27.329   1.093   8.253
 5591POPC   C3B10581  27.385   1.070   7.953
 5591POPC   C4B10582  27.416   1.123   7.653
 5592POPC   NC310583   7.412  33.064   9.453
 5592POPC   PO410584   7.448  32.998   9.153
 5592POPC   GL110585   7.441  33.011   8.853
 5592POPC   GL210586   7.403  32.935   8.853
 5592POPC   C1A10587   7.415  33.063   8.553
 5592POPC   D2A10588   7.395  32.981   8.253
 5592POPC   C3A10589   7.395  33.034   7.953
 5592POPC   C4A10590   7.391  33.032   7.653
 5592POPC   C1B10591   7.401  32.740   8.553
 5592POPC   C2B10592   7.446  32.808   8.253
 5592POPC   C3B10593   7.380  32.748   7.953
 5592POPC   C4B10594   7.424  32.730   7.653
 5593POPC   NC310595   7.423  26.002   9.453
 5593POPC   PO410596   7.463  26.031   9.153
 5593POPC   GL110597   7.375  26.054   8.853
 5593POPC   GL210598   7.492  26.087   8.853
 5593POPC   C1A10599   7.470  26.054   8.553
 5593POPC   D2A10600   7.397  26.031   8.253
 5593POPC   C3A10601   7.424  26.020   7.953
 5593POPC   C4A10602   7.421  26.050   7.653
 5593POPC   C1B10603   7.630  26.197   8.553
 5593POPC   C2B10604   7.654  26.208   8.253
 5593POPC   C3B10605   7.566  26.165   7.953
 5593POPC   C4B10606   7.651  26.201   7.653
 5594POPC   NC310607  38.418  14.442   9.453
 5594POPC   PO410608  38.505  14.379   9.153
 5594POPC   GL110609  38.423  14.374   8.853
 5594POPC   GL210610  38.432  14.286   8.853
 5594POPC   C1A10611  38.463  14.391   8.553
 5594POPC   D2A10612  38.434  14.424   8.253
 5594POPC   C3A10613  38.429  14.365   7.953
 5594POPC   C4A10614  38.469  14.358   7.653
 5594POPC   C1B10615  38.490  14.167   8.553
 5594POPC   C2B10616  38.492  14.180   8.253
 5594POPC   C3B10617  38.453  14.167   7.953
 5594POPC   C4B10618  38.462  14.107   7.653
 5595POPC   NC310619  44.684  34.540   9.453
 5595POPC   PO410620  44.682  34.615   9.153
 5595POPC   GL110621  44.653  34.526   8.853
 5595POPC   GL210622  44.536  34.687   8.853
 5595POPC   C1A10623  44.657  34.568   8.553
 5595POPC   D2A10624  44.617  34.593   8.253
 5595POPC   C3A10625  44.634  34.564   7.953
 5595POPC   C4A10626  44.634  34.597   7.653
 5595POPC   C1B10627  44.437  34.726   8.553
 5595POPC   C2B10628  44.451  34.711   8.253
 5595POPC   C3B10629  44.510  34.753   7.953
 5595POPC   C4B10630  44.487  34.724   7.653
 5596POPC   NC310631  31.433  40.000   9.453
 5596POPC   PO410632  31.521  39.964   9.153
 5596POPC   GL110633  31.503  39.962   8.853
 5596POPC   GL210634  31.352  40.078   8.853
 5596POPC   C1A10635  31.455  40.035   8.553
 5596POPC   D2A10636  31.445  40.051   8.253
 5596POPC   C3A10637  31.519  40.047   7.953
 5596POPC   C4A10638  31.424  39.975   7.653
 5596POPC   C1B10639  31.227  40.150   8.553
 5596POPC   C2B10640  31.223  40.118   8.253
 5596POPC   C3B10641  31.299  40.102   7.953
 5596POPC   C4B10642  31.264  40.178   7.653
 5597POPC   NC310643   2.780  34.601   9.453
 5597POPC   PO410644   2.784  34.574   9.153
 5597POPC   GL110645   2.780  34.616   8.853
 5597POPC   GL210646   2.858  34.474   8.853
 5597POPC   C1A10647   2.727  34.553   8.553
 5597POPC   D2A10648   2.743  34.529   8.253
 5597POPC   C3A10649   2.791  34.542   7.953
 5597POPC   C4A10650   2.733  34.593   7.653
 5597POPC   C1B10651   2.882  34.342   8.553
 5597POPC   C2B10652   2.852  34.388   8.253
 5597POPC   C3B10653   2.895  34.395   7.953
 5597POPC   C4B10654   2.850  34.331   7.653
 5598POPC   NC310655  18.281  16.005   9.453
 5598POPC   PO410656  18.324  15.920   9.153
 5598POPC   GL110657  18.252  15.938   8.853
 5598POPC   GL210658  18.304  16.086   8.853
 5598POPC   C1A10659  18.300  15.966   8.553
 5598POPC   D2A10660  18.323  16.004   8.253
 5598POPC   C3A10661  18.263  15.989   7.953
 5598POPC   C4A10662  18.311  15.985   7.653
 5598POPC   C1B10663  18.355  16.226   8.553
 5598POPC   C2B10664  18.406  16.173   8.253
 5598POPC   C3B10665  18.341  16.182   7.953
 5598POPC   C4B10666  18.421  16.190   7.653
 5599POPC   NC310667   5.886  20.656   9.453
 5599POPC   PO410668   5.889  20.566   9.153
 5599POPC   GL110669   5.841  20.568   8.853
 5599POPC   GL210670   5.799  20.684   8.853
 5599POPC   C1A10671   5.907  20.589   8.553
 5599POPC   D2A10672   5.906  20.588   8.253
 5599POPC   C3A10673   5.845  20.589   7.953
 5599POPC   C4A10674   5.907  20.586   7.653
 5599POPC   C1B10675   5.761  20.857   8.553
 5599POPC   C2B10676   5.811  20.845   8.253
 5599POPC   C3B10677   5.772  20.833   7.953
 5599POPC   C4B10678   5.781  20.879   7.653
 5600POPC   NC310679  43.921  40.042   9.453
 5600POPC   PO410680  43.852  40.036   9.153
 5600POPC   GL110681  43.866  40.044   8.853
 5600POPC   GL210682  43.825  39.898   8.853
 5600POPC   C1A10683  43.873  39.998   8.553
 5600POPC   D2A10684  43.936  39.974   8.253
 5600POPC   C3A10685  43.853  39.973   7.953
 5600POPC   C4A10686  43.852  39.986   7.653
 5600POPC   C1B10687  43.775  39.768   8.553
 5600POPC   C2B10688  43.712  39.775   8.253
 5600POPC   C3B10689  43.714  39.772   7.953
 5600POPC   C4B10690  43.762  39.791   7.653
 5601POPC   NC310691  15.142  39.993   9.453
 5601POPC   PO410692  15.134  40.056   9.153
 5601POPC   GL110693  15.176  40.049   8.853
 5601POPC   GL210694  15.047  40.100   8.853
 5601POPC   C1A10695  15.222  39.959   8.553
 5601POPC   D2A10696  15.223  39.969   8.253
 5601POPC   C3A10697  15.175  39.996   7.953
 5601POPC   C4A10698  15.209  40.014   7.653
 5601POPC   C1B10699  14.928  40.166   8.553
 5601POPC   C2B10700  14.932  40.169   8.253
 5601POPC   C3B10701  14.973  40.191   7.953
 5601POPC   C4B10702  14.988  40.177   7.653
 5602POPC   NC310703  31.512  29.958   9.453
 5602POPC   PO410704  31.456  29.904   9.153
 5602POPC   GL110705  31.431  29.923   8.853
 5602POPC   GL210706  31.615  29.931   8.853
 5602POPC   C1A10707  31.439  29.914   8.553
 5602POPC   D2A10708  31.458  29.936   8.253
 5602POPC   C3A10709  31.446  29.937   7.953
 5602POPC   C4A10710  31.491  29.956   7.653
 5602POPC   C1B10711  31.704  29.982   8.553
 5602POPC   C2B10712  31.759  30.004   8.253
 5602POPC   C3B10713  31.722  30.005   7.953
 5602POPC   C4B10714  31.724  29.994   7.653
 5603POPC   NC310715  23.715  17.506   9.453
 5603POPC   PO410716  23.732  17.480   9.153
 5603POPC   GL110717  23.679  17.494   8.853
 5603POPC   GL210718  23.656  17.583   8.853
 5603POPC   C1A10719  23.759  17.477   8.553
 5603POPC   D2A10720  23.683  17.522   8.253
 5603POPC   C3A10721  23.669  17.481   7.953
 5603POPC   C4A10722  23.746  17.521   7.653
 5603POPC   C1B10723  23.599  17.738   8.553
 5603POPC   C2B10724  23.632  17.696   8.253
 5603POPC   C3B10725  23.575  17.759   7.953
 5603POPC   C4B10726  23.618  17.701   7.653
 5604POPC   NC310727   9.013  19.875   9.453
 5604POPC   PO410728   8.975  19.809   9.153
 5604POPC   GL110729   8.952  19.865   8.853
 5604POPC   GL210730   8.837  19.899   8.853
 5604POPC   C1A10731   9.008  19.871   8.553
 5604POPC   D2A10732   8.969  19.873   8.253
 5604POPC   C3A10733   8.995  19.846   7.953
 5604POPC   C4A10734   9.019  19.870   7.653
 5604POPC   C1B10735   8.755  20.001   8.553
 5604POPC   C2B10736   8.745  19.983   8.253
 5604POPC   C3B10737   8.771  19.933   7.953
 5604POPC   C4B10738   8.803  19.981   7.653
 5605POPC   NC310739  23.727   5.083   9.453
 5605POPC   PO410740  23.706   5.120   9.153
 5605POPC   GL110741  23.677   5.122   8.853
 5605POPC   GL210742  23.702   5.011   8.853
 5605POPC   C1A10743  23.679   5.063   8.553
 5605POPC   D2A10744  23.680   5.065   8.253
 5605POPC   C3A10745  23.695   5.101   7.953
 5605POPC   C4A10746  23.670   5.067   7.653
 5605POPC   C1B10747  23.759   4.878   8.553
 5605POPC   C2B10748  23.784   4.836   8.253
 5605POPC   C3B10749  23.755   4.821   7.953
 5605POPC   C4B10750  23.722   4.800   7.653
 5606POPC   NC310751  24.477  23.762   9.453
 5606POPC   PO410752  24.443  23.666   9.153
 5606POPC   GL110753  24.481  23.710   8.853
 5606POPC   GL210754  24.354  23.719   8.853
 5606POPC   C1A10755  24.537  23.668   8.553
 5606POPC   D2A10756  24.445  23.703   8.253
 5606POPC   C3A10757  24.530  23.720   7.953
 5606POPC   C4A10758  24.443  23.687   7.653
 5606POPC   C1B10759  24.242  23.669   8.553
 5606POPC   C2B10760  24.213  23.681   8.253
 5606POPC   C3B10761  24.238  23.682   7.953
 5606POPC   C4B10762  24.209  23.619   7.653
 5607POPC   NC310763  17.539  31.436   9.453
 5607POPC   PO410764  17.529  31.468   9.153
 5607POPC   GL110765  17.520  31.443   8.853
 5607POPC   GL210766  17.545  31.382   8.853
 5607POPC   C1A10767  17.552  31.443   8.553
 5607POPC   D2A10768  17.501  31.504   8.253
 5607POPC   C3A10769  17.546  31.423   7.953
 5607POPC   C4A10770  17.482  31.475   7.653
 5607POPC   C1B10771  17.524  31.212   8.553
 5607POPC   C2B10772  17.485  31.252   8.253
 5607POPC   C3B10773  17.523  31.181   7.953
 5607POPC   C4B10774  17.550  31.193   7.653
 5608POPC   NC310775  38.451  24.512   9.453
 5608POPC   PO410776  38.458  24.469   9.153
 5608POPC   GL110777  38.440  24.479   8.853
 5608POPC   GL210778  38.323  24.573   8.853
 5608POPC   C1A10779  38.416  24.467   8.553
 5608POPC   D2A10780  38.471  24.523   8.253
 5608POPC   C3A10781  38.471  24.539   7.953
 5608POPC   C4A10782  38.452  24.530   7.653
 5608POPC   C1B10783  38.268  24.604   8.553
 5608POPC   C2B10784  38.211  24.586   8.253
 5608POPC   C3B10785  38.219  24.572   7.953
 5608POPC   C4B10786  38.248  24.606   7.653
 5609POPC   NC310787   8.949   9.019   9.453
 5609POPC   PO410788   8.938   8.977   9.153
 5609POPC   GL110789   8.981   8.946   8.853
 5609POPC   GL210790   8.854   9.075   8.853
 5609POPC   C1A10791   8.959   8.923   8.553
 5609POPC   D2A10792   8.952   8.978   8.253
 5609POPC   C3A10793   8.999   8.973   7.953
 5609POPC   C4A10794   9.017   8.997   7.653
 5609POPC   C1B10795   8.842   9.113   8.553
 5609POPC   C2B10796   8.782   9.154   8.253
 5609POPC   C3B10797   8.779   9.152   7.953
 5609POPC   C4B10798   8.843   9.156   7.653
 5610POPC   NC310799  15.163  36.941   9.453
 5610POPC   PO410800  15.172  36.858   9.153
 5610POPC   GL110801  15.196  36.932   8.853
 5610POPC   GL210802  15.090  36.916   8.853
 5610POPC   C1A10803  15.133  36.906   8.553
 5610POPC   D2A10804  15.199  36.878   8.253
 5610POPC   C3A10805  15.145  36.868   7.953
 5610POPC   C4A10806  15.158  36.880   7.653
 5610POPC   C1B10807  14.937  36.957   8.553
 5610POPC   C2B10808  14.903  36.928   8.253
 5610POPC   C3B10809  14.925  36.948   7.953
 5610POPC   C4B10810  14.977  36.967   7.653
 5611POPC   NC310811  39.245   0.486   9.453
 5611POPC   PO410812  39.230   0.453   9.153
 5611POPC   GL110813  39.257   0.444   8.853
 5611POPC   GL210814  39.088   0.384   8.853
 5611POPC   C1A10815  39.182   0.470   8.553
 5611POPC   D2A10816  39.200   0.397   8.253
 5611POPC   C3A10817  39.260   0.454   7.953
 5611POPC   C4A10818  39.236   0.481   7.653
 5611POPC   C1B10819  38.990   0.390   8.553
 5611POPC   C2B10820  38.949   0.415   8.253
 5611POPC   C3B10821  38.998   0.392   7.953
 5611POPC   C4B10822  38.949   0.369   7.653
 5612POPC   NC310823  26.862  26.817   9.453
 5612POPC   PO410824  26.803  26.863   9.153
 5612POPC   GL110825  26.844  26.813   8.853
 5612POPC   GL210826  26.933  26.848   8.853
 5612POPC   C1A10827  26.832  26.846   8.553
 5612POPC   D2A10828  26.768  26.822   8.253
 5612POPC   C3A10829  26.769  26.842   7.953
 5612POPC   C4A10830  26.812  26.835   7.653
 5612POPC   C1B10831  27.034  26.838   8.553
 5612POPC   C2B10832  27.109  26.770   8.253
 5612POPC   C3B10833  27.019  26.843   7.953
 5612POPC   C4B10834  27.070  26.794   7.653
 5613POPC   NC310835  33.755  44.662   9.453
 5613POPC   PO410836  33.806  44.695   9.153
 5613POPC   GL110837  33.809  44.662   8.853
 5613POPC   GL210838  33.676  44.591   8.853
 5613POPC   C1A10839  33.761  44.684   8.553
 5613POPC   D2A10840  33.794  44.693   8.253
 5613POPC   C3A10841  33.838  44.670   7.953
 5613POPC   C4A10842  33.754  44.633   7.653
 5613POPC   C1B10843  33.543  44.603   8.553
 5613POPC   C2B10844  33.575  44.573   8.253
 5613POPC   C3B10845  33.528  44.606   7.953
 5613POPC   C4B10846  33.607  44.551   7.653
 5614POPC   NC310847  40.749  15.930   9.453
 5614POPC   PO410848  40.740  15.917   9.153
 5614POPC   GL110849  40.760  15.941   8.853
 5614POPC   GL210850  40.722  16.065   8.853
 5614POPC   C1A10851  40.741  15.936   8.553
 5614POPC   D2A10852  40.821  15.946   8.253
 5614POPC   C3A10853  40.811  15.960   7.953
 5614POPC   C4A10854  40.798  15.991   7.653
 5614POPC   C1B10855  40.676  16.133   8.553
 5614POPC   C2B10856  40.650  16.200   8.253
 5614POPC   C3B10857  40.665  16.182   7.953
 5614POPC   C4B10858  40.634  16.185   7.653
 5615POPC   NC310859  40.759  22.900   9.453
 5615POPC   PO410860  40.756  22.963   9.153
 5615POPC   GL110861  40.741  22.926   8.853
 5615POPC   GL210862  40.917  23.037   8.853
 5615POPC   C1A10863  40.744  22.905   8.553
 5615POPC   D2A10864  40.798  22.969   8.253
 5615POPC   C3A10865  40.782  22.891   7.953
 5615POPC   C4A10866  40.750  22.963   7.653
 5615POPC   C1B10867  41.030  23.076   8.553
 5615POPC   C2B10868  41.007  23.071   8.253
 5615POPC   C3B10869  41.009  23.031   7.953
 5615POPC   C4B10870  40.993  23.088   7.653
 5616POPC   NC310871   4.273  15.156   9.453
 5616POPC   PO410872   4.331  15.216   9.153
 5616POPC   GL110873   4.292  15.227   8.853
 5616POPC   GL210874   4.221  15.079   8.853
 5616POPC   C1A10875   4.301  15.218   8.553
 5616POPC   D2A10876   4.314  15.130   8.253
 5616POPC   C3A10877   4.366  15.178   7.953
 5616POPC   C4A10878   4.333  15.223   7.653
 5616POPC   C1B10879   4.105  14.980   8.553
 5616POPC   C2B10880   4.126  15.006   8.253
 5616POPC   C3B10881   4.184  15.015   7.953
 5616POPC   C4B10882   4.111  14.970   7.653
 5617POPC   NC310883  16.750  42.299   9.453
 5617POPC   PO410884  16.724  42.373   9.153
 5617POPC   GL110885  16.770  42.365   8.853
 5617POPC   GL210886  16.739  42.228   8.853
 5617POPC   C1A10887  16.737  42.294   8.553
 5617POPC   D2A10888  16.712  42.380   8.253
 5617POPC   C3A10889  16.747  42.332   7.953
 5617POPC   C4A10890  16.717  42.346   7.653
 5617POPC   C1B10891  16.775  42.080   8.553
 5617POPC   C2B10892  16.740  42.069   8.253
 5617POPC   C3B10893  16.744  42.070   7.953
 5617POPC   C4B10894  16.751  42.104   7.653
 5618POPC   NC310895  11.286  22.974   9.453
 5618POPC   PO410896  11.309  22.926   9.153
 5618POPC   GL110897  11.274  22.977   8.853
 5618POPC   GL210898  11.177  23.043   8.853
 5618POPC   C1A10899  11.255  22.955   8.553
 5618POPC   D2A10900  11.258  22.941   8.253
 5618POPC   C3A10901  11.306  22.901   7.953
 5618POPC   C4A10902  11.296  22.917   7.653
 5618POPC   C1B10903  11.080  23.064   8.553
 5618POPC   C2B10904  11.093  23.128   8.253
 5618POPC   C3B10905  11.075  23.135   7.953
 5618POPC   C4B10906  11.158  23.075   7.653
 5619POPC   NC310907  10.515  19.880   9.453
 5619POPC   PO410908  10.556  19.800   9.153
 5619POPC   GL110909  10.517  19.791   8.853
 5619POPC   GL210910  10.557  20.001   8.853
 5619POPC   C1A10911  10.492  19.875   8.553
 5619POPC   D2A10912  10.491  19.811   8.253
 5619POPC   C3A10913  10.512  19.877   7.953
 5619POPC   C4A10914  10.536  19.834   7.653
 5619POPC   C1B10915  10.627  20.028   8.553
 5619POPC   C2B10916  10.631  20.111   8.253
 5619POPC   C3B10917  10.631  20.052   7.953
 5619POPC   C4B10918  10.568  20.078   7.653
 5620POPC   NC310919   4.288  10.559   9.453
 5620POPC   PO410920   4.345  10.535   9.153
 5620POPC   GL110921   4.334  10.523   8.853
 5620POPC   GL210922   4.212  10.404   8.853
 5620POPC   C1A10923   4.290  10.536   8.553
 5620POPC   D2A10924   4.284  10.554   8.253
 5620POPC   C3A10925   4.308  10.546   7.953
 5620POPC   C4A10926   4.269  10.552   7.653
 5620POPC   C1B10927   4.173  10.294   8.553
 5620POPC   C2B10928   4.213  10.264   8.253
 5620POPC   C3B10929   4.242  10.319   7.953
 5620POPC   C4B10930   4.188  10.260   7.653
 5621POPC   NC310931  10.507  25.263   9.453
 5621POPC   PO410932  10.560  25.247   9.153
 5621POPC   GL110933  10.537  25.284   8.853
 5621POPC   GL210934  10.390  25.257   8.853
 5621POPC   C1A10935  10.562  25.292   8.553
 5621POPC   D2A10936  10.511  25.233   8.253
 5621POPC   C3A10937  10.566  25.267   7.953
 5621POPC   C4A10938  10.506  25.295   7.653
 5621POPC   C1B10939  10.260  25.365   8.553
 5621POPC   C2B10940  10.292  25.346   8.253
 5621POPC   C3B10941  10.304  25.355   7.953
 5621POPC   C4B10942  10.302  25.313   7.653
 5622POPC   NC310943  18.237  34.589   9.453
 5622POPC   PO410944  18.316  34.527   9.153
 5622POPC   GL110945  18.309  34.600   8.853
 5622POPC   GL210946  18.349  34.462   8.853
 5622POPC   C1A10947  18.299  34.572   8.553
 5622POPC   D2A10948  18.297  34.584   8.253
 5622POPC   C3A10949  18.274  34.618   7.953
 5622POPC   C4A10950  18.254  34.594   7.653
 5622POPC   C1B10951  18.400  34.387   8.553
 5622POPC   C2B10952  18.332  34.305   8.253
 5622POPC   C3B10953  18.373  34.332   7.953
 5622POPC   C4B10954  18.354  34.338   7.653
 5623POPC   NC310955  17.552   4.284   9.453
 5623POPC   PO410956  17.462   4.313   9.153
 5623POPC   GL110957  17.507   4.326   8.853
 5623POPC   GL210958  17.401   4.393   8.853
 5623POPC   C1A10959  17.548   4.335   8.553
 5623POPC   D2A10960  17.521   4.288   8.253
 5623POPC   C3A10961  17.516   4.361   7.953
 5623POPC   C4A10962  17.524   4.291   7.653
 5623POPC   C1B10963  17.268   4.441   8.553
 5623POPC   C2B10964  17.329   4.423   8.253
 5623POPC   C3B10965  17.302   4.479   7.953
 5623POPC   C4B10966  17.247   4.439   7.653
 5624POPC   NC310967   0.457   6.601   9.453
 5624POPC   PO410968   0.425   6.660   9.153
 5624POPC   GL110969   0.486   6.609   8.853
 5624POPC   GL210970   0.520   6.780   8.853
 5624POPC   C1A10971   0.413   6.619   8.553
 5624POPC   D2A10972   0.404   6.620   8.253
 5624POPC   C3A10973   0.455   6.628   7.953
 5624POPC   C4A10974   0.439   6.685   7.653
 5624POPC   C1B10975   0.639   6.836   8.553
 5624POPC   C2B10976   0.662   6.827   8.253
 5624POPC   C3B10977   0.602   6.800   7.953
 5624POPC   C4B10978   0.655   6.844   7.653
 5625POPC   NC310979   0.398  19.030   9.453
 5625POPC   PO410980   0.464  19.093   9.153
 5625POPC   GL110981   0.398  19.107   8.853
 5625POPC   GL210982   0.511  19.005   8.853
 5625POPC   C1A10983   0.399  19.048   8.553
 5625POPC   D2A10984   0.392  19.072   8.253
 5625POPC   C3A10985   0.484  19.054   7.953
 5625POPC   C4A10986   0.481  19.024   7.653
 5625POPC   C1B10987   0.619  18.860   8.553
 5625POPC   C2B10988   0.577  18.857   8.253
 5625POPC   C3B10989   0.610  18.833   7.953
 5625POPC   C4B10990   0.598  18.908   7.653
 5626POPC   NC310991  29.136  38.485   9.453
 5626POPC   PO410992  29.128  38.438   9.153
 5626POPC   GL110993  29.150  38.476   8.853
 5626POPC   GL210994  29.246  38.518   8.853
 5626POPC   C1A10995  29.166  38.497   8.553
 5626POPC   D2A10996  29.188  38.497   8.253
 5626POPC   C3A10997  29.114  38.429   7.953
 5626POPC   C4A10998  29.123  38.464   7.653
 5626POPC   C1B10999  29.322  38.528   8.553
 5626POPC   C2B11000  29.396  38.594   8.253
 5626POPC   C3B11001  29.350  38.610   7.953
 5626POPC   C4B11002  29.370  38.564   7.653
 5627POPC   NC311003  30.688  15.991   9.453
 5627POPC   PO411004  30.705  15.984   9.153
 5627POPC   GL111005  30.693  15.919   8.853
 5627POPC   GL211006  30.717  15.852   8.853
 5627POPC   C1A11007  30.662  15.960   8.553
 5627POPC   D2A11008  30.692  15.995   8.253
 5627POPC   C3A11009  30.734  15.995   7.953
 5627POPC   C4A11010  30.707  16.002   7.653
 5627POPC   C1B11011  30.689  15.744   8.553
 5627POPC   C2B11012  30.675  15.752   8.253
 5627POPC   C3B11013  30.701  15.662   7.953
 5627POPC   C4B11014  30.659  15.689   7.653
 5628POPC   NC311015  25.263  41.603   9.453
 5628POPC   PO411016  25.228  41.587   9.153
 5628POPC   GL111017  25.266  41.607   8.853
 5628POPC   GL211018  25.345  41.440   8.853
 5628POPC   C1A11019  25.307  41.558   8.553
 5628POPC   D2A11020  25.234  41.565   8.253
 5628POPC   C3A11021  25.236  41.532   7.953
 5628POPC   C4A11022  25.259  41.554   7.653
 5628POPC   C1B11023  25.412  41.393   8.553
 5628POPC   C2B11024  25.454  41.409   8.253
 5628POPC   C3B11025  25.421  41.413   7.953
 5628POPC   C4B11026  25.481  41.432   7.653
 5629POPC   NC311027  26.076  35.373   9.453
 5629POPC   PO411028  26.028  35.399   9.153
 5629POPC   GL111029  26.040  35.395   8.853
 5629POPC   GL211030  25.954  35.371   8.853
 5629POPC   C1A11031  26.078  35.389   8.553
 5629POPC   D2A11032  26.070  35.399   8.253
 5629POPC   C3A11033  26.004  35.311   7.953
 5629POPC   C4A11034  26.069  35.360   7.653
 5629POPC   C1B11035  25.864  35.491   8.553
 5629POPC   C2B11036  25.865  35.529   8.253
 5629POPC   C3B11037  25.840  35.527   7.953
 5629POPC   C4B11038  25.810  35.522   7.653
 5630POPC   NC311039  22.185   2.808   9.453
 5630POPC   PO411040  22.196   2.775   9.153
 5630POPC   GL111041  22.207   2.747   8.853
 5630POPC   GL211042  22.052   2.796   8.853
 5630POPC   C1A11043  22.119   2.771   8.553
 5630POPC   D2A11044  22.175   2.775   8.253
 5630POPC   C3A11045  22.118   2.775   7.953
 5630POPC   C4A11046  22.187   2.726   7.653
 5630POPC   C1B11047  21.897   2.693   8.553
 5630POPC   C2B11048  21.902   2.785   8.253
 5630POPC   C3B11049  21.904   2.738   7.953
 5630POPC   C4B11050  21.867   2.761   7.653
 5631POPC   NC311051  43.094  29.952   9.453
 5631POPC   PO411052  43.151  29.890   9.153
 5631POPC   GL111053  43.133  29.886   8.853
 5631POPC   GL211054  42.976  29.958   8.853
 5631POPC   C1A11055  43.148  29.893   8.553
 5631POPC   D2A11056  43.065  29.962   8.253
 5631POPC   C3A11057  43.078  29.965   7.953
 5631POPC   C4A11058  43.104  29.963   7.653
 5631POPC   C1B11059  42.900  30.023   8.553
 5631POPC   C2B11060  42.884  29.986   8.253
 5631POPC   C3B11061  42.831  29.964   7.953
 5631POPC   C4B11062  42.906  30.001   7.653
 5632POPC   NC311063  10.511  42.291   9.453
 5632POPC   PO411064  10.547  42.374   9.153
 5632POPC   GL111065  10.523  42.361   8.853
 5632POPC   GL211066  10.351  42.358   8.853
 5632POPC   C1A11067  10.528  42.382   8.553
 5632POPC   D2A11068  10.504  42.349   8.253
 5632POPC   C3A11069  10.516  42.310   7.953
 5632POPC   C4A11070  10.490  42.373   7.653
 5632POPC   C1B11071  10.230  42.327   8.553
 5632POPC   C2B11072  10.234  42.346   8.253
 5632POPC   C3B11073  10.231  42.341   7.953
 5632POPC   C4B11074  10.324  42.336   7.653
 5633POPC   NC311075  26.840  18.329   9.453
 5633POPC   PO411076  26.821  18.260   9.153
 5633POPC   GL111077  26.835  18.242   8.853
 5633POPC   GL211078  26.811  18.179   8.853
 5633POPC   C1A11079  26.797  18.273   8.553
 5633POPC   D2A11080  26.778  18.290   8.253
 5633POPC   C3A11081  26.858  18.258   7.953
 5633POPC   C4A11082  26.819  18.255   7.653
 5633POPC   C1B11083  26.882  18.018   8.553
 5633POPC   C2B11084  26.864  18.014   8.253
 5633POPC   C3B11085  26.797  18.014   7.953
 5633POPC   C4B11086  26.867  18.067   7.653
 5634POPC   NC311087   2.804   3.586   9.453
 5634POPC   PO411088   2.807   3.582   9.153
 5634POPC   GL111089   2.731   3.563   8.853
 5634POPC   GL211090   2.619   3.493   8.853
 5634POPC   C1A11091   2.789   3.546   8.553
 5634POPC   D2A11092   2.775   3.578   8.253
 5634POPC   C3A11093   2.775   3.498   7.953
 5634POPC   C4A11094   2.801   3.512   7.653
 5634POPC   C1B11095   2.512   3.380   8.553
 5634POPC   C2B11096   2.577   3.438   8.253
 5634POPC   C3B11097   2.578   3.408   7.953
 5634POPC   C4B11098   2.506   3.381   7.653
 5635POPC   NC311099   6.614  26.840   9.453
 5635POPC   PO411100   6.623  26.862   9.153
 5635POPC   GL111101   6.661  26.797   8.853
 5635POPC   GL211102   6.548  26.943   8.853
 5635POPC   C1A11103   6.680  26.832   8.553
 5635POPC   D2A11104   6.663  26.828   8.253
 5635POPC   C3A11105   6.669  26.812   7.953
 5635POPC   C4A11106   6.621  26.779   7.653
 5635POPC   C1B11107   6.570  27.005   8.553
 5635POPC   C2B11108   6.535  27.000   8.253
 5635POPC   C3B11109   6.511  27.020   7.953
 5635POPC   C4B11110   6.548  27.089   7.653
 5636POPC   NC311111  36.946   0.401   9.453
 5636POPC   PO411112  36.899   0.414   9.153
 5636POPC   GL111113  36.883   0.472   8.853
 5636POPC   GL211114  36.784   0.442   8.853
 5636POPC   C1A11115  36.886   0.423   8.553
 5636POPC   D2A11116  36.942   0.399   8.253
 5636POPC   C3A11117  36.868   0.444   7.953
 5636POPC   C4A11118  36.886   0.478   7.653
 5636POPC   C1B11119  36.610   0.348   8.553
 5636POPC   C2B11120  36.630   0.379   8.253
 5636POPC   C3B11121  36.687   0.381   7.953
 5636POPC   C4B11122  36.621   0.389   7.653
 5637POPC   NC311123   1.252  20.640   9.453
 5637POPC   PO411124   1.219  20.643   9.153
 5637POPC   GL111125   1.200  20.581   8.853
 5637POPC   GL211126   1.187  20.451   8.853
 5637POPC   C1A11127   1.201  20.577   8.553
 5637POPC   D2A11128   1.174  20.591   8.253
 5637POPC   C3A11129   1.178  20.624   7.953
 5637POPC   C4A11130   1.224  20.625   7.653
 5637POPC   C1B11131   1.088  20.392   8.553
 5637POPC   C2B11132   1.113  20.369   8.253
 5637POPC   C3B11133   1.097  20.349   7.953
 5637POPC   C4B11134   1.134  20.339   7.653
 5638POPC   NC311135  12.836  18.235   9.453
 5638POPC   PO411136  12.811  18.304   9.153
 5638POPC   GL111137  12.870  18.324   8.853
 5638POPC   GL211138  12.958  18.273   8.853
 5638POPC   C1A11139  12.901  18.271   8.553
 5638POPC   D2A11140  12.834  18.295   8.253
 5638POPC   C3A11141  12.831  18.315   7.953
 5638POPC   C4A11142  12.893  18.258   7.653
 5638POPC   C1B11143  13.133  18.205   8.553
 5638POPC   C2B11144  13.104  18.230   8.253
 5638POPC   C3B11145  13.061  18.220   7.953
 5638POPC   C4B11146  13.078  18.244   7.653
 5639POPC   NC311147   8.236  19.796   9.453
 5639POPC   PO411148   8.203  19.810   9.153
 5639POPC   GL111149   8.198  19.828   8.853
 5639POPC   GL211150   8.111  19.722   8.853
 5639POPC   C1A11151   8.246  19.873   8.553
 5639POPC   D2A11152   8.228  19.816   8.253
 5639POPC   C3A11153   8.165  19.810   7.953
 5639POPC   C4A11154   8.160  19.816   7.653
 5639POPC   C1B11155   8.032  19.646   8.553
 5639POPC   C2B11156   8.105  19.614   8.253
 5639POPC   C3B11157   8.031  19.609   7.953
 5639POPC   C4B11158   8.042  19.614   7.653
 5640POPC   NC311159  19.092  12.857   9.453
 5640POPC   PO411160  19.040  12.815   9.153
 5640POPC   GL111161  19.107  12.830   8.853
 5640POPC   GL211162  19.145  12.897   8.853
 5640POPC   C1A11163  19.061  12.808   8.553
 5640POPC   D2A11164  19.095  12.901   8.253
 5640POPC   C3A11165  19.075  12.832   7.953
 5640POPC   C4A11166  19.097  12.818   7.653
 5640POPC   C1B11167  19.352  12.866   8.553
 5640POPC   C2B11168  19.290  12.821   8.253
 5640POPC   C3B11169  19.353  12.826   7.953
 5640POPC   C4B11170  19.326  12.834   7.653
 5641POPC   NC311171  28.340   0.460   9.453
 5641POPC   PO411172  28.418   0.478   9.153
 5641POPC   GL111173  28.378   0.480   8.853
 5641POPC   GL211174  28.340   0.529   8.853
 5641POPC   C1A11175  28.410   0.480   8.553
 5641POPC   D2A11176  28.319   0.402   8.253
 5641POPC   C3A11177  28.334   0.470   7.953
 5641POPC   C4A11178  28.370   0.413   7.653
 5641POPC   C1B11179  28.189   0.647   8.553
 5641POPC   C2B11180  28.253   0.626   8.253
 5641POPC   C3B11181  28.177   0.660   7.953
 5641POPC   C4B11182  28.231   0.596   7.653
 5642POPC   NC311183  22.933   7.425   9.453
 5642POPC   PO411184  22.981   7.459   9.153
 5642POPC   GL111185  22.935   7.387   8.853
 5642POPC   GL211186  23.051   7.310   8.853
 5642POPC   C1A11187  22.949   7.385   8.553
 5642POPC   D2A11188  22.973   7.437   8.253
 5642POPC   C3A11189  22.960   7.401   7.953
 5642POPC   C4A11190  22.894   7.384   7.653
 5642POPC   C1B11191  23.102   7.310   8.553
 5642POPC   C2B11192  23.146   7.246   8.253
 5642POPC   C3B11193  23.174   7.295   7.953
 5642POPC   C4B11194  23.148   7.339   7.653
 5643POPC   NC311195   8.209  36.942   9.453
 5643POPC   PO411196   8.198  36.947   9.153
 5643POPC   GL111197   8.242  36.915   8.853
 5643POPC   GL211198   8.201  37.028   8.853
 5643POPC   C1A11199   8.167  36.907   8.553
 5643POPC   D2A11200   8.187  36.938   8.253
 5643POPC   C3A11201   8.199  36.951   7.953
 5643POPC   C4A11202   8.176  36.951   7.653
 5643POPC   C1B11203   8.196  37.103   8.553
 5643POPC   C2B11204   8.220  37.137   8.253
 5643POPC   C3B11205   8.270  37.116   7.953
 5643POPC   C4B11206   8.187  37.124   7.653
 5644POPC   NC311207   5.860  33.842   9.453
 5644POPC   PO411208   5.853  33.845   9.153
 5644POPC   GL111209   5.837  33.803   8.853
 5644POPC   GL211210   5.758  33.817   8.853
 5644POPC   C1A11211   5.885  33.786   8.553
 5644POPC   D2A11212   5.900  33.781   8.253
 5644POPC   C3A11213   5.830  33.828   7.953
 5644POPC   C4A11214   5.856  33.759   7.653
 5644POPC   C1B11215   5.599  33.736   8.553
 5644POPC   C2B11216   5.638  33.719   8.253
 5644POPC   C3B11217   5.625  33.733   7.953
 5644POPC   C4B11218   5.619  33.747   7.653
 5645POPC   NC311219   0.467  36.906   9.453
 5645POPC   PO411220   0.406  36.877   9.153
 5645POPC   GL111221   0.408  36.885   8.853
 5645POPC   GL211222   0.309  36.889   8.853
 5645POPC   C1A11223   0.487  36.867   8.553
 5645POPC   D2A11224   0.411  36.910   8.253
 5645POPC   C3A11225   0.429  36.945   7.953
 5645POPC   C4A11226   0.429  36.931   7.653
 5645POPC   C1B11227   0.162  36.944   8.553
 5645POPC   C2B11228   0.148  36.961   8.253
 5645POPC   C3B11229   0.188  37.006   7.953
 5645POPC   C4B11230   0.195  36.940   7.653
 5646POPC   NC311231  22.134  13.631   9.453
 5646POPC   PO411232  22.135  13.611   9.153
 5646POPC   GL111233  22.179  13.603   8.853
 5646POPC   GL211234  22.236  13.635   8.853
 5646POPC   C1A11235  22.147  13.617   8.553
 5646POPC   D2A11236  22.188  13.647   8.253
 5646POPC   C3A11237  22.205  13.627   7.953
 5646POPC   C4A11238  22.127  13.642   7.653
 5646POPC   C1B11239  22.431  13.625   8.553
 5646POPC   C2B11240  22.422  13.581   8.253
 5646POPC   C3B11241  22.432  13.606   7.953
 5646POPC   C4B11242  22.424  13.603   7.653
 5647POPC   NC311243   4.280   2.780   9.453
 5647POPC   PO411244   4.318   2.794   9.153
 5647POPC   GL111245   4.364   2.796   8.853
 5647POPC   GL211246   4.172   2.815   8.853
 5647POPC   C1A11247   4.315   2.788   8.553
 5647POPC   D2A11248   4.364   2.783   8.253
 5647POPC   C3A11249   4.322   2.720   7.953
 5647POPC   C4A11250   4.363   2.770   7.653
 5647POPC   C1B11251   4.087   2.897   8.553
 5647POPC   C2B11252   4.092   2.893   8.253
 5647POPC   C3B11253   4.077   2.890   7.953
 5647POPC   C4B11254   4.037   2.855   7.653
 5648POPC   NC311255  43.140  10.527   9.453
 5648POPC   PO411256  43.076  10.476   9.153
 5648POPC   GL111257  43.082  10.488   8.853
 5648POPC   GL211258  43.084  10.580   8.853
 5648POPC   C1A11259  43.131  10.537   8.553
 5648POPC   D2A11260  43.128  10.539   8.253
 5648POPC   C3A11261  43.149  10.489   7.953
 5648POPC   C4A11262  43.084  10.560   7.653
 5648POPC   C1B11263  42.914  10.768   8.553
 5648POPC   C2B11264  42.920  10.761   8.253
 5648POPC   C3B11265  42.956  10.747   7.953
 5648POPC   C4B11266  43.001  10.702   7.653
 5649POPC   NC311267  25.268  35.350   9.453
 5649POPC   PO411268  25.263  35.382   9.153
 5649POPC   GL111269  25.305  35.362   8.853
 5649POPC   GL211270  25.186  35.455   8.853
 5649POPC   C1A11271  25.302  35.331   8.553
 5649POPC   D2A11272  25.268  35.346   8.253
 5649POPC   C3A11273  25.302  35.305   7.953
 5649POPC   C4A11274  25.262  35.379   7.653
 5649POPC   C1B11275  25.181  35.543   8.553
 5649POPC   C2B11276  25.189  35.595   8.253
 5649POPC   C3B11277  25.104  35.602   7.953
 5649POPC   C4B11278  25.155  35.563   7.653
 5650POPC   NC311279  15.204  42.332   9.453
 5650POPC   PO411280  15.175  42.312   9.153
 5650POPC   GL111281  15.132  42.356   8.853
 5650POPC   GL211282  15.016  42.340   8.853
 5650POPC   C1A11283  15.139  42.378   8.553
 5650POPC   D2A11284  15.192  42.370   8.253
 5650POPC   C3A11285  15.153  42.358   7.953
 5650POPC   C4A11286  15.151  42.306   7.653
 5650POPC   C1B11287  14.959  42.459   8.553
 5650POPC   C2B11288  14.914  42.400   8.253
 5650POPC   C3B11289  14.990  42.379   7.953
 5650POPC   C4B11290  14.974  42.383   7.653
 5651POPC   NC311291   6.663  41.530   9.453
 5651POPC   PO411292   6.683  41.569   9.153
 5651POPC   GL111293   6.679  41.567   8.853
 5651POPC   GL211294   6.644  41.397   8.853
 5651POPC   C1A11295   6.680  41.544   8.553
 5651POPC   D2A11296   6.636  41.521   8.253
 5651POPC   C3A11297   6.693  41.583   7.953
 5651POPC   C4A11298   6.613  41.606   7.653
 5651POPC   C1B11299   6.515  41.321   8.553
 5651POPC   C2B11300   6.586  41.354   8.253
 5651POPC   C3B11301   6.590  41.285   7.953
 5651POPC   C4B11302   6.564  41.353   7.653
 5652POPC   NC311303  40.787  24.526   9.453
 5652POPC   PO411304  40.824  24.453   9.153
 5652POPC   GL111305  40.792  24.491   8.853
 5652POPC   GL211306  40.846  24.396   8.853
 5652POPC   C1A11307  40.776  24.440   8.553
 5652POPC   D2A11308  40.760  24.530   8.253
 5652POPC   C3A11309  40.801  24.459   7.953
 5652POPC   C4A11310  40.829  24.526   7.653
 5652POPC   C1B11311  40.880  24.259   8.553
 5652POPC   C2B11312  40.869  24.285   8.253
 5652POPC   C3B11313  40.870  24.257   7.953
 5652POPC   C4B11314  40.895  24.212   7.653
 5653POPC   NC311315  21.388  44.645   9.453
 5653POPC   PO411316  21.423  44.655   9.153
 5653POPC   GL111317  21.386  44.657   8.853
 5653POPC   GL211318  21.307  44.587   8.853
 5653POPC   C1A11319  21.422  44.706   8.553
 5653POPC   D2A11320  21.337  44.712   8.253
 5653POPC   C3A11321  21.343  44.704   7.953
 5653POPC   C4A11322  21.379  44.638   7.653
 5653POPC   C1B11323  21.245  44.488   8.553
 5653POPC   C2B11324  21.272  44.425   8.253
 5653POPC   C3B11325  21.313  44.482   7.953
 5653POPC   C4B11326  21.297  44.476   7.653
 5654POPC   NC311327  15.932  10.566   9.453
 5654POPC   PO411328  15.954  10.565   9.153
 5654POPC   GL111329  15.920  10.563   8.853
 5654POPC   GL211330  15.882  10.519   8.853
 5654POPC   C1A11331  15.995  10.480   8.553
 5654POPC   D2A11332  15.908  10.559   8.253
 5654POPC   C3A11333  15.934  10.503   7.953
 5654POPC   C4A11334  15.913  10.554   7.653
 5654POPC   C1B11335  15.735  10.429   8.553
 5654POPC   C2B11336  15.735  10.457   8.253
 5654POPC   C3B11337  15.702  10.455   7.953
 5654POPC   C4B11338  15.672  10.482   7.653
 5655POPC   NC311339  20.644  16.773   9.453
 5655POPC   PO411340  20.592  16.696   9.153
 5655POPC   GL111341  20.634  16.780   8.853
 5655POPC   GL211342  20.487  16.708   8.853
 5655POPC   C1A11343  20.631  16.703   8.553
 5655POPC   D2A11344  20.648  16.693   8.253
 5655POPC   C3A11345  20.636  16.770   7.953
 5655POPC   C4A11346  20.574  16.694   7.653
 5655POPC   C1B11347  20.396  16.661   8.553
 5655POPC   C2B11348  20.402  16.646   8.253
 5655POPC   C3B11349  20.423  16.644   7.953
 5655POPC   C4B11350  20.341  16.644   7.653
 5656POPC   NC311351  39.228  40.758   9.453
 5656POPC   PO411352  39.187  40.798   9.153
 5656POPC   GL111353  39.214  40.805   8.853
 5656POPC   GL211354  39.342  40.783   8.853
 5656POPC   C1A11355  39.264  40.773   8.553
 5656POPC   D2A11356  39.234  40.788   8.253
 5656POPC   C3A11357  39.251  40.746   7.953
 5656POPC   C4A11358  39.190  40.799   7.653
 5656POPC   C1B11359  39.478  40.727   8.553
 5656POPC   C2B11360  39.503  40.722   8.253
 5656POPC   C3B11361  39.420  40.637   7.953
 5656POPC   C4B11362  39.453  40.732   7.653
 5657POPC   NC311363  29.133  15.963   9.453
 5657POPC   PO411364  29.173  15.962   9.153
 5657POPC   GL111365  29.154  15.954   8.853
 5657POPC   GL211366  29.267  15.961   8.853
 5657POPC   C1A11367  29.138  15.918   8.553
 5657POPC   D2A11368  29.160  15.965   8.253
 5657POPC   C3A11369  29.116  15.932   7.953
 5657POPC   C4A11370  29.164  15.982   7.653
 5657POPC   C1B11371  29.419  15.927   8.553
 5657POPC   C2B11372  29.371  16.010   8.253
 5657POPC   C3B11373  29.414  15.987   7.953
 5657POPC   C4B11374  29.389  16.023   7.653
 5658POPC   NC311375   8.977  32.229   9.453
 5658POPC   PO411376   8.944  32.274   9.153
 5658POPC   GL111377   8.939  32.246   8.853
 5658POPC   GL211378   8.849  32.181   8.853
 5658POPC   C1A11379   8.982  32.246   8.553
 5658POPC   D2A11380   8.952  32.199   8.253
 5658POPC   C3A11381   8.934  32.297   7.953
 5658POPC   C4A11382   8.925  32.283   7.653
 5658POPC   C1B11383   8.763  32.122   8.553
 5658POPC   C2B11384   8.727  32.128   8.253
 5658POPC   C3B11385   8.715  32.176   7.953
 5658POPC   C4B11386   8.748  32.130   7.653
 5659POPC   NC311387   5.125  15.955   9.453
 5659POPC   PO411388   5.110  15.982   9.153
 5659POPC   GL111389   5.089  15.944   8.853
 5659POPC   GL211390   5.213  16.031   8.853
 5659POPC   C1A11391   5.073  15.983   8.553
 5659POPC   D2A11392   5.136  15.978   8.253
 5659POPC   C3A11393   5.141  15.965   7.953
 5659POPC   C4A11394   5.142  15.938   7.653
 5659POPC   C1B11395   5.290  16.045   8.553
 5659POPC   C2B11396   5.293  16.082   8.253
 5659POPC   C3B11397   5.367  16.104   7.953
 5659POPC   C4B11398   5.362  16.100   7.653
 5660POPC   NC311399  11.326   9.732   9.453
 5660POPC   PO411400  11.252   9.720   9.153
 5660POPC   GL111401  11.253   9.726   8.853
 5660POPC   GL211402  11.339   9.603   8.853
 5660POPC   C1A11403  11.291   9.709   8.553
 5660POPC   D2A11404  11.267   9.760   8.253
 5660POPC   C3A11405  11.348   9.798   7.953
 5660POPC   C4A11406  11.308   9.732   7.653
 5660POPC   C1B11407  11.381   9.502   8.553
 5660POPC   C2B11408  11.378   9.536   8.253
 5660POPC   C3B11409  11.358   9.537   7.953
 5660POPC   C4B11410  11.312   9.504   7.653
 5661POPC   NC311411  44.681  11.300   9.453
 5661POPC   PO411412  44.618  11.319   9.153
 5661POPC   GL111413  44.671  11.256   8.853
 5661POPC   GL211414  44.798  11.282   8.853
 5661POPC   C1A11415  44.668  11.269   8.553
 5661POPC   D2A11416  44.640  11.315   8.253
 5661POPC   C3A11417  44.689  11.263   7.953
 5661POPC   C4A11418  44.619  11.267   7.653
 5661POPC   C1B11419  44.916  11.298   8.553
 5661POPC   C2B11420  44.952  11.264   8.253
 5661POPC   C3B11421  44.906  11.201   7.953
 5661POPC   C4B11422  44.912  11.278   7.653
 5662POPC   NC311423  42.316  11.340   9.453
 5662POPC   PO411424  42.287  11.302   9.153
 5662POPC   GL111425  42.321  11.252   8.853
 5662POPC   GL211426  42.339  11.145   8.853
 5662POPC   C1A11427  42.305  11.268   8.553
 5662POPC   D2A11428  42.336  11.283   8.253
 5662POPC   C3A11429  42.371  11.324   7.953
 5662POPC   C4A11430  42.363  11.325   7.653
 5662POPC   C1B11431  42.246  11.059   8.553
 5662POPC   C2B11432  42.223  11.027   8.253
 5662POPC   C3B11433  42.266  11.032   7.953
 5662POPC   C4B11434  42.226  11.016   7.653
 5663POPC   NC311435  42.372  22.939   9.453
 5663POPC   PO411436  42.314  22.939   9.153
 5663POPC   GL111437  42.290  22.923   8.853
 5663POPC   GL211438  42.246  22.864   8.853
 5663POPC   C1A11439  42.334  22.931   8.553
 5663POPC   D2A11440  42.338  22.963   8.253
 5663POPC   C3A11441  42.308  22.923   7.953
 5663POPC   C4A11442  42.315  22.974   7.653
 5663POPC   C1B11443  42.144  22.739   8.553
 5663POPC   C2B11444  42.141  22.781   8.253
 5663POPC   C3B11445  42.140  22.731   7.953
 5663POPC   C4B11446  42.157  22.762   7.653
 5664POPC   NC311447   9.710  11.264   9.453
 5664POPC   PO411448   9.761  11.254   9.153
 5664POPC   GL111449   9.706  11.312   8.853
 5664POPC   GL211450   9.632  11.203   8.853
 5664POPC   C1A11451   9.743  11.313   8.553
 5664POPC   D2A11452   9.703  11.266   8.253
 5664POPC   C3A11453   9.725  11.266   7.953
 5664POPC   C4A11454   9.746  11.347   7.653
 5664POPC   C1B11455   9.573  11.170   8.553
 5664POPC   C2B11456   9.515  11.188   8.253
 5664POPC   C3B11457   9.590  11.180   7.953
 5664POPC   C4B11458   9.520  11.172   7.653
 5665POPC   NC311459  10.540  43.929   9.453
 5665POPC   PO411460  10.527  43.893   9.153
 5665POPC   GL111461  10.540  43.887   8.853
 5665POPC   GL211462  10.401  43.887   8.853
 5665POPC   C1A11463  10.525  43.918   8.553
 5665POPC   D2A11464  10.480  43.851   8.253
 5665POPC   C3A11465  10.489  43.868   7.953
 5665POPC   C4A11466  10.520  43.906   7.653
 5665POPC   C1B11467  10.273  43.820   8.553
 5665POPC   C2B11468  10.259  43.775   8.253
 5665POPC   C3B11469  10.325  43.755   7.953
 5665POPC   C4B11470  10.297  43.747   7.653
 5666POPC   NC311471  31.447  23.716   9.453
 5666POPC   PO411472  31.424  23.756   9.153
 5666POPC   GL111473  31.463  23.707   8.853
 5666POPC   GL211474  31.517  23.654   8.853
 5666POPC   C1A11475  31.468  23.747   8.553
 5666POPC   D2A11476  31.498  23.689   8.253
 5666POPC   C3A11477  31.502  23.669   7.953
 5666POPC   C4A11478  31.478  23.699   7.653
 5666POPC   C1B11479  31.684  23.493   8.553
 5666POPC   C2B11480  31.619  23.484   8.253
 5666POPC   C3B11481  31.677  23.535   7.953
 5666POPC   C4B11482  31.651  23.498   7.653
 5667POPC   NC311483  35.345  26.830   9.453
 5667POPC   PO411484  35.384  26.774   9.153
 5667POPC   GL111485  35.334  26.780   8.853
 5667POPC   GL211486  35.452  26.783   8.853
 5667POPC   C1A11487  35.342  26.855   8.553
 5667POPC   D2A11488  35.320  26.843   8.253
 5667POPC   C3A11489  35.362  26.782   7.953
 5667POPC   C4A11490  35.362  26.772   7.653
 5667POPC   C1B11491  35.554  26.693   8.553
 5667POPC   C2B11492  35.581  26.752   8.253
 5667POPC   C3B11493  35.589  26.685   7.953
 5667POPC   C4B11494  35.588  26.739   7.653
 5668POPC   NC311495  29.155  31.513   9.453
 5668POPC   PO411496  29.149  31.451   9.153
 5668POPC   GL111497  29.131  31.484   8.853
 5668POPC   GL211498  29.280  31.463   8.853
 5668POPC   C1A11499  29.114  31.485   8.553
 5668POPC   D2A11500  29.117  31.461   8.253
 5668POPC   C3A11501  29.163  31.466   7.953
 5668POPC   C4A11502  29.179  31.506   7.653
 5668POPC   C1B11503  29.359  31.371   8.553
 5668POPC   C2B11504  29.422  31.359   8.253
 5668POPC   C3B11505  29.385  31.437   7.953
 5668POPC   C4B11506  29.337  31.393   7.653
 5669POPC   NC311507  44.638  23.739   9.453
 5669POPC   PO411508  44.675  23.695   9.153
 5669POPC   GL111509  44.684  23.708   8.853
 5669POPC   GL211510  44.765  23.848   8.853
 5669POPC   C1A11511  44.642  23.697   8.553
 5669POPC   D2A11512  44.652  23.721   8.253
 5669POPC   C3A11513  44.704  23.715   7.953
 5669POPC   C4A11514  44.645  23.667   7.653
 5669POPC   C1B11515  44.811  23.899   8.553
 5669POPC   C2B11516  44.828  23.944   8.253
 5669POPC   C3B11517  44.799  23.907   7.953
 5669POPC   C4B11518  44.834  23.939   7.653
 5670POPC   NC311519   5.859  40.020   9.453
 5670POPC   PO411520   5.828  39.959   9.153
 5670POPC   GL111521   5.894  39.983   8.853
 5670POPC   GL211522   5.904  39.927   8.853
 5670POPC   C1A11523   5.898  40.022   8.553
 5670POPC   D2A11524   5.826  39.977   8.253
 5670POPC   C3A11525   5.843  39.976   7.953
 5670POPC   C4A11526   5.827  40.035   7.653
 5670POPC   C1B11527   5.856  39.711   8.553
 5670POPC   C2B11528   5.884  39.778   8.253
 5670POPC   C3B11529   5.863  39.758   7.953
 5670POPC   C4B11530   5.909  39.722   7.653
 5671POPC   NC311531  25.288  23.710   9.453
 5671POPC   PO411532  25.251  23.745   9.153
 5671POPC   GL111533  25.292  23.741   8.853
 5671POPC   GL211534  25.140  23.756   8.853
 5671POPC   C1A11535  25.262  23.742   8.553
 5671POPC   D2A11536  25.290  23.678   8.253
 5671POPC   C3A11537  25.237  23.665   7.953
 5671POPC   C4A11538  25.301  23.762   7.653
 5671POPC   C1B11539  25.027  23.843   8.553
 5671POPC   C2B11540  25.016  23.808   8.253
 5671POPC   C3B11541  25.057  23.836   7.953
 5671POPC   C4B11542  25.093  23.858   7.653
 5672POPC   NC311543  27.631  44.699   9.453
 5672POPC   PO411544  27.595  44.686   9.153
 5672POPC   GL111545  27.577  44.663   8.853
 5672POPC   GL211546  27.528  44.571   8.853
 5672POPC   C1A11547  27.593  44.695   8.553
 5672POPC   D2A11548  27.614  44.634   8.253
 5672POPC   C3A11549  27.619  44.705   7.953
 5672POPC   C4A11550  27.593  44.621   7.653
 5672POPC   C1B11551  27.476  44.491   8.553
 5672POPC   C2B11552  27.418  44.483   8.253
 5672POPC   C3B11553  27.448  44.478   7.953
 5672POPC   C4B11554  27.418  44.428   7.653
 5673POPC   NC311555  38.470  28.360   9.453
 5673POPC   PO411556  38.476  28.394   9.153
 5673POPC   GL111557  38.430  28.362   8.853
 5673POPC   GL211558  38.356  28.429   8.853
 5673POPC   C1A11559  38.484  28.322   8.553
 5673POPC   D2A11560  38.495  28.396   8.253
 5673POPC   C3A11561  38.453  28.373   7.953
 5673POPC   C4A11562  38.488  28.350   7.653
 5673POPC   C1B11563  38.243  28.524   8.553
 5673POPC   C2B11564  38.235  28.583   8.253
 5673POPC   C3B11565  38.267  28.548   7.953
 5673POPC   C4B11566  38.237  28.524   7.653
 5674POPC   NC311567  17.496  18.267   9.453
 5674POPC   PO411568  17.551  18.284   9.153
 5674POPC   GL111569  17.549  18.305   8.853
 5674POPC   GL211570  17.507  18.414   8.853
 5674POPC   C1A11571  17.461  18.259   8.553
 5674POPC   D2A11572  17.461  18.268   8.253
 5674POPC   C3A11573  17.553  18.243   7.953
 5674POPC   C4A11574  17.463  18.331   7.653
 5674POPC   C1B11575  17.594  18.528   8.553
 5674POPC   C2B11576  17.579  18.523   8.253
 5674POPC   C3B11577  17.518  18.503   7.953
 5674POPC   C4B11578  17.574  18.528   7.653
 5675POPC   NC311579  29.918  39.243   9.453
 5675POPC   PO411580  29.882  39.182   9.153
 5675POPC   GL111581  29.959  39.199   8.853
 5675POPC   GL211582  29.756  39.211   8.853
 5675POPC   C1A11583  29.881  39.240   8.553
 5675POPC   D2A11584  29.942  39.214   8.253
 5675POPC   C3A11585  29.969  39.209   7.953
 5675POPC   C4A11586  29.889  39.231   7.653
 5675POPC   C1B11587  29.733  39.139   8.553
 5675POPC   C2B11588  29.663  39.132   8.253
 5675POPC   C3B11589  29.641  39.174   7.953
 5675POPC   C4B11590  29.690  39.138   7.653
 5676POPC   NC311591   5.120  16.778   9.453
 5676POPC   PO411592   5.099  16.747   9.153
 5676POPC   GL111593   5.093  16.688   8.853
 5676POPC   GL211594   4.969  16.665   8.853
 5676POPC   C1A11595   5.111  16.710   8.553
 5676POPC   D2A11596   5.049  16.744   8.253
 5676POPC   C3A11597   5.051  16.775   7.953
 5676POPC   C4A11598   5.111  16.739   7.653
 5676POPC   C1B11599   4.878  16.653   8.553
 5676POPC   C2B11600   4.893  16.633   8.253
 5676POPC   C3B11601   4.897  16.667   7.953
 5676POPC   C4B11602   4.852  16.710   7.653
 5677POPC   NC311603  12.068  22.925   9.453
 5677POPC   PO411604  12.095  22.895   9.153
 5677POPC   GL111605  12.029  22.969   8.853
 5677POPC   GL211606  11.964  22.841   8.853
 5677POPC   C1A11607  12.039  22.934   8.553
 5677POPC   D2A11608  12.112  22.963   8.253
 5677POPC   C3A11609  12.123  22.952   7.953
 5677POPC   C4A11610  12.116  22.976   7.653
 5677POPC   C1B11611  11.828  22.797   8.553
 5677POPC   C2B11612  11.892  22.868   8.253
 5677POPC   C3B11613  11.812  22.875   7.953
 5677POPC   C4B11614  11.878  22.841   7.653
 5678POPC   NC311615  23.718  11.283   9.453
 5678POPC   PO411616  23.696  11.314   9.153
 5678POPC   GL111617  23.740  11.304   8.853
 5678POPC   GL211618  23.783  11.359   8.853
 5678POPC   C1A11619  23.729  11.312   8.553
 5678POPC   D2A11620  23.670  11.312   8.253
 5678POPC   C3A11621  23.746  11.337   7.953
 5678POPC   C4A11622  23.666  11.272   7.653
 5678POPC   C1B11623  23.845  11.528   8.553
 5678POPC   C2B11624  23.854  11.500   8.253
 5678POPC   C3B11625  23.814  11.542   7.953
 5678POPC   C4B11626  23.799  11.475   7.653
 5679POPC   NC311627   1.216   6.641   9.453
 5679POPC   PO411628   1.245   6.675   9.153
 5679POPC   GL111629   1.219   6.599   8.853
 5679POPC   GL211630   1.126   6.631   8.853
 5679POPC   C1A11631   1.237   6.675   8.553
 5679POPC   D2A11632   1.176   6.613   8.253
 5679POPC   C3A11633   1.263   6.615   7.953
 5679POPC   C4A11634   1.195   6.621   7.653
 5679POPC   C1B11635   0.997   6.636   8.553
 5679POPC   C2B11636   0.950   6.632   8.253
 5679POPC   C3B11637   0.985   6.693   7.953
 5679POPC   C4B11638   0.926   6.615   7.653
 5680POPC   NC311639  26.066  16.728   9.453
 5680POPC   PO411640  26.068  16.744   9.153
 5680POPC   GL111641  26.031  16.750   8.853
 5680POPC   GL211642  26.174  16.803   8.853
 5680POPC   C1A11643  26.062  16.770   8.553
 5680POPC   D2A11644  26.015  16.781   8.253
 5680POPC   C3A11645  26.070  16.760   7.953
 5680POPC   C4A11646  25.994  16.690   7.653
 5680POPC   C1B11647  26.295  16.830   8.553
 5680POPC   C2B11648  26.255  16.886   8.253
 5680POPC   C3B11649  26.269  16.848   7.953
 5680POPC   C4B11650  26.220  16.894   7.653
 5681POPC   NC311651  11.306  20.649   9.453
 5681POPC   PO411652  11.278  20.607   9.153
 5681POPC   GL111653  11.328  20.617   8.853
 5681POPC   GL211654  11.341  20.762   8.853
 5681POPC   C1A11655  11.335  20.627   8.553
 5681POPC   D2A11656  11.330  20.638   8.253
 5681POPC   C3A11657  11.336  20.571   7.953
 5681POPC   C4A11658  11.268  20.578   7.653
 5681POPC   C1B11659  11.386  20.811   8.553
 5681POPC   C2B11660  11.417  20.877   8.253
 5681POPC   C3B11661  11.401  20.834   7.953
 5681POPC   C4B11662  11.333  20.885   7.653
 5682POPC   NC311663  11.286  26.073   9.453
 5682POPC   PO411664  11.324  26.078   9.153
 5682POPC   GL111665  11.281  26.079   8.853
 5682POPC   GL211666  11.259  26.119   8.853
 5682POPC   C1A11667  11.254  26.084   8.553
 5682POPC   D2A11668  11.299  26.067   8.253
 5682POPC   C3A11669  11.277  26.063   7.953
 5682POPC   C4A11670  11.328  26.060   7.653
 5682POPC   C1B11671  11.303  26.304   8.553
 5682POPC   C2B11672  11.309  26.273   8.253
 5682POPC   C3B11673  11.353  26.307   7.953
 5682POPC   C4B11674  11.286  26.302   7.653
 5683POPC   NC311675  40.739  28.385   9.453
 5683POPC   PO411676  40.750  28.402   9.153
 5683POPC   GL111677  40.775  28.365   8.853
 5683POPC   GL211678  40.804  28.451   8.853
 5683POPC   C1A11679  40.769  28.398   8.553
 5683POPC   D2A11680  40.812  28.343   8.253
 5683POPC   C3A11681  40.737  28.405   7.953
 5683POPC   C4A11682  40.798  28.410   7.653
 5683POPC   C1B11683  40.881  28.601   8.553
 5683POPC   C2B11684  40.864  28.613   8.253
 5683POPC   C3B11685  40.900  28.561   7.953
 5683POPC   C4B11686  40.817  28.581   7.653
 5684POPC   NC311687  44.647  32.250   9.453
 5684POPC   PO411688  44.631  32.274   9.153
 5684POPC   GL111689  44.628  32.208   8.853
 5684POPC   GL211690  44.713  32.362   8.853
 5684POPC   C1A11691  44.682  32.261   8.553
 5684POPC   D2A11692  44.632  32.268   8.253
 5684POPC   C3A11693  44.703  32.274   7.953
 5684POPC   C4A11694  44.672  32.213   7.653
 5684POPC   C1B11695  44.727  32.489   8.553
 5684POPC   C2B11696  44.687  32.491   8.253
 5684POPC   C3B11697  44.714  32.527   7.953
 5684POPC   C4B11698  44.693  32.493   7.653
 5685POPC   NC311699  19.100  33.013   9.453
 5685POPC   PO411700  19.048  33.066   9.153
 5685POPC   GL111701  19.013  33.020   8.853
 5685POPC   GL211702  19.178  32.892   8.853
 5685POPC   C1A11703  19.020  33.018   8.553
 5685POPC   D2A11704  19.012  32.988   8.253
 5685POPC   C3A11705  19.050  32.983   7.953
 5685POPC   C4A11706  19.101  33.007   7.653
 5685POPC   C1B11707  19.219  32.859   8.553
 5685POPC   C2B11708  19.170  32.829   8.253
 5685POPC   C3B11709  19.187  32.845   7.953
 5685POPC   C4B11710  19.207  32.862   7.653
 5686POPC   NC311711   7.374  29.889   9.453
 5686POPC   PO411712   7.465  29.924   9.153
 5686POPC   GL111713   7.432  29.915   8.853
 5686POPC   GL211714   7.387  30.036   8.853
 5686POPC   C1A11715   7.465  29.931   8.553
 5686POPC   D2A11716   7.424  29.920   8.253
 5686POPC   C3A11717   7.432  29.915   7.953
 5686POPC   C4A11718   7.403  29.964   7.653
 5686POPC   C1B11719   7.375  30.147   8.553
 5686POPC   C2B11720   7.417  30.129   8.253
 5686POPC   C3B11721   7.431  30.187   7.953
 5686POPC   C4B11722   7.389  30.140   7.653
 5687POPC   NC311723   5.900  22.140   9.453
 5687POPC   PO411724   5.911  22.144   9.153
 5687POPC   GL111725   5.875  22.177   8.853
 5687POPC   GL211726   5.935  22.074   8.853
 5687POPC   C1A11727   5.842  22.140   8.553
 5687POPC   D2A11728   5.865  22.184   8.253
 5687POPC   C3A11729   5.882  22.211   7.953
 5687POPC   C4A11730   5.834  22.162   7.653
 5687POPC   C1B11731   6.014  21.970   8.553
 5687POPC   C2B11732   6.049  21.963   8.253
 5687POPC   C3B11733   6.042  21.949   7.953
 5687POPC   C4B11734   6.056  22.019   7.653
 5688POPC   NC311735  39.271  22.925   9.453
 5688POPC   PO411736  39.229  22.900   9.153
 5688POPC   GL111737  39.188  22.919   8.853
 5688POPC   GL211738  39.129  22.860   8.853
 5688POPC   C1A11739  39.237  22.965   8.553
 5688POPC   D2A11740  39.199  22.952   8.253
 5688POPC   C3A11741  39.267  22.895   7.953
 5688POPC   C4A11742  39.193  22.934   7.653
 5688POPC   C1B11743  39.026  22.840   8.553
 5688POPC   C2B11744  38.992  22.875   8.253
 5688POPC   C3B11745  38.962  22.877   7.953
 5688POPC   C4B11746  38.954  22.884   7.653
 5689POPC   NC311747  40.016  38.407   9.453
 5689POPC   PO411748  39.957  38.457   9.153
 5689POPC   GL111749  39.963  38.445   8.853
 5689POPC   GL211750  39.928  38.606   8.853
 5689POPC   C1A11751  39.986  38.430   8.553
 5689POPC   D2A11752  40.041  38.455   8.253
 5689POPC   C3A11753  40.003  38.459   7.953
 5689POPC   C4A11754  40.026  38.456   7.653
 5689POPC   C1B11755  39.842  38.647   8.553
 5689POPC   C2B11756  39.850  38.621   8.253
 5689POPC   C3B11757  39.889  38.702   7.953
 5689POPC   C4B11758  39.902  38.655   7.653
 5690POPC   NC311759  36.122  35.331   9.453
 5690POPC   PO411760  36.099  35.359   9.153
 5690POPC   GL111761  36.090  35.316   8.853
 5690POPC   GL211762  36.092  35.199   8.853
 5690POPC   C1A11763  36.091  35.333   8.553
 5690POPC   D2A11764  36.104  35.303   8.253
 5690POPC   C3A11765  36.147  35.366   7.953
 5690POPC   C4A11766  36.171  35.311   7.653
 5690POPC   C1B11767  35.994  35.087   8.553
 5690POPC   C2B11768  36.000  35.128   8.253
 5690POPC   C3B11769  36.056  35.086   7.953
 5690POPC   C4B11770  35.986  35.141   7.653
 5691POPC   NC311771   0.390   5.832   9.453
 5691POPC   PO411772   0.401   5.836   9.153
 5691POPC   GL111773   0.454   5.839   8.853
 5691POPC   GL211774   0.555   5.850   8.853
 5691POPC   C1A11775   0.474   5.831   8.553
 5691POPC   D2A11776   0.473   5.841   8.253
 5691POPC   C3A11777   0.459   5.917   7.953
 5691POPC   C4A11778   0.431   5.862   7.653
 5691POPC   C1B11779   0.658   5.887   8.553
 5691POPC   C2B11780   0.706   5.882   8.253
 5691POPC   C3B11781   0.659   5.888   7.953
 5691POPC   C4B11782   0.664   5.863   7.653
 5692POPC   NC311783   1.964   9.775   9.453
 5692POPC   PO411784   2.007   9.789   9.153
 5692POPC   GL111785   2.018   9.783   8.853
 5692POPC   GL211786   2.139   9.808   8.853
 5692POPC   C1A11787   1.975   9.773   8.553
 5692POPC   D2A11788   1.999   9.780   8.253
 5692POPC   C3A11789   1.974   9.798   7.953
 5692POPC   C4A11790   1.946   9.748   7.653
 5692POPC   C1B11791   2.204   9.830   8.553
 5692POPC   C2B11792   2.223   9.821   8.253
 5692POPC   C3B11793   2.257   9.829   7.953
 5692POPC   C4B11794   2.272   9.815   7.653
 5693POPC   NC311795  32.220  30.653   9.453
 5693POPC   PO411796  32.297  30.736   9.153
 5693POPC   GL111797  32.290  30.662   8.853
 5693POPC   GL211798  32.345  30.814   8.853
 5693POPC   C1A11799  32.293  30.693   8.553
 5693POPC   D2A11800  32.288  30.734   8.253
 5693POPC   C3A11801  32.223  30.676   7.953
 5693POPC   C4A11802  32.226  30.708   7.653
 5693POPC   C1B11803  32.440  30.811   8.553
 5693POPC   C2B11804  32.407  30.856   8.253
 5693POPC   C3B11805  32.445  30.859   7.953
 5693POPC   C4B11806  32.414  30.893   7.653
 5694POPC   NC311807  41.544  28.407   9.453
 5694POPC   PO411808  41.584  28.403   9.153
 5694POPC   GL111809  41.605  28.353   8.853
 5694POPC   GL211810  41.500  28.460   8.853
 5694POPC   C1A11811  41.592  28.385   8.553
 5694POPC   D2A11812  41.542  28.383   8.253
 5694POPC   C3A11813  41.546  28.321   7.953
 5694POPC   C4A11814  41.584  28.356   7.653
 5694POPC   C1B11815  41.354  28.555   8.553
 5694POPC   C2B11816  41.380  28.577   8.253
 5694POPC   C3B11817  41.367  28.563   7.953
 5694POPC   C4B11818  41.334  28.488   7.653
 5695POPC   NC311819  34.620   8.945   9.453
 5695POPC   PO411820  34.612   8.968   9.153
 5695POPC   GL111821  34.553   9.019   8.853
 5695POPC   GL211822  34.421   8.863   8.853
 5695POPC   C1A11823  34.584   8.923   8.553
 5695POPC   D2A11824  34.576   8.946   8.253
 5695POPC   C3A11825  34.588   8.925   7.953
 5695POPC   C4A11826  34.538   8.937   7.653
 5695POPC   C1B11827  34.409   8.826   8.553
 5695POPC   C2B11828  34.400   8.864   8.253
 5695POPC   C3B11829  34.375   8.827   7.953
 5695POPC   C4B11830  34.376   8.813   7.653
 5696POPC   NC311831  33.822  24.530   9.453
 5696POPC   PO411832  33.769  24.471   9.153
 5696POPC   GL111833  33.825  24.526   8.853
 5696POPC   GL211834  33.937  24.357   8.853
 5696POPC   C1A11835  33.781  24.450   8.553
 5696POPC   D2A11836  33.818  24.449   8.253
 5696POPC   C3A11837  33.848  24.469   7.953
 5696POPC   C4A11838  33.770  24.504   7.653
 5696POPC   C1B11839  33.932  24.322   8.553
 5696POPC   C2B11840  34.027  24.305   8.253
 5696POPC   C3B11841  33.982  24.301   7.953
 5696POPC   C4B11842  34.022  24.322   7.653
 5697POPC   NC311843  28.407  29.150   9.453
 5697POPC   PO411844  28.384  29.121   9.153
 5697POPC   GL111845  28.390  29.141   8.853
 5697POPC   GL211846  28.344  29.066   8.853
 5697POPC   C1A11847  28.362  29.120   8.553
 5697POPC   D2A11848  28.328  29.099   8.253
 5697POPC   C3A11849  28.377  29.194   7.953
 5697POPC   C4A11850  28.396  29.144   7.653
 5697POPC   C1B11851  28.239  28.958   8.553
 5697POPC   C2B11852  28.225  28.935   8.253
 5697POPC   C3B11853  28.223  28.922   7.953
 5697POPC   C4B11854  28.253  28.939   7.653
 5698POPC   NC311855  22.154  12.868   9.453
 5698POPC   PO411856  22.140  12.807   9.153
 5698POPC   GL111857  22.177  12.832   8.853
 5698POPC   GL211858  22.079  12.915   8.853
 5698POPC   C1A11859  22.156  12.880   8.553
 5698POPC   D2A11860  22.202  12.836   8.253
 5698POPC   C3A11861  22.126  12.843   7.953
 5698POPC   C4A11862  22.146  12.878   7.653
 5698POPC   C1B11863  21.970  12.996   8.553
 5698POPC   C2B11864  21.968  13.057   8.253
 5698POPC   C3B11865  22.018  12.978   7.953
 5698POPC   C4B11866  21.936  13.067   7.653
 5699POPC   NC311867  15.145  15.146   9.453
 5699POPC   PO411868  15.229  15.215   9.153
 5699POPC   GL111869  15.229  15.136   8.853
 5699POPC   GL211870  15.208  15.261   8.853
 5699POPC   C1A11871  15.192  15.175   8.553
 5699POPC   D2A11872  15.210  15.149   8.253
 5699POPC   C3A11873  15.148  15.152   7.953
 5699POPC   C4A11874  15.221  15.147   7.653
 5699POPC   C1B11875  15.356  15.418   8.553
 5699POPC   C2B11876  15.343  15.344   8.253
 5699POPC   C3B11877  15.323  15.442   7.953
 5699POPC   C4B11878  15.282  15.404   7.653
 5700POPC   NC311879  33.827  20.630   9.453
 5700POPC   PO411880  33.768  20.654   9.153
 5700POPC   GL111881  33.791  20.647   8.853
 5700POPC   GL211882  33.818  20.501   8.853
 5700POPC   C1A11883  33.847  20.586   8.553
 5700POPC   D2A11884  33.775  20.596   8.253
 5700POPC   C3A11885  33.762  20.569   7.953
 5700POPC   C4A11886  33.811  20.590   7.653
 5700POPC   C1B11887  33.855  20.351   8.553
 5700POPC   C2B11888  33.854  20.319   8.253
 5700POPC   C3B11889  33.824  20.323   7.953
 5700POPC   C4B11890  33.800  20.377   7.653
 5701POPC   NC311891   6.688  33.040   9.453
 5701POPC   PO411892   6.665  32.988   9.153
 5701POPC   GL111893   6.632  33.064   8.853
 5701POPC   GL211894   6.798  33.025   8.853
 5701POPC   C1A11895   6.643  33.038   8.553
 5701POPC   D2A11896   6.691  32.975   8.253
 5701POPC   C3A11897   6.644  32.987   7.953
 5701POPC   C4A11898   6.660  33.028   7.653
 5701POPC   C1B11899   6.885  32.962   8.553
 5701POPC   C2B11900   6.852  33.023   8.253
 5701POPC   C3B11901   6.884  32.965   7.953
 5701POPC   C4B11902   6.900  33.037   7.653
 5702POPC   NC311903  28.329  29.907   9.453
 5702POPC   PO411904  28.410  29.925   9.153
 5702POPC   GL111905  28.356  29.914   8.853
 5702POPC   GL211906  28.396  30.075   8.853
 5702POPC   C1A11907  28.387  29.875   8.553
 5702POPC   D2A11908  28.330  29.882   8.253
 5702POPC   C3A11909  28.394  29.969   7.953
 5702POPC   C4A11910  28.373  29.886   7.653
 5702POPC   C1B11911  28.337  30.141   8.553
 5702POPC   C2B11912  28.382  30.187   8.253
 5702POPC   C3B11913  28.345  30.197   7.953
 5702POPC   C4B11914  28.331  30.202   7.653
 5703POPC   NC311915  44.695  33.836   9.453
 5703POPC   PO411916  44.683  33.811   9.153
 5703POPC   GL111917  44.662  33.792   8.853
 5703POPC   GL211918  44.537  33.869   8.853
 5703POPC   C1A11919  44.650  33.813   8.553
 5703POPC   D2A11920  44.670  33.773   8.253
 5703POPC   C3A11921  44.622  33.767   7.953
 5703POPC   C4A11922  44.627  33.770   7.653
 5703POPC   C1B11923  44.468  33.921   8.553
 5703POPC   C2B11924  44.408  33.896   8.253
 5703POPC   C3B11925  44.426  33.926   7.953
 5703POPC   C4B11926  44.428  33.894   7.653
 5704POPC   NC311927  44.614  26.079   9.453
 5704POPC   PO411928  44.699  25.996   9.153
 5704POPC   GL111929  44.615  26.013   8.853
 5704POPC   GL211930  44.520  25.970   8.853
 5704POPC   C1A11931  44.643  25.996   8.553
 5704POPC   D2A11932  44.623  26.075   8.253
 5704POPC   C3A11933  44.708  26.069   7.953
 5704POPC   C4A11934  44.701  26.083   7.653
 5704POPC   C1B11935  44.453  25.949   8.553
 5704POPC   C2B11936  44.443  25.947   8.253
 5704POPC   C3B11937  44.448  25.910   7.953
 5704POPC   C4B11938  44.453  25.939   7.653
 5705POPC   NC311939  26.865  16.773   9.453
 5705POPC   PO411940  26.777  16.774   9.153
 5705POPC   GL111941  26.845  16.683   8.853
 5705POPC   GL211942  26.939  16.625   8.853
 5705POPC   C1A11943  26.775  16.758   8.553
 5705POPC   D2A11944  26.776  16.712   8.253
 5705POPC   C3A11945  26.800  16.691   7.953
 5705POPC   C4A11946  26.824  16.762   7.653
 5705POPC   C1B11947  27.042  16.652   8.553
 5705POPC   C2B11948  27.010  16.633   8.253
 5705POPC   C3B11949  27.075  16.610   7.953
 5705POPC   C4B11950  27.008  16.599   7.653
 5706POPC   NC311951  39.979  15.154   9.453
 5706POPC   PO411952  40.029  15.142   9.153
 5706POPC   GL111953  40.002  15.152   8.853
 5706POPC   GL211954  40.162  15.068   8.853
 5706POPC   C1A11955  39.981  15.139   8.553
 5706POPC   D2A11956  39.972  15.132   8.253
 5706POPC   C3A11957  39.990  15.189   7.953
 5706POPC   C4A11958  39.995  15.196   7.653
 5706POPC   C1B11959  40.211  15.007   8.553
 5706POPC   C2B11960  40.231  15.000   8.253
 5706POPC   C3B11961  40.204  15.044   7.953
 5706POPC   C4B11962  40.201  15.058   7.653
 5707POPC   NC311963  22.149   1.190   9.453
 5707POPC   PO411964  22.158   1.183   9.153
 5707POPC   GL111965  22.162   1.216   8.853
 5707POPC   GL211966  22.056   1.295   8.853
 5707POPC   C1A11967  22.195   1.207   8.553
 5707POPC   D2A11968  22.124   1.239   8.253
 5707POPC   C3A11969  22.149   1.202   7.953
 5707POPC   C4A11970  22.206   1.240   7.653
 5707POPC   C1B11971  21.997   1.354   8.553
 5707POPC   C2B11972  21.996   1.443   8.253
 5707POPC   C3B11973  22.021   1.426   7.953
 5707POPC   C4B11974  21.954   1.353   7.653
 5708POPC   NC311975  23.751  22.926   9.453
 5708POPC   PO411976  23.675  22.893   9.153
 5708POPC   GL111977  23.682  22.895   8.853
 5708POPC   GL211978  23.785  22.818   8.853
 5708POPC   C1A11979  23.753  22.925   8.553
 5708POPC   D2A11980  23.754  22.909   8.253
 5708POPC   C3A11981  23.688  22.930   7.953
 5708POPC   C4A11982  23.736  22.921   7.653
 5708POPC   C1B11983  23.771  22.682   8.553
 5708POPC   C2B11984  23.782  22.717   8.253
 5708POPC   C3B11985  23.735  22.651   7.953
 5708POPC   C4B11986  23.748  22.678   7.653
 5709POPC   NC311987  31.509   0.451   9.453
 5709POPC   PO411988  31.506   0.423   9.153
 5709POPC   GL111989  31.434   0.401   8.853
 5709POPC   GL211990  31.489   0.533   8.853
 5709POPC   C1A11991  31.445   0.464   8.553
 5709POPC   D2A11992  31.519   0.488   8.253
 5709POPC   C3A11993  31.456   0.432   7.953
 5709POPC   C4A11994  31.439   0.424   7.653
 5709POPC   C1B11995  31.467   0.678   8.553
 5709POPC   C2B11996  31.498   0.666   8.253
 5709POPC   C3B11997  31.495   0.647   7.953
 5709POPC   C4B11998  31.534   0.711   7.653
 5710POPC   NC311999  36.095  26.076   9.453
 5710POPC   PO412000  36.114  25.991   9.153
 5710POPC   GL112001  36.157  26.034   8.853
 5710POPC   GL212002  36.174  25.930   8.853
 5710POPC   C1A12003  36.147  26.068   8.553
 5710POPC   D2A12004  36.136  26.048   8.253
 5710POPC   C3A12005  36.133  26.074   7.953
 5710POPC   C4A12006  36.173  26.050   7.653
 5710POPC   C1B12007  36.137  25.830   8.553
 5710POPC   C2B12008  36.155  25.778   8.253
 5710POPC   C3B12009  36.175  25.757   7.953
 5710POPC   C4B12010  36.163  25.763   7.653
 5711POPC   NC312011   8.978  30.671   9.453
 5711POPC   PO412012   8.951  30.733   9.153
 5711POPC   GL112013   9.011  30.680   8.853
 5711POPC   GL212014   8.818  30.645   8.853
 5711POPC   C1A12015   8.974  30.724   8.553
 5711POPC   D2A12016   8.940  30.743   8.253
 5711POPC   C3A12017   8.941  30.680   7.953
 5711POPC   C4A12018   8.958  30.703   7.653
 5711POPC   C1B12019   8.801  30.594   8.553
 5711POPC   C2B12020   8.774  30.620   8.253
 5711POPC   C3B12021   8.765  30.535   7.953
 5711POPC   C4B12022   8.731  30.592   7.653
 5712POPC   NC312023  29.133  22.892   9.453
 5712POPC   PO412024  29.166  22.957   9.153
 5712POPC   GL112025  29.140  22.968   8.853
 5712POPC   GL212026  28.987  23.007   8.853
 5712POPC   C1A12027  29.157  22.965   8.553
 5712POPC   D2A12028  29.171  22.906   8.253
 5712POPC   C3A12029  29.153  22.891   7.953
 5712POPC   C4A12030  29.148  22.934   7.653
 5712POPC   C1B12031  28.877  23.008   8.553
 5712POPC   C2B12032  28.928  23.007   8.253
 5712POPC   C3B12033  28.913  23.049   7.953
 5712POPC   C4B12034  28.961  23.060   7.653
 5713POPC   NC312035  19.049   1.228   9.453
 5713POPC   PO412036  19.080   1.169   9.153
 5713POPC   GL112037  19.103   1.216   8.853
 5713POPC   GL212038  18.940   1.129   8.853
 5713POPC   C1A12039  19.053   1.199   8.553
 5713POPC   D2A12040  19.094   1.189   8.253
 5713POPC   C3A12041  19.052   1.189   7.953
 5713POPC   C4A12042  19.033   1.220   7.653
 5713POPC   C1B12043  18.795   1.121   8.553
 5713POPC   C2B12044  18.829   1.151   8.253
 5713POPC   C3B12045  18.861   1.085   7.953
 5713POPC   C4B12046  18.869   1.081   7.653
 5714POPC   NC312047  31.442  27.606   9.453
 5714POPC   PO412048  31.477  27.642   9.153
 5714POPC   GL112049  31.496  27.553   8.853
 5714POPC   GL212050  31.381  27.727   8.853
 5714POPC   C1A12051  31.481  27.638   8.553
 5714POPC   D2A12052  31.499  27.551   8.253
 5714POPC   C3A12053  31.485  27.556   7.953
 5714POPC   C4A12054  31.475  27.547   7.653
 5714POPC   C1B12055  31.353  27.779   8.553
 5714POPC   C2B12056  31.300  27.832   8.253
 5714POPC   C3B12057  31.308  27.842   7.953
 5714POPC   C4B12058  31.379  27.809   7.653
 5715POPC   NC312059   3.583  39.240   9.453
 5715POPC   PO412060   3.503  39.225   9.153
 5715POPC   GL112061   3.544  39.263   8.853
 5715POPC   GL212062   3.435  39.177   8.853
 5715POPC   C1A12063   3.544  39.232   8.553
 5715POPC   D2A12064   3.567  39.187   8.253
 5715POPC   C3A12065   3.543  39.200   7.953
 5715POPC   C4A12066   3.533  39.197   7.653
 5715POPC   C1B12067   3.314  39.043   8.553
 5715POPC   C2B12068   3.370  39.137   8.253
 5715POPC   C3B12069   3.338  39.095   7.953
 5715POPC   C4B12070   3.314  39.061   7.653
 5716POPC   NC312071  22.952  13.636   9.453
 5716POPC   PO412072  22.978  13.661   9.153
 5716POPC   GL112073  22.956  13.634   8.853
 5716POPC   GL212074  22.907  13.478   8.853
 5716POPC   C1A12075  22.980  13.609   8.553
 5716POPC   D2A12076  22.937  13.604   8.253
 5716POPC   C3A12077  22.905  13.591   7.953
 5716POPC   C4A12078  22.982  13.638   7.653
 5716POPC   C1B12079  22.972  13.341   8.553
 5716POPC   C2B12080  22.952  13.387   8.253
 5716POPC   C3B12081  22.889  13.357   7.953
 5716POPC   C4B12082  22.922  13.410   7.653
 5717POPC   NC312083  16.705   4.277   9.453
 5717POPC   PO412084  16.683   4.338   9.153
 5717POPC   GL112085  16.722   4.348   8.853
 5717POPC   GL212086  16.817   4.182   8.853
 5717POPC   C1A12087  16.692   4.323   8.553
 5717POPC   D2A12088  16.687   4.281   8.253
 5717POPC   C3A12089  16.733   4.320   7.953
 5717POPC   C4A12090  16.709   4.350   7.653
 5717POPC   C1B12091  16.824   4.075   8.553
 5717POPC   C2B12092  16.910   4.064   8.253
 5717POPC   C3B12093  16.887   4.108   7.953
 5717POPC   C4B12094  16.855   4.112   7.653
 5718POPC   NC312095  18.281  29.100   9.453
 5718POPC   PO412096  18.326  29.155   9.153
 5718POPC   GL112097  18.259  29.181   8.853
 5718POPC   GL212098  18.151  29.103   8.853
 5718POPC   C1A12099  18.319  29.177   8.553
 5718POPC   D2A12100  18.239  29.151   8.253
 5718POPC   C3A12101  18.327  29.191   7.953
 5718POPC   C4A12102  18.306  29.159   7.653
 5718POPC   C1B12103  18.120  29.027   8.553
 5718POPC   C2B12104  18.068  28.961   8.253
 5718POPC   C3B12105  18.112  28.968   7.953
 5718POPC   C4B12106  18.113  28.976   7.653
 5719POPC   NC312107   5.118   8.156   9.453
 5719POPC   PO412108   5.048   8.215   9.153
 5719POPC   GL112109   5.130   8.189   8.853
 5719POPC   GL212110   5.250   8.148   8.853
 5719POPC   C1A12111   5.098   8.182   8.553
 5719POPC   D2A12112   5.113   8.230   8.253
 5719POPC   C3A12113   5.141   8.215   7.953
 5719POPC   C4A12114   5.076   8.216   7.653
 5719POPC   C1B12115   5.287   8.037   8.553
 5719POPC   C2B12116   5.297   8.052   8.253
 5719POPC   C3B12117   5.320   8.023   7.953
 5719POPC   C4B12118   5.316   8.058   7.653
 5720POPC   NC312119  11.348  28.351   9.453
 5720POPC   PO412120  11.328  28.384   9.153
 5720POPC   GL112121  11.315  28.335   8.853
 5720POPC   GL212122  11.186  28.474   8.853
 5720POPC   C1A12123  11.253  28.378   8.553
 5720POPC   D2A12124  11.334  28.354   8.253
 5720POPC   C3A12125  11.256  28.364   7.953
 5720POPC   C4A12126  11.304  28.326   7.653
 5720POPC   C1B12127  11.106  28.457   8.553
 5720POPC   C2B12128  11.083  28.470   8.253
 5720POPC   C3B12129  11.115  28.516   7.953
 5720POPC   C4B12130  11.052  28.496   7.653
 5721POPC   NC312131  35.322  26.033   9.453
 5721POPC   PO412132  35.337  26.032   9.153
 5721POPC   GL112133  35.378  26.031   8.853
 5721POPC   GL212134  35.473  26.047   8.853
 5721POPC   C1A12135  35.359  26.043   8.553
 5721POPC   D2A12136  35.303  26.075   8.253
 5721POPC   C3A12137  35.358  26.006   7.953
 5721POPC   C4A12138  35.400  26.040   7.653
 5721POPC   C1B12139  35.617  26.177   8.553
 5721POPC   C2B12140  35.541  26.132   8.253
 5721POPC   C3B12141  35.628  26.120   7.953
 5721POPC   C4B12142  35.561  26.154   7.653
 5722POPC   NC312143   8.155  17.535   9.453
 5722POPC   PO412144   8.159  17.538   9.153
 5722POPC   GL112145   8.159  17.477   8.853
 5722POPC   GL212146   8.250  17.426   8.853
 5722POPC   C1A12147   8.154  17.514   8.553
 5722POPC   D2A12148   8.175  17.546   8.253
 5722POPC   C3A12149   8.147  17.545   7.953
 5722POPC   C4A12150   8.204  17.525   7.653
 5722POPC   C1B12151   8.216  17.222   8.553
 5722POPC   C2B12152   8.183  17.289   8.253
 5722POPC   C3B12153   8.243  17.250   7.953
 5722POPC   C4B12154   8.265  17.269   7.653
 5723POPC   NC312155   6.644  44.645   9.453
 5723POPC   PO412156   6.649  44.706   9.153
 5723POPC   GL112157   6.613  44.686   8.853
 5723POPC   GL212158   6.516  44.732   8.853
 5723POPC   C1A12159   6.614  44.708   8.553
 5723POPC   D2A12160   6.650  44.647   8.253
 5723POPC   C3A12161   6.606  44.624   7.953
 5723POPC   C4A12162   6.625  44.642   7.653
 5723POPC   C1B12163   6.388  44.800   8.553
 5723POPC   C2B12164   6.487  44.831   8.253
 5723POPC   C3B12165   6.433  44.836   7.953
 5723POPC   C4B12166   6.486  44.774   7.653
 5724POPC   NC312167  33.062   2.772   9.453
 5724POPC   PO412168  33.005   2.767   9.153
 5724POPC   GL112169  32.982   2.764   8.853
 5724POPC   GL212170  33.080   2.917   8.853
 5724POPC   C1A12171  32.984   2.792   8.553
 5724POPC   D2A12172  33.069   2.783   8.253
 5724POPC   C3A12173  32.978   2.751   7.953
 5724POPC   C4A12174  33.013   2.803   7.653
 5724POPC   C1B12175  33.191   2.947   8.553
 5724POPC   C2B12176  33.182   2.989   8.253
 5724POPC   C3B12177  33.150   2.959   7.953
 5724POPC   C4B12178  33.124   2.955   7.653
 5725POPC   NC312179   7.462  31.475   9.453
 5725POPC   PO412180   7.411  31.491   9.153
 5725POPC   GL112181   7.437  31.428   8.853
 5725POPC   GL212182   7.443  31.557   8.853
 5725POPC   C1A12183   7.440  31.519   8.553
 5725POPC   D2A12184   7.415  31.495   8.253
 5725POPC   C3A12185   7.424  31.511   7.953
 5725POPC   C4A12186   7.395  31.510   7.653
 5725POPC   C1B12187   7.502  31.718   8.553
 5725POPC   C2B12188   7.531  31.706   8.253
 5725POPC   C3B12189   7.527  31.708   7.953
 5725POPC   C4B12190   7.437  31.736   7.653
 5726POPC   NC312191  17.469  29.195   9.453
 5726POPC   PO412192  17.533  29.112   9.153
 5726POPC   GL112193  17.472  29.123   8.853
 5726POPC   GL212194  17.451  29.251   8.853
 5726POPC   C1A12195  17.540  29.123   8.553
 5726POPC   D2A12196  17.526  29.140   8.253
 5726POPC   C3A12197  17.480  29.174   7.953
 5726POPC   C4A12198  17.548  29.141   7.653
 5726POPC   C1B12199  17.324  29.377   8.553
 5726POPC   C2B12200  17.348  29.364   8.253
 5726POPC   C3B12201  17.339  29.335   7.953
 5726POPC   C4B12202  17.372  29.284   7.653
 5727POPC   NC312203  28.367  41.519   9.453
 5727POPC   PO412204  28.354  41.536   9.153
 5727POPC   GL112205  28.339  41.530   8.853
 5727POPC   GL212206  28.481  41.581   8.853
 5727POPC   C1A12207  28.366  41.576   8.553
 5727POPC   D2A12208  28.330  41.572   8.253
 5727POPC   C3A12209  28.372  41.567   7.953
 5727POPC   C4A12210  28.391  41.585   7.653
 5727POPC   C1B12211  28.636  41.516   8.553
 5727POPC   C2B12212  28.644  41.520   8.253
 5727POPC   C3B12213  28.647  41.524   7.953
 5727POPC   C4B12214  28.590  41.500   7.653
 5728POPC   NC312215  22.145  14.410   9.453
 5728POPC   PO412216  22.186  14.368   9.153
 5728POPC   GL112217  22.147  14.376   8.853
 5728POPC   GL212218  22.224  14.521   8.853
 5728POPC   C1A12219  22.189  14.445   8.553
 5728POPC   D2A12220  22.212  14.404   8.253
 5728POPC   C3A12221  22.122  14.389   7.953
 5728POPC   C4A12222  22.122  14.402   7.653
 5728POPC   C1B12223  22.206  14.633   8.553
 5728POPC   C2B12224  22.264  14.656   8.253
 5728POPC   C3B12225  22.251  14.598   7.953
 5728POPC   C4B12226  22.286  14.658   7.653
 5729POPC   NC312227   5.046   0.420   9.453
 5729POPC   PO412228   5.066   0.482   9.153
 5729POPC   GL112229   5.133   0.433   8.853
 5729POPC   GL212230   5.207   0.394   8.853
 5729POPC   C1A12231   5.049   0.392   8.553
 5729POPC   D2A12232   5.119   0.475   8.253
 5729POPC   C3A12233   5.127   0.445   7.953
 5729POPC   C4A12234   5.074   0.397   7.653
 5729POPC   C1B12235   5.267   0.265   8.553
 5729POPC   C2B12236   5.336   0.327   8.253
 5729POPC   C3B12237   5.340   0.339   7.953
 5729POPC   C4B12238   5.260   0.315   7.653
 5730POPC   NC312239  41.547  29.191   9.453
 5730POPC   PO412240  41.599  29.160   9.153
 5730POPC   GL112241  41.563  29.112   8.853
 5730POPC   GL212242  41.437  29.190   8.853
 5730POPC   C1A12243  41.533  29.195   8.553
 5730POPC   D2A12244  41.584  29.160   8.253
 5730POPC   C3A12245  41.529  29.115   7.953
 5730POPC   C4A12246  41.566  29.148   7.653
 5730POPC   C1B12247  41.311  29.230   8.553
 5730POPC   C2B12248  41.312  29.230   8.253
 5730POPC   C3B12249  41.324  29.215   7.953
 5730POPC   C4B12250  41.351  29.265   7.653
 5731POPC   NC312251  23.742  20.576   9.453
 5731POPC   PO412252  23.735  20.567   9.153
 5731POPC   GL112253  23.739  20.596   8.853
 5731POPC   GL212254  23.639  20.655   8.853
 5731POPC   C1A12255  23.745  20.596   8.553
 5731POPC   D2A12256  23.664  20.606   8.253
 5731POPC   C3A12257  23.685  20.636   7.953
 5731POPC   C4A12258  23.676  20.594   7.653
 5731POPC   C1B12259  23.556  20.762   8.553
 5731POPC   C2B12260  23.491  20.809   8.253
 5731POPC   C3B12261  23.588  20.829   7.953
 5731POPC   C4B12262  23.534  20.793   7.653
 5732POPC   NC312263   2.806  16.752   9.453
 5732POPC   PO412264   2.784  16.693   9.153
 5732POPC   GL112265   2.753  16.753   8.853
 5732POPC   GL212266   2.845  16.839   8.853
 5732POPC   C1A12267   2.738  16.685   8.553
 5732POPC   D2A12268   2.753  16.750   8.253
 5732POPC   C3A12269   2.807  16.745   7.953
 5732POPC   C4A12270   2.742  16.707   7.653
 5732POPC   C1B12271   2.836  16.947   8.553
 5732POPC   C2B12272   2.867  16.980   8.253
 5732POPC   C3B12273   2.881  16.967   7.953
 5732POPC   C4B12274   2.791  16.933   7.653
 5733POPC   NC312275  38.430  35.330   9.453
 5733POPC   PO412276  38.461  35.391   9.153
 5733POPC   GL112277  38.493  35.311   8.853
 5733POPC   GL212278  38.357  35.474   8.853
 5733POPC   C1A12279  38.436  35.303   8.553
 5733POPC   D2A12280  38.427  35.390   8.253
 5733POPC   C3A12281  38.498  35.351   7.953
 5733POPC   C4A12282  38.479  35.339   7.653
 5733POPC   C1B12283  38.343  35.508   8.553
 5733POPC   C2B12284  38.300  35.554   8.253
 5733POPC   C3B12285  38.324  35.508   7.953
 5733POPC   C4B12286  38.291  35.559   7.653
 5734POPC   NC312287   6.660   7.445   9.453
 5734POPC   PO412288   6.633   7.421   9.153
 5734POPC   GL112289   6.643   7.410   8.853
 5734POPC   GL212290   6.759   7.338   8.853
 5734POPC   C1A12291   6.664   7.449   8.553
 5734POPC   D2A12292   6.688   7.431   8.253
 5734POPC   C3A12293   6.609   7.387   7.953
 5734POPC   C4A12294   6.625   7.423   7.653
 5734POPC   C1B12295   6.883   7.301   8.553
 5734POPC   C2B12296   6.820   7.316   8.253
 5734POPC   C3B12297   6.881   7.322   7.953
 5734POPC   C4B12298   6.866   7.339   7.653
 5735POPC   NC312299  22.169   8.207   9.453
 5735POPC   PO412300  22.154   8.167   9.153
 5735POPC   GL112301  22.135   8.149   8.853
 5735POPC   GL212302  22.251   8.071   8.853
 5735POPC   C1A12303  22.192   8.246   8.553
 5735POPC   D2A12304  22.129   8.199   8.253
 5735POPC   C3A12305  22.142   8.239   7.953
 5735POPC   C4A12306  22.201   8.231   7.653
 5735POPC   C1B12307  22.291   8.038   8.553
 5735POPC   C2B12308  22.331   7.983   8.253
 5735POPC   C3B12309  22.338   8.035   7.953
 5735POPC   C4B12310  22.342   7.977   7.653
 5736POPC   NC312311  43.123   8.227   9.453
 5736POPC   PO412312  43.079   8.194   9.153
 5736POPC   GL112313  43.062   8.168   8.853
 5736POPC   GL212314  43.090   8.280   8.853
 5736POPC   C1A12315  43.141   8.147   8.553
 5736POPC   D2A12316  43.126   8.193   8.253
 5736POPC   C3A12317  43.065   8.231   7.953
 5736POPC   C4A12318  43.119   8.202   7.653
 5736POPC   C1B12319  43.161   8.476   8.553
 5736POPC   C2B12320  43.178   8.420   8.253
 5736POPC   C3B12321  43.111   8.420   7.953
 5736POPC   C4B12322  43.149   8.436   7.653
 5737POPC   NC312323   3.537   1.951   9.453
 5737POPC   PO412324   3.504   2.018   9.153
 5737POPC   GL112325   3.507   1.997   8.853
 5737POPC   GL212326   3.445   2.070   8.853
 5737POPC   C1A12327   3.557   1.947   8.553
 5737POPC   D2A12328   3.565   1.965   8.253
 5737POPC   C3A12329   3.545   1.967   7.953
 5737POPC   C4A12330   3.513   2.014   7.653
 5737POPC   C1B12331   3.387   2.167   8.553
 5737POPC   C2B12332   3.428   2.133   8.253
 5737POPC   C3B12333   3.385   2.201   7.953
 5737POPC   C4B12334   3.414   2.133   7.653
 5738POPC   NC312335  34.603  24.521   9.453
 5738POPC   PO412336  34.542  24.498   9.153
 5738POPC   GL112337  34.608  24.475   8.853
 5738POPC   GL212338  34.492  24.438   8.853
 5738POPC   C1A12339  34.625  24.519   8.553
 5738POPC   D2A12340  34.582  24.533   8.253
 5738POPC   C3A12341  34.566  24.499   7.953
 5738POPC   C4A12342  34.604  24.537   7.653
 5738POPC   C1B12343  34.380  24.289   8.553
 5738POPC   C2B12344  34.399  24.343   8.253
 5738POPC   C3B12345  34.365  24.282   7.953
 5738POPC   C4B12346  34.341  24.356   7.653
 5739POPC   NC312347   2.719  14.436   9.453
 5739POPC   PO412348   2.806  14.388   9.153
 5739POPC   GL112349   2.806  14.436   8.853
 5739POPC   GL212350   2.673  14.485   8.853
 5739POPC   C1A12351   2.764  14.451   8.553
 5739POPC   D2A12352   2.805  14.434   8.253
 5739POPC   C3A12353   2.812  14.413   7.953
 5739POPC   C4A12354   2.761  14.362   7.653
 5739POPC   C1B12355   2.542  14.522   8.553
 5739POPC   C2B12356   2.528  14.521   8.253
 5739POPC   C3B12357   2.511  14.504   7.953
 5739POPC   C4B12358   2.567  14.528   7.653
 5740POPC   NC312359  22.172  44.690   9.453
 5740POPC   PO412360  22.159  44.680   9.153
 5740POPC   GL112361  22.182  44.629   8.853
 5740POPC   GL212362  22.202  44.540   8.853
 5740POPC   C1A12363  22.114  44.675   8.553
 5740POPC   D2A12364  22.206  44.694   8.253
 5740POPC   C3A12365  22.118  44.648   7.953
 5740POPC   C4A12366  22.143  44.675   7.653
 5740POPC   C1B12367  22.329  44.464   8.553
 5740POPC   C2B12368  22.324  44.433   8.253
 5740POPC   C3B12369  22.316  44.441   7.953
 5740POPC   C4B12370  22.292  44.494   7.653
 5741POPC   NC312371  22.967  41.557   9.453
 5741POPC   PO412372  22.971  41.586   9.153
 5741POPC   GL112373  22.972  41.570   8.853
 5741POPC   GL212374  22.809  41.629   8.853
 5741POPC   C1A12375  22.936  41.591   8.553
 5741POPC   D2A12376  22.957  41.549   8.253
 5741POPC   C3A12377  22.982  41.511   7.953
 5741POPC   C4A12378  22.925  41.537   7.653
 5741POPC   C1B12379  22.729  41.575   8.553
 5741POPC   C2B12380  22.664  41.612   8.253
 5741POPC   C3B12381  22.729  41.586   7.953
 5741POPC   C4B12382  22.723  41.617   7.653
 5742POPC   NC312383  43.859   1.252   9.453
 5742POPC   PO412384  43.853   1.210   9.153
 5742POPC   GL112385  43.855   1.196   8.853
 5742POPC   GL212386  43.767   1.317   8.853
 5742POPC   C1A12387  43.888   1.224   8.553
 5742POPC   D2A12388  43.913   1.187   8.253
 5742POPC   C3A12389  43.908   1.242   7.953
 5742POPC   C4A12390  43.935   1.224   7.653
 5742POPC   C1B12391  43.688   1.338   8.553
 5742POPC   C2B12392  43.654   1.366   8.253
 5742POPC   C3B12393  43.653   1.373   7.953
 5742POPC   C4B12394  43.668   1.333   7.653
 5743POPC   NC312395  25.239   3.520   9.453
 5743POPC   PO412396  25.288   3.539   9.153
 5743POPC   GL112397  25.231   3.583   8.853
 5743POPC   GL212398  25.108   3.521   8.853
 5743POPC   C1A12399  25.256   3.505   8.553
 5743POPC   D2A12400  25.305   3.548   8.253
 5743POPC   C3A12401  25.315   3.542   7.953
 5743POPC   C4A12402  25.310   3.525   7.653
 5743POPC   C1B12403  25.049   3.482   8.553
 5743POPC   C2B12404  25.042   3.476   8.253
 5743POPC   C3B12405  25.052   3.489   7.953
 5743POPC   C4B12406  25.005   3.497   7.653
 5744POPC   NC312407   8.981  34.601   9.453
 5744POPC   PO412408   9.016  34.568   9.153
 5744POPC   GL112409   8.940  34.575   8.853
 5744POPC   GL212410   9.008  34.433   8.853
 5744POPC   C1A12411   8.986  34.596   8.553
 5744POPC   D2A12412   8.992  34.624   8.253
 5744POPC   C3A12413   9.012  34.621   7.953
 5744POPC   C4A12414   8.936  34.543   7.653
 5744POPC   C1B12415   9.105  34.424   8.553
 5744POPC   C2B12416   9.136  34.337   8.253
 5744POPC   C3B12417   9.151  34.381   7.953
 5744POPC   C4B12418   9.122  34.424   7.653
 5745POPC   NC312419  20.569  15.933   9.453
 5745POPC   PO412420  20.629  15.982   9.153
 5745POPC   GL112421  20.592  15.982   8.853
 5745POPC   GL212422  20.496  15.841   8.853
 5745POPC   C1A12423  20.653  15.959   8.553
 5745POPC   D2A12424  20.655  15.978   8.253
 5745POPC   C3A12425  20.644  15.954   7.953
 5745POPC   C4A12426  20.589  15.955   7.653
 5745POPC   C1B12427  20.453  15.756   8.553
 5745POPC   C2B12428  20.469  15.785   8.253
 5745POPC   C3B12429  20.483  15.749   7.953
 5745POPC   C4B12430  20.421  15.750   7.653
 5746POPC   NC312431   3.515  34.617   9.453
 5746POPC   PO412432   3.546  34.583   9.153
 5746POPC   GL112433   3.566  34.601   8.853
 5746POPC   GL212434   3.612  34.477   8.853
 5746POPC   C1A12435   3.557  34.541   8.553
 5746POPC   D2A12436   3.524  34.616   8.253
 5746POPC   C3A12437   3.576  34.561   7.953
 5746POPC   C4A12438   3.494  34.560   7.653
 5746POPC   C1B12439   3.774  34.417   8.553
 5746POPC   C2B12440   3.757  34.485   8.253
 5746POPC   C3B12441   3.738  34.478   7.953
 5746POPC   C4B12442   3.740  34.410   7.653
 5747POPC   NC312443   5.055  28.333   9.453
 5747POPC   PO412444   5.056  28.410   9.153
 5747POPC   GL112445   5.130  28.398   8.853
 5747POPC   GL212446   4.992  28.443   8.853
 5747POPC   C1A12447   5.132  28.337   8.553
 5747POPC   D2A12448   5.130  28.412   8.253
 5747POPC   C3A12449   5.063  28.373   7.953
 5747POPC   C4A12450   5.110  28.395   7.653
 5747POPC   C1B12451   4.862  28.535   8.553
 5747POPC   C2B12452   4.884  28.496   8.253
 5747POPC   C3B12453   4.872  28.511   7.953
 5747POPC   C4B12454   4.914  28.552   7.653
 5748POPC   NC312455   8.968  35.388   9.453
 5748POPC   PO412456   8.935  35.395   9.153
 5748POPC   GL112457   9.011  35.348   8.853
 5748POPC   GL212458   8.999  35.254   8.853
 5748POPC   C1A12459   8.923  35.358   8.553
 5748POPC   D2A12460   9.011  35.385   8.253
 5748POPC   C3A12461   8.936  35.309   7.953
 5748POPC   C4A12462   8.937  35.389   7.653
 5748POPC   C1B12463   9.104  35.117   8.553
 5748POPC   C2B12464   9.087  35.085   8.253
 5748POPC   C3B12465   9.057  35.097   7.953
 5748POPC   C4B12466   9.091  35.165   7.653
 5749POPC   NC312467  11.290  24.462   9.453
 5749POPC   PO412468  11.337  24.483   9.153
 5749POPC   GL112469  11.291  24.499   8.853
 5749POPC   GL212470  11.414  24.590   8.853
 5749POPC   C1A12471  11.319  24.503   8.553
 5749POPC   D2A12472  11.313  24.534   8.253
 5749POPC   C3A12473  11.341  24.499   7.953
 5749POPC   C4A12474  11.256  24.517   7.653
 5749POPC   C1B12475  11.495  24.612   8.553
 5749POPC   C2B12476  11.575  24.597   8.253
 5749POPC   C3B12477  11.531  24.544   7.953
 5749POPC   C4B12478  11.558  24.562   7.653
 5750POPC   NC312479  22.963  12.823   9.453
 5750POPC   PO412480  22.959  12.873   9.153
 5750POPC   GL112481  22.966  12.889   8.853
 5750POPC   GL212482  23.008  12.769   8.853
 5750POPC   C1A12483  22.983  12.832   8.553
 5750POPC   D2A12484  22.979  12.822   8.253
 5750POPC   C3A12485  22.973  12.857   7.953
 5750POPC   C4A12486  22.942  12.888   7.653
 5750POPC   C1B12487  23.095  12.652   8.553
 5750POPC   C2B12488  23.148  12.670   8.253
 5750POPC   C3B12489  23.114  12.684   7.953
 5750POPC   C4B12490  23.063  12.683   7.653
 5751POPC   NC312491  18.316  19.046   9.453
 5751POPC   PO412492  18.310  19.099   9.153
 5751POPC   GL112493  18.320  19.028   8.853
 5751POPC   GL212494  18.385  19.107   8.853
 5751POPC   C1A12495  18.316  19.081   8.553
 5751POPC   D2A12496  18.238  19.096   8.253
 5751POPC   C3A12497  18.333  19.029   7.953
 5751POPC   C4A12498  18.313  19.092   7.653
 5751POPC   C1B12499  18.402  19.206   8.553
 5751POPC   C2B12500  18.476  19.212   8.253
 5751POPC   C3B12501  18.462  19.237   7.953
 5751POPC   C4B12502  18.454  19.295   7.653
 5752POPC   NC312503  29.920  21.401   9.453
 5752POPC   PO412504  29.889  21.395   9.153
 5752POPC   GL112505  29.892  21.396   8.853
 5752POPC   GL212506  30.005  21.342   8.853
 5752POPC   C1A12507  29.878  21.425   8.553
 5752POPC   D2A12508  29.908  21.434   8.253
 5752POPC   C3A12509  29.916  21.360   7.953
 5752POPC   C4A12510  29.876  21.411   7.653
 5752POPC   C1B12511  30.080  21.252   8.553
 5752POPC   C2B12512  30.100  21.222   8.253
 5752POPC   C3B12513  30.086  21.229   7.953
 5752POPC   C4B12514  30.151  21.239   7.653
 5753POPC   NC312515  43.935   0.411   9.453
 5753POPC   PO412516  43.898   0.418   9.153
 5753POPC   GL112517  43.919   0.411   8.853
 5753POPC   GL212518  43.928   0.307   8.853
 5753POPC   C1A12519  43.904   0.479   8.553
 5753POPC   D2A12520  43.881   0.398   8.253
 5753POPC   C3A12521  43.887   0.420   7.953
 5753POPC   C4A12522  43.860   0.409   7.653
 5753POPC   C1B12523  44.034   0.209   8.553
 5753POPC   C2B12524  44.063   0.203   8.253
 5753POPC   C3B12525  44.047   0.196   7.953
 5753POPC   C4B12526  43.989   0.216   7.653
 5754POPC   NC312527  19.841  29.906   9.453
 5754POPC   PO412528  19.874  29.899   9.153
 5754POPC   GL112529  19.797  29.938   8.853
 5754POPC   GL212530  19.721  29.918   8.853
 5754POPC   C1A12531  19.789  29.927   8.553
 5754POPC   D2A12532  19.814  29.900   8.253
 5754POPC   C3A12533  19.878  29.874   7.953
 5754POPC   C4A12534  19.804  29.912   7.653
 5754POPC   C1B12535  19.604  29.959   8.553
 5754POPC   C2B12536  19.610  29.912   8.253
 5754POPC   C3B12537  19.609  29.895   7.953
 5754POPC   C4B12538  19.560  29.941   7.653
 5755POPC   NC312539  28.350  33.012   9.453
 5755POPC   PO412540  28.339  32.982   9.153
 5755POPC   GL112541  28.353  32.979   8.853
 5755POPC   GL212542  28.259  33.051   8.853
 5755POPC   C1A12543  28.347  33.005   8.553
 5755POPC   D2A12544  28.384  32.975   8.253
 5755POPC   C3A12545  28.356  32.990   7.953
 5755POPC   C4A12546  28.351  33.052   7.653
 5755POPC   C1B12547  28.147  33.137   8.553
 5755POPC   C2B12548  28.174  33.152   8.253
 5755POPC   C3B12549  28.175  33.067   7.953
 5755POPC   C4B12550  28.153  33.056   7.653
 5756POPC   NC312551  35.380   1.198   9.453
 5756POPC   PO412552  35.355   1.168   9.153
 5756POPC   GL112553  35.357   1.236   8.853
 5756POPC   GL212554  35.436   1.145   8.853
 5756POPC   C1A12555  35.315   1.171   8.553
 5756POPC   D2A12556  35.335   1.227   8.253
 5756POPC   C3A12557  35.311   1.175   7.953
 5756POPC   C4A12558  35.318   1.210   7.653
 5756POPC   C1B12559  35.569   1.044   8.553
 5756POPC   C2B12560  35.523   1.037   8.253
 5756POPC   C3B12561  35.508   1.057   7.953
 5756POPC   C4B12562  35.509   1.070   7.653
 5757POPC   NC312563   8.180  43.910   9.453
 5757POPC   PO412564   8.160  43.841   9.153
 5757POPC   GL112565   8.187  43.887   8.853
 5757POPC   GL212566   8.050  43.949   8.853
 5757POPC   C1A12567   8.166  43.855   8.553
 5757POPC   D2A12568   8.206  43.902   8.253
 5757POPC   C3A12569   8.240  43.844   7.953
 5757POPC   C4A12570   8.159  43.868   7.653
 5757POPC   C1B12571   7.972  43.904   8.553
 5757POPC   C2B12572   7.930  43.986   8.253
 5757POPC   C3B12573   7.967  43.912   7.953
 5757POPC   C4B12574   7.955  43.962   7.653
 5758POPC   NC312575  40.811  38.500   9.453
 5758POPC   PO412576  40.820  38.450   9.153
 5758POPC   GL112577  40.733  38.451   8.853
 5758POPC   GL212578  40.764  38.359   8.853
 5758POPC   C1A12579  40.795  38.503   8.553
 5758POPC   D2A12580  40.815  38.465   8.253
 5758POPC   C3A12581  40.776  38.493   7.953
 5758POPC   C4A12582  40.770  38.452   7.653
 5758POPC   C1B12583  40.811  38.180   8.553
 5758POPC   C2B12584  40.812  38.237   8.253
 5758POPC   C3B12585  40.836  38.221   7.953
 5758POPC   C4B12586  40.829  38.174   7.653
 5759POPC   NC312587  11.318  14.397   9.453
 5759POPC   PO412588  11.274  14.424   9.153
 5759POPC   GL112589  11.286  14.380   8.853
 5759POPC   GL212590  11.402  14.452   8.853
 5759POPC   C1A12591  11.278  14.414   8.553
 5759POPC   D2A12592  11.292  14.405   8.253
 5759POPC   C3A12593  11.332  14.399   7.953
 5759POPC   C4A12594  11.268  14.423   7.653
 5759POPC   C1B12595  11.555  14.435   8.553
 5759POPC   C2B12596  11.581  14.485   8.253
 5759POPC   C3B12597  11.556  14.416   7.953
 5759POPC   C4B12598  11.577  14.455   7.653
 5760POPC   NC312599   3.546  16.693   9.453
 5760POPC   PO412600   3.565  16.712   9.153
 5760POPC   GL112601   3.534  16.722   8.853
 5760POPC   GL212602   3.521  16.807   8.853
 5760POPC   C1A12603   3.544  16.759   8.553
 5760POPC   D2A12604   3.564  16.686   8.253
 5760POPC   C3A12605   3.581  16.744   7.953
 5760POPC   C4A12606   3.516  16.715   7.653
 5760POPC   C1B12607   3.519  17.009   8.553
 5760POPC   C2B12608   3.575  16.985   8.253
 5760POPC   C3B12609   3.482  16.952   7.953
 5760POPC   C4B12610   3.521  16.946   7.653
 5761POPC   NC312611  12.113  16.692   9.453
 5761POPC   PO412612  12.093  16.735   9.153
 5761POPC   GL112613  12.043  16.710   8.853
 5761POPC   GL212614  12.040  16.818   8.853
 5761POPC   C1A12615  12.068  16.753   8.553
 5761POPC   D2A12616  12.124  16.732   8.253
 5761POPC   C3A12617  12.117  16.718   7.953
 5761POPC   C4A12618  12.107  16.737   7.653
 5761POPC   C1B12619  12.040  16.934   8.553
 5761POPC   C2B12620  12.085  17.014   8.253
 5761POPC   C3B12621  12.044  17.028   7.953
 5761POPC   C4B12622  12.046  16.966   7.653
 5762POPC   NC312623   7.407  24.502   9.453
 5762POPC   PO412624   7.461  24.450   9.153
 5762POPC   GL112625   7.372  24.461   8.853
 5762POPC   GL212626   7.445  24.570   8.853
 5762POPC   C1A12627   7.381  24.472   8.553
 5762POPC   D2A12628   7.465  24.484   8.253
 5762POPC   C3A12629   7.415  24.475   7.953
 5762POPC   C4A12630   7.430  24.513   7.653
 5762POPC   C1B12631   7.577  24.729   8.553
 5762POPC   C2B12632   7.496  24.677   8.253
 5762POPC   C3B12633   7.574  24.713   7.953
 5762POPC   C4B12634   7.516  24.749   7.653
 5763POPC   NC312635   8.231   6.693   9.453
 5763POPC   PO412636   8.223   6.684   9.153
 5763POPC   GL112637   8.206   6.674   8.853
 5763POPC   GL212638   8.103   6.711   8.853
 5763POPC   C1A12639   8.158   6.633   8.553
 5763POPC   D2A12640   8.209   6.604   8.253
 5763POPC   C3A12641   8.233   6.642   7.953
 5763POPC   C4A12642   8.207   6.673   7.653
 5763POPC   C1B12643   7.966   6.770   8.553
 5763POPC   C2B12644   7.962   6.731   8.253
 5763POPC   C3B12645   7.986   6.782   7.953
 5763POPC   C4B12646   7.961   6.796   7.653
 5764POPC   NC312647  38.471  43.933   9.453
 5764POPC   PO412648  38.423  43.879   9.153
 5764POPC   GL112649  38.433  43.866   8.853
 5764POPC   GL212650  38.421  43.979   8.853
 5764POPC   C1A12651  38.477  43.847   8.553
 5764POPC   D2A12652  38.425  43.838   8.253
 5764POPC   C3A12653  38.448  43.870   7.953
 5764POPC   C4A12654  38.463  43.895   7.653
 5764POPC   C1B12655  38.351  44.086   8.553
 5764POPC   C2B12656  38.318  44.108   8.253
 5764POPC   C3B12657  38.320  44.165   7.953
 5764POPC   C4B12658  38.391  44.108   7.653
 5765POPC   NC312659  12.828  40.797   9.453
 5765POPC   PO412660  12.850  40.770   9.153
 5765POPC   GL112661  12.816  40.821   8.853
 5765POPC   GL212662  12.907  40.671   8.853
 5765POPC   C1A12663  12.830  40.759   8.553
 5765POPC   D2A12664  12.810  40.774   8.253
 5765POPC   C3A12665  12.821  40.812   7.953
 5765POPC   C4A12666  12.847  40.832   7.653
 5765POPC   C1B12667  12.938  40.522   8.553
 5765POPC   C2B12668  12.952  40.504   8.253
 5765POPC   C3B12669  12.961  40.578   7.953
 5765POPC   C4B12670  12.985  40.596   7.653
 5766POPC   NC312671   4.364   8.944   9.453
 5766POPC   PO412672   4.314   8.961   9.153
 5766POPC   GL112673   4.347   8.990   8.853
 5766POPC   GL212674   4.277   8.816   8.853
 5766POPC   C1A12675   4.352   8.968   8.553
 5766POPC   D2A12676   4.359   8.981   8.253
 5766POPC   C3A12677   4.332   8.924   7.953
 5766POPC   C4A12678   4.327   8.936   7.653
 5766POPC   C1B12679   4.269   8.750   8.553
 5766POPC   C2B12680   4.317   8.674   8.253
 5766POPC   C3B12681   4.293   8.692   7.953
 5766POPC   C4B12682   4.286   8.735   7.653
 5767POPC   NC312683  41.602  34.592   9.453
 5767POPC   PO412684  41.527  34.539   9.153
 5767POPC   GL112685  41.585  34.624   8.853
 5767POPC   GL212686  41.481  34.519   8.853
 5767POPC   C1A12687  41.600  34.536   8.553
 5767POPC   D2A12688  41.555  34.618   8.253
 5767POPC   C3A12689  41.566  34.603   7.953
 5767POPC   C4A12690  41.521  34.623   7.653
 5767POPC   C1B12691  41.380  34.467   8.553
 5767POPC   C2B12692  41.348  34.458   8.253
 5767POPC   C3B12693  41.348  34.490   7.953
 5767POPC   C4B12694  41.338  34.490   7.653
 5768POPC   NC312695   1.183  31.454   9.453
 5768POPC   PO412696   1.234  31.439   9.153
 5768POPC   GL112697   1.181  31.482   8.853
 5768POPC   GL212698   1.103  31.533   8.853
 5768POPC   C1A12699   1.252  31.460   8.553
 5768POPC   D2A12700   1.206  31.425   8.253
 5768POPC   C3A12701   1.199  31.474   7.953
 5768POPC   C4A12702   1.230  31.511   7.653
 5768POPC   C1B12703   1.017  31.636   8.553
 5768POPC   C2B12704   0.991  31.648   8.253
 5768POPC   C3B12705   1.004  31.649   7.953
 5768POPC   C4B12706   1.014  31.624   7.653
 5769POPC   NC312707   5.118  10.541   9.453
 5769POPC   PO412708   5.113  10.528   9.153
 5769POPC   GL112709   5.115  10.485   8.853
 5769POPC   GL212710   5.021  10.555   8.853
 5769POPC   C1A12711   5.121  10.501   8.553
 5769POPC   D2A12712   5.113  10.540   8.253
 5769POPC   C3A12713   5.055  10.554   7.953
 5769POPC   C4A12714   5.093  10.560   7.653
 5769POPC   C1B12715   4.853  10.608   8.553
 5769POPC   C2B12716   4.886  10.633   8.253
 5769POPC   C3B12717   4.834  10.678   7.953
 5769POPC   C4B12718   4.842  10.685   7.653
 5770POPC   NC312719  13.596   5.911   9.453
 5770POPC   PO412720  13.664   5.909   9.153
 5770POPC   GL112721  13.654   5.826   8.853
 5770POPC   GL212722  13.685   5.921   8.853
 5770POPC   C1A12723  13.656   5.823   8.553
 5770POPC   D2A12724  13.588   5.874   8.253
 5770POPC   C3A12725  13.668   5.903   7.953
 5770POPC   C4A12726  13.673   5.846   7.653
 5770POPC   C1B12727  13.830   6.042   8.553
 5770POPC   C2B12728  13.818   6.001   8.253
 5770POPC   C3B12729  13.849   6.029   7.953
 5770POPC   C4B12730  13.872   6.028   7.653
 5771POPC   NC312731  15.961  43.866   9.453
 5771POPC   PO412732  15.994  43.894   9.153
 5771POPC   GL112733  15.969  43.927   8.853
 5771POPC   GL212734  15.979  43.751   8.853
 5771POPC   C1A12735  15.960  43.840   8.553
 5771POPC   D2A12736  15.918  43.923   8.253
 5771POPC   C3A12737  16.000  43.893   7.953
 5771POPC   C4A12738  15.911  43.924   7.653
 5771POPC   C1B12739  16.027  43.671   8.553
 5771POPC   C2B12740  16.061  43.683   8.253
 5771POPC   C3B12741  16.060  43.613   7.953
 5771POPC   C4B12742  16.007  43.662   7.653
 5772POPC   NC312743  41.590  43.151   9.453
 5772POPC   PO412744  41.528  43.072   9.153
 5772POPC   GL112745  41.588  43.113   8.853
 5772POPC   GL212746  41.491  43.214   8.853
 5772POPC   C1A12747  41.514  43.129   8.553
 5772POPC   D2A12748  41.510  43.109   8.253
 5772POPC   C3A12749  41.534  43.084   7.953
 5772POPC   C4A12750  41.591  43.146   7.653
 5772POPC   C1B12751  41.385  43.310   8.553
 5772POPC   C2B12752  41.393  43.289   8.253
 5772POPC   C3B12753  41.381  43.283   7.953
 5772POPC   C4B12754  41.387  43.240   7.653
 5773POPC   NC312755  27.556  12.058   9.453
 5773POPC   PO412756  27.580  12.042   9.153
 5773POPC   GL112757  27.577  12.060   8.853
 5773POPC   GL212758  27.448  12.120   8.853
 5773POPC   C1A12759  27.546  12.037   8.553
 5773POPC   D2A12760  27.635  12.098   8.253
 5773POPC   C3A12761  27.560  12.117   7.953
 5773POPC   C4A12762  27.576  12.027   7.653
 5773POPC   C1B12763  27.419  12.254   8.553
 5773POPC   C2B12764  27.446  12.216   8.253
 5773POPC   C3B12765  27.355  12.266   7.953
 5773POPC   C4B12766  27.373  12.264   7.653
 5774POPC   NC312767  35.375   6.673   9.453
 5774POPC   PO412768  35.383   6.617   9.153
 5774POPC   GL112769  35.345   6.639   8.853
 5774POPC   GL212770  35.335   6.779   8.853
 5774POPC   C1A12771  35.382   6.688   8.553
 5774POPC   D2A12772  35.340   6.596   8.253
 5774POPC   C3A12773  35.302   6.600   7.953
 5774POPC   C4A12774  35.350   6.627   7.653
 5774POPC   C1B12775  35.278   6.879   8.553
 5774POPC   C2B12776  35.235   6.889   8.253
 5774POPC   C3B12777  35.265   6.905   7.953
 5774POPC   C4B12778  35.297   6.928   7.653
 5775POPC   NC312779  32.210  26.822   9.453
 5775POPC   PO412780  32.263  26.818   9.153
 5775POPC   GL112781  32.253  26.783   8.853
 5775POPC   GL212782  32.148  26.922   8.853
 5775POPC   C1A12783  32.213  26.781   8.553
 5775POPC   D2A12784  32.235  26.857   8.253
 5775POPC   C3A12785  32.294  26.786   7.953
 5775POPC   C4A12786  32.262  26.783   7.653
 5775POPC   C1B12787  32.083  26.993   8.553
 5775POPC   C2B12788  32.144  26.999   8.253
 5775POPC   C3B12789  32.073  27.057   7.953
 5775POPC   C4B12790  32.166  27.017   7.653
 5776POPC   NC312791  11.266  40.807   9.453
 5776POPC   PO412792  11.265  40.805   9.153
 5776POPC   GL112793  11.305  40.748   8.853
 5776POPC   GL212794  11.374  40.792   8.853
 5776POPC   C1A12795  11.291  40.762   8.553
 5776POPC   D2A12796  11.307  40.744   8.253
 5776POPC   C3A12797  11.314  40.830   7.953
 5776POPC   C4A12798  11.285  40.814   7.653
 5776POPC   C1B12799  11.510  40.720   8.553
 5776POPC   C2B12800  11.541  40.722   8.253
 5776POPC   C3B12801  11.584  40.684   7.953
 5776POPC   C4B12802  11.503  40.739   7.653
 5777POPC   NC312803  27.618   5.876   9.453
 5777POPC   PO412804  27.599   5.857   9.153
 5777POPC   GL112805  27.631   5.874   8.853
 5777POPC   GL212806  27.712   5.942   8.853
 5777POPC   C1A12807  27.562   5.825   8.553
 5777POPC   D2A12808  27.610   5.893   8.253
 5777POPC   C3A12809  27.584   5.860   7.953
 5777POPC   C4A12810  27.596   5.820   7.653
 5777POPC   C1B12811  27.795   5.989   8.553
 5777POPC   C2B12812  27.781   5.982   8.253
 5777POPC   C3B12813  27.835   5.975   7.953
 5777POPC   C4B12814  27.840   5.926   7.653
 5778POPC   NC312815  18.284   4.322   9.453
 5778POPC   PO412816  18.287   4.348   9.153
 5778POPC   GL112817  18.301   4.337   8.853
 5778POPC   GL212818  18.194   4.253   8.853
 5778POPC   C1A12819  18.277   4.315   8.553
 5778POPC   D2A12820  18.303   4.318   8.253
 5778POPC   C3A12821  18.245   4.296   7.953
 5778POPC   C4A12822  18.262   4.279   7.653
 5778POPC   C1B12823  18.057   4.176   8.553
 5778POPC   C2B12824  18.066   4.136   8.253
 5778POPC   C3B12825  18.132   4.162   7.953
 5778POPC   C4B12826  18.127   4.207   7.653
 5779POPC   NC312827  43.098  12.055   9.453
 5779POPC   PO412828  43.116  12.051   9.153
 5779POPC   GL112829  43.078  12.108   8.853
 5779POPC   GL212830  43.167  12.186   8.853
 5779POPC   C1A12831  43.146  12.087   8.553
 5779POPC   D2A12832  43.147  12.074   8.253
 5779POPC   C3A12833  43.089  12.038   7.953
 5779POPC   C4A12834  43.075  12.053   7.653
 5779POPC   C1B12835  43.209  12.285   8.553
 5779POPC   C2B12836  43.213  12.313   8.253
 5779POPC   C3B12837  43.144  12.326   7.953
 5779POPC   C4B12838  43.200  12.350   7.653
 5780POPC   NC312839  32.209  43.892   9.453
 5780POPC   PO412840  32.231  43.883   9.153
 5780POPC   GL112841  32.289  43.888   8.853
 5780POPC   GL212842  32.339  43.948   8.853
 5780POPC   C1A12843  32.252  43.884   8.553
 5780POPC   D2A12844  32.280  43.935   8.253
 5780POPC   C3A12845  32.204  43.843   7.953
 5780POPC   C4A12846  32.291  43.858   7.653
 5780POPC   C1B12847  32.456  44.001   8.553
 5780POPC   C2B12848  32.442  43.990   8.253
 5780POPC   C3B12849  32.515  44.040   7.953
 5780POPC   C4B12850  32.458  44.001   7.653
 5781POPC   NC312851  14.453   2.006   9.453
 5781POPC   PO412852  14.385   2.002   9.153
 5781POPC   GL112853  14.448   1.952   8.853
 5781POPC   GL212854  14.476   1.979   8.853
 5781POPC   C1A12855  14.395   1.967   8.553
 5781POPC   D2A12856  14.438   1.977   8.253
 5781POPC   C3A12857  14.369   2.036   7.953
 5781POPC   C4A12858  14.363   2.007   7.653
 5781POPC   C1B12859  14.610   1.951   8.553
 5781POPC   C2B12860  14.637   1.970   8.253
 5781POPC   C3B12861  14.657   1.942   7.953
 5781POPC   C4B12862  14.658   1.900   7.653
 5782POPC   NC312863  28.321  42.288   9.453
 5782POPC   PO412864  28.405  42.345   9.153
 5782POPC   GL112865  28.336  42.316   8.853
 5782POPC   GL212866  28.444  42.290   8.853
 5782POPC   C1A12867  28.407  42.379   8.553
 5782POPC   D2A12868  28.379  42.345   8.253
 5782POPC   C3A12869  28.342  42.356   7.953
 5782POPC   C4A12870  28.338  42.348   7.653
 5782POPC   C1B12871  28.629  42.245   8.553
 5782POPC   C2B12872  28.621  42.184   8.253
 5782POPC   C3B12873  28.582  42.198   7.953
 5782POPC   C4B12874  28.597  42.209   7.653
 5783POPC   NC312875  36.130  28.364   9.453
 5783POPC   PO412876  36.091  28.397   9.153
 5783POPC   GL112877  36.109  28.391   8.853
 5783POPC   GL212878  35.956  28.356   8.853
 5783POPC   C1A12879  36.112  28.370   8.553
 5783POPC   D2A12880  36.121  28.338   8.253
 5783POPC   C3A12881  36.148  28.411   7.953
 5783POPC   C4A12882  36.125  28.388   7.653
 5783POPC   C1B12883  35.886  28.373   8.553
 5783POPC   C2B12884  35.849  28.397   8.253
 5783POPC   C3B12885  35.847  28.421   7.953
 5783POPC   C4B12886  35.838  28.460   7.653
 5784POPC   NC312887   8.949  26.071   9.453
 5784POPC   PO412888   8.938  26.063   9.153
 5784POPC   GL112889   8.988  26.035   8.853
 5784POPC   GL212890   9.050  26.095   8.853
 5784POPC   C1A12891   8.948  26.088   8.553
 5784POPC   D2A12892   8.950  26.008   8.253
 5784POPC   C3A12893   8.931  26.021   7.953
 5784POPC   C4A12894   9.015  26.072   7.653
 5784POPC   C1B12895   9.178  26.110   8.553
 5784POPC   C2B12896   9.194  26.164   8.253
 5784POPC   C3B12897   9.162  26.190   7.953
 5784POPC   C4B12898   9.238  26.184   7.653
 5785POPC   NC312899  26.058  27.608   9.453
 5785POPC   PO412900  26.061  27.576   9.153
 5785POPC   GL112901  25.998  27.587   8.853
 5785POPC   GL212902  26.109  27.650   8.853
 5785POPC   C1A12903  26.034  27.568   8.553
 5785POPC   D2A12904  26.057  27.569   8.253
 5785POPC   C3A12905  26.032  27.547   7.953
 5785POPC   C4A12906  26.078  27.592   7.653
 5785POPC   C1B12907  26.253  27.661   8.553
 5785POPC   C2B12908  26.307  27.656   8.253
 5785POPC   C3B12909  26.280  27.641   7.953
 5785POPC   C4B12910  26.231  27.719   7.653
 5786POPC   NC312911  31.508  35.303   9.453
 5786POPC   PO412912  31.442  35.334   9.153
 5786POPC   GL112913  31.508  35.312   8.853
 5786POPC   GL212914  31.470  35.185   8.853
 5786POPC   C1A12915  31.497  35.362   8.553
 5786POPC   D2A12916  31.451  35.396   8.253
 5786POPC   C3A12917  31.501  35.349   7.953
 5786POPC   C4A12918  31.502  35.317   7.653
 5786POPC   C1B12919  31.462  35.081   8.553
 5786POPC   C2B12920  31.466  35.078   8.253
 5786POPC   C3B12921  31.449  35.085   7.953
 5786POPC   C4B12922  31.480  35.081   7.653
 5787POPC   NC312923  19.108  19.085   9.453
 5787POPC   PO412924  19.038  19.019   9.153
 5787POPC   GL112925  19.034  19.071   8.853
 5787POPC   GL212926  19.150  18.916   8.853
 5787POPC   C1A12927  19.047  19.038   8.553
 5787POPC   D2A12928  19.080  19.063   8.253
 5787POPC   C3A12929  19.010  19.074   7.953
 5787POPC   C4A12930  19.058  19.050   7.653
 5787POPC   C1B12931  19.220  18.810   8.553
 5787POPC   C2B12932  19.175  18.895   8.253
 5787POPC   C3B12933  19.238  18.841   7.953
 5787POPC   C4B12934  19.155  18.840   7.653
 5788POPC   NC312935   5.069  14.430   9.453
 5788POPC   PO412936   5.057  14.441   9.153
 5788POPC   GL112937   5.142  14.406   8.853
 5788POPC   GL212938   5.239  14.458   8.853
 5788POPC   C1A12939   5.048  14.451   8.553
 5788POPC   D2A12940   5.125  14.451   8.253
 5788POPC   C3A12941   5.066  14.379   7.953
 5788POPC   C4A12942   5.109  14.386   7.653
 5788POPC   C1B12943   5.324  14.441   8.553
 5788POPC   C2B12944   5.352  14.497   8.253
 5788POPC   C3B12945   5.336  14.451   7.953
 5788POPC   C4B12946   5.313  14.480   7.653
 5789POPC   NC312947  37.651  19.799   9.453
 5789POPC   PO412948  37.662  19.830   9.153
 5789POPC   GL112949  37.712  19.827   8.853
 5789POPC   GL212950  37.672  19.949   8.853
 5789POPC   C1A12951  37.647  19.883   8.553
 5789POPC   D2A12952  37.663  19.852   8.253
 5789POPC   C3A12953  37.640  19.804   7.953
 5789POPC   C4A12954  37.689  19.873   7.653
 5789POPC   C1B12955  37.576  20.111   8.553
 5789POPC   C2B12956  37.555  20.029   8.253
 5789POPC   C3B12957  37.576  20.045   7.953
 5789POPC   C4B12958  37.550  20.035   7.653
 5790POPC   NC312959  19.062  29.100   9.453
 5790POPC   PO412960  19.055  29.153   9.153
 5790POPC   GL112961  19.108  29.124   8.853
 5790POPC   GL212962  19.128  29.302   8.853
 5790POPC   C1A12963  19.089  29.181   8.553
 5790POPC   D2A12964  19.049  29.148   8.253
 5790POPC   C3A12965  19.051  29.139   7.953
 5790POPC   C4A12966  19.020  29.181   7.653
 5790POPC   C1B12967  19.208  29.375   8.553
 5790POPC   C2B12968  19.181  29.377   8.253
 5790POPC   C3B12969  19.153  29.342   7.953
 5790POPC   C4B12970  19.194  29.372   7.653
 5791POPC   NC312971  40.024  18.307   9.453
 5791POPC   PO412972  39.990  18.242   9.153
 5791POPC   GL112973  39.993  18.272   8.853
 5791POPC   GL212974  40.053  18.378   8.853
 5791POPC   C1A12975  40.037  18.292   8.553
 5791POPC   D2A12976  40.000  18.236   8.253
 5791POPC   C3A12977  40.004  18.328   7.953
 5791POPC   C4A12978  39.975  18.258   7.653
 5791POPC   C1B12979  40.200  18.418   8.553
 5791POPC   C2B12980  40.198  18.508   8.253
 5791POPC   C3B12981  40.143  18.448   7.953
 5791POPC   C4B12982  40.147  18.440   7.653
 5792POPC   NC312983  36.913  22.943   9.453
 5792POPC   PO412984  36.877  22.908   9.153
 5792POPC   GL112985  36.894  22.925   8.853
 5792POPC   GL212986  36.967  22.884   8.853
 5792POPC   C1A12987  36.914  22.902   8.553
 5792POPC   D2A12988  36.897  22.948   8.253
 5792POPC   C3A12989  36.867  22.902   7.953
 5792POPC   C4A12990  36.925  22.890   7.653
 5792POPC   C1B12991  37.058  22.729   8.553
 5792POPC   C2B12992  37.053  22.777   8.253
 5792POPC   C3B12993  37.098  22.717   7.953
 5792POPC   C4B12994  37.058  22.774   7.653
 5793POPC   NC312995  33.070  25.997   9.453
 5793POPC   PO412996  33.006  26.022   9.153
 5793POPC   GL112997  33.025  26.023   8.853
 5793POPC   GL212998  32.940  26.030   8.853
 5793POPC   C1A12999  32.975  26.081   8.553
 5793POPC   D2A13000  33.072  26.087   8.253
 5793POPC   C3A13001  32.982  26.068   7.953
 5793POPC   C4A13002  33.065  26.054   7.653
 5793POPC   C1B13003  32.787  25.928   8.553
 5793POPC   C2B13004  32.820  25.899   8.253
 5793POPC   C3B13005  32.822  25.956   7.953
 5793POPC   C4B13006  32.844  25.967   7.653
 5794POPC   NC313007  13.647  44.667   9.453
 5794POPC   PO413008  13.646  44.701   9.153
 5794POPC   GL113009  13.627  44.643   8.853
 5794POPC   GL213010  13.469  44.645   8.853
 5794POPC   C1A13011  13.648  44.615   8.553
 5794POPC   D2A13012  13.635  44.617   8.253
 5794POPC   C3A13013  13.662  44.695   7.953
 5794POPC   C4A13014  13.631  44.637   7.653
 5794POPC   C1B13015  13.401  44.576   8.553
 5794POPC   C2B13016  13.428  44.620   8.253
 5794POPC   C3B13017  13.428  44.598   7.953
 5794POPC   C4B13018  13.395  44.651   7.653
 5795POPC   NC313019  18.238  42.297   9.453
 5795POPC   PO413020  18.241  42.354   9.153
 5795POPC   GL113021  18.287  42.338   8.853
 5795POPC   GL213022  18.248  42.233   8.853
 5795POPC   C1A13023  18.261  42.354   8.553
 5795POPC   D2A13024  18.289  42.321   8.253
 5795POPC   C3A13025  18.301  42.382   7.953
 5795POPC   C4A13026  18.269  42.342   7.653
 5795POPC   C1B13027  18.161  42.095   8.553
 5795POPC   C2B13028  18.194  42.075   8.253
 5795POPC   C3B13029  18.231  42.081   7.953
 5795POPC   C4B13030  18.239  42.050   7.653
 5796POPC   NC313031   5.909  32.214   9.453
 5796POPC   PO413032   5.916  32.227   9.153
 5796POPC   GL113033   5.905  32.296   8.853
 5796POPC   GL213034   5.954  32.226   8.853
 5796POPC   C1A13035   5.829  32.235   8.553
 5796POPC   D2A13036   5.822  32.203   8.253
 5796POPC   C3A13037   5.911  32.259   7.953
 5796POPC   C4A13038   5.851  32.286   7.653
 5796POPC   C1B13039   6.112  32.147   8.553
 5796POPC   C2B13040   6.065  32.072   8.253
 5796POPC   C3B13041   6.047  32.110   7.953
 5796POPC   C4B13042   6.120  32.130   7.653
 5797POPC   NC313043  15.998  14.354   9.453
 5797POPC   PO413044  15.976  14.411   9.153
 5797POPC   GL113045  15.980  14.411   8.853
 5797POPC   GL213046  16.043  14.420   8.853
 5797POPC   C1A13047  15.957  14.407   8.553
 5797POPC   D2A13048  15.951  14.430   8.253
 5797POPC   C3A13049  15.968  14.369   7.953
 5797POPC   C4A13050  15.965  14.358   7.653
 5797POPC   C1B13051  16.177  14.467   8.553
 5797POPC   C2B13052  16.173  14.461   8.253
 5797POPC   C3B13053  16.221  14.481   7.953
 5797POPC   C4B13054  16.220  14.479   7.653
 5798POPC   NC313055  39.224  29.108   9.453
 5798POPC   PO413056  39.205  29.107   9.153
 5798POPC   GL113057  39.186  29.152   8.853
 5798POPC   GL213058  39.309  29.045   8.853
 5798POPC   C1A13059  39.199  29.164   8.553
 5798POPC   D2A13060  39.232  29.149   8.253
 5798POPC   C3A13061  39.188  29.183   7.953
 5798POPC   C4A13062  39.217  29.103   7.653
 5798POPC   C1B13063  39.349  28.951   8.553
 5798POPC   C2B13064  39.369  28.939   8.253
 5798POPC   C3B13065  39.392  28.890   7.953
 5798POPC   C4B13066  39.413  28.940   7.653
 5799POPC   NC313067   8.959  17.464   9.453
 5799POPC   PO413068   8.936  17.552   9.153
 5799POPC   GL113069   9.006  17.471   8.853
 5799POPC   GL213070   8.822  17.501   8.853
 5799POPC   C1A13071   9.019  17.542   8.553
 5799POPC   D2A13072   8.946  17.491   8.253
 5799POPC   C3A13073   8.941  17.460   7.953
 5799POPC   C4A13074   8.990  17.489   7.653
 5799POPC   C1B13075   8.785  17.369   8.553
 5799POPC   C2B13076   8.744  17.400   8.253
 5799POPC   C3B13077   8.739  17.387   7.953
 5799POPC   C4B13078   8.750  17.393   7.653
 5800POPC   NC313079  37.650  18.306   9.453
 5800POPC   PO413080  37.649  18.331   9.153
 5800POPC   GL113081  37.716  18.316   8.853
 5800POPC   GL213082  37.721  18.118   8.853
 5800POPC   C1A13083  37.671  18.292   8.553
 5800POPC   D2A13084  37.706  18.318   8.253
 5800POPC   C3A13085  37.706  18.282   7.953
 5800POPC   C4A13086  37.716  18.292   7.653
 5800POPC   C1B13087  37.652  18.020   8.553
 5800POPC   C2B13088  37.647  18.007   8.253
 5800POPC   C3B13089  37.657  18.077   7.953
 5800POPC   C4B13090  37.631  18.072   7.653
 5801POPC   NC313091  19.872   1.171   9.453
 5801POPC   PO413092  19.807   1.227   9.153
 5801POPC   GL113093  19.875   1.176   8.853
 5801POPC   GL213094  19.931   1.284   8.853
 5801POPC   C1A13095  19.855   1.176   8.553
 5801POPC   D2A13096  19.832   1.178   8.253
 5801POPC   C3A13097  19.789   1.165   7.953
 5801POPC   C4A13098  19.840   1.259   7.653
 5801POPC   C1B13099  20.033   1.392   8.553
 5801POPC   C2B13100  20.076   1.380   8.253
 5801POPC   C3B13101  20.006   1.326   7.953
 5801POPC   C4B13102  20.033   1.314   7.653
 5802POPC   NC313103   5.859   3.524   9.453
 5802POPC   PO413104   5.909   3.536   9.153
 5802POPC   GL113105   5.850   3.528   8.853
 5802POPC   GL213106   5.743   3.512   8.853
 5802POPC   C1A13107   5.851   3.524   8.553
 5802POPC   D2A13108   5.877   3.499   8.253
 5802POPC   C3A13109   5.857   3.525   7.953
 5802POPC   C4A13110   5.873   3.556   7.653
 5802POPC   C1B13111   5.653   3.491   8.553
 5802POPC   C2B13112   5.630   3.524   8.253
 5802POPC   C3B13113   5.615   3.532   7.953
 5802POPC   C4B13114   5.646   3.515   7.653
 5803POPC   NC313115  12.034  20.565   9.453
 5803POPC   PO413116  12.081  20.590   9.153
 5803POPC   GL113117  12.073  20.657   8.853
 5803POPC   GL213118  11.953  20.707   8.853
 5803POPC   C1A13119  12.077  20.647   8.553
 5803POPC   D2A13120  12.067  20.576   8.253
 5803POPC   C3A13121  12.087  20.579   7.953
 5803POPC   C4A13122  12.045  20.582   7.653
 5803POPC   C1B13123  11.880  20.787   8.553
 5803POPC   C2B13124  11.969  20.776   8.253
 5803POPC   C3B13125  11.895  20.769   7.953
 5803POPC   C4B13126  11.886  20.793   7.653
 5804POPC   NC313127  40.776   5.130   9.453
 5804POPC   PO413128  40.802   5.077   9.153
 5804POPC   GL113129  40.807   5.073   8.853
 5804POPC   GL213130  40.631   5.009   8.853
 5804POPC   C1A13131  40.758   5.044   8.553
 5804POPC   D2A13132  40.826   5.089   8.253
 5804POPC   C3A13133  40.813   5.122   7.953
 5804POPC   C4A13134  40.768   5.047   7.653
 5804POPC   C1B13135  40.555   5.047   8.553
 5804POPC   C2B13136  40.506   5.029   8.253
 5804POPC   C3B13137  40.549   5.048   7.953
 5804POPC   C4B13138  40.596   5.000   7.653
 5805POPC   NC313139  18.275  39.207   9.453
 5805POPC   PO413140  18.268  39.274   9.153
 5805POPC   GL113141  18.326  39.227   8.853
 5805POPC   GL213142  18.356  39.138   8.853
 5805POPC   C1A13143  18.322  39.207   8.553
 5805POPC   D2A13144  18.236  39.268   8.253
 5805POPC   C3A13145  18.235  39.244   7.953
 5805POPC   C4A13146  18.327  39.254   7.653
 5805POPC   C1B13147  18.412  39.077   8.553
 5805POPC   C2B13148  18.440  39.067   8.253
 5805POPC   C3B13149  18.458  38.996   7.953
 5805POPC   C4B13150  18.401  39.001   7.653
 5806POPC   NC313151  39.184   1.982   9.453
 5806POPC   PO413152  39.213   2.010   9.153
 5806POPC   GL113153  39.185   1.979   8.853
 5806POPC   GL213154  39.276   1.890   8.853
 5806POPC   C1A13155  39.251   1.952   8.553
 5806POPC   D2A13156  39.207   1.992   8.253
 5806POPC   C3A13157  39.197   1.957   7.953
 5806POPC   C4A13158  39.218   1.976   7.653
 5806POPC   C1B13159  39.327   1.730   8.553
 5806POPC   C2B13160  39.273   1.797   8.253
 5806POPC   C3B13161  39.321   1.729   7.953
 5806POPC   C4B13162  39.305   1.748   7.653
 5807POPC   NC313163  29.911  26.789   9.453
 5807POPC   PO413164  29.922  26.824   9.153
 5807POPC   GL113165  29.944  26.823   8.853
 5807POPC   GL213166  29.762  26.882   8.853
 5807POPC   C1A13167  29.933  26.864   8.553
 5807POPC   D2A13168  29.946  26.802   8.253
 5807POPC   C3A13169  29.939  26.808   7.953
 5807POPC   C4A13170  29.902  26.784   7.653
 5807POPC   C1B13171  29.645  26.926   8.553
 5807POPC   C2B13172  29.740  26.867   8.253
 5807POPC   C3B13173  29.642  26.868   7.953
 5807POPC   C4B13174  29.653  26.899   7.653
 5808POPC   NC313175  43.099  22.900   9.453
 5808POPC   PO413176  43.072  22.912   9.153
 5808POPC   GL113177  43.122  22.949   8.853
 5808POPC   GL213178  43.167  23.029   8.853
 5808POPC   C1A13179  43.149  22.924   8.553
 5808POPC   D2A13180  43.078  22.915   8.253
 5808POPC   C3A13181  43.106  22.962   7.953
 5808POPC   C4A13182  43.085  22.934   7.653
 5808POPC   C1B13183  43.314  23.110   8.553
 5808POPC   C2B13184  43.312  23.150   8.253
 5808POPC   C3B13185  43.268  23.100   7.953
 5808POPC   C4B13186  43.340  23.139   7.653
 5809POPC   NC313187  22.891  25.270   9.453
 5809POPC   PO413188  22.892  25.279   9.153
 5809POPC   GL113189  22.938  25.231   8.853
 5809POPC   GL213190  22.817  25.336   8.853
 5809POPC   C1A13191  22.980  25.232   8.553
 5809POPC   D2A13192  22.979  25.263   8.253
 5809POPC   C3A13193  22.970  25.243   7.953
 5809POPC   C4A13194  22.897  25.306   7.653
 5809POPC   C1B13195  22.738  25.382   8.553
 5809POPC   C2B13196  22.720  25.392   8.253
 5809POPC   C3B13197  22.741  25.414   7.953
 5809POPC   C4B13198  22.685  25.432   7.653
 5810POPC   NC313199  19.798   5.105   9.453
 5810POPC   PO413200  19.849   5.071   9.153
 5810POPC   GL113201  19.797   5.076   8.853
 5810POPC   GL213202  19.879   5.216   8.853
 5810POPC   C1A13203  19.828   5.092   8.553
 5810POPC   D2A13204  19.793   5.073   8.253
 5810POPC   C3A13205  19.804   5.100   7.953
 5810POPC   C4A13206  19.810   5.087   7.653
 5810POPC   C1B13207  19.959   5.325   8.553
 5810POPC   C2B13208  19.968   5.354   8.253
 5810POPC   C3B13209  19.960   5.304   7.953
 5810POPC   C4B13210  19.991   5.309   7.653
 5811POPC   NC313211   3.547   3.518   9.453
 5811POPC   PO413212   3.536   3.509   9.153
 5811POPC   GL113213   3.588   3.563   8.853
 5811POPC   GL213214   3.615   3.609   8.853
 5811POPC   C1A13215   3.503   3.549   8.553
 5811POPC   D2A13216   3.525   3.585   8.253
 5811POPC   C3A13217   3.504   3.561   7.953
 5811POPC   C4A13218   3.517   3.523   7.653
 5811POPC   C1B13219   3.817   3.567   8.553
 5811POPC   C2B13220   3.782   3.576   8.253
 5811POPC   C3B13221   3.804   3.621   7.953
 5811POPC   C4B13222   3.795   3.572   7.653
 5812POPC   NC313223  29.180   4.356   9.453
 5812POPC   PO413224  29.120   4.268   9.153
 5812POPC   GL113225  29.146   4.293   8.853
 5812POPC   GL213226  29.078   4.229   8.853
 5812POPC   C1A13227  29.136   4.347   8.553
 5812POPC   D2A13228  29.175   4.366   8.253
 5812POPC   C3A13229  29.108   4.319   7.953
 5812POPC   C4A13230  29.185   4.271   7.653
 5812POPC   C1B13231  28.876   4.201   8.553
 5812POPC   C2B13232  28.880   4.193   8.253
 5812POPC   C3B13233  28.925   4.238   7.953
 5812POPC   C4B13234  28.954   4.252   7.653
 5813POPC   NC313235   8.978  38.449   9.453
 5813POPC   PO413236   8.939  38.453   9.153
 5813POPC   GL113237   9.002  38.486   8.853
 5813POPC   GL213238   8.876  38.560   8.853
 5813POPC   C1A13239   8.998  38.414   8.553
 5813POPC   D2A13240   8.979  38.434   8.253
 5813POPC   C3A13241   9.022  38.483   7.953
 5813POPC   C4A13242   8.938  38.431   7.653
 5813POPC   C1B13243   8.796  38.589   8.553
 5813POPC   C2B13244   8.819  38.657   8.253
 5813POPC   C3B13245   8.779  38.622   7.953
 5813POPC   C4B13246   8.818  38.600   7.653
 5814POPC   NC313247   0.402  32.979   9.453
 5814POPC   PO413248   0.454  33.055   9.153
 5814POPC   GL113249   0.449  33.052   8.853
 5814POPC   GL213250   0.561  32.951   8.853
 5814POPC   C1A13251   0.434  32.993   8.553
 5814POPC   D2A13252   0.417  32.979   8.253
 5814POPC   C3A13253   0.484  32.980   7.953
 5814POPC   C4A13254   0.486  33.016   7.653
 5814POPC   C1B13255   0.725  32.964   8.553
 5814POPC   C2B13256   0.638  32.971   8.253
 5814POPC   C3B13257   0.681  32.989   7.953
 5814POPC   C4B13258   0.635  32.983   7.653
 5815POPC   NC313259  16.709  12.815   9.453
 5815POPC   PO413260  16.768  12.885   9.153
 5815POPC   GL113261  16.779  12.866   8.853
 5815POPC   GL213262  16.739  12.990   8.853
 5815POPC   C1A13263  16.761  12.885   8.553
 5815POPC   D2A13264  16.765  12.896   8.253
 5815POPC   C3A13265  16.725  12.832   7.953
 5815POPC   C4A13266  16.708  12.822   7.653
 5815POPC   C1B13267  16.746  13.094   8.553
 5815POPC   C2B13268  16.682  13.088   8.253
 5815POPC   C3B13269  16.717  13.098   7.953
 5815POPC   C4B13270  16.715  13.128   7.653
 5816POPC   NC313271  20.591   2.762   9.453
 5816POPC   PO413272  20.595   2.783   9.153
 5816POPC   GL113273  20.660   2.795   8.853
 5816POPC   GL213274  20.649   2.686   8.853
 5816POPC   C1A13275  20.607   2.741   8.553
 5816POPC   D2A13276  20.561   2.733   8.253
 5816POPC   C3A13277  20.586   2.749   7.953
 5816POPC   C4A13278  20.609   2.803   7.653
 5816POPC   C1B13279  20.689   2.539   8.553
 5816POPC   C2B13280  20.675   2.559   8.253
 5816POPC   C3B13281  20.731   2.534   7.953
 5816POPC   C4B13282  20.671   2.531   7.653
 5817POPC   NC313283  28.364   3.570   9.453
 5817POPC   PO413284  28.410   3.582   9.153
 5817POPC   GL113285  28.405   3.522   8.853
 5817POPC   GL213286  28.284   3.484   8.853
 5817POPC   C1A13287  28.371   3.566   8.553
 5817POPC   D2A13288  28.412   3.590   8.253
 5817POPC   C3A13289  28.397   3.513   7.953
 5817POPC   C4A13290  28.380   3.565   7.653
 5817POPC   C1B13291  28.250   3.305   8.553
 5817POPC   C2B13292  28.206   3.303   8.253
 5817POPC   C3B13293  28.200   3.394   7.953
 5817POPC   C4B13294  28.190   3.310   7.653
 5818POPC   NC313295  19.848  13.601   9.453
 5818POPC   PO413296  19.883  13.584   9.153
 5818POPC   GL113297  19.793  13.613   8.853
 5818POPC   GL213298  19.773  13.782   8.853
 5818POPC   C1A13299  19.801  13.630   8.553
 5818POPC   D2A13300  19.833  13.676   8.253
 5818POPC   C3A13301  19.826  13.675   7.953
 5818POPC   C4A13302  19.812  13.675   7.653
 5818POPC   C1B13303  19.769  13.859   8.553
 5818POPC   C2B13304  19.812  13.852   8.253
 5818POPC   C3B13305  19.727  13.890   7.953
 5818POPC   C4B13306  19.723  13.843   7.653
 5819POPC   NC313307   4.321  34.606   9.453
 5819POPC   PO413308   4.303  34.530   9.153
 5819POPC   GL113309   4.279  34.533   8.853
 5819POPC   GL213310   4.236  34.515   8.853
 5819POPC   C1A13311   4.294  34.555   8.553
 5819POPC   D2A13312   4.359  34.534   8.253
 5819POPC   C3A13313   4.344  34.617   7.953
 5819POPC   C4A13314   4.288  34.573   7.653
 5819POPC   C1B13315   4.063  34.548   8.553
 5819POPC   C2B13316   4.054  34.589   8.253
 5819POPC   C3B13317   4.114  34.505   7.953
 5819POPC   C4B13318   4.054  34.556   7.653
 5820POPC   NC313319  15.946  12.113   9.453
 5820POPC   PO413320  15.971  12.046   9.153
 5820POPC   GL113321  15.956  12.089   8.853
 5820POPC   GL213322  15.993  12.235   8.853
 5820POPC   C1A13323  16.002  12.052   8.553
 5820POPC   D2A13324  15.998  12.108   8.253
 5820POPC   C3A13325  15.951  12.054   7.953
 5820POPC   C4A13326  15.999  12.050   7.653
 5820POPC   C1B13327  16.038  12.281   8.553
 5820POPC   C2B13328  16.056  12.322   8.253
 5820POPC   C3B13329  16.083  12.272   7.953
 5820POPC   C4B13330  16.043  12.269   7.653
 5821POPC   NC313331   6.669  29.184   9.453
 5821POPC   PO413332   6.622  29.105   9.153
 5821POPC   GL113333   6.608  29.181   8.853
 5821POPC   GL213334   6.611  29.081   8.853
 5821POPC   C1A13335   6.686  29.098   8.553
 5821POPC   D2A13336   6.615  29.144   8.253
 5821POPC   C3A13337   6.632  29.132   7.953
 5821POPC   C4A13338   6.662  29.096   7.653
 5821POPC   C1B13339   6.548  28.940   8.553
 5821POPC   C2B13340   6.583  28.964   8.253
 5821POPC   C3B13341   6.501  28.957   7.953
 5821POPC   C4B13342   6.488  28.904   7.653
 5822POPC   NC313343  35.375  22.958   9.453
 5822POPC   PO413344  35.348  22.905   9.153
 5822POPC   GL113345  35.343  22.892   8.853
 5822POPC   GL213346  35.260  22.870   8.853
 5822POPC   C1A13347  35.331  22.987   8.553
 5822POPC   D2A13348  35.378  22.967   8.253
 5822POPC   C3A13349  35.369  22.923   7.953
 5822POPC   C4A13350  35.350  22.979   7.653
 5822POPC   C1B13351  35.109  22.800   8.553
 5822POPC   C2B13352  35.108  22.831   8.253
 5822POPC   C3B13353  35.188  22.766   7.953
 5822POPC   C4B13354  35.123  22.790   7.653
 5823POPC   NC313355  33.828   9.723   9.453
 5823POPC   PO413356  33.822   9.737   9.153
 5823POPC   GL113357  33.808   9.787   8.853
 5823POPC   GL213358  33.730   9.690   8.853
 5823POPC   C1A13359  33.799   9.711   8.553
 5823POPC   D2A13360  33.783   9.766   8.253
 5823POPC   C3A13361  33.765   9.774   7.953
 5823POPC   C4A13362  33.796   9.749   7.653
 5823POPC   C1B13363  33.583   9.586   8.553
 5823POPC   C2B13364  33.610   9.533   8.253
 5823POPC   C3B13365  33.583   9.565   7.953
 5823POPC   C4B13366  33.634   9.547   7.653
 5824POPC   NC313367  13.651  11.312   9.453
 5824POPC   PO413368  13.634  11.295   9.153
 5824POPC   GL113369  13.674  11.271   8.853
 5824POPC   GL213370  13.610  11.384   8.853
 5824POPC   C1A13371  13.614  11.263   8.553
 5824POPC   D2A13372  13.635  11.262   8.253
 5824POPC   C3A13373  13.640  11.295   7.953
 5824POPC   C4A13374  13.583  11.331   7.653
 5824POPC   C1B13375  13.617  11.512   8.553
 5824POPC   C2B13376  13.658  11.508   8.253
 5824POPC   C3B13377  13.699  11.525   7.953
 5824POPC   C4B13378  13.657  11.563   7.653
 5825POPC   NC313379   4.359   7.399   9.453
 5825POPC   PO413380   4.323   7.375   9.153
 5825POPC   GL113381   4.356   7.378   8.853
 5825POPC   GL213382   4.262   7.360   8.853
 5825POPC   C1A13383   4.353   7.452   8.553
 5825POPC   D2A13384   4.366   7.381   8.253
 5825POPC   C3A13385   4.290   7.396   7.953
 5825POPC   C4A13386   4.347   7.455   7.653
 5825POPC   C1B13387   4.162   7.232   8.553
 5825POPC   C2B13388   4.172   7.294   8.253
 5825POPC   C3B13389   4.090   7.234   7.953
 5825POPC   C4B13390   4.150   7.280   7.653
 5826POPC   NC313391  22.954  18.294   9.453
 5826POPC   PO413392  22.975  18.307   9.153
 5826POPC   GL113393  22.969  18.332   8.853
 5826POPC   GL213394  23.003  18.210   8.853
 5826POPC   C1A13395  22.905  18.257   8.553
 5826POPC   D2A13396  22.888  18.302   8.253
 5826POPC   C3A13397  22.897  18.266   7.953
 5826POPC   C4A13398  22.916  18.273   7.653
 5826POPC   C1B13399  23.174  18.194   8.553
 5826POPC   C2B13400  23.150  18.183   8.253
 5826POPC   C3B13401  23.173  18.159   7.953
 5826POPC   C4B13402  23.172  18.191   7.653
 5827POPC   NC313403   8.970  11.275   9.453
 5827POPC   PO413404   8.954  11.294   9.153
 5827POPC   GL113405   9.017  11.262   8.853
 5827POPC   GL213406   8.863  11.350   8.853
 5827POPC   C1A13407   9.000  11.291   8.553
 5827POPC   D2A13408   8.947  11.257   8.253
 5827POPC   C3A13409   8.992  11.303   7.953
 5827POPC   C4A13410   8.979  11.319   7.653
 5827POPC   C1B13411   8.718  11.276   8.553
 5827POPC   C2B13412   8.761  11.357   8.253
 5827POPC   C3B13413   8.761  11.284   7.953
 5827POPC   C4B13414   8.702  11.287   7.653
 5828POPC   NC313415  41.567   9.724   9.453
 5828POPC   PO413416  41.579   9.783   9.153
 5828POPC   GL113417  41.588   9.750   8.853
 5828POPC   GL213418  41.606   9.872   8.853
 5828POPC   C1A13419  41.528   9.718   8.553
 5828POPC   D2A13420  41.600   9.788   8.253
 5828POPC   C3A13421  41.536   9.761   7.953
 5828POPC   C4A13422  41.557   9.705   7.653
 5828POPC   C1B13423  41.645   9.994   8.553
 5828POPC   C2B13424  41.646  10.000   8.253
 5828POPC   C3B13425  41.610  10.020   7.953
 5828POPC   C4B13426  41.666   9.949   7.653
 5829POPC   NC313427  32.982  43.873   9.453
 5829POPC   PO413428  33.028  43.839   9.153
 5829POPC   GL113429  33.020  43.920   8.853
 5829POPC   GL213430  32.928  43.891   8.853
 5829POPC   C1A13431  32.997  43.891   8.553
 5829POPC   D2A13432  33.066  43.927   8.253
 5829POPC   C3A13433  33.061  43.854   7.953
 5829POPC   C4A13434  33.043  43.880   7.653
 5829POPC   C1B13435  32.828  43.990   8.553
 5829POPC   C2B13436  32.760  43.927   8.253
 5829POPC   C3B13437  32.760  43.904   7.953
 5829POPC   C4B13438  32.758  43.979   7.653
 5830POPC   NC313439  19.847   6.674   9.453
 5830POPC   PO413440  19.865   6.627   9.153
 5830POPC   GL113441  19.855   6.674   8.853
 5830POPC   GL213442  19.763   6.614   8.853
 5830POPC   C1A13443  19.875   6.693   8.553
 5830POPC   D2A13444  19.871   6.631   8.253
 5830POPC   C3A13445  19.883   6.609   7.953
 5830POPC   C4A13446  19.881   6.619   7.653
 5830POPC   C1B13447  19.657   6.532   8.553
 5830POPC   C2B13448  19.592   6.463   8.253
 5830POPC   C3B13449  19.620   6.498   7.953
 5830POPC   C4B13450  19.592   6.488   7.653
 5831POPC   NC313451   5.122  11.311   9.453
 5831POPC   PO413452   5.096  11.307   9.153
 5831POPC   GL113453   5.107  11.276   8.853
 5831POPC   GL213454   4.949  11.363   8.853
 5831POPC   C1A13455   5.089  11.303   8.553
 5831POPC   D2A13456   5.114  11.264   8.253
 5831POPC   C3A13457   5.086  11.291   7.953
 5831POPC   C4A13458   5.125  11.315   7.653
 5831POPC   C1B13459   4.835  11.392   8.553
 5831POPC   C2B13460   4.870  11.456   8.253
 5831POPC   C3B13461   4.840  11.391   7.953
 5831POPC   C4B13462   4.859  11.390   7.653
 5832POPC   NC313463  30.733  26.038   9.453
 5832POPC   PO413464  30.693  25.992   9.153
 5832POPC   GL113465  30.683  26.089   8.853
 5832POPC   GL213466  30.558  26.001   8.853
 5832POPC   C1A13467  30.707  26.083   8.553
 5832POPC   D2A13468  30.738  26.087   8.253
 5832POPC   C3A13469  30.734  26.022   7.953
 5832POPC   C4A13470  30.668  26.001   7.653
 5832POPC   C1B13471  30.433  25.933   8.553
 5832POPC   C2B13472  30.448  25.922   8.253
 5832POPC   C3B13473  30.514  25.968   7.953
 5832POPC   C4B13474  30.469  25.960   7.653
 5833POPC   NC313475  39.262  26.811   9.453
 5833POPC   PO413476  39.268  26.833   9.153
 5833POPC   GL113477  39.245  26.820   8.853
 5833POPC   GL213478  39.304  26.746   8.853
 5833POPC   C1A13479  39.216  26.817   8.553
 5833POPC   D2A13480  39.184  26.768   8.253
 5833POPC   C3A13481  39.218  26.770   7.953
 5833POPC   C4A13482  39.220  26.778   7.653
 5833POPC   C1B13483  39.304  26.604   8.553
 5833POPC   C2B13484  39.315  26.531   8.253
 5833POPC   C3B13485  39.325  26.533   7.953
 5833POPC   C4B13486  39.326  26.594   7.653
 5834POPC   NC313487  14.379   2.810   9.453
 5834POPC   PO413488  14.426   2.778   9.153
 5834POPC   GL113489  14.425   2.720   8.853
 5834POPC   GL213490  14.417   2.622   8.853
 5834POPC   C1A13491  14.411   2.729   8.553
 5834POPC   D2A13492  14.368   2.763   8.253
 5834POPC   C3A13493  14.425   2.759   7.953
 5834POPC   C4A13494  14.398   2.780   7.653
 5834POPC   C1B13495  14.315   2.520   8.553
 5834POPC   C2B13496  14.321   2.486   8.253
 5834POPC   C3B13497  14.338   2.490   7.953
 5834POPC   C4B13498  14.373   2.556   7.653
 5835POPC   NC313499  15.181   4.298   9.453
 5835POPC   PO413500  15.193   4.313   9.153
 5835POPC   GL113501  15.228   4.277   8.853
 5835POPC   GL213502  15.201   4.152   8.853
 5835POPC   C1A13503  15.133   4.336   8.553
 5835POPC   D2A13504  15.171   4.332   8.253
 5835POPC   C3A13505  15.136   4.352   7.953
 5835POPC   C4A13506  15.152   4.342   7.653
 5835POPC   C1B13507  15.237   4.063   8.553
 5835POPC   C2B13508  15.224   4.046   8.253
 5835POPC   C3B13509  15.223   4.029   7.953
 5835POPC   C4B13510  15.204   4.106   7.653
 5836POPC   NC313511  15.219  11.261   9.453
 5836POPC   PO413512  15.191  11.335   9.153
 5836POPC   GL113513  15.225  11.260   8.853
 5836POPC   GL213514  15.186  11.422   8.853
 5836POPC   C1A13515  15.209  11.256   8.553
 5836POPC   D2A13516  15.212  11.332   8.253
 5836POPC   C3A13517  15.185  11.278   7.953
 5836POPC   C4A13518  15.165  11.314   7.653
 5836POPC   C1B13519  15.139  11.515   8.553
 5836POPC   C2B13520  15.164  11.538   8.253
 5836POPC   C3B13521  15.172  11.500   7.953
 5836POPC   C4B13522  15.182  11.538   7.653
 5837POPC   NC313523  43.925  29.952   9.453
 5837POPC   PO413524  43.850  29.970   9.153
 5837POPC   GL113525  43.880  29.915   8.853
 5837POPC   GL213526  43.958  29.844   8.853
 5837POPC   C1A13527  43.878  29.874   8.553
 5837POPC   D2A13528  43.906  29.962   8.253
 5837POPC   C3A13529  43.919  29.876   7.953
 5837POPC   C4A13530  43.933  29.893   7.653
 5837POPC   C1B13531  44.056  29.683   8.553
 5837POPC   C2B13532  43.975  29.679   8.253
 5837POPC   C3B13533  43.976  29.687   7.953
 5837POPC   C4B13534  43.976  29.695   7.653
 5838POPC   NC313535   2.781  43.065   9.453
 5838POPC   PO413536   2.779  43.121   9.153
 5838POPC   GL113537   2.775  43.157   8.853
 5838POPC   GL213538   2.769  43.232   8.853
 5838POPC   C1A13539   2.761  43.083   8.553
 5838POPC   D2A13540   2.751  43.157   8.253
 5838POPC   C3A13541   2.729  43.155   7.953
 5838POPC   C4A13542   2.736  43.102   7.653
 5838POPC   C1B13543   2.772  43.359   8.553
 5838POPC   C2B13544   2.759  43.407   8.253
 5838POPC   C3B13545   2.812  43.382   7.953
 5838POPC   C4B13546   2.789  43.350   7.653
 5839POPC   NC313547  22.971  19.034   9.453
 5839POPC   PO413548  22.916  19.033   9.153
 5839POPC   GL113549  22.964  19.105   8.853
 5839POPC   GL213550  22.822  19.175   8.853
 5839POPC   C1A13551  22.917  19.091   8.553
 5839POPC   D2A13552  22.924  19.099   8.253
 5839POPC   C3A13553  22.962  19.068   7.953
 5839POPC   C4A13554  22.919  19.053   7.653
 5839POPC   C1B13555  22.730  19.229   8.553
 5839POPC   C2B13556  22.747  19.221   8.253
 5839POPC   C3B13557  22.776  19.223   7.953
 5839POPC   C4B13558  22.810  19.211   7.653
 5840POPC   NC313559   5.825  13.602   9.453
 5840POPC   PO413560   5.882  13.637   9.153
 5840POPC   GL113561   5.911  13.614   8.853
 5840POPC   GL213562   5.925  13.740   8.853
 5840POPC   C1A13563   5.862  13.638   8.553
 5840POPC   D2A13564   5.855  13.674   8.253
 5840POPC   C3A13565   5.871  13.629   7.953
 5840POPC   C4A13566   5.841  13.629   7.653
 5840POPC   C1B13567   5.891  13.913   8.553
 5840POPC   C2B13568   5.897  13.872   8.253
 5840POPC   C3B13569   5.971  13.850   7.953
 5840POPC   C4B13570   5.954  13.865   7.653
 5841POPC   NC313571  12.064  39.232   9.453
 5841POPC   PO413572  12.123  39.193   9.153
 5841POPC   GL113573  12.120  39.256   8.853
 5841POPC   GL213574  11.950  39.183   8.853
 5841POPC   C1A13575  12.111  39.250   8.553
 5841POPC   D2A13576  12.063  39.207   8.253
 5841POPC   C3A13577  12.090  39.222   7.953
 5841POPC   C4A13578  12.032  39.266   7.653
 5841POPC   C1B13579  11.844  39.176   8.553
 5841POPC   C2B13580  11.799  39.224   8.253
 5841POPC   C3B13581  11.841  39.216   7.953
 5841POPC   C4B13582  11.877  39.160   7.653
 5842POPC   NC313583  24.529   9.017   9.453
 5842POPC   PO413584  24.533   8.975   9.153
 5842POPC   GL113585  24.446   8.990   8.853
 5842POPC   GL213586  24.521   8.885   8.853
 5842POPC   C1A13587  24.487   8.932   8.553
 5842POPC   D2A13588  24.464   8.973   8.253
 5842POPC   C3A13589  24.532   9.008   7.953
 5842POPC   C4A13590  24.447   8.965   7.653
 5842POPC   C1B13591  24.604   8.788   8.553
 5842POPC   C2B13592  24.617   8.772   8.253
 5842POPC   C3B13593  24.602   8.768   7.953
 5842POPC   C4B13594  24.582   8.782   7.653
 5843POPC   NC313595   9.783  22.916   9.453
 5843POPC   PO413596   9.763  22.970   9.153
 5843POPC   GL113597   9.752  22.895   8.853
 5843POPC   GL213598   9.703  23.024   8.853
 5843POPC   C1A13599   9.710  22.947   8.553
 5843POPC   D2A13600   9.760  22.985   8.253
 5843POPC   C3A13601   9.753  22.959   7.953
 5843POPC   C4A13602   9.781  22.980   7.653
 5843POPC   C1B13603   9.628  23.193   8.553
 5843POPC   C2B13604   9.635  23.182   8.253
 5843POPC   C3B13605   9.651  23.138   7.953
 5843POPC   C4B13606   9.659  23.133   7.653
 5844POPC   NC313607  14.393  40.742   9.453
 5844POPC   PO413608  14.375  40.740   9.153
 5844POPC   GL113609  14.433  40.760   8.853
 5844POPC   GL213610  14.310  40.892   8.853
 5844POPC   C1A13611  14.359  40.797   8.553
 5844POPC   D2A13612  14.413  40.772   8.253
 5844POPC   C3A13613  14.435  40.773   7.953
 5844POPC   C4A13614  14.396  40.771   7.653
 5844POPC   C1B13615  14.184  40.930   8.553
 5844POPC   C2B13616  14.169  40.937   8.253
 5844POPC   C3B13617  14.170  40.938   7.953
 5844POPC   C4B13618  14.212  40.941   7.653
 5845POPC   NC313619  36.087  18.313   9.453
 5845POPC   PO413620  36.162  18.264   9.153
 5845POPC   GL113621  36.125  18.308   8.853
 5845POPC   GL213622  35.981  18.318   8.853
 5845POPC   C1A13623  36.109  18.305   8.553
 5845POPC   D2A13624  36.101  18.276   8.253
 5845POPC   C3A13625  36.166  18.282   7.953
 5845POPC   C4A13626  36.124  18.283   7.653
 5845POPC   C1B13627  35.883  18.259   8.553
 5845POPC   C2B13628  35.836  18.292   8.253
 5845POPC   C3B13629  35.886  18.274   7.953
 5845POPC   C4B13630  35.907  18.261   7.653
 5846POPC   NC313631  15.222   9.721   9.453
 5846POPC   PO413632  15.211   9.760   9.153
 5846POPC   GL113633  15.212   9.767   8.853
 5846POPC   GL213634  15.321   9.783   8.853
 5846POPC   C1A13635  15.225   9.716   8.553
 5846POPC   D2A13636  15.180   9.709   8.253
 5846POPC   C3A13637  15.193   9.739   7.953
 5846POPC   C4A13638  15.222   9.756   7.653
 5846POPC   C1B13639  15.460   9.793   8.553
 5846POPC   C2B13640  15.438   9.869   8.253
 5846POPC   C3B13641  15.401   9.789   7.953
 5846POPC   C4B13642  15.462   9.808   7.653
 5847POPC   NC313643  33.824  29.109   9.453
 5847POPC   PO413644  33.840  29.181   9.153
 5847POPC   GL113645  33.781  29.106   8.853
 5847POPC   GL213646  33.832  29.048   8.853
 5847POPC   C1A13647  33.803  29.162   8.553
 5847POPC   D2A13648  33.790  29.144   8.253
 5847POPC   C3A13649  33.786  29.130   7.953
 5847POPC   C4A13650  33.787  29.163   7.653
 5847POPC   C1B13651  33.950  28.948   8.553
 5847POPC   C2B13652  33.901  28.938   8.253
 5847POPC   C3B13653  33.932  28.878   7.953
 5847POPC   C4B13654  33.862  28.918   7.653
 5848POPC   NC313655   1.975   0.390   9.453
 5848POPC   PO413656   1.946   0.467   9.153
 5848POPC   GL113657   1.962   0.487   8.853
 5848POPC   GL213658   1.904   0.556   8.853
 5848POPC   C1A13659   2.038   0.448   8.553
 5848POPC   D2A13660   1.957   0.456   8.253
 5848POPC   C3A13661   1.947   0.463   7.953
 5848POPC   C4A13662   1.973   0.396   7.653
 5848POPC   C1B13663   1.794   0.597   8.553
 5848POPC   C2B13664   1.818   0.621   8.253
 5848POPC   C3B13665   1.793   0.596   7.953
 5848POPC   C4B13666   1.784   0.597   7.653
 5849POPC   NC313667  15.981   5.084   9.453
 5849POPC   PO413668  15.984   5.115   9.153
 5849POPC   GL113669  15.931   5.084   8.853
 5849POPC   GL213670  16.032   5.021   8.853
 5849POPC   C1A13671  15.996   5.117   8.553
 5849POPC   D2A13672  15.927   5.121   8.253
 5849POPC   C3A13673  15.907   5.122   7.953
 5849POPC   C4A13674  15.984   5.117   7.653
 5849POPC   C1B13675  16.209   5.082   8.553
 5849POPC   C2B13676  16.168   5.033   8.253
 5849POPC   C3B13677  16.161   5.059   7.953
 5849POPC   C4B13678  16.207   5.079   7.653
 5850POPC   NC313679   3.523  33.027   9.453
 5850POPC   PO413680   3.588  33.016   9.153
 5850POPC   GL113681   3.508  33.002   8.853
 5850POPC   GL213682   3.614  32.937   8.853
 5850POPC   C1A13683   3.560  32.975   8.553
 5850POPC   D2A13684   3.581  32.995   8.253
 5850POPC   C3A13685   3.544  33.056   7.953
 5850POPC   C4A13686   3.529  33.005   7.653
 5850POPC   C1B13687   3.680  32.771   8.553
 5850POPC   C2B13688   3.650  32.836   8.253
 5850POPC   C3B13689   3.616  32.832   7.953
 5850POPC   C4B13690   3.677  32.816   7.653
 5851POPC   NC313691  19.854  28.411   9.453
 5851POPC   PO413692  19.852  28.381   9.153
 5851POPC   GL113693  19.835  28.389   8.853
 5851POPC   GL213694  19.939  28.280   8.853
 5851POPC   C1A13695  19.790  28.376   8.553
 5851POPC   D2A13696  19.816  28.355   8.253
 5851POPC   C3A13697  19.882  28.394   7.953
 5851POPC   C4A13698  19.847  28.357   7.653
 5851POPC   C1B13699  20.036  28.165   8.553
 5851POPC   C2B13700  20.028  28.188   8.253
 5851POPC   C3B13701  20.046  28.171   7.953
 5851POPC   C4B13702  19.997  28.172   7.653
 5852POPC   NC313703  14.426  35.357   9.453
 5852POPC   PO413704  14.394  35.347   9.153
 5852POPC   GL113705  14.364  35.338   8.853
 5852POPC   GL213706  14.362  35.280   8.853
 5852POPC   C1A13707  14.431  35.350   8.553
 5852POPC   D2A13708  14.449  35.347   8.253
 5852POPC   C3A13709  14.430  35.319   7.953
 5852POPC   C4A13710  14.379  35.384   7.653
 5852POPC   C1B13711  14.262  35.127   8.553
 5852POPC   C2B13712  14.268  35.164   8.253
 5852POPC   C3B13713  14.263  35.173   7.953
 5852POPC   C4B13714  14.301  35.163   7.653
 5853POPC   NC313715  22.118  19.053   9.453
 5853POPC   PO413716  22.131  19.069   9.153
 5853POPC   GL113717  22.164  19.105   8.853
 5853POPC   GL213718  22.322  19.043   8.853
 5853POPC   C1A13719  22.113  19.104   8.553
 5853POPC   D2A13720  22.119  19.053   8.253
 5853POPC   C3A13721  22.121  19.101   7.953
 5853POPC   C4A13722  22.211  19.053   7.653
 5853POPC   C1B13723  22.420  19.001   8.553
 5853POPC   C2B13724  22.358  19.027   8.253
 5853POPC   C3B13725  22.447  19.045   7.953
 5853POPC   C4B13726  22.435  19.006   7.653
 5854POPC   NC313727   8.924  29.108   9.453
 5854POPC   PO413728   8.973  29.126   9.153
 5854POPC   GL113729   9.016  29.189   8.853
 5854POPC   GL213730   9.109  29.144   8.853
 5854POPC   C1A13731   8.929  29.103   8.553
 5854POPC   D2A13732   8.973  29.157   8.253
 5854POPC   C3A13733   8.979  29.141   7.953
 5854POPC   C4A13734   8.976  29.111   7.653
 5854POPC   C1B13735   9.229  29.221   8.553
 5854POPC   C2B13736   9.241  29.245   8.253
 5854POPC   C3B13737   9.261  29.262   7.953
 5854POPC   C4B13738   9.217  29.226   7.653
 5855POPC   NC313739  43.088   0.434   9.453
 5855POPC   PO413740  43.136   0.431   9.153
 5855POPC   GL113741  43.061   0.455   8.853
 5855POPC   GL213742  43.192   0.518   8.853
 5855POPC   C1A13743  43.075   0.397   8.553
 5855POPC   D2A13744  43.145   0.438   8.253
 5855POPC   C3A13745  43.146   0.444   7.953
 5855POPC   C4A13746  43.139   0.394   7.653
 5855POPC   C1B13747  43.327   0.478   8.553
 5855POPC   C2B13748  43.311   0.512   8.253
 5855POPC   C3B13749  43.375   0.500   7.953
 5855POPC   C4B13750  43.328   0.507   7.653
 5856POPC   NC313751  40.736  16.697   9.453
 5856POPC   PO413752  40.733  16.744   9.153
 5856POPC   GL113753  40.758  16.717   8.853
 5856POPC   GL213754  40.933  16.659   8.853
 5856POPC   C1A13755  40.774  16.776   8.553
 5856POPC   D2A13756  40.792  16.730   8.253
 5856POPC   C3A13757  40.762  16.751   7.953
 5856POPC   C4A13758  40.815  16.757   7.653
 5856POPC   C1B13759  41.045  16.644   8.553
 5856POPC   C2B13760  40.987  16.626   8.253
 5856POPC   C3B13761  41.016  16.601   7.953
 5856POPC   C4B13762  41.038  16.619   7.653
 5857POPC   NC313763  22.134   2.013   9.453
 5857POPC   PO413764  22.172   1.955   9.153
 5857POPC   GL113765  22.135   2.022   8.853
 5857POPC   GL213766  22.003   1.931   8.853
 5857POPC   C1A13767  22.143   2.013   8.553
 5857POPC   D2A13768  22.166   1.980   8.253
 5857POPC   C3A13769  22.146   1.960   7.953
 5857POPC   C4A13770  22.176   2.039   7.653
 5857POPC   C1B13771  21.949   1.962   8.553
 5857POPC   C2B13772  21.885   1.982   8.253
 5857POPC   C3B13773  21.960   1.953   7.953
 5857POPC   C4B13774  21.954   1.971   7.653
 5858POPC   NC313775  29.966  31.458   9.453
 5858POPC   PO413776  29.877  31.465   9.153
 5858POPC   GL113777  29.918  31.440   8.853
 5858POPC   GL213778  29.856  31.486   8.853
 5858POPC   C1A13779  29.942  31.462   8.553
 5858POPC   D2A13780  29.900  31.521   8.253
 5858POPC   C3A13781  29.920  31.442   7.953
 5858POPC   C4A13782  29.905  31.509   7.653
 5858POPC   C1B13783  29.663  31.621   8.553
 5858POPC   C2B13784  29.696  31.610   8.253
 5858POPC   C3B13785  29.736  31.618   7.953
 5858POPC   C4B13786  29.669  31.585   7.653
 5859POPC   NC313787  25.311  16.684   9.453
 5859POPC   PO413788  25.295  16.732   9.153
 5859POPC   GL113789  25.308  16.691   8.853
 5859POPC   GL213790  25.389  16.843   8.853
 5859POPC   C1A13791  25.220  16.735   8.553
 5859POPC   D2A13792  25.274  16.717   8.253
 5859POPC   C3A13793  25.264  16.703   7.953
 5859POPC   C4A13794  25.217  16.689   7.653
 5859POPC   C1B13795  25.468  16.872   8.553
 5859POPC   C2B13796  25.477  16.916   8.253
 5859POPC   C3B13797  25.470  16.943   7.953
 5859POPC   C4B13798  25.452  16.873   7.653
 5860POPC   NC313799  20.641   6.632   9.453
 5860POPC   PO413800  20.620   6.636   9.153
 5860POPC   GL113801  20.608   6.619   8.853
 5860POPC   GL213802  20.641   6.498   8.853
 5860POPC   C1A13803  20.614   6.635   8.553
 5860POPC   D2A13804  20.561   6.604   8.253
 5860POPC   C3A13805  20.594   6.645   7.953
 5860POPC   C4A13806  20.632   6.601   7.653
 5860POPC   C1B13807  20.701   6.401   8.553
 5860POPC   C2B13808  20.725   6.433   8.253
 5860POPC   C3B13809  20.671   6.383   7.953
 5860POPC   C4B13810  20.717   6.434   7.653
 5861POPC   NC313811  22.197   6.597   9.453
 5861POPC   PO413812  22.207   6.595   9.153
 5861POPC   GL113813  22.139   6.660   8.853
 5861POPC   GL213814  22.250   6.566   8.853
 5861POPC   C1A13815  22.170   6.601   8.553
 5861POPC   D2A13816  22.137   6.603   8.253
 5861POPC   C3A13817  22.152   6.675   7.953
 5861POPC   C4A13818  22.155   6.643   7.653
 5861POPC   C1B13819  22.425   6.593   8.553
 5861POPC   C2B13820  22.448   6.540   8.253
 5861POPC   C3B13821  22.377   6.593   7.953
 5861POPC   C4B13822  22.386   6.599   7.653
 5862POPC   NC313823  17.510   6.651   9.453
 5862POPC   PO413824  17.540   6.624   9.153
 5862POPC   GL113825  17.488   6.622   8.853
 5862POPC   GL213826  17.354   6.637   8.853
 5862POPC   C1A13827  17.525   6.616   8.553
 5862POPC   D2A13828  17.459   6.657   8.253
 5862POPC   C3A13829  17.529   6.646   7.953
 5862POPC   C4A13830  17.502   6.648   7.653
 5862POPC   C1B13831  17.225   6.698   8.553
 5862POPC   C2B13832  17.279   6.683   8.253
 5862POPC   C3B13833  17.214   6.621   7.953
 5862POPC   C4B13834  17.276   6.709   7.653
 5863POPC   NC313835  44.697  29.166   9.453
 5863POPC   PO413836  44.625  29.139   9.153
 5863POPC   GL113837  44.646  29.118   8.853
 5863POPC   GL213838  44.774  29.080   8.853
 5863POPC   C1A13839  44.689  29.160   8.553
 5863POPC   D2A13840  44.675  29.127   8.253
 5863POPC   C3A13841  44.708  29.173   7.953
 5863POPC   C4A13842  44.639  29.117   7.653
 5863POPC   C1B13843  44.868  29.069   8.553
 5863POPC   C2B13844  44.910  29.123   8.253
 5863POPC   C3B13845  44.957  29.121   7.953
 5863POPC   C4B13846  44.874  29.116   7.653
 5864POPC   NC313847  29.194  41.589   9.453
 5864POPC   PO413848  29.128  41.592   9.153
 5864POPC   GL113849  29.120  41.608   8.853
 5864POPC   GL213850  29.070  41.547   8.853
 5864POPC   C1A13851  29.150  41.583   8.553
 5864POPC   D2A13852  29.118  41.532   8.253
 5864POPC   C3A13853  29.142  41.584   7.953
 5864POPC   C4A13854  29.185  41.571   7.653
 5864POPC   C1B13855  28.882  41.604   8.553
 5864POPC   C2B13856  28.866  41.623   8.253
 5864POPC   C3B13857  28.932  41.590   7.953
 5864POPC   C4B13858  28.900  41.592   7.653
 5865POPC   NC313859  14.389  18.327   9.453
 5865POPC   PO413860  14.390  18.290   9.153
 5865POPC   GL113861  14.364  18.263   8.853
 5865POPC   GL213862  14.356  18.115   8.853
 5865POPC   C1A13863  14.423  18.244   8.553
 5865POPC   D2A13864  14.408  18.276   8.253
 5865POPC   C3A13865  14.440  18.284   7.953
 5865POPC   C4A13866  14.404  18.319   7.653
 5865POPC   C1B13867  14.349  18.018   8.553
 5865POPC   C2B13868  14.308  18.071   8.253
 5865POPC   C3B13869  14.362  18.043   7.953
 5865POPC   C4B13870  14.368  18.080   7.653
 5866POPC   NC313871  18.307  36.895   9.453
 5866POPC   PO413872  18.277  36.948   9.153
 5866POPC   GL113873  18.263  36.918   8.853
 5866POPC   GL213874  18.290  36.763   8.853
 5866POPC   C1A13875  18.247  36.855   8.553
 5866POPC   D2A13876  18.314  36.875   8.253
 5866POPC   C3A13877  18.321  36.887   7.953
 5866POPC   C4A13878  18.257  36.855   7.653
 5866POPC   C1B13879  18.366  36.699   8.553
 5866POPC   C2B13880  18.376  36.666   8.253
 5866POPC   C3B13881  18.313  36.683   7.953
 5866POPC   C4B13882  18.365  36.669   7.653
 5867POPC   NC313883  12.090  33.827   9.453
 5867POPC   PO413884  12.121  33.789   9.153
 5867POPC   GL113885  12.094  33.845   8.853
 5867POPC   GL213886  12.205  33.856   8.853
 5867POPC   C1A13887  12.028  33.756   8.553
 5867POPC   D2A13888  12.090  33.792   8.253
 5867POPC   C3A13889  12.029  33.824   7.953
 5867POPC   C4A13890  12.053  33.777   7.653
 5867POPC   C1B13891  12.337  33.914   8.553
 5867POPC   C2B13892  12.318  33.927   8.253
 5867POPC   C3B13893  12.352  33.928   7.953
 5867POPC   C4B13894  12.327  33.886   7.653
 5868POPC   NC313895   8.151  42.371   9.453
 5868POPC   PO413896   8.167  42.349   9.153
 5868POPC   GL113897   8.237  42.346   8.853
 5868POPC   GL213898   8.275  42.454   8.853
 5868POPC   C1A13899   8.164  42.348   8.553
 5868POPC   D2A13900   8.162  42.291   8.253
 5868POPC   C3A13901   8.184  42.382   7.953
 5868POPC   C4A13902   8.214  42.309   7.653
 5868POPC   C1B13903   8.347  42.561   8.553
 5868POPC   C2B13904   8.377  42.490   8.253
 5868POPC   C3B13905   8.367  42.505   7.953
 5868POPC   C4B13906   8.341  42.536   7.653
 5869POPC   NC313907  28.320  43.153   9.453
 5869POPC   PO413908  28.343  43.075   9.153
 5869POPC   GL113909  28.356  43.086   8.853
 5869POPC   GL213910  28.454  42.996   8.853
 5869POPC   C1A13911  28.368  43.142   8.553
 5869POPC   D2A13912  28.380  43.079   8.253
 5869POPC   C3A13913  28.373  43.116   7.953
 5869POPC   C4A13914  28.350  43.148   7.653
 5869POPC   C1B13915  28.614  43.006   8.553
 5869POPC   C2B13916  28.578  43.001   8.253
 5869POPC   C3B13917  28.596  42.931   7.953
 5869POPC   C4B13918  28.600  42.933   7.653
 5870POPC   NC313919  39.237  25.242   9.453
 5870POPC   PO413920  39.214  25.252   9.153
 5870POPC   GL113921  39.206  25.221   8.853
 5870POPC   GL213922  39.282  25.324   8.853
 5870POPC   C1A13923  39.216  25.293   8.553
 5870POPC   D2A13924  39.241  25.289   8.253
 5870POPC   C3A13925  39.242  25.257   7.953
 5870POPC   C4A13926  39.218  25.298   7.653
 5870POPC   C1B13927  39.421  25.380   8.553
 5870POPC   C2B13928  39.453  25.437   8.253
 5870POPC   C3B13929  39.401  25.474   7.953
 5870POPC   C4B13930  39.466  25.391   7.653
 5871POPC   NC313931  40.041  22.172   9.453
 5871POPC   PO413932  40.001  22.123   9.153
 5871POPC   GL113933  40.002  22.129   8.853
 5871POPC   GL213934  40.028  22.057   8.853
 5871POPC   C1A13935  39.987  22.175   8.553
 5871POPC   D2A13936  40.047  22.181   8.253
 5871POPC   C3A13937  39.990  22.191   7.953
 5871POPC   C4A13938  40.051  22.139   7.653
 5871POPC   C1B13939  40.190  21.937   8.553
 5871POPC   C2B13940  40.105  21.924   8.253
 5871POPC   C3B13941  40.116  21.998   7.953
 5871POPC   C4B13942  40.180  21.918   7.653
 5872POPC   NC313943   8.995   8.214   9.453
 5872POPC   PO413944   8.967   8.178   9.153
 5872POPC   GL113945   8.981   8.169   8.853
 5872POPC   GL213946   8.808   8.142   8.853
 5872POPC   C1A13947   8.947   8.198   8.553
 5872POPC   D2A13948   8.985   8.172   8.253
 5872POPC   C3A13949   9.001   8.172   7.953
 5872POPC   C4A13950   8.924   8.173   7.653
 5872POPC   C1B13951   8.736   8.132   8.553
 5872POPC   C2B13952   8.693   8.183   8.253
 5872POPC   C3B13953   8.698   8.144   7.953
 5872POPC   C4B13954   8.695   8.091   7.653
 5873POPC   NC313955  37.712  43.138   9.453
 5873POPC   PO413956  37.684  43.120   9.153
 5873POPC   GL113957  37.699  43.064   8.853
 5873POPC   GL213958  37.699  42.947   8.853
 5873POPC   C1A13959  37.669  43.114   8.553
 5873POPC   D2A13960  37.633  43.098   8.253
 5873POPC   C3A13961  37.683  43.114   7.953
 5873POPC   C4A13962  37.729  43.158   7.653
 5873POPC   C1B13963  37.755  42.860   8.553
 5873POPC   C2B13964  37.812  42.834   8.253
 5873POPC   C3B13965  37.727  42.927   7.953
 5873POPC   C4B13966  37.757  42.840   7.653
 5874POPC   NC313967  32.989   7.419   9.453
 5874POPC   PO413968  33.057   7.444   9.153
 5874POPC   GL113969  33.048   7.406   8.853
 5874POPC   GL213970  33.121   7.300   8.853
 5874POPC   C1A13971  33.071   7.437   8.553
 5874POPC   D2A13972  33.042   7.374   8.253
 5874POPC   C3A13973  33.027   7.442   7.953
 5874POPC   C4A13974  32.978   7.417   7.653
 5874POPC   C1B13975  33.100   7.214   8.553
 5874POPC   C2B13976  33.188   7.195   8.253
 5874POPC   C3B13977  33.140   7.250   7.953
 5874POPC   C4B13978  33.193   7.219   7.653
 5875POPC   NC313979  13.627  38.479   9.453
 5875POPC   PO413980  13.673  38.447   9.153
 5875POPC   GL113981  13.632  38.430   8.853
 5875POPC   GL213982  13.695  38.375   8.853
 5875POPC   C1A13983  13.622  38.472   8.553
 5875POPC   D2A13984  13.654  38.433   8.253
 5875POPC   C3A13985  13.580  38.409   7.953
 5875POPC   C4A13986  13.580  38.433   7.653
 5875POPC   C1B13987  13.786  38.253   8.553
 5875POPC   C2B13988  13.802  38.295   8.253
 5875POPC   C3B13989  13.842  38.324   7.953
 5875POPC   C4B13990  13.756  38.307   7.653
 5876POPC   NC313991  42.349  43.102   9.453
 5876POPC   PO413992  42.368  43.068   9.153
 5876POPC   GL113993  42.331  43.139   8.853
 5876POPC   GL213994  42.462  43.098   8.853
 5876POPC   C1A13995  42.375  43.105   8.553
 5876POPC   D2A13996  42.373  43.106   8.253
 5876POPC   C3A13997  42.321  43.119   7.953
 5876POPC   C4A13998  42.337  43.091   7.653
 5876POPC   C1B13999  42.538  43.138   8.553
 5876POPC   C2B14000  42.547  43.107   8.253
 5876POPC   C3B14001  42.606  43.131   7.953
 5876POPC   C4B14002  42.551  43.114   7.653
 5877POPC   NC314003   5.825  43.065   9.453
 5877POPC   PO414004   5.911  43.082   9.153
 5877POPC   GL114005   5.825  43.157   8.853
 5877POPC   GL214006   5.976  43.184   8.853
 5877POPC   C1A14007   5.824  43.108   8.553
 5877POPC   D2A14008   5.866  43.091   8.253
 5877POPC   C3A14009   5.880  43.153   7.953
 5877POPC   C4A14010   5.827  43.154   7.653
 5877POPC   C1B14011   6.013  43.317   8.553
 5877POPC   C2B14012   6.011  43.326   8.253
 5877POPC   C3B14013   6.024  43.298   7.953
 5877POPC   C4B14014   6.026  43.260   7.653
 5878POPC   NC314015  15.199  20.612   9.453
 5878POPC   PO414016  15.210  20.596   9.153
 5878POPC   GL114017  15.136  20.589   8.853
 5878POPC   GL214018  15.080  20.564   8.853
 5878POPC   C1A14019  15.200  20.608   8.553
 5878POPC   D2A14020  15.136  20.630   8.253
 5878POPC   C3A14021  15.142  20.646   7.953
 5878POPC   C4A14022  15.179  20.605   7.653
 5878POPC   C1B14023  14.979  20.469   8.553
 5878POPC   C2B14024  15.018  20.461   8.253
 5878POPC   C3B14025  14.957  20.386   7.953
 5878POPC   C4B14026  14.953  20.473   7.653
 5879POPC   NC314027  29.116  14.449   9.453
 5879POPC   PO414028  29.125  14.360   9.153
 5879POPC   GL114029  29.145  14.444   8.853
 5879POPC   GL214030  29.160  14.267   8.853
 5879POPC   C1A14031  29.161  14.405   8.553
 5879POPC   D2A14032  29.179  14.365   8.253
 5879POPC   C3A14033  29.160  14.420   7.953
 5879POPC   C4A14034  29.144  14.392   7.653
 5879POPC   C1B14035  29.085  14.168   8.553
 5879POPC   C2B14036  29.160  14.116   8.253
 5879POPC   C3B14037  29.065  14.161   7.953
 5879POPC   C4B14038  29.144  14.123   7.653
 5880POPC   NC314039  42.331   8.158   9.453
 5880POPC   PO414040  42.334   8.181   9.153
 5880POPC   GL114041  42.380   8.240   8.853
 5880POPC   GL214042  42.219   8.113   8.853
 5880POPC   C1A14043  42.344   8.183   8.553
 5880POPC   D2A14044  42.331   8.157   8.253
 5880POPC   C3A14045  42.346   8.231   7.953
 5880POPC   C4A14046  42.376   8.223   7.653
 5880POPC   C1B14047  42.086   8.062   8.553
 5880POPC   C2B14048  42.094   8.037   8.253
 5880POPC   C3B14049  42.128   8.039   7.953
 5880POPC   C4B14050  42.152   8.041   7.653
 5881POPC   NC314051  16.694  33.021   9.453
 5881POPC   PO414052  16.748  33.026   9.153
 5881POPC   GL114053  16.696  33.071   8.853
 5881POPC   GL214054  16.778  32.922   8.853
 5881POPC   C1A14055  16.726  33.071   8.553
 5881POPC   D2A14056  16.731  33.049   8.253
 5881POPC   C3A14057  16.712  32.982   7.953
 5881POPC   C4A14058  16.740  33.069   7.653
 5881POPC   C1B14059  16.724  32.741   8.553
 5881POPC   C2B14060  16.735  32.769   8.253
 5881POPC   C3B14061  16.786  32.739   7.953
 5881POPC   C4B14062  16.767  32.754   7.653
 5882POPC   NC314063   5.133  35.335   9.453
 5882POPC   PO414064   5.135  35.382   9.153
 5882POPC   GL114065   5.086  35.349   8.853
 5882POPC   GL214066   5.001  35.323   8.853
 5882POPC   C1A14067   5.060  35.367   8.553
 5882POPC   D2A14068   5.052  35.339   8.253
 5882POPC   C3A14069   5.135  35.317   7.953
 5882POPC   C4A14070   5.100  35.332   7.653
 5882POPC   C1B14071   4.880  35.281   8.553
 5882POPC   C2B14072   4.845  35.267   8.253
 5882POPC   C3B14073   4.877  35.269   7.953
 5882POPC   C4B14074   4.882  35.302   7.653
 5883POPC   NC314075   1.257  18.306   9.453
 5883POPC   PO414076   1.167  18.308   9.153
 5883POPC   GL114077   1.226  18.326   8.853
 5883POPC   GL214078   1.249  18.430   8.853
 5883POPC   C1A14079   1.218  18.303   8.553
 5883POPC   D2A14080   1.178  18.293   8.253
 5883POPC   C3A14081   1.262  18.319   7.953
 5883POPC   C4A14082   1.178  18.319   7.653
 5883POPC   C1B14083   1.261  18.531   8.553
 5883POPC   C2B14084   1.237  18.497   8.253
 5883POPC   C3B14085   1.303  18.504   7.953
 5883POPC   C4B14086   1.264  18.500   7.653
 5884POPC   NC314087  28.357  39.958   9.453
 5884POPC   PO414088  28.320  40.018   9.153
 5884POPC   GL114089  28.397  39.995   8.853
 5884POPC   GL214090  28.241  40.006   8.853
 5884POPC   C1A14091  28.365  40.000   8.553
 5884POPC   D2A14092  28.357  40.029   8.253
 5884POPC   C3A14093  28.384  39.991   7.953
 5884POPC   C4A14094  28.319  40.031   7.653
 5884POPC   C1B14095  28.115  39.987   8.553
 5884POPC   C2B14096  28.128  40.014   8.253
 5884POPC   C3B14097  28.127  40.055   7.953
 5884POPC   C4B14098  28.165  40.027   7.653
 5885POPC   NC314099  33.823   2.752   9.453
 5885POPC   PO414100  33.817   2.732   9.153
 5885POPC   GL114101  33.792   2.751   8.853
 5885POPC   GL214102  33.850   2.723   8.853
 5885POPC   C1A14103  33.805   2.737   8.553
 5885POPC   D2A14104  33.773   2.753   8.253
 5885POPC   C3A14105  33.827   2.793   7.953
 5885POPC   C4A14106  33.812   2.777   7.653
 5885POPC   C1B14107  34.011   2.638   8.553
 5885POPC   C2B14108  33.992   2.620   8.253
 5885POPC   C3B14109  34.031   2.595   7.953
 5885POPC   C4B14110  33.942   2.639   7.653
 5886POPC   NC314111  28.337  26.847   9.453
 5886POPC   PO414112  28.358  26.821   9.153
 5886POPC   GL114113  28.372  26.847   8.853
 5886POPC   GL214114  28.270  26.707   8.853
 5886POPC   C1A14115  28.339  26.844   8.553
 5886POPC   D2A14116  28.402  26.861   8.253
 5886POPC   C3A14117  28.367  26.847   7.953
 5886POPC   C4A14118  28.374  26.816   7.653
 5886POPC   C1B14119  28.181  26.584   8.553
 5886POPC   C2B14120  28.237  26.563   8.253
 5886POPC   C3B14121  28.220  26.621   7.953
 5886POPC   C4B14122  28.191  26.593   7.653
 5887POPC   NC314123  27.548  13.592   9.453
 5887POPC   PO414124  27.551  13.603   9.153
 5887POPC   GL114125  27.600  13.670   8.853
 5887POPC   GL214126  27.477  13.626   8.853
 5887POPC   C1A14127  27.555  13.614   8.553
 5887POPC   D2A14128  27.643  13.666   8.253
 5887POPC   C3A14129  27.552  13.619   7.953
 5887POPC   C4A14130  27.552  13.665   7.653
 5887POPC   C1B14131  27.308  13.638   8.553
 5887POPC   C2B14132  27.329  13.656   8.253
 5887POPC   C3B14133  27.363  13.585   7.953
 5887POPC   C4B14134  27.357  13.667   7.653
 5888POPC   NC314135  35.371  20.653   9.453
 5888POPC   PO414136  35.354  20.615   9.153
 5888POPC   GL114137  35.342  20.572   8.853
 5888POPC   GL214138  35.269  20.662   8.853
 5888POPC   C1A14139  35.329  20.650   8.553
 5888POPC   D2A14140  35.392  20.629   8.253
 5888POPC   C3A14141  35.306  20.639   7.953
 5888POPC   C4A14142  35.319  20.591   7.653
 5888POPC   C1B14143  35.180  20.741   8.553
 5888POPC   C2B14144  35.109  20.750   8.253
 5888POPC   C3B14145  35.151  20.753   7.953
 5888POPC   C4B14146  35.200  20.768   7.653
 5889POPC   NC314147  30.663  12.096   9.453
 5889POPC   PO414148  30.700  12.086   9.153
 5889POPC   GL114149  30.701  12.122   8.853
 5889POPC   GL214150  30.832  12.048   8.853
 5889POPC   C1A14151  30.650  12.079   8.553
 5889POPC   D2A14152  30.743  12.042   8.253
 5889POPC   C3A14153  30.696  12.037   7.953
 5889POPC   C4A14154  30.739  12.042   7.653
 5889POPC   C1B14155  30.901  12.052   8.553
 5889POPC   C2B14156  30.977  11.979   8.253
 5889POPC   C3B14157  30.889  12.016   7.953
 5889POPC   C4B14158  30.947  11.959   7.653
 5890POPC   NC314159  42.358  39.262   9.453
 5890POPC   PO414160  42.334  39.248   9.153
 5890POPC   GL114161  42.355  39.225   8.853
 5890POPC   GL214162  42.452  39.166   8.853
 5890POPC   C1A14163  42.326  39.210   8.553
 5890POPC   D2A14164  42.346  39.205   8.253
 5890POPC   C3A14165  42.383  39.206   7.953
 5890POPC   C4A14166  42.352  39.252   7.653
 5890POPC   C1B14167  42.454  39.045   8.553
 5890POPC   C2B14168  42.481  39.072   8.253
 5890POPC   C3B14169  42.533  38.995   7.953
 5890POPC   C4B14170  42.507  39.084   7.653
 5891POPC   NC314171  21.351  10.487   9.453
 5891POPC   PO414172  21.397  10.490   9.153
 5891POPC   GL114173  21.355  10.533   8.853
 5891POPC   GL214174  21.267  10.456   8.853
 5891POPC   C1A14175  21.397  10.480   8.553
 5891POPC   D2A14176  21.348  10.516   8.253
 5891POPC   C3A14177  21.428  10.546   7.953
 5891POPC   C4A14178  21.430  10.520   7.653
 5891POPC   C1B14179  21.267  10.347   8.553
 5891POPC   C2B14180  21.259  10.356   8.253
 5891POPC   C3B14181  21.268  10.357   7.953
 5891POPC   C4B14182  21.268  10.307   7.653
 5892POPC   NC314183  21.390  23.764   9.453
 5892POPC   PO414184  21.406  23.744   9.153
 5892POPC   GL114185  21.407  23.700   8.853
 5892POPC   GL214186  21.487  23.611   8.853
 5892POPC   C1A14187  21.355  23.708   8.553
 5892POPC   D2A14188  21.373  23.761   8.253
 5892POPC   C3A14189  21.404  23.699   7.953
 5892POPC   C4A14190  21.408  23.735   7.653
 5892POPC   C1B14191  21.469  23.481   8.553
 5892POPC   C2B14192  21.487  23.484   8.253
 5892POPC   C3B14193  21.495  23.455   7.953
 5892POPC   C4B14194  21.483  23.459   7.653
 5893POPC   NC314195  37.680  32.975   9.453
 5893POPC   PO414196  37.669  33.048   9.153
 5893POPC   GL114197  37.706  33.059   8.853
 5893POPC   GL214198  37.654  32.882   8.853
 5893POPC   C1A14199  37.703  32.994   8.553
 5893POPC   D2A14200  37.676  33.067   8.253
 5893POPC   C3A14201  37.704  33.054   7.953
 5893POPC   C4A14202  37.641  32.976   7.653
 5893POPC   C1B14203  37.604  32.804   8.553
 5893POPC   C2B14204  37.592  32.836   8.253
 5893POPC   C3B14205  37.574  32.844   7.953
 5893POPC   C4B14206  37.618  32.758   7.653
 5894POPC   NC314207  43.131  15.156   9.453
 5894POPC   PO414208  43.107  15.138   9.153
 5894POPC   GL114209  43.095  15.217   8.853
 5894POPC   GL214210  43.281  15.215   8.853
 5894POPC   C1A14211  43.106  15.191   8.553
 5894POPC   D2A14212  43.066  15.187   8.253
 5894POPC   C3A14213  43.073  15.225   7.953
 5894POPC   C4A14214  43.062  15.142   7.653
 5894POPC   C1B14215  43.339  15.119   8.553
 5894POPC   C2B14216  43.339  15.176   8.253
 5894POPC   C3B14217  43.312  15.136   7.953
 5894POPC   C4B14218  43.314  15.116   7.653
 5895POPC   NC314219  38.463  30.684   9.453
 5895POPC   PO414220  38.471  30.647   9.153
 5895POPC   GL114221  38.440  30.687   8.853
 5895POPC   GL214222  38.573  30.621   8.853
 5895POPC   C1A14223  38.407  30.696   8.553
 5895POPC   D2A14224  38.442  30.741   8.253
 5895POPC   C3A14225  38.438  30.691   7.953
 5895POPC   C4A14226  38.468  30.743   7.653
 5895POPC   C1B14227  38.604  30.497   8.553
 5895POPC   C2B14228  38.594  30.518   8.253
 5895POPC   C3B14229  38.656  30.506   7.953
 5895POPC   C4B14230  38.614  30.480   7.653
 5896POPC   NC314231  12.843  22.976   9.453
 5896POPC   PO414232  12.836  22.954   9.153
 5896POPC   GL114233  12.865  22.958   8.853
 5896POPC   GL214234  12.986  22.891   8.853
 5896POPC   C1A14235  12.828  22.913   8.553
 5896POPC   D2A14236  12.862  22.968   8.253
 5896POPC   C3A14237  12.872  22.922   7.953
 5896POPC   C4A14238  12.807  22.939   7.653
 5896POPC   C1B14239  13.096  22.909   8.553
 5896POPC   C2B14240  13.059  22.946   8.253
 5896POPC   C3B14241  13.060  22.941   7.953
 5896POPC   C4B14242  13.097  22.875   7.653
 5897POPC   NC314243  43.848   5.877   9.453
 5897POPC   PO414244  43.898   5.876   9.153
 5897POPC   GL114245  43.844   5.832   8.853
 5897POPC   GL214246  43.887   5.696   8.853
 5897POPC   C1A14247  43.897   5.857   8.553
 5897POPC   D2A14248  43.851   5.860   8.253
 5897POPC   C3A14249  43.896   5.889   7.953
 5897POPC   C4A14250  43.868   5.883   7.653
 5897POPC   C1B14251  43.877   5.580   8.553
 5897POPC   C2B14252  43.879   5.628   8.253
 5897POPC   C3B14253  43.840   5.658   7.953
 5897POPC   C4B14254  43.918   5.612   7.653
 5898POPC   NC314255  32.277  11.270   9.453
 5898POPC   PO414256  32.199  11.322   9.153
 5898POPC   GL114257  32.232  11.301   8.853
 5898POPC   GL214258  32.163  11.358   8.853
 5898POPC   C1A14259  32.223  11.251   8.553
 5898POPC   D2A14260  32.229  11.302   8.253
 5898POPC   C3A14261  32.257  11.310   7.953
 5898POPC   C4A14262  32.246  11.279   7.653
 5898POPC   C1B14263  32.058  11.428   8.553
 5898POPC   C2B14264  32.023  11.340   8.253
 5898POPC   C3B14265  32.021  11.387   7.953
 5898POPC   C4B14266  32.056  11.357   7.653
 5899POPC   NC314267   0.438  18.318   9.453
 5899POPC   PO414268   0.424  18.319   9.153
 5899POPC   GL114269   0.456  18.300   8.853
 5899POPC   GL214270   0.479  18.110   8.853
 5899POPC   C1A14271   0.487  18.235   8.553
 5899POPC   D2A14272   0.392  18.241   8.253
 5899POPC   C3A14273   0.472  18.237   7.953
 5899POPC   C4A14274   0.472  18.318   7.653
 5899POPC   C1B14275   0.516  18.015   8.553
 5899POPC   C2B14276   0.492  18.081   8.253
 5899POPC   C3B14277   0.451  18.050   7.953
 5899POPC   C4B14278   0.455  18.049   7.653
 5900POPC   NC314279  16.696   5.091   9.453
 5900POPC   PO414280  16.762   5.052   9.153
 5900POPC   GL114281  16.770   5.119   8.853
 5900POPC   GL214282  16.596   5.111   8.853
 5900POPC   C1A14283  16.745   5.123   8.553
 5900POPC   D2A14284  16.704   5.119   8.253
 5900POPC   C3A14285  16.771   5.057   7.953
 5900POPC   C4A14286  16.748   5.044   7.653
 5900POPC   C1B14287  16.517   5.249   8.553
 5900POPC   C2B14288  16.512   5.261   8.253
 5900POPC   C3B14289  16.567   5.180   7.953
 5900POPC   C4B14290  16.473   5.206   7.653
 5901POPC   NC314291  28.370  14.411   9.453
 5901POPC   PO414292  28.390  14.385   9.153
 5901POPC   GL114293  28.356  14.357   8.853
 5901POPC   GL214294  28.432  14.370   8.853
 5901POPC   C1A14295  28.402  14.410   8.553
 5901POPC   D2A14296  28.358  14.418   8.253
 5901POPC   C3A14297  28.381  14.414   7.953
 5901POPC   C4A14298  28.381  14.414   7.653
 5901POPC   C1B14299  28.571  14.277   8.553
 5901POPC   C2B14300  28.545  14.212   8.253
 5901POPC   C3B14301  28.548  14.227   7.953
 5901POPC   C4B14302  28.519  14.218   7.653
 5902POPC   NC314303  22.167   3.536   9.453
 5902POPC   PO414304  22.169   3.509   9.153
 5902POPC   GL114305  22.139   3.546   8.853
 5902POPC   GL214306  22.023   3.545   8.853
 5902POPC   C1A14307  22.163   3.498   8.553
 5902POPC   D2A14308  22.139   3.504   8.253
 5902POPC   C3A14309  22.180   3.492   7.953
 5902POPC   C4A14310  22.118   3.546   7.653
 5902POPC   C1B14311  21.864   3.607   8.553
 5902POPC   C2B14312  21.866   3.573   8.253
 5902POPC   C3B14313  21.945   3.580   7.953
 5902POPC   C4B14314  21.958   3.583   7.653
 5903POPC   NC314315   6.691  35.381   9.453
 5903POPC   PO414316   6.669  35.381   9.153
 5903POPC   GL114317   6.689  35.346   8.853
 5903POPC   GL214318   6.640  35.507   8.853
 5903POPC   C1A14319   6.623  35.329   8.553
 5903POPC   D2A14320   6.688  35.370   8.253
 5903POPC   C3A14321   6.652  35.305   7.953
 5903POPC   C4A14322   6.617  35.385   7.653
 5903POPC   C1B14323   6.738  35.618   8.553
 5903POPC   C2B14324   6.698  35.555   8.253
 5903POPC   C3B14325   6.771  35.558   7.953
 5903POPC   C4B14326   6.723  35.634   7.653
 5904POPC   NC314327   6.694  24.482   9.453
 5904POPC   PO414328   6.674  24.472   9.153
 5904POPC   GL114329   6.626  24.522   8.853
 5904POPC   GL214330   6.761  24.532   8.853
 5904POPC   C1A14331   6.605  24.526   8.553
 5904POPC   D2A14332   6.608  24.500   8.253
 5904POPC   C3A14333   6.621  24.523   7.953
 5904POPC   C4A14334   6.628  24.503   7.653
 5904POPC   C1B14335   6.871  24.630   8.553
 5904POPC   C2B14336   6.883  24.619   8.253
 5904POPC   C3B14337   6.847  24.623   7.953
 5904POPC   C4B14338   6.837  24.610   7.653
 5905POPC   NC314339   2.796  18.234   9.453
 5905POPC   PO414340   2.804  18.329   9.153
 5905POPC   GL114341   2.769  18.244   8.853
 5905POPC   GL214342   2.747  18.195   8.853
 5905POPC   C1A14343   2.736  18.270   8.553
 5905POPC   D2A14344   2.789  18.270   8.253
 5905POPC   C3A14345   2.784  18.288   7.953
 5905POPC   C4A14346   2.796  18.278   7.653
 5905POPC   C1B14347   2.729  18.004   8.553
 5905POPC   C2B14348   2.706  18.031   8.253
 5905POPC   C3B14349   2.740  18.065   7.953
 5905POPC   C4B14350   2.705  18.090   7.653
 5906POPC   NC314351  29.947  29.912   9.453
 5906POPC   PO414352  29.872  29.880   9.153
 5906POPC   GL114353  29.893  29.880   8.853
 5906POPC   GL214354  29.887  29.839   8.853
 5906POPC   C1A14355  29.887  29.929   8.553
 5906POPC   D2A14356  29.907  29.963   8.253
 5906POPC   C3A14357  29.883  29.928   7.953
 5906POPC   C4A14358  29.876  29.874   7.653
 5906POPC   C1B14359  29.884  29.630   8.553
 5906POPC   C2B14360  29.901  29.673   8.253
 5906POPC   C3B14361  29.925  29.677   7.953
 5906POPC   C4B14362  29.891  29.690   7.653
 5907POPC   NC314363  17.544  44.703   9.453
 5907POPC   PO414364  17.472  44.693   9.153
 5907POPC   GL114365  17.471  44.693   8.853
 5907POPC   GL214366  17.427  44.660   8.853
 5907POPC   C1A14367  17.527  44.669   8.553
 5907POPC   D2A14368  17.543  44.647   8.253
 5907POPC   C3A14369  17.521  44.640   7.953
 5907POPC   C4A14370  17.547  44.617   7.653
 5907POPC   C1B14371  17.247  44.729   8.553
 5907POPC   C2B14372  17.233  44.731   8.253
 5907POPC   C3B14373  17.218  44.675   7.953
 5907POPC   C4B14374  17.293  44.728   7.653
 5908POPC   NC314375  17.469  35.396   9.453
 5908POPC   PO414376  17.465  35.307   9.153
 5908POPC   GL114377  17.546  35.351   8.853
 5908POPC   GL214378  17.416  35.378   8.853
 5908POPC   C1A14379  17.529  35.344   8.553
 5908POPC   D2A14380  17.489  35.311   8.253
 5908POPC   C3A14381  17.462  35.334   7.953
 5908POPC   C4A14382  17.514  35.340   7.653
 5908POPC   C1B14383  17.239  35.306   8.553
 5908POPC   C2B14384  17.222  35.347   8.253
 5908POPC   C3B14385  17.268  35.304   7.953
 5908POPC   C4B14386  17.210  35.314   7.653
 5909POPC   NC314387  34.619  43.060   9.453
 5909POPC   PO414388  34.575  43.141   9.153
 5909POPC   GL114389  34.574  43.134   8.853
 5909POPC   GL214390  34.583  43.225   8.853
 5909POPC   C1A14391  34.551  43.115   8.553
 5909POPC   D2A14392  34.583  43.157   8.253
 5909POPC   C3A14393  34.554  43.085   7.953
 5909POPC   C4A14394  34.578  43.075   7.653
 5909POPC   C1B14395  34.506  43.329   8.553
 5909POPC   C2B14396  34.500  43.325   8.253
 5909POPC   C3B14397  34.575  43.330   7.953
 5909POPC   C4B14398  34.578  43.327   7.653
 5910POPC   NC314399   9.780  24.502   9.453
 5910POPC   PO414400   9.699  24.475   9.153
 5910POPC   GL114401   9.739  24.523   8.853
 5910POPC   GL214402   9.852  24.534   8.853
 5910POPC   C1A14403   9.784  24.495   8.553
 5910POPC   D2A14404   9.738  24.517   8.253
 5910POPC   C3A14405   9.722  24.518   7.953
 5910POPC   C4A14406   9.719  24.465   7.653
 5910POPC   C1B14407   9.997  24.581   8.553
 5910POPC   C2B14408  10.035  24.561   8.253
 5910POPC   C3B14409  10.005  24.538   7.953
 5910POPC   C4B14410  10.043  24.497   7.653
 5911POPC   NC314411  10.516  13.622   9.453
 5911POPC   PO414412  10.511  13.579   9.153
 5911POPC   GL114413  10.524  13.628   8.853
 5911POPC   GL214414  10.561  13.520   8.853
 5911POPC   C1A14415  10.504  13.612   8.553
 5911POPC   D2A14416  10.499  13.619   8.253
 5911POPC   C3A14417  10.481  13.616   7.953
 5911POPC   C4A14418  10.568  13.602   7.653
 5911POPC   C1B14419  10.489  13.358   8.553
 5911POPC   C2B14420  10.557  13.380   8.253
 5911POPC   C3B14421  10.535  13.351   7.953
 5911POPC   C4B14422  10.487  13.384   7.653
 5912POPC   NC314423  20.643   4.322   9.453
 5912POPC   PO414424  20.614   4.292   9.153
 5912POPC   GL114425  20.602   4.353   8.853
 5912POPC   GL214426  20.698   4.313   8.853
 5912POPC   C1A14427  20.651   4.297   8.553
 5912POPC   D2A14428  20.599   4.288   8.253
 5912POPC   C3A14429  20.641   4.364   7.953
 5912POPC   C4A14430  20.591   4.363   7.653
 5912POPC   C1B14431  20.876   4.316   8.553
 5912POPC   C2B14432  20.878   4.309   8.253
 5912POPC   C3B14433  20.876   4.282   7.953
 5912POPC   C4B14434  20.883   4.265   7.653
 5913POPC   NC314435  22.927  15.999   9.453
 5913POPC   PO414436  22.929  15.972   9.153
 5913POPC   GL114437  22.976  15.974   8.853
 5913POPC   GL214438  22.833  15.910   8.853
 5913POPC   C1A14439  22.942  15.966   8.553
 5913POPC   D2A14440  22.981  15.987   8.253
 5913POPC   C3A14441  22.954  15.920   7.953
 5913POPC   C4A14442  22.905  15.993   7.653
 5913POPC   C1B14443  22.658  15.874   8.553
 5913POPC   C2B14444  22.725  15.966   8.253
 5913POPC   C3B14445  22.648  15.899   7.953
 5913POPC   C4B14446  22.703  15.953   7.653
 5914POPC   NC314447  37.713  21.424   9.453
 5914POPC   PO414448  37.703  21.425   9.153
 5914POPC   GL114449  37.641  21.363   8.853
 5914POPC   GL214450  37.752  21.270   8.853
 5914POPC   C1A14451  37.665  21.348   8.553
 5914POPC   D2A14452  37.642  21.434   8.253
 5914POPC   C3A14453  37.661  21.365   7.953
 5914POPC   C4A14454  37.708  21.427   7.653
 5914POPC   C1B14455  37.890  21.234   8.553
 5914POPC   C2B14456  37.884  21.220   8.253
 5914POPC   C3B14457  37.921  21.233   7.953
 5914POPC   C4B14458  37.914  21.211   7.653
 5915POPC   NC314459  43.908  19.014   9.453
 5915POPC   PO414460  43.878  19.051   9.153
 5915POPC   GL114461  43.912  19.059   8.853
 5915POPC   GL214462  44.014  19.128   8.853
 5915POPC   C1A14463  43.921  19.061   8.553
 5915POPC   D2A14464  43.935  19.021   8.253
 5915POPC   C3A14465  43.858  19.101   7.953
 5915POPC   C4A14466  43.871  19.043   7.653
 5915POPC   C1B14467  44.117  19.195   8.553
 5915POPC   C2B14468  44.127  19.228   8.253
 5915POPC   C3B14469  44.152  19.181   7.953
 5915POPC   C4B14470  44.066  19.168   7.653
 5916POPC   NC314471  43.098  32.289   9.453
 5916POPC   PO414472  43.142  32.241   9.153
 5916POPC   GL114473  43.101  32.262   8.853
 5916POPC   GL214474  43.090  32.156   8.853
 5916POPC   C1A14475  43.068  32.218   8.553
 5916POPC   D2A14476  43.095  32.266   8.253
 5916POPC   C3A14477  43.119  32.262   7.953
 5916POPC   C4A14478  43.095  32.214   7.653
 5916POPC   C1B14479  43.034  32.010   8.553
 5916POPC   C2B14480  43.020  31.979   8.253
 5916POPC   C3B14481  43.041  32.069   7.953
 5916POPC   C4B14482  43.005  32.047   7.653
 5917POPC   NC314483  36.934  23.746   9.453
 5917POPC   PO414484  36.941  23.719   9.153
 5917POPC   GL114485  36.952  23.730   8.853
 5917POPC   GL214486  37.026  23.740   8.853
 5917POPC   C1A14487  36.925  23.695   8.553
 5917POPC   D2A14488  36.938  23.752   8.253
 5917POPC   C3A14489  36.856  23.696   7.953
 5917POPC   C4A14490  36.913  23.737   7.653
 5917POPC   C1B14491  37.181  23.660   8.553
 5917POPC   C2B14492  37.162  23.702   8.253
 5917POPC   C3B14493  37.193  23.683   7.953
 5917POPC   C4B14494  37.166  23.690   7.653
 5918POPC   NC314495  19.033  18.238   9.453
 5918POPC   PO414496  19.070  18.239   9.153
 5918POPC   GL114497  19.029  18.238   8.853
 5918POPC   GL214498  19.188  18.384   8.853
 5918POPC   C1A14499  19.047  18.238   8.553
 5918POPC   D2A14500  19.080  18.266   8.253
 5918POPC   C3A14501  19.080  18.328   7.953
 5918POPC   C4A14502  19.025  18.234   7.653
 5918POPC   C1B14503  19.212  18.433   8.553
 5918POPC   C2B14504  19.192  18.443   8.253
 5918POPC   C3B14505  19.246  18.488   7.953
 5918POPC   C4B14506  19.195  18.410   7.653
 5919POPC   NC314507   4.274   1.262   9.453
 5919POPC   PO414508   4.343   1.231   9.153
 5919POPC   GL114509   4.357   1.175   8.853
 5919POPC   GL214510   4.348   1.321   8.853
 5919POPC   C1A14511   4.290   1.165   8.553
 5919POPC   D2A14512   4.328   1.262   8.253
 5919POPC   C3A14513   4.306   1.204   7.953
 5919POPC   C4A14514   4.283   1.190   7.653
 5919POPC   C1B14515   4.309   1.504   8.553
 5919POPC   C2B14516   4.344   1.477   8.253
 5919POPC   C3B14517   4.370   1.509   7.953
 5919POPC   C4B14518   4.321   1.478   7.653
 5920POPC   NC314519   0.469  40.751   9.453
 5920POPC   PO414520   0.474  40.762   9.153
 5920POPC   GL114521   0.405  40.796   8.853
 5920POPC   GL214522   0.300  40.796   8.853
 5920POPC   C1A14523   0.462  40.779   8.553
 5920POPC   D2A14524   0.459  40.759   8.253
 5920POPC   C3A14525   0.425  40.820   7.953
 5920POPC   C4A14526   0.464  40.820   7.653
 5920POPC   C1B14527   0.217  40.882   8.553
 5920POPC   C2B14528   0.259  40.873   8.253
 5920POPC   C3B14529   0.243  40.934   7.953
 5920POPC   C4B14530   0.249  40.907   7.653
 5921POPC   NC314531   5.046  44.657   9.453
 5921POPC   PO414532   5.131  44.668   9.153
 5921POPC   GL114533   5.136  44.654   8.853
 5921POPC   GL214534   4.971  44.607   8.853
 5921POPC   C1A14535   5.077  44.639   8.553
 5921POPC   D2A14536   5.120  44.659   8.253
 5921POPC   C3A14537   5.064  44.620   7.953
 5921POPC   C4A14538   5.099  44.654   7.653
 5921POPC   C1B14539   4.816  44.650   8.553
 5921POPC   C2B14540   4.843  44.629   8.253
 5921POPC   C3B14541   4.806  44.629   7.953
 5921POPC   C4B14542   4.808  44.587   7.653
 5922POPC   NC314543  25.997  26.819   9.453
 5922POPC   PO414544  26.034  26.865   9.153
 5922POPC   GL114545  26.058  26.810   8.853
 5922POPC   GL214546  25.870  26.814   8.853
 5922POPC   C1A14547  26.043  26.837   8.553
 5922POPC   D2A14548  26.027  26.839   8.253
 5922POPC   C3A14549  26.083  26.789   7.953
 5922POPC   C4A14550  25.997  26.778   7.653
 5922POPC   C1B14551  25.795  26.904   8.553
 5922POPC   C2B14552  25.841  26.848   8.253
 5922POPC   C3B14553  25.779  26.893   7.953
 5922POPC   C4B14554  25.836  26.904   7.653
 5923POPC   NC314555  12.881  25.992   9.453
 5923POPC   PO414556  12.873  26.026   9.153
 5923POPC   GL114557  12.868  26.019   8.853
 5923POPC   GL214558  12.721  26.151   8.853
 5923POPC   C1A14559  12.833  26.006   8.553
 5923POPC   D2A14560  12.898  26.013   8.253
 5923POPC   C3A14561  12.821  26.041   7.953
 5923POPC   C4A14562  12.806  26.038   7.653
 5923POPC   C1B14563  12.603  26.146   8.553
 5923POPC   C2B14564  12.614  26.206   8.253
 5923POPC   C3B14565  12.610  26.130   7.953
 5923POPC   C4B14566  12.649  26.210   7.653
 5924POPC   NC314567  13.620  15.922   9.453
 5924POPC   PO414568  13.603  15.989   9.153
 5924POPC   GL114569  13.586  15.982   8.853
 5924POPC   GL214570  13.499  15.941   8.853
 5924POPC   C1A14571  13.620  15.917   8.553
 5924POPC   D2A14572  13.639  15.909   8.253
 5924POPC   C3A14573  13.616  15.917   7.953
 5924POPC   C4A14574  13.626  15.957   7.653
 5924POPC   C1B14575  13.391  16.058   8.553
 5924POPC   C2B14576  13.409  16.026   8.253
 5924POPC   C3B14577  13.400  16.047   7.953
 5924POPC   C4B14578  13.361  15.995   7.653
 5925POPC   NC314579  20.657   9.774   9.453
 5925POPC   PO414580  20.590   9.783   9.153
 5925POPC   GL114581  20.634   9.714   8.853
 5925POPC   GL214582  20.702   9.709   8.853
 5925POPC   C1A14583  20.615   9.788   8.553
 5925POPC   D2A14584  20.650   9.756   8.253
 5925POPC   C3A14585  20.651   9.701   7.953
 5925POPC   C4A14586  20.621   9.742   7.653
 5925POPC   C1B14587  20.890   9.669   8.553
 5925POPC   C2B14588  20.888   9.703   8.253
 5925POPC   C3B14589  20.900   9.644   7.953
 5925POPC   C4B14590  20.857   9.738   7.653
 5926POPC   NC314591  15.970  16.715   9.453
 5926POPC   PO414592  15.958  16.769   9.153
 5926POPC   GL114593  15.978  16.749   8.853
 5926POPC   GL214594  16.051  16.885   8.853
 5926POPC   C1A14595  15.913  16.750   8.553
 5926POPC   D2A14596  15.972  16.749   8.253
 5926POPC   C3A14597  15.918  16.751   7.953
 5926POPC   C4A14598  15.909  16.738   7.653
 5926POPC   C1B14599  16.008  17.012   8.553
 5926POPC   C2B14600  16.038  16.978   8.253
 5926POPC   C3B14601  16.047  16.954   7.953
 5926POPC   C4B14602  16.065  16.959   7.653
 5927POPC   NC314603  30.652  23.734   9.453
 5927POPC   PO414604  30.746  23.761   9.153
 5927POPC   GL114605  30.663  23.700   8.853
 5927POPC   GL214606  30.867  23.680   8.853
 5927POPC   C1A14607  30.709  23.685   8.553
 5927POPC   D2A14608  30.700  23.714   8.253
 5927POPC   C3A14609  30.661  23.742   7.953
 5927POPC   C4A14610  30.743  23.695   7.653
 5927POPC   C1B14611  30.906  23.731   8.553
 5927POPC   C2B14612  30.989  23.726   8.253
 5927POPC   C3B14613  30.905  23.705   7.953
 5927POPC   C4B14614  30.945  23.709   7.653
 5928POPC   NC314615  28.357  11.298   9.453
 5928POPC   PO414616  28.380  11.281   9.153
 5928POPC   GL114617  28.352  11.282   8.853
 5928POPC   GL214618  28.502  11.323   8.853
 5928POPC   C1A14619  28.391  11.304   8.553
 5928POPC   D2A14620  28.358  11.316   8.253
 5928POPC   C3A14621  28.409  11.347   7.953
 5928POPC   C4A14622  28.361  11.283   7.653
 5928POPC   C1B14623  28.659  11.264   8.553
 5928POPC   C2B14624  28.573  11.251   8.253
 5928POPC   C3B14625  28.617  11.272   7.953
 5928POPC   C4B14626  28.602  11.224   7.653
 5929POPC   NC314627  36.881  42.382   9.453
 5929POPC   PO414628  36.923  42.333   9.153
 5929POPC   GL114629  36.918  42.316   8.853
 5929POPC   GL214630  36.933  42.479   8.853
 5929POPC   C1A14631  36.928  42.287   8.553
 5929POPC   D2A14632  36.855  42.375   8.253
 5929POPC   C3A14633  36.860  42.297   7.953
 5929POPC   C4A14634  36.911  42.319   7.653
 5929POPC   C1B14635  36.936  42.537   8.553
 5929POPC   C2B14636  36.891  42.563   8.253
 5929POPC   C3B14637  36.914  42.592   7.953
 5929POPC   C4B14638  36.886  42.553   7.653
 5930POPC   NC314639  19.850   2.723   9.453
 5930POPC   PO414640  19.810   2.744   9.153
 5930POPC   GL114641  19.871   2.767   8.853
 5930POPC   GL214642  19.751   2.697   8.853
 5930POPC   C1A14643  19.809   2.777   8.553
 5930POPC   D2A14644  19.874   2.768   8.253
 5930POPC   C3A14645  19.843   2.803   7.953
 5930POPC   C4A14646  19.823   2.777   7.653
 5930POPC   C1B14647  19.562   2.664   8.553
 5930POPC   C2B14648  19.570   2.699   8.253
 5930POPC   C3B14649  19.639   2.734   7.953
 5930POPC   C4B14650  19.590   2.731   7.653
 5931POPC   NC314651  10.563  22.117   9.453
 5931POPC   PO414652  10.501  22.138   9.153
 5931POPC   GL114653  10.498  22.150   8.853
 5931POPC   GL214654  10.574  22.067   8.853
 5931POPC   C1A14655  10.570  22.189   8.553
 5931POPC   D2A14656  10.574  22.160   8.253
 5931POPC   C3A14657  10.558  22.156   7.953
 5931POPC   C4A14658  10.532  22.139   7.653
 5931POPC   C1B14659  10.662  21.969   8.553
 5931POPC   C2B14660  10.728  22.000   8.253
 5931POPC   C3B14661  10.734  22.010   7.953
 5931POPC   C4B14662  10.706  21.997   7.653
 5932POPC   NC314663  10.487  12.889   9.453
 5932POPC   PO414664  10.493  12.854   9.153
 5932POPC   GL114665  10.512  12.864   8.853
 5932POPC   GL214666  10.513  12.949   8.853
 5932POPC   C1A14667  10.522  12.831   8.553
 5932POPC   D2A14668  10.498  12.889   8.253
 5932POPC   C3A14669  10.559  12.825   7.953
 5932POPC   C4A14670  10.563  12.830   7.653
 5932POPC   C1B14671  10.538  13.077   8.553
 5932POPC   C2B14672  10.584  13.056   8.253
 5932POPC   C3B14673  10.529  13.092   7.953
 5932POPC   C4B14674  10.540  13.101   7.653
 5933POPC   NC314675   6.683  22.158   9.453
 5933POPC   PO414676   6.691  22.164   9.153
 5933POPC   GL114677   6.656  22.194   8.853
 5933POPC   GL214678   6.600  22.266   8.853
 5933POPC   C1A14679   6.642  22.143   8.553
 5933POPC   D2A14680   6.640  22.176   8.253
 5933POPC   C3A14681   6.643  22.192   7.953
 5933POPC   C4A14682   6.597  22.157   7.653
 5933POPC   C1B14683   6.560  22.411   8.553
 5933POPC   C2B14684   6.575  22.400   8.253
 5933POPC   C3B14685   6.607  22.410   7.953
 5933POPC   C4B14686   6.579  22.407   7.653
 5934POPC   NC314687  36.081  10.542   9.453
 5934POPC   PO414688  36.117  10.550   9.153
 5934POPC   GL114689  36.159  10.548   8.853
 5934POPC   GL214690  36.032  10.638   8.853
 5934POPC   C1A14691  36.121  10.486   8.553
 5934POPC   D2A14692  36.095  10.510   8.253
 5934POPC   C3A14693  36.124  10.530   7.953
 5934POPC   C4A14694  36.123  10.552   7.653
 5934POPC   C1B14695  35.993  10.785   8.553
 5934POPC   C2B14696  36.047  10.707   8.253
 5934POPC   C3B14697  36.032  10.779   7.953
 5934POPC   C4B14698  35.989  10.793   7.653
 5935POPC   NC314699  37.658  30.727   9.453
 5935POPC   PO414700  37.686  30.650   9.153
 5935POPC   GL114701  37.639  30.649   8.853
 5935POPC   GL214702  37.783  30.654   8.853
 5935POPC   C1A14703  37.719  30.702   8.553
 5935POPC   D2A14704  37.648  30.681   8.253
 5935POPC   C3A14705  37.670  30.673   7.953
 5935POPC   C4A14706  37.636  30.746   7.653
 5935POPC   C1B14707  37.892  30.726   8.553
 5935POPC   C2B14708  37.977  30.697   8.253
 5935POPC   C3B14709  37.880  30.667   7.953
 5935POPC   C4B14710  37.976  30.742   7.653
 5936POPC   NC314711  23.666  19.856   9.453
 5936POPC   PO414712  23.692  19.795   9.153
 5936POPC   GL114713  23.696  19.873   8.853
 5936POPC   GL214714  23.604  19.875   8.853
 5936POPC   C1A14715  23.664  19.803   8.553
 5936POPC   D2A14716  23.705  19.789   8.253
 5936POPC   C3A14717  23.734  19.817   7.953
 5936POPC   C4A14718  23.695  19.867   7.653
 5936POPC   C1B14719  23.464  19.984   8.553
 5936POPC   C2B14720  23.510  19.938   8.253
 5936POPC   C3B14721  23.523  19.959   7.953
 5936POPC   C4B14722  23.457  19.946   7.653
 5937POPC   NC314723  15.169  38.407   9.453
 5937POPC   PO414724  15.217  38.433   9.153
 5937POPC   GL114725  15.200  38.456   8.853
 5937POPC   GL214726  15.201  38.317   8.853
 5937POPC   C1A14727  15.162  38.450   8.553
 5937POPC   D2A14728  15.196  38.424   8.253
 5937POPC   C3A14729  15.212  38.458   7.953
 5937POPC   C4A14730  15.211  38.409   7.653
 5937POPC   C1B14731  15.173  38.182   8.553
 5937POPC   C2B14732  15.164  38.209   8.253
 5937POPC   C3B14733  15.168  38.242   7.953
 5937POPC   C4B14734  15.163  38.232   7.653
 5938POPC   NC314735  43.090  33.007   9.453
 5938POPC   PO414736  43.135  33.048   9.153
 5938POPC   GL114737  43.096  33.009   8.853
 5938POPC   GL214738  43.249  33.040   8.853
 5938POPC   C1A14739  43.102  33.052   8.553
 5938POPC   D2A14740  43.077  33.043   8.253
 5938POPC   C3A14741  43.063  33.018   7.953
 5938POPC   C4A14742  43.115  33.038   7.653
 5938POPC   C1B14743  43.357  32.965   8.553
 5938POPC   C2B14744  43.316  33.033   8.253
 5938POPC   C3B14745  43.385  32.944   7.953
 5938POPC   C4B14746  43.372  32.971   7.653
 5939POPC   NC314747  31.505  21.416   9.453
 5939POPC   PO414748  31.470  21.436   9.153
 5939POPC   GL114749  31.486  21.389   8.853
 5939POPC   GL214750  31.298  21.348   8.853
 5939POPC   C1A14751  31.447  21.371   8.553
 5939POPC   D2A14752  31.437  21.358   8.253
 5939POPC   C3A14753  31.464  21.339   7.953
 5939POPC   C4A14754  31.508  21.379   7.653
 5939POPC   C1B14755  31.222  21.316   8.553
 5939POPC   C2B14756  31.210  21.399   8.253
 5939POPC   C3B14757  31.202  21.395   7.953
 5939POPC   C4B14758  31.232  21.353   7.653
 5940POPC   NC314759  44.631  30.675   9.453
 5940POPC   PO414760  44.667  30.671   9.153
 5940POPC   GL114761  44.621  30.742   8.853
 5940POPC   GL214762  44.792  30.671   8.853
 5940POPC   C1A14763  44.696  30.667   8.553
 5940POPC   D2A14764  44.649  30.675   8.253
 5940POPC   C3A14765  44.679  30.682   7.953
 5940POPC   C4A14766  44.619  30.695   7.653
 5940POPC   C1B14767  44.959  30.666   8.553
 5940POPC   C2B14768  44.896  30.683   8.253
 5940POPC   C3B14769  44.953  30.656   7.953
 5940POPC   C4B14770  44.900  30.641   7.653
 5941POPC   NC314771  43.896  43.881   9.453
 5941POPC   PO414772  43.869  43.913   9.153
 5941POPC   GL114773  43.887  43.879   8.853
 5941POPC   GL214774  44.010  43.947   8.853
 5941POPC   C1A14775  43.911  43.929   8.553
 5941POPC   D2A14776  43.880  43.930   8.253
 5941POPC   C3A14777  43.923  43.931   7.953
 5941POPC   C4A14778  43.860  43.897   7.653
 5941POPC   C1B14779  44.138  43.941   8.553
 5941POPC   C2B14780  44.116  43.874   8.253
 5941POPC   C3B14781  44.157  43.919   7.953
 5941POPC   C4B14782  44.151  43.929   7.653
 5942POPC   NC314783  33.043  18.286   9.453
 5942POPC   PO414784  33.072  18.269   9.153
 5942POPC   GL114785  33.001  18.285   8.853
 5942POPC   GL214786  33.154  18.325   8.853
 5942POPC   C1A14787  32.997  18.240   8.553
 5942POPC   D2A14788  32.997  18.311   8.253
 5942POPC   C3A14789  33.069  18.303   7.953
 5942POPC   C4A14790  33.030  18.328   7.653
 5942POPC   C1B14791  33.260  18.418   8.553
 5942POPC   C2B14792  33.209  18.425   8.253
 5942POPC   C3B14793  33.196  18.408   7.953
 5942POPC   C4B14794  33.251  18.444   7.653
 5943POPC   NC314795   6.605  28.365   9.453
 5943POPC   PO414796   6.636  28.396   9.153
 5943POPC   GL114797   6.685  28.368   8.853
 5943POPC   GL214798   6.597  28.317   8.853
 5943POPC   C1A14799   6.672  28.407   8.553
 5943POPC   D2A14800   6.674  28.414   8.253
 5943POPC   C3A14801   6.668  28.376   7.953
 5943POPC   C4A14802   6.680  28.385   7.653
 5943POPC   C1B14803   6.417  28.165   8.553
 5943POPC   C2B14804   6.440  28.180   8.253
 5943POPC   C3B14805   6.449  28.187   7.953
 5943POPC   C4B14806   6.438  28.179   7.653
 5944POPC   NC314807  15.187  36.104   9.453
 5944POPC   PO414808  15.156  36.159   9.153
 5944POPC   GL114809  15.150  36.111   8.853
 5944POPC   GL214810  15.092  36.027   8.853
 5944POPC   C1A14811  15.139  36.140   8.553
 5944POPC   D2A14812  15.228  36.157   8.253
 5944POPC   C3A14813  15.198  36.134   7.953
 5944POPC   C4A14814  15.185  36.123   7.653
 5944POPC   C1B14815  14.993  35.915   8.553
 5944POPC   C2B14816  15.078  35.921   8.253
 5944POPC   C3B14817  15.076  35.888   7.953
 5944POPC   C4B14818  15.081  35.873   7.653
 5945POPC   NC314819  19.795  30.667   9.453
 5945POPC   PO414820  19.785  30.707   9.153
 5945POPC   GL114821  19.817  30.719   8.853
 5945POPC   GL214822  19.762  30.749   8.853
 5945POPC   C1A14823  19.796  30.659   8.553
 5945POPC   D2A14824  19.829  30.697   8.253
 5945POPC   C3A14825  19.864  30.733   7.953
 5945POPC   C4A14826  19.866  30.705   7.653
 5945POPC   C1B14827  19.636  30.849   8.553
 5945POPC   C2B14828  19.628  30.861   8.253
 5945POPC   C3B14829  19.600  30.815   7.953
 5945POPC   C4B14830  19.678  30.906   7.653
 5946POPC   NC314831  15.960  39.999   9.453
 5946POPC   PO414832  15.983  39.960   9.153
 5946POPC   GL114833  15.977  39.995   8.853
 5946POPC   GL214834  15.882  40.017   8.853
 5946POPC   C1A14835  15.941  39.981   8.553
 5946POPC   D2A14836  15.952  39.985   8.253
 5946POPC   C3A14837  16.005  39.980   7.953
 5946POPC   C4A14838  15.936  40.006   7.653
 5946POPC   C1B14839  15.740  40.125   8.553
 5946POPC   C2B14840  15.675  40.046   8.253
 5946POPC   C3B14841  15.691  40.047   7.953
 5946POPC   C4B14842  15.722  40.143   7.653
 5947POPC   NC314843   6.604  23.757   9.453
 5947POPC   PO414844   6.656  23.667   9.153
 5947POPC   GL114845   6.609  23.716   8.853
 5947POPC   GL214846   6.678  23.852   8.853
 5947POPC   C1A14847   6.651  23.762   8.553
 5947POPC   D2A14848   6.603  23.701   8.253
 5947POPC   C3A14849   6.623  23.748   7.953
 5947POPC   C4A14850   6.600  23.667   7.653
 5947POPC   C1B14851   6.678  23.971   8.553
 5947POPC   C2B14852   6.672  23.917   8.253
 5947POPC   C3B14853   6.746  23.966   7.953
 5947POPC   C4B14854   6.696  23.951   7.653
 5948POPC   NC314855   6.613  43.907   9.453
 5948POPC   PO414856   6.668  43.871   9.153
 5948POPC   GL114857   6.615  43.921   8.853
 5948POPC   GL214858   6.588  43.954   8.853
 5948POPC   C1A14859   6.639  43.893   8.553
 5948POPC   D2A14860   6.611  43.885   8.253
 5948POPC   C3A14861   6.664  43.884   7.953
 5948POPC   C4A14862   6.635  43.892   7.653
 5948POPC   C1B14863   6.481  44.103   8.553
 5948POPC   C2B14864   6.433  44.051   8.253
 5948POPC   C3B14865   6.525  44.042   7.953
 5948POPC   C4B14866   6.464  44.098   7.653
 5949POPC   NC314867  38.461  37.666   9.453
 5949POPC   PO414868  38.434  37.641   9.153
 5949POPC   GL114869  38.406  37.712   8.853
 5949POPC   GL214870  38.539  37.728   8.853
 5949POPC   C1A14871  38.480  37.691   8.553
 5949POPC   D2A14872  38.422  37.716   8.253
 5949POPC   C3A14873  38.438  37.721   7.953
 5949POPC   C4A14874  38.502  37.685   7.653
 5949POPC   C1B14875  38.588  37.856   8.553
 5949POPC   C2B14876  38.649  37.914   8.253
 5949POPC   C3B14877  38.578  37.886   7.953
 5949POPC   C4B14878  38.575  37.853   7.653
 5950POPC   NC314879   2.740   5.824   9.453
 5950POPC   PO414880   2.797   5.891   9.153
 5950POPC   GL114881   2.735   5.840   8.853
 5950POPC   GL214882   2.634   5.765   8.853
 5950POPC   C1A14883   2.781   5.903   8.553
 5950POPC   D2A14884   2.719   5.833   8.253
 5950POPC   C3A14885   2.743   5.895   7.953
 5950POPC   C4A14886   2.723   5.863   7.653
 5950POPC   C1B14887   2.579   5.683   8.553
 5950POPC   C2B14888   2.597   5.691   8.253
 5950POPC   C3B14889   2.608   5.658   7.953
 5950POPC   C4B14890   2.575   5.682   7.653
 5951POPC   NC314891  36.953  15.929   9.453
 5951POPC   PO414892  36.912  15.922   9.153
 5951POPC   GL114893  36.886  15.993   8.853
 5951POPC   GL214894  36.836  15.908   8.853
 5951POPC   C1A14895  36.888  15.970   8.553
 5951POPC   D2A14896  36.860  15.986   8.253
 5951POPC   C3A14897  36.879  16.000   7.953
 5951POPC   C4A14898  36.855  15.917   7.653
 5951POPC   C1B14899  36.723  15.837   8.553
 5951POPC   C2B14900  36.697  15.789   8.253
 5951POPC   C3B14901  36.642  15.866   7.953
 5951POPC   C4B14902  36.672  15.820   7.653
 5952POPC   NC314903   6.675   4.305   9.453
 5952POPC   PO414904   6.671   4.285   9.153
 5952POPC   GL114905   6.675   4.282   8.853
 5952POPC   GL214906   6.676   4.426   8.853
 5952POPC   C1A14907   6.665   4.324   8.553
 5952POPC   D2A14908   6.662   4.290   8.253
 5952POPC   C3A14909   6.688   4.340   7.953
 5952POPC   C4A14910   6.668   4.284   7.653
 5952POPC   C1B14911   6.846   4.504   8.553
 5952POPC   C2B14912   6.777   4.506   8.253
 5952POPC   C3B14913   6.796   4.487   7.953
 5952POPC   C4B14914   6.754   4.465   7.653
 5953POPC   NC314915  36.132  25.234   9.453
 5953POPC   PO414916  36.152  25.225   9.153
 5953POPC   GL114917  36.098  25.244   8.853
 5953POPC   GL214918  36.155  25.362   8.853
 5953POPC   C1A14919  36.151  25.292   8.553
 5953POPC   D2A14920  36.121  25.305   8.253
 5953POPC   C3A14921  36.173  25.222   7.953
 5953POPC   C4A14922  36.108  25.228   7.653
 5953POPC   C1B14923  36.313  25.496   8.553
 5953POPC   C2B14924  36.230  25.451   8.253
 5953POPC   C3B14925  36.231  25.485   7.953
 5953POPC   C4B14926  36.257  25.514   7.653
 5954POPC   NC314927  39.198  36.092   9.453
 5954POPC   PO414928  39.226  36.125   9.153
 5954POPC   GL114929  39.241  36.117   8.853
 5954POPC   GL214930  39.342  36.157   8.853
 5954POPC   C1A14931  39.269  36.143   8.553
 5954POPC   D2A14932  39.266  36.124   8.253
 5954POPC   C3A14933  39.186  36.097   7.953
 5954POPC   C4A14934  39.279  36.109   7.653
 5954POPC   C1B14935  39.501  36.173   8.553
 5954POPC   C2B14936  39.495  36.153   8.253
 5954POPC   C3B14937  39.498  36.132   7.953
 5954POPC   C4B14938  39.467  36.133   7.653
 5955POPC   NC314939  21.367   0.472   9.453
 5955POPC   PO414940  21.406   0.458   9.153
 5955POPC   GL114941  21.337   0.394   8.853
 5955POPC   GL214942  21.306   0.428   8.853
 5955POPC   C1A14943  21.399   0.428   8.553
 5955POPC   D2A14944  21.410   0.443   8.253
 5955POPC   C3A14945  21.411   0.448   7.953
 5955POPC   C4A14946  21.373   0.487   7.653
 5955POPC   C1B14947  21.161   0.337   8.553
 5955POPC   C2B14948  21.143   0.364   8.253
 5955POPC   C3B14949  21.200   0.376   7.953
 5955POPC   C4B14950  21.177   0.346   7.653
 5956POPC   NC314951  38.430   2.800   9.453
 5956POPC   PO414952  38.441   2.716   9.153
 5956POPC   GL114953  38.423   2.787   8.853
 5956POPC   GL214954  38.333   2.736   8.853
 5956POPC   C1A14955  38.451   2.789   8.553
 5956POPC   D2A14956  38.427   2.748   8.253
 5956POPC   C3A14957  38.445   2.796   7.953
 5956POPC   C4A14958  38.460   2.785   7.653
 5956POPC   C1B14959  38.184   2.743   8.553
 5956POPC   C2B14960  38.252   2.794   8.253
 5956POPC   C3B14961  38.200   2.797   7.953
 5956POPC   C4B14962  38.234   2.789   7.653
 5957POPC   NC314963   2.765  21.366   9.453
 5957POPC   PO414964   2.812  21.406   9.153
 5957POPC   GL114965   2.727  21.426   8.853
 5957POPC   GL214966   2.673  21.390   8.853
 5957POPC   C1A14967   2.734  21.354   8.553
 5957POPC   D2A14968   2.786  21.371   8.253
 5957POPC   C3A14969   2.758  21.346   7.953
 5957POPC   C4A14970   2.741  21.388   7.653
 5957POPC   C1B14971   2.561  21.347   8.553
 5957POPC   C2B14972   2.523  21.320   8.253
 5957POPC   C3B14973   2.558  21.310   7.953
 5957POPC   C4B14974   2.475  21.308   7.653
 5958POPC   NC314975  43.892  27.634   9.453
 5958POPC   PO414976  43.912  27.563   9.153
 5958POPC   GL114977  43.878  27.638   8.853
 5958POPC   GL214978  43.923  27.494   8.853
 5958POPC   C1A14979  43.840  27.625   8.553
 5958POPC   D2A14980  43.893  27.631   8.253
 5958POPC   C3A14981  43.922  27.630   7.953
 5958POPC   C4A14982  43.856  27.548   7.653
 5958POPC   C1B14983  43.875  27.309   8.553
 5958POPC   C2B14984  43.848  27.309   8.253
 5958POPC   C3B14985  43.871  27.373   7.953
 5958POPC   C4B14986  43.909  27.316   7.653
 5959POPC   NC314987  16.686   2.038   9.453
 5959POPC   PO414988  16.744   1.949   9.153
 5959POPC   GL114989  16.711   2.007   8.853
 5959POPC   GL214990  16.801   2.018   8.853
 5959POPC   C1A14991  16.731   1.982   8.553
 5959POPC   D2A14992  16.770   2.019   8.253
 5959POPC   C3A14993  16.731   1.947   7.953
 5959POPC   C4A14994  16.704   1.978   7.653
 5959POPC   C1B14995  16.929   2.132   8.553
 5959POPC   C2B14996  16.948   2.075   8.253
 5959POPC   C3B14997  16.992   2.087   7.953
 5959POPC   C4B14998  16.991   2.065   7.653
 5960POPC   NC314999   2.803  36.130   9.453
 5960POPC   PO415000   2.745  36.139   9.153
 5960POPC   GL115001   2.737  36.163   8.853
 5960POPC   GL215002   2.759  36.205   8.853
 5960POPC   C1A15003   2.732  36.176   8.553
 5960POPC   D2A15004   2.803  36.150   8.253
 5960POPC   C3A15005   2.814  36.132   7.953
 5960POPC   C4A15006   2.738  36.100   7.653
 5960POPC   C1B15007   2.778  36.364   8.553
 5960POPC   C2B15008   2.867  36.408   8.253
 5960POPC   C3B15009   2.862  36.376   7.953
 5960POPC   C4B15010   2.819  36.341   7.653
 5961POPC   NC315011  33.790  26.037   9.453
 5961POPC   PO415012  33.797  26.022   9.153
 5961POPC   GL115013  33.837  26.088   8.853
 5961POPC   GL215014  33.895  25.977   8.853
 5961POPC   C1A15015  33.786  26.056   8.553
 5961POPC   D2A15016  33.754  26.021   8.253
 5961POPC   C3A15017  33.779  26.012   7.953
 5961POPC   C4A15018  33.799  26.018   7.653
 5961POPC   C1B15019  34.031  26.022   8.553
 5961POPC   C2B15020  34.091  25.982   8.253
 5961POPC   C3B15021  34.038  26.014   7.953
 5961POPC   C4B15022  34.001  25.956   7.653
 5962POPC   NC315023  35.322  12.810   9.453
 5962POPC   PO415024  35.369  12.857   9.153
 5962POPC   GL115025  35.315  12.823   8.853
 5962POPC   GL215026  35.184  12.859   8.853
 5962POPC   C1A15027  35.388  12.887   8.553
 5962POPC   D2A15028  35.324  12.852   8.253
 5962POPC   C3A15029  35.340  12.893   7.953
 5962POPC   C4A15030  35.361  12.864   7.653
 5962POPC   C1B15031  35.063  12.823   8.553
 5962POPC   C2B15032  35.110  12.861   8.253
 5962POPC   C3B15033  35.063  12.817   7.953
 5962POPC   C4B15034  35.129  12.791   7.653
 5963POPC   NC315035   4.337  41.538   9.453
 5963POPC   PO415036   4.287  41.535   9.153
 5963POPC   GL115037   4.320  41.575   8.853
 5963POPC   GL215038   4.352  41.421   8.853
 5963POPC   C1A15039   4.314  41.576   8.553
 5963POPC   D2A15040   4.309  41.601   8.253
 5963POPC   C3A15041   4.351  41.533   7.953
 5963POPC   C4A15042   4.362  41.595   7.653
 5963POPC   C1B15043   4.436  41.347   8.553
 5963POPC   C2B15044   4.416  41.350   8.253
 5963POPC   C3B15045   4.400  41.298   7.953
 5963POPC   C4B15046   4.390  41.350   7.653
 5964POPC   NC315047  23.711  33.061   9.453
 5964POPC   PO415048  23.729  33.069   9.153
 5964POPC   GL115049  23.725  33.015   8.853
 5964POPC   GL215050  23.570  33.044   8.853
 5964POPC   C1A15051  23.711  33.009   8.553
 5964POPC   D2A15052  23.712  32.999   8.253
 5964POPC   C3A15053  23.681  33.070   7.953
 5964POPC   C4A15054  23.677  32.993   7.653
 5964POPC   C1B15055  23.472  33.105   8.553
 5964POPC   C2B15056  23.460  33.061   8.253
 5964POPC   C3B15057  23.428  33.127   7.953
 5964POPC   C4B15058  23.514  33.039   7.653
 5965POPC   NC315059  20.627   7.470   9.453
 5965POPC   PO415060  20.647   7.432   9.153
 5965POPC   GL115061  20.567   7.451   8.853
 5965POPC   GL215062  20.557   7.255   8.853
 5965POPC   C1A15063  20.572   7.411   8.553
 5965POPC   D2A15064  20.642   7.452   8.253
 5965POPC   C3A15065  20.596   7.372   7.953
 5965POPC   C4A15066  20.575   7.458   7.653
 5965POPC   C1B15067  20.614   7.153   8.553
 5965POPC   C2B15068  20.526   7.205   8.253
 5965POPC   C3B15069  20.593   7.173   7.953
 5965POPC   C4B15070  20.594   7.166   7.653
 5966POPC   NC315071  40.043   5.827   9.453
 5966POPC   PO415072  40.043   5.839   9.153
 5966POPC   GL115073  39.991   5.834   8.853
 5966POPC   GL215074  39.943   5.756   8.853
 5966POPC   C1A15075  39.958   5.826   8.553
 5966POPC   D2A15076  40.029   5.904   8.253
 5966POPC   C3A15077  40.023   5.893   7.953
 5966POPC   C4A15078  40.021   5.917   7.653
 5966POPC   C1B15079  39.914   5.581   8.553
 5966POPC   C2B15080  39.968   5.659   8.253
 5966POPC   C3B15081  39.961   5.626   7.953
 5966POPC   C4B15082  39.902   5.645   7.653
 5967POPC   NC315083  40.737   5.828   9.453
 5967POPC   PO415084  40.782   5.890   9.153
 5967POPC   GL115085  40.755   5.880   8.853
 5967POPC   GL215086  40.629   5.847   8.853
 5967POPC   C1A15087  40.821   5.823   8.553
 5967POPC   D2A15088  40.756   5.849   8.253
 5967POPC   C3A15089  40.772   5.872   7.953
 5967POPC   C4A15090  40.813   5.873   7.653
 5967POPC   C1B15091  40.535   5.844   8.553
 5967POPC   C2B15092  40.544   5.854   8.253
 5967POPC   C3B15093  40.574   5.933   7.953
 5967POPC   C4B15094  40.543   5.877   7.653
 5968POPC   NC315095  39.974  36.141   9.453
 5968POPC   PO415096  40.008  36.145   9.153
 5968POPC   GL115097  39.992  36.101   8.853
 5968POPC   GL215098  39.907  36.159   8.853
 5968POPC   C1A15099  40.010  36.083   8.553
 5968POPC   D2A15100  39.993  36.156   8.253
 5968POPC   C3A15101  39.974  36.099   7.953
 5968POPC   C4A15102  39.996  36.135   7.653
 5968POPC   C1B15103  39.807  36.050   8.553
 5968POPC   C2B15104  39.751  36.111   8.253
 5968POPC   C3B15105  39.726  36.117   7.953
 5968POPC   C4B15106  39.728  36.057   7.653
 5969POPC   NC315107   4.331  11.304   9.453
 5969POPC   PO415108   4.355  11.309   9.153
 5969POPC   GL115109   4.322  11.304   8.853
 5969POPC   GL215110   4.380  11.402   8.853
 5969POPC   C1A15111   4.292  11.323   8.553
 5969POPC   D2A15112   4.358  11.315   8.253
 5969POPC   C3A15113   4.352  11.300   7.953
 5969POPC   C4A15114   4.341  11.330   7.653
 5969POPC   C1B15115   4.554  11.388   8.553
 5969POPC   C2B15116   4.570  11.468   8.253
 5969POPC   C3B15117   4.547  11.422   7.953
 5969POPC   C4B15118   4.493  11.446   7.653
 5970POPC   NC315119  22.152  34.589   9.453
 5970POPC   PO415120  22.128  34.573   9.153
 5970POPC   GL115121  22.198  34.562   8.853
 5970POPC   GL215122  22.058  34.666   8.853
 5970POPC   C1A15123  22.146  34.595   8.553
 5970POPC   D2A15124  22.174  34.620   8.253
 5970POPC   C3A15125  22.138  34.573   7.953
 5970POPC   C4A15126  22.155  34.532   7.653
 5970POPC   C1B15127  21.924  34.678   8.553
 5970POPC   C2B15128  21.976  34.729   8.253
 5970POPC   C3B15129  21.890  34.659   7.953
 5970POPC   C4B15130  21.902  34.679   7.653
 5971POPC   NC315131  34.553  10.506   9.453
 5971POPC   PO415132  34.621  10.494   9.153
 5971POPC   GL115133  34.589  10.477   8.853
 5971POPC   GL215134  34.550  10.377   8.853
 5971POPC   C1A15135  34.545  10.502   8.553
 5971POPC   D2A15136  34.623  10.476   8.253
 5971POPC   C3A15137  34.608  10.570   7.953
 5971POPC   C4A15138  34.564  10.489   7.653
 5971POPC   C1B15139  34.571  10.326   8.553
 5971POPC   C2B15140  34.545  10.274   8.253
 5971POPC   C3B15141  34.525  10.248   7.953
 5971POPC   C4B15142  34.555  10.302   7.653
 5972POPC   NC315143   5.909   0.442   9.453
 5972POPC   PO415144   5.822   0.401   9.153
 5972POPC   GL115145   5.831   0.455   8.853
 5972POPC   GL215146   5.714   0.491   8.853
 5972POPC   C1A15147   5.845   0.444   8.553
 5972POPC   D2A15148   5.882   0.474   8.253
 5972POPC   C3A15149   5.882   0.395   7.953
 5972POPC   C4A15150   5.908   0.415   7.653
 5972POPC   C1B15151   5.655   0.525   8.553
 5972POPC   C2B15152   5.658   0.450   8.253
 5972POPC   C3B15153   5.644   0.496   7.953
 5972POPC   C4B15154   5.621   0.470   7.653
 5973POPC   NC315155  42.367  22.143   9.453
 5973POPC   PO415156  42.300  22.130   9.153
 5973POPC   GL115157  42.382  22.159   8.853
 5973POPC   GL215158  42.382  22.120   8.853
 5973POPC   C1A15159  42.351  22.182   8.553
 5973POPC   D2A15160  42.350  22.167   8.253
 5973POPC   C3A15161  42.293  22.180   7.953
 5973POPC   C4A15162  42.344  22.114   7.653
 5973POPC   C1B15163  42.538  21.949   8.553
 5973POPC   C2B15164  42.477  21.977   8.253
 5973POPC   C3B15165  42.463  21.949   7.953
 5973POPC   C4B15166  42.504  22.008   7.653
 5974POPC   NC315167   9.725  43.134   9.453
 5974POPC   PO415168   9.746  43.095   9.153
 5974POPC   GL115169   9.751  43.157   8.853
 5974POPC   GL215170   9.884  42.993   8.853
 5974POPC   C1A15171   9.770  43.156   8.553
 5974POPC   D2A15172   9.747  43.103   8.253
 5974POPC   C3A15173   9.798  43.067   7.953
 5974POPC   C4A15174   9.791  43.115   7.653
 5974POPC   C1B15175   9.924  43.002   8.553
 5974POPC   C2B15176   9.950  42.943   8.253
 5974POPC   C3B15177   9.912  42.977   7.953
 5974POPC   C4B15178   9.966  42.926   7.653
 5975POPC   NC315179  42.355  12.854   9.453
 5975POPC   PO415180  42.328  12.874   9.153
 5975POPC   GL115181  42.298  12.893   8.853
 5975POPC   GL215182  42.406  12.940   8.853
 5975POPC   C1A15183  42.377  12.815   8.553
 5975POPC   D2A15184  42.318  12.889   8.253
 5975POPC   C3A15185  42.294  12.898   7.953
 5975POPC   C4A15186  42.355  12.897   7.653
 5975POPC   C1B15187  42.503  13.036   8.553
 5975POPC   C2B15188  42.498  13.087   8.253
 5975POPC   C3B15189  42.465  13.019   7.953
 5975POPC   C4B15190  42.475  13.014   7.653
 5976POPC   NC315191  32.260  38.443   9.453
 5976POPC   PO415192  32.268  38.476   9.153
 5976POPC   GL115193  32.267  38.458   8.853
 5976POPC   GL215194  32.310  38.392   8.853
 5976POPC   C1A15195  32.286  38.468   8.553
 5976POPC   D2A15196  32.243  38.436   8.253
 5976POPC   C3A15197  32.217  38.477   7.953
 5976POPC   C4A15198  32.291  38.497   7.653
 5976POPC   C1B15199  32.412  38.299   8.553
 5976POPC   C2B15200  32.435  38.282   8.253
 5976POPC   C3B15201  32.419  38.311   7.953
 5976POPC   C4B15202  32.474  38.270   7.653
 5977POPC   NC315203   5.059  20.585   9.453
 5977POPC   PO415204   5.132  20.583   9.153
 5977POPC   GL115205   5.129  20.610   8.853
 5977POPC   GL215206   5.175  20.662   8.853
 5977POPC   C1A15207   5.063  20.576   8.553
 5977POPC   D2A15208   5.048  20.597   8.253
 5977POPC   C3A15209   5.139  20.601   7.953
 5977POPC   C4A15210   5.136  20.619   7.653
 5977POPC   C1B15211   5.309  20.671   8.553
 5977POPC   C2B15212   5.312  20.666   8.253
 5977POPC   C3B15213   5.324  20.680   7.953
 5977POPC   C4B15214   5.286  20.670   7.653
 5978POPC   NC315215   3.518  30.746   9.453
 5978POPC   PO415216   3.572  30.652   9.153
 5978POPC   GL115217   3.500  30.715   8.853
 5978POPC   GL215218   3.585  30.829   8.853
 5978POPC   C1A15219   3.525  30.668   8.553
 5978POPC   D2A15220   3.526  30.679   8.253
 5978POPC   C3A15221   3.538  30.668   7.953
 5978POPC   C4A15222   3.506  30.739   7.653
 5978POPC   C1B15223   3.684  30.892   8.553
 5978POPC   C2B15224   3.656  30.902   8.253
 5978POPC   C3B15225   3.650  30.970   7.953
 5978POPC   C4B15226   3.588  30.922   7.653
 5979POPC   NC315227   9.766  42.298   9.453
 5979POPC   PO415228   9.734  42.303   9.153
 5979POPC   GL115229   9.705  42.313   8.853
 5979POPC   GL215230   9.746  42.204   8.853
 5979POPC   C1A15231   9.763  42.316   8.553
 5979POPC   D2A15232   9.699  42.308   8.253
 5979POPC   C3A15233   9.701  42.316   7.953
 5979POPC   C4A15234   9.763  42.294   7.653
 5979POPC   C1B15235   9.750  42.116   8.553
 5979POPC   C2B15236   9.804  42.072   8.253
 5979POPC   C3B15237   9.731  42.085   7.953
 5979POPC   C4B15238   9.822  42.066   7.653
 5980POPC   NC315239  32.288   1.200   9.453
 5980POPC   PO415240  32.259   1.218   9.153
 5980POPC   GL115241  32.292   1.237   8.853
 5980POPC   GL215242  32.120   1.083   8.853
 5980POPC   C1A15243  32.279   1.217   8.553
 5980POPC   D2A15244  32.247   1.242   8.253
 5980POPC   C3A15245  32.228   1.203   7.953
 5980POPC   C4A15246  32.295   1.181   7.653
 5980POPC   C1B15247  32.101   1.050   8.553
 5980POPC   C2B15248  32.031   1.028   8.253
 5980POPC   C3B15249  32.107   1.076   7.953
 5980POPC   C4B15250  32.113   1.076   7.653
 5981POPC   NC315251  25.308  24.464   9.453
 5981POPC   PO415252  25.259  24.492   9.153
 5981POPC   GL115253  25.274  24.528   8.853
 5981POPC   GL215254  25.379  24.571   8.853
 5981POPC   C1A15255  25.290  24.491   8.553
 5981POPC   D2A15256  25.240  24.471   8.253
 5981POPC   C3A15257  25.274  24.488   7.953
 5981POPC   C4A15258  25.296  24.484   7.653
 5981POPC   C1B15259  25.477  24.635   8.553
 5981POPC   C2B15260  25.404  24.707   8.253
 5981POPC   C3B15261  25.411  24.624   7.953
 5981POPC   C4B15262  25.485  24.629   7.653
 5982POPC   NC315263  12.048  37.663   9.453
 5982POPC   PO415264  12.034  37.714   9.153
 5982POPC   GL115265  12.082  37.696   8.853
 5982POPC   GL215266  12.045  37.627   8.853
 5982POPC   C1A15267  12.121  37.668   8.553
 5982POPC   D2A15268  12.054  37.708   8.253
 5982POPC   C3A15269  12.056  37.672   7.953
 5982POPC   C4A15270  12.040  37.725   7.653
 5982POPC   C1B15271  11.918  37.460   8.553
 5982POPC   C2B15272  11.947  37.498   8.253
 5982POPC   C3B15273  11.921  37.488   7.953
 5982POPC   C4B15274  11.937  37.477   7.653
 5983POPC   NC315275  40.026   4.332   9.453
 5983POPC   PO415276  40.037   4.281   9.153
 5983POPC   GL115277  40.023   4.367   8.853
 5983POPC   GL215278  40.021   4.201   8.853
 5983POPC   C1A15279  40.002   4.345   8.553
 5983POPC   D2A15280  39.970   4.350   8.253
 5983POPC   C3A15281  40.030   4.276   7.953
 5983POPC   C4A15282  40.051   4.365   7.653
 5983POPC   C1B15283  40.035   4.047   8.553
 5983POPC   C2B15284  39.980   4.060   8.253
 5983POPC   C3B15285  40.063   4.075   7.953
 5983POPC   C4B15286  40.046   4.081   7.653
 5984POPC   NC315287  13.617  15.212   9.453
 5984POPC   PO415288  13.625  15.143   9.153
 5984POPC   GL115289  13.582  15.155   8.853
 5984POPC   GL215290  13.753  15.072   8.853
 5984POPC   C1A15291  13.651  15.211   8.553
 5984POPC   D2A15292  13.625  15.150   8.253
 5984POPC   C3A15293  13.652  15.206   7.953
 5984POPC   C4A15294  13.661  15.173   7.653
 5984POPC   C1B15295  13.866  15.064   8.553
 5984POPC   C2B15296  13.825  15.027   8.253
 5984POPC   C3B15297  13.793  15.024   7.953
 5984POPC   C4B15298  13.838  15.068   7.653
 5985POPC   NC315299  26.027  36.131   9.453
 5985POPC   PO415300  26.017  36.136   9.153
 5985POPC   GL115301  26.059  36.154   8.853
 5985POPC   GL215302  26.119  35.994   8.853
 5985POPC   C1A15303  26.013  36.160   8.553
 5985POPC   D2A15304  26.055  36.151   8.253
 5985POPC   C3A15305  26.086  36.163   7.953
 5985POPC   C4A15306  26.030  36.168   7.653
 5985POPC   C1B15307  26.070  35.887   8.553
 5985POPC   C2B15308  26.083  35.907   8.253
 5985POPC   C3B15309  26.157  35.893   7.953
 5985POPC   C4B15310  26.084  35.879   7.653
 5986POPC   NC315311  25.239   8.974   9.453
 5986POPC   PO415312  25.261   8.991   9.153
 5986POPC   GL115313  25.219   8.973   8.853
 5986POPC   GL215314  25.354   9.048   8.853
 5986POPC   C1A15315  25.296   9.022   8.553
 5986POPC   D2A15316  25.315   8.929   8.253
 5986POPC   C3A15317  25.216   8.952   7.953
 5986POPC   C4A15318  25.219   8.940   7.653
 5986POPC   C1B15319  25.504   9.005   8.553
 5986POPC   C2B15320  25.472   9.050   8.253
 5986POPC   C3B15321  25.557   8.991   7.953
 5986POPC   C4B15322  25.537   9.072   7.653
 5987POPC   NC315323  33.769  19.821   9.453
 5987POPC   PO415324  33.784  19.817   9.153
 5987POPC   GL115325  33.778  19.872   8.853
 5987POPC   GL215326  33.841  19.932   8.853
 5987POPC   C1A15327  33.791  19.851   8.553
 5987POPC   D2A15328  33.835  19.879   8.253
 5987POPC   C3A15329  33.801  19.863   7.953
 5987POPC   C4A15330  33.845  19.861   7.653
 5987POPC   C1B15331  33.959  20.009   8.553
 5987POPC   C2B15332  33.882  20.083   8.253
 5987POPC   C3B15333  33.877  20.088   7.953
 5987POPC   C4B15334  33.901  20.083   7.653
 5988POPC   NC315335  27.547  31.473   9.453
 5988POPC   PO415336  27.630  31.464   9.153
 5988POPC   GL115337  27.577  31.468   8.853
 5988POPC   GL215338  27.616  31.541   8.853
 5988POPC   C1A15339  27.604  31.434   8.553
 5988POPC   D2A15340  27.562  31.463   8.253
 5988POPC   C3A15341  27.569  31.455   7.953
 5988POPC   C4A15342  27.545  31.521   7.653
 5988POPC   C1B15343  27.733  31.749   8.553
 5988POPC   C2B15344  27.740  31.668   8.253
 5988POPC   C3B15345  27.650  31.658   7.953
 5988POPC   C4B15346  27.711  31.745   7.653
 5989POPC   NC315347  30.657  19.875   9.453
 5989POPC   PO415348  30.659  19.838   9.153
 5989POPC   GL115349  30.687  19.785   8.853
 5989POPC   GL215350  30.708  19.699   8.853
 5989POPC   C1A15351  30.725  19.829   8.553
 5989POPC   D2A15352  30.669  19.879   8.253
 5989POPC   C3A15353  30.702  19.861   7.953
 5989POPC   C4A15354  30.687  19.852   7.653
 5989POPC   C1B15355  30.667  19.617   8.553
 5989POPC   C2B15356  30.667  19.591   8.253
 5989POPC   C3B15357  30.603  19.588   7.953
 5989POPC   C4B15358  30.670  19.577   7.653
 5990POPC   NC315359  44.660  12.901   9.453
 5990POPC   PO415360  44.626  12.819   9.153
 5990POPC   GL115361  44.612  12.888   8.853
 5990POPC   GL215362  44.688  12.918   8.853
 5990POPC   C1A15363  44.646  12.888   8.553
 5990POPC   D2A15364  44.710  12.879   8.253
 5990POPC   C3A15365  44.686  12.851   7.953
 5990POPC   C4A15366  44.618  12.835   7.653
 5990POPC   C1B15367  44.761  13.080   8.553
 5990POPC   C2B15368  44.817  13.018   8.253
 5990POPC   C3B15369  44.826  13.094   7.953
 5990POPC   C4B15370  44.840  13.028   7.653
 5991POPC   NC315371  42.334   8.982   9.453
 5991POPC   PO415372  42.373   8.999   9.153
 5991POPC   GL115373  42.304   9.008   8.853
 5991POPC   GL215374  42.335   8.820   8.853
 5991POPC   C1A15375  42.294   8.959   8.553
 5991POPC   D2A15376  42.368   8.931   8.253
 5991POPC   C3A15377  42.297   8.923   7.953
 5991POPC   C4A15378  42.311   9.021   7.653
 5991POPC   C1B15379  42.333   8.700   8.553
 5991POPC   C2B15380  42.368   8.728   8.253
 5991POPC   C3B15381  42.380   8.731   7.953
 5991POPC   C4B15382  42.367   8.739   7.653
 5992POPC   NC315383  23.726   3.562   9.453
 5992POPC   PO415384  23.734   3.509   9.153
 5992POPC   GL115385  23.733   3.538   8.853
 5992POPC   GL215386  23.788   3.506   8.853
 5992POPC   C1A15387  23.704   3.555   8.553
 5992POPC   D2A15388  23.686   3.499   8.253
 5992POPC   C3A15389  23.736   3.558   7.953
 5992POPC   C4A15390  23.683   3.519   7.653
 5992POPC   C1B15391  23.921   3.410   8.553
 5992POPC   C2B15392  23.928   3.388   8.253
 5992POPC   C3B15393  23.962   3.425   7.953
 5992POPC   C4B15394  23.931   3.480   7.653
 5993POPC   NC315395  31.446  43.872   9.453
 5993POPC   PO415396  31.451  43.911   9.153
 5993POPC   GL115397  31.489  43.899   8.853
 5993POPC   GL215398  31.361  43.830   8.853
 5993POPC   C1A15399  31.440  43.849   8.553
 5993POPC   D2A15400  31.485  43.904   8.253
 5993POPC   C3A15401  31.436  43.838   7.953
 5993POPC   C4A15402  31.446  43.841   7.653
 5993POPC   C1B15403  31.282  43.707   8.553
 5993POPC   C2B15404  31.237  43.731   8.253
 5993POPC   C3B15405  31.299  43.732   7.953
 5993POPC   C4B15406  31.329  43.732   7.653
 5994POPC   NC315407  15.933   1.989   9.453
 5994POPC   PO415408  15.945   2.025   9.153
 5994POPC   GL115409  15.908   2.033   8.853
 5994POPC   GL215410  16.120   1.960   8.853
 5994POPC   C1A15411  15.972   2.014   8.553
 5994POPC   D2A15412  15.947   1.978   8.253
 5994POPC   C3A15413  15.981   1.977   7.953
 5994POPC   C4A15414  15.926   2.019   7.653
 5994POPC   C1B15415  16.208   1.926   8.553
 5994POPC   C2B15416  16.216   1.923   8.253
 5994POPC   C3B15417  16.143   1.867   7.953
 5994POPC   C4B15418  16.175   1.920   7.653
 5995POPC   NC315419  34.616  33.847   9.453
 5995POPC   PO415420  34.583  33.788   9.153
 5995POPC   GL115421  34.554  33.800   8.853
 5995POPC   GL215422  34.449  33.846   8.853
 5995POPC   C1A15423  34.588  33.787   8.553
 5995POPC   D2A15424  34.579  33.815   8.253
 5995POPC   C3A15425  34.556  33.752   7.953
 5995POPC   C4A15426  34.572  33.772   7.653
 5995POPC   C1B15427  34.365  33.900   8.553
 5995POPC   C2B15428  34.309  33.892   8.253
 5995POPC   C3B15429  34.315  33.915   7.953
 5995POPC   C4B15430  34.335  33.899   7.653
 5996POPC   NC315431  44.660  19.878   9.453
 5996POPC   PO415432  44.659  19.819   9.153
 5996POPC   GL115433  44.677  19.847   8.853
 5996POPC   GL215434  44.566  19.966   8.853
 5996POPC   C1A15435  44.650  19.867   8.553
 5996POPC   D2A15436  44.629  19.799   8.253
 5996POPC   C3A15437  44.684  19.841   7.953
 5996POPC   C4A15438  44.654  19.841   7.653
 5996POPC   C1B15439  44.503  19.948   8.553
 5996POPC   C2B15440  44.513  19.979   8.253
 5996POPC   C3B15441  44.431  19.974   7.953
 5996POPC   C4B15442  44.478  20.012   7.653
 5997POPC   NC315443   7.413  15.214   9.453
 5997POPC   PO415444   7.423  15.202   9.153
 5997POPC   GL115445   7.422  15.185   8.853
 5997POPC   GL215446   7.500  15.244   8.853
 5997POPC   C1A15447   7.427  15.229   8.553
 5997POPC   D2A15448   7.401  15.219   8.253
 5997POPC   C3A15449   7.445  15.154   7.953
 5997POPC   C4A15450   7.381  15.175   7.653
 5997POPC   C1B15451   7.642  15.309   8.553
 5997POPC   C2B15452   7.666  15.304   8.253
 5997POPC   C3B15453   7.633  15.244   7.953
 5997POPC   C4B15454   7.648  15.285   7.653
 5998POPC   NC315455   7.377  32.200   9.453
 5998POPC   PO415456   7.409  32.207   9.153
 5998POPC   GL115457   7.406  32.288   8.853
 5998POPC   GL215458   7.399  32.157   8.853
 5998POPC   C1A15459   7.443  32.215   8.553
 5998POPC   D2A15460   7.398  32.280   8.253
 5998POPC   C3A15461   7.398  32.228   7.953
 5998POPC   C4A15462   7.422  32.230   7.653
 5998POPC   C1B15463   7.272  31.975   8.553
 5998POPC   C2B15464   7.328  31.981   8.253
 5998POPC   C3B15465   7.355  32.032   7.953
 5998POPC   C4B15466   7.359  32.039   7.653
 5999POPC   NC315467  39.188  19.061   9.453
 5999POPC   PO415468  39.270  19.053   9.153
 5999POPC   GL115469  39.262  19.020   8.853
 5999POPC   GL215470  39.218  19.183   8.853
 5999POPC   C1A15471  39.208  19.019   8.553
 5999POPC   D2A15472  39.202  19.014   8.253
 5999POPC   C3A15473  39.238  19.089   7.953
 5999POPC   C4A15474  39.199  19.053   7.653
 5999POPC   C1B15475  39.158  19.316   8.553
 5999POPC   C2B15476  39.115  19.330   8.253
 5999POPC   C3B15477  39.147  19.288   7.953
 5999POPC   C4B15478  39.186  19.307   7.653
 6000POPC   NC315479  14.387   3.525   9.453
 6000POPC   PO415480  14.428   3.547   9.153
 6000POPC   GL115481  14.426   3.554   8.853
 6000POPC   GL215482  14.309   3.550   8.853
 6000POPC   C1A15483  14.418   3.548   8.553
 6000POPC   D2A15484  14.412   3.530   8.253
 6000POPC   C3A15485  14.356   3.552   7.953
 6000POPC   C4A15486  14.443   3.556   7.653
 6000POPC   C1B15487  14.119   3.585   8.553
 6000POPC   C2B15488  14.127   3.579   8.253
 6000POPC   C3B15489  14.122   3.574   7.953
 6000POPC   C4B15490  14.172   3.574   7.653
 6001POPC   NC315491  12.034   6.633   9.453
 6001POPC   PO415492  12.094   6.694   9.153
 6001POPC   GL115493  12.052   6.686   8.853
 6001POPC   GL215494  12.224   6.663   8.853
 6001POPC   C1A15495  12.035   6.617   8.553
 6001POPC   D2A15496  12.064   6.682   8.253
 6001POPC   C3A15497  12.105   6.627   7.953
 6001POPC   C4A15498  12.062   6.634   7.653
 6001POPC   C1B15499  12.311   6.704   8.553
 6001POPC   C2B15500  12.263   6.746   8.253
 6001POPC   C3B15501  12.322   6.747   7.953
 6001POPC   C4B15502  12.312   6.691   7.653
 6002POPC   NC315503  30.664  27.632   9.453
 6002POPC   PO415504  30.692  27.584   9.153
 6002POPC   GL115505  30.711  27.607   8.853
 6002POPC   GL215506  30.772  27.468   8.853
 6002POPC   C1A15507  30.666  27.632   8.553
 6002POPC   D2A15508  30.652  27.584   8.253
 6002POPC   C3A15509  30.736  27.549   7.953
 6002POPC   C4A15510  30.724  27.570   7.653
 6002POPC   C1B15511  30.849  27.404   8.553
 6002POPC   C2B15512  30.892  27.406   8.253
 6002POPC   C3B15513  30.889  27.464   7.953
 6002POPC   C4B15514  30.883  27.405   7.653
 6003POPC   NC315515  12.101  27.578   9.453
 6003POPC   PO415516  12.119  27.580   9.153
 6003POPC   GL115517  12.070  27.584   8.853
 6003POPC   GL215518  12.008  27.728   8.853
 6003POPC   C1A15519  12.068  27.567   8.553
 6003POPC   D2A15520  12.107  27.638   8.253
 6003POPC   C3A15521  12.071  27.616   7.953
 6003POPC   C4A15522  12.092  27.587   7.653
 6003POPC   C1B15523  11.932  27.718   8.553
 6003POPC   C2B15524  11.945  27.778   8.253
 6003POPC   C3B15525  11.876  27.772   7.953
 6003POPC   C4B15526  11.880  27.782   7.653
 6004POPC   NC315527  21.354  12.879   9.453
 6004POPC   PO415528  21.423  12.867   9.153
 6004POPC   GL115529  21.381  12.844   8.853
 6004POPC   GL215530  21.216  12.818   8.853
 6004POPC   C1A15531  21.361  12.827   8.553
 6004POPC   D2A15532  21.428  12.896   8.253
 6004POPC   C3A15533  21.434  12.895   7.953
 6004POPC   C4A15534  21.395  12.858   7.653
 6004POPC   C1B15535  21.102  12.866   8.553
 6004POPC   C2B15536  21.156  12.848   8.253
 6004POPC   C3B15537  21.155  12.832   7.953
 6004POPC   C4B15538  21.185  12.908   7.653
 6005POPC   NC315539  28.395  43.853   9.453
 6005POPC   PO415540  28.397  43.864   9.153
 6005POPC   GL115541  28.401  43.873   8.853
 6005POPC   GL215542  28.210  43.905   8.853
 6005POPC   C1A15543  28.417  43.872   8.553
 6005POPC   D2A15544  28.327  43.919   8.253
 6005POPC   C3A15545  28.324  43.924   7.953
 6005POPC   C4A15546  28.346  43.869   7.653
 6005POPC   C1B15547  28.091  44.001   8.553
 6005POPC   C2B15548  28.100  43.949   8.253
 6005POPC   C3B15549  28.128  43.975   7.953
 6005POPC   C4B15550  28.169  43.929   7.653
 6006POPC   NC315551   9.773  38.436   9.453
 6006POPC   PO415552   9.775  38.470   9.153
 6006POPC   GL115553   9.721  38.442   8.853
 6006POPC   GL215554   9.725  38.341   8.853
 6006POPC   C1A15555   9.714  38.411   8.553
 6006POPC   D2A15556   9.758  38.482   8.253
 6006POPC   C3A15557   9.737  38.448   7.953
 6006POPC   C4A15558   9.715  38.408   7.653
 6006POPC   C1B15559   9.750  38.163   8.553
 6006POPC   C2B15560   9.785  38.204   8.253
 6006POPC   C3B15561   9.742  38.167   7.953
 6006POPC   C4B15562   9.753  38.229   7.653
 6007POPC   NC315563  11.251  39.279   9.453
 6007POPC   PO415564  11.341  39.230   9.153
 6007POPC   GL115565  11.305  39.245   8.853
 6007POPC   GL215566  11.320  39.350   8.853
 6007POPC   C1A15567  11.308  39.244   8.553
 6007POPC   D2A15568  11.313  39.184   8.253
 6007POPC   C3A15569  11.305  39.201   7.953
 6007POPC   C4A15570  11.291  39.276   7.653
 6007POPC   C1B15571  11.378  39.484   8.553
 6007POPC   C2B15572  11.347  39.444   8.253
 6007POPC   C3B15573  11.338  39.442   7.953
 6007POPC   C4B15574  11.356  39.441   7.653
 6008POPC   NC315575  18.327   1.173   9.453
 6008POPC   PO415576  18.263   1.200   9.153
 6008POPC   GL115577  18.243   1.204   8.853
 6008POPC   GL215578  18.262   1.368   8.853
 6008POPC   C1A15579  18.237   1.240   8.553
 6008POPC   D2A15580  18.292   1.172   8.253
 6008POPC   C3A15581  18.237   1.182   7.953
 6008POPC   C4A15582  18.250   1.232   7.653
 6008POPC   C1B15583  18.241   1.484   8.553
 6008POPC   C2B15584  18.243   1.425   8.253
 6008POPC   C3B15585  18.293   1.439   7.953
 6008POPC   C4B15586  18.277   1.511   7.653
 6009POPC   NC315587  27.621  29.918   9.453
 6009POPC   PO415588  27.581  29.938   9.153
 6009POPC   GL115589  27.639  29.960   8.853
 6009POPC   GL215590  27.667  29.937   8.853
 6009POPC   C1A15591  27.582  29.889   8.553
 6009POPC   D2A15592  27.582  29.901   8.253
 6009POPC   C3A15593  27.625  29.872   7.953
 6009POPC   C4A15594  27.639  29.946   7.653
 6009POPC   C1B15595  27.764  30.032   8.553
 6009POPC   C2B15596  27.846  30.039   8.253
 6009POPC   C3B15597  27.778  30.002   7.953
 6009POPC   C4B15598  27.837  30.024   7.653
 6010POPC   NC315599  16.764  31.469   9.453
 6010POPC   PO415600  16.736  31.473   9.153
 6010POPC   GL115601  16.684  31.471   8.853
 6010POPC   GL215602  16.880  31.489   8.853
 6010POPC   C1A15603  16.751  31.487   8.553
 6010POPC   D2A15604  16.758  31.442   8.253
 6010POPC   C3A15605  16.693  31.477   7.953
 6010POPC   C4A15606  16.777  31.470   7.653
 6010POPC   C1B15607  16.995  31.464   8.553
 6010POPC   C2B15608  16.943  31.459   8.253
 6010POPC   C3B15609  16.938  31.392   7.953
 6010POPC   C4B15610  16.963  31.387   7.653
 6011POPC   NC315611  12.072  36.115   9.453
 6011POPC   PO415612  12.039  36.176   9.153
 6011POPC   GL115613  12.104  36.171   8.853
 6011POPC   GL215614  12.012  35.993   8.853
 6011POPC   C1A15615  12.051  36.119   8.553
 6011POPC   D2A15616  12.086  36.133   8.253
 6011POPC   C3A15617  12.106  36.111   7.953
 6011POPC   C4A15618  12.119  36.136   7.653
 6011POPC   C1B15619  11.899  35.944   8.553
 6011POPC   C2B15620  11.861  35.995   8.253
 6011POPC   C3B15621  11.919  35.955   7.953
 6011POPC   C4B15622  11.927  35.941   7.653
 6012POPC   NC315623   3.552  32.212   9.453
 6012POPC   PO415624   3.588  32.245   9.153
 6012POPC   GL115625   3.535  32.255   8.853
 6012POPC   GL215626   3.625  32.215   8.853
 6012POPC   C1A15627   3.525  32.244   8.553
 6012POPC   D2A15628   3.502  32.200   8.253
 6012POPC   C3A15629   3.552  32.249   7.953
 6012POPC   C4A15630   3.551  32.273   7.653
 6012POPC   C1B15631   3.809  32.108   8.553
 6012POPC   C2B15632   3.777  32.195   8.253
 6012POPC   C3B15633   3.738  32.179   7.953
 6012POPC   C4B15634   3.800  32.135   7.653
 6013POPC   NC315635  25.260  11.349   9.453
 6013POPC   PO415636  25.315  11.325   9.153
 6013POPC   GL115637  25.283  11.295   8.853
 6013POPC   GL215638  25.219  11.404   8.853
 6013POPC   C1A15639  25.231  11.291   8.553
 6013POPC   D2A15640  25.291  11.309   8.253
 6013POPC   C3A15641  25.259  11.308   7.953
 6013POPC   C4A15642  25.262  11.310   7.653
 6013POPC   C1B15643  25.149  11.519   8.553
 6013POPC   C2B15644  25.127  11.559   8.253
 6013POPC   C3B15645  25.148  11.473   7.953
 6013POPC   C4B15646  25.102  11.502   7.653
 6014POPC   NC315647  11.260  34.567   9.453
 6014POPC   PO415648  11.349  34.575   9.153
 6014POPC   GL115649  11.314  34.571   8.853
 6014POPC   GL215650  11.271  34.668   8.853
 6014POPC   C1A15651  11.255  34.622   8.553
 6014POPC   D2A15652  11.328  34.539   8.253
 6014POPC   C3A15653  11.291  34.617   7.953
 6014POPC   C4A15654  11.345  34.542   7.653
 6014POPC   C1B15655  11.376  34.865   8.553
 6014POPC   C2B15656  11.332  34.832   8.253
 6014POPC   C3B15657  11.316  34.816   7.953
 6014POPC   C4B15658  11.374  34.829   7.653
 6015POPC   NC315659  40.054  24.503   9.453
 6015POPC   PO415660  40.031  24.540   9.153
 6015POPC   GL115661  40.033  24.509   8.853
 6015POPC   GL215662  40.060  24.322   8.853
 6015POPC   C1A15663  40.005  24.530   8.553
 6015POPC   D2A15664  39.979  24.481   8.253
 6015POPC   C3A15665  40.007  24.510   7.953
 6015POPC   C4A15666  40.009  24.507   7.653
 6015POPC   C1B15667  40.061  24.200   8.553
 6015POPC   C2B15668  40.014  24.247   8.253
 6015POPC   C3B15669  40.091  24.241   7.953
 6015POPC   C4B15670  40.061  24.236   7.653
 6016POPC   NC315671  28.325  19.050   9.453
 6016POPC   PO415672  28.335  19.042   9.153
 6016POPC   GL115673  28.405  19.043   8.853
 6016POPC   GL215674  28.308  19.227   8.853
 6016POPC   C1A15675  28.323  19.063   8.553
 6016POPC   D2A15676  28.361  19.089   8.253
 6016POPC   C3A15677  28.407  19.054   7.953
 6016POPC   C4A15678  28.380  19.092   7.653
 6016POPC   C1B15679  28.375  19.300   8.553
 6016POPC   C2B15680  28.295  19.285   8.253
 6016POPC   C3B15681  28.356  19.330   7.953
 6016POPC   C4B15682  28.311  19.350   7.653
 6017POPC   NC315683   0.453  33.764   9.453
 6017POPC   PO415684   0.388  33.805   9.153
 6017POPC   GL115685   0.458  33.772   8.853
 6017POPC   GL215686   0.569  33.867   8.853
 6017POPC   C1A15687   0.487  33.836   8.553
 6017POPC   D2A15688   0.390  33.846   8.253
 6017POPC   C3A15689   0.414  33.821   7.953
 6017POPC   C4A15690   0.438  33.764   7.653
 6017POPC   C1B15691   0.663  34.011   8.553
 6017POPC   C2B15692   0.632  33.976   8.253
 6017POPC   C3B15693   0.630  33.929   7.953
 6017POPC   C4B15694   0.587  33.960   7.653
 6018POPC   NC315695   1.260  35.357   9.453
 6018POPC   PO415696   1.173  35.394   9.153
 6018POPC   GL115697   1.245  35.367   8.853
 6018POPC   GL215698   1.359  35.347   8.853
 6018POPC   C1A15699   1.207  35.306   8.553
 6018POPC   D2A15700   1.191  35.303   8.253
 6018POPC   C3A15701   1.165  35.334   7.953
 6018POPC   C4A15702   1.234  35.319   7.653
 6018POPC   C1B15703   1.507  35.395   8.553
 6018POPC   C2B15704   1.462  35.400   8.253
 6018POPC   C3B15705   1.467  35.408   7.953
 6018POPC   C4B15706   1.495  35.350   7.653
 6019POPC   NC315707  15.144  41.522   9.453
 6019POPC   PO415708  15.211  41.573   9.153
 6019POPC   GL115709  15.175  41.603   8.853
 6019POPC   GL215710  15.018  41.516   8.853
 6019POPC   C1A15711  15.182  41.544   8.553
 6019POPC   D2A15712  15.189  41.544   8.253
 6019POPC   C3A15713  15.135  41.526   7.953
 6019POPC   C4A15714  15.148  41.535   7.653
 6019POPC   C1B15715  15.001  41.472   8.553
 6019POPC   C2B15716  14.926  41.423   8.253
 6019POPC   C3B15717  14.942  41.469   7.953
 6019POPC   C4B15718  14.955  41.428   7.653
 6020POPC   NC315719  26.814  37.650   9.453
 6020POPC   PO415720  26.852  37.632   9.153
 6020POPC   GL115721  26.783  37.708   8.853
 6020POPC   GL215722  26.943  37.673   8.853
 6020POPC   C1A15723  26.861  37.729   8.553
 6020POPC   D2A15724  26.772  37.670   8.253
 6020POPC   C3A15725  26.851  37.687   7.953
 6020POPC   C4A15726  26.779  37.729   7.653
 6020POPC   C1B15727  27.101  37.668   8.553
 6020POPC   C2B15728  27.065  37.665   8.253
 6020POPC   C3B15729  27.093  37.712   7.953
 6020POPC   C4B15730  27.045  37.634   7.653
 6021POPC   NC315731  39.275  28.415   9.453
 6021POPC   PO415732  39.215  28.323   9.153
 6021POPC   GL115733  39.217  28.353   8.853
 6021POPC   GL215734  39.333  28.356   8.853
 6021POPC   C1A15735  39.196  28.387   8.553
 6021POPC   D2A15736  39.226  28.379   8.253
 6021POPC   C3A15737  39.228  28.341   7.953
 6021POPC   C4A15738  39.281  28.362   7.653
 6021POPC   C1B15739  39.469  28.379   8.553
 6021POPC   C2B15740  39.522  28.356   8.253
 6021POPC   C3B15741  39.525  28.406   7.953
 6021POPC   C4B15742  39.485  28.395   7.653
 6022POPC   NC315743  14.420   0.416   9.453
 6022POPC   PO415744  14.416   0.450   9.153
 6022POPC   GL115745  14.442   0.389   8.853
 6022POPC   GL215746  14.310   0.383   8.853
 6022POPC   C1A15747  14.372   0.413   8.553
 6022POPC   D2A15748  14.380   0.410   8.253
 6022POPC   C3A15749  14.393   0.454   7.953
 6022POPC   C4A15750  14.406   0.478   7.653
 6022POPC   C1B15751  14.153   0.325   8.553
 6022POPC   C2B15752  14.217   0.250   8.253
 6022POPC   C3B15753  14.189   0.296   7.953
 6022POPC   C4B15754  14.245   0.337   7.653
 6023POPC   NC315755   8.972  28.407   9.453
 6023POPC   PO415756   8.953  28.336   9.153
 6023POPC   GL115757   8.926  28.338   8.853
 6023POPC   GL215758   9.026  28.233   8.853
 6023POPC   C1A15759   8.955  28.360   8.553
 6023POPC   D2A15760   8.978  28.364   8.253
 6023POPC   C3A15761   8.948  28.381   7.953
 6023POPC   C4A15762   8.984  28.373   7.653
 6023POPC   C1B15763   9.078  28.168   8.553
 6023POPC   C2B15764   9.102  28.189   8.253
 6023POPC   C3B15765   9.100  28.181   7.953
 6023POPC   C4B15766   9.082  28.135   7.653
 6024POPC   NC315767  16.701  20.594   9.453
 6024POPC   PO415768  16.749  20.564   9.153
 6024POPC   GL115769  16.687  20.635   8.853
 6024POPC   GL215770  16.881  20.599   8.853
 6024POPC   C1A15771  16.778  20.627   8.553
 6024POPC   D2A15772  16.743  20.581   8.253
 6024POPC   C3A15773  16.761  20.638   7.953
 6024POPC   C4A15774  16.767  20.600   7.653
 6024POPC   C1B15775  17.004  20.660   8.553
 6024POPC   C2B15776  17.020  20.694   8.253
 6024POPC   C3B15777  16.996  20.651   7.953
 6024POPC   C4B15778  16.987  20.699   7.653
 6025POPC   NC315779  29.116  12.860   9.453
 6025POPC   PO415780  29.143  12.830   9.153
 6025POPC   GL115781  29.124  12.840   8.853
 6025POPC   GL215782  29.120  13.011   8.853
 6025POPC   C1A15783  29.158  12.835   8.553
 6025POPC   D2A15784  29.172  12.819   8.253
 6025POPC   C3A15785  29.100  12.868   7.953
 6025POPC   C4A15786  29.147  12.877   7.653
 6025POPC   C1B15787  29.039  13.056   8.553
 6025POPC   C2B15788  29.075  13.062   8.253
 6025POPC   C3B15789  29.079  13.132   7.953
 6025POPC   C4B15790  29.124  13.049   7.653
 6026POPC   NC315791  12.848  21.375   9.453
 6026POPC   PO415792  12.894  21.423   9.153
 6026POPC   GL115793  12.884  21.408   8.853
 6026POPC   GL215794  12.771  21.513   8.853
 6026POPC   C1A15795  12.893  21.391   8.553
 6026POPC   D2A15796  12.817  21.374   8.253
 6026POPC   C3A15797  12.892  21.340   7.953
 6026POPC   C4A15798  12.812  21.361   7.653
 6026POPC   C1B15799  12.721  21.529   8.553
 6026POPC   C2B15800  12.700  21.529   8.253
 6026POPC   C3B15801  12.676  21.574   7.953
 6026POPC   C4B15802  12.708  21.601   7.653
 6027POPC   NC315803  28.349  40.826   9.453
 6027POPC   PO415804  28.389  40.745   9.153
 6027POPC   GL115805  28.337  40.742   8.853
 6027POPC   GL215806  28.404  40.882   8.853
 6027POPC   C1A15807  28.414  40.824   8.553
 6027POPC   D2A15808  28.320  40.820   8.253
 6027POPC   C3A15809  28.369  40.805   7.953
 6027POPC   C4A15810  28.394  40.816   7.653
 6027POPC   C1B15811  28.340  41.071   8.553
 6027POPC   C2B15812  28.331  40.984   8.253
 6027POPC   C3B15813  28.423  41.049   7.953
 6027POPC   C4B15814  28.366  41.039   7.653
 6028POPC   NC315815  40.018  39.190   9.453
 6028POPC   PO415816  40.050  39.266   9.153
 6028POPC   GL115817  39.970  39.278   8.853
 6028POPC   GL215818  40.075  39.115   8.853
 6028POPC   C1A15819  39.959  39.224   8.553
 6028POPC   D2A15820  39.967  39.192   8.253
 6028POPC   C3A15821  40.021  39.258   7.953
 6028POPC   C4A15822  40.000  39.273   7.653
 6028POPC   C1B15823  40.232  39.127   8.553
 6028POPC   C2B15824  40.181  39.069   8.253
 6028POPC   C3B15825  40.222  39.078   7.953
 6028POPC   C4B15826  40.234  39.059   7.653
 6029POPC   NC315827  40.764  33.807   9.453
 6029POPC   PO415828  40.791  33.770   9.153
 6029POPC   GL115829  40.783  33.773   8.853
 6029POPC   GL215830  40.832  33.944   8.853
 6029POPC   C1A15831  40.825  33.840   8.553
 6029POPC   D2A15832  40.759  33.806   8.253
 6029POPC   C3A15833  40.783  33.773   7.953
 6029POPC   C4A15834  40.800  33.810   7.653
 6029POPC   C1B15835  40.858  34.067   8.553
 6029POPC   C2B15836  40.833  34.004   8.253
 6029POPC   C3B15837  40.846  34.046   7.953
 6029POPC   C4B15838  40.792  34.071   7.653
 6030POPC   NC315839  20.624  26.826   9.453
 6030POPC   PO415840  20.610  26.831   9.153
 6030POPC   GL115841  20.584  26.835   8.853
 6030POPC   GL215842  20.511  26.906   8.853
 6030POPC   C1A15843  20.633  26.815   8.553
 6030POPC   D2A15844  20.590  26.818   8.253
 6030POPC   C3A15845  20.639  26.825   7.953
 6030POPC   C4A15846  20.584  26.783   7.653
 6030POPC   C1B15847  20.406  26.886   8.553
 6030POPC   C2B15848  20.374  26.899   8.253
 6030POPC   C3B15849  20.428  26.873   7.953
 6030POPC   C4B15850  20.428  26.878   7.653
 6031POPC   NC315851  13.656  13.630   9.453
 6031POPC   PO415852  13.605  13.604   9.153
 6031POPC   GL115853  13.629  13.643   8.853
 6031POPC   GL215854  13.666  13.479   8.853
 6031POPC   C1A15855  13.657  13.664   8.553
 6031POPC   D2A15856  13.651  13.650   8.253
 6031POPC   C3A15857  13.589  13.613   7.953
 6031POPC   C4A15858  13.657  13.602   7.653
 6031POPC   C1B15859  13.690  13.382   8.553
 6031POPC   C2B15860  13.626  13.404   8.253
 6031POPC   C3B15861  13.706  13.333   7.953
 6031POPC   C4B15862  13.687  13.376   7.653
 6032POPC   NC315863  38.428  16.694   9.453
 6032POPC   PO415864  38.463  16.743   9.153
 6032POPC   GL115865  38.439  16.693   8.853
 6032POPC   GL215866  38.444  16.843   8.853
 6032POPC   C1A15867  38.411  16.727   8.553
 6032POPC   D2A15868  38.435  16.691   8.253
 6032POPC   C3A15869  38.410  16.765   7.953
 6032POPC   C4A15870  38.436  16.756   7.653
 6032POPC   C1B15871  38.366  16.952   8.553
 6032POPC   C2B15872  38.385  16.985   8.253
 6032POPC   C3B15873  38.340  16.947   7.953
 6032POPC   C4B15874  38.414  16.919   7.653
 6033POPC   NC315875  33.059  12.124   9.453
 6033POPC   PO415876  33.059  12.103   9.153
 6033POPC   GL115877  33.014  12.123   8.853
 6033POPC   GL215878  32.924  12.091   8.853
 6033POPC   C1A15879  33.074  12.057   8.553
 6033POPC   D2A15880  33.015  12.041   8.253
 6033POPC   C3A15881  33.048  12.040   7.953
 6033POPC   C4A15882  32.982  12.105   7.653
 6033POPC   C1B15883  32.748  12.213   8.553
 6033POPC   C2B15884  32.769  12.143   8.253
 6033POPC   C3B15885  32.775  12.208   7.953
 6033POPC   C4B15886  32.764  12.173   7.653
 6034POPC   NC315887   3.583  36.162   9.453
 6034POPC   PO415888   3.511  36.158   9.153
 6034POPC   GL115889   3.556  36.081   8.853
 6034POPC   GL215890   3.396  36.117   8.853
 6034POPC   C1A15891   3.534  36.134   8.553
 6034POPC   D2A15892   3.511  36.117   8.253
 6034POPC   C3A15893   3.553  36.097   7.953
 6034POPC   C4A15894   3.540  36.108   7.653
 6034POPC   C1B15895   3.262  35.997   8.553
 6034POPC   C2B15896   3.345  36.055   8.253
 6034POPC   C3B15897   3.352  36.093   7.953
 6034POPC   C4B15898   3.277  36.004   7.653
 6035POPC   NC315899  43.078  20.631   9.453
 6035POPC   PO415900  43.090  20.641   9.153
 6035POPC   GL115901  43.155  20.606   8.853
 6035POPC   GL215902  42.981  20.688   8.853
 6035POPC   C1A15903  43.115  20.658   8.553
 6035POPC   D2A15904  43.085  20.576   8.253
 6035POPC   C3A15905  43.085  20.617   7.953
 6035POPC   C4A15906  43.118  20.638   7.653
 6035POPC   C1B15907  42.925  20.748   8.553
 6035POPC   C2B15908  42.874  20.716   8.253
 6035POPC   C3B15909  42.904  20.741   7.953
 6035POPC   C4B15910  42.915  20.746   7.653
 6036POPC   NC315911  24.474  19.079   9.453
 6036POPC   PO415912  24.464  19.037   9.153
 6036POPC   GL115913  24.511  19.047   8.853
 6036POPC   GL215914  24.465  19.157   8.853
 6036POPC   C1A15915  24.534  19.072   8.553
 6036POPC   D2A15916  24.536  19.021   8.253
 6036POPC   C3A15917  24.468  19.081   7.953
 6036POPC   C4A15918  24.460  19.107   7.653
 6036POPC   C1B15919  24.410  19.329   8.553
 6036POPC   C2B15920  24.390  19.333   8.253
 6036POPC   C3B15921  24.448  19.260   7.953
 6036POPC   C4B15922  24.483  19.307   7.653
 6037POPC   NC315923  25.272  26.855   9.453
 6037POPC   PO415924  25.262  26.828   9.153
 6037POPC   GL115925  25.289  26.830   8.853
 6037POPC   GL215926  25.340  26.729   8.853
 6037POPC   C1A15927  25.287  26.837   8.553
 6037POPC   D2A15928  25.249  26.809   8.253
 6037POPC   C3A15929  25.268  26.788   7.953
 6037POPC   C4A15930  25.274  26.790   7.653
 6037POPC   C1B15931  25.380  26.654   8.553
 6037POPC   C2B15932  25.388  26.617   8.253
 6037POPC   C3B15933  25.432  26.573   7.953
 6037POPC   C4B15934  25.430  26.608   7.653
 6038POPC   NC315935   3.513  19.861   9.453
 6038POPC   PO415936   3.577  19.792   9.153
 6038POPC   GL115937   3.522  19.872   8.853
 6038POPC   GL215938   3.619  19.867   8.853
 6038POPC   C1A15939   3.547  19.786   8.553
 6038POPC   D2A15940   3.551  19.849   8.253
 6038POPC   C3A15941   3.542  19.820   7.953
 6038POPC   C4A15942   3.503  19.851   7.653
 6038POPC   C1B15943   3.826  19.909   8.553
 6038POPC   C2B15944   3.754  19.900   8.253
 6038POPC   C3B15945   3.807  19.880   7.953
 6038POPC   C4B15946   3.817  19.886   7.653
 6039POPC   NC315947  12.890   9.729   9.453
 6039POPC   PO415948  12.850   9.730   9.153
 6039POPC   GL115949  12.842   9.712   8.853
 6039POPC   GL215950  12.880   9.637   8.853
 6039POPC   C1A15951  12.887   9.741   8.553
 6039POPC   D2A15952  12.823   9.727   8.253
 6039POPC   C3A15953  12.890   9.796   7.953
 6039POPC   C4A15954  12.844   9.789   7.653
 6039POPC   C1B15955  12.860   9.484   8.553
 6039POPC   C2B15956  12.855   9.465   8.253
 6039POPC   C3B15957  12.841   9.465   7.953
 6039POPC   C4B15958  12.802   9.509   7.653
 6040POPC   NC315959   0.434  32.249   9.453
 6040POPC   PO415960   0.463  32.210   9.153
 6040POPC   GL115961   0.426  32.230   8.853
 6040POPC   GL215962   0.517  32.235   8.853
 6040POPC   C1A15963   0.402  32.244   8.553
 6040POPC   D2A15964   0.418  32.222   8.253
 6040POPC   C3A15965   0.457  32.217   7.953
 6040POPC   C4A15966   0.433  32.264   7.653
 6040POPC   C1B15967   0.629  32.153   8.553
 6040POPC   C2B15968   0.692  32.114   8.253
 6040POPC   C3B15969   0.678  32.092   7.953
 6040POPC   C4B15970   0.657  32.109   7.653
 6041POPC   NC315971  26.863  44.670   9.453
 6041POPC   PO415972  26.814  44.674   9.153
 6041POPC   GL115973  26.771  44.643   8.853
 6041POPC   GL215974  26.706  44.536   8.853
 6041POPC   C1A15975  26.854  44.640   8.553
 6041POPC   D2A15976  26.821  44.645   8.253
 6041POPC   C3A15977  26.794  44.627   7.953
 6041POPC   C4A15978  26.828  44.699   7.653
 6041POPC   C1B15979  26.700  44.464   8.553
 6041POPC   C2B15980  26.714  44.496   8.253
 6041POPC   C3B15981  26.723  44.418   7.953
 6041POPC   C4B15982  26.712  44.428   7.653
 6042POPC   NC315983   1.197   2.026   9.453
 6042POPC   PO415984   1.232   1.961   9.153
 6042POPC   GL115985   1.221   1.973   8.853
 6042POPC   GL215986   1.310   1.961   8.853
 6042POPC   C1A15987   1.169   2.008   8.553
 6042POPC   D2A15988   1.195   1.967   8.253
 6042POPC   C3A15989   1.226   1.962   7.953
 6042POPC   C4A15990   1.262   2.018   7.653
 6042POPC   C1B15991   1.484   1.971   8.553
 6042POPC   C2B15992   1.459   1.987   8.253
 6042POPC   C3B15993   1.474   2.019   7.953
 6042POPC   C4B15994   1.467   1.994   7.653
 6043POPC   NC315995  40.769  23.753   9.453
 6043POPC   PO415996  40.805  23.753   9.153
 6043POPC   GL115997  40.733  23.735   8.853
 6043POPC   GL215998  40.716  23.863   8.853
 6043POPC   C1A15999  40.775  23.742   8.553
 6043POPC   D2A16000  40.736  23.719   8.253
 6043POPC   C3A16001  40.740  23.734   7.953
 6043POPC   C4A16002  40.742  23.739   7.653
 6043POPC   C1B16003  40.697  23.896   8.553
 6043POPC   C2B16004  40.667  23.926   8.253
 6043POPC   C3B16005  40.659  23.940   7.953
 6043POPC   C4B16006  40.678  23.929   7.653
 6044POPC   NC316007  40.804  20.640   9.453
 6044POPC   PO416008  40.747  20.574   9.153
 6044POPC   GL116009  40.759  20.587   8.853
 6044POPC   GL216010  40.740  20.715   8.853
 6044POPC   C1A16011  40.733  20.608   8.553
 6044POPC   D2A16012  40.812  20.625   8.253
 6044POPC   C3A16013  40.796  20.657   7.953
 6044POPC   C4A16014  40.781  20.634   7.653
 6044POPC   C1B16015  40.578  20.764   8.553
 6044POPC   C2B16016  40.636  20.844   8.253
 6044POPC   C3B16017  40.668  20.779   7.953
 6044POPC   C4B16018  40.582  20.765   7.653
 6045POPC   NC316019   0.453  25.252   9.453
 6045POPC   PO416020   0.477  25.217   9.153
 6045POPC   GL116021   0.388  25.302   8.853
 6045POPC   GL216022   0.359  25.344   8.853
 6045POPC   C1A16023   0.393  25.241   8.553
 6045POPC   D2A16024   0.478  25.218   8.253
 6045POPC   C3A16025   0.424  25.253   7.953
 6045POPC   C4A16026   0.427  25.263   7.653
 6045POPC   C1B16027   0.267  25.399   8.553
 6045POPC   C2B16028   0.235  25.456   8.253
 6045POPC   C3B16029   0.259  25.490   7.953
 6045POPC   C4B16030   0.313  25.439   7.653
 6046POPC   NC316031  28.412  19.859   9.453
 6046POPC   PO416032  28.347  19.856   9.153
 6046POPC   GL116033  28.354  19.786   8.853
 6046POPC   GL216034  28.396  19.690   8.853
 6046POPC   C1A16035  28.386  19.831   8.553
 6046POPC   D2A16036  28.389  19.883   8.253
 6046POPC   C3A16037  28.398  19.824   7.953
 6046POPC   C4A16038  28.326  19.796   7.653
 6046POPC   C1B16039  28.326  19.614   8.553
 6046POPC   C2B16040  28.291  19.629   8.253
 6046POPC   C3B16041  28.368  19.537   7.953
 6046POPC   C4B16042  28.299  19.620   7.653
 6047POPC   NC316043  38.414  34.615   9.453
 6047POPC   PO416044  38.451  34.572   9.153
 6047POPC   GL116045  38.417  34.573   8.853
 6047POPC   GL216046  38.364  34.484   8.853
 6047POPC   C1A16047  38.462  34.571   8.553
 6047POPC   D2A16048  38.470  34.543   8.253
 6047POPC   C3A16049  38.417  34.604   7.953
 6047POPC   C4A16050  38.501  34.558   7.653
 6047POPC   C1B16051  38.317  34.373   8.553
 6047POPC   C2B16052  38.293  34.411   8.253
 6047POPC   C3B16053  38.241  34.438   7.953
 6047POPC   C4B16054  38.318  34.384   7.653
 6048POPC   NC316055  41.559  10.565   9.453
 6048POPC   PO416056  41.521  10.536   9.153
 6048POPC   GL116057  41.553  10.519   8.853
 6048POPC   GL216058  41.429  10.528   8.853
 6048POPC   C1A16059  41.520  10.545   8.553
 6048POPC   D2A16060  41.556  10.548   8.253
 6048POPC   C3A16061  41.555  10.562   7.953
 6048POPC   C4A16062  41.544  10.529   7.653
 6048POPC   C1B16063  41.299  10.649   8.553
 6048POPC   C2B16064  41.367  10.590   8.253
 6048POPC   C3B16065  41.344  10.579   7.953
 6048POPC   C4B16066  41.301  10.660   7.653
 6049POPC   NC316067  27.547  14.415   9.453
 6049POPC   PO416068  27.570  14.422   9.153
 6049POPC   GL116069  27.610  14.449   8.853
 6049POPC   GL216070  27.494  14.323   8.853
 6049POPC   C1A16071  27.623  14.370   8.553
 6049POPC   D2A16072  27.613  14.364   8.253
 6049POPC   C3A16073  27.591  14.387   7.953
 6049POPC   C4A16074  27.544  14.437   7.653
 6049POPC   C1B16075  27.404  14.310   8.553
 6049POPC   C2B16076  27.418  14.275   8.253
 6049POPC   C3B16077  27.387  14.293   7.953
 6049POPC   C4B16078  27.424  14.282   7.653
 6050POPC   NC316079  35.366   8.213   9.453
 6050POPC   PO416080  35.319   8.157   9.153
 6050POPC   GL116081  35.366   8.153   8.853
 6050POPC   GL216082  35.474   8.304   8.853
 6050POPC   C1A16083  35.379   8.235   8.553
 6050POPC   D2A16084  35.380   8.173   8.253
 6050POPC   C3A16085  35.341   8.226   7.953
 6050POPC   C4A16086  35.361   8.208   7.653
 6050POPC   C1B16087  35.544   8.406   8.553
 6050POPC   C2B16088  35.519   8.386   8.253
 6050POPC   C3B16089  35.520   8.392   7.953
 6050POPC   C4B16090  35.540   8.393   7.653
 6051POPC   NC316091  30.713  43.868   9.453
 6051POPC   PO416092  30.700  43.848   9.153
 6051POPC   GL116093  30.726  43.916   8.853
 6051POPC   GL216094  30.551  43.872   8.853
 6051POPC   C1A16095  30.648  43.861   8.553
 6051POPC   D2A16096  30.682  43.857   8.253
 6051POPC   C3A16097  30.721  43.930   7.953
 6051POPC   C4A16098  30.736  43.921   7.653
 6051POPC   C1B16099  30.431  43.875   8.553
 6051POPC   C2B16100  30.410  43.863   8.253
 6051POPC   C3B16101  30.419  43.861   7.953
 6051POPC   C4B16102  30.439  43.845   7.653
 6052POPC   NC316103  37.719  29.945   9.453
 6052POPC   PO416104  37.655  29.894   9.153
 6052POPC   GL116105  37.679  29.885   8.853
 6052POPC   GL216106  37.753  29.899   8.853
 6052POPC   C1A16107  37.714  29.955   8.553
 6052POPC   D2A16108  37.645  29.901   8.253
 6052POPC   C3A16109  37.635  29.945   7.953
 6052POPC   C4A16110  37.633  29.877   7.653
 6052POPC   C1B16111  37.888  29.920   8.553
 6052POPC   C2B16112  37.890  29.859   8.253
 6052POPC   C3B16113  37.905  29.842   7.953
 6052POPC   C4B16114  37.969  29.908   7.653
 6053POPC   NC316115  34.558   5.837   9.453
 6053POPC   PO416116  34.538   5.859   9.153
 6053POPC   GL116117  34.589   5.840   8.853
 6053POPC   GL216118  34.738   5.903   8.853
 6053POPC   C1A16119  34.565   5.876   8.553
 6053POPC   D2A16120  34.617   5.861   8.253
 6053POPC   C3A16121  34.578   5.908   7.953
 6053POPC   C4A16122  34.615   5.885   7.653
 6053POPC   C1B16123  34.810   5.891   8.553
 6053POPC   C2B16124  34.857   5.899   8.253
 6053POPC   C3B16125  34.866   5.895   7.953
 6053POPC   C4B16126  34.806   5.857   7.653
 6054POPC   NC316127   8.229   8.174   9.453
 6054POPC   PO416128   8.195   8.196   9.153
 6054POPC   GL116129   8.199   8.157   8.853
 6054POPC   GL216130   8.227   8.348   8.853
 6054POPC   C1A16131   8.191   8.202   8.553
 6054POPC   D2A16132   8.157   8.203   8.253
 6054POPC   C3A16133   8.151   8.219   7.953
 6054POPC   C4A16134   8.169   8.215   7.653
 6054POPC   C1B16135   8.162   8.429   8.553
 6054POPC   C2B16136   8.203   8.486   8.253
 6054POPC   C3B16137   8.216   8.414   7.953
 6054POPC   C4B16138   8.212   8.476   7.653
 6055POPC   NC316139   7.453  13.664   9.453
 6055POPC   PO416140   7.442  13.628   9.153
 6055POPC   GL116141   7.379  13.645   8.853
 6055POPC   GL216142   7.516  13.530   8.853
 6055POPC   C1A16143   7.388  13.644   8.553
 6055POPC   D2A16144   7.376  13.597   8.253
 6055POPC   C3A16145   7.417  13.661   7.953
 6055POPC   C4A16146   7.439  13.600   7.653
 6055POPC   C1B16147   7.622  13.535   8.553
 6055POPC   C2B16148   7.600  13.479   8.253
 6055POPC   C3B16149   7.610  13.529   7.953
 6055POPC   C4B16150   7.595  13.477   7.653
 6056POPC   NC316151  10.482   9.794   9.453
 6056POPC   PO416152  10.516   9.748   9.153
 6056POPC   GL116153  10.498   9.707   8.853
 6056POPC   GL216154  10.508   9.851   8.853
 6056POPC   C1A16155  10.563   9.740   8.553
 6056POPC   D2A16156  10.504   9.737   8.253
 6056POPC   C3A16157  10.544   9.753   7.953
 6056POPC   C4A16158  10.491   9.724   7.653
 6056POPC   C1B16159  10.426  10.006   8.553
 6056POPC   C2B16160  10.431   9.958   8.253
 6056POPC   C3B16161  10.451   9.989   7.953
 6056POPC   C4B16162  10.453  10.029   7.653
 6057POPC   NC316163  19.827  12.078   9.453
 6057POPC   PO416164  19.817  12.124   9.153
 6057POPC   GL116165  19.862  12.087   8.853
 6057POPC   GL216166  19.764  12.155   8.853
 6057POPC   C1A16167  19.861  12.062   8.553
 6057POPC   D2A16168  19.833  12.069   8.253
 6057POPC   C3A16169  19.807  12.105   7.953
 6057POPC   C4A16170  19.800  12.034   7.653
 6057POPC   C1B16171  19.702  12.229   8.553
 6057POPC   C2B16172  19.674  12.289   8.253
 6057POPC   C3B16173  19.670  12.262   7.953
 6057POPC   C4B16174  19.621  12.248   7.653
 6058POPC   NC316175  12.102  26.794   9.453
 6058POPC   PO416176  12.049  26.835   9.153
 6058POPC   GL116177  12.058  26.782   8.853
 6058POPC   GL216178  12.191  26.699   8.853
 6058POPC   C1A16179  12.090  26.822   8.553
 6058POPC   D2A16180  12.104  26.837   8.253
 6058POPC   C3A16181  12.087  26.841   7.953
 6058POPC   C4A16182  12.122  26.783   7.653
 6058POPC   C1B16183  12.266  26.708   8.553
 6058POPC   C2B16184  12.257  26.658   8.253
 6058POPC   C3B16185  12.319  26.642   7.953
 6058POPC   C4B16186  12.322  26.705   7.653
 6059POPC   NC316187  20.597  44.632   9.453
 6059POPC   PO416188  20.656  44.677   9.153
 6059POPC   GL116189  20.629  44.676   8.853
 6059POPC   GL216190  20.622  44.547   8.853
 6059POPC   C1A16191  20.625  44.701   8.553
 6059POPC   D2A16192  20.560  44.712   8.253
 6059POPC   C3A16193  20.578  44.657   7.953
 6059POPC   C4A16194  20.613  44.669   7.653
 6059POPC   C1B16195  20.691  44.431   8.553
 6059POPC   C2B16196  20.650  44.396   8.253
 6059POPC   C3B16197  20.713  44.456   7.953
 6059POPC   C4B16198  20.729  44.384   7.653
 6060POPC   NC316199  19.805  29.097   9.453
 6060POPC   PO416200  19.867  29.147   9.153
 6060POPC   GL116201  19.821  29.187   8.853
 6060POPC   GL216202  19.944  29.108   8.853
 6060POPC   C1A16203  19.812  29.118   8.553
 6060POPC   D2A16204  19.827  29.112   8.253
 6060POPC   C3A16205  19.874  29.175   7.953
 6060POPC   C4A16206  19.845  29.142   7.653
 6060POPC   C1B16207  20.077  29.083   8.553
 6060POPC   C2B16208  20.031  29.078   8.253
 6060POPC   C3B16209  20.114  29.004   7.953
 6060POPC   C4B16210  20.035  29.086   7.653
 6061POPC   NC316211  11.348  43.860   9.453
 6061POPC   PO416212  11.259  43.898   9.153
 6061POPC   GL116213  11.350  43.920   8.853
 6061POPC   GL216214  11.261  43.802   8.853
 6061POPC   C1A16215  11.345  43.920   8.553
 6061POPC   D2A16216  11.306  43.917   8.253
 6061POPC   C3A16217  11.320  43.883   7.953
 6061POPC   C4A16218  11.331  43.917   7.653
 6061POPC   C1B16219  11.160  43.682   8.553
 6061POPC   C2B16220  11.156  43.717   8.253
 6061POPC   C3B16221  11.198  43.710   7.953
 6061POPC   C4B16222  11.174  43.624   7.653
 6062POPC   NC316223  23.757  16.722   9.453
 6062POPC   PO416224  23.717  16.711   9.153
 6062POPC   GL116225  23.700  16.755   8.853
 6062POPC   GL216226  23.698  16.643   8.853
 6062POPC   C1A16227  23.665  16.717   8.553
 6062POPC   D2A16228  23.699  16.753   8.253
 6062POPC   C3A16229  23.724  16.754   7.953
 6062POPC   C4A16230  23.730  16.716   7.653
 6062POPC   C1B16231  23.669  16.458   8.553
 6062POPC   C2B16232  23.737  16.435   8.253
 6062POPC   C3B16233  23.757  16.440   7.953
 6062POPC   C4B16234  23.749  16.492   7.653
 6063POPC   NC316235  30.647  40.029   9.453
 6063POPC   PO416236  30.741  40.046   9.153
 6063POPC   GL116237  30.670  39.979   8.853
 6063POPC   GL216238  30.767  40.166   8.853
 6063POPC   C1A16239  30.678  40.045   8.553
 6063POPC   D2A16240  30.731  40.006   8.253
 6063POPC   C3A16241  30.701  39.974   7.953
 6063POPC   C4A16242  30.679  39.971   7.653
 6063POPC   C1B16243  30.735  40.242   8.553
 6063POPC   C2B16244  30.731  40.226   8.253
 6063POPC   C3B16245  30.800  40.273   7.953
 6063POPC   C4B16246  30.760  40.286   7.653
 6064POPC   NC316247  42.300   1.230   9.453
 6064POPC   PO416248  42.384   1.179   9.153
 6064POPC   GL116249  42.290   1.184   8.853
 6064POPC   GL216250  42.465   1.203   8.853
 6064POPC   C1A16251  42.325   1.188   8.553
 6064POPC   D2A16252  42.330   1.245   8.253
 6064POPC   C3A16253  42.309   1.185   7.953
 6064POPC   C4A16254  42.328   1.216   7.653
 6064POPC   C1B16255  42.578   1.169   8.553
 6064POPC   C2B16256  42.604   1.206   8.253
 6064POPC   C3B16257  42.612   1.150   7.953
 6064POPC   C4B16258  42.546   1.180   7.653
 6065POPC   NC316259  16.757  11.332   9.453
 6065POPC   PO416260  16.692  11.348   9.153
 6065POPC   GL116261  16.697  11.251   8.853
 6065POPC   GL216262  16.642  11.235   8.853
 6065POPC   C1A16263  16.748  11.259   8.553
 6065POPC   D2A16264  16.719  11.270   8.253
 6065POPC   C3A16265  16.779  11.271   7.953
 6065POPC   C4A16266  16.686  11.336   7.653
 6065POPC   C1B16267  16.563  11.143   8.553
 6065POPC   C2B16268  16.594  11.087   8.253
 6065POPC   C3B16269  16.557  11.113   7.953
 6065POPC   C4B16270  16.585  11.094   7.653
 6066POPC   NC316271  30.678  34.605   9.453
 6066POPC   PO416272  30.676  34.554   9.153
 6066POPC   GL116273  30.700  34.550   8.853
 6066POPC   GL216274  30.568  34.671   8.853
 6066POPC   C1A16275  30.690  34.584   8.553
 6066POPC   D2A16276  30.711  34.612   8.253
 6066POPC   C3A16277  30.691  34.566   7.953
 6066POPC   C4A16278  30.693  34.550   7.653
 6066POPC   C1B16279  30.573  34.790   8.553
 6066POPC   C2B16280  30.511  34.753   8.253
 6066POPC   C3B16281  30.533  34.793   7.953
 6066POPC   C4B16282  30.545  34.723   7.653
 6067POPC   NC316283  19.802   8.943   9.453
 6067POPC   PO416284  19.845   9.003   9.153
 6067POPC   GL116285  19.808   8.971   8.853
 6067POPC   GL216286  19.718   9.056   8.853
 6067POPC   C1A16287  19.808   8.947   8.553
 6067POPC   D2A16288  19.843   8.941   8.253
 6067POPC   C3A16289  19.857   9.017   7.953
 6067POPC   C4A16290  19.814   9.004   7.653
 6067POPC   C1B16291  19.657   9.093   8.553
 6067POPC   C2B16292  19.609   9.108   8.253
 6067POPC   C3B16293  19.596   9.083   7.953
 6067POPC   C4B16294  19.603   9.059   7.653
 6068POPC   NC316295   2.726  17.515   9.453
 6068POPC   PO416296   2.790  17.477   9.153
 6068POPC   GL116297   2.783  17.470   8.853
 6068POPC   GL216298   2.835  17.659   8.853
 6068POPC   C1A16299   2.796  17.520   8.553
 6068POPC   D2A16300   2.792  17.474   8.253
 6068POPC   C3A16301   2.718  17.541   7.953
 6068POPC   C4A16302   2.761  17.524   7.653
 6068POPC   C1B16303   2.824  17.739   8.553
 6068POPC   C2B16304   2.876  17.702   8.253
 6068POPC   C3B16305   2.849  17.727   7.953
 6068POPC   C4B16306   2.860  17.733   7.653
 6069POPC   NC316307  32.226  44.619   9.453
 6069POPC   PO416308  32.210  44.630   9.153
 6069POPC   GL116309  32.209  44.654   8.853
 6069POPC   GL216310  32.346  44.691   8.853
 6069POPC   C1A16311  32.279  44.669   8.553
 6069POPC   D2A16312  32.201  44.666   8.253
 6069POPC   C3A16313  32.273  44.690   7.953
 6069POPC   C4A16314  32.239  44.691   7.653
 6069POPC   C1B16315  32.448  44.727   8.553
 6069POPC   C2B16316  32.437  44.787   8.253
 6069POPC   C3B16317  32.468  44.777   7.953
 6069POPC   C4B16318  32.504  44.807   7.653
 6070POPC   NC316319   5.861  30.656   9.453
 6070POPC   PO416320   5.915  30.716   9.153
 6070POPC   GL116321   5.889  30.661   8.853
 6070POPC   GL216322   5.750  30.840   8.853
 6070POPC   C1A16323   5.869  30.722   8.553
 6070POPC   D2A16324   5.823  30.693   8.253
 6070POPC   C3A16325   5.874  30.684   7.953
 6070POPC   C4A16326   5.878  30.666   7.653
 6070POPC   C1B16327   5.718  30.853   8.553
 6070POPC   C2B16328   5.732  30.942   8.253
 6070POPC   C3B16329   5.675  30.921   7.953
 6070POPC   C4B16330   5.698  30.906   7.653
 6071POPC   NC316331  35.382  23.691   9.453
 6071POPC   PO416332  35.400  23.739   9.153
 6071POPC   GL116333  35.340  23.759   8.853
 6071POPC   GL216334  35.362  23.879   8.853
 6071POPC   C1A16335  35.360  23.713   8.553
 6071POPC   D2A16336  35.336  23.666   8.253
 6071POPC   C3A16337  35.322  23.666   7.953
 6071POPC   C4A16338  35.359  23.725   7.653
 6071POPC   C1B16339  35.390  23.995   8.553
 6071POPC   C2B16340  35.337  23.977   8.253
 6071POPC   C3B16341  35.381  23.981   7.953
 6071POPC   C4B16342  35.330  23.943   7.653
 6072POPC   NC316343  19.792   1.953   9.453
 6072POPC   PO416344  19.835   1.986   9.153
 6072POPC   GL116345  19.830   2.011   8.853
 6072POPC   GL216346  19.782   1.943   8.853
 6072POPC   C1A16347  19.800   1.998   8.553
 6072POPC   D2A16348  19.873   1.974   8.253
 6072POPC   C3A16349  19.872   2.033   7.953
 6072POPC   C4A16350  19.840   1.950   7.653
 6072POPC   C1B16351  19.659   1.807   8.553
 6072POPC   C2B16352  19.595   1.806   8.253
 6072POPC   C3B16353  19.688   1.829   7.953
 6072POPC   C4B16354  19.666   1.874   7.653
 6073POPC   NC316355  35.306  43.085   9.453
 6073POPC   PO416356  35.382  43.137   9.153
 6073POPC   GL116357  35.392  43.145   8.853
 6073POPC   GL216358  35.483  42.989   8.853
 6073POPC   C1A16359  35.362  43.110   8.553
 6073POPC   D2A16360  35.352  43.119   8.253
 6073POPC   C3A16361  35.332  43.123   7.953
 6073POPC   C4A16362  35.306  43.079   7.653
 6073POPC   C1B16363  35.535  42.935   8.553
 6073POPC   C2B16364  35.526  42.925   8.253
 6073POPC   C3B16365  35.513  42.913   7.953
 6073POPC   C4B16366  35.577  42.942   7.653
 6074POPC   NC316367  33.775  43.851   9.453
 6074POPC   PO416368  33.845  43.913   9.153
 6074POPC   GL116369  33.780  43.863   8.853
 6074POPC   GL216370  33.684  43.894   8.853
 6074POPC   C1A16371  33.765  43.913   8.553
 6074POPC   D2A16372  33.818  43.921   8.253
 6074POPC   C3A16373  33.842  43.880   7.953
 6074POPC   C4A16374  33.762  43.884   7.653
 6074POPC   C1B16375  33.556  43.875   8.553
 6074POPC   C2B16376  33.560  43.833   8.253
 6074POPC   C3B16377  33.542  43.852   7.953
 6074POPC   C4B16378  33.530  43.900   7.653
 6075POPC   NC316379  12.882   8.994   9.453
 6075POPC   PO416380  12.878   8.926   9.153
 6075POPC   GL116381  12.803   8.974   8.853
 6075POPC   GL216382  12.910   8.902   8.853
 6075POPC   C1A16383  12.832   9.008   8.553
 6075POPC   D2A16384  12.817   8.938   8.253
 6075POPC   C3A16385  12.898   8.971   7.953
 6075POPC   C4A16386  12.874   8.991   7.653
 6075POPC   C1B16387  12.979   8.725   8.553
 6075POPC   C2B16388  13.002   8.798   8.253
 6075POPC   C3B16389  13.043   8.799   7.953
 6075POPC   C4B16390  12.963   8.747   7.653
 6076POPC   NC316391  44.630  32.977   9.453
 6076POPC   PO416392  44.687  33.060   9.153
 6076POPC   GL116393  44.653  33.021   8.853
 6076POPC   GL216394  44.686  33.126   8.853
 6076POPC   C1A16395  44.642  33.023   8.553
 6076POPC   D2A16396  44.707  33.052   8.253
 6076POPC   C3A16397  44.668  33.028   7.953
 6076POPC   C4A16398  44.638  32.993   7.653
 6076POPC   C1B16399  44.732  33.228   8.553
 6076POPC   C2B16400  44.736  33.264   8.253
 6076POPC   C3B16401  44.680  33.256   7.953
 6076POPC   C4B16402  44.695  33.278   7.653
 6077POPC   NC316403  35.346   7.379   9.453
 6077POPC   PO416404  35.399   7.408   9.153
 6077POPC   GL116405  35.309   7.433   8.853
 6077POPC   GL216406  35.284   7.450   8.853
 6077POPC   C1A16407  35.376   7.394   8.553
 6077POPC   D2A16408  35.375   7.420   8.253
 6077POPC   C3A16409  35.378   7.386   7.953
 6077POPC   C4A16410  35.383   7.435   7.653
 6077POPC   C1B16411  35.139   7.519   8.553
 6077POPC   C2B16412  35.088   7.526   8.253
 6077POPC   C3B16413  35.159   7.586   7.953
 6077POPC   C4B16414  35.097   7.545   7.653
 6078POPC   NC316415  41.568   8.246   9.453
 6078POPC   PO416416  41.529   8.242   9.153
 6078POPC   GL116417  41.582   8.227   8.853
 6078POPC   GL216418  41.429   8.314   8.853
 6078POPC   C1A16419  41.571   8.186   8.553
 6078POPC   D2A16420  41.511   8.188   8.253
 6078POPC   C3A16421  41.584   8.238   7.953
 6078POPC   C4A16422  41.512   8.238   7.653
 6078POPC   C1B16423  41.401   8.403   8.553
 6078POPC   C2B16424  41.353   8.341   8.253
 6078POPC   C3B16425  41.371   8.333   7.953
 6078POPC   C4B16426  41.437   8.345   7.653
 6079POPC   NC316427  15.941   8.243   9.453
 6079POPC   PO416428  15.926   8.176   9.153
 6079POPC   GL116429  15.909   8.203   8.853
 6079POPC   GL216430  15.868   8.283   8.853
 6079POPC   C1A16431  15.914   8.207   8.553
 6079POPC   D2A16432  15.943   8.227   8.253
 6079POPC   C3A16433  15.984   8.216   7.953
 6079POPC   C4A16434  15.999   8.147   7.653
 6079POPC   C1B16435  15.804   8.430   8.553
 6079POPC   C2B16436  15.870   8.427   8.253
 6079POPC   C3B16437  15.867   8.374   7.953
 6079POPC   C4B16438  15.834   8.382   7.653
 6080POPC   NC316439  39.203  43.838   9.453
 6080POPC   PO416440  39.234  43.886   9.153
 6080POPC   GL116441  39.233  43.881   8.853
 6080POPC   GL216442  39.159  43.967   8.853
 6080POPC   C1A16443  39.196  43.909   8.553
 6080POPC   D2A16444  39.261  43.865   8.253
 6080POPC   C3A16445  39.272  43.886   7.953
 6080POPC   C4A16446  39.278  43.842   7.653
 6080POPC   C1B16447  39.099  44.156   8.553
 6080POPC   C2B16448  39.117  44.125   8.253
 6080POPC   C3B16449  39.089  44.088   7.953
 6080POPC   C4B16450  39.136  44.105   7.653
 6081POPC   NC316451  41.594  19.011   9.453
 6081POPC   PO416452  41.556  19.042   9.153
 6081POPC   GL116453  41.531  19.046   8.853
 6081POPC   GL216454  41.599  19.123   8.853
 6081POPC   C1A16455  41.535  19.108   8.553
 6081POPC   D2A16456  41.550  19.025   8.253
 6081POPC   C3A16457  41.578  19.092   7.953
 6081POPC   C4A16458  41.578  19.091   7.653
 6081POPC   C1B16459  41.708  19.273   8.553
 6081POPC   C2B16460  41.671  19.260   8.253
 6081POPC   C3B16461  41.725  19.250   7.953
 6081POPC   C4B16462  41.711  19.302   7.653
 6082POPC   NC316463  11.272  10.521   9.453
 6082POPC   PO416464  11.271  10.521   9.153
 6082POPC   GL116465  11.342  10.572   8.853
 6082POPC   GL216466  11.330  10.613   8.853
 6082POPC   C1A16467  11.258  10.508   8.553
 6082POPC   D2A16468  11.309  10.536   8.253
 6082POPC   C3A16469  11.321  10.512   7.953
 6082POPC   C4A16470  11.314  10.518   7.653
 6082POPC   C1B16471  11.302  10.801   8.553
 6082POPC   C2B16472  11.326  10.750   8.253
 6082POPC   C3B16473  11.315  10.748   7.953
 6082POPC   C4B16474  11.273  10.778   7.653
 6083POPC   NC316475  23.721  15.941   9.453
 6083POPC   PO416476  23.734  15.963   9.153
 6083POPC   GL116477  23.763  15.948   8.853
 6083POPC   GL216478  23.654  15.785   8.853
 6083POPC   C1A16479  23.700  15.938   8.553
 6083POPC   D2A16480  23.678  15.958   8.253
 6083POPC   C3A16481  23.757  15.941   7.953
 6083POPC   C4A16482  23.733  15.964   7.653
 6083POPC   C1B16483  23.637  15.698   8.553
 6083POPC   C2B16484  23.707  15.742   8.253
 6083POPC   C3B16485  23.693  15.694   7.953
 6083POPC   C4B16486  23.703  15.664   7.653
 6084POPC   NC316487  43.110  43.092   9.453
 6084POPC   PO416488  43.121  43.148   9.153
 6084POPC   GL116489  43.142  43.110   8.853
 6084POPC   GL216490  43.191  43.206   8.853
 6084POPC   C1A16491  43.142  43.132   8.553
 6084POPC   D2A16492  43.160  43.068   8.253
 6084POPC   C3A16493  43.112  43.079   7.953
 6084POPC   C4A16494  43.160  43.125   7.653
 6084POPC   C1B16495  43.374  43.231   8.553
 6084POPC   C2B16496  43.317  43.211   8.253
 6084POPC   C3B16497  43.314  43.210   7.953
 6084POPC   C4B16498  43.373  43.201   7.653
 6085POPC   NC316499  44.676   3.506   9.453
 6085POPC   PO416500  44.663   3.512   9.153
 6085POPC   GL116501  44.642   3.573   8.853
 6085POPC   GL216502  44.588   3.639   8.853
 6085POPC   C1A16503  44.631   3.526   8.553
 6085POPC   D2A16504  44.660   3.540   8.253
 6085POPC   C3A16505  44.672   3.526   7.953
 6085POPC   C4A16506  44.635   3.556   7.653
 6085POPC   C1B16507  44.630   3.785   8.553
 6085POPC   C2B16508  44.642   3.820   8.253
 6085POPC   C3B16509  44.636   3.778   7.953
 6085POPC   C4B16510  44.611   3.749   7.653
 6086POPC   NC316511  34.609  43.913   9.453
 6086POPC   PO416512  34.545  43.872   9.153
 6086POPC   GL116513  34.562  43.915   8.853
 6086POPC   GL216514  34.636  44.000   8.853
 6086POPC   C1A16515  34.563  43.873   8.553
 6086POPC   D2A16516  34.602  43.863   8.253
 6086POPC   C3A16517  34.568  43.934   7.953
 6086POPC   C4A16518  34.557  43.901   7.653
 6086POPC   C1B16519  34.789  43.996   8.553
 6086POPC   C2B16520  34.772  44.028   8.253
 6086POPC   C3B16521  34.771  44.061   7.953
 6086POPC   C4B16522  34.829  44.010   7.653
 6087POPC   NC316523  43.842  15.229   9.453
 6087POPC   PO416524  43.838  15.194   9.153
 6087POPC   GL116525  43.897  15.137   8.853
 6087POPC   GL216526  43.872  15.060   8.853
 6087POPC   C1A16527  43.870  15.145   8.553
 6087POPC   D2A16528  43.924  15.201   8.253
 6087POPC   C3A16529  43.895  15.149   7.953
 6087POPC   C4A16530  43.866  15.211   7.653
 6087POPC   C1B16531  43.822  14.906   8.553
 6087POPC   C2B16532  43.877  14.955   8.253
 6087POPC   C3B16533  43.835  14.918   7.953
 6087POPC   C4B16534  43.861  14.881   7.653
 6088POPC   NC316535  10.507  27.598   9.453
 6088POPC   PO416536  10.477  27.628   9.153
 6088POPC   GL116537  10.549  27.582   8.853
 6088POPC   GL216538  10.434  27.516   8.853
 6088POPC   C1A16539  10.572  27.618   8.553
 6088POPC   D2A16540  10.532  27.568   8.253
 6088POPC   C3A16541  10.496  27.630   7.953
 6088POPC   C4A16542  10.530  27.636   7.653
 6088POPC   C1B16543  10.287  27.400   8.553
 6088POPC   C2B16544  10.289  27.422   8.253
 6088POPC   C3B16545  10.279  27.440   7.953
 6088POPC   C4B16546  10.303  27.498   7.653
 6089POPC   NC316547  26.820  41.596   9.453
 6089POPC   PO416548  26.789  41.604   9.153
 6089POPC   GL116549  26.777  41.552   8.853
 6089POPC   GL216550  26.890  41.405   8.853
 6089POPC   C1A16551  26.788  41.560   8.553
 6089POPC   D2A16552  26.846  41.531   8.253
 6089POPC   C3A16553  26.802  41.598   7.953
 6089POPC   C4A16554  26.811  41.561   7.653
 6089POPC   C1B16555  26.933  41.352   8.553
 6089POPC   C2B16556  26.938  41.316   8.253
 6089POPC   C3B16557  26.929  41.322   7.953
 6089POPC   C4B16558  26.936  41.291   7.653
 6090POPC   NC316559  33.027   6.640   9.453
 6090POPC   PO416560  33.071   6.675   9.153
 6090POPC   GL116561  33.070   6.659   8.853
 6090POPC   GL216562  33.132   6.583   8.853
 6090POPC   C1A16563  33.069   6.639   8.553
 6090POPC   D2A16564  32.995   6.641   8.253
 6090POPC   C3A16565  33.026   6.613   7.953
 6090POPC   C4A16566  32.995   6.597   7.653
 6090POPC   C1B16567  33.261   6.522   8.553
 6090POPC   C2B16568  33.287   6.581   8.253
 6090POPC   C3B16569  33.234   6.562   7.953
 6090POPC   C4B16570  33.218   6.537   7.653
 6091POPC   NC316571   7.376  22.210   9.453
 6091POPC   PO416572   7.419  22.158   9.153
 6091POPC   GL116573   7.398  22.172   8.853
 6091POPC   GL216574   7.491  22.316   8.853
 6091POPC   C1A16575   7.428  22.114   8.553
 6091POPC   D2A16576   7.434  22.142   8.253
 6091POPC   C3A16577   7.375  22.186   7.953
 6091POPC   C4A16578   7.390  22.212   7.653
 6091POPC   C1B16579   7.449  22.426   8.553
 6091POPC   C2B16580   7.491  22.387   8.253
 6091POPC   C3B16581   7.484  22.428   7.953
 6091POPC   C4B16582   7.469  22.391   7.653
 6092POPC   NC316583  18.296   5.057   9.453
 6092POPC   PO416584  18.253   5.134   9.153
 6092POPC   GL116585  18.278   5.061   8.853
 6092POPC   GL216586  18.320   5.001   8.853
 6092POPC   C1A16587  18.294   5.049   8.553
 6092POPC   D2A16588  18.309   5.082   8.253
 6092POPC   C3A16589  18.262   5.121   7.953
 6092POPC   C4A16590  18.273   5.057   7.653
 6092POPC   C1B16591  18.281   4.848   8.553
 6092POPC   C2B16592  18.258   4.868   8.253
 6092POPC   C3B16593  18.311   4.880   7.953
 6092POPC   C4B16594  18.251   4.823   7.653
 6093POPC   NC316595  30.746  33.003   9.453
 6093POPC   PO416596  30.660  33.056   9.153
 6093POPC   GL116597  30.677  33.047   8.853
 6093POPC   GL216598  30.754  32.951   8.853
 6093POPC   C1A16599  30.721  33.003   8.553
 6093POPC   D2A16600  30.715  32.992   8.253
 6093POPC   C3A16601  30.746  32.993   7.953
 6093POPC   C4A16602  30.691  33.027   7.653
 6093POPC   C1B16603  30.899  32.859   8.553
 6093POPC   C2B16604  30.838  32.803   8.253
 6093POPC   C3B16605  30.884  32.806   7.953
 6093POPC   C4B16606  30.888  32.813   7.653
 6094POPC   NC316607   9.708  14.362   9.453
 6094POPC   PO416608   9.794  14.409   9.153
 6094POPC   GL116609   9.719  14.426   8.853
 6094POPC   GL216610   9.623  14.383   8.853
 6094POPC   C1A16611   9.720  14.397   8.553
 6094POPC   D2A16612   9.779  14.432   8.253
 6094POPC   C3A16613   9.755  14.392   7.953
 6094POPC   C4A16614   9.741  14.381   7.653
 6094POPC   C1B16615   9.504  14.333   8.553
 6094POPC   C2B16616   9.535  14.293   8.253
 6094POPC   C3B16617   9.493  14.280   7.953
 6094POPC   C4B16618   9.564  14.269   7.653
 6095POPC   NC316619  42.338   5.122   9.453
 6095POPC   PO416620  42.341   5.058   9.153
 6095POPC   GL116621  42.323   5.126   8.853
 6095POPC   GL216622  42.215   5.122   8.853
 6095POPC   C1A16623  42.381   5.112   8.553
 6095POPC   D2A16624  42.322   5.103   8.253
 6095POPC   C3A16625  42.352   5.142   7.953
 6095POPC   C4A16626  42.302   5.088   7.653
 6095POPC   C1B16627  42.078   5.092   8.553
 6095POPC   C2B16628  42.122   5.133   8.253
 6095POPC   C3B16629  42.053   5.189   7.953
 6095POPC   C4B16630  42.099   5.154   7.653
 6096POPC   NC316631   5.869  17.494   9.453
 6096POPC   PO416632   5.828  17.533   9.153
 6096POPC   GL116633   5.871  17.520   8.853
 6096POPC   GL216634   5.849  17.339   8.853
 6096POPC   C1A16635   5.903  17.524   8.553
 6096POPC   D2A16636   5.820  17.458   8.253
 6096POPC   C3A16637   5.876  17.489   7.953
 6096POPC   C4A16638   5.876  17.507   7.653
 6096POPC   C1B16639   5.826  17.226   8.553
 6096POPC   C2B16640   5.871  17.291   8.253
 6096POPC   C3B16641   5.874  17.210   7.953
 6096POPC   C4B16642   5.840  17.286   7.653
 6097POPC   NC316643  43.071   5.880   9.453
 6097POPC   PO416644  43.092   5.856   9.153
 6097POPC   GL116645  43.074   5.837   8.853
 6097POPC   GL216646  43.131   6.035   8.853
 6097POPC   C1A16647  43.132   5.819   8.553
 6097POPC   D2A16648  43.118   5.836   8.253
 6097POPC   C3A16649  43.121   5.840   7.953
 6097POPC   C4A16650  43.144   5.903   7.653
 6097POPC   C1B16651  43.081   6.158   8.553
 6097POPC   C2B16652  43.126   6.138   8.253
 6097POPC   C3B16653  43.092   6.116   7.953
 6097POPC   C4B16654  43.043   6.074   7.653
 6098POPC   NC316655  10.533  20.581   9.453
 6098POPC   PO416656  10.567  20.597   9.153
 6098POPC   GL116657  10.544  20.635   8.853
 6098POPC   GL216658  10.679  20.533   8.853
 6098POPC   C1A16659  10.542  20.564   8.553
 6098POPC   D2A16660  10.529  20.620   8.253
 6098POPC   C3A16661  10.497  20.608   7.953
 6098POPC   C4A16662  10.515  20.589   7.653
 6098POPC   C1B16663  10.786  20.496   8.553
 6098POPC   C2B16664  10.781  20.565   8.253
 6098POPC   C3B16665  10.720  20.493   7.953
 6098POPC   C4B16666  10.750  20.498   7.653
 6099POPC   NC316667  43.124  38.420   9.453
 6099POPC   PO416668  43.148  38.453   9.153
 6099POPC   GL116669  43.156  38.493   8.853
 6099POPC   GL216670  43.153  38.535   8.853
 6099POPC   C1A16671  43.139  38.464   8.553
 6099POPC   D2A16672  43.153  38.466   8.253
 6099POPC   C3A16673  43.098  38.496   7.953
 6099POPC   C4A16674  43.144  38.490   7.653
 6099POPC   C1B16675  43.183  38.701   8.553
 6099POPC   C2B16676  43.211  38.716   8.253
 6099POPC   C3B16677  43.190  38.637   7.953
 6099POPC   C4B16678  43.158  38.660   7.653
 6100POPC   NC316679  22.938   5.096   9.453
 6100POPC   PO416680  22.981   5.112   9.153
 6100POPC   GL116681  22.976   5.130   8.853
 6100POPC   GL216682  22.961   5.186   8.853
 6100POPC   C1A16683  22.946   5.078   8.553
 6100POPC   D2A16684  22.917   5.107   8.253
 6100POPC   C3A16685  22.912   5.048   7.953
 6100POPC   C4A16686  22.963   5.118   7.653
 6100POPC   C1B16687  22.995   5.354   8.553
 6100POPC   C2B16688  22.953   5.291   8.253
 6100POPC   C3B16689  22.994   5.301   7.953
 6100POPC   C4B16690  22.952   5.319   7.653
 6101POPC   NC316691  40.773   7.439   9.453
 6101POPC   PO416692  40.803   7.421   9.153
 6101POPC   GL116693  40.794   7.435   8.853
 6101POPC   GL216694  40.678   7.485   8.853
 6101POPC   C1A16695  40.738   7.465   8.553
 6101POPC   D2A16696  40.744   7.425   8.253
 6101POPC   C3A16697  40.755   7.406   7.953
 6101POPC   C4A16698  40.773   7.373   7.653
 6101POPC   C1B16699  40.506   7.499   8.553
 6101POPC   C2B16700  40.513   7.503   8.253
 6101POPC   C3B16701  40.512   7.508   7.953
 6101POPC   C4B16702  40.567   7.461   7.653
 6102POPC   NC316703   8.151  15.213   9.453
 6102POPC   PO416704   8.233  15.209   9.153
 6102POPC   GL116705   8.176  15.178   8.853
 6102POPC   GL216706   8.258  15.326   8.853
 6102POPC   C1A16707   8.193  15.141   8.553
 6102POPC   D2A16708   8.241  15.193   8.253
 6102POPC   C3A16709   8.234  15.190   7.953
 6102POPC   C4A16710   8.169  15.209   7.653
 6102POPC   C1B16711   8.216  15.392   8.553
 6102POPC   C2B16712   8.286  15.441   8.253
 6102POPC   C3B16713   8.275  15.434   7.953
 6102POPC   C4B16714   8.217  15.397   7.653
 6103POPC   NC316715  21.406  17.485   9.453
 6103POPC   PO416716  21.421  17.551   9.153
 6103POPC   GL116717  21.408  17.513   8.853
 6103POPC   GL216718  21.295  17.382   8.853
 6103POPC   C1A16719  21.355  17.475   8.553
 6103POPC   D2A16720  21.341  17.478   8.253
 6103POPC   C3A16721  21.384  17.540   7.953
 6103POPC   C4A16722  21.348  17.460   7.653
 6103POPC   C1B16723  21.250  17.282   8.553
 6103POPC   C2B16724  21.235  17.316   8.253
 6103POPC   C3B16725  21.305  17.325   7.953
 6103POPC   C4B16726  21.283  17.271   7.653
 6104POPC   NC316727  26.020  19.076   9.453
 6104POPC   PO416728  26.081  19.101   9.153
 6104POPC   GL116729  26.044  19.017   8.853
 6104POPC   GL216730  26.000  19.185   8.853
 6104POPC   C1A16731  26.050  19.095   8.553
 6104POPC   D2A16732  26.088  19.027   8.253
 6104POPC   C3A16733  26.065  19.069   7.953
 6104POPC   C4A16734  25.994  19.011   7.653
 6104POPC   C1B16735  25.880  19.268   8.553
 6104POPC   C2B16736  25.861  19.237   8.253
 6104POPC   C3B16737  25.845  19.197   7.953
 6104POPC   C4B16738  25.846  19.211   7.653
 6105POPC   NC316739  43.093  29.146   9.453
 6105POPC   PO416740  43.075  29.192   9.153
 6105POPC   GL116741  43.155  29.128   8.853
 6105POPC   GL216742  43.085  29.081   8.853
 6105POPC   C1A16743  43.125  29.110   8.553
 6105POPC   D2A16744  43.068  29.142   8.253
 6105POPC   C3A16745  43.119  29.154   7.953
 6105POPC   C4A16746  43.074  29.116   7.653
 6105POPC   C1B16747  42.983  28.945   8.553
 6105POPC   C2B16748  42.973  28.965   8.253
 6105POPC   C3B16749  42.958  28.944   7.953
 6105POPC   C4B16750  43.007  28.909   7.653
 6106POPC   NC316751  31.433  31.522   9.453
 6106POPC   PO416752  31.423  31.441   9.153
 6106POPC   GL116753  31.432  31.502   8.853
 6106POPC   GL216754  31.449  31.635   8.853
 6106POPC   C1A16755  31.450  31.516   8.553
 6106POPC   D2A16756  31.480  31.502   8.253
 6106POPC   C3A16757  31.510  31.430   7.953
 6106POPC   C4A16758  31.430  31.424   7.653
 6106POPC   C1B16759  31.370  31.701   8.553
 6106POPC   C2B16760  31.445  31.743   8.253
 6106POPC   C3B16761  31.418  31.741   7.953
 6106POPC   C4B16762  31.423  31.707   7.653
 6107POPC   NC316763  42.328  25.230   9.453
 6107POPC   PO416764  42.374  25.315   9.153
 6107POPC   GL116765  42.343  25.263   8.853
 6107POPC   GL216766  42.210  25.196   8.853
 6107POPC   C1A16767  42.381  25.235   8.553
 6107POPC   D2A16768  42.298  25.295   8.253
 6107POPC   C3A16769  42.287  25.306   7.953
 6107POPC   C4A16770  42.322  25.308   7.653
 6107POPC   C1B16771  42.075  25.159   8.553
 6107POPC   C2B16772  42.094  25.159   8.253
 6107POPC   C3B16773  42.106  25.103   7.953
 6107POPC   C4B16774  42.094  25.159   7.653
 6108POPC   NC316775   0.434  44.664   9.453
 6108POPC   PO416776   0.439  44.626   9.153
 6108POPC   GL116777   0.428  44.708   8.853
 6108POPC   GL216778   0.462  44.513   8.853
 6108POPC   C1A16779   0.395  44.632   8.553
 6108POPC   D2A16780   0.465  44.690   8.253
 6108POPC   C3A16781   0.482  44.706   7.953
 6108POPC   C4A16782   0.425  44.690   7.653
 6108POPC   C1B16783   0.541  44.454   8.553
 6108POPC   C2B16784   0.448  44.469   8.253
 6108POPC   C3B16785   0.465  44.425   7.953
 6108POPC   C4B16786   0.512  44.435   7.653
 6109POPC   NC316787  33.769  12.109   9.453
 6109POPC   PO416788  33.790  12.057   9.153
 6109POPC   GL116789  33.780  12.037   8.853
 6109POPC   GL216790  33.785  12.212   8.853
 6109POPC   C1A16791  33.755  12.099   8.553
 6109POPC   D2A16792  33.802  12.092   8.253
 6109POPC   C3A16793  33.792  12.096   7.953
 6109POPC   C4A16794  33.759  12.054   7.653
 6109POPC   C1B16795  33.687  12.264   8.553
 6109POPC   C2B16796  33.671  12.360   8.253
 6109POPC   C3B16797  33.735  12.358   7.953
 6109POPC   C4B16798  33.709  12.266   7.653
 6110POPC   NC316799  29.960  22.926   9.453
 6110POPC   PO416800  29.878  22.899   9.153
 6110POPC   GL116801  29.927  22.966   8.853
 6110POPC   GL216802  29.859  23.009   8.853
 6110POPC   C1A16803  29.934  22.974   8.553
 6110POPC   D2A16804  29.927  22.890   8.253
 6110POPC   C3A16805  29.912  22.977   7.953
 6110POPC   C4A16806  29.874  22.925   7.653
 6110POPC   C1B16807  29.863  23.141   8.553
 6110POPC   C2B16808  29.902  23.174   8.253
 6110POPC   C3B16809  29.831  23.183   7.953
 6110POPC   C4B16810  29.846  23.228   7.653
 6111POPC   NC316811  32.235  19.817   9.453
 6111POPC   PO416812  32.284  19.834   9.153
 6111POPC   GL116813  32.233  19.827   8.853
 6111POPC   GL216814  32.422  19.854   8.853
 6111POPC   C1A16815  32.279  19.854   8.553
 6111POPC   D2A16816  32.290  19.807   8.253
 6111POPC   C3A16817  32.258  19.814   7.953
 6111POPC   C4A16818  32.257  19.816   7.653
 6111POPC   C1B16819  32.517  19.867   8.553
 6111POPC   C2B16820  32.509  19.854   8.253
 6111POPC   C3B16821  32.509  19.849   7.953
 6111POPC   C4B16822  32.537  19.882   7.653
 6112POPC   NC316823  30.737  41.557   9.453
 6112POPC   PO416824  30.703  41.519   9.153
 6112POPC   GL116825  30.694  41.521   8.853
 6112POPC   GL216826  30.630  41.473   8.853
 6112POPC   C1A16827  30.730  41.589   8.553
 6112POPC   D2A16828  30.716  41.580   8.253
 6112POPC   C3A16829  30.657  41.552   7.953
 6112POPC   C4A16830  30.659  41.554   7.653
 6112POPC   C1B16831  30.565  41.380   8.553
 6112POPC   C2B16832  30.576  41.386   8.253
 6112POPC   C3B16833  30.532  41.316   7.953
 6112POPC   C4B16834  30.525  41.317   7.653
 6113POPC   NC316835  23.747  19.069   9.453
 6113POPC   PO416836  23.680  19.049   9.153
 6113POPC   GL116837  23.700  19.009   8.853
 6113POPC   GL216838  23.863  19.122   8.853
 6113POPC   C1A16839  23.707  19.099   8.553
 6113POPC   D2A16840  23.665  19.059   8.253
 6113POPC   C3A16841  23.739  19.011   7.953
 6113POPC   C4A16842  23.717  19.045   7.653
 6113POPC   C1B16843  23.951  19.045   8.553
 6113POPC   C2B16844  23.958  19.137   8.253
 6113POPC   C3B16845  24.008  19.098   7.953
 6113POPC   C4B16846  23.999  19.125   7.653
 6114POPC   NC316847  10.540  24.499   9.453
 6114POPC   PO416848  10.569  24.510   9.153
 6114POPC   GL116849  10.492  24.496   8.853
 6114POPC   GL216850  10.599  24.433   8.853
 6114POPC   C1A16851  10.559  24.471   8.553
 6114POPC   D2A16852  10.485  24.514   8.253
 6114POPC   C3A16853  10.491  24.461   7.953
 6114POPC   C4A16854  10.493  24.502   7.653
 6114POPC   C1B16855  10.716  24.256   8.553
 6114POPC   C2B16856  10.666  24.252   8.253
 6114POPC   C3B16857  10.735  24.291   7.953
 6114POPC   C4B16858  10.721  24.313   7.653
 6115POPC   NC316859  32.268  29.918   9.453
 6115POPC   PO416860  32.231  29.873   9.153
 6115POPC   GL116861  32.237  29.931   8.853
 6115POPC   GL216862  32.308  29.834   8.853
 6115POPC   C1A16863  32.216  29.928   8.553
 6115POPC   D2A16864  32.218  29.918   8.253
 6115POPC   C3A16865  32.281  29.923   7.953
 6115POPC   C4A16866  32.202  29.907   7.653
 6115POPC   C1B16867  32.400  29.668   8.553
 6115POPC   C2B16868  32.401  29.716   8.253
 6115POPC   C3B16869  32.382  29.723   7.953
 6115POPC   C4B16870  32.363  29.666   7.653
 6116POPC   NC316871  29.883  20.609   9.453
 6116POPC   PO416872  29.964  20.641   9.153
 6116POPC   GL116873  29.879  20.566   8.853
 6116POPC   GL216874  29.900  20.769   8.853
 6116POPC   C1A16875  29.903  20.658   8.553
 6116POPC   D2A16876  29.883  20.596   8.253
 6116POPC   C3A16877  29.952  20.614   7.953
 6116POPC   C4A16878  29.887  20.641   7.653
 6116POPC   C1B16879  29.880  20.892   8.553
 6116POPC   C2B16880  29.874  20.849   8.253
 6116POPC   C3B16881  29.913  20.826   7.953
 6116POPC   C4B16882  29.908  20.907   7.653
 6117POPC   NC316883  41.551  26.771   9.453
 6117POPC   PO416884  41.580  26.792   9.153
 6117POPC   GL116885  41.515  26.795   8.853
 6117POPC   GL216886  41.458  26.775   8.853
 6117POPC   C1A16887  41.536  26.814   8.553
 6117POPC   D2A16888  41.523  26.796   8.253
 6117POPC   C3A16889  41.566  26.833   7.953
 6117POPC   C4A16890  41.547  26.833   7.653
 6117POPC   C1B16891  41.338  26.779   8.553
 6117POPC   C2B16892  41.342  26.778   8.253
 6117POPC   C3B16893  41.328  26.798   7.953
 6117POPC   C4B16894  41.297  26.801   7.653
 6118POPC   NC316895  29.938  35.347   9.453
 6118POPC   PO416896  29.969  35.370   9.153
 6118POPC   GL116897  29.910  35.302   8.853
 6118POPC   GL216898  29.880  35.276   8.853
 6118POPC   C1A16899  29.876  35.342   8.553
 6118POPC   D2A16900  29.910  35.366   8.253
 6118POPC   C3A16901  29.888  35.374   7.953
 6118POPC   C4A16902  29.909  35.302   7.653
 6118POPC   C1B16903  29.755  35.174   8.553
 6118POPC   C2B16904  29.806  35.189   8.253
 6118POPC   C3B16905  29.780  35.107   7.953
 6118POPC   C4B16906  29.815  35.175   7.653
 6119POPC   NC316907  37.668  43.845   9.453
 6119POPC   PO416908  37.637  43.922   9.153
 6119POPC   GL116909  37.663  43.899   8.853
 6119POPC   GL216910  37.612  44.000   8.853
 6119POPC   C1A16911  37.695  43.897   8.553
 6119POPC   D2A16912  37.695  43.934   8.253
 6119POPC   C3A16913  37.664  43.844   7.953
 6119POPC   C4A16914  37.641  43.935   7.653
 6119POPC   C1B16915  37.588  44.102   8.553
 6119POPC   C2B16916  37.554  44.079   8.253
 6119POPC   C3B16917  37.620  44.072   7.953
 6119POPC   C4B16918  37.589  44.072   7.653
 6120POPC   NC316919  14.360  22.194   9.453
 6120POPC   PO416920  14.397  22.116   9.153
 6120POPC   GL116921  14.417  22.118   8.853
 6120POPC   GL216922  14.312  22.071   8.853
 6120POPC   C1A16923  14.427  22.180   8.553
 6120POPC   D2A16924  14.413  22.113   8.253
 6120POPC   C3A16925  14.445  22.131   7.953
 6120POPC   C4A16926  14.413  22.123   7.653
 6120POPC   C1B16927  14.291  21.945   8.553
 6120POPC   C2B16928  14.268  22.007   8.253
 6120POPC   C3B16929  14.290  22.002   7.953
 6120POPC   C4B16930  14.229  21.949   7.653
 6121POPC   NC316931  36.908  21.364   9.453
 6121POPC   PO416932  36.942  21.420   9.153
 6121POPC   GL116933  36.902  21.418   8.853
 6121POPC   GL216934  36.814  21.251   8.853
 6121POPC   C1A16935  36.858  21.341   8.553
 6121POPC   D2A16936  36.910  21.412   8.253
 6121POPC   C3A16937  36.905  21.393   7.953
 6121POPC   C4A16938  36.939  21.394   7.653
 6121POPC   C1B16939  36.780  21.208   8.553
 6121POPC   C2B16940  36.773  21.136   8.253
 6121POPC   C3B16941  36.717  21.146   7.953
 6121POPC   C4B16942  36.743  21.149   7.653
 6122POPC   NC316943  18.234  32.262   9.453
 6122POPC   PO416944  18.257  32.251   9.153
 6122POPC   GL116945  18.325  32.265   8.853
 6122POPC   GL216946  18.369  32.281   8.853
 6122POPC   C1A16947  18.263  32.289   8.553
 6122POPC   D2A16948  18.247  32.237   8.253
 6122POPC   C3A16949  18.309  32.207   7.953
 6122POPC   C4A16950  18.273  32.233   7.653
 6122POPC   C1B16951  18.563  32.217   8.553
 6122POPC   C2B16952  18.525  32.287   8.253
 6122POPC   C3B16953  18.494  32.247   7.953
 6122POPC   C4B16954  18.483  32.250   7.653
 6123POPC   NC316955  38.497  43.114   9.453
 6123POPC   PO416956  38.460  43.149   9.153
 6123POPC   GL116957  38.499  43.114   8.853
 6123POPC   GL216958  38.309  43.116   8.853
 6123POPC   C1A16959  38.490  43.099   8.553
 6123POPC   D2A16960  38.486  43.133   8.253
 6123POPC   C3A16961  38.488  43.126   7.953
 6123POPC   C4A16962  38.412  43.091   7.653
 6123POPC   C1B16963  38.231  43.108   8.553
 6123POPC   C2B16964  38.240  43.185   8.253
 6123POPC   C3B16965  38.254  43.200   7.953
 6123POPC   C4B16966  38.159  43.124   7.653
 6124POPC   NC316967   2.003   5.852   9.453
 6124POPC   PO416968   2.001   5.855   9.153
 6124POPC   GL116969   2.033   5.856   8.853
 6124POPC   GL216970   2.070   5.853   8.853
 6124POPC   C1A16971   2.005   5.890   8.553
 6124POPC   D2A16972   1.969   5.903   8.253
 6124POPC   C3A16973   1.978   5.866   7.953
 6124POPC   C4A16974   1.946   5.875   7.653
 6124POPC   C1B16975   2.189   5.915   8.553
 6124POPC   C2B16976   2.226   5.863   8.253
 6124POPC   C3B16977   2.277   5.936   7.953
 6124POPC   C4B16978   2.212   5.923   7.653
 6125POPC   NC316979  42.382  20.604   9.453
 6125POPC   PO416980  42.351  20.649   9.153
 6125POPC   GL116981  42.314  20.646   8.853
 6125POPC   GL216982  42.423  20.620   8.853
 6125POPC   C1A16983  42.377  20.573   8.553
 6125POPC   D2A16984  42.296  20.602   8.253
 6125POPC   C3A16985  42.310  20.586   7.953
 6125POPC   C4A16986  42.326  20.561   7.653
 6125POPC   C1B16987  42.621  20.698   8.553
 6125POPC   C2B16988  42.619  20.668   8.253
 6125POPC   C3B16989  42.523  20.653   7.953
 6125POPC   C4B16990  42.597  20.730   7.653
 6126POPC   NC316991  40.821   1.949   9.453
 6126POPC   PO416992  40.744   2.023   9.153
 6126POPC   GL116993  40.771   1.943   8.853
 6126POPC   GL216994  40.674   2.138   8.853
 6126POPC   C1A16995  40.764   2.011   8.553
 6126POPC   D2A16996  40.828   1.956   8.253
 6126POPC   C3A16997  40.754   2.027   7.953
 6126POPC   C4A16998  40.762   2.016   7.653
 6126POPC   C1B16999  40.629   2.202   8.553
 6126POPC   C2B17000  40.676   2.217   8.253
 6126POPC   C3B17001  40.656   2.181   7.953
 6126POPC   C4B17002  40.657   2.206   7.653
 6127POPC   NC317003  44.676  31.506   9.453
 6127POPC   PO417004  44.680  31.454   9.153
 6127POPC   GL117005  44.629  31.441   8.853
 6127POPC   GL217006  44.549  31.433   8.853
 6127POPC   C1A17007  44.701  31.492   8.553
 6127POPC   D2A17008  44.688  31.508   8.253
 6127POPC   C3A17009  44.627  31.440   7.953
 6127POPC   C4A17010  44.630  31.503   7.653
 6127POPC   C1B17011  44.431  31.339   8.553
 6127POPC   C2B17012  44.419  31.316   8.253
 6127POPC   C3B17013  44.429  31.335   7.953
 6127POPC   C4B17014  44.430  31.327   7.653
 6128POPC   NC317015  34.527   6.679   9.453
 6128POPC   PO417016  34.579   6.606   9.153
 6128POPC   GL117017  34.570   6.607   8.853
 6128POPC   GL217018  34.528   6.520   8.853
 6128POPC   C1A17019  34.579   6.640   8.553
 6128POPC   D2A17020  34.552   6.663   8.253
 6128POPC   C3A17021  34.614   6.610   7.953
 6128POPC   C4A17022  34.601   6.689   7.653
 6128POPC   C1B17023  34.536   6.410   8.553
 6128POPC   C2B17024  34.592   6.349   8.253
 6128POPC   C3B17025  34.610   6.405   7.953
 6128POPC   C4B17026  34.544   6.410   7.653
 6129POPC   NC317027  26.081   3.507   9.453
 6129POPC   PO417028  26.055   3.493   9.153
 6129POPC   GL117029  26.081   3.540   8.853
 6129POPC   GL217030  25.931   3.466   8.853
 6129POPC   C1A17031  26.061   3.560   8.553
 6129POPC   D2A17032  26.039   3.575   8.253
 6129POPC   C3A17033  25.998   3.583   7.953
 6129POPC   C4A17034  26.005   3.557   7.653
 6129POPC   C1B17035  25.944   3.374   8.553
 6129POPC   C2B17036  25.905   3.326   8.253
 6129POPC   C3B17037  25.934   3.382   7.953
 6129POPC   C4B17038  25.867   3.294   7.653
 6130POPC   NC317039  11.292   8.147   9.453
 6130POPC   PO417040  11.342   8.216   9.153
 6130POPC   GL117041  11.266   8.222   8.853
 6130POPC   GL217042  11.193   8.263   8.853
 6130POPC   C1A17043  11.266   8.149   8.553
 6130POPC   D2A17044  11.269   8.234   8.253
 6130POPC   C3A17045  11.347   8.180   7.953
 6130POPC   C4A17046  11.324   8.184   7.653
 6130POPC   C1B17047  11.092   8.333   8.553
 6130POPC   C2B17048  11.093   8.344   8.253
 6130POPC   C3B17049  11.090   8.311   7.953
 6130POPC   C4B17050  11.087   8.371   7.653
 6131POPC   NC317051   4.347  33.042   9.453
 6131POPC   PO417052   4.353  32.997   9.153
 6131POPC   GL117053   4.339  33.068   8.853
 6131POPC   GL217054   4.154  33.010   8.853
 6131POPC   C1A17055   4.332  33.008   8.553
 6131POPC   D2A17056   4.318  33.034   8.253
 6131POPC   C3A17057   4.337  33.038   7.953
 6131POPC   C4A17058   4.330  33.053   7.653
 6131POPC   C1B17059   4.090  32.937   8.553
 6131POPC   C2B17060   4.105  32.941   8.253
 6131POPC   C3B17061   4.043  32.965   7.953
 6131POPC   C4B17062   4.048  32.948   7.653
 6132POPC   NC317063  38.409  41.592   9.453
 6132POPC   PO417064  38.466  41.543   9.153
 6132POPC   GL117065  38.471  41.593   8.853
 6132POPC   GL217066  38.407  41.461   8.853
 6132POPC   C1A17067  38.488  41.523   8.553
 6132POPC   D2A17068  38.424  41.599   8.253
 6132POPC   C3A17069  38.433  41.572   7.953
 6132POPC   C4A17070  38.448  41.586   7.653
 6132POPC   C1B17071  38.363  41.311   8.553
 6132POPC   C2B17072  38.393  41.322   8.253
 6132POPC   C3B17073  38.361  41.350   7.953
 6132POPC   C4B17074  38.425  41.283   7.653
 6133POPC   NC317075  29.156  39.219   9.453
 6133POPC   PO417076  29.174  39.182   9.153
 6133POPC   GL117077  29.145  39.222   8.853
 6133POPC   GL217078  29.078  39.335   8.853
 6133POPC   C1A17079  29.114  39.265   8.553
 6133POPC   D2A17080  29.160  39.235   8.253
 6133POPC   C3A17081  29.167  39.203   7.953
 6133POPC   C4A17082  29.155  39.276   7.653
 6133POPC   C1B17083  28.924  39.350   8.553
 6133POPC   C2B17084  28.910  39.320   8.253
 6133POPC   C3B17085  28.953  39.386   7.953
 6133POPC   C4B17086  28.909  39.351   7.653
 6134POPC   NC317087  24.444  17.474   9.453
 6134POPC   PO417088  24.508  17.483   9.153
 6134POPC   GL117089  24.528  17.525   8.853
 6134POPC   GL217090  24.331  17.580   8.853
 6134POPC   C1A17091  24.462  17.462   8.553
 6134POPC   D2A17092  24.477  17.466   8.253
 6134POPC   C3A17093  24.526  17.501   7.953
 6134POPC   C4A17094  24.460  17.518   7.653
 6134POPC   C1B17095  24.305  17.614   8.553
 6134POPC   C2B17096  24.313  17.640   8.253
 6134POPC   C3B17097  24.251  17.569   7.953
 6134POPC   C4B17098  24.272  17.612   7.653
 6135POPC   NC317099  33.013  21.368   9.453
 6135POPC   PO417100  33.018  21.426   9.153
 6135POPC   GL117101  32.980  21.419   8.853
 6135POPC   GL217102  33.073  21.311   8.853
 6135POPC   C1A17103  32.994  21.397   8.553
 6135POPC   D2A17104  33.037  21.372   8.253
 6135POPC   C3A17105  32.977  21.386   7.953
 6135POPC   C4A17106  33.036  21.370   7.653
 6135POPC   C1B17107  33.157  21.140   8.553
 6135POPC   C2B17108  33.161  21.168   8.253
 6135POPC   C3B17109  33.146  21.180   7.953
 6135POPC   C4B17110  33.140  21.195   7.653
 6136POPC   NC317111  28.389  23.750   9.453
 6136POPC   PO417112  28.367  23.682   9.153
 6136POPC   GL117113  28.382  23.672   8.853
 6136POPC   GL217114  28.517  23.723   8.853
 6136POPC   C1A17115  28.384  23.673   8.553
 6136POPC   D2A17116  28.390  23.762   8.253
 6136POPC   C3A17117  28.321  23.684   7.953
 6136POPC   C4A17118  28.410  23.705   7.653
 6136POPC   C1B17119  28.576  23.644   8.553
 6136POPC   C2B17120  28.566  23.673   8.253
 6136POPC   C3B17121  28.636  23.626   7.953
 6136POPC   C4B17122  28.655  23.639   7.653
 6137POPC   NC317123  34.588  40.750   9.453
 6137POPC   PO417124  34.608  40.832   9.153
 6137POPC   GL117125  34.604  40.783   8.853
 6137POPC   GL217126  34.451  40.665   8.853
 6137POPC   C1A17127  34.557  40.819   8.553
 6137POPC   D2A17128  34.613  40.767   8.253
 6137POPC   C3A17129  34.544  40.734   7.953
 6137POPC   C4A17130  34.575  40.742   7.653
 6137POPC   C1B17131  34.454  40.615   8.553
 6137POPC   C2B17132  34.444  40.617   8.253
 6137POPC   C3B17133  34.387  40.591   7.953
 6137POPC   C4B17134  34.391  40.582   7.653
 6138POPC   NC317135  36.904  40.807   9.453
 6138POPC   PO417136  36.873  40.821   9.153
 6138POPC   GL117137  36.932  40.772   8.853
 6138POPC   GL217138  37.003  40.824   8.853
 6138POPC   C1A17139  36.872  40.747   8.553
 6138POPC   D2A17140  36.878  40.798   8.253
 6138POPC   C3A17141  36.924  40.811   7.953
 6138POPC   C4A17142  36.922  40.776   7.653
 6138POPC   C1B17143  37.151  40.863   8.553
 6138POPC   C2B17144  37.107  40.785   8.253
 6138POPC   C3B17145  37.153  40.809   7.953
 6138POPC   C4B17146  37.127  40.844   7.653
 6139POPC   NC317147  22.192  26.006   9.453
 6139POPC   PO417148  22.190  25.991   9.153
 6139POPC   GL117149  22.113  26.048   8.853
 6139POPC   GL217150  22.163  25.903   8.853
 6139POPC   C1A17151  22.196  26.031   8.553
 6139POPC   D2A17152  22.156  26.051   8.253
 6139POPC   C3A17153  22.185  26.010   7.953
 6139POPC   C4A17154  22.185  26.053   7.653
 6139POPC   C1B17155  22.258  25.826   8.553
 6139POPC   C2B17156  22.196  25.767   8.253
 6139POPC   C3B17157  22.224  25.819   7.953
 6139POPC   C4B17158  22.279  25.831   7.653
 6140POPC   NC317159  32.257  33.813   9.453
 6140POPC   PO417160  32.206  33.766   9.153
 6140POPC   GL117161  32.227  33.799   8.853
 6140POPC   GL217162  32.146  33.770   8.853
 6140POPC   C1A17163  32.285  33.763   8.553
 6140POPC   D2A17164  32.218  33.760   8.253
 6140POPC   C3A17165  32.229  33.819   7.953
 6140POPC   C4A17166  32.252  33.802   7.653
 6140POPC   C1B17167  32.067  33.665   8.553
 6140POPC   C2B17168  32.059  33.642   8.253
 6140POPC   C3B17169  32.056  33.695   7.953
 6140POPC   C4B17170  32.021  33.641   7.653
 6141POPC   NC317171  43.148  35.346   9.453
 6141POPC   PO417172  43.108  35.391   9.153
 6141POPC   GL117173  43.150  35.377   8.853
 6141POPC   GL217174  43.209  35.303   8.853
 6141POPC   C1A17175  43.123  35.384   8.553
 6141POPC   D2A17176  43.153  35.324   8.253
 6141POPC   C3A17177  43.110  35.313   7.953
 6141POPC   C4A17178  43.125  35.346   7.653
 6141POPC   C1B17179  43.401  35.287   8.553
 6141POPC   C2B17180  43.380  35.313   8.253
 6141POPC   C3B17181  43.359  35.344   7.953
 6141POPC   C4B17182  43.388  35.305   7.653
 6142POPC   NC317183  41.597  30.655   9.453
 6142POPC   PO417184  41.541  30.746   9.153
 6142POPC   GL117185  41.534  30.734   8.853
 6142POPC   GL217186  41.596  30.788   8.853
 6142POPC   C1A17187  41.519  30.649   8.553
 6142POPC   D2A17188  41.608  30.653   8.253
 6142POPC   C3A17189  41.525  30.690   7.953
 6142POPC   C4A17190  41.561  30.728   7.653
 6142POPC   C1B17191  41.752  30.937   8.553
 6142POPC   C2B17192  41.671  30.932   8.253
 6142POPC   C3B17193  41.664  30.926   7.953
 6142POPC   C4B17194  41.723  30.850   7.653
 6143POPC   NC317195  38.441  42.360   9.453
 6143POPC   PO417196  38.410  42.369   9.153
 6143POPC   GL117197  38.488  42.293   8.853
 6143POPC   GL217198  38.547  42.328   8.853
 6143POPC   C1A17199  38.449  42.365   8.553
 6143POPC   D2A17200  38.435  42.338   8.253
 6143POPC   C3A17201  38.485  42.305   7.953
 6143POPC   C4A17202  38.464  42.355   7.653
 6143POPC   C1B17203  38.735  42.232   8.553
 6143POPC   C2B17204  38.673  42.230   8.253
 6143POPC   C3B17205  38.701  42.228   7.953
 6143POPC   C4B17206  38.720  42.270   7.653
 6144POPC   NC317207  32.991  43.077   9.453
 6144POPC   PO417208  33.068  43.141   9.153
 6144POPC   GL117209  33.026  43.127   8.853
 6144POPC   GL217210  32.947  43.043   8.853
 6144POPC   C1A17211  33.018  43.072   8.553
 6144POPC   D2A17212  33.000  43.104   8.253
 6144POPC   C3A17213  33.012  43.063   7.953
 6144POPC   C4A17214  33.031  43.143   7.653
 6144POPC   C1B17215  32.824  42.919   8.553
 6144POPC   C2B17216  32.851  42.968   8.253
 6144POPC   C3B17217  32.832  42.924   7.953
 6144POPC   C4B17218  32.814  42.940   7.653
 6145POPC   NC317219  12.889  43.122   9.453
 6145POPC   PO417220  12.811  43.093   9.153
 6145POPC   GL117221  12.876  43.099   8.853
 6145POPC   GL217222  12.824  42.979   8.853
 6145POPC   C1A17223  12.844  43.071   8.553
 6145POPC   D2A17224  12.855  43.120   8.253
 6145POPC   C3A17225  12.873  43.090   7.953
 6145POPC   C4A17226  12.854  43.147   7.653
 6145POPC   C1B17227  12.787  42.828   8.553
 6145POPC   C2B17228  12.797  42.844   8.253
 6145POPC   C3B17229  12.731  42.840   7.953
 6145POPC   C4B17230  12.777  42.858   7.653
 6146POPC   NC317231   8.147  30.724   9.453
 6146POPC   PO417232   8.246  30.661   9.153
 6146POPC   GL117233   8.211  30.712   8.853
 6146POPC   GL217234   8.091  30.720   8.853
 6146POPC   C1A17235   8.154  30.720   8.553
 6146POPC   D2A17236   8.165  30.678   8.253
 6146POPC   C3A17237   8.211  30.740   7.953
 6146POPC   C4A17238   8.244  30.692   7.653
 6146POPC   C1B17239   8.003  30.743   8.553
 6146POPC   C2B17240   8.005  30.761   8.253
 6146POPC   C3B17241   7.927  30.768   7.953
 6146POPC   C4B17242   7.924  30.731   7.653
 6147POPC   NC317243  29.186  36.913   9.453
 6147POPC   PO417244  29.177  36.899   9.153
 6147POPC   GL117245  29.127  36.909   8.853
 6147POPC   GL217246  29.071  36.824   8.853
 6147POPC   C1A17247  29.149  36.894   8.553
 6147POPC   D2A17248  29.137  36.860   8.253
 6147POPC   C3A17249  29.161  36.945   7.953
 6147POPC   C4A17250  29.097  36.935   7.653
 6147POPC   C1B17251  29.054  36.694   8.553
 6147POPC   C2B17252  29.065  36.637   8.253
 6147POPC   C3B17253  29.110  36.623   7.953
 6147POPC   C4B17254  29.131  36.627   7.653
 6148POPC   NC317255  37.670   1.168   9.453
 6148POPC   PO417256  37.674   1.210   9.153
 6148POPC   GL117257  37.680   1.257   8.853
 6148POPC   GL217258  37.817   1.236   8.853
 6148POPC   C1A17259  37.642   1.220   8.553
 6148POPC   D2A17260  37.631   1.185   8.253
 6148POPC   C3A17261  37.664   1.262   7.953
 6148POPC   C4A17262  37.668   1.246   7.653
 6148POPC   C1B17263  37.921   1.209   8.553
 6148POPC   C2B17264  37.917   1.218   8.253
 6148POPC   C3B17265  37.887   1.233   7.953
 6148POPC   C4B17266  37.925   1.214   7.653
 6149POPC   NC317267  13.634  43.119   9.453
 6149POPC   PO417268  13.651  43.129   9.153
 6149POPC   GL117269  13.656  43.093   8.853
 6149POPC   GL217270  13.764  43.086   8.853
 6149POPC   C1A17271  13.586  43.133   8.553
 6149POPC   D2A17272  13.597  43.111   8.253
 6149POPC   C3A17273  13.601  43.076   7.953
 6149POPC   C4A17274  13.611  43.151   7.653
 6149POPC   C1B17275  13.826  43.059   8.553
 6149POPC   C2B17276  13.818  43.000   8.253
 6149POPC   C3B17277  13.878  43.025   7.953
 6149POPC   C4B17278  13.854  43.038   7.653
 6150POPC   NC317279   2.012  37.684   9.453
 6150POPC   PO417280   1.955  37.675   9.153
 6150POPC   GL117281   2.022  37.690   8.853
 6150POPC   GL217282   1.907  37.593   8.853
 6150POPC   C1A17283   1.943  37.684   8.553
 6150POPC   D2A17284   2.013  37.684   8.253
 6150POPC   C3A17285   1.940  37.699   7.953
 6150POPC   C4A17286   1.968  37.659   7.653
 6150POPC   C1B17287   1.787  37.516   8.553
 6150POPC   C2B17288   1.835  37.471   8.253
 6150POPC   C3B17289   1.817  37.447   7.953
 6150POPC   C4B17290   1.832  37.497   7.653
 6151POPC   NC317291   0.388  10.517   9.453
 6151POPC   PO417292   0.438  10.532   9.153
 6151POPC   GL117293   0.423  10.549   8.853
 6151POPC   GL217294   0.513  10.567   8.853
 6151POPC   C1A17295   0.461  10.555   8.553
 6151POPC   D2A17296   0.429  10.493   8.253
 6151POPC   C3A17297   0.445  10.568   7.953
 6151POPC   C4A17298   0.450  10.570   7.653
 6151POPC   C1B17299   0.670  10.593   8.553
 6151POPC   C2B17300   0.713  10.652   8.253
 6151POPC   C3B17301   0.699  10.653   7.953
 6151POPC   C4B17302   0.647  10.634   7.653
 6152POPC   NC317303   9.760  27.585   9.453
 6152POPC   PO417304   9.726  27.600   9.153
 6152POPC   GL117305   9.732  27.567   8.853
 6152POPC   GL217306   9.701  27.742   8.853
 6152POPC   C1A17307   9.704  27.611   8.553
 6152POPC   D2A17308   9.770  27.552   8.253
 6152POPC   C3A17309   9.781  27.564   7.953
 6152POPC   C4A17310   9.740  27.600   7.653
 6152POPC   C1B17311   9.637  27.839   8.553
 6152POPC   C2B17312   9.633  27.835   8.253
 6152POPC   C3B17313   9.628  27.860   7.953
 6152POPC   C4B17314   9.609  27.816   7.653
 6153POPC   NC317315   5.060   3.516   9.453
 6153POPC   PO417316   5.094   3.585   9.153
 6153POPC   GL117317   5.134   3.550   8.853
 6153POPC   GL217318   4.959   3.592   8.853
 6153POPC   C1A17319   5.140   3.581   8.553
 6153POPC   D2A17320   5.048   3.574   8.253
 6153POPC   C3A17321   5.067   3.510   7.953
 6153POPC   C4A17322   5.103   3.545   7.653
 6153POPC   C1B17323   4.848   3.681   8.553
 6153POPC   C2B17324   4.877   3.652   8.253
 6153POPC   C3B17325   4.867   3.629   7.953
 6153POPC   C4B17326   4.877   3.631   7.653
 6154POPC   NC317327   2.021  19.794   9.453
 6154POPC   PO417328   2.011  19.824   9.153
 6154POPC   GL117329   1.964  19.832   8.853
 6154POPC   GL217330   1.864  19.800   8.853
 6154POPC   C1A17331   2.030  19.786   8.553
 6154POPC   D2A17332   1.947  19.876   8.253
 6154POPC   C3A17333   1.949  19.849   7.953
 6154POPC   C4A17334   1.968  19.803   7.653
 6154POPC   C1B17335   1.757  19.793   8.553
 6154POPC   C2B17336   1.725  19.872   8.253
 6154POPC   C3B17337   1.696  19.798   7.953
 6154POPC   C4B17338   1.746  19.854   7.653
 6155POPC   NC317339   4.279  16.737   9.453
 6155POPC   PO417340   4.315  16.697   9.153
 6155POPC   GL117341   4.310  16.693   8.853
 6155POPC   GL217342   4.387  16.847   8.853
 6155POPC   C1A17343   4.306  16.752   8.553
 6155POPC   D2A17344   4.268  16.699   8.253
 6155POPC   C3A17345   4.296  16.752   7.953
 6155POPC   C4A17346   4.342  16.694   7.653
 6155POPC   C1B17347   4.469  16.859   8.553
 6155POPC   C2B17348   4.486  16.867   8.253
 6155POPC   C3B17349   4.495  16.945   7.953
 6155POPC   C4B17350   4.540  16.897   7.653
 6156POPC   NC317351  38.474   2.013   9.453
 6156POPC   PO417352  38.415   2.018   9.153
 6156POPC   GL117353  38.493   1.978   8.853
 6156POPC   GL217354  38.310   1.991   8.853
 6156POPC   C1A17355  38.501   1.941   8.553
 6156POPC   D2A17356  38.455   2.017   8.253
 6156POPC   C3A17357  38.407   2.034   7.953
 6156POPC   C4A17358  38.498   1.973   7.653
 6156POPC   C1B17359  38.220   2.072   8.553
 6156POPC   C2B17360  38.185   2.060   8.253
 6156POPC   C3B17361  38.162   2.080   7.953
 6156POPC   C4B17362  38.197   1.993   7.653
 6157POPC   NC317363  41.517  22.947   9.453
 6157POPC   PO417364  41.517  22.897   9.153
 6157POPC   GL117365  41.550  22.914   8.853
 6157POPC   GL217366  41.496  22.834   8.853
 6157POPC   C1A17367  41.576  22.930   8.553
 6157POPC   D2A17368  41.563  22.919   8.253
 6157POPC   C3A17369  41.555  22.916   7.953
 6157POPC   C4A17370  41.546  22.916   7.653
 6157POPC   C1B17371  41.508  22.651   8.553
 6157POPC   C2B17372  41.519  22.690   8.253
 6157POPC   C3B17373  41.510  22.651   7.953
 6157POPC   C4B17374  41.461  22.684   7.653
 6158POPC   NC317375  33.005  31.507   9.453
 6158POPC   PO417376  33.033  31.427   9.153
 6158POPC   GL117377  32.987  31.520   8.853
 6158POPC   GL217378  33.157  31.435   8.853
 6158POPC   C1A17379  32.992  31.497   8.553
 6158POPC   D2A17380  33.030  31.487   8.253
 6158POPC   C3A17381  33.061  31.446   7.953
 6158POPC   C4A17382  33.035  31.478   7.653
 6158POPC   C1B17383  33.241  31.453   8.553
 6158POPC   C2B17384  33.255  31.456   8.253
 6158POPC   C3B17385  33.241  31.437   7.953
 6158POPC   C4B17386  33.298  31.414   7.653
 6159POPC   NC317387  30.691   4.362   9.453
 6159POPC   PO417388  30.703   4.285   9.153
 6159POPC   GL117389  30.697   4.303   8.853
 6159POPC   GL217390  30.799   4.347   8.853
 6159POPC   C1A17391  30.678   4.313   8.553
 6159POPC   D2A17392  30.714   4.270   8.253
 6159POPC   C3A17393  30.699   4.364   7.953
 6159POPC   C4A17394  30.710   4.291   7.653
 6159POPC   C1B17395  30.944   4.351   8.553
 6159POPC   C2B17396  30.987   4.300   8.253
 6159POPC   C3B17397  30.908   4.349   7.953
 6159POPC   C4B17398  30.926   4.300   7.653
 6160POPC   NC317399  44.617  13.664   9.453
 6160POPC   PO417400  44.639  13.632   9.153
 6160POPC   GL117401  44.674  13.599   8.853
 6160POPC   GL217402  44.580  13.676   8.853
 6160POPC   C1A17403  44.703  13.591   8.553
 6160POPC   D2A17404  44.702  13.632   8.253
 6160POPC   C3A17405  44.700  13.675   7.953
 6160POPC   C4A17406  44.698  13.596   7.653
 6160POPC   C1B17407  44.437  13.839   8.553
 6160POPC   C2B17408  44.515  13.768   8.253
 6160POPC   C3B17409  44.458  13.806   7.953
 6160POPC   C4B17410  44.521  13.800   7.653
 6161POPC   NC317411  32.258  43.061   9.453
 6161POPC   PO417412  32.288  43.069   9.153
 6161POPC   GL117413  32.246  43.143   8.853
 6161POPC   GL217414  32.393  43.126   8.853
 6161POPC   C1A17415  32.239  43.109   8.553
 6161POPC   D2A17416  32.213  43.151   8.253
 6161POPC   C3A17417  32.214  43.150   7.953
 6161POPC   C4A17418  32.223  43.148   7.653
 6161POPC   C1B17419  32.460  43.216   8.553
 6161POPC   C2B17420  32.511  43.254   8.253
 6161POPC   C3B17421  32.464  43.176   7.953
 6161POPC   C4B17422  32.433  43.256   7.653
 6162POPC   NC317423  26.837  43.902   9.453
 6162POPC   PO417424  26.824  43.840   9.153
 6162POPC   GL117425  26.835  43.892   8.853
 6162POPC   GL217426  26.894  43.944   8.853
 6162POPC   C1A17427  26.800  43.901   8.553
 6162POPC   D2A17428  26.840  43.888   8.253
 6162POPC   C3A17429  26.787  43.850   7.953
 6162POPC   C4A17430  26.777  43.862   7.653
 6162POPC   C1B17431  27.008  44.067   8.553
 6162POPC   C2B17432  26.952  44.092   8.253
 6162POPC   C3B17433  26.998  44.075   7.953
 6162POPC   C4B17434  26.981  44.097   7.653
 6163POPC   NC317435  41.566  36.870   9.453
 6163POPC   PO417436  41.555  36.859   9.153
 6163POPC   GL117437  41.582  36.863   8.853
 6163POPC   GL217438  41.633  36.831   8.853
 6163POPC   C1A17439  41.525  36.884   8.553
 6163POPC   D2A17440  41.602  36.920   8.253
 6163POPC   C3A17441  41.543  36.903   7.953
 6163POPC   C4A17442  41.541  36.879   7.653
 6163POPC   C1B17443  41.697  36.721   8.553
 6163POPC   C2B17444  41.694  36.675   8.253
 6163POPC   C3B17445  41.725  36.736   7.953
 6163POPC   C4B17446  41.711  36.674   7.653
 6164POPC   NC317447  43.864   4.358   9.453
 6164POPC   PO417448  43.935   4.312   9.153
 6164POPC   GL117449  43.887   4.331   8.853
 6164POPC   GL217450  43.757   4.315   8.853
 6164POPC   C1A17451  43.885   4.326   8.553
 6164POPC   D2A17452  43.904   4.350   8.253
 6164POPC   C3A17453  43.896   4.319   7.953
 6164POPC   C4A17454  43.925   4.313   7.653
 6164POPC   C1B17455  43.601   4.396   8.553
 6164POPC   C2B17456  43.631   4.409   8.253
 6164POPC   C3B17457  43.600   4.355   7.953
 6164POPC   C4B17458  43.653   4.374   7.653
 6165POPC   NC317459   7.445  33.761   9.453
 6165POPC   PO417460   7.384  33.782   9.153
 6165POPC   GL117461   7.400  33.780   8.853
 6165POPC   GL217462   7.453  33.897   8.853
 6165POPC   C1A17463   7.417  33.778   8.553
 6165POPC   D2A17464   7.383  33.844   8.253
 6165POPC   C3A17465   7.471  33.822   7.953
 6165POPC   C4A17466   7.400  33.785   7.653
 6165POPC   C1B17467   7.495  34.008   8.553
 6165POPC   C2B17468   7.522  34.006   8.253
 6165POPC   C3B17469   7.554  33.996   7.953
 6165POPC   C4B17470   7.478  34.003   7.653
 6166POPC   NC317471  28.391  12.814   9.453
 6166POPC   PO417472  28.338  12.892   9.153
 6166POPC   GL117473  28.376  12.836   8.853
 6166POPC   GL217474  28.270  12.760   8.853
 6166POPC   C1A17475  28.367  12.878   8.553
 6166POPC   D2A17476  28.392  12.845   8.253
 6166POPC   C3A17477  28.353  12.899   7.953
 6166POPC   C4A17478  28.341  12.886   7.653
 6166POPC   C1B17479  28.283  12.641   8.553
 6166POPC   C2B17480  28.193  12.645   8.253
 6166POPC   C3B17481  28.250  12.670   7.953
 6166POPC   C4B17482  28.250  12.615   7.653
 6167POPC   NC317483  12.070  13.599   9.453
 6167POPC   PO417484  12.113  13.667   9.153
 6167POPC   GL117485  12.058  13.634   8.853
 6167POPC   GL217486  12.178  13.696   8.853
 6167POPC   C1A17487  12.086  13.669   8.553
 6167POPC   D2A17488  12.105  13.623   8.253
 6167POPC   C3A17489  12.071  13.590   7.953
 6167POPC   C4A17490  12.103  13.667   7.653
 6167POPC   C1B17491  12.234  13.747   8.553
 6167POPC   C2B17492  12.239  13.774   8.253
 6167POPC   C3B17493  12.235  13.770   7.953
 6167POPC   C4B17494  12.262  13.720   7.653
 6168POPC   NC317495  11.273  12.119   9.453
 6168POPC   PO417496  11.279  12.091   9.153
 6168POPC   GL117497  11.260  12.055   8.853
 6168POPC   GL217498  11.262  11.916   8.853
 6168POPC   C1A17499  11.293  12.073   8.553
 6168POPC   D2A17500  11.344  12.108   8.253
 6168POPC   C3A17501  11.309  12.101   7.953
 6168POPC   C4A17502  11.333  12.082   7.653
 6168POPC   C1B17503  11.223  11.784   8.553
 6168POPC   C2B17504  11.298  11.785   8.253
 6168POPC   C3B17505  11.308  11.813   7.953
 6168POPC   C4B17506  11.291  11.819   7.653
 6169POPC   NC317507   2.785   1.222   9.453
 6169POPC   PO417508   2.738   1.216   9.153
 6169POPC   GL117509   2.748   1.168   8.853
 6169POPC   GL217510   2.649   1.240   8.853
 6169POPC   C1A17511   2.803   1.200   8.553
 6169POPC   D2A17512   2.755   1.200   8.253
 6169POPC   C3A17513   2.719   1.232   7.953
 6169POPC   C4A17514   2.722   1.238   7.653
 6169POPC   C1B17515   2.500   1.195   8.553
 6169POPC   C2B17516   2.534   1.155   8.253
 6169POPC   C3B17517   2.536   1.170   7.953
 6169POPC   C4B17518   2.499   1.238   7.653
 6170POPC   NC317519  43.918   7.448   9.453
 6170POPC   PO417520  43.864   7.442   9.153
 6170POPC   GL117521  43.875   7.371   8.853
 6170POPC   GL217522  43.838   7.540   8.853
 6170POPC   C1A17523  43.899   7.451   8.553
 6170POPC   D2A17524  43.899   7.423   8.253
 6170POPC   C3A17525  43.900   7.391   7.953
 6170POPC   C4A17526  43.921   7.418   7.653
 6170POPC   C1B17527  43.820   7.696   8.553
 6170POPC   C2B17528  43.849   7.681   8.253
 6170POPC   C3B17529  43.819   7.677   7.953
 6170POPC   C4B17530  43.837   7.673   7.653
 6171POPC   NC317531   7.389  12.049   9.453
 6171POPC   PO417532   7.433  12.094   9.153
 6171POPC   GL117533   7.415  12.071   8.853
 6171POPC   GL217534   7.341  11.964   8.853
 6171POPC   C1A17535   7.409  12.048   8.553
 6171POPC   D2A17536   7.452  12.057   8.253
 6171POPC   C3A17537   7.420  12.058   7.953
 6171POPC   C4A17538   7.425  12.082   7.653
 6171POPC   C1B17539   7.344  11.817   8.553
 6171POPC   C2B17540   7.333  11.851   8.253
 6171POPC   C3B17541   7.295  11.881   7.953
 6171POPC   C4B17542   7.284  11.848   7.653
 6172POPC   NC317543  20.627  43.927   9.453
 6172POPC   PO417544  20.587  43.837   9.153
 6172POPC   GL117545  20.561  43.930   8.853
 6172POPC   GL217546  20.584  43.803   8.853
 6172POPC   C1A17547  20.647  43.869   8.553
 6172POPC   D2A17548  20.603  43.846   8.253
 6172POPC   C3A17549  20.624  43.908   7.953
 6172POPC   C4A17550  20.589  43.924   7.653
 6172POPC   C1B17551  20.585  43.676   8.553
 6172POPC   C2B17552  20.569  43.674   8.253
 6172POPC   C3B17553  20.557  43.596   7.953
 6172POPC   C4B17554  20.643  43.604   7.653
 6173POPC   NC317555  43.130  19.098   9.453
 6173POPC   PO417556  43.138  19.051   9.153
 6173POPC   GL117557  43.156  19.107   8.853
 6173POPC   GL217558  43.029  18.993   8.853
 6173POPC   C1A17559  43.096  19.084   8.553
 6173POPC   D2A17560  43.070  19.034   8.253
 6173POPC   C3A17561  43.103  19.016   7.953
 6173POPC   C4A17562  43.136  19.015   7.653
 6173POPC   C1B17563  42.945  18.901   8.553
 6173POPC   C2B17564  42.933  18.956   8.253
 6173POPC   C3B17565  42.888  18.912   7.953
 6173POPC   C4B17566  42.926  18.896   7.653
 6174POPC   NC317567  36.144   1.941   9.453
 6174POPC   PO417568  36.165   2.005   9.153
 6174POPC   GL117569  36.080   1.971   8.853
 6174POPC   GL217570  36.051   1.981   8.853
 6174POPC   C1A17571  36.082   1.990   8.553
 6174POPC   D2A17572  36.155   2.005   8.253
 6174POPC   C3A17573  36.150   1.980   7.953
 6174POPC   C4A17574  36.155   1.999   7.653
 6174POPC   C1B17575  35.896   1.970   8.553
 6174POPC   C2B17576  35.876   1.904   8.253
 6174POPC   C3B17577  35.903   1.937   7.953
 6174POPC   C4B17578  35.850   1.912   7.653
 6175POPC   NC317579   2.744  20.568   9.453
 6175POPC   PO417580   2.798  20.590   9.153
 6175POPC   GL117581   2.716  20.617   8.853
 6175POPC   GL217582   2.924  20.526   8.853
 6175POPC   C1A17583   2.735  20.572   8.553
 6175POPC   D2A17584   2.804  20.580   8.253
 6175POPC   C3A17585   2.738  20.595   7.953
 6175POPC   C4A17586   2.728  20.622   7.653
 6175POPC   C1B17587   3.004  20.499   8.553
 6175POPC   C2B17588   3.016  20.461   8.253
 6175POPC   C3B17589   2.959  20.473   7.953
 6175POPC   C4B17590   2.995  20.498   7.653
 6176POPC   NC317591  23.714   1.238   9.453
 6176POPC   PO417592  23.710   1.226   9.153
 6176POPC   GL117593  23.700   1.260   8.853
 6176POPC   GL217594  23.818   1.126   8.853
 6176POPC   C1A17595  23.682   1.223   8.553
 6176POPC   D2A17596  23.721   1.259   8.253
 6176POPC   C3A17597  23.704   1.263   7.953
 6176POPC   C4A17598  23.694   1.263   7.653
 6176POPC   C1B17599  23.914   1.057   8.553
 6176POPC   C2B17600  23.863   1.041   8.253
 6176POPC   C3B17601  23.873   1.069   7.953
 6176POPC   C4B17602  23.937   1.006   7.653
 6177POPC   NC317603   5.912  12.824   9.453
 6177POPC   PO417604   5.862  12.857   9.153
 6177POPC   GL117605   5.832  12.857   8.853
 6177POPC   GL217606   6.041  12.841   8.853
 6177POPC   C1A17607   5.915  12.841   8.553
 6177POPC   D2A17608   5.819  12.843   8.253
 6177POPC   C3A17609   5.853  12.893   7.953
 6177POPC   C4A17610   5.906  12.826   7.653
 6177POPC   C1B17611   6.113  12.937   8.553
 6177POPC   C2B17612   6.074  12.879   8.253
 6177POPC   C3B17613   6.125  12.904   7.953
 6177POPC   C4B17614   6.141  12.897   7.653
 6178POPC   NC317615  19.819   7.454   9.453
 6178POPC   PO417616  19.853   7.426   9.153
 6178POPC   GL117617  19.811   7.460   8.853
 6178POPC   GL217618  19.914   7.505   8.853
 6178POPC   C1A17619  19.800   7.447   8.553
 6178POPC   D2A17620  19.823   7.425   8.253
 6178POPC   C3A17621  19.863   7.404   7.953
 6178POPC   C4A17622  19.835   7.399   7.653
 6178POPC   C1B17623  20.058   7.472   8.553
 6178POPC   C2B17624  20.107   7.513   8.253
 6178POPC   C3B17625  20.084   7.511   7.953
 6178POPC   C4B17626  20.033   7.466   7.653
 6179POPC   NC317627  21.352  19.882   9.453
 6179POPC   PO417628  21.417  19.845   9.153
 6179POPC   GL117629  21.379  19.880   8.853
 6179POPC   GL217630  21.351  19.902   8.853
 6179POPC   C1A17631  21.404  19.791   8.553
 6179POPC   D2A17632  21.348  19.874   8.253
 6179POPC   C3A17633  21.423  19.837   7.953
 6179POPC   C4A17634  21.406  19.829   7.653
 6179POPC   C1B17635  21.276  20.078   8.553
 6179POPC   C2B17636  21.313  20.082   8.253
 6179POPC   C3B17637  21.277  20.092   7.953
 6179POPC   C4B17638  21.295  20.099   7.653
 6180POPC   NC317639  35.377  24.496   9.453
 6180POPC   PO417640  35.357  24.470   9.153
 6180POPC   GL117641  35.379  24.496   8.853
 6180POPC   GL217642  35.390  24.562   8.853
 6180POPC   C1A17643  35.327  24.482   8.553
 6180POPC   D2A17644  35.340  24.516   8.253
 6180POPC   C3A17645  35.363  24.497   7.953
 6180POPC   C4A17646  35.370  24.519   7.653
 6180POPC   C1B17647  35.453  24.701   8.553
 6180POPC   C2B17648  35.500  24.718   8.253
 6180POPC   C3B17649  35.492  24.752   7.953
 6180POPC   C4B17650  35.505  24.725   7.653
 6181POPC   NC317651  26.022  19.853   9.453
 6181POPC   PO417652  26.068  19.841   9.153
 6181POPC   GL117653  26.075  19.831   8.853
 6181POPC   GL217654  25.948  19.761   8.853
 6181POPC   C1A17655  26.029  19.837   8.553
 6181POPC   D2A17656  25.994  19.836   8.253
 6181POPC   C3A17657  26.043  19.867   7.953
 6181POPC   C4A17658  26.051  19.883   7.653
 6181POPC   C1B17659  25.852  19.644   8.553
 6181POPC   C2B17660  25.819  19.733   8.253
 6181POPC   C3B17661  25.884  19.657   7.953
 6181POPC   C4B17662  25.858  19.684   7.653
 6182POPC   NC317663  15.165  27.575   9.453
 6182POPC   PO417664  15.174  27.643   9.153
 6182POPC   GL117665  15.224  27.604   8.853
 6182POPC   GL217666  15.087  27.480   8.853
 6182POPC   C1A17667  15.193  27.642   8.553
 6182POPC   D2A17668  15.130  27.551   8.253
 6182POPC   C3A17669  15.142  27.627   7.953
 6182POPC   C4A17670  15.155  27.588   7.653
 6182POPC   C1B17671  15.020  27.351   8.553
 6182POPC   C2B17672  15.001  27.346   8.253
 6182POPC   C3B17673  15.027  27.362   7.953
 6182POPC   C4B17674  15.083  27.414   7.653
 6183POPC   NC317675  18.243  17.479   9.453
 6183POPC   PO417676  18.297  17.532   9.153
 6183POPC   GL117677  18.257  17.512   8.853
 6183POPC   GL217678  18.177  17.596   8.853
 6183POPC   C1A17679  18.325  17.492   8.553
 6183POPC   D2A17680  18.263  17.505   8.253
 6183POPC   C3A17681  18.319  17.520   7.953
 6183POPC   C4A17682  18.240  17.461   7.653
 6183POPC   C1B17683  18.141  17.732   8.553
 6183POPC   C2B17684  18.130  17.779   8.253
 6183POPC   C3B17685  18.134  17.735   7.953
 6183POPC   C4B17686  18.204  17.710   7.653
 6184POPC   NC317687  36.122  34.591   9.453
 6184POPC   PO417688  36.119  34.586   9.153
 6184POPC   GL117689  36.084  34.592   8.853
 6184POPC   GL217690  36.073  34.528   8.853
 6184POPC   C1A17691  36.119  34.596   8.553
 6184POPC   D2A17692  36.084  34.613   8.253
 6184POPC   C3A17693  36.122  34.603   7.953
 6184POPC   C4A17694  36.114  34.615   7.653
 6184POPC   C1B17695  35.930  34.460   8.553
 6184POPC   C2B17696  35.941  34.415   8.253
 6184POPC   C3B17697  35.892  34.451   7.953
 6184POPC   C4B17698  35.973  34.399   7.653
 6185POPC   NC317699   6.680  16.003   9.453
 6185POPC   PO417700   6.667  15.980   9.153
 6185POPC   GL117701   6.694  15.991   8.853
 6185POPC   GL217702   6.622  16.099   8.853
 6185POPC   C1A17703   6.673  15.946   8.553
 6185POPC   D2A17704   6.643  15.948   8.253
 6185POPC   C3A17705   6.677  15.978   7.953
 6185POPC   C4A17706   6.664  15.938   7.653
 6185POPC   C1B17707   6.561  16.153   8.553
 6185POPC   C2B17708   6.607  16.208   8.253
 6185POPC   C3B17709   6.589  16.243   7.953
 6185POPC   C4B17710   6.639  16.164   7.653
 6186POPC   NC317711  27.598  36.856   9.453
 6186POPC   PO417712  27.579  36.890   9.153
 6186POPC   GL117713  27.629  36.929   8.853
 6186POPC   GL217714  27.427  36.961   8.853
 6186POPC   C1A17715  27.607  36.864   8.553
 6186POPC   D2A17716  27.577  36.855   8.253
 6186POPC   C3A17717  27.599  36.931   7.953
 6186POPC   C4A17718  27.639  36.913   7.653
 6186POPC   C1B17719  27.303  36.975   8.553
 6186POPC   C2B17720  27.384  36.931   8.253
 6186POPC   C3B17721  27.395  36.956   7.953
 6186POPC   C4B17722  27.322  36.972   7.653
 6187POPC   NC317723  19.085  26.821   9.453
 6187POPC   PO417724  19.075  26.824   9.153
 6187POPC   GL117725  19.066  26.798   8.853
 6187POPC   GL217726  18.936  26.897   8.853
 6187POPC   C1A17727  19.050  26.864   8.553
 6187POPC   D2A17728  19.091  26.797   8.253
 6187POPC   C3A17729  19.081  26.803   7.953
 6187POPC   C4A17730  19.038  26.807   7.653
 6187POPC   C1B17731  18.846  27.017   8.553
 6187POPC   C2B17732  18.883  26.965   8.253
 6187POPC   C3B17733  18.878  26.960   7.953
 6187POPC   C4B17734  18.861  26.997   7.653
 6188POPC   NC317735   1.976  10.554   9.453
 6188POPC   PO417736   2.023  10.500   9.153
 6188POPC   GL117737   1.986  10.537   8.853
 6188POPC   GL217738   1.900  10.583   8.853
 6188POPC   C1A17739   1.975  10.541   8.553
 6188POPC   D2A17740   1.988  10.496   8.253
 6188POPC   C3A17741   2.026  10.569   7.953
 6188POPC   C4A17742   2.039  10.554   7.653
 6188POPC   C1B17743   1.853  10.705   8.553
 6188POPC   C2B17744   1.785  10.692   8.253
 6188POPC   C3B17745   1.859  10.686   7.953
 6188POPC   C4B17746   1.809  10.748   7.653
 6189POPC   NC317747  24.536  10.520   9.453
 6189POPC   PO417748  24.469  10.542   9.153
 6189POPC   GL117749  24.520  10.525   8.853
 6189POPC   GL217750  24.616  10.609   8.853
 6189POPC   C1A17751  24.465  10.544   8.553
 6189POPC   D2A17752  24.534  10.484   8.253
 6189POPC   C3A17753  24.536  10.534   7.953
 6189POPC   C4A17754  24.468  10.497   7.653
 6189POPC   C1B17755  24.680  10.740   8.553
 6189POPC   C2B17756  24.624  10.725   8.253
 6189POPC   C3B17757  24.651  10.758   7.953
 6189POPC   C4B17758  24.691  10.747   7.653
 6190POPC   NC317759  14.392  39.986   9.453
 6190POPC   PO417760  14.433  40.034   9.153
 6190POPC   GL117761  14.446  40.018   8.853
 6190POPC   GL217762  14.360  39.934   8.853
 6190POPC   C1A17763  14.394  39.992   8.553
 6190POPC   D2A17764  14.422  39.993   8.253
 6190POPC   C3A17765  14.436  40.052   7.953
 6190POPC   C4A17766  14.390  39.976   7.653
 6190POPC   C1B17767  14.366  39.785   8.553
 6190POPC   C2B17768  14.375  39.812   8.253
 6190POPC   C3B17769  14.306  39.796   7.953
 6190POPC   C4B17770  14.378  39.811   7.653
 6191POPC   NC317771   9.796  36.865   9.453
 6191POPC   PO417772   9.747  36.936   9.153
 6191POPC   GL117773   9.704  36.860   8.853
 6191POPC   GL217774   9.595  36.884   8.853
 6191POPC   C1A17775   9.758  36.886   8.553
 6191POPC   D2A17776   9.734  36.946   8.253
 6191POPC   C3A17777   9.789  36.877   7.953
 6191POPC   C4A17778   9.773  36.949   7.653
 6191POPC   C1B17779   9.484  36.948   8.553
 6191POPC   C2B17780   9.484  36.991   8.253
 6191POPC   C3B17781   9.471  36.958   7.953
 6191POPC   C4B17782   9.550  36.904   7.653
 6192POPC   NC317783  40.793   1.180   9.453
 6192POPC   PO417784  40.750   1.247   9.153
 6192POPC   GL117785  40.794   1.177   8.853
 6192POPC   GL217786  40.911   1.237   8.853
 6192POPC   C1A17787  40.741   1.226   8.553
 6192POPC   D2A17788  40.814   1.184   8.253
 6192POPC   C3A17789  40.769   1.237   7.953
 6192POPC   C4A17790  40.830   1.213   7.653
 6192POPC   C1B17791  41.077   1.283   8.553
 6192POPC   C2B17792  41.059   1.300   8.253
 6192POPC   C3B17793  41.076   1.229   7.953
 6192POPC   C4B17794  41.035   1.289   7.653
 6193POPC   NC317795  18.279  29.949   9.453
 6193POPC   PO417796  18.297  29.891   9.153
 6193POPC   GL117797  18.246  29.933   8.853
 6193POPC   GL217798  18.130  29.891   8.853
 6193POPC   C1A17799  18.326  29.955   8.553
 6193POPC   D2A17800  18.247  29.896   8.253
 6193POPC   C3A17801  18.325  29.966   7.953
 6193POPC   C4A17802  18.318  29.921   7.653
 6193POPC   C1B17803  18.079  29.973   8.553
 6193POPC   C2B17804  18.051  29.895   8.253
 6193POPC   C3B17805  18.003  29.907   7.953
 6193POPC   C4B17806  18.026  29.959   7.653
 6194POPC   NC317807  40.783   2.718   9.453
 6194POPC   PO417808  40.823   2.719   9.153
 6194POPC   GL117809  40.757   2.738   8.853
 6194POPC   GL217810  40.825   2.900   8.853
 6194POPC   C1A17811  40.735   2.789   8.553
 6194POPC   D2A17812  40.803   2.775   8.253
 6194POPC   C3A17813  40.805   2.787   7.953
 6194POPC   C4A17814  40.751   2.742   7.653
 6194POPC   C1B17815  40.906   2.938   8.553
 6194POPC   C2B17816  40.947   2.972   8.253
 6194POPC   C3B17817  40.952   3.017   7.953
 6194POPC   C4B17818  40.908   2.992   7.653
 6195POPC   NC317819  39.967  36.855   9.453
 6195POPC   PO417820  40.003  36.887   9.153
 6195POPC   GL117821  39.962  36.916   8.853
 6195POPC   GL217822  39.946  36.956   8.853
 6195POPC   C1A17823  40.040  36.869   8.553
 6195POPC   D2A17824  40.043  36.858   8.253
 6195POPC   C3A17825  40.050  36.951   7.953
 6195POPC   C4A17826  39.970  36.906   7.653
 6195POPC   C1B17827  39.749  37.071   8.553
 6195POPC   C2B17828  39.754  36.997   8.253
 6195POPC   C3B17829  39.781  37.000   7.953
 6195POPC   C4B17830  39.833  37.075   7.653
 6196POPC   NC317831  41.584  17.539   9.453
 6196POPC   PO417832  41.546  17.469   9.153
 6196POPC   GL117833  41.520  17.465   8.853
 6196POPC   GL217834  41.456  17.561   8.853
 6196POPC   C1A17835  41.589  17.512   8.553
 6196POPC   D2A17836  41.529  17.496   8.253
 6196POPC   C3A17837  41.577  17.550   7.953
 6196POPC   C4A17838  41.553  17.478   7.653
 6196POPC   C1B17839  41.416  17.705   8.553
 6196POPC   C2B17840  41.380  17.710   8.253
 6196POPC   C3B17841  41.417  17.721   7.953
 6196POPC   C4B17842  41.381  17.648   7.653
 6197POPC   NC317843  12.042   7.403   9.453
 6197POPC   PO417844  12.091   7.443   9.153
 6197POPC   GL117845  12.061   7.390   8.853
 6197POPC   GL217846  11.932   7.362   8.853
 6197POPC   C1A17847  12.048   7.403   8.553
 6197POPC   D2A17848  12.108   7.443   8.253
 6197POPC   C3A17849  12.069   7.398   7.953
 6197POPC   C4A17850  12.121   7.395   7.653
 6197POPC   C1B17851  11.863   7.308   8.553
 6197POPC   C2B17852  11.830   7.322   8.253
 6197POPC   C3B17853  11.885   7.287   7.953
 6197POPC   C4B17854  11.887   7.323   7.653
 6198POPC   NC317855  43.072  16.719   9.453
 6198POPC   PO417856  43.138  16.714   9.153
 6198POPC   GL117857  43.130  16.755   8.853
 6198POPC   GL217858  42.994  16.683   8.853
 6198POPC   C1A17859  43.090  16.707   8.553
 6198POPC   D2A17860  43.103  16.767   8.253
 6198POPC   C3A17861  43.066  16.758   7.953
 6198POPC   C4A17862  43.104  16.774   7.653
 6198POPC   C1B17863  42.898  16.755   8.553
 6198POPC   C2B17864  42.879  16.674   8.253
 6198POPC   C3B17865  42.856  16.722   7.953
 6198POPC   C4B17866  42.903  16.669   7.653
 6199POPC   NC317867  16.771  40.738   9.453
 6199POPC   PO417868  16.729  40.831   9.153
 6199POPC   GL117869  16.768  40.802   8.853
 6199POPC   GL217870  16.652  40.754   8.853
 6199POPC   C1A17871  16.704  40.753   8.553
 6199POPC   D2A17872  16.745  40.819   8.253
 6199POPC   C3A17873  16.728  40.817   7.953
 6199POPC   C4A17874  16.762  40.793   7.653
 6199POPC   C1B17875  16.442  40.722   8.553
 6199POPC   C2B17876  16.517  40.730   8.253
 6199POPC   C3B17877  16.457  40.719   7.953
 6199POPC   C4B17878  16.528  40.709   7.653
 6200POPC   NC317879  10.485  11.334   9.453
 6200POPC   PO417880  10.487  11.292   9.153
 6200POPC   GL117881  10.538  11.347   8.853
 6200POPC   GL217882  10.584  11.439   8.853
 6200POPC   C1A17883  10.557  11.281   8.553
 6200POPC   D2A17884  10.488  11.286   8.253
 6200POPC   C3A17885  10.552  11.267   7.953
 6200POPC   C4A17886  10.533  11.282   7.653
 6200POPC   C1B17887  10.686  11.517   8.553
 6200POPC   C2B17888  10.611  11.564   8.253
 6200POPC   C3B17889  10.619  11.498   7.953
 6200POPC   C4B17890  10.684  11.495   7.653
 6201POPC   NC317891  35.399  19.839   9.453
 6201POPC   PO417892  35.361  19.820   9.153
 6201POPC   GL117893  35.382  19.850   8.853
 6201POPC   GL217894  35.441  19.691   8.853
 6201POPC   C1A17895  35.346  19.824   8.553
 6201POPC   D2A17896  35.323  19.860   8.253
 6201POPC   C3A17897  35.365  19.791   7.953
 6201POPC   C4A17898  35.302  19.884   7.653
 6201POPC   C1B17899  35.494  19.600   8.553
 6201POPC   C2B17900  35.503  19.578   8.253
 6201POPC   C3B17901  35.428  19.598   7.953
 6201POPC   C4B17902  35.483  19.615   7.653
 6202POPC   NC317903  11.291  35.336   9.453
 6202POPC   PO417904  11.339  35.308   9.153
 6202POPC   GL117905  11.274  35.396   8.853
 6202POPC   GL217906  11.436  35.391   8.853
 6202POPC   C1A17907  11.330  35.354   8.553
 6202POPC   D2A17908  11.280  35.374   8.253
 6202POPC   C3A17909  11.346  35.391   7.953
 6202POPC   C4A17910  11.341  35.303   7.653
 6202POPC   C1B17911  11.547  35.387   8.553
 6202POPC   C2B17912  11.500  35.392   8.253
 6202POPC   C3B17913  11.559  35.371   7.953
 6202POPC   C4B17914  11.593  35.428   7.653
 6203POPC   NC317915  13.676  27.591   9.453
 6203POPC   PO417916  13.658  27.593   9.153
 6203POPC   GL117917  13.672  27.627   8.853
 6203POPC   GL217918  13.746  27.669   8.853
 6203POPC   C1A17919  13.640  27.628   8.553
 6203POPC   D2A17920  13.619  27.643   8.253
 6203POPC   C3A17921  13.598  27.579   7.953
 6203POPC   C4A17922  13.648  27.597   7.653
 6203POPC   C1B17923  13.781  27.745   8.553
 6203POPC   C2B17924  13.752  27.834   8.253
 6203POPC   C3B17925  13.727  27.827   7.953
 6203POPC   C4B17926  13.742  27.809   7.653
 6204POPC   NC317927  19.818  11.283   9.453
 6204POPC   PO417928  19.792  11.348   9.153
 6204POPC   GL117929  19.867  11.312   8.853
 6204POPC   GL217930  19.823  11.393   8.853
 6204POPC   C1A17931  19.853  11.335   8.553
 6204POPC   D2A17932  19.880  11.302   8.253
 6204POPC   C3A17933  19.803  11.282   7.953
 6204POPC   C4A17934  19.806  11.279   7.653
 6204POPC   C1B17935  19.730  11.540   8.553
 6204POPC   C2B17936  19.794  11.519   8.253
 6204POPC   C3B17937  19.784  11.574   7.953
 6204POPC   C4B17938  19.799  11.558   7.653
 6205POPC   NC317939   1.240   5.894   9.453
 6205POPC   PO417940   1.209   5.836   9.153
 6205POPC   GL117941   1.227   5.900   8.853
 6205POPC   GL217942   1.104   5.761   8.853
 6205POPC   C1A17943   1.195   5.833   8.553
 6205POPC   D2A17944   1.234   5.835   8.253
 6205POPC   C3A17945   1.210   5.835   7.953
 6205POPC   C4A17946   1.173   5.887   7.653
 6205POPC   C1B17947   1.098   5.618   8.553
 6205POPC   C2B17948   1.026   5.697   8.253
 6205POPC   C3B17949   1.078   5.643   7.953
 6205POPC   C4B17950   1.107   5.703   7.653
 6206POPC   NC317951  22.171  15.925   9.453
 6206POPC   PO417952  22.206  15.954   9.153
 6206POPC   GL117953  22.204  15.932   8.853
 6206POPC   GL217954  22.228  16.013   8.853
 6206POPC   C1A17955  22.126  15.963   8.553
 6206POPC   D2A17956  22.116  15.957   8.253
 6206POPC   C3A17957  22.162  15.986   7.953
 6206POPC   C4A17958  22.120  15.947   7.653
 6206POPC   C1B17959  22.351  16.067   8.553
 6206POPC   C2B17960  22.370  16.042   8.253
 6206POPC   C3B17961  22.384  16.012   7.953
 6206POPC   C4B17962  22.426  16.110   7.653
 6207POPC   NC317963  42.337  10.492   9.453
 6207POPC   PO417964  42.346  10.534   9.153
 6207POPC   GL117965  42.287  10.501   8.853
 6207POPC   GL217966  42.277  10.613   8.853
 6207POPC   C1A17967  42.347  10.546   8.553
 6207POPC   D2A17968  42.330  10.503   8.253
 6207POPC   C3A17969  42.372  10.560   7.953
 6207POPC   C4A17970  42.309  10.491   7.653
 6207POPC   C1B17971  42.176  10.750   8.553
 6207POPC   C2B17972  42.177  10.764   8.253
 6207POPC   C3B17973  42.158  10.730   7.953
 6207POPC   C4B17974  42.250  10.721   7.653
 6208POPC   NC317975  19.035  21.388   9.453
 6208POPC   PO417976  19.032  21.374   9.153
 6208POPC   GL117977  19.048  21.419   8.853
 6208POPC   GL217978  18.894  21.453   8.853
 6208POPC   C1A17979  19.056  21.388   8.553
 6208POPC   D2A17980  19.010  21.368   8.253
 6208POPC   C3A17981  19.034  21.342   7.953
 6208POPC   C4A17982  19.050  21.396   7.653
 6208POPC   C1B17983  18.848  21.389   8.553
 6208POPC   C2B17984  18.848  21.439   8.253
 6208POPC   C3B17985  18.825  21.439   7.953
 6208POPC   C4B17986  18.767  21.466   7.653
 6209POPC   NC317987  26.069  43.867   9.453
 6209POPC   PO417988  26.016  43.916   9.153
 6209POPC   GL117989  26.025  43.926   8.853
 6209POPC   GL217990  25.989  44.004   8.853
 6209POPC   C1A17991  26.035  43.876   8.553
 6209POPC   D2A17992  26.071  43.927   8.253
 6209POPC   C3A17993  26.052  43.854   7.953
 6209POPC   C4A17994  26.041  43.859   7.653
 6209POPC   C1B17995  26.060  44.097   8.553
 6209POPC   C2B17996  25.995  44.181   8.253
 6209POPC   C3B17997  26.025  44.137   7.953
 6209POPC   C4B17998  26.023  44.180   7.653
 6210POPC   NC317999  36.924  43.855   9.453
 6210POPC   PO418000  36.914  43.894   9.153
 6210POPC   GL118001  36.909  43.877   8.853
 6210POPC   GL218002  37.031  43.940   8.853
 6210POPC   C1A18003  36.935  43.917   8.553
 6210POPC   D2A18004  36.871  43.929   8.253
 6210POPC   C3A18005  36.936  43.912   7.953
 6210POPC   C4A18006  36.890  43.891   7.653
 6210POPC   C1B18007  37.165  44.019   8.553
 6210POPC   C2B18008  37.138  43.984   8.253
 6210POPC   C3B18009  37.083  44.059   7.953
 6210POPC   C4B18010  37.120  44.005   7.653
 6211POPC   NC318011  35.334  25.234   9.453
 6211POPC   PO418012  35.391  25.302   9.153
 6211POPC   GL118013  35.370  25.218   8.853
 6211POPC   GL218014  35.275  25.369   8.853
 6211POPC   C1A18015  35.340  25.224   8.553
 6211POPC   D2A18016  35.370  25.277   8.253
 6211POPC   C3A18017  35.377  25.304   7.953
 6211POPC   C4A18018  35.331  25.292   7.653
 6211POPC   C1B18019  35.229  25.522   8.553
 6211POPC   C2B18020  35.281  25.453   8.253
 6211POPC   C3B18021  35.265  25.490   7.953
 6211POPC   C4B18022  35.276  25.532   7.653
 6212POPC   NC318023   9.736  26.008   9.453
 6212POPC   PO418024   9.746  26.075   9.153
 6212POPC   GL118025   9.762  26.035   8.853
 6212POPC   GL218026   9.774  25.923   8.853
 6212POPC   C1A18027   9.789  26.032   8.553
 6212POPC   D2A18028   9.754  25.999   8.253
 6212POPC   C3A18029   9.712  26.020   7.953
 6212POPC   C4A18030   9.709  26.086   7.653
 6212POPC   C1B18031   9.869  25.828   8.553
 6212POPC   C2B18032   9.814  25.843   8.253
 6212POPC   C3B18033   9.889  25.846   7.953
 6212POPC   C4B18034   9.907  25.860   7.653
 6213POPC   NC318035  15.159   7.401   9.453
 6213POPC   PO418036  15.224   7.398   9.153
 6213POPC   GL118037  15.222   7.407   8.853
 6213POPC   GL218038  15.139   7.499   8.853
 6213POPC   C1A18039  15.160   7.420   8.553
 6213POPC   D2A18040  15.226   7.407   8.253
 6213POPC   C3A18041  15.165   7.451   7.953
 6213POPC   C4A18042  15.186   7.438   7.653
 6213POPC   C1B18043  15.129   7.702   8.553
 6213POPC   C2B18044  15.167   7.621   8.253
 6213POPC   C3B18045  15.165   7.635   7.953
 6213POPC   C4B18046  15.104   7.705   7.653
 6214POPC   NC318047  29.134  33.025   9.453
 6214POPC   PO418048  29.142  33.027   9.153
 6214POPC   GL118049  29.181  33.068   8.853
 6214POPC   GL218050  29.052  33.074   8.853
 6214POPC   C1A18051  29.132  33.017   8.553
 6214POPC   D2A18052  29.118  33.069   8.253
 6214POPC   C3A18053  29.101  33.060   7.953
 6214POPC   C4A18054  29.102  33.050   7.653
 6214POPC   C1B18055  28.893  33.128   8.553
 6214POPC   C2B18056  28.874  33.106   8.253
 6214POPC   C3B18057  28.920  33.092   7.953
 6214POPC   C4B18058  28.941  33.117   7.653
 6215POPC   NC318059  28.394  21.383   9.453
 6215POPC   PO418060  28.323  21.378   9.153
 6215POPC   GL118061  28.398  21.436   8.853
 6215POPC   GL218062  28.426  21.266   8.853
 6215POPC   C1A18063  28.347  21.388   8.553
 6215POPC   D2A18064  28.323  21.361   8.253
 6215POPC   C3A18065  28.345  21.343   7.953
 6215POPC   C4A18066  28.342  21.436   7.653
 6215POPC   C1B18067  28.498  21.196   8.553
 6215POPC   C2B18068  28.536  21.126   8.253
 6215POPC   C3B18069  28.469  21.147   7.953
 6215POPC   C4B18070  28.542  21.146   7.653
 6216POPC   NC318071   7.434   9.000   9.453
 6216POPC   PO418072   7.422   8.988   9.153
 6216POPC   GL118073   7.398   8.940   8.853
 6216POPC   GL218074   7.334   8.927   8.853
 6216POPC   C1A18075   7.391   8.948   8.553
 6216POPC   D2A18076   7.446   8.973   8.253
 6216POPC   C3A18077   7.443   8.982   7.953
 6216POPC   C4A18078   7.445   8.948   7.653
 6216POPC   C1B18079   7.210   8.955   8.553
 6216POPC   C2B18080   7.185   8.943   8.253
 6216POPC   C3B18081   7.188   8.922   7.953
 6216POPC   C4B18082   7.173   8.971   7.653
 6217POPC   NC318083  12.045  40.739   9.453
 6217POPC   PO418084  12.093  40.740   9.153
 6217POPC   GL118085  12.112  40.756   8.853
 6217POPC   GL218086  12.133  40.645   8.853
 6217POPC   C1A18087  12.083  40.737   8.553
 6217POPC   D2A18088  12.115  40.830   8.253
 6217POPC   C3A18089  12.084  40.832   7.953
 6217POPC   C4A18090  12.032  40.802   7.653
 6217POPC   C1B18091  12.255  40.620   8.553
 6217POPC   C2B18092  12.257  40.625   8.253
 6217POPC   C3B18093  12.273  40.570   7.953
 6217POPC   C4B18094  12.191  40.611   7.653
 6218POPC   NC318095  33.026   5.082   9.453
 6218POPC   PO418096  33.028   5.143   9.153
 6218POPC   GL118097  33.006   5.087   8.853
 6218POPC   GL218098  33.103   5.044   8.853
 6218POPC   C1A18099  32.994   5.092   8.553
 6218POPC   D2A18100  33.011   5.077   8.253
 6218POPC   C3A18101  33.069   5.051   7.953
 6218POPC   C4A18102  33.069   5.138   7.653
 6218POPC   C1B18103  33.176   4.968   8.553
 6218POPC   C2B18104  33.215   4.893   8.253
 6218POPC   C3B18105  33.197   4.905   7.953
 6218POPC   C4B18106  33.191   4.928   7.653
 6219POPC   NC318107  36.863  18.321   9.453
 6219POPC   PO418108  36.896  18.314   9.153
 6219POPC   GL118109  36.930  18.256   8.853
 6219POPC   GL218110  36.820  18.360   8.853
 6219POPC   C1A18111  36.934  18.252   8.553
 6219POPC   D2A18112  36.883  18.324   8.253
 6219POPC   C3A18113  36.920  18.305   7.953
 6219POPC   C4A18114  36.873  18.249   7.653
 6219POPC   C1B18115  36.829  18.538   8.553
 6219POPC   C2B18116  36.802  18.496   8.253
 6219POPC   C3B18117  36.783  18.513   7.953
 6219POPC   C4B18118  36.830  18.513   7.653
 6220POPC   NC318119  21.356  25.288   9.453
 6220POPC   PO418120  21.395  25.273   9.153
 6220POPC   GL118121  21.353  25.218   8.853
 6220POPC   GL218122  21.456  25.161   8.853
 6220POPC   C1A18123  21.394  25.255   8.553
 6220POPC   D2A18124  21.390  25.218   8.253
 6220POPC   C3A18125  21.361  25.230   7.953
 6220POPC   C4A18126  21.352  25.272   7.653
 6220POPC   C1B18127  21.472  25.040   8.553
 6220POPC   C2B18128  21.392  25.027   8.253
 6220POPC   C3B18129  21.447  25.018   7.953
 6220POPC   C4B18130  21.395  25.023   7.653
 6221POPC   NC318131  26.085  18.242   9.453
 6221POPC   PO418132  26.056  18.243   9.153
 6221POPC   GL118133  26.021  18.303   8.853
 6221POPC   GL218134  25.925  18.385   8.853
 6221POPC   C1A18135  26.044  18.260   8.553
 6221POPC   D2A18136  26.005  18.260   8.253
 6221POPC   C3A18137  26.021  18.246   7.953
 6221POPC   C4A18138  26.004  18.289   7.653
 6221POPC   C1B18139  25.826  18.448   8.553
 6221POPC   C2B18140  25.855  18.410   8.253
 6221POPC   C3B18141  25.880  18.436   7.953
 6221POPC   C4B18142  25.882  18.476   7.653
 6222POPC   NC318143  33.770  29.950   9.453
 6222POPC   PO418144  33.776  29.920   9.153
 6222POPC   GL118145  33.776  29.921   8.853
 6222POPC   GL218146  33.907  30.022   8.853
 6222POPC   C1A18147  33.793  29.876   8.553
 6222POPC   D2A18148  33.783  29.876   8.253
 6222POPC   C3A18149  33.816  29.896   7.953
 6222POPC   C4A18150  33.838  29.884   7.653
 6222POPC   C1B18151  33.942  30.069   8.553
 6222POPC   C2B18152  34.018  30.122   8.253
 6222POPC   C3B18153  33.985  30.109   7.953
 6222POPC   C4B18154  34.024  30.071   7.653
 6223POPC   NC318155  21.428  43.836   9.453
 6223POPC   PO418156  21.424  43.881   9.153
 6223POPC   GL118157  21.357  43.853   8.853
 6223POPC   GL218158  21.537  43.821   8.853
 6223POPC   C1A18159  21.413  43.859   8.553
 6223POPC   D2A18160  21.435  43.885   8.253
 6223POPC   C3A18161  21.426  43.849   7.953
 6223POPC   C4A18162  21.369  43.840   7.653
 6223POPC   C1B18163  21.587  43.797   8.553
 6223POPC   C2B18164  21.583  43.859   8.253
 6223POPC   C3B18165  21.606  43.811   7.953
 6223POPC   C4B18166  21.629  43.828   7.653
 6224POPC   NC318167  26.845   0.435   9.453
 6224POPC   PO418168  26.805   0.473   9.153
 6224POPC   GL118169  26.798   0.421   8.853
 6224POPC   GL218170  26.767   0.510   8.853
 6224POPC   C1A18171  26.775   0.414   8.553
 6224POPC   D2A18172  26.843   0.407   8.253
 6224POPC   C3A18173  26.861   0.394   7.953
 6224POPC   C4A18174  26.793   0.486   7.653
 6224POPC   C1B18175  26.576   0.566   8.553
 6224POPC   C2B18176  26.586   0.598   8.253
 6224POPC   C3B18177  26.635   0.626   7.953
 6224POPC   C4B18178  26.608   0.623   7.653
 6225POPC   NC318179  33.787   5.066   9.453
 6225POPC   PO418180  33.838   5.137   9.153
 6225POPC   GL118181  33.832   5.073   8.853
 6225POPC   GL218182  33.681   5.128   8.853
 6225POPC   C1A18183  33.810   5.107   8.553
 6225POPC   D2A18184  33.775   5.064   8.253
 6225POPC   C3A18185  33.755   5.105   7.953
 6225POPC   C4A18186  33.797   5.096   7.653
 6225POPC   C1B18187  33.597   5.089   8.553
 6225POPC   C2B18188  33.596   5.140   8.253
 6225POPC   C3B18189  33.566   5.083   7.953
 6225POPC   C4B18190  33.502   5.116   7.653
 6226POPC   NC318191  26.794  39.225   9.453
 6226POPC   PO418192  26.804  39.242   9.153
 6226POPC   GL118193  26.796  39.254   8.853
 6226POPC   GL218194  26.834  39.338   8.853
 6226POPC   C1A18195  26.855  39.263   8.553
 6226POPC   D2A18196  26.852  39.198   8.253
 6226POPC   C3A18197  26.806  39.206   7.953
 6226POPC   C4A18198  26.798  39.224   7.653
 6226POPC   C1B18199  26.790  39.472   8.553
 6226POPC   C2B18200  26.761  39.510   8.253
 6226POPC   C3B18201  26.780  39.446   7.953
 6226POPC   C4B18202  26.798  39.465   7.653
 6227POPC   NC318203  30.684  20.583   9.453
 6227POPC   PO418204  30.715  20.656   9.153
 6227POPC   GL118205  30.710  20.568   8.853
 6227POPC   GL218206  30.791  20.623   8.853
 6227POPC   C1A18207  30.656  20.612   8.553
 6227POPC   D2A18208  30.699  20.594   8.253
 6227POPC   C3A18209  30.709  20.648   7.953
 6227POPC   C4A18210  30.647  20.606   7.653
 6227POPC   C1B18211  30.982  20.659   8.553
 6227POPC   C2B18212  30.971  20.694   8.253
 6227POPC   C3B18213  30.886  20.643   7.953
 6227POPC   C4B18214  30.938  20.709   7.653
 6228POPC   NC318215  23.721  36.139   9.453
 6228POPC   PO418216  23.724  36.148   9.153
 6228POPC   GL118217  23.758  36.169   8.853
 6228POPC   GL218218  23.704  36.225   8.853
 6228POPC   C1A18219  23.733  36.091   8.553
 6228POPC   D2A18220  23.741  36.145   8.253
 6228POPC   C3A18221  23.730  36.078   7.953
 6228POPC   C4A18222  23.724  36.085   7.653
 6228POPC   C1B18223  23.588  36.368   8.553
 6228POPC   C2B18224  23.584  36.316   8.253
 6228POPC   C3B18225  23.624  36.388   7.953
 6228POPC   C4B18226  23.670  36.362   7.653
 6229POPC   NC318227  26.056   5.859   9.453
 6229POPC   PO418228  26.068   5.851   9.153
 6229POPC   GL118229  26.079   5.892   8.853
 6229POPC   GL218230  26.023   5.972   8.853
 6229POPC   C1A18231  26.069   5.856   8.553
 6229POPC   D2A18232  25.995   5.848   8.253
 6229POPC   C3A18233  26.018   5.849   7.953
 6229POPC   C4A18234  26.058   5.884   7.653
 6229POPC   C1B18235  25.952   6.148   8.553
 6229POPC   C2B18236  25.921   6.069   8.253
 6229POPC   C3B18237  25.956   6.131   7.953
 6229POPC   C4B18238  25.941   6.067   7.653
 6230POPC   NC318239  29.161  27.607   9.453
 6230POPC   PO418240  29.184  27.636   9.153
 6230POPC   GL118241  29.172  27.562   8.853
 6230POPC   GL218242  28.990  27.543   8.853
 6230POPC   C1A18243  29.174  27.588   8.553
 6230POPC   D2A18244  29.119  27.574   8.253
 6230POPC   C3A18245  29.106  27.641   7.953
 6230POPC   C4A18246  29.140  27.544   7.653
 6230POPC   C1B18247  28.916  27.514   8.553
 6230POPC   C2B18248  28.919  27.496   8.253
 6230POPC   C3B18249  28.854  27.506   7.953
 6230POPC   C4B18250  28.914  27.565   7.653
 6231POPC   NC318251  13.634  42.295   9.453
 6231POPC   PO418252  13.591  42.289   9.153
 6231POPC   GL118253  13.660  42.384   8.853
 6231POPC   GL218254  13.551  42.470   8.853
 6231POPC   C1A18255  13.671  42.310   8.553
 6231POPC   D2A18256  13.675  42.286   8.253
 6231POPC   C3A18257  13.645  42.372   7.953
 6231POPC   C4A18258  13.637  42.363   7.653
 6231POPC   C1B18259  13.533  42.573   8.553
 6231POPC   C2B18260  13.516  42.600   8.253
 6231POPC   C3B18261  13.557  42.610   7.953
 6231POPC   C4B18262  13.563  42.577   7.653
 6232POPC   NC318263  37.669   2.005   9.453
 6232POPC   PO418264  37.668   1.946   9.153
 6232POPC   GL118265  37.699   1.992   8.853
 6232POPC   GL218266  37.581   2.025   8.853
 6232POPC   C1A18267  37.635   1.980   8.553
 6232POPC   D2A18268  37.678   1.988   8.253
 6232POPC   C3A18269  37.722   1.989   7.953
 6232POPC   C4A18270  37.701   2.039   7.653
 6232POPC   C1B18271  37.460   2.109   8.553
 6232POPC   C2B18272  37.450   2.107   8.253
 6232POPC   C3B18273  37.468   2.128   7.953
 6232POPC   C4B18274  37.446   2.104   7.653
 6233POPC   NC318275   5.053  36.945   9.453
 6233POPC   PO418276   5.097  36.874   9.153
 6233POPC   GL118277   5.062  36.909   8.853
 6233POPC   GL218278   4.943  36.898   8.853
 6233POPC   C1A18279   5.141  36.887   8.553
 6233POPC   D2A18280   5.075  36.858   8.253
 6233POPC   C3A18281   5.135  36.856   7.953
 6233POPC   C4A18282   5.062  36.859   7.653
 6233POPC   C1B18283   4.892  36.816   8.553
 6233POPC   C2B18284   4.872  36.781   8.253
 6233POPC   C3B18285   4.892  36.865   7.953
 6233POPC   C4B18286   4.877  36.843   7.653
 6234POPC   NC318287   0.415  12.094   9.453
 6234POPC   PO418288   0.474  12.027   9.153
 6234POPC   GL118289   0.414  12.057   8.853
 6234POPC   GL218290   0.494  12.029   8.853
 6234POPC   C1A18291   0.391  12.101   8.553
 6234POPC   D2A18292   0.418  12.119   8.253
 6234POPC   C3A18293   0.427  12.096   7.953
 6234POPC   C4A18294   0.439  12.037   7.653
 6234POPC   C1B18295   0.640  11.856   8.553
 6234POPC   C2B18296   0.652  11.945   8.253
 6234POPC   C3B18297   0.645  11.896   7.953
 6234POPC   C4B18298   0.631  11.932   7.653
 6235POPC   NC318299   4.311  18.284   9.453
 6235POPC   PO418300   4.349  18.249   9.153
 6235POPC   GL118301   4.360  18.251   8.853
 6235POPC   GL218302   4.375  18.313   8.853
 6235POPC   C1A18303   4.292  18.262   8.553
 6235POPC   D2A18304   4.348  18.287   8.253
 6235POPC   C3A18305   4.310  18.296   7.953
 6235POPC   C4A18306   4.287  18.286   7.653
 6235POPC   C1B18307   4.537  18.381   8.553
 6235POPC   C2B18308   4.474  18.424   8.253
 6235POPC   C3B18309   4.560  18.386   7.953
 6235POPC   C4B18310   4.535  18.417   7.653
 6236POPC   NC318311  43.885  26.081   9.453
 6236POPC   PO418312  43.914  25.997   9.153
 6236POPC   GL118313  43.865  26.085   8.853
 6236POPC   GL218314  43.938  25.956   8.853
 6236POPC   C1A18315  43.863  26.055   8.553
 6236POPC   D2A18316  43.887  26.087   8.253
 6236POPC   C3A18317  43.879  26.034   7.953
 6236POPC   C4A18318  43.851  26.047   7.653
 6236POPC   C1B18319  43.993  25.771   8.553
 6236POPC   C2B18320  44.022  25.802   8.253
 6236POPC   C3B18321  44.002  25.852   7.953
 6236POPC   C4B18322  43.960  25.795   7.653
 6237POPC   NC318323  43.083   8.957   9.453
 6237POPC   PO418324  43.119   8.948   9.153
 6237POPC   GL118325  43.133   8.930   8.853
 6237POPC   GL218326  43.062   9.095   8.853
 6237POPC   C1A18327  43.096   9.016   8.553
 6237POPC   D2A18328  43.106   8.952   8.253
 6237POPC   C3A18329  43.066   8.937   7.953
 6237POPC   C4A18330  43.125   8.970   7.653
 6237POPC   C1B18331  43.043   9.191   8.553
 6237POPC   C2B18332  43.050   9.175   8.253
 6237POPC   C3B18333  42.999   9.234   7.953
 6237POPC   C4B18334  43.026   9.210   7.653
 6238POPC   NC318335  41.544  33.031   9.453
 6238POPC   PO418336  41.548  32.994   9.153
 6238POPC   GL118337  41.519  33.047   8.853
 6238POPC   GL218338  41.624  33.106   8.853
 6238POPC   C1A18339  41.566  32.983   8.553
 6238POPC   D2A18340  41.530  33.064   8.253
 6238POPC   C3A18341  41.557  32.986   7.953
 6238POPC   C4A18342  41.605  33.017   7.653
 6238POPC   C1B18343  41.812  33.178   8.553
 6238POPC   C2B18344  41.728  33.144   8.253
 6238POPC   C3B18345  41.781  33.141   7.953
 6238POPC   C4B18346  41.749  33.145   7.653
 6239POPC   NC318347   8.223  44.675   9.453
 6239POPC   PO418348   8.193  44.701   9.153
 6239POPC   GL118349   8.190  44.674   8.853
 6239POPC   GL218350   8.176  44.812   8.853
 6239POPC   C1A18351   8.196  44.626   8.553
 6239POPC   D2A18352   8.214  44.709   8.253
 6239POPC   C3A18353   8.199  44.675   7.953
 6239POPC   C4A18354   8.171  44.712   7.653
 6239POPC   C1B18355   8.227  44.957   8.553
 6239POPC   C2B18356   8.180  44.904   8.253
 6239POPC   C3B18357   8.226  44.933   7.953
 6239POPC   C4B18358   8.201  44.893   7.653
 6240POPC   NC318359  38.431  29.929   9.453
 6240POPC   PO418360  38.411  29.927   9.153
 6240POPC   GL118361  38.432  29.915   8.853
 6240POPC   GL218362  38.322  29.958   8.853
 6240POPC   C1A18363  38.415  29.922   8.553
 6240POPC   D2A18364  38.445  29.948   8.253
 6240POPC   C3A18365  38.476  29.898   7.953
 6240POPC   C4A18366  38.476  29.898   7.653
 6240POPC   C1B18367  38.181  29.961   8.553
 6240POPC   C2B18368  38.212  29.967   8.253
 6240POPC   C3B18369  38.207  29.945   7.953
 6240POPC   C4B18370  38.182  29.995   7.653
 6241POPC   NC318371  26.784   1.996   9.453
 6241POPC   PO418372  26.847   1.992   9.153
 6241POPC   GL118373  26.863   2.028   8.853
 6241POPC   GL218374  26.742   1.850   8.853
 6241POPC   C1A18375  26.857   1.959   8.553
 6241POPC   D2A18376  26.807   1.983   8.253
 6241POPC   C3A18377  26.858   1.976   7.953
 6241POPC   C4A18378  26.773   2.036   7.653
 6241POPC   C1B18379  26.647   1.808   8.553
 6241POPC   C2B18380  26.736   1.822   8.253
 6241POPC   C3B18381  26.642   1.726   7.953
 6241POPC   C4B18382  26.730   1.817   7.653
 6242POPC   NC318383  15.205  15.991   9.453
 6242POPC   PO418384  15.162  15.966   9.153
 6242POPC   GL118385  15.172  15.925   8.853
 6242POPC   GL218386  15.221  15.843   8.853
 6242POPC   C1A18387  15.169  15.977   8.553
 6242POPC   D2A18388  15.222  15.983   8.253
 6242POPC   C3A18389  15.218  15.913   7.953
 6242POPC   C4A18390  15.145  15.932   7.653
 6242POPC   C1B18391  15.330  15.768   8.553
 6242POPC   C2B18392  15.303  15.726   8.253
 6242POPC   C3B18393  15.296  15.738   7.953
 6242POPC   C4B18394  15.267  15.710   7.653
 6243POPC   NC318395  25.315  43.137   9.453
 6243POPC   PO418396  25.221  43.125   9.153
 6243POPC   GL118397  25.246  43.137   8.853
 6243POPC   GL218398  25.356  43.145   8.853
 6243POPC   C1A18399  25.269  43.110   8.553
 6243POPC   D2A18400  25.224  43.112   8.253
 6243POPC   C3A18401  25.268  43.135   7.953
 6243POPC   C4A18402  25.222  43.136   7.653
 6243POPC   C1B18403  25.522  43.049   8.553
 6243POPC   C2B18404  25.563  43.043   8.253
 6243POPC   C3B18405  25.493  43.045   7.953
 6243POPC   C4B18406  25.499  43.103   7.653
 6244POPC   NC318407   7.409  29.102   9.453
 6244POPC   PO418408   7.456  29.167   9.153
 6244POPC   GL118409   7.406  29.142   8.853
 6244POPC   GL218410   7.260  29.163   8.853
 6244POPC   C1A18411   7.430  29.185   8.553
 6244POPC   D2A18412   7.397  29.176   8.253
 6244POPC   C3A18413   7.445  29.164   7.953
 6244POPC   C4A18414   7.413  29.099   7.653
 6244POPC   C1B18415   7.213  29.242   8.553
 6244POPC   C2B18416   7.180  29.225   8.253
 6244POPC   C3B18417   7.146  29.189   7.953
 6244POPC   C4B18418   7.144  29.239   7.653
 6245POPC   NC318419   2.809  35.386   9.453
 6245POPC   PO418420   2.763  35.317   9.153
 6245POPC   GL118421   2.782  35.354   8.853
 6245POPC   GL218422   2.847  35.270   8.853
 6245POPC   C1A18423   2.770  35.387   8.553
 6245POPC   D2A18424   2.782  35.310   8.253
 6245POPC   C3A18425   2.723  35.354   7.953
 6245POPC   C4A18426   2.720  35.370   7.653
 6245POPC   C1B18427   2.948  35.234   8.553
 6245POPC   C2B18428   2.997  35.212   8.253
 6245POPC   C3B18429   2.913  35.149   7.953
 6245POPC   C4B18430   2.941  35.149   7.653
 6246POPC   NC318431  42.298  29.191   9.453
 6246POPC   PO418432  42.309  29.165   9.153
 6246POPC   GL118433  42.346  29.177   8.853
 6246POPC   GL218434  42.363  29.289   8.853
 6246POPC   C1A18435  42.373  29.166   8.553
 6246POPC   D2A18436  42.376  29.157   8.253
 6246POPC   C3A18437  42.379  29.105   7.953
 6246POPC   C4A18438  42.382  29.157   7.653
 6246POPC   C1B18439  42.457  29.319   8.553
 6246POPC   C2B18440  42.494  29.385   8.253
 6246POPC   C3B18441  42.437  29.343   7.953
 6246POPC   C4B18442  42.441  29.362   7.653
 6247POPC   NC318443  26.005  44.669   9.453
 6247POPC   PO418444  26.060  44.624   9.153
 6247POPC   GL118445  26.059  44.667   8.853
 6247POPC   GL218446  26.145  44.578   8.853
 6247POPC   C1A18447  26.084  44.648   8.553
 6247POPC   D2A18448  25.993  44.653   8.253
 6247POPC   C3A18449  26.009  44.644   7.953
 6247POPC   C4A18450  26.084  44.659   7.653
 6247POPC   C1B18451  26.243  44.580   8.553
 6247POPC   C2B18452  26.226  44.528   8.253
 6247POPC   C3B18453  26.214  44.516   7.953
 6247POPC   C4B18454  26.261  44.506   7.653
 6248POPC   NC318455  36.929   2.725   9.453
 6248POPC   PO418456  36.906   2.756   9.153
 6248POPC   GL118457  36.912   2.783   8.853
 6248POPC   GL218458  36.911   2.926   8.853
 6248POPC   C1A18459  36.879   2.767   8.553
 6248POPC   D2A18460  36.904   2.748   8.253
 6248POPC   C3A18461  36.933   2.722   7.953
 6248POPC   C4A18462  36.866   2.807   7.653
 6248POPC   C1B18463  36.996   2.998   8.553
 6248POPC   C2B18464  36.997   3.016   8.253
 6248POPC   C3B18465  36.995   3.042   7.953
 6248POPC   C4B18466  36.963   2.989   7.653
 6249POPC   NC318467  42.299   6.674   9.453
 6249POPC   PO418468  42.326   6.670   9.153
 6249POPC   GL118469  42.316   6.678   8.853
 6249POPC   GL218470  42.407   6.503   8.853
 6249POPC   C1A18471  42.326   6.645   8.553
 6249POPC   D2A18472  42.348   6.624   8.253
 6249POPC   C3A18473  42.352   6.612   7.953
 6249POPC   C4A18474  42.315   6.606   7.653
 6249POPC   C1B18475  42.499   6.404   8.553
 6249POPC   C2B18476  42.488   6.485   8.253
 6249POPC   C3B18477  42.506   6.445   7.953
 6249POPC   C4B18478  42.500   6.441   7.653
 6250POPC   NC318479  13.625   8.179   9.453
 6250POPC   PO418480  13.603   8.246   9.153
 6250POPC   GL118481  13.669   8.209   8.853
 6250POPC   GL218482  13.699   8.330   8.853
 6250POPC   C1A18483  13.641   8.204   8.553
 6250POPC   D2A18484  13.671   8.160   8.253
 6250POPC   C3A18485  13.578   8.159   7.953
 6250POPC   C4A18486  13.635   8.159   7.653
 6250POPC   C1B18487  13.681   8.415   8.553
 6250POPC   C2B18488  13.727   8.434   8.253
 6250POPC   C3B18489  13.753   8.458   7.953
 6250POPC   C4B18490  13.772   8.436   7.653
 6251POPC   NC318491  20.569   1.975   9.453
 6251POPC   PO418492  20.574   2.029   9.153
 6251POPC   GL118493  20.646   2.038   8.853
 6251POPC   GL218494  20.699   1.971   8.853
 6251POPC   C1A18495  20.579   1.984   8.553
 6251POPC   D2A18496  20.619   1.987   8.253
 6251POPC   C3A18497  20.631   1.980   7.953
 6251POPC   C4A18498  20.621   2.025   7.653
 6251POPC   C1B18499  20.879   1.865   8.553
 6251POPC   C2B18500  20.812   1.851   8.253
 6251POPC   C3B18501  20.849   1.866   7.953
 6251POPC   C4B18502  20.822   1.930   7.653
 6252POPC   NC318503  18.242  40.830   9.453
 6252POPC   PO418504  18.268  40.774   9.153
 6252POPC   GL118505  18.318  40.754   8.853
 6252POPC   GL218506  18.297  40.672   8.853
 6252POPC   C1A18507  18.318  40.812   8.553
 6252POPC   D2A18508  18.302  40.748   8.253
 6252POPC   C3A18509  18.290  40.784   7.953
 6252POPC   C4A18510  18.246  40.746   7.653
 6252POPC   C1B18511  18.241  40.531   8.553
 6252POPC   C2B18512  18.231  40.534   8.253
 6252POPC   C3B18513  18.199  40.587   7.953
 6252POPC   C4B18514  18.238  40.547   7.653
 6253POPC   NC318515  18.327  14.354   9.453
 6253POPC   PO418516  18.295  14.355   9.153
 6253POPC   GL118517  18.276  14.378   8.853
 6253POPC   GL218518  18.320  14.501   8.853
 6253POPC   C1A18519  18.302  14.379   8.553
 6253POPC   D2A18520  18.298  14.425   8.253
 6253POPC   C3A18521  18.306  14.446   7.953
 6253POPC   C4A18522  18.248  14.436   7.653
 6253POPC   C1B18523  18.337  14.655   8.553
 6253POPC   C2B18524  18.373  14.677   8.253
 6253POPC   C3B18525  18.420  14.651   7.953
 6253POPC   C4B18526  18.371  14.656   7.653
 6254POPC   NC318527  32.252   2.763   9.453
 6254POPC   PO418528  32.291   2.756   9.153
 6254POPC   GL118529  32.221   2.781   8.853
 6254POPC   GL218530  32.258   2.678   8.853
 6254POPC   C1A18531  32.207   2.808   8.553
 6254POPC   D2A18532  32.293   2.764   8.253
 6254POPC   C3A18533  32.290   2.754   7.953
 6254POPC   C4A18534  32.260   2.805   7.653
 6254POPC   C1B18535  32.271   2.530   8.553
 6254POPC   C2B18536  32.309   2.533   8.253
 6254POPC   C3B18537  32.273   2.507   7.953
 6254POPC   C4B18538  32.239   2.494   7.653
 6255POPC   NC318539   5.865  38.439   9.453
 6255POPC   PO418540   5.842  38.492   9.153
 6255POPC   GL118541   5.871  38.466   8.853
 6255POPC   GL218542   5.787  38.509   8.853
 6255POPC   C1A18543   5.855  38.496   8.553
 6255POPC   D2A18544   5.890  38.500   8.253
 6255POPC   C3A18545   5.825  38.495   7.953
 6255POPC   C4A18546   5.896  38.500   7.653
 6255POPC   C1B18547   5.584  38.498   8.553
 6255POPC   C2B18548   5.607  38.525   8.253
 6255POPC   C3B18549   5.590  38.548   7.953
 6255POPC   C4B18550   5.581  38.509   7.653
 6256POPC   NC318551  44.673   4.291   9.453
 6256POPC   PO418552  44.703   4.362   9.153
 6256POPC   GL118553  44.666   4.326   8.853
 6256POPC   GL218554  44.745   4.396   8.853
 6256POPC   C1A18555  44.689   4.341   8.553
 6256POPC   D2A18556  44.634   4.303   8.253
 6256POPC   C3A18557  44.620   4.317   7.953
 6256POPC   C4A18558  44.692   4.318   7.653
 6256POPC   C1B18559  44.887   4.424   8.553
 6256POPC   C2B18560  44.830   4.482   8.253
 6256POPC   C3B18561  44.832   4.497   7.953
 6256POPC   C4B18562  44.898   4.430   7.653
 6257POPC   NC318563   3.563  44.695   9.453
 6257POPC   PO418564   3.538  44.657   9.153
 6257POPC   GL118565   3.539  44.613   8.853
 6257POPC   GL218566   3.460  44.697   8.853
 6257POPC   C1A18567   3.541  44.625   8.553
 6257POPC   D2A18568   3.555  44.709   8.253
 6257POPC   C3A18569   3.501  44.613   7.953
 6257POPC   C4A18570   3.505  44.621   7.653
 6257POPC   C1B18571   3.324  44.771   8.553
 6257POPC   C2B18572   3.359  44.765   8.253
 6257POPC   C3B18573   3.350  44.799   7.953
 6257POPC   C4B18574   3.261  44.717   7.653
 6258POPC   NC318575  41.571  27.577   9.453
 6258POPC   PO418576  41.544  27.619   9.153
 6258POPC   GL118577  41.579  27.581   8.853
 6258POPC   GL218578  41.423  27.472   8.853
 6258POPC   C1A18579  41.538  27.591   8.553
 6258POPC   D2A18580  41.557  27.587   8.253
 6258POPC   C3A18581  41.565  27.614   7.953
 6258POPC   C4A18582  41.555  27.570   7.653
 6258POPC   C1B18583  41.360  27.440   8.553
 6258POPC   C2B18584  41.380  27.477   8.253
 6258POPC   C3B18585  41.398  27.428   7.953
 6258POPC   C4B18586  41.406  27.400   7.653
 6259POPC   NC318587  11.312  38.493   9.453
 6259POPC   PO418588  11.271  38.500   9.153
 6259POPC   GL118589  11.293  38.455   8.853
 6259POPC   GL218590  11.296  38.616   8.853
 6259POPC   C1A18591  11.333  38.491   8.553
 6259POPC   D2A18592  11.316  38.471   8.253
 6259POPC   C3A18593  11.283  38.456   7.953
 6259POPC   C4A18594  11.295  38.437   7.653
 6259POPC   C1B18595  11.353  38.665   8.553
 6259POPC   C2B18596  11.413  38.707   8.253
 6259POPC   C3B18597  11.371  38.660   7.953
 6259POPC   C4B18598  11.380  38.726   7.653
 6260POPC   NC318599   2.798   1.992   9.453
 6260POPC   PO418600   2.754   1.959   9.153
 6260POPC   GL118601   2.763   1.961   8.853
 6260POPC   GL218602   2.842   1.857   8.853
 6260POPC   C1A18603   2.799   1.986   8.553
 6260POPC   D2A18604   2.774   1.972   8.253
 6260POPC   C3A18605   2.717   1.971   7.953
 6260POPC   C4A18606   2.760   1.942   7.653
 6260POPC   C1B18607   2.898   1.764   8.553
 6260POPC   C2B18608   2.981   1.851   8.253
 6260POPC   C3B18609   2.940   1.760   7.953
 6260POPC   C4B18610   2.974   1.780   7.653
 6261POPC   NC318611  15.932   8.948   9.453
 6261POPC   PO418612  15.913   8.943   9.153
 6261POPC   GL118613  15.963   9.002   8.853
 6261POPC   GL218614  15.982   9.051   8.853
 6261POPC   C1A18615  15.979   8.975   8.553
 6261POPC   D2A18616  15.913   9.002   8.253
 6261POPC   C3A18617  15.930   8.982   7.953
 6261POPC   C4A18618  15.935   8.988   7.653
 6261POPC   C1B18619  15.889   9.245   8.553
 6261POPC   C2B18620  15.922   9.227   8.253
 6261POPC   C3B18621  15.974   9.209   7.953
 6261POPC   C4B18622  15.945   9.271   7.653
 6262POPC   NC318623  32.224  28.382   9.453
 6262POPC   PO418624  32.284  28.394   9.153
 6262POPC   GL118625  32.202  28.359   8.853
 6262POPC   GL218626  32.348  28.425   8.853
 6262POPC   C1A18627  32.254  28.358   8.553
 6262POPC   D2A18628  32.291  28.413   8.253
 6262POPC   C3A18629  32.220  28.383   7.953
 6262POPC   C4A18630  32.292  28.373   7.653
 6262POPC   C1B18631  32.519  28.491   8.553
 6262POPC   C2B18632  32.508  28.520   8.253
 6262POPC   C3B18633  32.462  28.442   7.953
 6262POPC   C4B18634  32.502  28.444   7.653
 6263POPC   NC318635  18.312  30.740   9.453
 6263POPC   PO418636  18.235  30.658   9.153
 6263POPC   GL118637  18.260  30.681   8.853
 6263POPC   GL218638  18.256  30.785   8.853
 6263POPC   C1A18639  18.271  30.661   8.553
 6263POPC   D2A18640  18.258  30.656   8.253
 6263POPC   C3A18641  18.317  30.658   7.953
 6263POPC   C4A18642  18.249  30.683   7.653
 6263POPC   C1B18643  18.210  30.933   8.553
 6263POPC   C2B18644  18.168  30.914   8.253
 6263POPC   C3B18645  18.164  30.921   7.953
 6263POPC   C4B18646  18.189  30.943   7.653
 6264POPC   NC318647  40.789   3.589   9.453
 6264POPC   PO418648  40.796   3.575   9.153
 6264POPC   GL118649  40.776   3.558   8.853
 6264POPC   GL218650  40.872   3.560   8.853
 6264POPC   C1A18651  40.753   3.570   8.553
 6264POPC   D2A18652  40.807   3.520   8.253
 6264POPC   C3A18653  40.790   3.507   7.953
 6264POPC   C4A18654  40.804   3.504   7.653
 6264POPC   C1B18655  41.029   3.515   8.553
 6264POPC   C2B18656  41.066   3.484   8.253
 6264POPC   C3B18657  41.040   3.458   7.953
 6264POPC   C4B18658  41.057   3.493   7.653
 6265POPC   NC318659  21.380  19.049   9.453
 6265POPC   PO418660  21.408  19.013   9.153
 6265POPC   GL118661  21.339  19.082   8.853
 6265POPC   GL218662  21.292  19.122   8.853
 6265POPC   C1A18663  21.396  19.050   8.553
 6265POPC   D2A18664  21.377  19.107   8.253
 6265POPC   C3A18665  21.388  19.027   7.953
 6265POPC   C4A18666  21.419  19.103   7.653
 6265POPC   C1B18667  21.179  19.143   8.553
 6265POPC   C2B18668  21.120  19.082   8.253
 6265POPC   C3B18669  21.184  19.080   7.953
 6265POPC   C4B18670  21.105  19.167   7.653
 6266POPC   NC318671  44.613   9.017   9.453
 6266POPC   PO418672  44.694   8.940   9.153
 6266POPC   GL118673  44.676   9.006   8.853
 6266POPC   GL218674  44.524   8.935   8.853
 6266POPC   C1A18675  44.673   8.944   8.553
 6266POPC   D2A18676  44.653   8.927   8.253
 6266POPC   C3A18677  44.693   9.016   7.953
 6266POPC   C4A18678  44.660   8.927   7.653
 6266POPC   C1B18679  44.460   8.992   8.553
 6266POPC   C2B18680  44.444   8.911   8.253
 6266POPC   C3B18681  44.405   8.904   7.953
 6266POPC   C4B18682  44.462   8.902   7.653
 6267POPC   NC318683  26.824  13.639   9.453
 6267POPC   PO418684  26.782  13.656   9.153
 6267POPC   GL118685  26.772  13.609   8.853
 6267POPC   GL218686  26.697  13.723   8.853
 6267POPC   C1A18687  26.844  13.678   8.553
 6267POPC   D2A18688  26.844  13.650   8.253
 6267POPC   C3A18689  26.831  13.587   7.953
 6267POPC   C4A18690  26.848  13.657   7.653
 6267POPC   C1B18691  26.627  13.833   8.553
 6267POPC   C2B18692  26.659  13.814   8.253
 6267POPC   C3B18693  26.580  13.804   7.953
 6267POPC   C4B18694  26.597  13.817   7.653
 6268POPC   NC318695  16.746   9.783   9.453
 6268POPC   PO418696  16.683   9.709   9.153
 6268POPC   GL118697  16.769   9.756   8.853
 6268POPC   GL218698  16.890   9.782   8.853
 6268POPC   C1A18699  16.714   9.709   8.553
 6268POPC   D2A18700  16.766   9.711   8.253
 6268POPC   C3A18701  16.755   9.769   7.953
 6268POPC   C4A18702  16.771   9.741   7.653
 6268POPC   C1B18703  17.010   9.701   8.553
 6268POPC   C2B18704  16.997   9.758   8.253
 6268POPC   C3B18705  16.953   9.745   7.953
 6268POPC   C4B18706  16.998   9.732   7.653
 6269POPC   NC318707  15.202   2.775   9.453
 6269POPC   PO418708  15.219   2.787   9.153
 6269POPC   GL118709  15.129   2.787   8.853
 6269POPC   GL218710  15.307   2.627   8.853
 6269POPC   C1A18711  15.145   2.777   8.553
 6269POPC   D2A18712  15.192   2.764   8.253
 6269POPC   C3A18713  15.183   2.779   7.953
 6269POPC   C4A18714  15.143   2.801   7.653
 6269POPC   C1B18715  15.307   2.629   8.553
 6269POPC   C2B18716  15.392   2.546   8.253
 6269POPC   C3B18717  15.303   2.556   7.953
 6269POPC   C4B18718  15.302   2.542   7.653
 6270POPC   NC318719  41.574   2.783   9.453
 6270POPC   PO418720  41.599   2.745   9.153
 6270POPC   GL118721  41.561   2.758   8.853
 6270POPC   GL218722  41.626   2.910   8.853
 6270POPC   C1A18723  41.541   2.805   8.553
 6270POPC   D2A18724  41.558   2.810   8.253
 6270POPC   C3A18725  41.566   2.753   7.953
 6270POPC   C4A18726  41.593   2.814   7.653
 6270POPC   C1B18727  41.637   3.000   8.553
 6270POPC   C2B18728  41.665   2.973   8.253
 6270POPC   C3B18729  41.617   3.014   7.953
 6270POPC   C4B18730  41.653   2.999   7.653
 6271POPC   NC318731  24.515  12.113   9.453
 6271POPC   PO418732  24.509  12.123   9.153
 6271POPC   GL118733  24.530  12.035   8.853
 6271POPC   GL218734  24.426  12.110   8.853
 6271POPC   C1A18735  24.476  12.054   8.553
 6271POPC   D2A18736  24.461  12.091   8.253
 6271POPC   C3A18737  24.479  12.070   7.953
 6271POPC   C4A18738  24.453  12.093   7.653
 6271POPC   C1B18739  24.258  12.233   8.553
 6271POPC   C2B18740  24.240  12.227   8.253
 6271POPC   C3B18741  24.318  12.233   7.953
 6271POPC   C4B18742  24.252  12.197   7.653
 6272POPC   NC318743  15.215  18.250   9.453
 6272POPC   PO418744  15.166  18.326   9.153
 6272POPC   GL118745  15.202  18.312   8.853
 6272POPC   GL218746  15.114  18.226   8.853
 6272POPC   C1A18747  15.151  18.289   8.553
 6272POPC   D2A18748  15.190  18.279   8.253
 6272POPC   C3A18749  15.209  18.328   7.953
 6272POPC   C4A18750  15.214  18.284   7.653
 6272POPC   C1B18751  15.001  18.071   8.553
 6272POPC   C2B18752  15.013  18.109   8.253
 6272POPC   C3B18753  15.043  18.030   7.953
 6272POPC   C4B18754  15.027  18.091   7.653
 6273POPC   NC318755  16.754  36.908   9.453
 6273POPC   PO418756  16.736  36.947   9.153
 6273POPC   GL118757  16.696  36.876   8.853
 6273POPC   GL218758  16.810  36.779   8.853
 6273POPC   C1A18759  16.752  36.861   8.553
 6273POPC   D2A18760  16.700  36.898   8.253
 6273POPC   C3A18761  16.763  36.940   7.953
 6273POPC   C4A18762  16.692  36.883   7.653
 6273POPC   C1B18763  16.954  36.734   8.553
 6273POPC   C2B18764  16.901  36.701   8.253
 6273POPC   C3B18765  16.947  36.723   7.953
 6273POPC   C4B18766  16.925  36.733   7.653
 6274POPC   NC318767  40.759  26.017   9.453
 6274POPC   PO418768  40.800  26.086   9.153
 6274POPC   GL118769  40.772  26.009   8.853
 6274POPC   GL218770  40.834  25.949   8.853
 6274POPC   C1A18771  40.759  26.025   8.553
 6274POPC   D2A18772  40.794  25.998   8.253
 6274POPC   C3A18773  40.779  26.026   7.953
 6274POPC   C4A18774  40.775  26.004   7.653
 6274POPC   C1B18775  40.950  25.857   8.553
 6274POPC   C2B18776  40.907  25.850   8.253
 6274POPC   C3B18777  40.946  25.790   7.953
 6274POPC   C4B18778  40.969  25.847   7.653
 6275POPC   NC318779  10.497  31.509   9.453
 6275POPC   PO418780  10.509  31.497   9.153
 6275POPC   GL118781  10.493  31.496   8.853
 6275POPC   GL218782  10.364  31.507   8.853
 6275POPC   C1A18783  10.480  31.434   8.553
 6275POPC   D2A18784  10.563  31.469   8.253
 6275POPC   C3A18785  10.499  31.435   7.953
 6275POPC   C4A18786  10.491  31.490   7.653
 6275POPC   C1B18787  10.345  31.535   8.553
 6275POPC   C2B18788  10.258  31.595   8.253
 6275POPC   C3B18789  10.290  31.581   7.953
 6275POPC   C4B18790  10.316  31.577   7.653
 6276POPC   NC318791  20.616  34.563   9.453
 6276POPC   PO418792  20.596  34.615   9.153
 6276POPC   GL118793  20.609  34.605   8.853
 6276POPC   GL218794  20.748  34.586   8.853
 6276POPC   C1A18795  20.564  34.576   8.553
 6276POPC   D2A18796  20.579  34.598   8.253
 6276POPC   C3A18797  20.569  34.533   7.953
 6276POPC   C4A18798  20.587  34.528   7.653
 6276POPC   C1B18799  20.887  34.573   8.553
 6276POPC   C2B18800  20.893  34.498   8.253
 6276POPC   C3B18801  20.900  34.566   7.953
 6276POPC   C4B18802  20.897  34.550   7.653
 6277POPC   NC318803  17.513  20.619   9.453
 6277POPC   PO418804  17.497  20.582   9.153
 6277POPC   GL118805  17.470  20.660   8.853
 6277POPC   GL218806  17.372  20.549   8.853
 6277POPC   C1A18807  17.458  20.644   8.553
 6277POPC   D2A18808  17.505  20.602   8.253
 6277POPC   C3A18809  17.470  20.589   7.953
 6277POPC   C4A18810  17.474  20.578   7.653
 6277POPC   C1B18811  17.294  20.489   8.553
 6277POPC   C2B18812  17.234  20.578   8.253
 6277POPC   C3B18813  17.273  20.561   7.953
 6277POPC   C4B18814  17.252  20.551   7.653
 6278POPC   NC318815  33.000  27.597   9.453
 6278POPC   PO418816  33.052  27.572   9.153
 6278POPC   GL118817  33.002  27.640   8.853
 6278POPC   GL218818  33.036  27.753   8.853
 6278POPC   C1A18819  33.051  27.619   8.553
 6278POPC   D2A18820  33.039  27.613   8.253
 6278POPC   C3A18821  33.009  27.637   7.953
 6278POPC   C4A18822  33.022  27.579   7.653
 6278POPC   C1B18823  32.980  27.854   8.553
 6278POPC   C2B18824  33.042  27.828   8.253
 6278POPC   C3B18825  33.016  27.880   7.953
 6278POPC   C4B18826  33.050  27.834   7.653
 6279POPC   NC318827  43.081  25.263   9.453
 6279POPC   PO418828  43.098  25.231   9.153
 6279POPC   GL118829  43.084  25.268   8.853
 6279POPC   GL218830  43.067  25.355   8.853
 6279POPC   C1A18831  43.097  25.222   8.553
 6279POPC   D2A18832  43.158  25.307   8.253
 6279POPC   C3A18833  43.095  25.231   7.953
 6279POPC   C4A18834  43.084  25.230   7.653
 6279POPC   C1B18835  43.065  25.471   8.553
 6279POPC   C2B18836  43.075  25.508   8.253
 6279POPC   C3B18837  43.128  25.498   7.953
 6279POPC   C4B18838  43.102  25.470   7.653
 6280POPC   NC318839  43.846  43.121   9.453
 6280POPC   PO418840  43.930  43.120   9.153
 6280POPC   GL118841  43.848  43.106   8.853
 6280POPC   GL218842  43.775  43.081   8.853
 6280POPC   C1A18843  43.899  43.153   8.553
 6280POPC   D2A18844  43.923  43.132   8.253
 6280POPC   C3A18845  43.858  43.084   7.953
 6280POPC   C4A18846  43.896  43.121   7.653
 6280POPC   C1B18847  43.635  43.148   8.553
 6280POPC   C2B18848  43.669  43.125   8.253
 6280POPC   C3B18849  43.600  43.107   7.953
 6280POPC   C4B18850  43.618  43.109   7.653
 6281POPC   NC318851  30.677  33.791   9.453
 6281POPC   PO418852  30.709  33.844   9.153
 6281POPC   GL118853  30.674  33.818   8.853
 6281POPC   GL218854  30.855  33.744   8.853
 6281POPC   C1A18855  30.679  33.752   8.553
 6281POPC   D2A18856  30.692  33.764   8.253
 6281POPC   C3A18857  30.678  33.761   7.953
 6281POPC   C4A18858  30.726  33.806   7.653
 6281POPC   C1B18859  30.969  33.714   8.553
 6281POPC   C2B18860  30.880  33.724   8.253
 6281POPC   C3B18861  30.949  33.718   7.953
 6281POPC   C4B18862  30.949  33.741   7.653
 6282POPC   NC318863  34.573  25.293   9.453
 6282POPC   PO418864  34.539  25.236   9.153
 6282POPC   GL118865  34.540  25.277   8.853
 6282POPC   GL218866  34.628  25.356   8.853
 6282POPC   C1A18867  34.527  25.301   8.553
 6282POPC   D2A18868  34.571  25.293   8.253
 6282POPC   C3A18869  34.615  25.289   7.953
 6282POPC   C4A18870  34.527  25.290   7.653
 6282POPC   C1B18871  34.614  25.473   8.553
 6282POPC   C2B18872  34.624  25.507   8.253
 6282POPC   C3B18873  34.701  25.536   7.953
 6282POPC   C4B18874  34.659  25.479   7.653
 6283POPC   NC318875  43.930  10.557   9.453
 6283POPC   PO418876  43.856  10.574   9.153
 6283POPC   GL118877  43.873  10.493   8.853
 6283POPC   GL218878  43.807  10.467   8.853
 6283POPC   C1A18879  43.912  10.528   8.553
 6283POPC   D2A18880  43.912  10.520   8.253
 6283POPC   C3A18881  43.848  10.544   7.953
 6283POPC   C4A18882  43.851  10.481   7.653
 6283POPC   C1B18883  43.613  10.465   8.553
 6283POPC   C2B18884  43.632  10.484   8.253
 6283POPC   C3B18885  43.677  10.441   7.953
 6283POPC   C4B18886  43.620  10.497   7.653
 6284POPC   NC318887   1.988  43.072   9.453
 6284POPC   PO418888   1.959  43.064   9.153
 6284POPC   GL118889   2.000  43.112   8.853
 6284POPC   GL218890   2.081  43.195   8.853
 6284POPC   C1A18891   2.026  43.097   8.553
 6284POPC   D2A18892   1.972  43.124   8.253
 6284POPC   C3A18893   1.974  43.068   7.953
 6284POPC   C4A18894   2.028  43.144   7.653
 6284POPC   C1B18895   2.120  43.359   8.553
 6284POPC   C2B18896   2.108  43.368   8.253
 6284POPC   C3B18897   2.106  43.276   7.953
 6284POPC   C4B18898   2.165  43.285   7.653
 6285POPC   NC318899   5.061   6.597   9.453
 6285POPC   PO418900   5.104   6.639   9.153
 6285POPC   GL118901   5.072   6.655   8.853
 6285POPC   GL218902   4.950   6.728   8.853
 6285POPC   C1A18903   5.119   6.666   8.553
 6285POPC   D2A18904   5.066   6.613   8.253
 6285POPC   C3A18905   5.141   6.638   7.953
 6285POPC   C4A18906   5.103   6.610   7.653
 6285POPC   C1B18907   4.903   6.807   8.553
 6285POPC   C2B18908   4.852   6.748   8.253
 6285POPC   C3B18909   4.863   6.743   7.953
 6285POPC   C4B18910   4.925   6.759   7.653
 6286POPC   NC318911  16.000  17.478   9.453
 6286POPC   PO418912  15.981  17.508   9.153
 6286POPC   GL118913  15.967  17.491   8.853
 6286POPC   GL218914  15.821  17.560   8.853
 6286POPC   C1A18915  15.931  17.493   8.553
 6286POPC   D2A18916  15.943  17.528   8.253
 6286POPC   C3A18917  15.955  17.539   7.953
 6286POPC   C4A18918  16.004  17.548   7.653
 6286POPC   C1B18919  15.724  17.496   8.553
 6286POPC   C2B18920  15.747  17.571   8.253
 6286POPC   C3B18921  15.673  17.537   7.953
 6286POPC   C4B18922  15.709  17.477   7.653
 6287POPC   NC318923  22.960  22.927   9.453
 6287POPC   PO418924  22.919  22.889   9.153
 6287POPC   GL118925  22.981  22.943   8.853
 6287POPC   GL218926  23.008  23.066   8.853
 6287POPC   C1A18927  22.888  22.910   8.553
 6287POPC   D2A18928  22.941  22.981   8.253
 6287POPC   C3A18929  22.958  22.984   7.953
 6287POPC   C4A18930  22.910  22.972   7.653
 6287POPC   C1B18931  22.971  23.193   8.553
 6287POPC   C2B18932  22.965  23.204   8.253
 6287POPC   C3B18933  23.051  23.227   7.953
 6287POPC   C4B18934  22.997  23.132   7.653
 6288POPC   NC318935  29.185  24.536   9.453
 6288POPC   PO418936  29.113  24.516   9.153
 6288POPC   GL118937  29.188  24.468   8.853
 6288POPC   GL218938  29.141  24.322   8.853
 6288POPC   C1A18939  29.119  24.442   8.553
 6288POPC   D2A18940  29.098  24.459   8.253
 6288POPC   C3A18941  29.129  24.444   7.953
 6288POPC   C4A18942  29.102  24.447   7.653
 6288POPC   C1B18943  29.192  24.208   8.553
 6288POPC   C2B18944  29.202  24.227   8.253
 6288POPC   C3B18945  29.117  24.267   7.953
 6288POPC   C4B18946  29.200  24.247   7.653
 6289POPC   NC318947   9.747   8.218   9.453
 6289POPC   PO418948   9.723   8.152   9.153
 6289POPC   GL118949   9.774   8.225   8.853
 6289POPC   GL218950   9.906   8.195   8.853
 6289POPC   C1A18951   9.731   8.186   8.553
 6289POPC   D2A18952   9.729   8.224   8.253
 6289POPC   C3A18953   9.760   8.171   7.953
 6289POPC   C4A18954   9.756   8.236   7.653
 6289POPC   C1B18955  10.005   8.097   8.553
 6289POPC   C2B18956   9.960   8.063   8.253
 6289POPC   C3B18957   9.968   8.047   7.953
 6289POPC   C4B18958  10.013   8.124   7.653
 6290POPC   NC318959  14.412   6.638   9.453
 6290POPC   PO418960  14.418   6.655   9.153
 6290POPC   GL118961  14.377   6.633   8.853
 6290POPC   GL218962  14.506   6.595   8.853
 6290POPC   C1A18963  14.433   6.657   8.553
 6290POPC   D2A18964  14.407   6.614   8.253
 6290POPC   C3A18965  14.401   6.650   7.953
 6290POPC   C4A18966  14.442   6.687   7.653
 6290POPC   C1B18967  14.601   6.431   8.553
 6290POPC   C2B18968  14.588   6.452   8.253
 6290POPC   C3B18969  14.527   6.422   7.953
 6290POPC   C4B18970  14.509   6.441   7.653
 6291POPC   NC318971   4.319  43.905   9.453
 6291POPC   PO418972   4.290  43.901   9.153
 6291POPC   GL118973   4.292  43.868   8.853
 6291POPC   GL218974   4.182  43.966   8.853
 6291POPC   C1A18975   4.304  43.921   8.553
 6291POPC   D2A18976   4.352  43.888   8.253
 6291POPC   C3A18977   4.337  43.935   7.953
 6291POPC   C4A18978   4.307  43.837   7.653
 6291POPC   C1B18979   4.097  44.049   8.553
 6291POPC   C2B18980   4.081  44.007   8.253
 6291POPC   C3B18981   4.147  44.019   7.953
 6291POPC   C4B18982   4.085  43.995   7.653
 6292POPC   NC318983  21.386  12.076   9.453
 6292POPC   PO418984  21.432  12.079   9.153
 6292POPC   GL118985  21.387  12.084   8.853
 6292POPC   GL218986  21.261  12.142   8.853
 6292POPC   C1A18987  21.384  12.067   8.553
 6292POPC   D2A18988  21.393  12.085   8.253
 6292POPC   C3A18989  21.375  12.046   7.953
 6292POPC   C4A18990  21.392  12.043   7.653
 6292POPC   C1B18991  21.171  12.162   8.553
 6292POPC   C2B18992  21.189  12.182   8.253
 6292POPC   C3B18993  21.163  12.187   7.953
 6292POPC   C4B18994  21.136  12.161   7.653
 6293POPC   NC318995  40.013  42.358   9.453
 6293POPC   PO418996  40.045  42.327   9.153
 6293POPC   GL118997  39.967  42.317   8.853
 6293POPC   GL218998  39.899  42.270   8.853
 6293POPC   C1A18999  40.049  42.327   8.553
 6293POPC   D2A19000  39.967  42.349   8.253
 6293POPC   C3A19001  40.024  42.353   7.953
 6293POPC   C4A19002  40.021  42.286   7.653
 6293POPC   C1B19003  39.831  42.146   8.553
 6293POPC   C2B19004  39.875  42.159   8.253
 6293POPC   C3B19005  39.814  42.103   7.953
 6293POPC   C4B19006  39.800  42.172   7.653
 6294POPC   NC319007  33.765  22.898   9.453
 6294POPC   PO419008  33.753  22.888   9.153
 6294POPC   GL119009  33.761  22.966   8.853
 6294POPC   GL219010  33.803  23.066   8.853
 6294POPC   C1A19011  33.756  22.983   8.553
 6294POPC   D2A19012  33.797  22.907   8.253
 6294POPC   C3A19013  33.786  22.977   7.953
 6294POPC   C4A19014  33.820  22.918   7.653
 6294POPC   C1B19015  33.826  23.185   8.553
 6294POPC   C2B19016  33.785  23.178   8.253
 6294POPC   C3B19017  33.825  23.200   7.953
 6294POPC   C4B19018  33.789  23.215   7.653
 6295POPC   NC319019  16.751  29.162   9.453
 6295POPC   PO419020  16.739  29.153   9.153
 6295POPC   GL119021  16.773  29.124   8.853
 6295POPC   GL219022  16.777  29.280   8.853
 6295POPC   C1A19023  16.697  29.190   8.553
 6295POPC   D2A19024  16.705  29.172   8.253
 6295POPC   C3A19025  16.738  29.166   7.953
 6295POPC   C4A19026  16.752  29.160   7.653
 6295POPC   C1B19027  16.857  29.380   8.553
 6295POPC   C2B19028  16.917  29.330   8.253
 6295POPC   C3B19029  16.884  29.363   7.953
 6295POPC   C4B19030  16.932  29.321   7.653
 6296POPC   NC319031  35.359  28.332   9.453
 6296POPC   PO419032  35.351  28.360   9.153
 6296POPC   GL119033  35.305  28.382   8.853
 6296POPC   GL219034  35.314  28.287   8.853
 6296POPC   C1A19035  35.400  28.388   8.553
 6296POPC   D2A19036  35.321  28.384   8.253
 6296POPC   C3A19037  35.324  28.410   7.953
 6296POPC   C4A19038  35.379  28.377   7.653
 6296POPC   C1B19039  35.392  28.098   8.553
 6296POPC   C2B19040  35.375  28.166   8.253
 6296POPC   C3B19041  35.402  28.120   7.953
 6296POPC   C4B19042  35.320  28.094   7.653
 6297POPC   NC319043  41.598  21.371   9.453
 6297POPC   PO419044  41.583  21.371   9.153
 6297POPC   GL119045  41.576  21.341   8.853
 6297POPC   GL219046  41.458  21.425   8.853
 6297POPC   C1A19047  41.580  21.420   8.553
 6297POPC   D2A19048  41.560  21.428   8.253
 6297POPC   C3A19049  41.531  21.337   7.953
 6297POPC   C4A19050  41.546  21.418   7.653
 6297POPC   C1B19051  41.369  21.431   8.553
 6297POPC   C2B19052  41.359  21.530   8.253
 6297POPC   C3B19053  41.345  21.521   7.953
 6297POPC   C4B19054  41.303  21.458   7.653
 6298POPC   NC319055  14.444  43.897   9.453
 6298POPC   PO419056  14.399  43.886   9.153
 6298POPC   GL119057  14.409  43.917   8.853
 6298POPC   GL219058  14.311  43.914   8.853
 6298POPC   C1A19059  14.360  43.881   8.553
 6298POPC   D2A19060  14.404  43.891   8.253
 6298POPC   C3A19061  14.450  43.869   7.953
 6298POPC   C4A19062  14.430  43.877   7.653
 6298POPC   C1B19063  14.175  44.015   8.553
 6298POPC   C2B19064  14.178  44.020   8.253
 6298POPC   C3B19065  14.149  43.987   7.953
 6298POPC   C4B19066  14.147  43.994   7.653
 6299POPC   NC319067  20.590  19.066   9.453
 6299POPC   PO419068  20.622  19.092   9.153
 6299POPC   GL119069  20.564  19.075   8.853
 6299POPC   GL219070  20.642  18.986   8.853
 6299POPC   C1A19071  20.578  19.062   8.553
 6299POPC   D2A19072  20.568  19.093   8.253
 6299POPC   C3A19073  20.576  19.097   7.953
 6299POPC   C4A19074  20.572  19.074   7.653
 6299POPC   C1B19075  20.771  18.887   8.553
 6299POPC   C2B19076  20.763  18.897   8.253
 6299POPC   C3B19077  20.768  18.864   7.953
 6299POPC   C4B19078  20.736  18.832   7.653
 6300POPC   NC319079  24.501   3.562   9.453
 6300POPC   PO419080  24.470   3.518   9.153
 6300POPC   GL119081  24.507   3.537   8.853
 6300POPC   GL219082  24.480   3.712   8.853
 6300POPC   C1A19083  24.512   3.582   8.553
 6300POPC   D2A19084  24.460   3.511   8.253
 6300POPC   C3A19085  24.443   3.546   7.953
 6300POPC   C4A19086  24.453   3.520   7.653
 6300POPC   C1B19087  24.448   3.821   8.553
 6300POPC   C2B19088  24.476   3.798   8.253
 6300POPC   C3B19089  24.446   3.753   7.953
 6300POPC   C4B19090  24.501   3.776   7.653
 6301POPC   NC319091  19.048  28.336   9.453
 6301POPC   PO419092  19.086  28.392   9.153
 6301POPC   GL119093  19.014  28.351   8.853
 6301POPC   GL219094  18.968  28.299   8.853
 6301POPC   C1A19095  19.105  28.411   8.553
 6301POPC   D2A19096  19.039  28.384   8.253
 6301POPC   C3A19097  19.080  28.407   7.953
 6301POPC   C4A19098  19.023  28.332   7.653
 6301POPC   C1B19099  18.861  28.297   8.553
 6301POPC   C2B19100  18.814  28.302   8.253
 6301POPC   C3B19101  18.837  28.247   7.953
 6301POPC   C4B19102  18.884  28.296   7.653
 6302POPC   NC319103  26.066   6.680   9.453
 6302POPC   PO419104  26.019   6.599   9.153
 6302POPC   GL119105  26.027   6.691   8.853
 6302POPC   GL219106  26.117   6.724   8.853
 6302POPC   C1A19107  26.064   6.688   8.553
 6302POPC   D2A19108  26.008   6.653   8.253
 6302POPC   C3A19109  25.998   6.654   7.953
 6302POPC   C4A19110  25.997   6.680   7.653
 6302POPC   C1B19111  26.239   6.766   8.553
 6302POPC   C2B19112  26.302   6.775   8.253
 6302POPC   C3B19113  26.326   6.745   7.953
 6302POPC   C4B19114  26.272   6.772   7.653
 6303POPC   NC319115  39.993  21.392   9.453
 6303POPC   PO419116  40.014  21.357   9.153
 6303POPC   GL119117  39.990  21.406   8.853
 6303POPC   GL219118  39.884  21.373   8.853
 6303POPC   C1A19119  40.039  21.373   8.553
 6303POPC   D2A19120  39.970  21.361   8.253
 6303POPC   C3A19121  39.982  21.390   7.953
 6303POPC   C4A19122  40.037  21.348   7.653
 6303POPC   C1B19123  39.793  21.386   8.553
 6303POPC   C2B19124  39.740  21.386   8.253
 6303POPC   C3B19125  39.795  21.454   7.953
 6303POPC   C4B19126  39.764  21.445   7.653
 6304POPC   NC319127  40.801  42.318   9.453
 6304POPC   PO419128  40.789  42.299   9.153
 6304POPC   GL119129  40.818  42.318   8.853
 6304POPC   GL219130  40.823  42.420   8.853
 6304POPC   C1A19131  40.783  42.324   8.553
 6304POPC   D2A19132  40.812  42.381   8.253
 6304POPC   C3A19133  40.822  42.318   7.953
 6304POPC   C4A19134  40.821  42.305   7.653
 6304POPC   C1B19135  40.762  42.546   8.553
 6304POPC   C2B19136  40.812  42.552   8.253
 6304POPC   C3B19137  40.774  42.592   7.953
 6304POPC   C4B19138  40.784  42.598   7.653
 6305POPC   NC319139  40.025   0.426   9.453
 6305POPC   PO419140  40.010   0.396   9.153
 6305POPC   GL119141  39.960   0.401   8.853
 6305POPC   GL219142  40.106   0.521   8.853
 6305POPC   C1A19143  40.019   0.419   8.553
 6305POPC   D2A19144  39.976   0.474   8.253
 6305POPC   C3A19145  40.025   0.414   7.953
 6305POPC   C4A19146  39.971   0.412   7.653
 6305POPC   C1B19147  40.234   0.567   8.553
 6305POPC   C2B19148  40.217   0.544   8.253
 6305POPC   C3B19149  40.261   0.591   7.953
 6305POPC   C4B19150  40.262   0.541   7.653
 6306POPC   NC319151  11.260  21.339   9.453
 6306POPC   PO419152  11.300  21.354   9.153
 6306POPC   GL119153  11.322  21.383   8.853
 6306POPC   GL219154  11.423  21.465   8.853
 6306POPC   C1A19155  11.312  21.408   8.553
 6306POPC   D2A19156  11.349  21.427   8.253
 6306POPC   C3A19157  11.263  21.424   7.953
 6306POPC   C4A19158  11.334  21.382   7.653
 6306POPC   C1B19159  11.455  21.568   8.553
 6306POPC   C2B19160  11.455  21.565   8.253
 6306POPC   C3B19161  11.489  21.597   7.953
 6306POPC   C4B19162  11.490  21.607   7.653
 6307POPC   NC319163  19.880  10.555   9.453
 6307POPC   PO419164  19.833  10.532   9.153
 6307POPC   GL119165  19.853  10.488   8.853
 6307POPC   GL219166  19.713  10.604   8.853
 6307POPC   C1A19167  19.875  10.492   8.553
 6307POPC   D2A19168  19.831  10.516   8.253
 6307POPC   C3A19169  19.804  10.510   7.953
 6307POPC   C4A19170  19.871  10.520   7.653
 6307POPC   C1B19171  19.617  10.652   8.553
 6307POPC   C2B19172  19.613  10.658   8.253
 6307POPC   C3B19173  19.656  10.703   7.953
 6307POPC   C4B19174  19.660  10.659   7.653
 6308POPC   NC319175  23.695  44.664   9.453
 6308POPC   PO419176  23.736  44.625   9.153
 6308POPC   GL119177  23.729  44.679   8.853
 6308POPC   GL219178  23.641  44.754   8.853
 6308POPC   C1A19179  23.678  44.660   8.553
 6308POPC   D2A19180  23.680  44.690   8.253
 6308POPC   C3A19181  23.711  44.640   7.953
 6308POPC   C4A19182  23.743  44.631   7.653
 6308POPC   C1B19183  23.488  44.848   8.553
 6308POPC   C2B19184  23.479  44.856   8.253
 6308POPC   C3B19185  23.486  44.826   7.953
 6308POPC   C4B19186  23.542  44.785   7.653
 6309POPC   NC319187  36.865  19.101   9.453
 6309POPC   PO419188  36.899  19.097   9.153
 6309POPC   GL119189  36.922  19.013   8.853
 6309POPC   GL219190  36.813  19.076   8.853
 6309POPC   C1A19191  36.891  19.052   8.553
 6309POPC   D2A19192  36.923  19.070   8.253
 6309POPC   C3A19193  36.898  19.029   7.953
 6309POPC   C4A19194  36.883  19.017   7.653
 6309POPC   C1B19195  36.644  19.060   8.553
 6309POPC   C2B19196  36.682  19.117   8.253
 6309POPC   C3B19197  36.610  19.063   7.953
 6309POPC   C4B19198  36.652  19.086   7.653
 6310POPC   NC319199  31.447  12.093   9.453
 6310POPC   PO419200  31.459  12.079   9.153
 6310POPC   GL119201  31.451  12.113   8.853
 6310POPC   GL219202  31.549  12.025   8.853
 6310POPC   C1A19203  31.489  12.049   8.553
 6310POPC   D2A19204  31.470  12.032   8.253
 6310POPC   C3A19205  31.446  12.034   7.953
 6310POPC   C4A19206  31.424  12.080   7.653
 6310POPC   C1B19207  31.712  12.044   8.553
 6310POPC   C2B19208  31.679  12.028   8.253
 6310POPC   C3B19209  31.728  11.959   7.953
 6310POPC   C4B19210  31.733  12.053   7.653
 6311POPC   NC319211  29.927  14.382   9.453
 6311POPC   PO419212  29.931  14.418   9.153
 6311POPC   GL119213  29.964  14.396   8.853
 6311POPC   GL219214  30.084  14.375   8.853
 6311POPC   C1A19215  29.948  14.445   8.553
 6311POPC   D2A19216  29.923  14.375   8.253
 6311POPC   C3A19217  29.958  14.410   7.953
 6311POPC   C4A19218  29.925  14.441   7.653
 6311POPC   C1B19219  30.204  14.400   8.553
 6311POPC   C2B19220  30.152  14.416   8.253
 6311POPC   C3B19221  30.204  14.341   7.953
 6311POPC   C4B19222  30.121  14.383   7.653
 6312POPC   NC319223  11.277   4.361   9.453
 6312POPC   PO419224  11.274   4.305   9.153
 6312POPC   GL119225  11.276   4.269   8.853
 6312POPC   GL219226  11.380   4.276   8.853
 6312POPC   C1A19227  11.314   4.355   8.553
 6312POPC   D2A19228  11.318   4.331   8.253
 6312POPC   C3A19229  11.337   4.282   7.953
 6312POPC   C4A19230  11.307   4.288   7.653
 6312POPC   C1B19231  11.553   4.219   8.553
 6312POPC   C2B19232  11.486   4.219   8.253
 6312POPC   C3B19233  11.505   4.207   7.953
 6312POPC   C4B19234  11.568   4.221   7.653
 6313POPC   NC319235   3.573   2.761   9.453
 6313POPC   PO419236   3.582   2.757   9.153
 6313POPC   GL119237   3.562   2.750   8.853
 6313POPC   GL219238   3.516   2.866   8.853
 6313POPC   C1A19239   3.541   2.716   8.553
 6313POPC   D2A19240   3.583   2.794   8.253
 6313POPC   C3A19241   3.570   2.805   7.953
 6313POPC   C4A19242   3.581   2.761   7.653
 6313POPC   C1B19243   3.409   3.010   8.553
 6313POPC   C2B19244   3.410   3.034   8.253
 6313POPC   C3B19245   3.451   2.965   7.953
 6313POPC   C4B19246   3.399   2.967   7.653
 6314POPC   NC319247  28.340  15.194   9.453
 6314POPC   PO419248  28.412  15.170   9.153
 6314POPC   GL119249  28.397  15.202   8.853
 6314POPC   GL219250  28.437  15.148   8.853
 6314POPC   C1A19251  28.379  15.190   8.553
 6314POPC   D2A19252  28.332  15.224   8.253
 6314POPC   C3A19253  28.390  15.200   7.953
 6314POPC   C4A19254  28.388  15.164   7.653
 6314POPC   C1B19255  28.527  15.010   8.553
 6314POPC   C2B19256  28.604  15.029   8.253
 6314POPC   C3B19257  28.520  15.003   7.953
 6314POPC   C4B19258  28.573  15.065   7.653
 6315POPC   NC319259  12.107  12.872   9.453
 6315POPC   PO419260  12.078  12.833   9.153
 6315POPC   GL119261  12.121  12.882   8.853
 6315POPC   GL219262  12.103  12.936   8.853
 6315POPC   C1A19263  12.090  12.830   8.553
 6315POPC   D2A19264  12.080  12.848   8.253
 6315POPC   C3A19265  12.050  12.817   7.953
 6315POPC   C4A19266  12.044  12.829   7.653
 6315POPC   C1B19267  12.116  13.120   8.553
 6315POPC   C2B19268  12.059  13.096   8.253
 6315POPC   C3B19269  12.148  13.083   7.953
 6315POPC   C4B19270  12.060  13.098   7.653
 6316POPC   NC319271  25.311  18.252   9.453
 6316POPC   PO419272  25.300  18.315   9.153
 6316POPC   GL119273  25.310  18.319   8.853
 6316POPC   GL219274  25.341  18.268   8.853
 6316POPC   C1A19275  25.277  18.233   8.553
 6316POPC   D2A19276  25.218  18.246   8.253
 6316POPC   C3A19277  25.293  18.297   7.953
 6316POPC   C4A19278  25.303  18.310   7.653
 6316POPC   C1B19279  25.521  18.353   8.553
 6316POPC   C2B19280  25.521  18.389   8.253
 6316POPC   C3B19281  25.521  18.371   7.953
 6316POPC   C4B19282  25.555  18.350   7.653
 6317POPC   NC319283  23.725  23.712   9.453
 6317POPC   PO419284  23.734  23.726   9.153
 6317POPC   GL119285  23.686  23.674   8.853
 6317POPC   GL219286  23.737  23.568   8.853
 6317POPC   C1A19287  23.696  23.760   8.553
 6317POPC   D2A19288  23.705  23.737   8.253
 6317POPC   C3A19289  23.715  23.679   7.953
 6317POPC   C4A19290  23.697  23.683   7.653
 6317POPC   C1B19291  23.677  23.502   8.553
 6317POPC   C2B19292  23.720  23.444   8.253
 6317POPC   C3B19293  23.764  23.454   7.953
 6317POPC   C4B19294  23.729  23.485   7.653
 6318POPC   NC319295  12.803  22.163   9.453
 6318POPC   PO419296  12.883  22.131   9.153
 6318POPC   GL119297  12.886  22.173   8.853
 6318POPC   GL219298  12.722  22.157   8.853
 6318POPC   C1A19299  12.819  22.137   8.553
 6318POPC   D2A19300  12.828  22.189   8.253
 6318POPC   C3A19301  12.887  22.197   7.953
 6318POPC   C4A19302  12.854  22.146   7.653
 6318POPC   C1B19303  12.583  22.112   8.553
 6318POPC   C2B19304  12.631  22.086   8.253
 6318POPC   C3B19305  12.608  22.063   7.953
 6318POPC   C4B19306  12.576  22.104   7.653
 6319POPC   NC319307   1.957  29.155   9.453
 6319POPC   PO419308   1.988  29.121   9.153
 6319POPC   GL119309   1.977  29.177   8.853
 6319POPC   GL219310   2.140  29.096   8.853
 6319POPC   C1A19311   1.951  29.117   8.553
 6319POPC   D2A19312   1.948  29.117   8.253
 6319POPC   C3A19313   1.973  29.104   7.953
 6319POPC   C4A19314   2.039  29.164   7.653
 6319POPC   C1B19315   2.286  29.128   8.553
 6319POPC   C2B19316   2.218  29.064   8.253
 6319POPC   C3B19317   2.280  29.082   7.953
 6319POPC   C4B19318   2.205  29.105   7.653
 6320POPC   NC319319  17.482   1.227   9.453
 6320POPC   PO419320  17.545   1.206   9.153
 6320POPC   GL119321  17.501   1.193   8.853
 6320POPC   GL219322  17.590   1.292   8.853
 6320POPC   C1A19323  17.545   1.182   8.553
 6320POPC   D2A19324  17.535   1.192   8.253
 6320POPC   C3A19325  17.473   1.264   7.953
 6320POPC   C4A19326  17.476   1.244   7.653
 6320POPC   C1B19327  17.607   1.484   8.553
 6320POPC   C2B19328  17.618   1.465   8.253
 6320POPC   C3B19329  17.671   1.447   7.953
 6320POPC   C4B19330  17.610   1.441   7.653
 6321POPC   NC319331   3.497   7.404   9.453
 6321POPC   PO419332   3.566   7.449   9.153
 6321POPC   GL119333   3.554   7.396   8.853
 6321POPC   GL219334   3.502   7.572   8.853
 6321POPC   C1A19335   3.549   7.454   8.553
 6321POPC   D2A19336   3.559   7.464   8.253
 6321POPC   C3A19337   3.560   7.453   7.953
 6321POPC   C4A19338   3.576   7.385   7.653
 6321POPC   C1B19339   3.569   7.683   8.553
 6321POPC   C2B19340   3.542   7.673   8.253
 6321POPC   C3B19341   3.572   7.640   7.953
 6321POPC   C4B19342   3.512   7.625   7.653
 6322POPC   NC319343  19.041  35.319   9.453
 6322POPC   PO419344  19.072  35.335   9.153
 6322POPC   GL119345  19.025  35.396   8.853
 6322POPC   GL219346  19.200  35.418   8.853
 6322POPC   C1A19347  19.045  35.384   8.553
 6322POPC   D2A19348  19.102  35.361   8.253
 6322POPC   C3A19349  19.067  35.357   7.953
 6322POPC   C4A19350  19.104  35.367   7.653
 6322POPC   C1B19351  19.305  35.463   8.553
 6322POPC   C2B19352  19.254  35.444   8.253
 6322POPC   C3B19353  19.310  35.422   7.953
 6322POPC   C4B19354  19.307  35.457   7.653
 6323POPC   NC319355  15.175   8.948   9.453
 6323POPC   PO419356  15.156   8.982   9.153
 6323POPC   GL119357  15.145   8.944   8.853
 6323POPC   GL219358  15.069   9.071   8.853
 6323POPC   C1A19359  15.181   9.014   8.553
 6323POPC   D2A19360  15.153   8.928   8.253
 6323POPC   C3A19361  15.219   8.960   7.953
 6323POPC   C4A19362  15.164   8.977   7.653
 6323POPC   C1B19363  15.027   9.136   8.553
 6323POPC   C2B19364  14.994   9.139   8.253
 6323POPC   C3B19365  15.059   9.153   7.953
 6323POPC   C4B19366  15.030   9.144   7.653
 6324POPC   NC319367   0.434  41.606   9.453
 6324POPC   PO419368   0.402  41.529   9.153
 6324POPC   GL119369   0.395  41.565   8.853
 6324POPC   GL219370   0.514  41.440   8.853
 6324POPC   C1A19371   0.419  41.585   8.553
 6324POPC   D2A19372   0.397  41.596   8.253
 6324POPC   C3A19373   0.407  41.597   7.953
 6324POPC   C4A19374   0.485  41.541   7.653
 6324POPC   C1B19375   0.597  41.397   8.553
 6324POPC   C2B19376   0.637  41.324   8.253
 6324POPC   C3B19377   0.631  41.323   7.953
 6324POPC   C4B19378   0.561  41.369   7.653
 6325POPC   NC319379   8.191   8.964   9.453
 6325POPC   PO419380   8.185   9.015   9.153
 6325POPC   GL119381   8.209   9.004   8.853
 6325POPC   GL219382   8.326   8.993   8.853
 6325POPC   C1A19383   8.196   8.934   8.553
 6325POPC   D2A19384   8.189   9.011   8.253
 6325POPC   C3A19385   8.210   8.925   7.953
 6325POPC   C4A19386   8.210   8.937   7.653
 6325POPC   C1B19387   8.449   8.938   8.553
 6325POPC   C2B19388   8.489   8.928   8.253
 6325POPC   C3B19389   8.486   8.918   7.953
 6325POPC   C4B19390   8.402   8.952   7.653
 6326POPC   NC319391  27.603   1.959   9.453
 6326POPC   PO419392  27.590   1.951   9.153
 6326POPC   GL119393  27.619   2.027   8.853
 6326POPC   GL219394  27.609   1.823   8.853
 6326POPC   C1A19395  27.581   1.991   8.553
 6326POPC   D2A19396  27.556   1.957   8.253
 6326POPC   C3A19397  27.628   1.979   7.953
 6326POPC   C4A19398  27.633   2.007   7.653
 6326POPC   C1B19399  27.642   1.719   8.553
 6326POPC   C2B19400  27.674   1.743   8.253
 6326POPC   C3B19401  27.631   1.714   7.953
 6326POPC   C4B19402  27.607   1.696   7.653
 6327POPC   NC319403  42.301  26.812   9.453
 6327POPC   PO419404  42.326  26.775   9.153
 6327POPC   GL119405  42.357  26.847   8.853
 6327POPC   GL219406  42.287  26.698   8.853
 6327POPC   C1A19407  42.361  26.867   8.553
 6327POPC   D2A19408  42.378  26.828   8.253
 6327POPC   C3A19409  42.368  26.819   7.953
 6327POPC   C4A19410  42.316  26.789   7.653
 6327POPC   C1B19411  42.257  26.545   8.553
 6327POPC   C2B19412  42.232  26.562   8.253
 6327POPC   C3B19413  42.271  26.559   7.953
 6327POPC   C4B19414  42.305  26.593   7.653
 6328POPC   NC319415  16.758  34.562   9.453
 6328POPC   PO419416  16.711  34.530   9.153
 6328POPC   GL119417  16.746  34.612   8.853
 6328POPC   GL219418  16.710  34.710   8.853
 6328POPC   C1A19419  16.721  34.576   8.553
 6328POPC   D2A19420  16.683  34.561   8.253
 6328POPC   C3A19421  16.724  34.605   7.953
 6328POPC   C4A19422  16.743  34.531   7.653
 6328POPC   C1B19423  16.802  34.827   8.553
 6328POPC   C2B19424  16.725  34.868   8.253
 6328POPC   C3B19425  16.779  34.854   7.953
 6328POPC   C4B19426  16.785  34.872   7.653
 6329POPC   NC319427  22.940  35.325   9.453
 6329POPC   PO419428  22.958  35.340   9.153
 6329POPC   GL119429  22.982  35.388   8.853
 6329POPC   GL219430  22.982  35.254   8.853
 6329POPC   C1A19431  22.963  35.320   8.553
 6329POPC   D2A19432  22.900  35.327   8.253
 6329POPC   C3A19433  22.977  35.365   7.953
 6329POPC   C4A19434  22.945  35.314   7.653
 6329POPC   C1B19435  23.069  35.182   8.553
 6329POPC   C2B19436  23.108  35.161   8.253
 6329POPC   C3B19437  23.089  35.158   7.953
 6329POPC   C4B19438  23.141  35.124   7.653
 6330POPC   NC319439  17.523  33.043   9.453
 6330POPC   PO419440  17.517  32.993   9.153
 6330POPC   GL119441  17.461  33.043   8.853
 6330POPC   GL219442  17.559  33.109   8.853
 6330POPC   C1A19443  17.459  33.054   8.553
 6330POPC   D2A19444  17.510  33.051   8.253
 6330POPC   C3A19445  17.496  32.990   7.953
 6330POPC   C4A19446  17.462  33.046   7.653
 6330POPC   C1B19447  17.753  33.213   8.553
 6330POPC   C2B19448  17.744  33.205   8.253
 6330POPC   C3B19449  17.700  33.191   7.953
 6330POPC   C4B19450  17.662  33.173   7.653
 6331POPC   NC319451  33.073   5.903   9.453
 6331POPC   PO419452  32.997   5.888   9.153
 6331POPC   GL119453  33.017   5.819   8.853
 6331POPC   GL219454  33.081   5.813   8.853
 6331POPC   C1A19455  33.045   5.856   8.553
 6331POPC   D2A19456  33.031   5.878   8.253
 6331POPC   C3A19457  33.009   5.866   7.953
 6331POPC   C4A19458  32.975   5.869   7.653
 6331POPC   C1B19459  33.201   5.707   8.553
 6331POPC   C2B19460  33.156   5.617   8.253
 6331POPC   C3B19461  33.178   5.688   7.953
 6331POPC   C4B19462  33.181   5.663   7.653
 6332POPC   NC319463  43.128   4.273   9.453
 6332POPC   PO419464  43.152   4.356   9.153
 6332POPC   GL119465  43.125   4.303   8.853
 6332POPC   GL219466  42.980   4.385   8.853
 6332POPC   C1A19467  43.095   4.291   8.553
 6332POPC   D2A19468  43.154   4.295   8.253
 6332POPC   C3A19469  43.068   4.344   7.953
 6332POPC   C4A19470  43.118   4.310   7.653
 6332POPC   C1B19471  42.904   4.527   8.553
 6332POPC   C2B19472  42.907   4.538   8.253
 6332POPC   C3B19473  42.956   4.498   7.953
 6332POPC   C4B19474  42.964   4.540   7.653
 6333POPC   NC319475  23.693  26.778   9.453
 6333POPC   PO419476  23.756  26.833   9.153
 6333POPC   GL119477  23.753  26.779   8.853
 6333POPC   GL219478  23.807  26.719   8.853
 6333POPC   C1A19479  23.684  26.863   8.553
 6333POPC   D2A19480  23.691  26.791   8.253
 6333POPC   C3A19481  23.686  26.831   7.953
 6333POPC   C4A19482  23.742  26.818   7.653
 6333POPC   C1B19483  23.919  26.657   8.553
 6333POPC   C2B19484  23.872  26.621   8.253
 6333POPC   C3B19485  23.942  26.597   7.953
 6333POPC   C4B19486  23.902  26.688   7.653
 6334POPC   NC319487   8.973  25.280   9.453
 6334POPC   PO419488   8.950  25.263   9.153
 6334POPC   GL119489   8.944  25.227   8.853
 6334POPC   GL219490   8.841  25.264   8.853
 6334POPC   C1A19491   9.021  25.272   8.553
 6334POPC   D2A19492   8.998  25.290   8.253
 6334POPC   C3A19493   8.960  25.266   7.953
 6334POPC   C4A19494   9.012  25.220   7.653
 6334POPC   C1B19495   8.735  25.347   8.553
 6334POPC   C2B19496   8.768  25.280   8.253
 6334POPC   C3B19497   8.743  25.280   7.953
 6334POPC   C4B19498   8.700  25.333   7.653
 6335POPC   NC319499  29.929  40.772   9.453
 6335POPC   PO419500  29.902  40.763   9.153
 6335POPC   GL119501  29.943  40.807   8.853
 6335POPC   GL219502  29.944  40.677   8.853
 6335POPC   C1A19503  29.912  40.828   8.553
 6335POPC   D2A19504  29.923  40.771   8.253
 6335POPC   C3A19505  29.950  40.772   7.953
 6335POPC   C4A19506  29.960  40.785   7.653
 6335POPC   C1B19507  29.886  40.529   8.553
 6335POPC   C2B19508  29.938  40.483   8.253
 6335POPC   C3B19509  29.948  40.503   7.953
 6335POPC   C4B19510  29.928  40.491   7.653
 6336POPC   NC319511  30.687  29.158   9.453
 6336POPC   PO419512  30.737  29.151   9.153
 6336POPC   GL119513  30.713  29.151   8.853
 6336POPC   GL219514  30.778  29.094   8.853
 6336POPC   C1A19515  30.684  29.098   8.553
 6336POPC   D2A19516  30.725  29.103   8.253
 6336POPC   C3A19517  30.730  29.174   7.953
 6336POPC   C4A19518  30.690  29.137   7.653
 6336POPC   C1B19519  30.914  29.016   8.553
 6336POPC   C2B19520  30.857  28.949   8.253
 6336POPC   C3B19521  30.917  28.983   7.953
 6336POPC   C4B19522  30.919  28.985   7.653
 6337POPC   NC319523   4.357  31.468   9.453
 6337POPC   PO419524   4.326  31.512   9.153
 6337POPC   GL119525   4.349  31.481   8.853
 6337POPC   GL219526   4.433  31.471   8.853
 6337POPC   C1A19527   4.328  31.519   8.553
 6337POPC   D2A19528   4.305  31.476   8.253
 6337POPC   C3A19529   4.290  31.433   7.953
 6337POPC   C4A19530   4.286  31.479   7.653
 6337POPC   C1B19531   4.599  31.462   8.553
 6337POPC   C2B19532   4.522  31.443   8.253
 6337POPC   C3B19533   4.613  31.484   7.953
 6337POPC   C4B19534   4.595  31.449   7.653
 6338POPC   NC319535  44.659  36.156   9.453
 6338POPC   PO419536  44.623  36.140   9.153
 6338POPC   GL119537  44.615  36.103   8.853
 6338POPC   GL219538  44.807  36.077   8.853
 6338POPC   C1A19539  44.683  36.128   8.553
 6338POPC   D2A19540  44.622  36.165   8.253
 6338POPC   C3A19541  44.668  36.154   7.953
 6338POPC   C4A19542  44.626  36.170   7.653
 6338POPC   C1B19543  44.857  35.955   8.553
 6338POPC   C2B19544  44.842  35.972   8.253
 6338POPC   C3B19545  44.851  36.010   7.953
 6338POPC   C4B19546  44.830  35.979   7.653
 6339POPC   NC319547  21.406  43.147   9.453
 6339POPC   PO419548  21.401  43.122   9.153
 6339POPC   GL119549  21.378  43.123   8.853
 6339POPC   GL219550  21.317  43.077   8.853
 6339POPC   C1A19551  21.354  43.100   8.553
 6339POPC   D2A19552  21.413  43.080   8.253
 6339POPC   C3A19553  21.432  43.086   7.953
 6339POPC   C4A19554  21.432  43.073   7.653
 6339POPC   C1B19555  21.134  43.042   8.553
 6339POPC   C2B19556  21.159  43.023   8.253
 6339POPC   C3B19557  21.132  42.994   7.953
 6339POPC   C4B19558  21.132  43.021   7.653
 6340POPC   NC319559  34.615  19.822   9.453
 6340POPC   PO419560  34.594  19.787   9.153
 6340POPC   GL119561  34.584  19.842   8.853
 6340POPC   GL219562  34.472  19.862   8.853
 6340POPC   C1A19563  34.546  19.812   8.553
 6340POPC   D2A19564  34.618  19.848   8.253
 6340POPC   C3A19565  34.608  19.818   7.953
 6340POPC   C4A19566  34.539  19.864   7.653
 6340POPC   C1B19567  34.324  19.961   8.553
 6340POPC   C2B19568  34.315  19.964   8.253
 6340POPC   C3B19569  34.316  20.006   7.953
 6340POPC   C4B19570  34.368  19.984   7.653
 6341POPC   NC319571  19.031  15.183   9.453
 6341POPC   PO419572  19.103  15.171   9.153
 6341POPC   GL119573  19.082  15.219   8.853
 6341POPC   GL219574  19.052  15.276   8.853
 6341POPC   C1A19575  19.041  15.136   8.553
 6341POPC   D2A19576  19.046  15.190   8.253
 6341POPC   C3A19577  19.059  15.172   7.953
 6341POPC   C4A19578  19.054  15.129   7.653
 6341POPC   C1B19579  19.146  15.396   8.553
 6341POPC   C2B19580  19.170  15.470   8.253
 6341POPC   C3B19581  19.141  15.410   7.953
 6341POPC   C4B19582  19.154  15.415   7.653
 6342POPC   NC319583  33.781  42.358   9.453
 6342POPC   PO419584  33.808  42.349   9.153
 6342POPC   GL119585  33.807  42.311   8.853
 6342POPC   GL219586  33.801  42.499   8.853
 6342POPC   C1A19587  33.788  42.356   8.553
 6342POPC   D2A19588  33.838  42.317   8.253
 6342POPC   C3A19589  33.828  42.316   7.953
 6342POPC   C4A19590  33.827  42.304   7.653
 6342POPC   C1B19591  33.787  42.546   8.553
 6342POPC   C2B19592  33.757  42.599   8.253
 6342POPC   C3B19593  33.742  42.532   7.953
 6342POPC   C4B19594  33.746  42.542   7.653
 6343POPC   NC319595  34.608  21.338   9.453
 6343POPC   PO419596  34.552  21.379   9.153
 6343POPC   GL119597  34.539  21.392   8.853
 6343POPC   GL219598  34.593  21.308   8.853
 6343POPC   C1A19599  34.617  21.429   8.553
 6343POPC   D2A19600  34.577  21.381   8.253
 6343POPC   C3A19601  34.597  21.356   7.953
 6343POPC   C4A19602  34.545  21.415   7.653
 6343POPC   C1B19603  34.736  21.155   8.553
 6343POPC   C2B19604  34.674  21.130   8.253
 6343POPC   C3B19605  34.748  21.181   7.953
 6343POPC   C4B19606  34.744  21.169   7.653
 6344POPC   NC319607  15.973  13.609   9.453
 6344POPC   PO419608  15.989  13.585   9.153
 6344POPC   GL119609  15.987  13.612   8.853
 6344POPC   GL219610  15.940  13.738   8.853
 6344POPC   C1A19611  15.916  13.618   8.553
 6344POPC   D2A19612  15.930  13.662   8.253
 6344POPC   C3A19613  15.994  13.582   7.953
 6344POPC   C4A19614  15.995  13.677   7.653
 6344POPC   C1B19615  15.863  13.837   8.553
 6344POPC   C2B19616  15.814  13.838   8.253
 6344POPC   C3B19617  15.832  13.882   7.953
 6344POPC   C4B19618  15.852  13.816   7.653
 6345POPC   NC319619  29.896  37.669   9.453
 6345POPC   PO419620  29.898  37.694   9.153
 6345POPC   GL119621  29.901  37.668   8.853
 6345POPC   GL219622  29.929  37.849   8.853
 6345POPC   C1A19623  29.944  37.682   8.553
 6345POPC   D2A19624  29.906  37.640   8.253
 6345POPC   C3A19625  29.917  37.687   7.953
 6345POPC   C4A19626  29.914  37.646   7.653
 6345POPC   C1B19627  29.917  37.965   8.553
 6345POPC   C2B19628  29.930  37.967   8.253
 6345POPC   C3B19629  29.956  37.906   7.953
 6345POPC   C4B19630  29.950  37.893   7.653
 6346POPC   NC319631  35.362  29.122   9.453
 6346POPC   PO419632  35.316  29.177   9.153
 6346POPC   GL119633  35.303  29.131   8.853
 6346POPC   GL219634  35.288  29.023   8.853
 6346POPC   C1A19635  35.345  29.118   8.553
 6346POPC   D2A19636  35.314  29.190   8.253
 6346POPC   C3A19637  35.398  29.174   7.953
 6346POPC   C4A19638  35.370  29.143   7.653
 6346POPC   C1B19639  35.241  28.927   8.553
 6346POPC   C2B19640  35.163  28.956   8.253
 6346POPC   C3B19641  35.258  28.984   7.953
 6346POPC   C4B19642  35.182  28.980   7.653
 6347POPC   NC319643   5.106   2.759   9.453
 6347POPC   PO419644   5.102   2.800   9.153
 6347POPC   GL119645   5.135   2.723   8.853
 6347POPC   GL219646   5.134   2.595   8.853
 6347POPC   C1A19647   5.107   2.795   8.553
 6347POPC   D2A19648   5.069   2.792   8.253
 6347POPC   C3A19649   5.097   2.768   7.953
 6347POPC   C4A19650   5.062   2.804   7.653
 6347POPC   C1B19651   5.106   2.520   8.553
 6347POPC   C2B19652   5.126   2.520   8.253
 6347POPC   C3B19653   5.147   2.540   7.953
 6347POPC   C4B19654   5.120   2.554   7.653
 6348POPC   NC319655  18.326  36.133   9.453
 6348POPC   PO419656  18.278  36.138   9.153
 6348POPC   GL119657  18.322  36.100   8.853
 6348POPC   GL219658  18.228  36.245   8.853
 6348POPC   C1A19659  18.247  36.115   8.553
 6348POPC   D2A19660  18.282  36.143   8.253
 6348POPC   C3A19661  18.318  36.121   7.953
 6348POPC   C4A19662  18.316  36.140   7.653
 6348POPC   C1B19663  18.043  36.262   8.553
 6348POPC   C2B19664  18.058  36.277   8.253
 6348POPC   C3B19665  18.048  36.263   7.953
 6348POPC   C4B19666  18.053  36.280   7.653
 6349POPC   NC319667  30.654  30.710   9.453
 6349POPC   PO419668  30.715  30.652   9.153
 6349POPC   GL119669  30.737  30.692   8.853
 6349POPC   GL219670  30.648  30.772   8.853
 6349POPC   C1A19671  30.694  30.671   8.553
 6349POPC   D2A19672  30.713  30.683   8.253
 6349POPC   C3A19673  30.706  30.728   7.953
 6349POPC   C4A19674  30.708  30.713   7.653
 6349POPC   C1B19675  30.540  30.945   8.553
 6349POPC   C2B19676  30.596  30.954   8.253
 6349POPC   C3B19677  30.609  30.948   7.953
 6349POPC   C4B19678  30.586  30.885   7.653
 6350POPC   NC319679  39.991  35.333   9.453
 6350POPC   PO419680  39.964  35.302   9.153
 6350POPC   GL119681  40.025  35.399   8.853
 6350POPC   GL219682  39.949  35.435   8.853
 6350POPC   C1A19683  40.039  35.306   8.553
 6350POPC   D2A19684  40.022  35.348   8.253
 6350POPC   C3A19685  39.973  35.377   7.953
 6350POPC   C4A19686  40.021  35.346   7.653
 6350POPC   C1B19687  39.920  35.577   8.553
 6350POPC   C2B19688  39.914  35.620   8.253
 6350POPC   C3B19689  39.908  35.567   7.953
 6350POPC   C4B19690  39.936  35.538   7.653
 6351POPC   NC319691  18.256  11.341   9.453
 6351POPC   PO419692  18.264  11.345   9.153
 6351POPC   GL119693  18.324  11.305   8.853
 6351POPC   GL219694  18.348  11.173   8.853
 6351POPC   C1A19695  18.246  11.335   8.553
 6351POPC   D2A19696  18.309  11.342   8.253
 6351POPC   C3A19697  18.262  11.250   7.953
 6351POPC   C4A19698  18.309  11.349   7.653
 6351POPC   C1B19699  18.415  11.127   8.553
 6351POPC   C2B19700  18.435  11.045   8.253
 6351POPC   C3B19701  18.364  11.053   7.953
 6351POPC   C4B19702  18.442  11.073   7.653
 6352POPC   NC319703  43.144  27.620   9.453
 6352POPC   PO419704  43.086  27.579   9.153
 6352POPC   GL119705  43.152  27.576   8.853
 6352POPC   GL219706  43.054  27.718   8.853
 6352POPC   C1A19707  43.130  27.602   8.553
 6352POPC   D2A19708  43.132  27.641   8.253
 6352POPC   C3A19709  43.142  27.603   7.953
 6352POPC   C4A19710  43.071  27.599   7.653
 6352POPC   C1B19711  43.061  27.817   8.553
 6352POPC   C2B19712  43.108  27.890   8.253
 6352POPC   C3B19713  43.053  27.805   7.953
 6352POPC   C4B19714  43.069  27.885   7.653
 6353POPC   NC319715  43.909   2.786   9.453
 6353POPC   PO419716  43.845   2.788   9.153
 6353POPC   GL119717  43.859   2.716   8.853
 6353POPC   GL219718  43.921   2.897   8.853
 6353POPC   C1A19719  43.895   2.810   8.553
 6353POPC   D2A19720  43.875   2.812   8.253
 6353POPC   C3A19721  43.842   2.773   7.953
 6353POPC   C4A19722  43.884   2.804   7.653
 6353POPC   C1B19723  44.018   2.995   8.553
 6353POPC   C2B19724  43.986   2.954   8.253
 6353POPC   C3B19725  43.971   3.030   7.953
 6353POPC   C4B19726  43.993   2.984   7.653
 6354POPC   NC319727  42.352  43.878   9.453
 6354POPC   PO419728  42.353  43.847   9.153
 6354POPC   GL119729  42.329  43.857   8.853
 6354POPC   GL219730  42.443  43.793   8.853
 6354POPC   C1A19731  42.303  43.930   8.553
 6354POPC   D2A19732  42.319  43.898   8.253
 6354POPC   C3A19733  42.341  43.933   7.953
 6354POPC   C4A19734  42.309  43.843   7.653
 6354POPC   C1B19735  42.412  43.666   8.553
 6354POPC   C2B19736  42.466  43.673   8.253
 6354POPC   C3B19737  42.421  43.663   7.953
 6354POPC   C4B19738  42.480  43.697   7.653
 6355POPC   NC319739  18.331  31.510   9.453
 6355POPC   PO419740  18.318  31.521   9.153
 6355POPC   GL119741  18.332  31.480   8.853
 6355POPC   GL219742  18.368  31.361   8.853
 6355POPC   C1A19743  18.297  31.455   8.553
 6355POPC   D2A19744  18.245  31.483   8.253
 6355POPC   C3A19745  18.311  31.430   7.953
 6355POPC   C4A19746  18.284  31.474   7.653
 6355POPC   C1B19747  18.488  31.320   8.553
 6355POPC   C2B19748  18.410  31.265   8.253
 6355POPC   C3B19749  18.424  31.279   7.953
 6355POPC   C4B19750  18.455  31.253   7.653
 6356POPC   NC319751  42.292  38.494   9.453
 6356POPC   PO419752  42.291  38.415   9.153
 6356POPC   GL119753  42.369  38.412   8.853
 6356POPC   GL219754  42.361  38.586   8.853
 6356POPC   C1A19755  42.315  38.481   8.553
 6356POPC   D2A19756  42.366  38.460   8.253
 6356POPC   C3A19757  42.293  38.429   7.953
 6356POPC   C4A19758  42.326  38.418   7.653
 6356POPC   C1B19759  42.439  38.697   8.553
 6356POPC   C2B19760  42.473  38.699   8.253
 6356POPC   C3B19761  42.439  38.691   7.953
 6356POPC   C4B19762  42.389  38.702   7.653
 6357POPC   NC319763   7.421  20.605   9.453
 6357POPC   PO419764   7.422  20.656   9.153
 6357POPC   GL119765   7.382  20.655   8.853
 6357POPC   GL219766   7.565  20.541   8.853
 6357POPC   C1A19767   7.416  20.574   8.553
 6357POPC   D2A19768   7.465  20.619   8.253
 6357POPC   C3A19769   7.431  20.631   7.953
 6357POPC   C4A19770   7.446  20.598   7.653
 6357POPC   C1B19771   7.665  20.473   8.553
 6357POPC   C2B19772   7.660  20.531   8.253
 6357POPC   C3B19773   7.624  20.476   7.953
 6357POPC   C4B19774   7.669  20.501   7.653
 6358POPC   NC319775  13.594   0.388   9.453
 6358POPC   PO419776  13.662   0.455   9.153
 6358POPC   GL119777  13.677   0.422   8.853
 6358POPC   GL219778  13.545   0.414   8.853
 6358POPC   C1A19779  13.627   0.419   8.553
 6358POPC   D2A19780  13.659   0.438   8.253
 6358POPC   C3A19781  13.647   0.433   7.953
 6358POPC   C4A19782  13.645   0.430   7.653
 6358POPC   C1B19783  13.394   0.482   8.553
 6358POPC   C2B19784  13.338   0.445   8.253
 6358POPC   C3B19785  13.367   0.476   7.953
 6358POPC   C4B19786  13.401   0.479   7.653
 6359POPC   NC319787  19.789  43.883   9.453
 6359POPC   PO419788  19.802  43.912   9.153
 6359POPC   GL119789  19.821  43.931   8.853
 6359POPC   GL219790  19.990  43.816   8.853
 6359POPC   C1A19791  19.865  43.932   8.553
 6359POPC   D2A19792  19.812  43.922   8.253
 6359POPC   C3A19793  19.816  43.924   7.953
 6359POPC   C4A19794  19.854  43.842   7.653
 6359POPC   C1B19795  20.037  43.821   8.553
 6359POPC   C2B19796  20.110  43.782   8.253
 6359POPC   C3B19797  20.093  43.832   7.953
 6359POPC   C4B19798  20.079  43.778   7.653
 6360POPC   NC319799  12.095  42.383   9.453
 6360POPC   PO419800  12.113  42.347   9.153
 6360POPC   GL119801  12.033  42.353   8.853
 6360POPC   GL219802  12.173  42.324   8.853
 6360POPC   C1A19803  12.101  42.340   8.553
 6360POPC   D2A19804  12.060  42.375   8.253
 6360POPC   C3A19805  12.042  42.366   7.953
 6360POPC   C4A19806  12.123  42.311   7.653
 6360POPC   C1B19807  12.292  42.399   8.553
 6360POPC   C2B19808  12.291  42.339   8.253
 6360POPC   C3B19809  12.360  42.354   7.953
 6360POPC   C4B19810  12.293  42.418   7.653
 6361POPC   NC319811  25.278  43.900   9.453
 6361POPC   PO419812  25.276  43.850   9.153
 6361POPC   GL119813  25.283  43.881   8.853
 6361POPC   GL219814  25.377  43.901   8.853
 6361POPC   C1A19815  25.259  43.918   8.553
 6361POPC   D2A19816  25.281  43.907   8.253
 6361POPC   C3A19817  25.228  43.934   7.953
 6361POPC   C4A19818  25.235  43.930   7.653
 6361POPC   C1B19819  25.525  43.965   8.553
 6361POPC   C2B19820  25.531  44.021   8.253
 6361POPC   C3B19821  25.457  44.010   7.953
 6361POPC   C4B19822  25.452  43.988   7.653
 6362POPC   NC319823  12.828   2.036   9.453
 6362POPC   PO419824  12.810   2.003   9.153
 6362POPC   GL119825  12.837   1.998   8.853
 6362POPC   GL219826  12.736   1.947   8.853
 6362POPC   C1A19827  12.886   2.024   8.553
 6362POPC   D2A19828  12.808   1.979   8.253
 6362POPC   C3A19829  12.876   2.038   7.953
 6362POPC   C4A19830  12.832   1.979   7.653
 6362POPC   C1B19831  12.677   1.863   8.553
 6362POPC   C2B19832  12.664   1.808   8.253
 6362POPC   C3B19833  12.679   1.837   7.953
 6362POPC   C4B19834  12.637   1.851   7.653
 6363POPC   NC319835   5.875   1.979   9.453
 6363POPC   PO419836   5.900   2.011   9.153
 6363POPC   GL119837   5.845   1.943   8.853
 6363POPC   GL219838   5.762   1.914   8.853
 6363POPC   C1A19839   5.840   2.034   8.553
 6363POPC   D2A19840   5.910   1.989   8.253
 6363POPC   C3A19841   5.902   1.989   7.953
 6363POPC   C4A19842   5.905   1.969   7.653
 6363POPC   C1B19843   5.603   1.949   8.553
 6363POPC   C2B19844   5.586   1.868   8.253
 6363POPC   C3B19845   5.671   1.918   7.953
 6363POPC   C4B19846   5.611   1.888   7.653
 6364POPC   NC319847  15.974  19.021   9.453
 6364POPC   PO419848  15.933  19.014   9.153
 6364POPC   GL119849  15.907  19.092   8.853
 6364POPC   GL219850  16.090  18.975   8.853
 6364POPC   C1A19851  15.927  19.039   8.553
 6364POPC   D2A19852  15.906  19.092   8.253
 6364POPC   C3A19853  15.968  19.097   7.953
 6364POPC   C4A19854  15.957  19.018   7.653
 6364POPC   C1B19855  16.187  18.976   8.553
 6364POPC   C2B19856  16.155  18.942   8.253
 6364POPC   C3B19857  16.205  18.967   7.953
 6364POPC   C4B19858  16.146  18.888   7.653
 6365POPC   NC319859  26.011  17.478   9.453
 6365POPC   PO419860  26.077  17.461   9.153
 6365POPC   GL119861  25.994  17.509   8.853
 6365POPC   GL219862  26.020  17.343   8.853
 6365POPC   C1A19863  26.057  17.463   8.553
 6365POPC   D2A19864  26.063  17.530   8.253
 6365POPC   C3A19865  26.090  17.497   7.953
 6365POPC   C4A19866  26.012  17.512   7.653
 6365POPC   C1B19867  25.967  17.291   8.553
 6365POPC   C2B19868  25.937  17.311   8.253
 6365POPC   C3B19869  25.994  17.231   7.953
 6365POPC   C4B19870  26.007  17.242   7.653
 6366POPC   NC319871   3.586  29.893   9.453
 6366POPC   PO419872   3.547  29.948   9.153
 6366POPC   GL119873   3.529  29.912   8.853
 6366POPC   GL219874   3.464  29.939   8.853
 6366POPC   C1A19875   3.560  29.967   8.553
 6366POPC   D2A19876   3.583  29.949   8.253
 6366POPC   C3A19877   3.571  29.919   7.953
 6366POPC   C4A19878   3.573  29.969   7.653
 6366POPC   C1B19879   3.305  30.024   8.553
 6366POPC   C2B19880   3.297  30.030   8.253
 6366POPC   C3B19881   3.330  29.986   7.953
 6366POPC   C4B19882   3.354  29.997   7.653
 6367POPC   NC319883  26.069   8.950   9.453
 6367POPC   PO419884  26.050   8.992   9.153
 6367POPC   GL119885  26.022   8.939   8.853
 6367POPC   GL219886  26.137   9.062   8.853
 6367POPC   C1A19887  26.066   8.944   8.553
 6367POPC   D2A19888  26.078   8.971   8.253
 6367POPC   C3A19889  26.081   9.012   7.953
 6367POPC   C4A19890  26.064   8.995   7.653
 6367POPC   C1B19891  26.182   9.210   8.553
 6367POPC   C2B19892  26.134   9.243   8.253
 6367POPC   C3B19893  26.116   9.193   7.953
 6367POPC   C4B19894  26.105   9.179   7.653
 6368POPC   NC319895  28.346  39.188   9.453
 6368POPC   PO419896  28.344  39.226   9.153
 6368POPC   GL119897  28.401  39.196   8.853
 6368POPC   GL219898  28.484  39.149   8.853
 6368POPC   C1A19899  28.380  39.243   8.553
 6368POPC   D2A19900  28.365  39.269   8.253
 6368POPC   C3A19901  28.335  39.230   7.953
 6368POPC   C4A19902  28.389  39.271   7.653
 6368POPC   C1B19903  28.516  39.077   8.553
 6368POPC   C2B19904  28.495  39.034   8.253
 6368POPC   C3B19905  28.511  39.084   7.953
 6368POPC   C4B19906  28.482  39.068   7.653
 6369POPC   NC319907  27.617  36.121   9.453
 6369POPC   PO419908  27.580  36.127   9.153
 6369POPC   GL119909  27.600  36.083   8.853
 6369POPC   GL219910  27.681  36.074   8.853
 6369POPC   C1A19911  27.587  36.078   8.553
 6369POPC   D2A19912  27.544  36.102   8.253
 6369POPC   C3A19913  27.638  36.093   7.953
 6369POPC   C4A19914  27.576  36.151   7.653
 6369POPC   C1B19915  27.819  36.073   8.553
 6369POPC   C2B19916  27.857  35.999   8.253
 6369POPC   C3B19917  27.832  36.062   7.953
 6369POPC   C4B19918  27.835  36.048   7.653
 6370POPC   NC319919   9.019  33.060   9.453
 6370POPC   PO419920   8.946  33.021   9.153
 6370POPC   GL119921   8.970  33.013   8.853
 6370POPC   GL219922   8.828  32.961   8.853
 6370POPC   C1A19923   8.934  32.987   8.553
 6370POPC   D2A19924   8.952  33.059   8.253
 6370POPC   C3A19925   8.989  33.071   7.953
 6370POPC   C4A19926   8.962  33.029   7.653
 6370POPC   C1B19927   8.696  33.032   8.553
 6370POPC   C2B19928   8.706  32.955   8.253
 6370POPC   C3B19929   8.772  32.951   7.953
 6370POPC   C4B19930   8.764  32.980   7.653
 6371POPC   NC319931   3.502   4.297   9.453
 6371POPC   PO419932   3.573   4.279   9.153
 6371POPC   GL119933   3.495   4.304   8.853
 6371POPC   GL219934   3.568   4.249   8.853
 6371POPC   C1A19935   3.504   4.362   8.553
 6371POPC   D2A19936   3.512   4.314   8.253
 6371POPC   C3A19937   3.540   4.287   7.953
 6371POPC   C4A19938   3.566   4.291   7.653
 6371POPC   C1B19939   3.630   4.068   8.553
 6371POPC   C2B19940   3.631   4.079   8.253
 6371POPC   C3B19941   3.620   4.119   7.953
 6371POPC   C4B19942   3.639   4.046   7.653
 6372POPC   NC319943   9.787   7.398   9.453
 6372POPC   PO419944   9.779   7.379   9.153
 6372POPC   GL119945   9.750   7.427   8.853
 6372POPC   GL219946   9.902   7.491   8.853
 6372POPC   C1A19947   9.700   7.374   8.553
 6372POPC   D2A19948   9.732   7.379   8.253
 6372POPC   C3A19949   9.722   7.451   7.953
 6372POPC   C4A19950   9.731   7.424   7.653
 6372POPC   C1B19951  10.009   7.499   8.553
 6372POPC   C2B19952   9.955   7.531   8.253
 6372POPC   C3B19953   9.969   7.508   7.953
 6372POPC   C4B19954  10.023   7.529   7.653
 6373POPC   NC319955   1.944   4.299   9.453
 6373POPC   PO419956   1.943   4.330   9.153
 6373POPC   GL119957   2.031   4.348   8.853
 6373POPC   GL219958   2.112   4.209   8.853
 6373POPC   C1A19959   2.016   4.308   8.553
 6373POPC   D2A19960   1.979   4.355   8.253
 6373POPC   C3A19961   1.978   4.283   7.953
 6373POPC   C4A19962   1.972   4.295   7.653
 6373POPC   C1B19963   2.181   4.126   8.553
 6373POPC   C2B19964   2.126   4.114   8.253
 6373POPC   C3B19965   2.175   4.116   7.953
 6373POPC   C4B19966   2.179   4.132   7.653
 6374POPC   NC319967   9.002  43.145   9.453
 6374POPC   PO419968   8.972  43.077   9.153
 6374POPC   GL119969   8.969  43.110   8.853
 6374POPC   GL219970   9.000  43.027   8.853
 6374POPC   C1A19971   9.007  43.106   8.553
 6374POPC   D2A19972   8.927  43.137   8.253
 6374POPC   C3A19973   8.998  43.117   7.953
 6374POPC   C4A19974   8.929  43.107   7.653
 6374POPC   C1B19975   9.006  42.903   8.553
 6374POPC   C2B19976   8.979  42.826   8.253
 6374POPC   C3B19977   9.013  42.856   7.953
 6374POPC   C4B19978   8.934  42.838   7.653
 6375POPC   NC319979  26.829   4.298   9.453
 6375POPC   PO419980  26.858   4.365   9.153
 6375POPC   GL119981  26.805   4.290   8.853
 6375POPC   GL219982  26.752   4.366   8.853
 6375POPC   C1A19983  26.788   4.274   8.553
 6375POPC   D2A19984  26.850   4.358   8.253
 6375POPC   C3A19985  26.784   4.297   7.953
 6375POPC   C4A19986  26.848   4.345   7.653
 6375POPC   C1B19987  26.596   4.508   8.553
 6375POPC   C2B19988  26.597   4.478   8.253
 6375POPC   C3B19989  26.653   4.487   7.953
 6375POPC   C4B19990  26.657   4.529   7.653
 6376POPC   NC319991  26.081  39.269   9.453
 6376POPC   PO419992  26.073  39.182   9.153
 6376POPC   GL119993  26.037  39.188   8.853
 6376POPC   GL219994  26.053  39.162   8.853
 6376POPC   C1A19995  26.064  39.199   8.553
 6376POPC   D2A19996  26.085  39.273   8.253
 6376POPC   C3A19997  26.075  39.189   7.953
 6376POPC   C4A19998  26.006  39.258   7.653
 6376POPC   C1B19999  26.184  39.036   8.553
 6376POPC   C2B20000  26.115  38.981   8.253
 6376POPC   C3B20001  26.122  39.059   7.953
 6376POPC   C4B20002  26.161  38.978   7.653
 6377POPC   NC320003  38.460  22.962   9.453
 6377POPC   PO420004  38.411  22.983   9.153
 6377POPC   GL120005  38.457  22.943   8.853
 6377POPC   GL220006  38.415  22.813   8.853
 6377POPC   C1A20007  38.477  22.931   8.553
 6377POPC   D2A20008  38.485  22.918   8.253
 6377POPC   C3A20009  38.491  22.909   7.953
 6377POPC   C4A20010  38.494  22.913   7.653
 6377POPC   C1B20011  38.316  22.709   8.553
 6377POPC   C2B20012  38.389  22.713   8.253
 6377POPC   C3B20013  38.337  22.698   7.953
 6377POPC   C4B20014  38.328  22.664   7.653
 6378POPC   NC320015  36.160  42.289   9.453
 6378POPC   PO420016  36.090  42.326   9.153
 6378POPC   GL120017  36.082  42.342   8.853
 6378POPC   GL220018  36.105  42.209   8.853
 6378POPC   C1A20019  36.114  42.321   8.553
 6378POPC   D2A20020  36.095  42.326   8.253
 6378POPC   C3A20021  36.159  42.339   7.953
 6378POPC   C4A20022  36.140  42.326   7.653
 6378POPC   C1B20023  36.042  42.099   8.553
 6378POPC   C2B20024  35.989  42.071   8.253
 6378POPC   C3B20025  35.970  42.082   7.953
 6378POPC   C4B20026  35.976  42.116   7.653
 6379POPC   NC320027   6.689   5.895   9.453
 6379POPC   PO420028   6.634   5.898   9.153
 6379POPC   GL120029   6.630   5.892   8.853
 6379POPC   GL220030   6.585   5.726   8.853
 6379POPC   C1A20031   6.674   5.823   8.553
 6379POPC   D2A20032   6.687   5.835   8.253
 6379POPC   C3A20033   6.632   5.869   7.953
 6379POPC   C4A20034   6.603   5.832   7.653
 6379POPC   C1B20035   6.501   5.693   8.553
 6379POPC   C2B20036   6.543   5.703   8.253
 6379POPC   C3B20037   6.474   5.699   7.953
 6379POPC   C4B20038   6.451   5.668   7.653
 6380POPC   NC320039  31.471  25.242   9.453
 6380POPC   PO420040  31.463  25.252   9.153
 6380POPC   GL120041  31.460  25.254   8.853
 6380POPC   GL220042  31.356  25.219   8.853
 6380POPC   C1A20043  31.427  25.228   8.553
 6380POPC   D2A20044  31.513  25.283   8.253
 6380POPC   C3A20045  31.467  25.306   7.953
 6380POPC   C4A20046  31.493  25.240   7.653
 6380POPC   C1B20047  31.325  25.131   8.553
 6380POPC   C2B20048  31.329  25.100   8.253
 6380POPC   C3B20049  31.338  25.129   7.953
 6380POPC   C4B20050  31.313  25.067   7.653
 6381POPC   NC320051   7.470  34.562   9.453
 6381POPC   PO420052   7.405  34.583   9.153
 6381POPC   GL120053   7.395  34.587   8.853
 6381POPC   GL220054   7.416  34.687   8.853
 6381POPC   C1A20055   7.454  34.611   8.553
 6381POPC   D2A20056   7.469  34.619   8.253
 6381POPC   C3A20057   7.417  34.554   7.953
 6381POPC   C4A20058   7.444  34.537   7.653
 6381POPC   C1B20059   7.338  34.814   8.553
 6381POPC   C2B20060   7.394  34.854   8.253
 6381POPC   C3B20061   7.331  34.837   7.953
 6381POPC   C4B20062   7.363  34.772   7.653
 6382POPC   NC320063  15.933  35.376   9.453
 6382POPC   PO420064  15.933  35.387   9.153
 6382POPC   GL120065  15.939  35.344   8.853
 6382POPC   GL220066  15.900  35.237   8.853
 6382POPC   C1A20067  15.915  35.394   8.553
 6382POPC   D2A20068  15.918  35.344   8.253
 6382POPC   C3A20069  15.983  35.366   7.953
 6382POPC   C4A20070  15.977  35.308   7.653
 6382POPC   C1B20071  15.897  35.135   8.553
 6382POPC   C2B20072  15.934  35.086   8.253
 6382POPC   C3B20073  15.859  35.083   7.953
 6382POPC   C4B20074  15.909  35.056   7.653
 6383POPC   NC320075   1.237  12.037   9.453
 6383POPC   PO420076   1.169  12.067   9.153
 6383POPC   GL120077   1.264  12.052   8.853
 6383POPC   GL220078   1.104  12.014   8.853
 6383POPC   C1A20079   1.250  12.029   8.553
 6383POPC   D2A20080   1.247  12.053   8.253
 6383POPC   C3A20081   1.218  12.037   7.953
 6383POPC   C4A20082   1.183  12.120   7.653
 6383POPC   C1B20083   1.084  11.905   8.553
 6383POPC   C2B20084   1.092  11.932   8.253
 6383POPC   C3B20085   1.032  11.879   7.953
 6383POPC   C4B20086   1.024  11.849   7.653
 6384POPC   NC320087  36.167  20.608   9.453
 6384POPC   PO420088  36.096  20.583   9.153
 6384POPC   GL120089  36.082  20.643   8.853
 6384POPC   GL220090  36.100  20.506   8.853
 6384POPC   C1A20091  36.121  20.561   8.553
 6384POPC   D2A20092  36.116  20.587   8.253
 6384POPC   C3A20093  36.172  20.566   7.953
 6384POPC   C4A20094  36.154  20.635   7.653
 6384POPC   C1B20095  35.974  20.435   8.553
 6384POPC   C2B20096  35.936  20.417   8.253
 6384POPC   C3B20097  35.967  20.363   7.953
 6384POPC   C4B20098  35.952  20.444   7.653
 6385POPC   NC320099  34.587   8.168   9.453
 6385POPC   PO420100  34.536   8.207   9.153
 6385POPC   GL120101  34.593   8.159   8.853
 6385POPC   GL220102  34.733   8.221   8.853
 6385POPC   C1A20103  34.550   8.208   8.553
 6385POPC   D2A20104  34.559   8.182   8.253
 6385POPC   C3A20105  34.604   8.186   7.953
 6385POPC   C4A20106  34.625   8.230   7.653
 6385POPC   C1B20107  34.785   8.216   8.553
 6385POPC   C2B20108  34.794   8.176   8.253
 6385POPC   C3B20109  34.804   8.211   7.953
 6385POPC   C4B20110  34.821   8.220   7.653
 6386POPC   NC320111  43.089  11.296   9.453
 6386POPC   PO420112  43.159  11.333   9.153
 6386POPC   GL120113  43.068  11.258   8.853
 6386POPC   GL220114  43.199  11.304   8.853
 6386POPC   C1A20115  43.088  11.255   8.553
 6386POPC   D2A20116  43.089  11.279   8.253
 6386POPC   C3A20117  43.067  11.346   7.953
 6386POPC   C4A20118  43.123  11.266   7.653
 6386POPC   C1B20119  43.388  11.368   8.553
 6386POPC   C2B20120  43.323  11.412   8.253
 6386POPC   C3B20121  43.339  11.348   7.953
 6386POPC   C4B20122  43.390  11.370   7.653
 6387POPC   NC320123  26.042  39.972   9.453
 6387POPC   PO420124  26.044  39.972   9.153
 6387POPC   GL120125  25.999  40.035   8.853
 6387POPC   GL220126  25.923  39.982   8.853
 6387POPC   C1A20127  26.086  40.035   8.553
 6387POPC   D2A20128  26.000  40.011   8.253
 6387POPC   C3A20129  26.018  40.039   7.953
 6387POPC   C4A20130  26.090  40.007   7.653
 6387POPC   C1B20131  25.809  40.057   8.553
 6387POPC   C2B20132  25.756  39.990   8.253
 6387POPC   C3B20133  25.790  40.078   7.953
 6387POPC   C4B20134  25.774  40.049   7.653
 6388POPC   NC320135  13.592  20.625   9.453
 6388POPC   PO420136  13.609  20.633   9.153
 6388POPC   GL120137  13.660  20.576   8.853
 6388POPC   GL220138  13.512  20.619   8.853
 6388POPC   C1A20139  13.588  20.613   8.553
 6388POPC   D2A20140  13.629  20.642   8.253
 6388POPC   C3A20141  13.657  20.585   7.953
 6388POPC   C4A20142  13.622  20.599   7.653
 6388POPC   C1B20143  13.353  20.643   8.553
 6388POPC   C2B20144  13.420  20.657   8.253
 6388POPC   C3B20145  13.384  20.601   7.953
 6388POPC   C4B20146  13.332  20.639   7.653
 6389POPC   NC320147  39.970  43.903   9.453
 6389POPC   PO420148  40.026  43.848   9.153
 6389POPC   GL120149  40.055  43.860   8.853
 6389POPC   GL220150  39.896  43.951   8.853
 6389POPC   C1A20151  39.986  43.862   8.553
 6389POPC   D2A20152  40.011  43.921   8.253
 6389POPC   C3A20153  40.011  43.860   7.953
 6389POPC   C4A20154  40.008  43.845   7.653
 6389POPC   C1B20155  39.833  44.017   8.553
 6389POPC   C2B20156  39.814  44.031   8.253
 6389POPC   C3B20157  39.750  44.050   7.953
 6389POPC   C4B20158  39.837  44.021   7.653
 6390POPC   NC320159   7.467  28.381   9.453
 6390POPC   PO420160   7.401  28.346   9.153
 6390POPC   GL120161   7.380  28.404   8.853
 6390POPC   GL220162   7.445  28.435   8.853
 6390POPC   C1A20163   7.409  28.360   8.553
 6390POPC   D2A20164   7.432  28.375   8.253
 6390POPC   C3A20165   7.458  28.399   7.953
 6390POPC   C4A20166   7.391  28.392   7.653
 6390POPC   C1B20167   7.522  28.611   8.553
 6390POPC   C2B20168   7.508  28.607   8.253
 6390POPC   C3B20169   7.487  28.590   7.953
 6390POPC   C4B20170   7.533  28.591   7.653
 6391POPC   NC320171   5.058   4.326   9.453
 6391POPC   PO420172   5.125   4.312   9.153
 6391POPC   GL120173   5.058   4.328   8.853
 6391POPC   GL220174   5.137   4.163   8.853
 6391POPC   C1A20175   5.114   4.295   8.553
 6391POPC   D2A20176   5.053   4.329   8.253
 6391POPC   C3A20177   5.059   4.337   7.953
 6391POPC   C4A20178   5.136   4.295   7.653
 6391POPC   C1B20179   5.191   4.045   8.553
 6391POPC   C2B20180   5.155   4.125   8.253
 6391POPC   C3B20181   5.203   4.054   7.953
 6391POPC   C4B20182   5.248   4.119   7.653
 6392POPC   NC320183  17.503  37.686   9.453
 6392POPC   PO420184  17.556  37.706   9.153
 6392POPC   GL120185  17.476  37.631   8.853
 6392POPC   GL220186  17.505  37.549   8.853
 6392POPC   C1A20187  17.482  37.674   8.553
 6392POPC   D2A20188  17.511  37.641   8.253
 6392POPC   C3A20189  17.551  37.677   7.953
 6392POPC   C4A20190  17.512  37.704   7.653
 6392POPC   C1B20191  17.446  37.465   8.553
 6392POPC   C2B20192  17.404  37.463   8.253
 6392POPC   C3B20193  17.462  37.463   7.953
 6392POPC   C4B20194  17.459  37.433   7.653
 6393POPC   NC320195   2.734  41.535   9.453
 6393POPC   PO420196   2.782  41.539   9.153
 6393POPC   GL120197   2.722  41.556   8.853
 6393POPC   GL220198   2.658  41.591   8.853
 6393POPC   C1A20199   2.751  41.560   8.553
 6393POPC   D2A20200   2.794  41.549   8.253
 6393POPC   C3A20201   2.779  41.539   7.953
 6393POPC   C4A20202   2.723  41.512   7.653
 6393POPC   C1B20203   2.514  41.570   8.553
 6393POPC   C2B20204   2.494  41.645   8.253
 6393POPC   C3B20205   2.501  41.640   7.953
 6393POPC   C4B20206   2.509  41.619   7.653
 6394POPC   NC320207  43.890   8.167   9.453
 6394POPC   PO420208  43.853   8.175   9.153
 6394POPC   GL120209  43.842   8.176   8.853
 6394POPC   GL220210  43.815   8.043   8.853
 6394POPC   C1A20211  43.906   8.217   8.553
 6394POPC   D2A20212  43.928   8.221   8.253
 6394POPC   C3A20213  43.910   8.163   7.953
 6394POPC   C4A20214  43.879   8.147   7.653
 6394POPC   C1B20215  43.784   7.997   8.553
 6394POPC   C2B20216  43.783   7.939   8.253
 6394POPC   C3B20217  43.824   7.950   7.953
 6394POPC   C4B20218  43.843   7.924   7.653
 6395POPC   NC320219   2.800  40.830   9.453
 6395POPC   PO420220   2.806  40.810   9.153
 6395POPC   GL120221   2.786  40.814   8.853
 6395POPC   GL220222   2.728  40.650   8.853
 6395POPC   C1A20223   2.815  40.776   8.553
 6395POPC   D2A20224   2.728  40.805   8.253
 6395POPC   C3A20225   2.769  40.746   7.953
 6395POPC   C4A20226   2.722  40.801   7.653
 6395POPC   C1B20227   2.747  40.505   8.553
 6395POPC   C2B20228   2.739  40.572   8.253
 6395POPC   C3B20229   2.755  40.559   7.953
 6395POPC   C4B20230   2.741  40.580   7.653
 6396POPC   NC320231   5.111  36.122   9.453
 6396POPC   PO420232   5.109  36.085   9.153
 6396POPC   GL120233   5.111  36.099   8.853
 6396POPC   GL220234   5.105  36.254   8.853
 6396POPC   C1A20235   5.131  36.148   8.553
 6396POPC   D2A20236   5.105  36.117   8.253
 6396POPC   C3A20237   5.143  36.120   7.953
 6396POPC   C4A20238   5.105  36.152   7.653
 6396POPC   C1B20239   5.116  36.397   8.553
 6396POPC   C2B20240   5.030  36.414   8.253
 6396POPC   C3B20241   5.047  36.339   7.953
 6396POPC   C4B20242   5.065  36.395   7.653
 6397POPC   NC320243  14.400  21.368   9.453
 6397POPC   PO420244  14.451  21.423   9.153
 6397POPC   GL120245  14.376  21.401   8.853
 6397POPC   GL220246  14.434  21.517   8.853
 6397POPC   C1A20247  14.378  21.351   8.553
 6397POPC   D2A20248  14.379  21.354   8.253
 6397POPC   C3A20249  14.403  21.402   7.953
 6397POPC   C4A20250  14.369  21.404   7.653
 6397POPC   C1B20251  14.500  21.580   8.553
 6397POPC   C2B20252  14.505  21.607   8.253
 6397POPC   C3B20253  14.504  21.612   7.953
 6397POPC   C4B20254  14.499  21.617   7.653
 6398POPC   NC320255  22.125   0.432   9.453
 6398POPC   PO420256  22.125   0.454   9.153
 6398POPC   GL120257  22.183   0.477   8.853
 6398POPC   GL220258  22.198   0.356   8.853
 6398POPC   C1A20259  22.166   0.472   8.553
 6398POPC   D2A20260  22.154   0.411   8.253
 6398POPC   C3A20261  22.183   0.414   7.953
 6398POPC   C4A20262  22.133   0.390   7.653
 6398POPC   C1B20263  22.262   0.199   8.553
 6398POPC   C2B20264  22.310   0.178   8.253
 6398POPC   C3B20265  22.301   0.250   7.953
 6398POPC   C4B20266  22.304   0.269   7.653
 6399POPC   NC320267  23.754  43.931   9.453
 6399POPC   PO420268  23.740  43.860   9.153
 6399POPC   GL120269  23.709  43.894   8.853
 6399POPC   GL220270  23.603  44.004   8.853
 6399POPC   C1A20271  23.749  43.849   8.553
 6399POPC   D2A20272  23.681  43.932   8.253
 6399POPC   C3A20273  23.731  43.898   7.953
 6399POPC   C4A20274  23.731  43.865   7.653
 6399POPC   C1B20275  23.483  44.020   8.553
 6399POPC   C2B20276  23.483  44.031   8.253
 6399POPC   C3B20277  23.507  44.013   7.953
 6399POPC   C4B20278  23.503  44.019   7.653
 6400POPC   NC320279  29.884  27.545   9.453
 6400POPC   PO420280  29.929  27.607   9.153
 6400POPC   GL120281  29.909  27.575   8.853
 6400POPC   GL220282  29.958  27.506   8.853
 6400POPC   C1A20283  29.902  27.639   8.553
 6400POPC   D2A20284  29.968  27.578   8.253
 6400POPC   C3A20285  29.921  27.584   7.953
 6400POPC   C4A20286  29.956  27.584   7.653
 6400POPC   C1B20287  30.037  27.403   8.553
 6400POPC   C2B20288  30.081  27.404   8.253
 6400POPC   C3B20289  30.100  27.364   7.953
 6400POPC   C4B20290  30.101  27.340   7.653
 6401POPC   NC320291  30.733  32.230   9.453
 6401POPC   PO420292  30.657  32.211   9.153
 6401POPC   GL120293  30.735  32.244   8.853
 6401POPC   GL220294  30.798  32.190   8.853
 6401POPC   C1A20295  30.670  32.275   8.553
 6401POPC   D2A20296  30.716  32.296   8.253
 6401POPC   C3A20297  30.743  32.255   7.953
 6401POPC   C4A20298  30.721  32.205   7.653
 6401POPC   C1B20299  30.968  32.160   8.553
 6401POPC   C2B20300  30.932  32.176   8.253
 6401POPC   C3B20301  30.961  32.169   7.953
 6401POPC   C4B20302  30.913  32.137   7.653
 6402POPC   NC320303  13.666  17.462   9.453
 6402POPC   PO420304  13.587  17.508   9.153
 6402POPC   GL120305  13.588  17.491   8.853
 6402POPC   GL220306  13.673  17.659   8.853
 6402POPC   C1A20307  13.659  17.534   8.553
 6402POPC   D2A20308  13.623  17.503   8.253
 6402POPC   C3A20309  13.652  17.530   7.953
 6402POPC   C4A20310  13.581  17.554   7.653
 6402POPC   C1B20311  13.753  17.771   8.553
 6402POPC   C2B20312  13.725  17.779   8.253
 6402POPC   C3B20313  13.748  17.739   7.953
 6402POPC   C4B20314  13.749  17.752   7.653
 6403POPC   NC320315  33.017  38.458   9.453
 6403POPC   PO420316  33.071  38.505   9.153
 6403POPC   GL120317  32.994  38.480   8.853
 6403POPC   GL220318  33.071  38.564   8.853
 6403POPC   C1A20319  33.037  38.426   8.553
 6403POPC   D2A20320  33.025  38.479   8.253
 6403POPC   C3A20321  32.988  38.429   7.953
 6403POPC   C4A20322  33.061  38.489   7.653
 6403POPC   C1B20323  33.100  38.693   8.553
 6403POPC   C2B20324  33.112  38.745   8.253
 6403POPC   C3B20325  33.069  38.709   7.953
 6403POPC   C4B20326  33.097  38.682   7.653
 6404POPC   NC320327  36.951  30.648   9.453
 6404POPC   PO420328  36.879  30.659   9.153
 6404POPC   GL120329  36.942  30.655   8.853
 6404POPC   GL220330  36.874  30.523   8.853
 6404POPC   C1A20331  36.904  30.702   8.553
 6404POPC   D2A20332  36.865  30.689   8.253
 6404POPC   C3A20333  36.864  30.657   7.953
 6404POPC   C4A20334  36.948  30.699   7.653
 6404POPC   C1B20335  36.879  30.429   8.553
 6404POPC   C2B20336  36.904  30.397   8.253
 6404POPC   C3B20337  36.898  30.457   7.953
 6404POPC   C4B20338  36.864  30.419   7.653
 6405POPC   NC320339  43.079  26.088   9.453
 6405POPC   PO420340  43.069  26.006   9.153
 6405POPC   GL120341  43.076  26.084   8.853
 6405POPC   GL220342  43.175  26.132   8.853
 6405POPC   C1A20343  43.076  26.086   8.553
 6405POPC   D2A20344  43.099  26.044   8.253
 6405POPC   C3A20345  43.074  26.081   7.953
 6405POPC   C4A20346  43.068  26.019   7.653
 6405POPC   C1B20347  43.335  26.147   8.553
 6405POPC   C2B20348  43.336  26.148   8.253
 6405POPC   C3B20349  43.367  26.138   7.953
 6405POPC   C4B20350  43.300  26.158   7.653
 6406POPC   NC320351  32.209  42.329   9.453
 6406POPC   PO420352  32.297  42.299   9.153
 6406POPC   GL120353  32.206  42.354   8.853
 6406POPC   GL220354  32.348  42.437   8.853
 6406POPC   C1A20355  32.207  42.371   8.553
 6406POPC   D2A20356  32.223  42.308   8.253
 6406POPC   C3A20357  32.199  42.296   7.953
 6406POPC   C4A20358  32.246  42.302   7.653
 6406POPC   C1B20359  32.445  42.449   8.553
 6406POPC   C2B20360  32.459  42.486   8.253
 6406POPC   C3B20361  32.491  42.464   7.953
 6406POPC   C4B20362  32.445  42.451   7.653
 6407POPC   NC320363  40.055   7.432   9.453
 6407POPC   PO420364  39.993   7.396   9.153
 6407POPC   GL120365  40.018   7.392   8.853
 6407POPC   GL220366  40.079   7.477   8.853
 6407POPC   C1A20367  40.049   7.452   8.553
 6407POPC   D2A20368  39.998   7.438   8.253
 6407POPC   C3A20369  40.019   7.387   7.953
 6407POPC   C4A20370  40.011   7.411   7.653
 6407POPC   C1B20371  40.155   7.573   8.553
 6407POPC   C2B20372  40.138   7.612   8.253
 6407POPC   C3B20373  40.169   7.603   7.953
 6407POPC   C4B20374  40.132   7.660   7.653
 6408POPC   NC320375  42.335  14.424   9.453
 6408POPC   PO420376  42.356  14.386   9.153
 6408POPC   GL120377  42.335  14.417   8.853
 6408POPC   GL220378  42.320  14.235   8.853
 6408POPC   C1A20379  42.285  14.355   8.553
 6408POPC   D2A20380  42.285  14.421   8.253
 6408POPC   C3A20381  42.306  14.435   7.953
 6408POPC   C4A20382  42.305  14.354   7.653
 6408POPC   C1B20383  42.266  14.142   8.553
 6408POPC   C2B20384  42.262  14.136   8.253
 6408POPC   C3B20385  42.313  14.136   7.953
 6408POPC   C4B20386  42.334  14.142   7.653
 6409POPC   NC320387  30.741  19.027   9.453
 6409POPC   PO420388  30.729  19.023   9.153
 6409POPC   GL120389  30.701  19.109   8.853
 6409POPC   GL220390  30.602  19.071   8.853
 6409POPC   C1A20391  30.666  19.078   8.553
 6409POPC   D2A20392  30.672  19.051   8.253
 6409POPC   C3A20393  30.667  19.071   7.953
 6409POPC   C4A20394  30.740  19.106   7.653
 6409POPC   C1B20395  30.471  19.052   8.553
 6409POPC   C2B20396  30.473  19.082   8.253
 6409POPC   C3B20397  30.444  19.021   7.953
 6409POPC   C4B20398  30.423  19.056   7.653
 6410POPC   NC320399   7.417  38.424   9.453
 6410POPC   PO420400   7.423  38.431   9.153
 6410POPC   GL120401   7.371  38.444   8.853
 6410POPC   GL220402   7.363  38.350   8.853
 6410POPC   C1A20403   7.449  38.412   8.553
 6410POPC   D2A20404   7.418  38.424   8.253
 6410POPC   C3A20405   7.411  38.438   7.953
 6410POPC   C4A20406   7.442  38.428   7.653
 6410POPC   C1B20407   7.271  38.269   8.553
 6410POPC   C2B20408   7.305  38.245   8.253
 6410POPC   C3B20409   7.303  38.245   7.953
 6410POPC   C4B20410   7.336  38.228   7.653
 6411POPC   NC320411   5.870   6.604   9.453
 6411POPC   PO420412   5.831   6.658   9.153
 6411POPC   GL120413   5.898   6.687   8.853
 6411POPC   GL220414   5.807   6.743   8.853
 6411POPC   C1A20415   5.823   6.625   8.553
 6411POPC   D2A20416   5.856   6.617   8.253
 6411POPC   C3A20417   5.905   6.646   7.953
 6411POPC   C4A20418   5.911   6.597   7.653
 6411POPC   C1B20419   5.744   6.827   8.553
 6411POPC   C2B20420   5.766   6.869   8.253
 6411POPC   C3B20421   5.759   6.875   7.953
 6411POPC   C4B20422   5.733   6.873   7.653
 6412POPC   NC320423  36.875  41.519   9.453
 6412POPC   PO420424  36.868  41.558   9.153
 6412POPC   GL120425  36.869  41.526   8.853
 6412POPC   GL220426  36.778  41.568   8.853
 6412POPC   C1A20427  36.871  41.537   8.553
 6412POPC   D2A20428  36.889  41.553   8.253
 6412POPC   C3A20429  36.908  41.527   7.953
 6412POPC   C4A20430  36.924  41.559   7.653
 6412POPC   C1B20431  36.639  41.552   8.553
 6412POPC   C2B20432  36.628  41.555   8.253
 6412POPC   C3B20433  36.646  41.489   7.953
 6412POPC   C4B20434  36.690  41.515   7.653
 6413POPC   NC320435   6.643  22.930   9.453
 6413POPC   PO420436   6.623  22.958   9.153
 6413POPC   GL120437   6.655  22.966   8.853
 6413POPC   GL220438   6.731  22.842   8.853
 6413POPC   C1A20439   6.630  22.908   8.553
 6413POPC   D2A20440   6.644  22.948   8.253
 6413POPC   C3A20441   6.624  22.965   7.953
 6413POPC   C4A20442   6.646  22.907   7.653
 6413POPC   C1B20443   6.727  22.664   8.553
 6413POPC   C2B20444   6.708  22.728   8.253
 6413POPC   C3B20445   6.742  22.679   7.953
 6413POPC   C4B20446   6.760  22.681   7.653
 6414POPC   NC320447  10.507  17.486   9.453
 6414POPC   PO420448  10.545  17.493   9.153
 6414POPC   GL120449  10.528  17.464   8.853
 6414POPC   GL220450  10.358  17.553   8.853
 6414POPC   C1A20451  10.513  17.542   8.553
 6414POPC   D2A20452  10.525  17.510   8.253
 6414POPC   C3A20453  10.534  17.535   7.953
 6414POPC   C4A20454  10.571  17.489   7.653
 6414POPC   C1B20455  10.322  17.588   8.553
 6414POPC   C2B20456  10.279  17.552   8.253
 6414POPC   C3B20457  10.334  17.553   7.953
 6414POPC   C4B20458  10.329  17.609   7.653
 6415POPC   NC320459  26.001   1.187   9.453
 6415POPC   PO420460  26.078   1.225   9.153
 6415POPC   GL120461  26.009   1.247   8.853
 6415POPC   GL220462  25.954   1.188   8.853
 6415POPC   C1A20463  26.034   1.168   8.553
 6415POPC   D2A20464  26.012   1.202   8.253
 6415POPC   C3A20465  26.034   1.231   7.953
 6415POPC   C4A20466  26.004   1.230   7.653
 6415POPC   C1B20467  25.788   1.094   8.553
 6415POPC   C2B20468  25.867   1.133   8.253
 6415POPC   C3B20469  25.780   1.068   7.953
 6415POPC   C4B20470  25.813   1.044   7.653
 6416POPC   NC320471   9.007  20.596   9.453
 6416POPC   PO420472   8.951  20.648   9.153
 6416POPC   GL120473   8.959  20.597   8.853
 6416POPC   GL220474   8.877  20.633   8.853
 6416POPC   C1A20475   8.989  20.625   8.553
 6416POPC   D2A20476   8.964  20.593   8.253
 6416POPC   C3A20477   8.996  20.574   7.953
 6416POPC   C4A20478   8.923  20.646   7.653
 6416POPC   C1B20479   8.762  20.604   8.553
 6416POPC   C2B20480   8.716  20.640   8.253
 6416POPC   C3B20481   8.730  20.570   7.953
 6416POPC   C4B20482   8.675  20.603   7.653
 6417POPC   NC320483  29.132   2.762   9.453
 6417POPC   PO420484  29.099   2.758   9.153
 6417POPC   GL120485  29.112   2.733   8.853
 6417POPC   GL220486  29.027   2.775   8.853
 6417POPC   C1A20487  29.121   2.748   8.553
 6417POPC   D2A20488  29.159   2.768   8.253
 6417POPC   C3A20489  29.163   2.792   7.953
 6417POPC   C4A20490  29.107   2.716   7.653
 6417POPC   C1B20491  28.907   2.706   8.553
 6417POPC   C2B20492  28.923   2.777   8.253
 6417POPC   C3B20493  28.897   2.796   7.953
 6417POPC   C4B20494  28.943   2.786   7.653
 6418POPC   NC320495  35.351  31.478   9.453
 6418POPC   PO420496  35.317  31.497   9.153
 6418POPC   GL120497  35.348  31.430   8.853
 6418POPC   GL220498  35.207  31.362   8.853
 6418POPC   C1A20499  35.344  31.443   8.553
 6418POPC   D2A20500  35.383  31.500   8.253
 6418POPC   C3A20501  35.369  31.460   7.953
 6418POPC   C4A20502  35.336  31.470   7.653
 6418POPC   C1B20503  35.168  31.301   8.553
 6418POPC   C2B20504  35.155  31.302   8.253
 6418POPC   C3B20505  35.182  31.311   7.953
 6418POPC   C4B20506  35.113  31.376   7.653
 6419POPC   NC320507   7.469  23.676   9.453
 6419POPC   PO420508   7.373  23.675   9.153
 6419POPC   GL120509   7.454  23.742   8.853
 6419POPC   GL220510   7.569  23.676   8.853
 6419POPC   C1A20511   7.431  23.712   8.553
 6419POPC   D2A20512   7.455  23.678   8.253
 6419POPC   C3A20513   7.393  23.677   7.953
 6419POPC   C4A20514   7.374  23.669   7.653
 6419POPC   C1B20515   7.638  23.744   8.553
 6419POPC   C2B20516   7.696  23.738   8.253
 6419POPC   C3B20517   7.655  23.759   7.953
 6419POPC   C4B20518   7.640  23.715   7.653
 6420POPC   NC320519  14.396  13.595   9.453
 6420POPC   PO420520  14.394  13.607   9.153
 6420POPC   GL120521  14.406  13.671   8.853
 6420POPC   GL220522  14.359  13.567   8.853
 6420POPC   C1A20523  14.423  13.604   8.553
 6420POPC   D2A20524  14.382  13.651   8.253
 6420POPC   C3A20525  14.448  13.636   7.953
 6420POPC   C4A20526  14.397  13.614   7.653
 6420POPC   C1B20527  14.259  13.392   8.553
 6420POPC   C2B20528  14.270  13.453   8.253
 6420POPC   C3B20529  14.211  13.405   7.953
 6420POPC   C4B20530  14.275  13.395   7.653
 6421POPC   NC320531  38.464  23.697   9.453
 6421POPC   PO420532  38.492  23.686   9.153
 6421POPC   GL120533  38.490  23.745   8.853
 6421POPC   GL220534  38.389  23.815   8.853
 6421POPC   C1A20535  38.482  23.707   8.553
 6421POPC   D2A20536  38.466  23.707   8.253
 6421POPC   C3A20537  38.444  23.679   7.953
 6421POPC   C4A20538  38.496  23.747   7.653
 6421POPC   C1B20539  38.261  23.926   8.553
 6421POPC   C2B20540  38.267  23.887   8.253
 6421POPC   C3B20541  38.236  23.859   7.953
 6421POPC   C4B20542  38.296  23.893   7.653
 6422POPC   NC320543   7.439  40.040   9.453
 6422POPC   PO420544   7.467  39.962   9.153
 6422POPC   GL120545   7.445  39.965   8.853
 6422POPC   GL220546   7.490  40.117   8.853
 6422POPC   C1A20547   7.406  40.032   8.553
 6422POPC   D2A20548   7.376  40.045   8.253
 6422POPC   C3A20549   7.383  39.984   7.953
 6422POPC   C4A20550   7.467  40.006   7.653
 6422POPC   C1B20551   7.579  40.156   8.553
 6422POPC   C2B20552   7.619  40.171   8.253
 6422POPC   C3B20553   7.650  40.145   7.953
 6422POPC   C4B20554   7.592  40.124   7.653
 6423POPC   NC320555   6.666  18.313   9.453
 6423POPC   PO420556   6.687  18.302   9.153
 6423POPC   GL120557   6.628  18.253   8.853
 6423POPC   GL220558   6.768  18.269   8.853
 6423POPC   C1A20559   6.660  18.264   8.553
 6423POPC   D2A20560   6.681  18.243   8.253
 6423POPC   C3A20561   6.686  18.311   7.953
 6423POPC   C4A20562   6.643  18.276   7.653
 6423POPC   C1B20563   6.839  18.229   8.553
 6423POPC   C2B20564   6.931  18.193   8.253
 6423POPC   C3B20565   6.919  18.216   7.953
 6423POPC   C4B20566   6.875  18.205   7.653
 6424POPC   NC320567  39.214   1.173   9.453
 6424POPC   PO420568  39.250   1.216   9.153
 6424POPC   GL120569  39.274   1.192   8.853
 6424POPC   GL220570  39.159   1.081   8.853
 6424POPC   C1A20571  39.236   1.191   8.553
 6424POPC   D2A20572  39.242   1.230   8.253
 6424POPC   C3A20573  39.261   1.170   7.953
 6424POPC   C4A20574  39.240   1.200   7.653
 6424POPC   C1B20575  39.128   1.042   8.553
 6424POPC   C2B20576  39.096   0.974   8.253
 6424POPC   C3B20577  39.050   1.041   7.953
 6424POPC   C4B20578  39.088   1.039   7.653
 6425POPC   NC320579  36.889  26.034   9.453
 6425POPC   PO420580  36.878  26.025   9.153
 6425POPC   GL120581  36.934  26.044   8.853
 6425POPC   GL220582  37.001  26.101   8.853
 6425POPC   C1A20583  36.930  26.071   8.553
 6425POPC   D2A20584  36.938  26.056   8.253
 6425POPC   C3A20585  36.927  26.040   7.953
 6425POPC   C4A20586  36.901  26.083   7.653
 6425POPC   C1B20587  37.063  26.232   8.553
 6425POPC   C2B20588  37.009  26.198   8.253
 6425POPC   C3B20589  37.077  26.240   7.953
 6425POPC   C4B20590  37.065  26.199   7.653
 6426POPC   NC320591  23.730   9.712   9.453
 6426POPC   PO420592  23.705   9.782   9.153
 6426POPC   GL120593  23.677   9.792   8.853
 6426POPC   GL220594  23.679   9.599   8.853
 6426POPC   C1A20595  23.763   9.745   8.553
 6426POPC   D2A20596  23.673   9.702   8.253
 6426POPC   C3A20597  23.687   9.754   7.953
 6426POPC   C4A20598  23.686   9.732   7.653
 6426POPC   C1B20599  23.547   9.524   8.553
 6426POPC   C2B20600  23.546   9.525   8.253
 6426POPC   C3B20601  23.567   9.579   7.953
 6426POPC   C4B20602  23.557   9.545   7.653
 6427POPC   NC320603  36.939  34.602   9.453
 6427POPC   PO420604  36.940  34.621   9.153
 6427POPC   GL120605  36.860  34.591   8.853
 6427POPC   GL220606  36.835  34.703   8.853
 6427POPC   C1A20607  36.875  34.619   8.553
 6427POPC   D2A20608  36.932  34.574   8.253
 6427POPC   C3A20609  36.869  34.535   7.953
 6427POPC   C4A20610  36.870  34.554   7.653
 6427POPC   C1B20611  36.699  34.811   8.553
 6427POPC   C2B20612  36.716  34.722   8.253
 6427POPC   C3B20613  36.713  34.719   7.953
 6427POPC   C4B20614  36.771  34.750   7.653
 6428POPC   NC320615   2.809  29.889   9.453
 6428POPC   PO420616   2.760  29.954   9.153
 6428POPC   GL120617   2.756  29.928   8.853
 6428POPC   GL220618   2.693  29.986   8.853
 6428POPC   C1A20619   2.773  29.896   8.553
 6428POPC   D2A20620   2.797  29.947   8.253
 6428POPC   C3A20621   2.801  29.950   7.953
 6428POPC   C4A20622   2.724  29.928   7.653
 6428POPC   C1B20623   2.566  30.101   8.553
 6428POPC   C2B20624   2.580  30.111   8.253
 6428POPC   C3B20625   2.598  30.126   7.953
 6428POPC   C4B20626   2.623  30.116   7.653
 6429POPC   NC320627  23.677  33.754   9.453
 6429POPC   PO420628  23.670  33.751   9.153
 6429POPC   GL120629  23.760  33.832   8.853
 6429POPC   GL220630  23.613  33.813   8.853
 6429POPC   C1A20631  23.694  33.835   8.553
 6429POPC   D2A20632  23.724  33.836   8.253
 6429POPC   C3A20633  23.668  33.784   7.953
 6429POPC   C4A20634  23.719  33.839   7.653
 6429POPC   C1B20635  23.489  33.864   8.553
 6429POPC   C2B20636  23.501  33.921   8.253
 6429POPC   C3B20637  23.451  33.948   7.953
 6429POPC   C4B20638  23.455  33.918   7.653
 6430POPC   NC320639   8.959  33.798   9.453
 6430POPC   PO420640   8.958  33.847   9.153
 6430POPC   GL120641   8.988  33.782   8.853
 6430POPC   GL220642   8.907  33.961   8.853
 6430POPC   C1A20643   8.966  33.797   8.553
 6430POPC   D2A20644   8.960  33.838   8.253
 6430POPC   C3A20645   8.956  33.761   7.953
 6430POPC   C4A20646   8.987  33.784   7.653
 6430POPC   C1B20647   8.938  34.074   8.553
 6430POPC   C2B20648   8.888  34.004   8.253
 6430POPC   C3B20649   8.894  34.023   7.953
 6430POPC   C4B20650   8.929  34.034   7.653
 6431POPC   NC320651  36.120  23.761   9.453
 6431POPC   PO420652  36.100  23.761   9.153
 6431POPC   GL120653  36.115  23.749   8.853
 6431POPC   GL220654  35.967  23.712   8.853
 6431POPC   C1A20655  36.135  23.756   8.553
 6431POPC   D2A20656  36.115  23.762   8.253
 6431POPC   C3A20657  36.161  23.716   7.953
 6431POPC   C4A20658  36.081  23.735   7.653
 6431POPC   C1B20659  35.906  23.732   8.553
 6431POPC   C2B20660  35.891  23.689   8.253
 6431POPC   C3B20661  35.858  23.648   7.953
 6431POPC   C4B20662  35.901  23.695   7.653
 6432POPC   NC320663  37.655  33.818   9.453
 6432POPC   PO420664  37.660  33.839   9.153
 6432POPC   GL120665  37.652  33.771   8.853
 6432POPC   GL220666  37.699  33.879   8.853
 6432POPC   C1A20667  37.728  33.824   8.553
 6432POPC   D2A20668  37.727  33.761   8.253
 6432POPC   C3A20669  37.705  33.836   7.953
 6432POPC   C4A20670  37.630  33.843   7.653
 6432POPC   C1B20671  37.662  34.021   8.553
 6432POPC   C2B20672  37.621  34.076   8.253
 6432POPC   C3B20673  37.610  34.027   7.953
 6432POPC   C4B20674  37.642  34.078   7.653
 6433POPC   NC320675  22.169  33.016   9.453
 6433POPC   PO420676  22.168  33.003   9.153
 6433POPC   GL120677  22.204  33.073   8.853
 6433POPC   GL220678  22.329  33.009   8.853
 6433POPC   C1A20679  22.209  33.026   8.553
 6433POPC   D2A20680  22.159  32.993   8.253
 6433POPC   C3A20681  22.128  33.013   7.953
 6433POPC   C4A20682  22.133  33.059   7.653
 6433POPC   C1B20683  22.423  32.907   8.553
 6433POPC   C2B20684  22.433  32.963   8.253
 6433POPC   C3B20685  22.380  32.966   7.953
 6433POPC   C4B20686  22.358  32.910   7.653
 6434POPC   NC320687   8.970  14.379   9.453
 6434POPC   PO420688   8.999  14.402   9.153
 6434POPC   GL120689   8.984  14.453   8.853
 6434POPC   GL220690   8.866  14.404   8.853
 6434POPC   C1A20691   9.014  14.452   8.553
 6434POPC   D2A20692   8.926  14.365   8.253
 6434POPC   C3A20693   8.970  14.427   7.953
 6434POPC   C4A20694   8.971  14.433   7.653
 6434POPC   C1B20695   8.769  14.446   8.553
 6434POPC   C2B20696   8.757  14.427   8.253
 6434POPC   C3B20697   8.763  14.451   7.953
 6434POPC   C4B20698   8.730  14.457   7.653
 6435POPC   NC320699  26.793  19.072   9.453
 6435POPC   PO420700  26.853  19.102   9.153
 6435POPC   GL120701  26.812  19.052   8.853
 6435POPC   GL220702  26.728  18.908   8.853
 6435POPC   C1A20703  26.854  19.024   8.553
 6435POPC   D2A20704  26.862  19.012   8.253
 6435POPC   C3A20705  26.832  19.092   7.953
 6435POPC   C4A20706  26.788  19.065   7.653
 6435POPC   C1B20707  26.680  18.835   8.553
 6435POPC   C2B20708  26.708  18.852   8.253
 6435POPC   C3B20709  26.673  18.897   7.953
 6435POPC   C4B20710  26.702  18.889   7.653
 6436POPC   NC320711  33.832  30.720   9.453
 6436POPC   PO420712  33.793  30.681   9.153
 6436POPC   GL120713  33.786  30.665   8.853
 6436POPC   GL220714  33.689  30.590   8.853
 6436POPC   C1A20715  33.796  30.684   8.553
 6436POPC   D2A20716  33.839  30.692   8.253
 6436POPC   C3A20717  33.843  30.734   7.953
 6436POPC   C4A20718  33.809  30.712   7.653
 6436POPC   C1B20719  33.613  30.532   8.553
 6436POPC   C2B20720  33.624  30.502   8.253
 6436POPC   C3B20721  33.701  30.510   7.953
 6436POPC   C4B20722  33.664  30.474   7.653
 6437POPC   NC320723  36.137  22.182   9.453
 6437POPC   PO420724  36.150  22.119   9.153
 6437POPC   GL120725  36.141  22.134   8.853
 6437POPC   GL220726  36.062  22.090   8.853
 6437POPC   C1A20727  36.090  22.150   8.553
 6437POPC   D2A20728  36.112  22.191   8.253
 6437POPC   C3A20729  36.130  22.148   7.953
 6437POPC   C4A20730  36.108  22.144   7.653
 6437POPC   C1B20731  35.935  21.964   8.553
 6437POPC   C2B20732  35.980  21.992   8.253
 6437POPC   C3B20733  35.939  22.024   7.953
 6437POPC   C4B20734  35.921  21.933   7.653
 6438POPC   NC320735   3.537  37.694   9.453
 6438POPC   PO420736   3.582  37.639   9.153
 6438POPC   GL120737   3.569  37.724   8.853
 6438POPC   GL220738   3.656  37.688   8.853
 6438POPC   C1A20739   3.586  37.690   8.553
 6438POPC   D2A20740   3.498  37.673   8.253
 6438POPC   C3A20741   3.523  37.672   7.953
 6438POPC   C4A20742   3.564  37.649   7.653
 6438POPC   C1B20743   3.823  37.610   8.553
 6438POPC   C2B20744   3.752  37.587   8.253
 6438POPC   C3B20745   3.747  37.657   7.953
 6438POPC   C4B20746   3.821  37.650   7.653
 6439POPC   NC320747  23.751  12.100   9.453
 6439POPC   PO420748  23.758  12.073   9.153
 6439POPC   GL120749  23.689  12.049   8.853
 6439POPC   GL220750  23.631  12.187   8.853
 6439POPC   C1A20751  23.755  12.085   8.553
 6439POPC   D2A20752  23.753  12.125   8.253
 6439POPC   C3A20753  23.725  12.121   7.953
 6439POPC   C4A20754  23.696  12.123   7.653
 6439POPC   C1B20755  23.573  12.288   8.553
 6439POPC   C2B20756  23.573  12.264   8.253
 6439POPC   C3B20757  23.620  12.330   7.953
 6439POPC   C4B20758  23.623  12.280   7.653
 6440POPC   NC320759  42.357   0.441   9.453
 6440POPC   PO420760  42.360   0.388   9.153
 6440POPC   GL120761  42.342   0.469   8.853
 6440POPC   GL220762  42.266   0.296   8.853
 6440POPC   C1A20763  42.342   0.414   8.553
 6440POPC   D2A20764  42.300   0.481   8.253
 6440POPC   C3A20765  42.346   0.451   7.953
 6440POPC   C4A20766  42.300   0.442   7.653
 6440POPC   C1B20767  42.229   0.192   8.553
 6440POPC   C2B20768  42.221   0.229   8.253
 6440POPC   C3B20769  42.301   0.218   7.953
 6440POPC   C4B20770  42.277   0.231   7.653
 6441POPC   NC320771  22.163  33.832   9.453
 6441POPC   PO420772  22.152  33.795   9.153
 6441POPC   GL120773  22.208  33.797   8.853
 6441POPC   GL220774  22.100  33.725   8.853
 6441POPC   C1A20775  22.208  33.835   8.553
 6441POPC   D2A20776  22.112  33.782   8.253
 6441POPC   C3A20777  22.146  33.837   7.953
 6441POPC   C4A20778  22.160  33.772   7.653
 6441POPC   C1B20779  21.995  33.651   8.553
 6441POPC   C2B20780  21.943  33.663   8.253
 6441POPC   C3B20781  21.974  33.656   7.953
 6441POPC   C4B20782  21.897  33.684   7.653
 6442POPC   NC320783  18.248  33.054   9.453
 6442POPC   PO420784  18.299  33.068   9.153
 6442POPC   GL120785  18.234  33.033   8.853
 6442POPC   GL220786  18.365  33.145   8.853
 6442POPC   C1A20787  18.239  33.022   8.553
 6442POPC   D2A20788  18.274  33.059   8.253
 6442POPC   C3A20789  18.279  32.977   7.953
 6442POPC   C4A20790  18.279  33.041   7.653
 6442POPC   C1B20791  18.376  33.213   8.553
 6442POPC   C2B20792  18.369  33.280   8.253
 6442POPC   C3B20793  18.387  33.272   7.953
 6442POPC   C4B20794  18.461  33.198   7.653
 6443POPC   NC320795  33.785  34.580   9.453
 6443POPC   PO420796  33.842  34.558   9.153
 6443POPC   GL120797  33.823  34.602   8.853
 6443POPC   GL220798  33.886  34.508   8.853
 6443POPC   C1A20799  33.797  34.621   8.553
 6443POPC   D2A20800  33.770  34.533   8.253
 6443POPC   C3A20801  33.778  34.556   7.953
 6443POPC   C4A20802  33.807  34.597   7.653
 6443POPC   C1B20803  34.042  34.570   8.553
 6443POPC   C2B20804  34.002  34.584   8.253
 6443POPC   C3B20805  34.086  34.578   7.953
 6443POPC   C4B20806  34.031  34.569   7.653
 6444POPC   NC320807  17.541  15.983   9.453
 6444POPC   PO420808  17.461  15.983   9.153
 6444POPC   GL120809  17.501  15.992   8.853
 6444POPC   GL220810  17.544  15.870   8.853
 6444POPC   C1A20811  17.537  15.916   8.553
 6444POPC   D2A20812  17.488  15.991   8.253
 6444POPC   C3A20813  17.459  15.977   7.953
 6444POPC   C4A20814  17.500  15.996   7.653
 6444POPC   C1B20815  17.625  15.816   8.553
 6444POPC   C2B20816  17.681  15.810   8.253
 6444POPC   C3B20817  17.673  15.745   7.953
 6444POPC   C4B20818  17.715  15.759   7.653
 6445POPC   NC320819   1.199  28.352   9.453
 6445POPC   PO420820   1.170  28.353   9.153
 6445POPC   GL120821   1.205  28.379   8.853
 6445POPC   GL220822   1.150  28.297   8.853
 6445POPC   C1A20823   1.195  28.365   8.553
 6445POPC   D2A20824   1.250  28.339   8.253
 6445POPC   C3A20825   1.242  28.388   7.953
 6445POPC   C4A20826   1.253  28.376   7.653
 6445POPC   C1B20827   0.960  28.265   8.553
 6445POPC   C2B20828   0.963  28.247   8.253
 6445POPC   C3B20829   1.005  28.275   7.953
 6445POPC   C4B20830   1.002  28.213   7.653
 6446POPC   NC320831  32.993   8.233   9.453
 6446POPC   PO420832  33.062   8.149   9.153
 6446POPC   GL120833  32.986   8.203   8.853
 6446POPC   GL220834  33.055   8.319   8.853
 6446POPC   C1A20835  33.033   8.205   8.553
 6446POPC   D2A20836  33.037   8.168   8.253
 6446POPC   C3A20837  33.065   8.183   7.953
 6446POPC   C4A20838  33.071   8.175   7.653
 6446POPC   C1B20839  33.190   8.393   8.553
 6446POPC   C2B20840  33.152   8.440   8.253
 6446POPC   C3B20841  33.145   8.448   7.953
 6446POPC   C4B20842  33.207   8.397   7.653
 6447POPC   NC320843  36.884   5.058   9.453
 6447POPC   PO420844  36.935   5.052   9.153
 6447POPC   GL120845  36.884   5.118   8.853
 6447POPC   GL220846  36.946   4.942   8.853
 6447POPC   C1A20847  36.888   5.091   8.553
 6447POPC   D2A20848  36.885   5.109   8.253
 6447POPC   C3A20849  36.921   5.134   7.953
 6447POPC   C4A20850  36.896   5.114   7.653
 6447POPC   C1B20851  37.037   4.891   8.553
 6447POPC   C2B20852  37.048   4.894   8.253
 6447POPC   C3B20853  36.989   4.841   7.953
 6447POPC   C4B20854  37.014   4.832   7.653
 6448POPC   NC320855  33.023  34.537   9.453
 6448POPC   PO420856  33.039  34.578   9.153
 6448POPC   GL120857  33.055  34.572   8.853
 6448POPC   GL220858  32.953  34.672   8.853
 6448POPC   C1A20859  33.070  34.609   8.553
 6448POPC   D2A20860  33.055  34.580   8.253
 6448POPC   C3A20861  33.014  34.573   7.953
 6448POPC   C4A20862  33.055  34.550   7.653
 6448POPC   C1B20863  32.778  34.731   8.553
 6448POPC   C2B20864  32.768  34.654   8.253
 6448POPC   C3B20865  32.828  34.714   7.953
 6448POPC   C4B20866  32.764  34.743   7.653
 6449POPC   NC320867  30.669   5.051   9.453
 6449POPC   PO420868  30.732   5.135   9.153
 6449POPC   GL120869  30.662   5.113   8.853
 6449POPC   GL220870  30.740   4.988   8.853
 6449POPC   C1A20871  30.701   5.104   8.553
 6449POPC   D2A20872  30.732   5.045   8.253
 6449POPC   C3A20873  30.682   5.131   7.953
 6449POPC   C4A20874  30.651   5.106   7.653
 6449POPC   C1B20875  30.693   4.893   8.553
 6449POPC   C2B20876  30.718   4.840   8.253
 6449POPC   C3B20877  30.725   4.801   7.953
 6449POPC   C4B20878  30.752   4.834   7.653
 6450POPC   NC320879  34.609  23.668   9.453
 6450POPC   PO420880  34.546  23.739   9.153
 6450POPC   GL120881  34.576  23.733   8.853
 6450POPC   GL220882  34.709  23.669   8.853
 6450POPC   C1A20883  34.606  23.669   8.553
 6450POPC   D2A20884  34.562  23.708   8.253
 6450POPC   C3A20885  34.566  23.667   7.953
 6450POPC   C4A20886  34.597  23.716   7.653
 6450POPC   C1B20887  34.784  23.629   8.553
 6450POPC   C2B20888  34.847  23.607   8.253
 6450POPC   C3B20889  34.765  23.624   7.953
 6450POPC   C4B20890  34.828  23.616   7.653
 6451POPC   NC320891  32.235   7.434   9.453
 6451POPC   PO420892  32.249   7.405   9.153
 6451POPC   GL120893  32.207   7.455   8.853
 6451POPC   GL220894  32.328   7.572   8.853
 6451POPC   C1A20895  32.279   7.426   8.553
 6451POPC   D2A20896  32.203   7.375   8.253
 6451POPC   C3A20897  32.295   7.470   7.953
 6451POPC   C4A20898  32.223   7.409   7.653
 6451POPC   C1B20899  32.401   7.673   8.553
 6451POPC   C2B20900  32.381   7.692   8.253
 6451POPC   C3B20901  32.398   7.655   7.953
 6451POPC   C4B20902  32.324   7.631   7.653
 6452POPC   NC320903  23.733  34.542   9.453
 6452POPC   PO420904  23.687  34.617   9.153
 6452POPC   GL120905  23.706  34.557   8.853
 6452POPC   GL220906  23.844  34.516   8.853
 6452POPC   C1A20907  23.747  34.626   8.553
 6452POPC   D2A20908  23.729  34.530   8.253
 6452POPC   C3A20909  23.679  34.534   7.953
 6452POPC   C4A20910  23.709  34.616   7.653
 6452POPC   C1B20911  23.890  34.386   8.553
 6452POPC   C2B20912  23.871  34.384   8.253
 6452POPC   C3B20913  23.900  34.394   7.953
 6452POPC   C4B20914  23.866  34.466   7.653
 6453POPC   NC320915  19.874  32.292   9.453
 6453POPC   PO420916  19.815  32.226   9.153
 6453POPC   GL120917  19.810  32.277   8.853
 6453POPC   GL220918  19.762  32.361   8.853
 6453POPC   C1A20919  19.785  32.284   8.553
 6453POPC   D2A20920  19.882  32.207   8.253
 6453POPC   C3A20921  19.785  32.248   7.953
 6453POPC   C4A20922  19.797  32.219   7.653
 6453POPC   C1B20923  19.690  32.442   8.553
 6453POPC   C2B20924  19.684  32.440   8.253
 6453POPC   C3B20925  19.703  32.388   7.953
 6453POPC   C4B20926  19.619  32.422   7.653
 6454POPC   NC320927  38.428   1.200   9.453
 6454POPC   PO420928  38.474   1.177   9.153
 6454POPC   GL120929  38.424   1.198   8.853
 6454POPC   GL220930  38.355   1.141   8.853
 6454POPC   C1A20931  38.481   1.223   8.553
 6454POPC   D2A20932  38.486   1.226   8.253
 6454POPC   C3A20933  38.477   1.217   7.953
 6454POPC   C4A20934  38.422   1.208   7.653
 6454POPC   C1B20935  38.221   1.151   8.553
 6454POPC   C2B20936  38.272   1.080   8.253
 6454POPC   C3B20937  38.187   1.134   7.953
 6454POPC   C4B20938  38.196   1.163   7.653
 6455POPC   NC320939   1.949  19.066   9.453
 6455POPC   PO420940   2.019  19.087   9.153
 6455POPC   GL120941   1.959  19.020   8.853
 6455POPC   GL220942   1.898  19.098   8.853
 6455POPC   C1A20943   2.032  19.032   8.553
 6455POPC   D2A20944   1.967  19.033   8.253
 6455POPC   C3A20945   1.970  19.038   7.953
 6455POPC   C4A20946   1.940  19.011   7.653
 6455POPC   C1B20947   1.760  19.241   8.553
 6455POPC   C2B20948   1.740  19.149   8.253
 6455POPC   C3B20949   1.813  19.174   7.953
 6455POPC   C4B20950   1.766  19.238   7.653
 6456POPC   NC320951  29.955  24.492   9.453
 6456POPC   PO420952  29.969  24.464   9.153
 6456POPC   GL120953  29.920  24.508   8.853
 6456POPC   GL220954  30.004  24.462   8.853
 6456POPC   C1A20955  29.906  24.448   8.553
 6456POPC   D2A20956  29.938  24.444   8.253
 6456POPC   C3A20957  29.887  24.471   7.953
 6456POPC   C4A20958  29.959  24.481   7.653
 6456POPC   C1B20959  30.180  24.527   8.553
 6456POPC   C2B20960  30.171  24.540   8.253
 6456POPC   C3B20961  30.168  24.488   7.953
 6456POPC   C4B20962  30.172  24.521   7.653
 6457POPC   NC320963  44.651  12.067   9.453
 6457POPC   PO420964  44.693  12.112   9.153
 6457POPC   GL120965  44.657  12.047   8.853
 6457POPC   GL220966  44.712  12.131   8.853
 6457POPC   C1A20967  44.687  12.057   8.553
 6457POPC   D2A20968  44.695  12.085   8.253
 6457POPC   C3A20969  44.650  12.095   7.953
 6457POPC   C4A20970  44.627  12.072   7.653
 6457POPC   C1B20971  44.861  12.246   8.553
 6457POPC   C2B20972  44.795  12.307   8.253
 6457POPC   C3B20973  44.822  12.287   7.953
 6457POPC   C4B20974  44.792  12.237   7.653
 6458POPC   NC320975  40.028  43.113   9.453
 6458POPC   PO420976  40.018  43.147   9.153
 6458POPC   GL120977  40.043  43.124   8.853
 6458POPC   GL220978  40.041  43.190   8.853
 6458POPC   C1A20979  40.012  43.066   8.553
 6458POPC   D2A20980  40.025  43.110   8.253
 6458POPC   C3A20981  40.047  43.158   7.953
 6458POPC   C4A20982  39.988  43.071   7.653
 6458POPC   C1B20983  40.016  43.325   8.553
 6458POPC   C2B20984  40.028  43.346   8.253
 6458POPC   C3B20985  40.027  43.344   7.953
 6458POPC   C4B20986  40.050  43.346   7.653
 6459POPC   NC320987   9.016  21.371   9.453
 6459POPC   PO420988   9.010  21.360   9.153
 6459POPC   GL120989   9.009  21.409   8.853
 6459POPC   GL220990   9.128  21.414   8.853
 6459POPC   C1A20991   8.998  21.399   8.553
 6459POPC   D2A20992   8.949  21.344   8.253
 6459POPC   C3A20993   8.944  21.365   7.953
 6459POPC   C4A20994   9.011  21.339   7.653
 6459POPC   C1B20995   9.206  21.442   8.553
 6459POPC   C2B20996   9.232  21.431   8.253
 6459POPC   C3B20997   9.244  21.452   7.953
 6459POPC   C4B20998   9.198  21.424   7.653
 6460POPC   NC320999  16.764   8.192   9.453
 6460POPC   PO421000  16.692   8.160   9.153
 6460POPC   GL121001  16.703   8.239   8.853
 6460POPC   GL221002  16.793   8.317   8.853
 6460POPC   C1A21003  16.711   8.171   8.553
 6460POPC   D2A21004  16.776   8.225   8.253
 6460POPC   C3A21005  16.716   8.236   7.953
 6460POPC   C4A21006  16.739   8.246   7.653
 6460POPC   C1B21007  16.845   8.443   8.553
 6460POPC   C2B21008  16.839   8.393   8.253
 6460POPC   C3B21009  16.819   8.418   7.953
 6460POPC   C4B21010  16.763   8.465   7.653
 6461POPC   NC321011   8.999  42.368   9.453
 6461POPC   PO421012   8.965  42.359   9.153
 6461POPC   GL121013   8.942  42.366   8.853
 6461POPC   GL221014   8.997  42.241   8.853
 6461POPC   C1A21015   8.937  42.309   8.553
 6461POPC   D2A21016   8.962  42.379   8.253
 6461POPC   C3A21017   9.008  42.354   7.953
 6461POPC   C4A21018   9.009  42.300   7.653
 6461POPC   C1B21019   8.916  42.067   8.553
 6461POPC   C2B21020   8.947  42.056   8.253
 6461POPC   C3B21021   8.888  42.119   7.953
 6461POPC   C4B21022   8.907  42.053   7.653
 6462POPC   NC321023  35.315  19.042   9.453
 6462POPC   PO421024  35.367  19.070   9.153
 6462POPC   GL121025  35.397  19.029   8.853
 6462POPC   GL221026  35.456  19.047   8.853
 6462POPC   C1A21027  35.303  19.070   8.553
 6462POPC   D2A21028  35.368  19.018   8.253
 6462POPC   C3A21029  35.352  19.064   7.953
 6462POPC   C4A21030  35.303  19.032   7.653
 6462POPC   C1B21031  35.565  19.129   8.553
 6462POPC   C2B21032  35.628  19.109   8.253
 6462POPC   C3B21033  35.616  19.089   7.953
 6462POPC   C4B21034  35.581  19.151   7.653
 6463POPC   NC321035   3.522  19.056   9.453
 6463POPC   PO421036   3.576  19.052   9.153
 6463POPC   GL121037   3.578  19.062   8.853
 6463POPC   GL221038   3.669  19.020   8.853
 6463POPC   C1A21039   3.541  19.081   8.553
 6463POPC   D2A21040   3.557  19.015   8.253
 6463POPC   C3A21041   3.572  19.012   7.953
 6463POPC   C4A21042   3.536  19.075   7.653
 6463POPC   C1B21043   3.782  19.028   8.553
 6463POPC   C2B21044   3.805  19.029   8.253
 6463POPC   C3B21045   3.805  19.056   7.953
 6463POPC   C4B21046   3.793  18.977   7.653
 6464POPC   NC321047  42.365  34.610   9.453
 6464POPC   PO421048  42.363  34.592   9.153
 6464POPC   GL121049  42.318  34.600   8.853
 6464POPC   GL221050  42.465  34.593   8.853
 6464POPC   C1A21051  42.355  34.551   8.553
 6464POPC   D2A21052  42.294  34.546   8.253
 6464POPC   C3A21053  42.375  34.564   7.953
 6464POPC   C4A21054  42.303  34.619   7.653
 6464POPC   C1B21055  42.601  34.523   8.553
 6464POPC   C2B21056  42.568  34.486   8.253
 6464POPC   C3B21057  42.591  34.564   7.953
 6464POPC   C4B21058  42.550  34.478   7.653
 6465POPC   NC321059  23.752  43.079   9.453
 6465POPC   PO421060  23.678  43.070   9.153
 6465POPC   GL121061  23.735  43.126   8.853
 6465POPC   GL221062  23.859  43.099   8.853
 6465POPC   C1A21063  23.667  43.102   8.553
 6465POPC   D2A21064  23.665  43.063   8.253
 6465POPC   C3A21065  23.677  43.069   7.953
 6465POPC   C4A21066  23.664  43.136   7.653
 6465POPC   C1B21067  23.957  43.051   8.553
 6465POPC   C2B21068  23.981  43.027   8.253
 6465POPC   C3B21069  23.950  43.067   7.953
 6465POPC   C4B21070  23.952  43.038   7.653
 6466POPC   NC321071  34.567   4.331   9.453
 6466POPC   PO421072  34.605   4.349   9.153
 6466POPC   GL121073  34.601   4.339   8.853
 6466POPC   GL221074  34.524   4.478   8.853
 6466POPC   C1A21075  34.593   4.274   8.553
 6466POPC   D2A21076  34.563   4.276   8.253
 6466POPC   C3A21077  34.548   4.275   7.953
 6466POPC   C4A21078  34.539   4.365   7.653
 6466POPC   C1B21079  34.422   4.551   8.553
 6466POPC   C2B21080  34.472   4.539   8.253
 6466POPC   C3B21081  34.416   4.512   7.953
 6466POPC   C4B21082  34.482   4.573   7.653
 6467POPC   NC321083  20.630   1.260   9.453
 6467POPC   PO421084  20.593   1.195   9.153
 6467POPC   GL121085  20.612   1.220   8.853
 6467POPC   GL221086  20.605   1.116   8.853
 6467POPC   C1A21087  20.565   1.222   8.553
 6467POPC   D2A21088  20.567   1.177   8.253
 6467POPC   C3A21089  20.647   1.183   7.953
 6467POPC   C4A21090  20.571   1.247   7.653
 6467POPC   C1B21091  20.506   0.947   8.553
 6467POPC   C2B21092  20.549   0.929   8.253
 6467POPC   C3B21093  20.574   0.945   7.953
 6467POPC   C4B21094  20.506   0.994   7.653
 6468POPC   NC321095  29.923  26.079   9.453
 6468POPC   PO421096  29.962  26.067   9.153
 6468POPC   GL121097  29.920  26.053   8.853
 6468POPC   GL221098  30.021  25.936   8.853
 6468POPC   C1A21099  29.918  26.012   8.553
 6468POPC   D2A21100  29.916  26.072   8.253
 6468POPC   C3A21101  29.911  25.993   7.953
 6468POPC   C4A21102  29.944  25.993   7.653
 6468POPC   C1B21103  30.118  25.868   8.553
 6468POPC   C2B21104  30.046  25.863   8.253
 6468POPC   C3B21105  30.126  25.862   7.953
 6468POPC   C4B21106  30.133  25.905   7.653
 6469POPC   NC321107  42.365  12.033   9.453
 6469POPC   PO421108  42.366  12.086   9.153
 6469POPC   GL121109  42.338  12.029   8.853
 6469POPC   GL221110  42.253  12.185   8.853
 6469POPC   C1A21111  42.315  12.031   8.553
 6469POPC   D2A21112  42.327  12.096   8.253
 6469POPC   C3A21113  42.303  12.073   7.953
 6469POPC   C4A21114  42.291  12.044   7.653
 6469POPC   C1B21115  42.163  12.183   8.553
 6469POPC   C2B21116  42.140  12.170   8.253
 6469POPC   C3B21117  42.088  12.166   7.953
 6469POPC   C4B21118  42.083  12.229   7.653
 6470POPC   NC321119   8.192  22.911   9.453
 6470POPC   PO421120   8.212  22.896   9.153
 6470POPC   GL121121   8.178  22.961   8.853
 6470POPC   GL221122   8.145  23.023   8.853
 6470POPC   C1A21123   8.235  22.960   8.553
 6470POPC   D2A21124   8.178  22.902   8.253
 6470POPC   C3A21125   8.214  22.934   7.953
 6470POPC   C4A21126   8.199  22.918   7.653
 6470POPC   C1B21127   8.192  23.162   8.553
 6470POPC   C2B21128   8.123  23.209   8.253
 6470POPC   C3B21129   8.191  23.221   7.953
 6470POPC   C4B21130   8.198  23.214   7.653
 6471POPC   NC321131   5.086  43.848   9.453
 6471POPC   PO421132   5.128  43.934   9.153
 6471POPC   GL121133   5.096  43.841   8.853
 6471POPC   GL221134   5.085  43.719   8.853
 6471POPC   C1A21135   5.141  43.858   8.553
 6471POPC   D2A21136   5.054  43.875   8.253
 6471POPC   C3A21137   5.080  43.905   7.953
 6471POPC   C4A21138   5.104  43.859   7.653
 6471POPC   C1B21139   5.143  43.677   8.553
 6471POPC   C2B21140   5.082  43.601   8.253
 6471POPC   C3B21141   5.130  43.649   7.953
 6471POPC   C4B21142   5.076  43.640   7.653
 6472POPC   NC321143   5.825   8.225   9.453
 6472POPC   PO421144   5.861   8.199   9.153
 6472POPC   GL121145   5.890   8.240   8.853
 6472POPC   GL221146   6.031   8.246   8.853
 6472POPC   C1A21147   5.895   8.205   8.553
 6472POPC   D2A21148   5.904   8.192   8.253
 6472POPC   C3A21149   5.845   8.183   7.953
 6472POPC   C4A21150   5.858   8.208   7.653
 6472POPC   C1B21151   6.105   8.283   8.553
 6472POPC   C2B21152   6.104   8.234   8.253
 6472POPC   C3B21153   6.084   8.230   7.953
 6472POPC   C4B21154   6.157   8.285   7.653
 6473POPC   NC321155  16.729   8.978   9.453
 6473POPC   PO421156  16.757   8.978   9.153
 6473POPC   GL121157  16.775   8.978   8.853
 6473POPC   GL221158  16.607   9.066   8.853
 6473POPC   C1A21159  16.777   8.935   8.553
 6473POPC   D2A21160  16.686   8.975   8.253
 6473POPC   C3A21161  16.698   8.928   7.953
 6473POPC   C4A21162  16.770   8.945   7.653
 6473POPC   C1B21163  16.564   9.138   8.553
 6473POPC   C2B21164  16.521   9.195   8.253
 6473POPC   C3B21165  16.529   9.140   7.953
 6473POPC   C4B21166  16.535   9.198   7.653
 6474POPC   NC321167  15.163  26.844   9.453
 6474POPC   PO421168  15.162  26.803   9.153
 6474POPC   GL121169  15.214  26.794   8.853
 6474POPC   GL221170  15.118  26.943   8.853
 6474POPC   C1A21171  15.171  26.769   8.553
 6474POPC   D2A21172  15.135  26.813   8.253
 6474POPC   C3A21173  15.158  26.791   7.953
 6474POPC   C4A21174  15.220  26.802   7.653
 6474POPC   C1B21175  15.125  27.096   8.553
 6474POPC   C2B21176  15.084  27.059   8.253
 6474POPC   C3B21177  15.041  27.087   7.953
 6474POPC   C4B21178  15.131  27.078   7.653
 6475POPC   NC321179  27.634   2.737   9.453
 6475POPC   PO421180  27.608   2.788   9.153
 6475POPC   GL121181  27.628   2.805   8.853
 6475POPC   GL221182  27.621   2.883   8.853
 6475POPC   C1A21183  27.548   2.760   8.553
 6475POPC   D2A21184  27.642   2.738   8.253
 6475POPC   C3A21185  27.613   2.719   7.953
 6475POPC   C4A21186  27.588   2.790   7.653
 6475POPC   C1B21187  27.553   2.977   8.553
 6475POPC   C2B21188  27.545   3.064   8.253
 6475POPC   C3B21189  27.565   3.052   7.953
 6475POPC   C4B21190  27.537   3.032   7.653
 6476POPC   NC321191   1.959  42.311   9.453
 6476POPC   PO421192   2.017  42.365   9.153
 6476POPC   GL121193   1.947  42.319   8.853
 6476POPC   GL221194   2.022  42.233   8.853
 6476POPC   C1A21195   1.972  42.346   8.553
 6476POPC   D2A21196   1.963  42.288   8.253
 6476POPC   C3A21197   2.003  42.381   7.953
 6476POPC   C4A21198   1.950  42.310   7.653
 6476POPC   C1B21199   2.074  42.134   8.553
 6476POPC   C2B21200   2.129  42.126   8.253
 6476POPC   C3B21201   2.131  42.061   7.953
 6476POPC   C4B21202   2.108  42.158   7.653
 6477POPC   NC321203  44.648   0.416   9.453
 6477POPC   PO421204  44.616   0.416   9.153
 6477POPC   GL121205  44.636   0.446   8.853
 6477POPC   GL221206  44.747   0.424   8.853
 6477POPC   C1A21207  44.616   0.400   8.553
 6477POPC   D2A21208  44.673   0.461   8.253
 6477POPC   C3A21209  44.664   0.389   7.953
 6477POPC   C4A21210  44.654   0.481   7.653
 6477POPC   C1B21211  44.865   0.473   8.553
 6477POPC   C2B21212  44.934   0.491   8.253
 6477POPC   C3B21213  44.919   0.482   7.953
 6477POPC   C4B21214  44.899   0.473   7.653
 6478POPC   NC321215   7.403   9.776   9.453
 6478POPC   PO421216   7.458   9.770   9.153
 6478POPC   GL121217   7.444   9.792   8.853
 6478POPC   GL221218   7.470   9.891   8.853
 6478POPC   C1A21219   7.429   9.701   8.553
 6478POPC   D2A21220   7.456   9.721   8.253
 6478POPC   C3A21221   7.388   9.778   7.953
 6478POPC   C4A21222   7.445   9.771   7.653
 6478POPC   C1B21223   7.503   9.967   8.553
 6478POPC   C2B21224   7.572  10.007   8.253
 6478POPC   C3B21225   7.540   9.995   7.953
 6478POPC   C4B21226   7.525  10.017   7.653
 6479POPC   NC321227  22.137  17.480   9.453
 6479POPC   PO421228  22.184  17.497   9.153
 6479POPC   GL121229  22.116  17.504   8.853
 6479POPC   GL221230  22.056  17.471   8.853
 6479POPC   C1A21231  22.161  17.530   8.553
 6479POPC   D2A21232  22.120  17.460   8.253
 6479POPC   C3A21233  22.150  17.502   7.953
 6479POPC   C4A21234  22.115  17.457   7.653
 6479POPC   C1B21235  21.959  17.508   8.553
 6479POPC   C2B21236  21.936  17.466   8.253
 6479POPC   C3B21237  21.954  17.504   7.953
 6479POPC   C4B21238  21.877  17.444   7.653
 6480POPC   NC321239   1.263  14.425   9.453
 6480POPC   PO421240   1.166  14.392   9.153
 6480POPC   GL121241   1.261  14.424   8.853
 6480POPC   GL221242   1.294  14.334   8.853
 6480POPC   C1A21243   1.219  14.394   8.553
 6480POPC   D2A21244   1.227  14.442   8.253
 6480POPC   C3A21245   1.179  14.410   7.953
 6480POPC   C4A21246   1.217  14.375   7.653
 6480POPC   C1B21247   1.366  14.151   8.553
 6480POPC   C2B21248   1.354  14.225   8.253
 6480POPC   C3B21249   1.290  14.189   7.953
 6480POPC   C4B21250   1.285  14.188   7.653
 6481POPC   NC321251  39.186   7.377   9.453
 6481POPC   PO421252  39.202   7.373   9.153
 6481POPC   GL121253  39.248   7.415   8.853
 6481POPC   GL221254  39.183   7.529   8.853
 6481POPC   C1A21255  39.244   7.374   8.553
 6481POPC   D2A21256  39.200   7.470   8.253
 6481POPC   C3A21257  39.240   7.454   7.953
 6481POPC   C4A21258  39.274   7.459   7.653
 6481POPC   C1B21259  39.019   7.586   8.553
 6481POPC   C2B21260  39.032   7.547   8.253
 6481POPC   C3B21261  38.993   7.580   7.953
 6481POPC   C4B21262  39.008   7.600   7.653
 6482POPC   NC321263   5.065  31.458   9.453
 6482POPC   PO421264   5.109  31.462   9.153
 6482POPC   GL121265   5.056  31.465   8.853
 6482POPC   GL221266   5.133  31.299   8.853
 6482POPC   C1A21267   5.134  31.496   8.553
 6482POPC   D2A21268   5.054  31.510   8.253
 6482POPC   C3A21269   5.057  31.501   7.953
 6482POPC   C4A21270   5.115  31.494   7.653
 6482POPC   C1B21271   5.091  31.218   8.553
 6482POPC   C2B21272   5.168  31.232   8.253
 6482POPC   C3B21273   5.102  31.207   7.953
 6482POPC   C4B21274   5.136  31.234   7.653
 6483POPC   NC321275   5.077  32.226   9.453
 6483POPC   PO421276   5.103  32.224   9.153
 6483POPC   GL121277   5.131  32.242   8.853
 6483POPC   GL221278   5.244  32.216   8.853
 6483POPC   C1A21279   5.082  32.280   8.553
 6483POPC   D2A21280   5.097  32.296   8.253
 6483POPC   C3A21281   5.104  32.235   7.953
 6483POPC   C4A21282   5.131  32.266   7.653
 6483POPC   C1B21283   5.301  32.233   8.553
 6483POPC   C2B21284   5.370  32.235   8.253
 6483POPC   C3B21285   5.385  32.190   7.953
 6483POPC   C4B21286   5.322  32.253   7.653
 6484POPC   NC321287   7.380   5.866   9.453
 6484POPC   PO421288   7.403   5.891   9.153
 6484POPC   GL121289   7.372   5.851   8.853
 6484POPC   GL221290   7.278   5.861   8.853
 6484POPC   C1A21291   7.433   5.848   8.553
 6484POPC   D2A21292   7.451   5.884   8.253
 6484POPC   C3A21293   7.381   5.893   7.953
 6484POPC   C4A21294   7.466   5.830   7.653
 6484POPC   C1B21295   7.184   5.813   8.553
 6484POPC   C2B21296   7.199   5.876   8.253
 6484POPC   C3B21297   7.139   5.891   7.953
 6484POPC   C4B21298   7.129   5.838   7.653
 6485POPC   NC321299   3.534  29.149   9.453
 6485POPC   PO421300   3.550  29.108   9.153
 6485POPC   GL121301   3.510  29.184   8.853
 6485POPC   GL221302   3.508  29.069   8.853
 6485POPC   C1A21303   3.518  29.179   8.553
 6485POPC   D2A21304   3.535  29.184   8.253
 6485POPC   C3A21305   3.526  29.170   7.953
 6485POPC   C4A21306   3.522  29.102   7.653
 6485POPC   C1B21307   3.445  28.870   8.553
 6485POPC   C2B21308   3.485  28.901   8.253
 6485POPC   C3B21309   3.512  28.870   7.953
 6485POPC   C4B21310   3.485  28.940   7.653
 6486POPC   NC321311  11.327  39.990   9.453
 6486POPC   PO421312  11.339  39.989   9.153
 6486POPC   GL121313  11.254  40.006   8.853
 6486POPC   GL221314  11.222  39.999   8.853
 6486POPC   C1A21315  11.260  40.032   8.553
 6486POPC   D2A21316  11.284  40.007   8.253
 6486POPC   C3A21317  11.325  39.990   7.953
 6486POPC   C4A21318  11.287  40.017   7.653
 6486POPC   C1B21319  11.062  39.940   8.553
 6486POPC   C2B21320  11.031  39.868   8.253
 6486POPC   C3B21321  11.052  39.850   7.953
 6486POPC   C4B21322  11.030  39.912   7.653
 6487POPC   NC321323  15.969   5.822   9.453
 6487POPC   PO421324  15.986   5.889   9.153
 6487POPC   GL121325  15.971   5.859   8.853
 6487POPC   GL221326  16.000   5.719   8.853
 6487POPC   C1A21327  15.944   5.824   8.553
 6487POPC   D2A21328  15.982   5.858   8.253
 6487POPC   C3A21329  15.980   5.918   7.953
 6487POPC   C4A21330  15.909   5.852   7.653
 6487POPC   C1B21331  16.008   5.654   8.553
 6487POPC   C2B21332  16.004   5.668   8.253
 6487POPC   C3B21333  16.043   5.588   7.953
 6487POPC   C4B21334  16.005   5.602   7.653
 6488POPC   NC321335   7.459  36.103   9.453
 6488POPC   PO421336   7.428  36.109   9.153
 6488POPC   GL121337   7.460  36.128   8.853
 6488POPC   GL221338   7.322  36.035   8.853
 6488POPC   C1A21339   7.385  36.093   8.553
 6488POPC   D2A21340   7.435  36.096   8.253
 6488POPC   C3A21341   7.446  36.113   7.953
 6488POPC   C4A21342   7.420  36.092   7.653
 6488POPC   C1B21343   7.289  35.961   8.553
 6488POPC   C2B21344   7.199  35.961   8.253
 6488POPC   C3B21345   7.258  35.985   7.953
 6488POPC   C4B21346   7.263  35.976   7.653
 6489POPC   NC321347  27.604  41.592   9.453
 6489POPC   PO421348  27.640  41.593   9.153
 6489POPC   GL121349  27.622  41.599   8.853
 6489POPC   GL221350  27.660  41.487   8.853
 6489POPC   C1A21351  27.572  41.588   8.553
 6489POPC   D2A21352  27.562  41.542   8.253
 6489POPC   C3A21353  27.642  41.599   7.953
 6489POPC   C4A21354  27.618  41.567   7.653
 6489POPC   C1B21355  27.805  41.403   8.553
 6489POPC   C2B21356  27.816  41.364   8.253
 6489POPC   C3B21357  27.770  41.414   7.953
 6489POPC   C4B21358  27.814  41.372   7.653
 6490POPC   NC321359  29.970  13.619   9.453
 6490POPC   PO421360  29.914  13.639   9.153
 6490POPC   GL121361  29.887  13.603   8.853
 6490POPC   GL221362  29.801  13.656   8.853
 6490POPC   C1A21363  29.919  13.609   8.553
 6490POPC   D2A21364  29.879  13.592   8.253
 6490POPC   C3A21365  29.882  13.667   7.953
 6490POPC   C4A21366  29.871  13.672   7.653
 6490POPC   C1B21367  29.721  13.654   8.553
 6490POPC   C2B21368  29.701  13.739   8.253
 6490POPC   C3B21369  29.684  13.701   7.953
 6490POPC   C4B21370  29.638  13.716   7.653
 6491POPC   NC321371  20.649  24.473   9.453
 6491POPC   PO421372  20.569  24.518   9.153
 6491POPC   GL121373  20.601  24.463   8.853
 6491POPC   GL221374  20.564  24.331   8.853
 6491POPC   C1A21375  20.568  24.496   8.553
 6491POPC   D2A21376  20.656  24.449   8.253
 6491POPC   C3A21377  20.632  24.469   7.953
 6491POPC   C4A21378  20.617  24.479   7.653
 6491POPC   C1B21379  20.542  24.205   8.553
 6491POPC   C2B21380  20.575  24.227   8.253
 6491POPC   C3B21381  20.580  24.257   7.953
 6491POPC   C4B21382  20.498  24.240   7.653
 6492POPC   NC321383  19.099  11.261   9.453
 6492POPC   PO421384  19.097  11.336   9.153
 6492POPC   GL121385  19.096  11.307   8.853
 6492POPC   GL221386  19.129  11.279   8.853
 6492POPC   C1A21387  19.043  11.297   8.553
 6492POPC   D2A21388  19.069  11.330   8.253
 6492POPC   C3A21389  19.061  11.271   7.953
 6492POPC   C4A21390  19.064  11.335   7.653
 6492POPC   C1B21391  19.312  11.203   8.553
 6492POPC   C2B21392  19.293  11.151   8.253
 6492POPC   C3B21393  19.308  11.219   7.953
 6492POPC   C4B21394  19.269  11.156   7.653
 6493POPC   NC321395  20.575  18.288   9.453
 6493POPC   PO421396  20.564  18.233   9.153
 6493POPC   GL121397  20.604  18.235   8.853
 6493POPC   GL221398  20.747  18.358   8.853
 6493POPC   C1A21399  20.603  18.284   8.553
 6493POPC   D2A21400  20.619  18.286   8.253
 6493POPC   C3A21401  20.608  18.292   7.953
 6493POPC   C4A21402  20.642  18.247   7.653
 6493POPC   C1B21403  20.766  18.478   8.553
 6493POPC   C2B21404  20.803  18.422   8.253
 6493POPC   C3B21405  20.770  18.414   7.953
 6493POPC   C4B21406  20.766  18.445   7.653
 6494POPC   NC321407  29.123  30.655   9.453
 6494POPC   PO421408  29.149  30.743   9.153
 6494POPC   GL121409  29.126  30.682   8.853
 6494POPC   GL221410  29.038  30.621   8.853
 6494POPC   C1A21411  29.108  30.661   8.553
 6494POPC   D2A21412  29.097  30.683   8.253
 6494POPC   C3A21413  29.133  30.685   7.953
 6494POPC   C4A21414  29.163  30.738   7.653
 6494POPC   C1B21415  29.009  30.429   8.553
 6494POPC   C2B21416  28.982  30.514   8.253
 6494POPC   C3B21417  29.007  30.463   7.953
 6494POPC   C4B21418  29.051  30.457   7.653
 6495POPC   NC321419  36.950   4.275   9.453
 6495POPC   PO421420  36.945   4.365   9.153
 6495POPC   GL121421  36.901   4.334   8.853
 6495POPC   GL221422  36.886   4.392   8.853
 6495POPC   C1A21423  36.863   4.344   8.553
 6495POPC   D2A21424  36.941   4.310   8.253
 6495POPC   C3A21425  36.898   4.313   7.953
 6495POPC   C4A21426  36.939   4.298   7.653
 6495POPC   C1B21427  36.869   4.602   8.553
 6495POPC   C2B21428  36.931   4.532   8.253
 6495POPC   C3B21429  36.946   4.591   7.953
 6495POPC   C4B21430  36.872   4.539   7.653
 6496POPC   NC321431  40.774  29.110   9.453
 6496POPC   PO421432  40.814  29.108   9.153
 6496POPC   GL121433  40.741  29.095   8.853
 6496POPC   GL221434  40.660  29.103   8.853
 6496POPC   C1A21435  40.828  29.109   8.553
 6496POPC   D2A21436  40.736  29.162   8.253
 6496POPC   C3A21437  40.772  29.150   7.953
 6496POPC   C4A21438  40.733  29.167   7.653
 6496POPC   C1B21439  40.540  29.069   8.553
 6496POPC   C2B21440  40.564  29.076   8.253
 6496POPC   C3B21441  40.535  29.053   7.953
 6496POPC   C4B21442  40.546  29.056   7.653
 6497POPC   NC321443  34.625   7.404   9.453
 6497POPC   PO421444  34.554   7.404   9.153
 6497POPC   GL121445  34.541   7.429   8.853
 6497POPC   GL221446  34.505   7.429   8.853
 6497POPC   C1A21447  34.603   7.404   8.553
 6497POPC   D2A21448  34.577   7.398   8.253
 6497POPC   C3A21449  34.553   7.449   7.953
 6497POPC   C4A21450  34.534   7.380   7.653
 6497POPC   C1B21451  34.311   7.550   8.553
 6497POPC   C2B21452  34.358   7.531   8.253
 6497POPC   C3B21453  34.364   7.539   7.953
 6497POPC   C4B21454  34.342   7.568   7.653
 6498POPC   NC321455  24.513  11.288   9.453
 6498POPC   PO421456  24.466  11.320   9.153
 6498POPC   GL121457  24.465  11.255   8.853
 6498POPC   GL221458  24.388  11.278   8.853
 6498POPC   C1A21459  24.531  11.260   8.553
 6498POPC   D2A21460  24.484  11.267   8.253
 6498POPC   C3A21461  24.466  11.295   7.953
 6498POPC   C4A21462  24.517  11.324   7.653
 6498POPC   C1B21463  24.282  11.352   8.553
 6498POPC   C2B21464  24.196  11.304   8.253
 6498POPC   C3B21465  24.239  11.297   7.953
 6498POPC   C4B21466  24.290  11.358   7.653
 6499POPC   NC321467   6.694   8.986   9.453
 6499POPC   PO421468   6.639   9.006   9.153
 6499POPC   GL121469   6.613   8.965   8.853
 6499POPC   GL221470   6.524   8.941   8.853
 6499POPC   C1A21471   6.654   8.930   8.553
 6499POPC   D2A21472   6.634   8.937   8.253
 6499POPC   C3A21473   6.667   9.020   7.953
 6499POPC   C4A21474   6.647   8.977   7.653
 6499POPC   C1B21475   6.363   8.944   8.553
 6499POPC   C2B21476   6.399   8.955   8.253
 6499POPC   C3B21477   6.349   8.935   7.953
 6499POPC   C4B21478   6.429   8.973   7.653
 6500POPC   NC321479  12.860  17.482   9.453
 6500POPC   PO421480  12.847  17.531   9.153
 6500POPC   GL121481  12.884  17.515   8.853
 6500POPC   GL221482  12.781  17.641   8.853
 6500POPC   C1A21483  12.814  17.526   8.553
 6500POPC   D2A21484  12.871  17.505   8.253
 6500POPC   C3A21485  12.811  17.513   7.953
 6500POPC   C4A21486  12.820  17.508   7.653
 6500POPC   C1B21487  12.801  17.720   8.553
 6500POPC   C2B21488  12.792  17.759   8.253
 6500POPC   C3B21489  12.786  17.770   7.953
 6500POPC   C4B21490  12.850  17.776   7.653
 6501POPC   NC321491  19.084   9.759   9.453
 6501POPC   PO421492  19.092   9.721   9.153
 6501POPC   GL121493  19.060   9.769   8.853
 6501POPC   GL221494  18.932   9.779   8.853
 6501POPC   C1A21495  19.033   9.786   8.553
 6501POPC   D2A21496  19.099   9.738   8.253
 6501POPC   C3A21497  19.081   9.733   7.953
 6501POPC   C4A21498  19.077   9.730   7.653
 6501POPC   C1B21499  18.786   9.716   8.553
 6501POPC   C2B21500  18.786   9.774   8.253
 6501POPC   C3B21501  18.802   9.764   7.953
 6501POPC   C4B21502  18.822   9.783   7.653
 6502POPC   NC321503  43.892  15.916   9.453
 6502POPC   PO421504  43.935  15.944   9.153
 6502POPC   GL121505  43.875  15.979   8.853
 6502POPC   GL221506  43.747  15.852   8.853
 6502POPC   C1A21507  43.872  15.971   8.553
 6502POPC   D2A21508  43.850  15.977   8.253
 6502POPC   C3A21509  43.878  15.972   7.953
 6502POPC   C4A21510  43.920  15.920   7.653
 6502POPC   C1B21511  43.641  15.830   8.553
 6502POPC   C2B21512  43.719  15.815   8.253
 6502POPC   C3B21513  43.690  15.812   7.953
 6502POPC   C4B21514  43.722  15.824   7.653
 6503POPC   NC321515  42.319   4.341   9.453
 6503POPC   PO421516  42.326   4.284   9.153
 6503POPC   GL121517  42.345   4.352   8.853
 6503POPC   GL221518  42.369   4.171   8.853
 6503POPC   C1A21519  42.342   4.305   8.553
 6503POPC   D2A21520  42.326   4.300   8.253
 6503POPC   C3A21521  42.384   4.327   7.953
 6503POPC   C4A21522  42.335   4.268   7.653
 6503POPC   C1B21523  42.467   4.099   8.553
 6503POPC   C2B21524  42.458   4.150   8.253
 6503POPC   C3B21525  42.478   4.099   7.953
 6503POPC   C4B21526  42.434   4.155   7.653
 6504POPC   NC321527  37.636  35.315   9.453
 6504POPC   PO421528  37.683  35.401   9.153
 6504POPC   GL121529  37.698  35.357   8.853
 6504POPC   GL221530  37.517  35.378   8.853
 6504POPC   C1A21531  37.720  35.307   8.553
 6504POPC   D2A21532  37.633  35.385   8.253
 6504POPC   C3A21533  37.687  35.378   7.953
 6504POPC   C4A21534  37.642  35.356   7.653
 6504POPC   C1B21535  37.474  35.359   8.553
 6504POPC   C2B21536  37.400  35.412   8.253
 6504POPC   C3B21537  37.417  35.369   7.953
 6504POPC   C4B21538  37.453  35.425   7.653
 6505POPC   NC321539  11.282  27.593   9.453
 6505POPC   PO421540  11.296  27.628   9.153
 6505POPC   GL121541  11.275  27.565   8.853
 6505POPC   GL221542  11.424  27.535   8.853
 6505POPC   C1A21543  11.288  27.630   8.553
 6505POPC   D2A21544  11.331  27.635   8.253
 6505POPC   C3A21545  11.275  27.615   7.953
 6505POPC   C4A21546  11.300  27.600   7.653
 6505POPC   C1B21547  11.586  27.579   8.553
 6505POPC   C2B21548  11.525  27.544   8.253
 6505POPC   C3B21549  11.534  27.499   7.953
 6505POPC   C4B21550  11.581  27.509   7.653
 6506POPC   NC321551  30.714  35.344   9.453
 6506POPC   PO421552  30.721  35.356   9.153
 6506POPC   GL121553  30.657  35.329   8.853
 6506POPC   GL221554  30.568  35.300   8.853
 6506POPC   C1A21555  30.674  35.343   8.553
 6506POPC   D2A21556  30.696  35.315   8.253
 6506POPC   C3A21557  30.648  35.356   7.953
 6506POPC   C4A21558  30.731  35.368   7.653
 6506POPC   C1B21559  30.424  35.284   8.553
 6506POPC   C2B21560  30.486  35.197   8.253
 6506POPC   C3B21561  30.473  35.273   7.953
 6506POPC   C4B21562  30.462  35.243   7.653
 6507POPC   NC321563  41.600  31.485   9.453
 6507POPC   PO421564  41.573  31.434   9.153
 6507POPC   GL121565  41.587  31.434   8.853
 6507POPC   GL221566  41.560  31.620   8.853
 6507POPC   C1A21567  41.589  31.437   8.553
 6507POPC   D2A21568  41.578  31.460   8.253
 6507POPC   C3A21569  41.577  31.503   7.953
 6507POPC   C4A21570  41.537  31.441   7.653
 6507POPC   C1B21571  41.575  31.668   8.553
 6507POPC   C2B21572  41.609  31.685   8.253
 6507POPC   C3B21573  41.622  31.698   7.953
 6507POPC   C4B21574  41.630  31.760   7.653
 6508POPC   NC321575   0.470  30.689   9.453
 6508POPC   PO421576   0.417  30.702   9.153
 6508POPC   GL121577   0.477  30.682   8.853
 6508POPC   GL221578   0.476  30.582   8.853
 6508POPC   C1A21579   0.442  30.736   8.553
 6508POPC   D2A21580   0.466  30.704   8.253
 6508POPC   C3A21581   0.389  30.712   7.953
 6508POPC   C4A21582   0.407  30.677   7.653
 6508POPC   C1B21583   0.628  30.475   8.553
 6508POPC   C2B21584   0.579  30.486   8.253
 6508POPC   C3B21585   0.607  30.510   7.953
 6508POPC   C4B21586   0.562  30.538   7.653
 6509POPC   NC321587  39.279  27.550   9.453
 6509POPC   PO421588  39.211  27.555   9.153
 6509POPC   GL121589  39.239  27.593   8.853
 6509POPC   GL221590  39.104  27.564   8.853
 6509POPC   C1A21591  39.235  27.549   8.553
 6509POPC   D2A21592  39.188  27.545   8.253
 6509POPC   C3A21593  39.236  27.567   7.953
 6509POPC   C4A21594  39.189  27.593   7.653
 6509POPC   C1B21595  39.038  27.528   8.553
 6509POPC   C2B21596  38.947  27.474   8.253
 6509POPC   C3B21597  39.041  27.489   7.953
 6509POPC   C4B21598  38.956  27.500   7.653
 6510POPC   NC321599  42.327  26.033   9.453
 6510POPC   PO421600  42.286  26.047   9.153
 6510POPC   GL121601  42.291  26.019   8.853
 6510POPC   GL221602  42.463  26.071   8.853
 6510POPC   C1A21603  42.361  26.084   8.553
 6510POPC   D2A21604  42.307  26.024   8.253
 6510POPC   C3A21605  42.309  26.084   7.953
 6510POPC   C4A21606  42.364  26.006   7.653
 6510POPC   C1B21607  42.628  26.005   8.553
 6510POPC   C2B21608  42.560  26.025   8.253
 6510POPC   C3B21609  42.541  26.033   7.953
 6510POPC   C4B21610  42.567  26.008   7.653
 6511POPC   NC321611  31.464  44.619   9.453
 6511POPC   PO421612  31.443  44.613   9.153
 6511POPC   GL121613  31.454  44.639   8.853
 6511POPC   GL221614  31.336  44.769   8.853
 6511POPC   C1A21615  31.451  44.686   8.553
 6511POPC   D2A21616  31.426  44.640   8.253
 6511POPC   C3A21617  31.492  44.616   7.953
 6511POPC   C4A21618  31.457  44.673   7.653
 6511POPC   C1B21619  31.324  44.812   8.553
 6511POPC   C2B21620  31.340  44.883   8.253
 6511POPC   C3B21621  31.325  44.829   7.953
 6511POPC   C4B21622  31.343  44.852   7.653
 6512POPC   NC321623  39.261  21.369   9.453
 6512POPC   PO421624  39.211  21.421   9.153
 6512POPC   GL121625  39.245  21.367   8.853
 6512POPC   GL221626  39.153  21.322   8.853
 6512POPC   C1A21627  39.208  21.359   8.553
 6512POPC   D2A21628  39.268  21.436   8.253
 6512POPC   C3A21629  39.261  21.417   7.953
 6512POPC   C4A21630  39.277  21.416   7.653
 6512POPC   C1B21631  39.069  21.174   8.553
 6512POPC   C2B21632  39.126  21.130   8.253
 6512POPC   C3B21633  39.139  21.160   7.953
 6512POPC   C4B21634  39.077  21.134   7.653
 6513POPC   NC321635  17.538  12.823   9.453
 6513POPC   PO421636  17.474  12.863   9.153
 6513POPC   GL121637  17.480  12.878   8.853
 6513POPC   GL221638  17.645  12.881   8.853
 6513POPC   C1A21639  17.488  12.844   8.553
 6513POPC   D2A21640  17.544  12.819   8.253
 6513POPC   C3A21641  17.545  12.893   7.953
 6513POPC   C4A21642  17.534  12.850   7.653
 6513POPC   C1B21643  17.716  12.823   8.553
 6513POPC   C2B21644  17.715  12.894   8.253
 6513POPC   C3B21645  17.754  12.897   7.953
 6513POPC   C4B21646  17.741  12.823   7.653
 6514POPC   NC321647   8.994  15.911   9.453
 6514POPC   PO421648   8.975  15.951   9.153
 6514POPC   GL121649   8.988  15.945   8.853
 6514POPC   GL221650   8.840  15.979   8.853
 6514POPC   C1A21651   9.020  15.959   8.553
 6514POPC   D2A21652   8.983  15.939   8.253
 6514POPC   C3A21653   8.978  15.950   7.953
 6514POPC   C4A21654   8.988  15.935   7.653
 6514POPC   C1B21655   8.757  16.039   8.553
 6514POPC   C2B21656   8.776  15.977   8.253
 6514POPC   C3B21657   8.774  15.978   7.953
 6514POPC   C4B21658   8.693  16.047   7.653
 6515POPC   NC321659  15.909  11.269   9.453
 6515POPC   PO421660  15.999  11.270   9.153
 6515POPC   GL121661  15.993  11.300   8.853
 6515POPC   GL221662  15.890  11.439   8.853
 6515POPC   C1A21663  15.983  11.322   8.553
 6515POPC   D2A21664  15.970  11.253   8.253
 6515POPC   C3A21665  15.963  11.328   7.953
 6515POPC   C4A21666  15.931  11.330   7.653
 6515POPC   C1B21667  15.829  11.518   8.553
 6515POPC   C2B21668  15.823  11.515   8.253
 6515POPC   C3B21669  15.907  11.526   7.953
 6515POPC   C4B21670  15.849  11.492   7.653
 6516POPC   NC321671  44.694  39.246   9.453
 6516POPC   PO421672  44.647  39.208   9.153
 6516POPC   GL121673  44.707  39.220   8.853
 6516POPC   GL221674  44.553  39.350   8.853
 6516POPC   C1A21675  44.620  39.238   8.553
 6516POPC   D2A21676  44.708  39.248   8.253
 6516POPC   C3A21677  44.673  39.202   7.953
 6516POPC   C4A21678  44.699  39.230   7.653
 6516POPC   C1B21679  44.541  39.425   8.553
 6516POPC   C2B21680  44.495  39.450   8.253
 6516POPC   C3B21681  44.540  39.379   7.953
 6516POPC   C4B21682  44.485  39.411   7.653
 6517POPC   NC321683  12.823  36.137   9.453
 6517POPC   PO421684  12.827  36.155   9.153
 6517POPC   GL121685  12.872  36.138   8.853
 6517POPC   GL221686  12.756  35.993   8.853
 6517POPC   C1A21687  12.867  36.160   8.553
 6517POPC   D2A21688  12.868  36.119   8.253
 6517POPC   C3A21689  12.889  36.175   7.953
 6517POPC   C4A21690  12.870  36.080   7.653
 6517POPC   C1B21691  12.671  35.987   8.553
 6517POPC   C2B21692  12.653  35.982   8.253
 6517POPC   C3B21693  12.673  35.950   7.953
 6517POPC   C4B21694  12.669  35.945   7.653
 6518POPC   NC321695  21.387   5.097   9.453
 6518POPC   PO421696  21.383   5.088   9.153
 6518POPC   GL121697  21.378   5.090   8.853
 6518POPC   GL221698  21.423   5.236   8.853
 6518POPC   C1A21699  21.398   5.044   8.553
 6518POPC   D2A21700  21.392   5.100   8.253
 6518POPC   C3A21701  21.368   5.061   7.953
 6518POPC   C4A21702  21.357   5.110   7.653
 6518POPC   C1B21703  21.479   5.278   8.553
 6518POPC   C2B21704  21.509   5.279   8.253
 6518POPC   C3B21705  21.491   5.323   7.953
 6518POPC   C4B21706  21.476   5.332   7.653
 6519POPC   NC321707  12.124  25.225   9.453
 6519POPC   PO421708  12.093  25.284   9.153
 6519POPC   GL121709  12.089  25.216   8.853
 6519POPC   GL221710  11.931  25.152   8.853
 6519POPC   C1A21711  12.049  25.312   8.553
 6519POPC   D2A21712  12.061  25.225   8.253
 6519POPC   C3A21713  12.114  25.271   7.953
 6519POPC   C4A21714  12.124  25.237   7.653
 6519POPC   C1B21715  11.850  25.168   8.553
 6519POPC   C2B21716  11.844  25.170   8.253
 6519POPC   C3B21717  11.891  25.111   7.953
 6519POPC   C4B21718  11.850  25.176   7.653
 6520POPC   NC321719  39.257   5.865   9.453
 6520POPC   PO421720  39.266   5.897   9.153
 6520POPC   GL121721  39.265   5.837   8.853
 6520POPC   GL221722  39.304   5.783   8.853
 6520POPC   C1A21723  39.253   5.900   8.553
 6520POPC   D2A21724  39.261   5.902   8.253
 6520POPC   C3A21725  39.246   5.822   7.953
 6520POPC   C4A21726  39.199   5.902   7.653
 6520POPC   C1B21727  39.277   5.585   8.553
 6520POPC   C2B21728  39.270   5.656   8.253
 6520POPC   C3B21729  39.300   5.634   7.953
 6520POPC   C4B21730  39.242   5.631   7.653
 6521POPC   NC321731  19.808  18.242   9.453
 6521POPC   PO421732  19.805  18.256   9.153
 6521POPC   GL121733  19.795  18.252   8.853
 6521POPC   GL221734  19.873  18.371   8.853
 6521POPC   C1A21735  19.796  18.331   8.553
 6521POPC   D2A21736  19.803  18.310   8.253
 6521POPC   C3A21737  19.826  18.276   7.953
 6521POPC   C4A21738  19.814  18.309   7.653
 6521POPC   C1B21739  19.916  18.503   8.553
 6521POPC   C2B21740  19.892  18.514   8.253
 6521POPC   C3B21741  19.849  18.572   7.953
 6521POPC   C4B21742  19.886  18.546   7.653
 6522POPC   NC321743   5.846  42.308   9.453
 6522POPC   PO421744   5.821  42.373   9.153
 6522POPC   GL121745   5.879  42.321   8.853
 6522POPC   GL221746   5.713  42.287   8.853
 6522POPC   C1A21747   5.881  42.342   8.553
 6522POPC   D2A21748   5.894  42.305   8.253
 6522POPC   C3A21749   5.901  42.354   7.953
 6522POPC   C4A21750   5.836  42.381   7.653
 6522POPC   C1B21751   5.615  42.243   8.553
 6522POPC   C2B21752   5.632  42.296   8.253
 6522POPC   C3B21753   5.586  42.211   7.953
 6522POPC   C4B21754   5.662  42.284   7.653
 6523POPC   NC321755  30.721   1.248   9.453
 6523POPC   PO421756  30.707   1.194   9.153
 6523POPC   GL121757  30.727   1.172   8.853
 6523POPC   GL221758  30.755   1.284   8.853
 6523POPC   C1A21759  30.737   1.168   8.553
 6523POPC   D2A21760  30.648   1.165   8.253
 6523POPC   C3A21761  30.730   1.254   7.953
 6523POPC   C4A21762  30.714   1.218   7.653
 6523POPC   C1B21763  30.852   1.406   8.553
 6523POPC   C2B21764  30.783   1.404   8.253
 6523POPC   C3B21765  30.815   1.453   7.953
 6523POPC   C4B21766  30.800   1.410   7.653
 6524POPC   NC321767  13.592   7.468   9.453
 6524POPC   PO421768  13.641   7.383   9.153
 6524POPC   GL121769  13.614   7.448   8.853
 6524POPC   GL221770  13.520   7.426   8.853
 6524POPC   C1A21771  13.608   7.407   8.553
 6524POPC   D2A21772  13.657   7.454   8.253
 6524POPC   C3A21773  13.607   7.469   7.953
 6524POPC   C4A21774  13.602   7.434   7.653
 6524POPC   C1B21775  13.416   7.375   8.553
 6524POPC   C2B21776  13.379   7.391   8.253
 6524POPC   C3B21777  13.382   7.417   7.953
 6524POPC   C4B21778  13.333   7.432   7.653
 6525POPC   NC321779  38.426  29.160   9.453
 6525POPC   PO421780  38.485  29.115   9.153
 6525POPC   GL121781  38.423  29.122   8.853
 6525POPC   GL221782  38.538  29.116   8.853
 6525POPC   C1A21783  38.410  29.127   8.553
 6525POPC   D2A21784  38.466  29.188   8.253
 6525POPC   C3A21785  38.459  29.182   7.953
 6525POPC   C4A21786  38.431  29.181   7.653
 6525POPC   C1B21787  38.718  29.187   8.553
 6525POPC   C2B21788  38.712  29.184   8.253
 6525POPC   C3B21789  38.734  29.186   7.953
 6525POPC   C4B21790  38.714  29.154   7.653
 6526POPC   NC321791   1.244  12.860   9.453
 6526POPC   PO421792   1.222  12.843   9.153
 6526POPC   GL121793   1.213  12.802   8.853
 6526POPC   GL221794   1.187  13.018   8.853
 6526POPC   C1A21795   1.263  12.846   8.553
 6526POPC   D2A21796   1.228  12.872   8.253
 6526POPC   C3A21797   1.198  12.824   7.953
 6526POPC   C4A21798   1.196  12.858   7.653
 6526POPC   C1B21799   1.176  13.070   8.553
 6526POPC   C2B21800   1.183  13.043   8.253
 6526POPC   C3B21801   1.116  13.118   7.953
 6526POPC   C4B21802   1.144  13.049   7.653
 6527POPC   NC321803  36.173   1.199   9.453
 6527POPC   PO421804  36.169   1.209   9.153
 6527POPC   GL121805  36.109   1.260   8.853
 6527POPC   GL221806  36.217   1.063   8.853
 6527POPC   C1A21807  36.136   1.254   8.553
 6527POPC   D2A21808  36.093   1.203   8.253
 6527POPC   C3A21809  36.107   1.186   7.953
 6527POPC   C4A21810  36.117   1.264   7.653
 6527POPC   C1B21811  36.267   0.994   8.553
 6527POPC   C2B21812  36.172   0.967   8.253
 6527POPC   C3B21813  36.219   0.956   7.953
 6527POPC   C4B21814  36.265   0.980   7.653
 6528POPC   NC321815  37.704  24.473   9.453
 6528POPC   PO421816  37.694  24.493   9.153
 6528POPC   GL121817  37.642  24.454   8.853
 6528POPC   GL221818  37.735  24.648   8.853
 6528POPC   C1A21819  37.647  24.510   8.553
 6528POPC   D2A21820  37.651  24.461   8.253
 6528POPC   C3A21821  37.679  24.523   7.953
 6528POPC   C4A21822  37.641  24.449   7.653
 6528POPC   C1B21823  37.793  24.693   8.553
 6528POPC   C2B21824  37.726  24.763   8.253
 6528POPC   C3B21825  37.748  24.729   7.953
 6528POPC   C4B21826  37.755  24.769   7.653
 6529POPC   NC321827  28.371   2.797   9.453
 6529POPC   PO421828  28.412   2.808   9.153
 6529POPC   GL121829  28.348   2.788   8.853
 6529POPC   GL221830  28.444   2.680   8.853
 6529POPC   C1A21831  28.392   2.757   8.553
 6529POPC   D2A21832  28.339   2.730   8.253
 6529POPC   C3A21833  28.390   2.758   7.953
 6529POPC   C4A21834  28.361   2.760   7.653
 6529POPC   C1B21835  28.618   2.684   8.553
 6529POPC   C2B21836  28.576   2.663   8.253
 6529POPC   C3B21837  28.609   2.698   7.953
 6529POPC   C4B21838  28.642   2.708   7.653
 6530POPC   NC321839   5.882  15.926   9.453
 6530POPC   PO421840   5.885  15.973   9.153
 6530POPC   GL121841   5.868  15.996   8.853
 6530POPC   GL221842   5.929  15.804   8.853
 6530POPC   C1A21843   5.872  15.971   8.553
 6530POPC   D2A21844   5.849  15.963   8.253
 6530POPC   C3A21845   5.858  15.990   7.953
 6530POPC   C4A21846   5.856  15.951   7.653
 6530POPC   C1B21847   6.004  15.736   8.553
 6530POPC   C2B21848   6.024  15.722   8.253
 6530POPC   C3B21849   6.009  15.776   7.953
 6530POPC   C4B21850   5.956  15.729   7.653
 6531POPC   NC321851  14.408  11.300   9.453
 6531POPC   PO421852  14.432  11.252   9.153
 6531POPC   GL121853  14.355  11.310   8.853
 6531POPC   GL221854  14.395  11.205   8.853
 6531POPC   C1A21855  14.421  11.349   8.553
 6531POPC   D2A21856  14.361  11.319   8.253
 6531POPC   C3A21857  14.405  11.337   7.953
 6531POPC   C4A21858  14.364  11.299   7.653
 6531POPC   C1B21859  14.402  11.026   8.553
 6531POPC   C2B21860  14.335  11.031   8.253
 6531POPC   C3B21861  14.334  11.028   7.953
 6531POPC   C4B21862  14.327  11.058   7.653
 6532POPC   NC321863  21.383  28.388   9.453
 6532POPC   PO421864  21.409  28.332   9.153
 6532POPC   GL121865  21.350  28.334   8.853
 6532POPC   GL221866  21.345  28.454   8.853
 6532POPC   C1A21867  21.367  28.359   8.553
 6532POPC   D2A21868  21.387  28.402   8.253
 6532POPC   C3A21869  21.399  28.354   7.953
 6532POPC   C4A21870  21.388  28.358   7.653
 6532POPC   C1B21871  21.385  28.661   8.553
 6532POPC   C2B21872  21.331  28.570   8.253
 6532POPC   C3B21873  21.358  28.625   7.953
 6532POPC   C4B21874  21.317  28.648   7.653
 6533POPC   NC321875  36.867   1.997   9.453
 6533POPC   PO421876  36.938   2.004   9.153
 6533POPC   GL121877  36.904   1.958   8.853
 6533POPC   GL221878  36.845   2.124   8.853
 6533POPC   C1A21879  36.866   1.965   8.553
 6533POPC   D2A21880  36.862   1.952   8.253
 6533POPC   C3A21881  36.893   2.009   7.953
 6533POPC   C4A21882  36.887   1.973   7.653
 6533POPC   C1B21883  36.714   2.189   8.553
 6533POPC   C2B21884  36.742   2.147   8.253
 6533POPC   C3B21885  36.707   2.165   7.953
 6533POPC   C4B21886  36.758   2.196   7.653
 6534POPC   NC321887  41.514  39.988   9.453
 6534POPC   PO421888  41.582  40.008   9.153
 6534POPC   GL121889  41.581  40.043   8.853
 6534POPC   GL221890  41.649  39.937   8.853
 6534POPC   C1A21891  41.511  40.046   8.553
 6534POPC   D2A21892  41.595  40.036   8.253
 6534POPC   C3A21893  41.594  39.978   7.953
 6534POPC   C4A21894  41.597  39.975   7.653
 6534POPC   C1B21895  41.709  39.880   8.553
 6534POPC   C2B21896  41.735  39.813   8.253
 6534POPC   C3B21897  41.764  39.841   7.953
 6534POPC   C4B21898  41.749  39.869   7.653
 6535POPC   NC321899  26.770  38.420   9.453
 6535POPC   PO421900  26.839  38.494   9.153
 6535POPC   GL121901  26.817  38.448   8.853
 6535POPC   GL221902  26.908  38.368   8.853
 6535POPC   C1A21903  26.819  38.419   8.553
 6535POPC   D2A21904  26.792  38.466   8.253
 6535POPC   C3A21905  26.830  38.490   7.953
 6535POPC   C4A21906  26.769  38.420   7.653
 6535POPC   C1B21907  26.957  38.225   8.553
 6535POPC   C2B21908  26.930  38.235   8.253
 6535POPC   C3B21909  26.890  38.282   7.953
 6535POPC   C4B21910  26.926  38.253   7.653
 6536POPC   NC321911   0.411   3.558   9.453
 6536POPC   PO421912   0.399   3.579   9.153
 6536POPC   GL121913   0.482   3.560   8.853
 6536POPC   GL221914   0.557   3.480   8.853
 6536POPC   C1A21915   0.422   3.494   8.553
 6536POPC   D2A21916   0.483   3.527   8.253
 6536POPC   C3A21917   0.428   3.520   7.953
 6536POPC   C4A21918   0.477   3.532   7.653
 6536POPC   C1B21919   0.650   3.489   8.553
 6536POPC   C2B21920   0.717   3.451   8.253
 6536POPC   C3B21921   0.694   3.470   7.953
 6536POPC   C4B21922   0.709   3.530   7.653
 6537POPC   NC321923  15.958   3.520   9.453
 6537POPC   PO421924  15.932   3.548   9.153
 6537POPC   GL121925  15.938   3.522   8.853
 6537POPC   GL221926  15.888   3.584   8.853
 6537POPC   C1A21927  15.981   3.569   8.553
 6537POPC   D2A21928  15.939   3.516   8.253
 6537POPC   C3A21929  15.932   3.495   7.953
 6537POPC   C4A21930  15.974   3.572   7.653
 6537POPC   C1B21931  15.708   3.681   8.553
 6537POPC   C2B21932  15.762   3.595   8.253
 6537POPC   C3B21933  15.754   3.590   7.953
 6537POPC   C4B21934  15.752   3.606   7.653
 6538POPC   NC321935  37.718  31.518   9.453
 6538POPC   PO421936  37.638  31.517   9.153
 6538POPC   GL121937  37.693  31.510   8.853
 6538POPC   GL221938  37.832  31.469   8.853
 6538POPC   C1A21939  37.644  31.459   8.553
 6538POPC   D2A21940  37.675  31.462   8.253
 6538POPC   C3A21941  37.701  31.456   7.953
 6538POPC   C4A21942  37.680  31.450   7.653
 6538POPC   C1B21943  37.963  31.422   8.553
 6538POPC   C2B21944  37.907  31.398   8.253
 6538POPC   C3B21945  37.892  31.366   7.953
 6538POPC   C4B21946  37.960  31.412   7.653
 6539POPC   NC321947  11.304   5.897   9.453
 6539POPC   PO421948  11.350   5.903   9.153
 6539POPC   GL121949  11.276   5.895   8.853
 6539POPC   GL221950  11.376   5.911   8.853
 6539POPC   C1A21951  11.284   5.850   8.553
 6539POPC   D2A21952  11.296   5.899   8.253
 6539POPC   C3A21953  11.303   5.880   7.953
 6539POPC   C4A21954  11.344   5.851   7.653
 6539POPC   C1B21955  11.517   5.876   8.553
 6539POPC   C2B21956  11.578   5.930   8.253
 6539POPC   C3B21957  11.498   5.886   7.953
 6539POPC   C4B21958  11.520   5.932   7.653
 6540POPC   NC321959  31.474   5.067   9.453
 6540POPC   PO421960  31.512   5.105   9.153
 6540POPC   GL121961  31.475   5.103   8.853
 6540POPC   GL221962  31.416   5.050   8.853
 6540POPC   C1A21963  31.434   5.057   8.553
 6540POPC   D2A21964  31.448   5.083   8.253
 6540POPC   C3A21965  31.480   5.141   7.953
 6540POPC   C4A21966  31.471   5.134   7.653
 6540POPC   C1B21967  31.331   4.971   8.553
 6540POPC   C2B21968  31.308   4.883   8.253
 6540POPC   C3B21969  31.324   4.930   7.953
 6540POPC   C4B21970  31.265   4.950   7.653
 6541POPC   NC321971   0.456   7.381   9.453
 6541POPC   PO421972   0.476   7.410   9.153
 6541POPC   GL121973   0.456   7.417   8.853
 6541POPC   GL221974   0.533   7.405   8.853
 6541POPC   C1A21975   0.395   7.389   8.553
 6541POPC   D2A21976   0.421   7.443   8.253
 6541POPC   C3A21977   0.480   7.372   7.953
 6541POPC   C4A21978   0.415   7.416   7.653
 6541POPC   C1B21979   0.693   7.457   8.553
 6541POPC   C2B21980   0.645   7.486   8.253
 6541POPC   C3B21981   0.690   7.441   7.953
 6541POPC   C4B21982   0.666   7.497   7.653
 6542POPC   NC321983  10.550  39.205   9.453
 6542POPC   PO421984  10.571  39.218   9.153
 6542POPC   GL121985  10.551  39.248   8.853
 6542POPC   GL221986  10.600  39.123   8.853
 6542POPC   C1A21987  10.514  39.181   8.553
 6542POPC   D2A21988  10.545  39.200   8.253
 6542POPC   C3A21989  10.551  39.190   7.953
 6542POPC   C4A21990  10.555  39.209   7.653
 6542POPC   C1B21991  10.597  39.044   8.553
 6542POPC   C2B21992  10.613  38.987   8.253
 6542POPC   C3B21993  10.575  39.028   7.953
 6542POPC   C4B21994  10.647  39.013   7.653
 6543POPC   NC321995  39.968  31.494   9.453
 6543POPC   PO421996  40.046  31.476   9.153
 6543POPC   GL121997  39.961  31.501   8.853
 6543POPC   GL221998  40.105  31.557   8.853
 6543POPC   C1A21999  40.045  31.477   8.553
 6543POPC   D2A22000  40.012  31.476   8.253
 6543POPC   C3A22001  40.024  31.457   7.953
 6543POPC   C4A22002  40.002  31.510   7.653
 6543POPC   C1B22003  40.161  31.684   8.553
 6543POPC   C2B22004  40.176  31.681   8.253
 6543POPC   C3B22005  40.167  31.648   7.953
 6543POPC   C4B22006  40.223  31.634   7.653
 6544POPC   NC322007  10.520  35.379   9.453
 6544POPC   PO422008  10.568  35.340   9.153
 6544POPC   GL122009  10.519  35.381   8.853
 6544POPC   GL222010  10.392  35.374   8.853
 6544POPC   C1A22011  10.551  35.366   8.553
 6544POPC   D2A22012  10.533  35.344   8.253
 6544POPC   C3A22013  10.564  35.321   7.953
 6544POPC   C4A22014  10.481  35.310   7.653
 6544POPC   C1B22015  10.270  35.294   8.553
 6544POPC   C2B22016  10.304  35.321   8.253
 6544POPC   C3B22017  10.322  35.254   7.953
 6544POPC   C4B22018  10.311  35.312   7.653
 6545POPC   NC322019   2.003  12.810   9.453
 6545POPC   PO422020   1.952  12.836   9.153
 6545POPC   GL122021   2.017  12.899   8.853
 6545POPC   GL222022   1.835  12.877   8.853
 6545POPC   C1A22023   1.943  12.804   8.553
 6545POPC   D2A22024   1.941  12.803   8.253
 6545POPC   C3A22025   1.982  12.824   7.953
 6545POPC   C4A22026   2.033  12.805   7.653
 6545POPC   C1B22027   1.736  12.978   8.553
 6545POPC   C2B22028   1.745  12.957   8.253
 6545POPC   C3B22029   1.789  12.945   7.953
 6545POPC   C4B22030   1.719  12.970   7.653
 6546POPC   NC322031  24.519  14.393   9.453
 6546POPC   PO422032  24.471  14.406   9.153
 6546POPC   GL122033  24.518  14.407   8.853
 6546POPC   GL222034  24.485  14.273   8.853
 6546POPC   C1A22035  24.475  14.402   8.553
 6546POPC   D2A22036  24.498  14.399   8.253
 6546POPC   C3A22037  24.527  14.448   7.953
 6546POPC   C4A22038  24.478  14.442   7.653
 6546POPC   C1B22039  24.538  14.177   8.553
 6546POPC   C2B22040  24.473  14.186   8.253
 6546POPC   C3B22041  24.498  14.120   7.953
 6546POPC   C4B22042  24.545  14.155   7.653
 6547POPC   NC322043  12.113  18.295   9.453
 6547POPC   PO422044  12.089  18.249   9.153
 6547POPC   GL122045  12.061  18.261   8.853
 6547POPC   GL222046  12.245  18.343   8.853
 6547POPC   C1A22047  12.056  18.309   8.553
 6547POPC   D2A22048  12.081  18.316   8.253
 6547POPC   C3A22049  12.114  18.295   7.953
 6547POPC   C4A22050  12.078  18.299   7.653
 6547POPC   C1B22051  12.322  18.364   8.553
 6547POPC   C2B22052  12.330  18.324   8.253
 6547POPC   C3B22053  12.347  18.332   7.953
 6547POPC   C4B22054  12.273  18.375   7.653
 6548POPC   NC322055  24.500  34.549   9.453
 6548POPC   PO422056  24.480  34.545   9.153
 6548POPC   GL122057  24.456  34.557   8.853
 6548POPC   GL222058  24.322  34.500   8.853
 6548POPC   C1A22059  24.444  34.555   8.553
 6548POPC   D2A22060  24.498  34.589   8.253
 6548POPC   C3A22061  24.540  34.625   7.953
 6548POPC   C4A22062  24.501  34.606   7.653
 6548POPC   C1B22063  24.255  34.479   8.553
 6548POPC   C2B22064  24.272  34.479   8.253
 6548POPC   C3B22065  24.280  34.459   7.953
 6548POPC   C4B22066  24.228  34.497   7.653
 6549POPC   NC322067   2.033  43.919   9.453
 6549POPC   PO422068   2.009  43.841   9.153
 6549POPC   GL122069   1.980  43.906   8.853
 6549POPC   GL222070   2.128  43.852   8.853
 6549POPC   C1A22071   2.000  43.903   8.553
 6549POPC   D2A22072   1.990  43.864   8.253
 6549POPC   C3A22073   1.940  43.865   7.953
 6549POPC   C4A22074   1.954  43.877   7.653
 6549POPC   C1B22075   2.164  43.738   8.553
 6549POPC   C2B22076   2.208  43.738   8.253
 6549POPC   C3B22077   2.245  43.726   7.953
 6549POPC   C4B22078   2.180  43.786   7.653
 6550POPC   NC322079  10.550   6.616   9.453
 6550POPC   PO422080  10.506   6.632   9.153
 6550POPC   GL122081  10.541   6.693   8.853
 6550POPC   GL222082  10.494   6.740   8.853
 6550POPC   C1A22083  10.489   6.597   8.553
 6550POPC   D2A22084  10.481   6.668   8.253
 6550POPC   C3A22085  10.513   6.678   7.953
 6550POPC   C4A22086  10.574   6.692   7.653
 6550POPC   C1B22087  10.511   6.895   8.553
 6550POPC   C2B22088  10.501   6.894   8.253
 6550POPC   C3B22089  10.499   6.891   7.953
 6550POPC   C4B22090  10.465   6.859   7.653
 6551POPC   NC322091  43.091   5.078   9.453
 6551POPC   PO422092  43.063   5.087   9.153
 6551POPC   GL122093  43.074   5.139   8.853
 6551POPC   GL222094  43.008   5.172   8.853
 6551POPC   C1A22095  43.105   5.099   8.553
 6551POPC   D2A22096  43.070   5.071   8.253
 6551POPC   C3A22097  43.136   5.127   7.953
 6551POPC   C4A22098  43.114   5.126   7.653
 6551POPC   C1B22099  42.881   5.187   8.553
 6551POPC   C2B22100  42.913   5.146   8.253
 6551POPC   C3B22101  42.868   5.140   7.953
 6551POPC   C4B22102  42.895   5.151   7.653
 6552POPC   NC322103   0.402  20.591   9.453
 6552POPC   PO422104   0.482  20.596   9.153
 6552POPC   GL122105   0.399  20.628   8.853
 6552POPC   GL222106   0.544  20.586   8.853
 6552POPC   C1A22107   0.392  20.572   8.553
 6552POPC   D2A22108   0.397  20.629   8.253
 6552POPC   C3A22109   0.429  20.632   7.953
 6552POPC   C4A22110   0.462  20.609   7.653
 6552POPC   C1B22111   0.676  20.482   8.553
 6552POPC   C2B22112   0.608  20.507   8.253
 6552POPC   C3B22113   0.638  20.466   7.953
 6552POPC   C4B22114   0.627  20.432   7.653
 6553POPC   NC322115  12.101  24.518   9.453
 6553POPC   PO422116  12.029  24.459   9.153
 6553POPC   GL122117  12.040  24.487   8.853
 6553POPC   GL222118  11.901  24.493   8.853
 6553POPC   C1A22119  12.077  24.465   8.553
 6553POPC   D2A22120  12.104  24.516   8.253
 6553POPC   C3A22121  12.107  24.480   7.953
 6553POPC   C4A22122  12.037  24.496   7.653
 6553POPC   C1B22123  11.869  24.517   8.553
 6553POPC   C2B22124  11.825  24.457   8.253
 6553POPC   C3B22125  11.803  24.487   7.953
 6553POPC   C4B22126  11.822  24.491   7.653
 6554POPC   NC322127  17.489  19.827   9.453
 6554POPC   PO422128  17.489  19.839   9.153
 6554POPC   GL122129  17.548  19.854   8.853
 6554POPC   GL222130  17.677  19.798   8.853
 6554POPC   C1A22131  17.531  19.874   8.553
 6554POPC   D2A22132  17.517  19.880   8.253
 6554POPC   C3A22133  17.529  19.825   7.953
 6554POPC   C4A22134  17.488  19.817   7.653
 6554POPC   C1B22135  17.777  19.826   8.553
 6554POPC   C2B22136  17.722  19.886   8.253
 6554POPC   C3B22137  17.751  19.798   7.953
 6554POPC   C4B22138  17.735  19.832   7.653
 6555POPC   NC322139  12.895  20.637   9.453
 6555POPC   PO422140  12.874  20.591   9.153
 6555POPC   GL122141  12.894  20.621   8.853
 6555POPC   GL222142  12.764  20.487   8.853
 6555POPC   C1A22143  12.864  20.619   8.553
 6555POPC   D2A22144  12.807  20.578   8.253
 6555POPC   C3A22145  12.852  20.623   7.953
 6555POPC   C4A22146  12.831  20.562   7.653
 6555POPC   C1B22147  12.677  20.430   8.553
 6555POPC   C2B22148  12.634  20.423   8.253
 6555POPC   C3B22149  12.623  20.419   7.953
 6555POPC   C4B22150  12.652  20.499   7.653
 6556POPC   NC322151  36.946  26.779   9.453
 6556POPC   PO422152  36.936  26.816   9.153
 6556POPC   GL122153  36.924  26.833   8.853
 6556POPC   GL222154  36.829  26.895   8.853
 6556POPC   C1A22155  36.897  26.779   8.553
 6556POPC   D2A22156  36.927  26.769   8.253
 6556POPC   C3A22157  36.911  26.836   7.953
 6556POPC   C4A22158  36.938  26.822   7.653
 6556POPC   C1B22159  36.786  26.974   8.553
 6556POPC   C2B22160  36.763  26.968   8.253
 6556POPC   C3B22161  36.690  27.051   7.953
 6556POPC   C4B22162  36.753  27.030   7.653
 6557POPC   NC322163  44.679  27.609   9.453
 6557POPC   PO422164  44.645  27.555   9.153
 6557POPC   GL122165  44.625  27.629   8.853
 6557POPC   GL222166  44.726  27.434   8.853
 6557POPC   C1A22167  44.664  27.598   8.553
 6557POPC   D2A22168  44.671  27.605   8.253
 6557POPC   C3A22169  44.691  27.637   7.953
 6557POPC   C4A22170  44.676  27.569   7.653
 6557POPC   C1B22171  44.713  27.345   8.553
 6557POPC   C2B22172  44.678  27.312   8.253
 6557POPC   C3B22173  44.716  27.345   7.953
 6557POPC   C4B22174  44.685  27.296   7.653
 6558POPC   NC322175  42.377  24.509   9.453
 6558POPC   PO422176  42.293  24.449   9.153
 6558POPC   GL122177  42.317  24.498   8.853
 6558POPC   GL222178  42.299  24.569   8.853
 6558POPC   C1A22179  42.349  24.468   8.553
 6558POPC   D2A22180  42.368  24.520   8.253
 6558POPC   C3A22181  42.365  24.466   7.953
 6558POPC   C4A22182  42.322  24.516   7.653
 6558POPC   C1B22183  42.354  24.695   8.553
 6558POPC   C2B22184  42.347  24.733   8.253
 6558POPC   C3B22185  42.365  24.720   7.953
 6558POPC   C4B22186  42.328  24.744   7.653
 6559POPC   NC322187  36.088  22.919   9.453
 6559POPC   PO422188  36.146  22.955   9.153
 6559POPC   GL122189  36.125  22.968   8.853
 6559POPC   GL222190  36.061  22.859   8.853
 6559POPC   C1A22191  36.169  22.980   8.553
 6559POPC   D2A22192  36.168  22.950   8.253
 6559POPC   C3A22193  36.113  22.972   7.953
 6559POPC   C4A22194  36.083  22.933   7.653
 6559POPC   C1B22195  36.138  22.740   8.553
 6559POPC   C2B22196  36.103  22.641   8.253
 6559POPC   C3B22197  36.057  22.697   7.953
 6559POPC   C4B22198  36.070  22.683   7.653
 6560POPC   NC322199   5.075  12.866   9.453
 6560POPC   PO422200   5.142  12.817   9.153
 6560POPC   GL122201   5.069  12.815   8.853
 6560POPC   GL222202   5.017  12.946   8.853
 6560POPC   C1A22203   5.137  12.858   8.553
 6560POPC   D2A22204   5.084  12.827   8.253
 6560POPC   C3A22205   5.045  12.861   7.953
 6560POPC   C4A22206   5.139  12.874   7.653
 6560POPC   C1B22207   4.919  12.961   8.553
 6560POPC   C2B22208   4.936  12.997   8.253
 6560POPC   C3B22209   4.852  12.985   7.953
 6560POPC   C4B22210   4.879  13.038   7.653
 6561POPC   NC322211  41.581  20.609   9.453
 6561POPC   PO422212  41.533  20.575   9.153
 6561POPC   GL122213  41.558  20.586   8.853
 6561POPC   GL222214  41.461  20.617   8.853
 6561POPC   C1A22215  41.559  20.624   8.553
 6561POPC   D2A22216  41.534  20.646   8.253
 6561POPC   C3A22217  41.561  20.588   7.953
 6561POPC   C4A22218  41.569  20.629   7.653
 6561POPC   C1B22219  41.324  20.576   8.553
 6561POPC   C2B22220  41.259  20.607   8.253
 6561POPC   C3B22221  41.285  20.647   7.953
 6561POPC   C4B22222  41.325  20.609   7.653
 6562POPC   NC322223  11.291   5.061   9.453
 6562POPC   PO422224  11.320   5.134   9.153
 6562POPC   GL122225  11.279   5.139   8.853
 6562POPC   GL222226  11.170   5.065   8.853
 6562POPC   C1A22227  11.276   5.076   8.553
 6562POPC   D2A22228  11.348   5.048   8.253
 6562POPC   C3A22229  11.265   5.068   7.953
 6562POPC   C4A22230  11.270   5.137   7.653
 6562POPC   C1B22231  11.066   4.973   8.553
 6562POPC   C2B22232  11.123   4.951   8.253
 6562POPC   C3B22233  11.082   4.935   7.953
 6562POPC   C4B22234  11.047   4.983   7.653
 6563POPC   NC322235   8.204  39.221   9.453
 6563POPC   PO422236   8.177  39.235   9.153
 6563POPC   GL122237   8.210  39.280   8.853
 6563POPC   GL222238   8.219  39.344   8.853
 6563POPC   C1A22239   8.167  39.217   8.553
 6563POPC   D2A22240   8.206  39.257   8.253
 6563POPC   C3A22241   8.234  39.256   7.953
 6563POPC   C4A22242   8.205  39.235   7.653
 6563POPC   C1B22243   8.211  39.507   8.553
 6563POPC   C2B22244   8.169  39.486   8.253
 6563POPC   C3B22245   8.168  39.455   7.953
 6563POPC   C4B22246   8.223  39.467   7.653
 6564POPC   NC322247  17.510  11.312   9.453
 6564POPC   PO422248  17.532  11.290   9.153
 6564POPC   GL122249  17.510  11.350   8.853
 6564POPC   GL222250  17.430  11.251   8.853
 6564POPC   C1A22251  17.489  11.301   8.553
 6564POPC   D2A22252  17.491  11.331   8.253
 6564POPC   C3A22253  17.542  11.289   7.953
 6564POPC   C4A22254  17.534  11.345   7.653
 6564POPC   C1B22255  17.307  11.162   8.553
 6564POPC   C2B22256  17.294  11.145   8.253
 6564POPC   C3B22257  17.263  11.161   7.953
 6564POPC   C4B22258  17.277  11.150   7.653
 6565POPC   NC322259  16.744  15.201   9.453
 6565POPC   PO422260  16.748  15.189   9.153
 6565POPC   GL122261  16.732  15.218   8.853
 6565POPC   GL222262  16.832  15.128   8.853
 6565POPC   C1A22263  16.728  15.163   8.553
 6565POPC   D2A22264  16.695  15.149   8.253
 6565POPC   C3A22265  16.779  15.164   7.953
 6565POPC   C4A22266  16.702  15.192   7.653
 6565POPC   C1B22267  17.013  15.109   8.553
 6565POPC   C2B22268  17.012  15.135   8.253
 6565POPC   C3B22269  16.921  15.137   7.953
 6565POPC   C4B22270  16.926  15.143   7.653
 6566POPC   NC322271   4.323   4.350   9.453
 6566POPC   PO422272   4.275   4.314   9.153
 6566POPC   GL122273   4.288   4.312   8.853
 6566POPC   GL222274   4.226   4.442   8.853
 6566POPC   C1A22275   4.327   4.367   8.553
 6566POPC   D2A22276   4.300   4.349   8.253
 6566POPC   C3A22277   4.322   4.318   7.953
 6566POPC   C4A22278   4.318   4.281   7.653
 6566POPC   C1B22279   4.178   4.574   8.553
 6566POPC   C2B22280   4.210   4.491   8.253
 6566POPC   C3B22281   4.193   4.497   7.953
 6566POPC   C4B22282   4.225   4.490   7.653
 6567POPC   NC322283  44.655  19.082   9.453
 6567POPC   PO422284  44.682  19.034   9.153
 6567POPC   GL122285  44.660  19.087   8.853
 6567POPC   GL222286  44.610  18.890   8.853
 6567POPC   C1A22287  44.640  19.066   8.553
 6567POPC   D2A22288  44.669  19.078   8.253
 6567POPC   C3A22289  44.698  19.057   7.953
 6567POPC   C4A22290  44.642  19.042   7.653
 6567POPC   C1B22291  44.626  18.769   8.553
 6567POPC   C2B22292  44.591  18.782   8.253
 6567POPC   C3B22293  44.608  18.784   7.953
 6567POPC   C4B22294  44.564  18.853   7.653
 6568POPC   NC322295   0.434  28.387   9.453
 6568POPC   PO422296   0.487  28.410   9.153
 6568POPC   GL122297   0.452  28.396   8.853
 6568POPC   GL222298   0.591  28.400   8.853
 6568POPC   C1A22299   0.427  28.384   8.553
 6568POPC   D2A22300   0.452  28.402   8.253
 6568POPC   C3A22301   0.388  28.340   7.953
 6568POPC   C4A22302   0.485  28.331   7.653
 6568POPC   C1B22303   0.649  28.386   8.553
 6568POPC   C2B22304   0.671  28.417   8.253
 6568POPC   C3B22305   0.693  28.398   7.953
 6568POPC   C4B22306   0.661  28.377   7.653
 6569POPC   NC322307  28.407  28.368   9.453
 6569POPC   PO422308  28.327  28.333   9.153
 6569POPC   GL122309  28.410  28.357   8.853
 6569POPC   GL222310  28.430  28.462   8.853
 6569POPC   C1A22311  28.348  28.335   8.553
 6569POPC   D2A22312  28.415  28.349   8.253
 6569POPC   C3A22313  28.348  28.401   7.953
 6569POPC   C4A22314  28.346  28.325   7.653
 6569POPC   C1B22315  28.494  28.570   8.553
 6569POPC   C2B22316  28.488  28.574   8.253
 6569POPC   C3B22317  28.437  28.610   7.953
 6569POPC   C4B22318  28.450  28.610   7.653
 6570POPC   NC322319  33.771  33.001   9.453
 6570POPC   PO422320  33.799  33.041   9.153
 6570POPC   GL122321  33.818  33.061   8.853
 6570POPC   GL222322  33.668  33.029   8.853
 6570POPC   C1A22323  33.787  33.068   8.553
 6570POPC   D2A22324  33.808  33.056   8.253
 6570POPC   C3A22325  33.805  33.048   7.953
 6570POPC   C4A22326  33.796  33.067   7.653
 6570POPC   C1B22327  33.534  33.009   8.553
 6570POPC   C2B22328  33.538  32.965   8.253
 6570POPC   C3B22329  33.528  33.002   7.953
 6570POPC   C4B22330  33.576  32.998   7.653
 6571POPC   NC322331  28.335  25.259   9.453
 6571POPC   PO422332  28.401  25.277   9.153
 6571POPC   GL122333  28.327  25.276   8.853
 6571POPC   GL222334  28.419  25.129   8.853
 6571POPC   C1A22335  28.357  25.229   8.553
 6571POPC   D2A22336  28.322  25.247   8.253
 6571POPC   C3A22337  28.398  25.225   7.953
 6571POPC   C4A22338  28.361  25.251   7.653
 6571POPC   C1B22339  28.521  25.048   8.553
 6571POPC   C2B22340  28.541  25.020   8.253
 6571POPC   C3B22341  28.519  25.069   7.953
 6571POPC   C4B22342  28.499  25.089   7.653
 6572POPC   NC322343  12.074  11.280   9.453
 6572POPC   PO422344  12.109  11.317   9.153
 6572POPC   GL122345  12.104  11.345   8.853
 6572POPC   GL222346  12.250  11.280   8.853
 6572POPC   C1A22347  12.122  11.313   8.553
 6572POPC   D2A22348  12.112  11.319   8.253
 6572POPC   C3A22349  12.068  11.278   7.953
 6572POPC   C4A22350  12.060  11.277   7.653
 6572POPC   C1B22351  12.351  11.285   8.553
 6572POPC   C2B22352  12.373  11.278   8.253
 6572POPC   C3B22353  12.359  11.268   7.953
 6572POPC   C4B22354  12.350  11.300   7.653
 6573POPC   NC322355  18.265  12.049   9.453
 6573POPC   PO422356  18.333  12.033   9.153
 6573POPC   GL122357  18.332  12.089   8.853
 6573POPC   GL222358  18.313  11.943   8.853
 6573POPC   C1A22359  18.300  12.118   8.553
 6573POPC   D2A22360  18.254  12.040   8.253
 6573POPC   C3A22361  18.245  12.074   7.953
 6573POPC   C4A22362  18.272  12.104   7.653
 6573POPC   C1B22363  18.409  11.849   8.553
 6573POPC   C2B22364  18.423  11.848   8.253
 6573POPC   C3B22365  18.447  11.913   7.953
 6573POPC   C4B22366  18.381  11.826   7.653
 6574POPC   NC322367   5.891   7.436   9.453
 6574POPC   PO422368   5.899   7.451   9.153
 6574POPC   GL122369   5.841   7.469   8.853
 6574POPC   GL222370   5.991   7.326   8.853
 6574POPC   C1A22371   5.879   7.416   8.553
 6574POPC   D2A22372   5.823   7.424   8.253
 6574POPC   C3A22373   5.912   7.395   7.953
 6574POPC   C4A22374   5.824   7.461   7.653
 6574POPC   C1B22375   6.090   7.266   8.553
 6574POPC   C2B22376   6.033   7.239   8.253
 6574POPC   C3B22377   6.089   7.259   7.953
 6574POPC   C4B22378   6.035   7.227   7.653
 6575POPC   NC322379   1.217  44.645   9.453
 6575POPC   PO422380   1.217  44.707   9.153
 6575POPC   GL122381   1.206  44.625   8.853
 6575POPC   GL222382   1.295  44.709   8.853
 6575POPC   C1A22383   1.180  44.614   8.553
 6575POPC   D2A22384   1.261  44.675   8.253
 6575POPC   C3A22385   1.184  44.685   7.953
 6575POPC   C4A22386   1.173  44.695   7.653
 6575POPC   C1B22387   1.479  44.701   8.553
 6575POPC   C2B22388   1.466  44.669   8.253
 6575POPC   C3B22389   1.436  44.708   7.953
 6575POPC   C4B22390   1.447  44.680   7.653
 6576POPC   NC322391  20.575  12.861   9.453
 6576POPC   PO422392  20.645  12.889   9.153
 6576POPC   GL122393  20.585  12.823   8.853
 6576POPC   GL222394  20.444  12.843   8.853
 6576POPC   C1A22395  20.634  12.887   8.553
 6576POPC   D2A22396  20.585  12.901   8.253
 6576POPC   C3A22397  20.609  12.855   7.953
 6576POPC   C4A22398  20.591  12.863   7.653
 6576POPC   C1B22399  20.402  12.902   8.553
 6576POPC   C2B22400  20.366  12.902   8.253
 6576POPC   C3B22401  20.316  12.911   7.953
 6576POPC   C4B22402  20.317  12.870   7.653
 6577POPC   NC322403  41.522  26.043   9.453
 6577POPC   PO422404  41.529  26.071   9.153
 6577POPC   GL122405  41.521  26.040   8.853
 6577POPC   GL222406  41.677  26.079   8.853
 6577POPC   C1A22407  41.552  26.047   8.553
 6577POPC   D2A22408  41.606  26.018   8.253
 6577POPC   C3A22409  41.555  26.047   7.953
 6577POPC   C4A22410  41.569  26.000   7.653
 6577POPC   C1B22411  41.833  26.033   8.553
 6577POPC   C2B22412  41.834  26.063   8.253
 6577POPC   C3B22413  41.768  26.043   7.953
 6577POPC   C4B22414  41.767  26.089   7.653
 6578POPC   NC322415  42.346  44.648   9.453
 6578POPC   PO422416  42.294  44.657   9.153
 6578POPC   GL122417  42.304  44.623   8.853
 6578POPC   GL222418  42.305  44.584   8.853
 6578POPC   C1A22419  42.383  44.699   8.553
 6578POPC   D2A22420  42.380  44.666   8.253
 6578POPC   C3A22421  42.310  44.647   7.953
 6578POPC   C4A22422  42.315  44.679   7.653
 6578POPC   C1B22423  42.162  44.452   8.553
 6578POPC   C2B22424  42.160  44.436   8.253
 6578POPC   C3B22425  42.188  44.482   7.953
 6578POPC   C4B22426  42.197  44.471   7.653
 6579POPC   NC322427  17.498  13.628   9.453
 6579POPC   PO422428  17.523  13.625   9.153
 6579POPC   GL122429  17.469  13.664   8.853
 6579POPC   GL222430  17.418  13.633   8.853
 6579POPC   C1A22431  17.482  13.630   8.553
 6579POPC   D2A22432  17.491  13.609   8.253
 6579POPC   C3A22433  17.551  13.605   7.953
 6579POPC   C4A22434  17.550  13.637   7.653
 6579POPC   C1B22435  17.299  13.544   8.553
 6579POPC   C2B22436  17.261  13.555   8.253
 6579POPC   C3B22437  17.279  13.597   7.953
 6579POPC   C4B22438  17.258  13.594   7.653
 6580POPC   NC322439  25.275  14.384   9.453
 6580POPC   PO422440  25.222  14.382   9.153
 6580POPC   GL122441  25.302  14.413   8.853
 6580POPC   GL222442  25.116  14.294   8.853
 6580POPC   C1A22443  25.289  14.394   8.553
 6580POPC   D2A22444  25.249  14.425   8.253
 6580POPC   C3A22445  25.272  14.389   7.953
 6580POPC   C4A22446  25.258  14.394   7.653
 6580POPC   C1B22447  25.047  14.212   8.553
 6580POPC   C2B22448  25.029  14.254   8.253
 6580POPC   C3B22449  25.053  14.217   7.953
 6580POPC   C4B22450  25.033  14.240   7.653
 6581POPC   NC322451  26.840  24.509   9.453
 6581POPC   PO422452  26.772  24.445   9.153
 6581POPC   GL122453  26.833  24.445   8.853
 6581POPC   GL222454  26.980  24.438   8.853
 6581POPC   C1A22455  26.773  24.491   8.553
 6581POPC   D2A22456  26.838  24.514   8.253
 6581POPC   C3A22457  26.836  24.497   7.953
 6581POPC   C4A22458  26.863  24.517   7.653
 6581POPC   C1B22459  27.054  24.487   8.553
 6581POPC   C2B22460  27.039  24.508   8.253
 6581POPC   C3B22461  27.099  24.439   7.953
 6581POPC   C4B22462  27.043  24.526   7.653
 6582POPC   NC322463  43.107  43.860   9.453
 6582POPC   PO422464  43.093  43.906   9.153
 6582POPC   GL122465  43.069  43.865   8.853
 6582POPC   GL222466  43.005  43.790   8.853
 6582POPC   C1A22467  43.140  43.863   8.553
 6582POPC   D2A22468  43.109  43.911   8.253
 6582POPC   C3A22469  43.151  43.924   7.953
 6582POPC   C4A22470  43.115  43.904   7.653
 6582POPC   C1B22471  42.938  43.697   8.553
 6582POPC   C2B22472  42.908  43.698   8.253
 6582POPC   C3B22473  42.921  43.703   7.953
 6582POPC   C4B22474  42.878  43.739   7.653
 6583POPC   NC322475  25.288  40.802   9.453
 6583POPC   PO422476  25.243  40.761   9.153
 6583POPC   GL122477  25.275  40.789   8.853
 6583POPC   GL222478  25.204  40.854   8.853
 6583POPC   C1A22479  25.312  40.802   8.553
 6583POPC   D2A22480  25.245  40.738   8.253
 6583POPC   C3A22481  25.286  40.758   7.953
 6583POPC   C4A22482  25.250  40.780   7.653
 6583POPC   C1B22483  25.032  40.921   8.553
 6583POPC   C2B22484  25.009  40.937   8.253
 6583POPC   C3B22485  25.088  40.895   7.953
 6583POPC   C4B22486  25.016  40.865   7.653
 6584POPC   NC322487  12.092   5.102   9.453
 6584POPC   PO422488  12.112   5.141   9.153
 6584POPC   GL122489  12.029   5.098   8.853
 6584POPC   GL222490  12.138   5.030   8.853
 6584POPC   C1A22491  12.097   5.076   8.553
 6584POPC   D2A22492  12.074   5.139   8.253
 6584POPC   C3A22493  12.029   5.127   7.953
 6584POPC   C4A22494  12.100   5.086   7.653
 6584POPC   C1B22495  12.292   4.911   8.553
 6584POPC   C2B22496  12.240   4.908   8.253
 6584POPC   C3B22497  12.297   4.928   7.953
 6584POPC   C4B22498  12.261   4.947   7.653
 6585POPC   NC322499  22.900  20.631   9.453
 6585POPC   PO422500  22.950  20.605   9.153
 6585POPC   GL122501  22.910  20.586   8.853
 6585POPC   GL222502  22.941  20.469   8.853
 6585POPC   C1A22503  22.967  20.575   8.553
 6585POPC   D2A22504  22.941  20.596   8.253
 6585POPC   C3A22505  22.903  20.589   7.953
 6585POPC   C4A22506  22.947  20.600   7.653
 6585POPC   C1B22507  23.014  20.317   8.553
 6585POPC   C2B22508  22.995  20.411   8.253
 6585POPC   C3B22509  22.957  20.335   7.953
 6585POPC   C4B22510  22.965  20.318   7.653
 6586POPC   NC322511  19.805  12.899   9.453
 6586POPC   PO422512  19.844  12.857   9.153
 6586POPC   GL122513  19.881  12.836   8.853
 6586POPC   GL222514  19.987  12.881   8.853
 6586POPC   C1A22515  19.843  12.859   8.553
 6586POPC   D2A22516  19.823  12.840   8.253
 6586POPC   C3A22517  19.871  12.805   7.953
 6586POPC   C4A22518  19.881  12.825   7.653
 6586POPC   C1B22519  20.050  12.928   8.553
 6586POPC   C2B22520  20.114  12.897   8.253
 6586POPC   C3B22521  20.047  12.872   7.953
 6586POPC   C4B22522  20.077  12.875   7.653
 6587POPC   NC322523  10.485  38.409   9.453
 6587POPC   PO422524  10.555  38.414   9.153
 6587POPC   GL122525  10.548  38.480   8.853
 6587POPC   GL222526  10.611  38.509   8.853
 6587POPC   C1A22527  10.569  38.459   8.553
 6587POPC   D2A22528  10.481  38.435   8.253
 6587POPC   C3A22529  10.572  38.410   7.953
 6587POPC   C4A22530  10.496  38.438   7.653
 6587POPC   C1B22531  10.719  38.584   8.553
 6587POPC   C2B22532  10.713  38.593   8.253
 6587POPC   C3B22533  10.711  38.611   7.953
 6587POPC   C4B22534  10.677  38.642   7.653
 6588POPC   NC322535  39.183  30.729   9.453
 6588POPC   PO422536  39.269  30.688   9.153
 6588POPC   GL122537  39.189  30.727   8.853
 6588POPC   GL222538  39.186  30.576   8.853
 6588POPC   C1A22539  39.239  30.717   8.553
 6588POPC   D2A22540  39.186  30.723   8.253
 6588POPC   C3A22541  39.193  30.661   7.953
 6588POPC   C4A22542  39.246  30.664   7.653
 6588POPC   C1B22543  39.239  30.447   8.553
 6588POPC   C2B22544  39.219  30.456   8.253
 6588POPC   C3B22545  39.202  30.455   7.953
 6588POPC   C4B22546  39.168  30.400   7.653
 6589POPC   NC322547  34.593  12.848   9.453
 6589POPC   PO422548  34.582  12.830   9.153
 6589POPC   GL122549  34.603  12.805   8.853
 6589POPC   GL222550  34.570  12.785   8.853
 6589POPC   C1A22551  34.553  12.813   8.553
 6589POPC   D2A22552  34.590  12.885   8.253
 6589POPC   C3A22553  34.595  12.866   7.953
 6589POPC   C4A22554  34.617  12.855   7.653
 6589POPC   C1B22555  34.438  12.615   8.553
 6589POPC   C2B22556  34.443  12.662   8.253
 6589POPC   C3B22557  34.461  12.608   7.953
 6589POPC   C4B22558  34.522  12.634   7.653
 6590POPC   NC322559   5.893  21.384   9.453
 6590POPC   PO422560   5.820  21.409   9.153
 6590POPC   GL122561   5.828  21.380   8.853
 6590POPC   GL222562   5.934  21.449   8.853
 6590POPC   C1A22563   5.880  21.371   8.553
 6590POPC   D2A22564   5.824  21.434   8.253
 6590POPC   C3A22565   5.858  21.348   7.953
 6590POPC   C4A22566   5.898  21.337   7.653
 6590POPC   C1B22567   6.112  21.522   8.553
 6590POPC   C2B22568   6.060  21.559   8.253
 6590POPC   C3B22569   6.029  21.531   7.953
 6590POPC   C4B22570   6.114  21.493   7.653
 6591POPC   NC322571  11.284   7.384   9.453
 6591POPC   PO422572  11.326   7.373   9.153
 6591POPC   GL122573  11.326   7.405   8.853
 6591POPC   GL222574  11.145   7.473   8.853
 6591POPC   C1A22575  11.322   7.446   8.553
 6591POPC   D2A22576  11.270   7.466   8.253
 6591POPC   C3A22577  11.331   7.425   7.953
 6591POPC   C4A22578  11.300   7.441   7.653
 6591POPC   C1B22579  11.003   7.486   8.553
 6591POPC   C2B22580  11.012   7.505   8.253
 6591POPC   C3B22581  11.034   7.470   7.953
 6591POPC   C4B22582  11.018   7.431   7.653
 6592POPC   NC322583  20.598  11.348   9.453
 6592POPC   PO422584  20.633  11.296   9.153
 6592POPC   GL122585  20.623  11.346   8.853
 6592POPC   GL222586  20.731  11.398   8.853
 6592POPC   C1A22587  20.656  11.323   8.553
 6592POPC   D2A22588  20.649  11.289   8.253
 6592POPC   C3A22589  20.577  11.286   7.953
 6592POPC   C4A22590  20.578  11.327   7.653
 6592POPC   C1B22591  20.816  11.440   8.553
 6592POPC   C2B22592  20.843  11.446   8.253
 6592POPC   C3B22593  20.793  11.473   7.953
 6592POPC   C4B22594  20.789  11.432   7.653
 6593POPC   NC322595   1.209  39.189   9.453
 6593POPC   PO422596   1.245  39.234   9.153
 6593POPC   GL122597   1.210  39.242   8.853
 6593POPC   GL222598   1.324  39.195   8.853
 6593POPC   C1A22599   1.213  39.223   8.553
 6593POPC   D2A22600   1.236  39.280   8.253
 6593POPC   C3A22601   1.230  39.232   7.953
 6593POPC   C4A22602   1.195  39.228   7.653
 6593POPC   C1B22603   1.422  39.162   8.553
 6593POPC   C2B22604   1.511  39.209   8.253
 6593POPC   C3B22605   1.482  39.150   7.953
 6593POPC   C4B22606   1.422  39.180   7.653
 6594POPC   NC322607   8.953  43.891   9.453
 6594POPC   PO422608   8.935  43.933   9.153
 6594POPC   GL122609   8.928  43.841   8.853
 6594POPC   GL222610   9.090  43.758   8.853
 6594POPC   C1A22611   8.984  43.935   8.553
 6594POPC   D2A22612   8.998  43.909   8.253
 6594POPC   C3A22613   8.934  43.933   7.953
 6594POPC   C4A22614   8.990  43.915   7.653
 6594POPC   C1B22615   9.202  43.728   8.553
 6594POPC   C2B22616   9.128  43.696   8.253
 6594POPC   C3B22617   9.183  43.714   7.953
 6594POPC   C4B22618   9.134  43.735   7.653
 6595POPC   NC322619  41.541  15.179   9.453
 6595POPC   PO422620  41.511  15.206   9.153
 6595POPC   GL122621  41.600  15.182   8.853
 6595POPC   GL222622  41.483  15.170   8.853
 6595POPC   C1A22623  41.519  15.183   8.553
 6595POPC   D2A22624  41.520  15.148   8.253
 6595POPC   C3A22625  41.598  15.140   7.953
 6595POPC   C4A22626  41.569  15.141   7.653
 6595POPC   C1B22627  41.330  15.154   8.553
 6595POPC   C2B22628  41.308  15.196   8.253
 6595POPC   C3B22629  41.303  15.156   7.953
 6595POPC   C4B22630  41.342  15.158   7.653
 6596POPC   NC322631  19.828   8.209   9.453
 6596POPC   PO422632  19.870   8.153   9.153
 6596POPC   GL122633  19.862   8.191   8.853
 6596POPC   GL222634  19.733   8.317   8.853
 6596POPC   C1A22635  19.800   8.148   8.553
 6596POPC   D2A22636  19.855   8.166   8.253
 6596POPC   C3A22637  19.882   8.156   7.953
 6596POPC   C4A22638  19.798   8.219   7.653
 6596POPC   C1B22639  19.711   8.390   8.553
 6596POPC   C2B22640  19.722   8.409   8.253
 6596POPC   C3B22641  19.755   8.400   7.953
 6596POPC   C4B22642  19.768   8.466   7.653
 6597POPC   NC322643  30.704  43.063   9.453
 6597POPC   PO422644  30.704  43.153   9.153
 6597POPC   GL122645  30.742  43.087   8.853
 6597POPC   GL222646  30.837  43.105   8.853
 6597POPC   C1A22647  30.683  43.070   8.553
 6597POPC   D2A22648  30.732  43.122   8.253
 6597POPC   C3A22649  30.725  43.062   7.953
 6597POPC   C4A22650  30.742  43.129   7.653
 6597POPC   C1B22651  30.906  43.204   8.553
 6597POPC   C2B22652  30.972  43.119   8.253
 6597POPC   C3B22653  30.919  43.181   7.953
 6597POPC   C4B22654  30.949  43.185   7.653
 6598POPC   NC322655  17.485   8.186   9.453
 6598POPC   PO422656  17.493   8.225   9.153
 6598POPC   GL122657  17.532   8.194   8.853
 6598POPC   GL222658  17.677   8.213   8.853
 6598POPC   C1A22659  17.537   8.222   8.553
 6598POPC   D2A22660  17.542   8.199   8.253
 6598POPC   C3A22661  17.525   8.228   7.953
 6598POPC   C4A22662  17.544   8.178   7.653
 6598POPC   C1B22663  17.744   8.174   8.553
 6598POPC   C2B22664  17.798   8.146   8.253
 6598POPC   C3B22665  17.761   8.104   7.953
 6598POPC   C4B22666  17.735   8.112   7.653
 6599POPC   NC322667   1.946  11.296   9.453
 6599POPC   PO422668   1.990  11.342   9.153
 6599POPC   GL122669   1.976  11.336   8.853
 6599POPC   GL222670   1.866  11.320   8.853
 6599POPC   C1A22671   2.010  11.302   8.553
 6599POPC   D2A22672   1.956  11.345   8.253
 6599POPC   C3A22673   1.998  11.287   7.953
 6599POPC   C4A22674   1.992  11.333   7.653
 6599POPC   C1B22675   1.760  11.327   8.553
 6599POPC   C2B22676   1.749  11.336   8.253
 6599POPC   C3B22677   1.726  11.330   7.953
 6599POPC   C4B22678   1.770  11.284   7.653
 6600POPC   NC322679   6.649   3.528   9.453
 6600POPC   PO422680   6.650   3.586   9.153
 6600POPC   GL122681   6.695   3.495   8.853
 6600POPC   GL222682   6.565   3.617   8.853
 6600POPC   C1A22683   6.636   3.578   8.553
 6600POPC   D2A22684   6.685   3.559   8.253
 6600POPC   C3A22685   6.678   3.504   7.953
 6600POPC   C4A22686   6.652   3.535   7.653
 6600POPC   C1B22687   6.439   3.644   8.553
 6600POPC   C2B22688   6.430   3.625   8.253
 6600POPC   C3B22689   6.427   3.655   7.953
 6600POPC   C4B22690   6.402   3.679   7.653
 6601POPC   NC322691  19.062  13.585   9.453
 6601POPC   PO422692  19.086  13.627   9.153
 6601POPC   GL122693  19.010  13.617   8.853
 6601POPC   GL222694  19.139  13.657   8.853
 6601POPC   C1A22695  19.068  13.677   8.553
 6601POPC   D2A22696  19.074  13.617   8.253
 6601POPC   C3A22697  19.047  13.665   7.953
 6601POPC   C4A22698  19.100  13.603   7.653
 6601POPC   C1B22699  19.335  13.591   8.553
 6601POPC   C2B22700  19.332  13.598   8.253
 6601POPC   C3B22701  19.326  13.601   7.953
 6601POPC   C4B22702  19.334  13.600   7.653
 6602POPC   NC322703  15.186  37.706   9.453
 6602POPC   PO422704  15.162  37.685   9.153
 6602POPC   GL122705  15.214  37.691   8.853
 6602POPC   GL222706  15.109  37.785   8.853
 6602POPC   C1A22707  15.144  37.679   8.553
 6602POPC   D2A22708  15.158  37.632   8.253
 6602POPC   C3A22709  15.214  37.707   7.953
 6602POPC   C4A22710  15.169  37.723   7.653
 6602POPC   C1B22711  15.008  37.829   8.553
 6602POPC   C2B22712  15.017  37.813   8.253
 6602POPC   C3B22713  15.053  37.904   7.953
 6602POPC   C4B22714  14.988  37.892   7.653
 6603POPC   NC322715  34.539   3.496   9.453
 6603POPC   PO422716  34.547   3.504   9.153
 6603POPC   GL122717  34.579   3.532   8.853
 6603POPC   GL222718  34.668   3.563   8.853
 6603POPC   C1A22719  34.579   3.517   8.553
 6603POPC   D2A22720  34.607   3.505   8.253
 6603POPC   C3A22721  34.580   3.575   7.953
 6603POPC   C4A22722  34.565   3.547   7.653
 6603POPC   C1B22723  34.790   3.630   8.553
 6603POPC   C2B22724  34.839   3.604   8.253
 6603POPC   C3B22725  34.780   3.648   7.953
 6603POPC   C4B22726  34.827   3.630   7.653
 6604POPC   NC322727  22.185  36.177   9.453
 6604POPC   PO422728  22.209  36.165   9.153
 6604POPC   GL122729  22.127  36.159   8.853
 6604POPC   GL222730  22.220  36.223   8.853
 6604POPC   C1A22731  22.132  36.106   8.553
 6604POPC   D2A22732  22.150  36.159   8.253
 6604POPC   C3A22733  22.143  36.127   7.953
 6604POPC   C4A22734  22.150  36.120   7.653
 6604POPC   C1B22735  22.247  36.306   8.553
 6604POPC   C2B22736  22.309  36.377   8.253
 6604POPC   C3B22737  22.242  36.311   7.953
 6604POPC   C4B22738  22.247  36.345   7.653
 6605POPC   NC322739   5.105  17.553   9.453
 6605POPC   PO422740   5.063  17.543   9.153
 6605POPC   GL122741   5.060  17.467   8.853
 6605POPC   GL222742   5.233  17.423   8.853
 6605POPC   C1A22743   5.047  17.548   8.553
 6605POPC   D2A22744   5.071  17.493   8.253
 6605POPC   C3A22745   5.132  17.525   7.953
 6605POPC   C4A22746   5.061  17.508   7.653
 6605POPC   C1B22747   5.262  17.338   8.553
 6605POPC   C2B22748   5.266  17.387   8.253
 6605POPC   C3B22749   5.272  17.309   7.953
 6605POPC   C4B22750   5.326  17.390   7.653
 6606POPC   NC322751  38.476  18.319   9.453
 6606POPC   PO422752  38.464  18.328   9.153
 6606POPC   GL122753  38.456  18.307   8.853
 6606POPC   GL222754  38.555  18.195   8.853
 6606POPC   C1A22755  38.447  18.261   8.553
 6606POPC   D2A22756  38.497  18.284   8.253
 6606POPC   C3A22757  38.482  18.287   7.953
 6606POPC   C4A22758  38.487  18.287   7.653
 6606POPC   C1B22759  38.674  18.113   8.553
 6606POPC   C2B22760  38.654  18.158   8.253
 6606POPC   C3B22761  38.591  18.163   7.953
 6606POPC   C4B22762  38.662  18.083   7.653
 6607POPC   NC322763  44.699  41.602   9.453
 6607POPC   PO422764  44.643  41.587   9.153
 6607POPC   GL122765  44.654  41.544   8.853
 6607POPC   GL222766  44.644  41.437   8.853
 6607POPC   C1A22767  44.696  41.595   8.553
 6607POPC   D2A22768  44.711  41.533   8.253
 6607POPC   C3A22769  44.684  41.602   7.953
 6607POPC   C4A22770  44.692  41.609   7.653
 6607POPC   C1B22771  44.568  41.313   8.553
 6607POPC   C2B22772  44.504  41.312   8.253
 6607POPC   C3B22773  44.585  41.330   7.953
 6607POPC   C4B22774  44.504  41.345   7.653
 6608POPC   NC322775  22.974  26.051   9.453
 6608POPC   PO422776  22.948  26.019   9.153
 6608POPC   GL122777  22.982  26.088   8.853
 6608POPC   GL222778  22.783  26.047   8.853
 6608POPC   C1A22779  22.909  26.048   8.553
 6608POPC   D2A22780  22.949  26.056   8.253
 6608POPC   C3A22781  22.966  26.081   7.953
 6608POPC   C4A22782  22.898  26.018   7.653
 6608POPC   C1B22783  22.680  26.088   8.553
 6608POPC   C2B22784  22.728  26.103   8.253
 6608POPC   C3B22785  22.669  26.068   7.953
 6608POPC   C4B22786  22.722  26.118   7.653
 6609POPC   NC322787  33.795  25.245   9.453
 6609POPC   PO422788  33.752  25.240   9.153
 6609POPC   GL122789  33.800  25.283   8.853
 6609POPC   GL222790  33.929  25.240   8.853
 6609POPC   C1A22791  33.761  25.230   8.553
 6609POPC   D2A22792  33.790  25.274   8.253
 6609POPC   C3A22793  33.752  25.295   7.953
 6609POPC   C4A22794  33.772  25.299   7.653
 6609POPC   C1B22795  34.018  25.297   8.553
 6609POPC   C2B22796  34.065  25.279   8.253
 6609POPC   C3B22797  34.032  25.274   7.953
 6609POPC   C4B22798  34.053  25.260   7.653
 6610POPC   NC322799  36.874  33.000   9.453
 6610POPC   PO422800  36.910  33.008   9.153
 6610POPC   GL122801  36.928  33.000   8.853
 6610POPC   GL222802  37.002  33.124   8.853
 6610POPC   C1A22803  36.952  32.976   8.553
 6610POPC   D2A22804  36.893  33.001   8.253
 6610POPC   C3A22805  36.858  32.999   7.953
 6610POPC   C4A22806  36.933  33.002   7.653
 6610POPC   C1B22807  37.080  33.231   8.553
 6610POPC   C2B22808  37.093  33.158   8.253
 6610POPC   C3B22809  37.043  33.187   7.953
 6610POPC   C4B22810  37.061  33.209   7.653
 6611POPC   NC322811  11.309  13.667   9.453
 6611POPC   PO422812  11.271  13.613   9.153
 6611POPC   GL122813  11.260  13.618   8.853
 6611POPC   GL222814  11.128  13.613   8.853
 6611POPC   C1A22815  11.254  13.620   8.553
 6611POPC   D2A22816  11.326  13.608   8.253
 6611POPC   C3A22817  11.285  13.591   7.953
 6611POPC   C4A22818  11.309  13.665   7.653
 6611POPC   C1B22819  11.076  13.578   8.553
 6611POPC   C2B22820  11.094  13.565   8.253
 6611POPC   C3B22821  11.028  13.595   7.953
 6611POPC   C4B22822  11.058  13.611   7.653
 6612POPC   NC322823  29.107  23.686   9.453
 6612POPC   PO422824  29.184  23.671   9.153
 6612POPC   GL122825  29.135  23.738   8.853
 6612POPC   GL222826  29.205  23.844   8.853
 6612POPC   C1A22827  29.126  23.717   8.553
 6612POPC   D2A22828  29.171  23.740   8.253
 6612POPC   C3A22829  29.168  23.753   7.953
 6612POPC   C4A22830  29.189  23.749   7.653
 6612POPC   C1B22831  29.356  23.856   8.553
 6612POPC   C2B22832  29.380  23.869   8.253
 6612POPC   C3B22833  29.346  23.893   7.953
 6612POPC   C4B22834  29.354  23.895   7.653
 6613POPC   NC322835   3.559  17.550   9.453
 6613POPC   PO422836   3.560  17.469   9.153
 6613POPC   GL122837   3.589  17.521   8.853
 6613POPC   GL222838   3.605  17.392   8.853
 6613POPC   C1A22839   3.554  17.529   8.553
 6613POPC   D2A22840   3.589  17.494   8.253
 6613POPC   C3A22841   3.588  17.552   7.953
 6613POPC   C4A22842   3.504  17.458   7.653
 6613POPC   C1B22843   3.684  17.282   8.553
 6613POPC   C2B22844   3.684  17.236   8.253
 6613POPC   C3B22845   3.702  17.299   7.953
 6613POPC   C4B22846   3.626  17.246   7.653
 6614POPC   NC322847  39.209  20.642   9.453
 6614POPC   PO422848  39.257  20.614   9.153
 6614POPC   GL122849  39.233  20.605   8.853
 6614POPC   GL222850  39.191  20.773   8.853
 6614POPC   C1A22851  39.264  20.619   8.553
 6614POPC   D2A22852  39.228  20.597   8.253
 6614POPC   C3A22853  39.196  20.631   7.953
 6614POPC   C4A22854  39.200  20.656   7.653
 6614POPC   C1B22855  39.173  20.820   8.553
 6614POPC   C2B22856  39.146  20.804   8.253
 6614POPC   C3B22857  39.123  20.851   7.953
 6614POPC   C4B22858  39.128  20.876   7.653
 6615POPC   NC322859  25.266  21.342   9.453
 6615POPC   PO422860  25.248  21.428   9.153
 6615POPC   GL122861  25.293  21.388   8.853
 6615POPC   GL222862  25.378  21.405   8.853
 6615POPC   C1A22863  25.276  21.409   8.553
 6615POPC   D2A22864  25.275  21.433   8.253
 6615POPC   C3A22865  25.294  21.420   7.953
 6615POPC   C4A22866  25.290  21.380   7.653
 6615POPC   C1B22867  25.464  21.401   8.553
 6615POPC   C2B22868  25.511  21.432   8.253
 6615POPC   C3B22869  25.479  21.400   7.953
 6615POPC   C4B22870  25.464  21.480   7.653
 6616POPC   NC322871  43.933  17.511   9.453
 6616POPC   PO422872  43.909  17.494   9.153
 6616POPC   GL122873  43.869  17.552   8.853
 6616POPC   GL222874  44.032  17.564   8.853
 6616POPC   C1A22875  43.880  17.460   8.553
 6616POPC   D2A22876  43.889  17.461   8.253
 6616POPC   C3A22877  43.886  17.468   7.953
 6616POPC   C4A22878  43.932  17.499   7.653
 6616POPC   C1B22879  44.105  17.626   8.553
 6616POPC   C2B22880  44.105  17.595   8.253
 6616POPC   C3B22881  44.076  17.541   7.953
 6616POPC   C4B22882  44.126  17.582   7.653
 6617POPC   NC322883  29.159  25.998   9.453
 6617POPC   PO422884  29.131  26.018   9.153
 6617POPC   GL122885  29.121  26.026   8.853
 6617POPC   GL222886  29.196  26.148   8.853
 6617POPC   C1A22887  29.114  26.046   8.553
 6617POPC   D2A22888  29.169  26.040   8.253
 6617POPC   C3A22889  29.188  26.001   7.953
 6617POPC   C4A22890  29.114  26.031   7.653
 6617POPC   C1B22891  29.293  26.244   8.553
 6617POPC   C2B22892  29.336  26.229   8.253
 6617POPC   C3B22893  29.337  26.222   7.953
 6617POPC   C4B22894  29.266  26.218   7.653
 6618POPC   NC322895   0.391  36.161   9.453
 6618POPC   PO422896   0.458  36.111   9.153
 6618POPC   GL122897   0.423  36.082   8.853
 6618POPC   GL222898   0.341  36.130   8.853
 6618POPC   C1A22899   0.408  36.135   8.553
 6618POPC   D2A22900   0.478  36.099   8.253
 6618POPC   C3A22901   0.438  36.144   7.953
 6618POPC   C4A22902   0.488  36.112   7.653
 6618POPC   C1B22903   0.200  36.091   8.553
 6618POPC   C2B22904   0.158  36.055   8.253
 6618POPC   C3B22905   0.192  36.088   7.953
 6618POPC   C4B22906   0.157  36.042   7.653
 6619POPC   NC322907  19.844  35.303   9.453
 6619POPC   PO422908  19.867  35.371   9.153
 6619POPC   GL122909  19.788  35.308   8.853
 6619POPC   GL222910  19.832  35.493   8.853
 6619POPC   C1A22911  19.848  35.399   8.553
 6619POPC   D2A22912  19.841  35.333   8.253
 6619POPC   C3A22913  19.841  35.401   7.953
 6619POPC   C4A22914  19.828  35.398   7.653
 6619POPC   C1B22915  19.826  35.573   8.553
 6619POPC   C2B22916  19.875  35.593   8.253
 6619POPC   C3B22917  19.809  35.621   7.953
 6619POPC   C4B22918  19.862  35.646   7.653
 6620POPC   NC322919  26.022  38.415   9.453
 6620POPC   PO422920  26.017  38.454   9.153
 6620POPC   GL122921  26.079  38.424   8.853
 6620POPC   GL222922  26.123  38.356   8.853
 6620POPC   C1A22923  26.047  38.432   8.553
 6620POPC   D2A22924  26.040  38.427   8.253
 6620POPC   C3A22925  26.031  38.438   7.953
 6620POPC   C4A22926  26.027  38.477   7.653
 6620POPC   C1B22927  26.220  38.257   8.553
 6620POPC   C2B22928  26.205  38.245   8.253
 6620POPC   C3B22929  26.195  38.307   7.953
 6620POPC   C4B22930  26.168  38.270   7.653
 6621POPC   NC322931  32.225  21.431   9.453
 6621POPC   PO422932  32.231  21.375   9.153
 6621POPC   GL122933  32.263  21.396   8.853
 6621POPC   GL222934  32.205  21.468   8.853
 6621POPC   C1A22935  32.292  21.382   8.553
 6621POPC   D2A22936  32.277  21.359   8.253
 6621POPC   C3A22937  32.285  21.436   7.953
 6621POPC   C4A22938  32.215  21.337   7.653
 6621POPC   C1B22939  32.292  21.606   8.553
 6621POPC   C2B22940  32.305  21.681   8.253
 6621POPC   C3B22941  32.227  21.669   7.953
 6621POPC   C4B22942  32.213  21.665   7.653
 6622POPC   NC322943  36.146  29.177   9.453
 6622POPC   PO422944  36.116  29.111   9.153
 6622POPC   GL122945  36.116  29.167   8.853
 6622POPC   GL222946  36.234  29.257   8.853
 6622POPC   C1A22947  36.150  29.185   8.553
 6622POPC   D2A22948  36.106  29.155   8.253
 6622POPC   C3A22949  36.116  29.146   7.953
 6622POPC   C4A22950  36.159  29.178   7.653
 6622POPC   C1B22951  36.263  29.337   8.553
 6622POPC   C2B22952  36.273  29.342   8.253
 6622POPC   C3B22953  36.275  29.309   7.953
 6622POPC   C4B22954  36.284  29.282   7.653
 6623POPC   NC322955  21.344  13.645   9.453
 6623POPC   PO422956  21.404  13.611   9.153
 6623POPC   GL122957  21.421  13.614   8.853
 6623POPC   GL222958  21.369  13.464   8.853
 6623POPC   C1A22959  21.406  13.625   8.553
 6623POPC   D2A22960  21.420  13.616   8.253
 6623POPC   C3A22961  21.367  13.669   7.953
 6623POPC   C4A22962  21.410  13.607   7.653
 6623POPC   C1B22963  21.337  13.399   8.553
 6623POPC   C2B22964  21.323  13.378   8.253
 6623POPC   C3B22965  21.289  13.368   7.953
 6623POPC   C4B22966  21.277  13.366   7.653
 6624POPC   NC322967  29.960  29.160   9.453
 6624POPC   PO422968  29.957  29.170   9.153
 6624POPC   GL122969  29.955  29.165   8.853
 6624POPC   GL222970  30.060  29.113   8.853
 6624POPC   C1A22971  29.933  29.136   8.553
 6624POPC   D2A22972  29.906  29.178   8.253
 6624POPC   C3A22973  29.892  29.138   7.953
 6624POPC   C4A22974  29.872  29.116   7.653
 6624POPC   C1B22975  30.165  29.065   8.553
 6624POPC   C2B22976  30.120  29.118   8.253
 6624POPC   C3B22977  30.172  29.118   7.953
 6624POPC   C4B22978  30.134  29.064   7.653
 6625POPC   NC322979  24.536  35.359   9.453
 6625POPC   PO422980  24.461  35.330   9.153
 6625POPC   GL122981  24.472  35.334   8.853
 6625POPC   GL222982  24.570  35.252   8.853
 6625POPC   C1A22983  24.474  35.396   8.553
 6625POPC   D2A22984  24.504  35.349   8.253
 6625POPC   C3A22985  24.477  35.367   7.953
 6625POPC   C4A22986  24.530  35.388   7.653
 6625POPC   C1B22987  24.673  35.244   8.553
 6625POPC   C2B22988  24.714  35.235   8.253
 6625POPC   C3B22989  24.719  35.236   7.953
 6625POPC   C4B22990  24.706  35.215   7.653
 6626POPC   NC322991  10.542  25.994   9.453
 6626POPC   PO422992  10.511  26.000   9.153
 6626POPC   GL122993  10.507  26.030   8.853
 6626POPC   GL222994  10.695  26.011   8.853
 6626POPC   C1A22995  10.515  26.085   8.553
 6626POPC   D2A22996  10.497  26.006   8.253
 6626POPC   C3A22997  10.481  26.020   7.953
 6626POPC   C4A22998  10.489  26.086   7.653
 6626POPC   C1B22999  10.765  25.998   8.553
 6626POPC   C2B23000  10.812  26.038   8.253
 6626POPC   C3B23001  10.748  26.024   7.953
 6626POPC   C4B23002  10.759  26.006   7.653
 6627POPC   NC323003   0.445  21.344   9.453
 6627POPC   PO423004   0.436  21.362   9.153
 6627POPC   GL123005   0.468  21.419   8.853
 6627POPC   GL223006   0.516  21.496   8.853
 6627POPC   C1A23007   0.433  21.387   8.553
 6627POPC   D2A23008   0.412  21.427   8.253
 6627POPC   C3A23009   0.420  21.421   7.953
 6627POPC   C4A23010   0.460  21.403   7.653
 6627POPC   C1B23011   0.580  21.560   8.553
 6627POPC   C2B23012   0.511  21.636   8.253
 6627POPC   C3B23013   0.532  21.583   7.953
 6627POPC   C4B23014   0.525  21.654   7.653
 6628POPC   NC323015   3.576  38.473   9.453
 6628POPC   PO423016   3.537  38.459   9.153
 6628POPC   GL123017   3.569  38.505   8.853
 6628POPC   GL223018   3.645  38.500   8.853
 6628POPC   C1A23019   3.519  38.504   8.553
 6628POPC   D2A23020   3.541  38.419   8.253
 6628POPC   C3A23021   3.532  38.460   7.953
 6628POPC   C4A23022   3.538  38.462   7.653
 6628POPC   C1B23023   3.743  38.630   8.553
 6628POPC   C2B23024   3.753  38.604   8.253
 6628POPC   C3B23025   3.769  38.638   7.953
 6628POPC   C4B23026   3.695  38.629   7.653
 6629POPC   NC323027  40.041  30.650   9.453
 6629POPC   PO423028  39.977  30.687   9.153
 6629POPC   GL123029  39.971  30.690   8.853
 6629POPC   GL223030  39.980  30.845   8.853
 6629POPC   C1A23031  40.037  30.680   8.553
 6629POPC   D2A23032  39.974  30.682   8.253
 6629POPC   C3A23033  39.959  30.671   7.953
 6629POPC   C4A23034  40.028  30.729   7.653
 6629POPC   C1B23035  39.950  30.951   8.553
 6629POPC   C2B23036  39.969  30.968   8.253
 6629POPC   C3B23037  39.947  30.943   7.953
 6629POPC   C4B23038  39.992  30.951   7.653
 6630POPC   NC323039  39.213   2.755   9.453
 6630POPC   PO423040  39.205   2.784   9.153
 6630POPC   GL123041  39.232   2.776   8.853
 6630POPC   GL223042  39.141   2.850   8.853
 6630POPC   C1A23043  39.192   2.811   8.553
 6630POPC   D2A23044  39.233   2.792   8.253
 6630POPC   C3A23045  39.272   2.762   7.953
 6630POPC   C4A23046  39.261   2.805   7.653
 6630POPC   C1B23047  38.972   2.875   8.553
 6630POPC   C2B23048  38.965   2.852   8.253
 6630POPC   C3B23049  39.042   2.906   7.953
 6630POPC   C4B23050  38.970   2.830   7.653
 6631POPC   NC323051   5.860  41.538   9.453
 6631POPC   PO423052   5.849  41.568   9.153
 6631POPC   GL123053   5.841  41.581   8.853
 6631POPC   GL223054   5.737  41.614   8.853
 6631POPC   C1A23055   5.901  41.597   8.553
 6631POPC   D2A23056   5.857  41.559   8.253
 6631POPC   C3A23057   5.841  41.560   7.953
 6631POPC   C4A23058   5.826  41.510   7.653
 6631POPC   C1B23059   5.717  41.718   8.553
 6631POPC   C2B23060   5.653  41.768   8.253
 6631POPC   C3B23061   5.679  41.701   7.953
 6631POPC   C4B23062   5.640  41.761   7.653
 6632POPC   NC323063  10.547  26.788   9.453
 6632POPC   PO423064  10.527  26.861   9.153
 6632POPC   GL123065  10.545  26.836   8.853
 6632POPC   GL223066  10.588  26.988   8.853
 6632POPC   C1A23067  10.570  26.777   8.553
 6632POPC   D2A23068  10.506  26.803   8.253
 6632POPC   C3A23069  10.564  26.769   7.953
 6632POPC   C4A23070  10.491  26.778   7.653
 6632POPC   C1B23071  10.550  27.082   8.553
 6632POPC   C2B23072  10.630  27.074   8.253
 6632POPC   C3B23073  10.630  27.091   7.953
 6632POPC   C4B23074  10.617  27.079   7.653
 6633POPC   NC323075  41.595   4.342   9.453
 6633POPC   PO423076  41.554   4.338   9.153
 6633POPC   GL123077  41.554   4.284   8.853
 6633POPC   GL223078  41.409   4.248   8.853
 6633POPC   C1A23079  41.567   4.338   8.553
 6633POPC   D2A23080  41.527   4.273   8.253
 6633POPC   C3A23081  41.549   4.310   7.953
 6633POPC   C4A23082  41.557   4.299   7.653
 6633POPC   C1B23083  41.394   4.127   8.553
 6633POPC   C2B23084  41.312   4.154   8.253
 6633POPC   C3B23085  41.350   4.170   7.953
 6633POPC   C4B23086  41.350   4.221   7.653
 6634POPC   NC323087  13.675  39.226   9.453
 6634POPC   PO423088  13.618  39.209   9.153
 6634POPC   GL123089  13.591  39.267   8.853
 6634POPC   GL223090  13.758  39.157   8.853
 6634POPC   C1A23091  13.613  39.275   8.553
 6634POPC   D2A23092  13.664  39.219   8.253
 6634POPC   C3A23093  13.608  39.257   7.953
 6634POPC   C4A23094  13.635  39.237   7.653
 6634POPC   C1B23095  13.808  39.089   8.553
 6634POPC   C2B23096  13.853  39.098   8.253
 6634POPC   C3B23097  13.789  39.053   7.953
 6634POPC   C4B23098  13.781  39.023   7.653
 6635POPC   NC323099  27.602  22.919   9.453
 6635POPC   PO423100  27.579  22.945   9.153
 6635POPC   GL123101  27.580  22.898   8.853
 6635POPC   GL223102  27.479  22.866   8.853
 6635POPC   C1A23103  27.637  22.940   8.553
 6635POPC   D2A23104  27.564  22.930   8.253
 6635POPC   C3A23105  27.620  22.900   7.953
 6635POPC   C4A23106  27.547  22.907   7.653
 6635POPC   C1B23107  27.454  22.767   8.553
 6635POPC   C2B23108  27.494  22.774   8.253
 6635POPC   C3B23109  27.501  22.692   7.953
 6635POPC   C4B23110  27.488  22.749   7.653
 6636POPC   NC323111   5.902   5.829   9.453
 6636POPC   PO423112   5.825   5.899   9.153
 6636POPC   GL123113   5.845   5.862   8.853
 6636POPC   GL223114   5.750   5.874   8.853
 6636POPC   C1A23115   5.833   5.912   8.553
 6636POPC   D2A23116   5.906   5.883   8.253
 6636POPC   C3A23117   5.878   5.879   7.953
 6636POPC   C4A23118   5.869   5.874   7.653
 6636POPC   C1B23119   5.605   5.940   8.553
 6636POPC   C2B23120   5.626   5.916   8.253
 6636POPC   C3B23121   5.664   5.961   7.953
 6636POPC   C4B23122   5.657   5.964   7.653
 6637POPC   NC323123   6.674   5.047   9.453
 6637POPC   PO423124   6.656   5.098   9.153
 6637POPC   GL123125   6.619   5.053   8.853
 6637POPC   GL223126   6.723   5.244   8.853
 6637POPC   C1A23127   6.641   5.085   8.553
 6637POPC   D2A23128   6.649   5.099   8.253
 6637POPC   C3A23129   6.600   5.092   7.953
 6637POPC   C4A23130   6.678   5.083   7.653
 6637POPC   C1B23131   6.834   5.305   8.553
 6637POPC   C2B23132   6.769   5.318   8.253
 6637POPC   C3B23133   6.825   5.253   7.953
 6637POPC   C4B23134   6.747   5.273   7.653
 6638POPC   NC323135  12.850  11.328   9.453
 6638POPC   PO423136  12.807  11.319   9.153
 6638POPC   GL123137  12.872  11.331   8.853
 6638POPC   GL223138  12.768  11.343   8.853
 6638POPC   C1A23139  12.805  11.343   8.553
 6638POPC   D2A23140  12.827  11.324   8.253
 6638POPC   C3A23141  12.851  11.302   7.953
 6638POPC   C4A23142  12.853  11.275   7.653
 6638POPC   C1B23143  12.653  11.421   8.553
 6638POPC   C2B23144  12.672  11.435   8.253
 6638POPC   C3B23145  12.672  11.456   7.953
 6638POPC   C4B23146  12.643  11.471   7.653
 6639POPC   NC323147  44.652  16.718   9.453
 6639POPC   PO423148  44.673  16.724   9.153
 6639POPC   GL123149  44.675  16.697   8.853
 6639POPC   GL223150  44.764  16.781   8.853
 6639POPC   C1A23151  44.660  16.701   8.553
 6639POPC   D2A23152  44.706  16.709   8.253
 6639POPC   C3A23153  44.654  16.731   7.953
 6639POPC   C4A23154  44.631  16.683   7.653
 6639POPC   C1B23155  44.905  16.751   8.553
 6639POPC   C2B23156  44.873  16.819   8.253
 6639POPC   C3B23157  44.902  16.835   7.953
 6639POPC   C4B23158  44.921  16.817   7.653
 6640POPC   NC323159  40.793  22.203   9.453
 6640POPC   PO423160  40.740  22.173   9.153
 6640POPC   GL123161  40.786  22.182   8.853
 6640POPC   GL223162  40.869  22.184   8.853
 6640POPC   C1A23163  40.740  22.203   8.553
 6640POPC   D2A23164  40.789  22.160   8.253
 6640POPC   C3A23165  40.789  22.161   7.953
 6640POPC   C4A23166  40.805  22.202   7.653
 6640POPC   C1B23167  41.040  22.262   8.553
 6640POPC   C2B23168  40.978  22.274   8.253
 6640POPC   C3B23169  40.970  22.252   7.953
 6640POPC   C4B23170  40.982  22.256   7.653
 6641POPC   NC323171  14.418  37.715   9.453
 6641POPC   PO423172  14.440  37.670   9.153
 6641POPC   GL123173  14.409  37.636   8.853
 6641POPC   GL223174  14.371  37.517   8.853
 6641POPC   C1A23175  14.381  37.696   8.553
 6641POPC   D2A23176  14.363  37.683   8.253
 6641POPC   C3A23177  14.376  37.652   7.953
 6641POPC   C4A23178  14.404  37.673   7.653
 6641POPC   C1B23179  14.436  37.444   8.553
 6641POPC   C2B23180  14.417  37.451   8.253
 6641POPC   C3B23181  14.392  37.422   7.953
 6641POPC   C4B23182  14.414  37.428   7.653
 6642POPC   NC323183  26.777   5.131   9.453
 6642POPC   PO423184  26.821   5.086   9.153
 6642POPC   GL123185  26.862   5.103   8.853
 6642POPC   GL223186  26.954   5.200   8.853
 6642POPC   C1A23187  26.865   5.094   8.553
 6642POPC   D2A23188  26.820   5.097   8.253
 6642POPC   C3A23189  26.791   5.121   7.953
 6642POPC   C4A23190  26.803   5.082   7.653
 6642POPC   C1B23191  27.026   5.229   8.553
 6642POPC   C2B23192  26.988   5.259   8.253
 6642POPC   C3B23193  27.027   5.182   7.953
 6642POPC   C4B23194  26.983   5.211   7.653
 6643POPC   NC323195  22.206  23.734   9.453
 6643POPC   PO423196  22.128  23.693   9.153
 6643POPC   GL123197  22.137  23.700   8.853
 6643POPC   GL223198  22.122  23.859   8.853
 6643POPC   C1A23199  22.125  23.758   8.553
 6643POPC   D2A23200  22.180  23.735   8.253
 6643POPC   C3A23201  22.172  23.681   7.953
 6643POPC   C4A23202  22.118  23.670   7.653
 6643POPC   C1B23203  21.970  23.918   8.553
 6643POPC   C2B23204  21.962  23.938   8.253
 6643POPC   C3B23205  22.018  23.859   7.953
 6643POPC   C4B23206  22.011  23.929   7.653
 6644POPC   NC323207  17.483   5.874   9.453
 6644POPC   PO423208  17.486   5.872   9.153
 6644POPC   GL123209  17.489   5.879   8.853
 6644POPC   GL223210  17.430   5.724   8.853
 6644POPC   C1A23211  17.484   5.830   8.553
 6644POPC   D2A23212  17.517   5.847   8.253
 6644POPC   C3A23213  17.555   5.895   7.953
 6644POPC   C4A23214  17.522   5.833   7.653
 6644POPC   C1B23215  17.349   5.673   8.553
 6644POPC   C2B23216  17.405   5.611   8.253
 6644POPC   C3B23217  17.398   5.630   7.953
 6644POPC   C4B23218  17.384   5.618   7.653
 6645POPC   NC323219   0.419   1.194   9.453
 6645POPC   PO423220   0.420   1.212   9.153
 6645POPC   GL123221   0.449   1.262   8.853
 6645POPC   GL223222   0.362   1.347   8.853
 6645POPC   C1A23223   0.471   1.182   8.553
 6645POPC   D2A23224   0.426   1.202   8.253
 6645POPC   C3A23225   0.389   1.208   7.953
 6645POPC   C4A23226   0.415   1.184   7.653
 6645POPC   C1B23227   0.350   1.432   8.553
 6645POPC   C2B23228   0.348   1.460   8.253
 6645POPC   C3B23229   0.326   1.432   7.953
 6645POPC   C4B23230   0.304   1.426   7.653
 6646POPC   NC323231   2.755   0.465   9.453
 6646POPC   PO423232   2.750   0.467   9.153
 6646POPC   GL123233   2.805   0.409   8.853
 6646POPC   GL223234   2.711   0.484   8.853
 6646POPC   C1A23235   2.762   0.392   8.553
 6646POPC   D2A23236   2.796   0.391   8.253
 6646POPC   C3A23237   2.745   0.447   7.953
 6646POPC   C4A23238   2.729   0.390   7.653
 6646POPC   C1B23239   2.592   0.587   8.553
 6646POPC   C2B23240   2.550   0.576   8.253
 6646POPC   C3B23241   2.529   0.569   7.953
 6646POPC   C4B23242   2.563   0.598   7.653
 6647POPC   NC323243  26.082  24.480   9.453
 6647POPC   PO423244  26.044  24.521   9.153
 6647POPC   GL123245  26.069  24.511   8.853
 6647POPC   GL223246  26.007  24.417   8.853
 6647POPC   C1A23247  25.999  24.529   8.553
 6647POPC   D2A23248  26.020  24.502   8.253
 6647POPC   C3A23249  25.995  24.492   7.953
 6647POPC   C4A23250  26.059  24.491   7.653
 6647POPC   C1B23251  26.008  24.240   8.553
 6647POPC   C2B23252  25.995  24.291   8.253
 6647POPC   C3B23253  25.923  24.228   7.953
 6647POPC   C4B23254  25.928  24.204   7.653
 6648POPC   NC323255  32.212  32.982   9.453
 6648POPC   PO423256  32.199  33.035   9.153
 6648POPC   GL123257  32.207  33.000   8.853
 6648POPC   GL223258  32.342  33.054   8.853
 6648POPC   C1A23259  32.289  33.011   8.553
 6648POPC   D2A23260  32.286  33.058   8.253
 6648POPC   C3A23261  32.252  32.988   7.953
 6648POPC   C4A23262  32.257  33.025   7.653
 6648POPC   C1B23263  32.484  33.019   8.553
 6648POPC   C2B23264  32.456  33.074   8.253
 6648POPC   C3B23265  32.473  33.074   7.953
 6648POPC   C4B23266  32.450  33.035   7.653
 6649POPC   NC323267  39.264  38.466   9.453
 6649POPC   PO423268  39.240  38.441   9.153
 6649POPC   GL123269  39.234  38.504   8.853
 6649POPC   GL223270  39.231  38.534   8.853
 6649POPC   C1A23271  39.201  38.411   8.553
 6649POPC   D2A23272  39.272  38.465   8.253
 6649POPC   C3A23273  39.194  38.471   7.953
 6649POPC   C4A23274  39.273  38.462   7.653
 6649POPC   C1B23275  39.158  38.706   8.553
 6649POPC   C2B23276  39.197  38.702   8.253
 6649POPC   C3B23277  39.146  38.705   7.953
 6649POPC   C4B23278  39.231  38.708   7.653
 6650POPC   NC323279  12.853  41.549   9.453
 6650POPC   PO423280  12.894  41.582   9.153
 6650POPC   GL123281  12.892  41.599   8.853
 6650POPC   GL223282  12.699  41.592   8.853
 6650POPC   C1A23283  12.852  41.540   8.553
 6650POPC   D2A23284  12.827  41.581   8.253
 6650POPC   C3A23285  12.816  41.577   7.953
 6650POPC   C4A23286  12.848  41.577   7.653
 6650POPC   C1B23287  12.618  41.633   8.553
 6650POPC   C2B23288  12.618  41.679   8.253
 6650POPC   C3B23289  12.606  41.605   7.953
 6650POPC   C4B23290  12.614  41.679   7.653
 6651POPC   NC323291  29.184   5.098   9.453
 6651POPC   PO423292  29.178   5.129   9.153
 6651POPC   GL123293  29.157   5.101   8.853
 6651POPC   GL223294  28.973   5.099   8.853
 6651POPC   C1A23295  29.109   5.083   8.553
 6651POPC   D2A23296  29.147   5.119   8.253
 6651POPC   C3A23297  29.152   5.047   7.953
 6651POPC   C4A23298  29.101   5.129   7.653
 6651POPC   C1B23299  28.930   5.156   8.553
 6651POPC   C2B23300  28.922   5.136   8.253
 6651POPC   C3B23301  28.893   5.168   7.953
 6651POPC   C4B23302  28.858   5.119   7.653
 6652POPC   NC323303  20.612   8.208   9.453
 6652POPC   PO423304  20.643   8.175   9.153
 6652POPC   GL123305  20.638   8.178   8.853
 6652POPC   GL223306  20.519   8.317   8.853
 6652POPC   C1A23307  20.616   8.226   8.553
 6652POPC   D2A23308  20.583   8.182   8.253
 6652POPC   C3A23309  20.593   8.153   7.953
 6652POPC   C4A23310  20.618   8.164   7.653
 6652POPC   C1B23311  20.432   8.402   8.553
 6652POPC   C2B23312  20.438   8.420   8.253
 6652POPC   C3B23313  20.457   8.368   7.953
 6652POPC   C4B23314  20.425   8.441   7.653
 6653POPC   NC323315  26.037  37.702   9.453
 6653POPC   PO423316  25.993  37.648   9.153
 6653POPC   GL123317  26.031  37.712   8.853
 6653POPC   GL223318  26.203  37.771   8.853
 6653POPC   C1A23319  26.001  37.717   8.553
 6653POPC   D2A23320  26.077  37.690   8.253
 6653POPC   C3A23321  26.074  37.664   7.953
 6653POPC   C4A23322  26.059  37.632   7.653
 6653POPC   C1B23323  26.311  37.768   8.553
 6653POPC   C2B23324  26.287  37.771   8.253
 6653POPC   C3B23325  26.278  37.818   7.953
 6653POPC   C4B23326  26.240  37.755   7.653
 6654POPC   NC323327  31.432  28.374   9.453
 6654POPC   PO423328  31.496  28.373   9.153
 6654POPC   GL123329  31.446  28.387   8.853
 6654POPC   GL223330  31.417  28.289   8.853
 6654POPC   C1A23331  31.522  28.349   8.553
 6654POPC   D2A23332  31.445  28.375   8.253
 6654POPC   C3A23333  31.503  28.412   7.953
 6654POPC   C4A23334  31.517  28.345   7.653
 6654POPC   C1B23335  31.500  28.159   8.553
 6654POPC   C2B23336  31.499  28.144   8.253
 6654POPC   C3B23337  31.422  28.159   7.953
 6654POPC   C4B23338  31.421  28.079   7.653
 6655POPC   NC323339   0.466  14.390   9.453
 6655POPC   PO423340   0.390  14.443   9.153
 6655POPC   GL123341   0.488  14.392   8.853
 6655POPC   GL223342   0.535  14.380   8.853
 6655POPC   C1A23343   0.440  14.428   8.553
 6655POPC   D2A23344   0.411  14.447   8.253
 6655POPC   C3A23345   0.397  14.370   7.953
 6655POPC   C4A23346   0.480  14.400   7.653
 6655POPC   C1B23347   0.674  14.247   8.553
 6655POPC   C2B23348   0.679  14.240   8.253
 6655POPC   C3B23349   0.679  14.233   7.953
 6655POPC   C4B23350   0.681  14.251   7.653
 6656POPC   NC323351   5.066  40.020   9.453
 6656POPC   PO423352   5.116  39.995   9.153
 6656POPC   GL123353   5.128  40.048   8.853
 6656POPC   GL223354   4.973  40.053   8.853
 6656POPC   C1A23355   5.139  40.056   8.553
 6656POPC   D2A23356   5.078  40.036   8.253
 6656POPC   C3A23357   5.101  40.000   7.953
 6656POPC   C4A23358   5.044  40.028   7.653
 6656POPC   C1B23359   4.859  40.161   8.553
 6656POPC   C2B23360   4.893  40.193   8.253
 6656POPC   C3B23361   4.909  40.180   7.953
 6656POPC   C4B23362   4.867  40.111   7.653
 6657POPC   NC323363   8.931  36.172   9.453
 6657POPC   PO423364   8.967  36.155   9.153
 6657POPC   GL123365   9.022  36.154   8.853
 6657POPC   GL223366   8.874  36.195   8.853
 6657POPC   C1A23367   8.955  36.116   8.553
 6657POPC   D2A23368   8.934  36.163   8.253
 6657POPC   C3A23369   9.008  36.121   7.953
 6657POPC   C4A23370   8.954  36.139   7.653
 6657POPC   C1B23371   8.854  36.354   8.553
 6657POPC   C2B23372   8.830  36.276   8.253
 6657POPC   C3B23373   8.839  36.264   7.953
 6657POPC   C4B23374   8.819  36.312   7.653
 6658POPC   NC323375  35.387   0.457   9.453
 6658POPC   PO423376  35.337   0.388   9.153
 6658POPC   GL123377  35.352   0.403   8.853
 6658POPC   GL223378  35.295   0.575   8.853
 6658POPC   C1A23379  35.348   0.478   8.553
 6658POPC   D2A23380  35.304   0.480   8.253
 6658POPC   C3A23381  35.317   0.465   7.953
 6658POPC   C4A23382  35.330   0.449   7.653
 6658POPC   C1B23383  35.346   0.710   8.553
 6658POPC   C2B23384  35.353   0.674   8.253
 6658POPC   C3B23385  35.279   0.655   7.953
 6658POPC   C4B23386  35.307   0.697   7.653
 6659POPC   NC323387  26.020  22.976   9.453
 6659POPC   PO423388  26.004  22.918   9.153
 6659POPC   GL123389  26.068  22.925   8.853
 6659POPC   GL223390  26.003  22.795   8.853
 6659POPC   C1A23391  26.010  22.932   8.553
 6659POPC   D2A23392  26.077  22.938   8.253
 6659POPC   C3A23393  26.025  22.939   7.953
 6659POPC   C4A23394  26.057  22.929   7.653
 6659POPC   C1B23395  26.042  22.707   8.553
 6659POPC   C2B23396  26.013  22.681   8.253
 6659POPC   C3B23397  25.978  22.689   7.953
 6659POPC   C4B23398  25.988  22.679   7.653
 6660POPC   NC323399   6.678  17.546   9.453
 6660POPC   PO423400   6.599  17.464   9.153
 6660POPC   GL123401   6.682  17.515   8.853
 6660POPC   GL223402   6.640  17.632   8.853
 6660POPC   C1A23403   6.686  17.482   8.553
 6660POPC   D2A23404   6.651  17.508   8.253
 6660POPC   C3A23405   6.684  17.494   7.953
 6660POPC   C4A23406   6.681  17.531   7.653
 6660POPC   C1B23407   6.662  17.775   8.553
 6660POPC   C2B23408   6.713  17.738   8.253
 6660POPC   C3B23409   6.734  17.782   7.953
 6660POPC   C4B23410   6.667  17.765   7.653
 6661POPC   NC323411   5.049  33.791   9.453
 6661POPC   PO423412   5.069  33.837   9.153
 6661POPC   GL123413   5.124  33.788   8.853
 6661POPC   GL223414   5.088  33.969   8.853
 6661POPC   C1A23415   5.129  33.845   8.553
 6661POPC   D2A23416   5.047  33.845   8.253
 6661POPC   C3A23417   5.128  33.848   7.953
 6661POPC   C4A23418   5.134  33.840   7.653
 6661POPC   C1B23419   5.031  34.000   8.553
 6661POPC   C2B23420   5.058  34.051   8.253
 6661POPC   C3B23421   5.038  34.087   7.953
 6661POPC   C4B23422   5.035  34.074   7.653
 6662POPC   NC323423  15.929  36.101   9.453
 6662POPC   PO423424  15.970  36.148   9.153
 6662POPC   GL123425  15.971  36.149   8.853
 6662POPC   GL223426  15.849  36.037   8.853
 6662POPC   C1A23427  15.973  36.084   8.553
 6662POPC   D2A23428  15.985  36.115   8.253
 6662POPC   C3A23429  15.996  36.120   7.953
 6662POPC   C4A23430  15.996  36.092   7.653
 6662POPC   C1B23431  15.768  35.904   8.553
 6662POPC   C2B23432  15.837  35.965   8.253
 6662POPC   C3B23433  15.841  35.897   7.953
 6662POPC   C4B23434  15.851  35.907   7.653
 6663POPC   NC323435  17.526  36.953   9.453
 6663POPC   PO423436  17.535  36.897   9.153
 6663POPC   GL123437  17.475  36.921   8.853
 6663POPC   GL223438  17.495  37.024   8.853
 6663POPC   C1A23439  17.499  36.895   8.553
 6663POPC   D2A23440  17.531  36.953   8.253
 6663POPC   C3A23441  17.501  36.927   7.953
 6663POPC   C4A23442  17.481  36.879   7.653
 6663POPC   C1B23443  17.426  37.151   8.553
 6663POPC   C2B23444  17.416  37.139   8.253
 6663POPC   C3B23445  17.469  37.169   7.953
 6663POPC   C4B23446  17.406  37.121   7.653
 6664POPC   NC323447   0.404  15.938   9.453
 6664POPC   PO423448   0.406  15.985   9.153
 6664POPC   GL123449   0.442  15.910   8.853
 6664POPC   GL223450   0.449  15.828   8.853
 6664POPC   C1A23451   0.401  15.963   8.553
 6664POPC   D2A23452   0.410  15.906   8.253
 6664POPC   C3A23453   0.436  15.930   7.953
 6664POPC   C4A23454   0.426  15.956   7.653
 6664POPC   C1B23455   0.485  15.701   8.553
 6664POPC   C2B23456   0.498  15.690   8.253
 6664POPC   C3B23457   0.430  15.750   7.953
 6664POPC   C4B23458   0.455  15.724   7.653
 6665POPC   NC323459  44.697  36.930   9.453
 6665POPC   PO423460  44.663  36.921   9.153
 6665POPC   GL123461  44.668  36.907   8.853
 6665POPC   GL223462  44.550  36.922   8.853
 6665POPC   C1A23463  44.662  36.913   8.553
 6665POPC   D2A23464  44.675  36.894   8.253
 6665POPC   C3A23465  44.649  36.922   7.953
 6665POPC   C4A23466  44.652  36.856   7.653
 6665POPC   C1B23467  44.413  37.054   8.553
 6665POPC   C2B23468  44.409  37.012   8.253
 6665POPC   C3B23469  44.449  37.027   7.953
 6665POPC   C4B23470  44.416  37.035   7.653
 6666POPC   NC323471  21.365   4.299   9.453
 6666POPC   PO423472  21.403   4.304   9.153
 6666POPC   GL123473  21.435   4.313   8.853
 6666POPC   GL223474  21.352   4.461   8.853
 6666POPC   C1A23475  21.403   4.268   8.553
 6666POPC   D2A23476  21.361   4.329   8.253
 6666POPC   C3A23477  21.344   4.276   7.953
 6666POPC   C4A23478  21.411   4.319   7.653
 6666POPC   C1B23479  21.422   4.522   8.553
 6666POPC   C2B23480  21.367   4.571   8.253
 6666POPC   C3B23481  21.383   4.588   7.953
 6666POPC   C4B23482  21.364   4.574   7.653
 6667POPC   NC323483  32.234  41.584   9.453
 6667POPC   PO423484  32.225  41.584   9.153
 6667POPC   GL123485  32.254  41.534   8.853
 6667POPC   GL223486  32.313  41.522   8.853
 6667POPC   C1A23487  32.254  41.536   8.553
 6667POPC   D2A23488  32.225  41.585   8.253
 6667POPC   C3A23489  32.275  41.548   7.953
 6667POPC   C4A23490  32.270  41.568   7.653
 6667POPC   C1B23491  32.433  41.420   8.553
 6667POPC   C2B23492  32.464  41.436   8.253
 6667POPC   C3B23493  32.470  41.378   7.953
 6667POPC   C4B23494  32.472  41.369   7.653
 6668POPC   NC323495  26.027  22.206   9.453
 6668POPC   PO423496  26.019  22.143   9.153
 6668POPC   GL123497  26.037  22.142   8.853
 6668POPC   GL223498  25.967  22.161   8.853
 6668POPC   C1A23499  26.038  22.157   8.553
 6668POPC   D2A23500  26.005  22.181   8.253
 6668POPC   C3A23501  26.015  22.160   7.953
 6668POPC   C4A23502  26.029  22.196   7.653
 6668POPC   C1B23503  25.797  22.198   8.553
 6668POPC   C2B23504  25.840  22.201   8.253
 6668POPC   C3B23505  25.809  22.169   7.953
 6668POPC   C4B23506  25.788  22.192   7.653
 6669POPC   NC323507  13.662  19.019   9.453
 6669POPC   PO423508  13.645  19.042   9.153
 6669POPC   GL123509  13.647  19.081   8.853
 6669POPC   GL223510  13.750  19.139   8.853
 6669POPC   C1A23511  13.606  19.009   8.553
 6669POPC   D2A23512  13.649  19.019   8.253
 6669POPC   C3A23513  13.638  19.086   7.953
 6669POPC   C4A23514  13.646  19.067   7.653
 6669POPC   C1B23515  13.792  19.261   8.553
 6669POPC   C2B23516  13.790  19.221   8.253
 6669POPC   C3B23517  13.812  19.296   7.953
 6669POPC   C4B23518  13.763  19.249   7.653
 6670POPC   NC323519  33.778   3.561   9.453
 6670POPC   PO423520  33.816   3.510   9.153
 6670POPC   GL123521  33.766   3.581   8.853
 6670POPC   GL223522  33.795   3.637   8.853
 6670POPC   C1A23523  33.783   3.539   8.553
 6670POPC   D2A23524  33.750   3.526   8.253
 6670POPC   C3A23525  33.821   3.586   7.953
 6670POPC   C4A23526  33.837   3.492   7.653
 6670POPC   C1B23527  33.695   3.757   8.553
 6670POPC   C2B23528  33.791   3.748   8.253
 6670POPC   C3B23529  33.706   3.758   7.953
 6670POPC   C4B23530  33.761   3.735   7.653
 6671POPC   NC323531  17.516  43.126   9.453
 6671POPC   PO423532  17.514  43.142   9.153
 6671POPC   GL123533  17.528  43.155   8.853
 6671POPC   GL223534  17.658  43.118   8.853
 6671POPC   C1A23535  17.500  43.138   8.553
 6671POPC   D2A23536  17.523  43.137   8.253
 6671POPC   C3A23537  17.514  43.092   7.953
 6671POPC   C4A23538  17.553  43.116   7.653
 6671POPC   C1B23539  17.770  43.066   8.553
 6671POPC   C2B23540  17.780  43.020   8.253
 6671POPC   C3B23541  17.754  43.028   7.953
 6671POPC   C4B23542  17.750  43.026   7.653
 6672POPC   NC323543   9.717  15.906   9.453
 6672POPC   PO423544   9.783  15.979   9.153
 6672POPC   GL123545   9.737  16.003   8.853
 6672POPC   GL223546   9.802  15.805   8.853
 6672POPC   C1A23547   9.726  15.924   8.553
 6672POPC   D2A23548   9.708  15.990   8.253
 6672POPC   C3A23549   9.789  15.996   7.953
 6672POPC   C4A23550   9.726  15.965   7.653
 6672POPC   C1B23551   9.829  15.730   8.553
 6672POPC   C2B23552   9.849  15.741   8.253
 6672POPC   C3B23553   9.827  15.714   7.953
 6672POPC   C4B23554   9.846  15.776   7.653
 6673POPC   NC323555   7.398  19.822   9.453
 6673POPC   PO423556   7.407  19.809   9.153
 6673POPC   GL123557   7.462  19.867   8.853
 6673POPC   GL223558   7.418  19.915   8.853
 6673POPC   C1A23559   7.463  19.800   8.553
 6673POPC   D2A23560   7.450  19.800   8.253
 6673POPC   C3A23561   7.400  19.814   7.953
 6673POPC   C4A23562   7.430  19.842   7.653
 6673POPC   C1B23563   7.426  20.050   8.553
 6673POPC   C2B23564   7.444  20.102   8.253
 6673POPC   C3B23565   7.355  20.050   7.953
 6673POPC   C4B23566   7.354  20.121   7.653
 6674POPC   NC323567   6.639  12.899   9.453
 6674POPC   PO423568   6.670  12.823   9.153
 6674POPC   GL123569   6.606  12.803   8.853
 6674POPC   GL223570   6.804  12.826   8.853
 6674POPC   C1A23571   6.618  12.887   8.553
 6674POPC   D2A23572   6.684  12.832   8.253
 6674POPC   C3A23573   6.651  12.829   7.953
 6674POPC   C4A23574   6.656  12.865   7.653
 6674POPC   C1B23575   6.895  12.868   8.553
 6674POPC   C2B23576   6.931  12.889   8.253
 6674POPC   C3B23577   6.883  12.848   7.953
 6674POPC   C4B23578   6.854  12.847   7.653
 6675POPC   NC323579  19.073  44.653   9.453
 6675POPC   PO423580  19.015  44.637   9.153
 6675POPC   GL123581  19.053  44.688   8.853
 6675POPC   GL223582  18.913  44.660   8.853
 6675POPC   C1A23583  19.066  44.614   8.553
 6675POPC   D2A23584  19.067  44.663   8.253
 6675POPC   C3A23585  19.083  44.705   7.953
 6675POPC   C4A23586  19.075  44.673   7.653
 6675POPC   C1B23587  18.835  44.618   8.553
 6675POPC   C2B23588  18.769  44.600   8.253
 6675POPC   C3B23589  18.774  44.606   7.953
 6675POPC   C4B23590  18.819  44.622   7.653
 6676POPC   NC323591  26.030  12.029   9.453
 6676POPC   PO423592  26.090  12.058   9.153
 6676POPC   GL123593  26.016  12.072   8.853
 6676POPC   GL223594  25.906  12.050   8.853
 6676POPC   C1A23595  26.077  12.050   8.553
 6676POPC   D2A23596  26.024  12.102   8.253
 6676POPC   C3A23597  25.998  12.112   7.953
 6676POPC   C4A23598  26.044  12.108   7.653
 6676POPC   C1B23599  25.817  11.997   8.553
 6676POPC   C2B23600  25.852  11.976   8.253
 6676POPC   C3B23601  25.792  11.984   7.953
 6676POPC   C4B23602  25.841  12.009   7.653
 6677POPC   NC323603   0.439  40.038   9.453
 6677POPC   PO423604   0.462  40.023   9.153
 6677POPC   GL123605   0.480  40.002   8.853
 6677POPC   GL223606   0.503  39.934   8.853
 6677POPC   C1A23607   0.479  40.000   8.553
 6677POPC   D2A23608   0.460  39.966   8.253
 6677POPC   C3A23609   0.422  40.015   7.953
 6677POPC   C4A23610   0.456  39.989   7.653
 6677POPC   C1B23611   0.674  39.950   8.553
 6677POPC   C2B23612   0.677  39.908   8.253
 6677POPC   C3B23613   0.680  39.941   7.953
 6677POPC   C4B23614   0.689  39.878   7.653
 6678POPC   NC323615  15.224   1.166   9.453
 6678POPC   PO423616  15.225   1.185   9.153
 6678POPC   GL123617  15.190   1.250   8.853
 6678POPC   GL223618  15.311   1.257   8.853
 6678POPC   C1A23619  15.159   1.186   8.553
 6678POPC   D2A23620  15.184   1.184   8.253
 6678POPC   C3A23621  15.213   1.207   7.953
 6678POPC   C4A23622  15.180   1.173   7.653
 6678POPC   C1B23623  15.456   1.244   8.553
 6678POPC   C2B23624  15.392   1.249   8.253
 6678POPC   C3B23625  15.393   1.228   7.953
 6678POPC   C4B23626  15.456   1.193   7.653
 6679POPC   NC323627  12.814  10.519   9.453
 6679POPC   PO423628  12.887  10.491   9.153
 6679POPC   GL123629  12.802  10.544   8.853
 6679POPC   GL223630  13.006  10.563   8.853
 6679POPC   C1A23631  12.872  10.527   8.553
 6679POPC   D2A23632  12.899  10.574   8.253
 6679POPC   C3A23633  12.857  10.520   7.953
 6679POPC   C4A23634  12.802  10.543   7.653
 6679POPC   C1B23635  13.055  10.646   8.553
 6679POPC   C2B23636  13.115  10.583   8.253
 6679POPC   C3B23637  13.124  10.564   7.953
 6679POPC   C4B23638  13.063  10.617   7.653
 6680POPC   NC323639  13.657   6.655   9.453
 6680POPC   PO423640  13.604   6.636   9.153
 6680POPC   GL123641  13.666   6.606   8.853
 6680POPC   GL223642  13.749   6.607   8.853
 6680POPC   C1A23643  13.629   6.611   8.553
 6680POPC   D2A23644  13.649   6.647   8.253
 6680POPC   C3A23645  13.638   6.597   7.953
 6680POPC   C4A23646  13.667   6.618   7.653
 6680POPC   C1B23647  13.898   6.694   8.553
 6680POPC   C2B23648  13.923   6.707   8.253
 6680POPC   C3B23649  13.842   6.672   7.953
 6680POPC   C4B23650  13.882   6.677   7.653
 6681POPC   NC323651   5.857  36.864   9.453
 6681POPC   PO423652   5.866  36.899   9.153
 6681POPC   GL123653   5.913  36.860   8.853
 6681POPC   GL223654   5.799  36.832   8.853
 6681POPC   C1A23655   5.916  36.881   8.553
 6681POPC   D2A23656   5.898  36.929   8.253
 6681POPC   C3A23657   5.875  36.872   7.953
 6681POPC   C4A23658   5.878  36.879   7.653
 6681POPC   C1B23659   5.828  36.649   8.553
 6681POPC   C2B23660   5.748  36.694   8.253
 6681POPC   C3B23661   5.804  36.649   7.953
 6681POPC   C4B23662   5.764  36.651   7.653
 6682POPC   NC323663  43.864  18.304   9.453
 6682POPC   PO423664  43.919  18.253   9.153
 6682POPC   GL123665  43.923  18.257   8.853
 6682POPC   GL223666  43.957  18.340   8.853
 6682POPC   C1A23667  43.839  18.242   8.553
 6682POPC   D2A23668  43.901  18.284   8.253
 6682POPC   C3A23669  43.927  18.240   7.953
 6682POPC   C4A23670  43.913  18.240   7.653
 6682POPC   C1B23671  44.115  18.400   8.553
 6682POPC   C2B23672  44.056  18.403   8.253
 6682POPC   C3B23673  44.027  18.405   7.953
 6682POPC   C4B23674  44.053  18.473   7.653
 6683POPC   NC323675   8.971  27.626   9.453
 6683POPC   PO423676   9.009  27.577   9.153
 6683POPC   GL123677   8.960  27.609   8.853
 6683POPC   GL223678   9.046  27.461   8.853
 6683POPC   C1A23679   8.985  27.593   8.553
 6683POPC   D2A23680   9.016  27.629   8.253
 6683POPC   C3A23681   8.970  27.569   7.953
 6683POPC   C4A23682   9.009  27.561   7.653
 6683POPC   C1B23683   9.037  27.404   8.553
 6683POPC   C2B23684   9.034  27.384   8.253
 6683POPC   C3B23685   9.100  27.394   7.953
 6683POPC   C4B23686   9.059  27.344   7.653
 6684POPC   NC323687  27.571   0.397   9.453
 6684POPC   PO423688  27.632   0.419   9.153
 6684POPC   GL123689  27.562   0.453   8.853
 6684POPC   GL223690  27.622   0.491   8.853
 6684POPC   C1A23691  27.632   0.465   8.553
 6684POPC   D2A23692  27.615   0.403   8.253
 6684POPC   C3A23693  27.558   0.393   7.953
 6684POPC   C4A23694  27.619   0.463   7.653
 6684POPC   C1B23695  27.784   0.631   8.553
 6684POPC   C2B23696  27.733   0.604   8.253
 6684POPC   C3B23697  27.785   0.661   7.953
 6684POPC   C4B23698  27.776   0.661   7.653
 6685POPC   NC323699  16.694  17.532   9.453
 6685POPC   PO423700  16.721  17.539   9.153
 6685POPC   GL123701  16.760  17.539   8.853
 6685POPC   GL223702  16.597  17.506   8.853
 6685POPC   C1A23703  16.728  17.493   8.553
 6685POPC   D2A23704  16.715  17.533   8.253
 6685POPC   C3A23705  16.767  17.459   7.953
 6685POPC   C4A23706  16.739  17.477   7.653
 6685POPC   C1B23707  16.479  17.619   8.553
 6685POPC   C2B23708  16.539  17.592   8.253
 6685POPC   C3B23709  16.511  17.527   7.953
 6685POPC   C4B23710  16.466  17.566   7.653
 6686POPC   NC323711  25.287  22.205   9.453
 6686POPC   PO423712  25.266  22.154   9.153
 6686POPC   GL123713  25.294  22.126   8.853
 6686POPC   GL223714  25.356  22.085   8.853
 6686POPC   C1A23715  25.304  22.189   8.553
 6686POPC   D2A23716  25.221  22.194   8.253
 6686POPC   C3A23717  25.216  22.202   7.953
 6686POPC   C4A23718  25.267  22.118   7.653
 6686POPC   C1B23719  25.492  22.076   8.553
 6686POPC   C2B23720  25.482  22.080   8.253
 6686POPC   C3B23721  25.458  22.071   7.953
 6686POPC   C4B23722  25.537  22.117   7.653
 6687POPC   NC323723  21.415  24.474   9.453
 6687POPC   PO423724  21.402  24.517   9.153
 6687POPC   GL123725  21.357  24.462   8.853
 6687POPC   GL223726  21.399  24.593   8.853
 6687POPC   C1A23727  21.350  24.470   8.553
 6687POPC   D2A23728  21.382  24.529   8.253
 6687POPC   C3A23729  21.426  24.531   7.953
 6687POPC   C4A23730  21.374  24.529   7.653
 6687POPC   C1B23731  21.431  24.722   8.553
 6687POPC   C2B23732  21.390  24.726   8.253
 6687POPC   C3B23733  21.384  24.746   7.953
 6687POPC   C4B23734  21.394  24.713   7.653
 6688POPC   NC323735  26.815   3.558   9.453
 6688POPC   PO423736  26.836   3.532   9.153
 6688POPC   GL123737  26.861   3.580   8.853
 6688POPC   GL223738  26.800   3.708   8.853
 6688POPC   C1A23739  26.855   3.576   8.553
 6688POPC   D2A23740  26.836   3.513   8.253
 6688POPC   C3A23741  26.789   3.531   7.953
 6688POPC   C4A23742  26.807   3.496   7.653
 6688POPC   C1B23743  26.742   3.759   8.553
 6688POPC   C2B23744  26.724   3.828   8.253
 6688POPC   C3B23745  26.700   3.729   7.953
 6688POPC   C4B23746  26.752   3.744   7.653
 6689POPC   NC323747   5.077  42.336   9.453
 6689POPC   PO423748   5.099  42.348   9.153
 6689POPC   GL123749   5.124  42.304   8.853
 6689POPC   GL223750   5.156  42.297   8.853
 6689POPC   C1A23751   5.131  42.331   8.553
 6689POPC   D2A23752   5.058  42.348   8.253
 6689POPC   C3A23753   5.091  42.305   7.953
 6689POPC   C4A23754   5.044  42.286   7.653
 6689POPC   C1B23755   5.253  42.219   8.553
 6689POPC   C2B23756   5.306  42.203   8.253
 6689POPC   C3B23757   5.279  42.177   7.953
 6689POPC   C4B23758   5.238  42.215   7.653
 6690POPC   NC323759  19.847  33.031   9.453
 6690POPC   PO423760  19.829  33.004   9.153
 6690POPC   GL123761  19.807  33.061   8.853
 6690POPC   GL223762  19.825  33.130   8.853
 6690POPC   C1A23763  19.826  33.031   8.553
 6690POPC   D2A23764  19.860  33.035   8.253
 6690POPC   C3A23765  19.807  33.014   7.953
 6690POPC   C4A23766  19.878  33.046   7.653
 6690POPC   C1B23767  19.705  33.299   8.553
 6690POPC   C2B23768  19.760  33.295   8.253
 6690POPC   C3B23769  19.758  33.240   7.953
 6690POPC   C4B23770  19.801  33.249   7.653
 6691POPC   NC323771  24.530   2.815   9.453
 6691POPC   PO423772  24.479   2.743   9.153
 6691POPC   GL123773  24.505   2.772   8.853
 6691POPC   GL223774  24.630   2.761   8.853
 6691POPC   C1A23775  24.518   2.758   8.553
 6691POPC   D2A23776  24.448   2.749   8.253
 6691POPC   C3A23777  24.533   2.753   7.953
 6691POPC   C4A23778  24.521   2.731   7.653
 6691POPC   C1B23779  24.715   2.852   8.553
 6691POPC   C2B23780  24.785   2.826   8.253
 6691POPC   C3B23781  24.696   2.764   7.953
 6691POPC   C4B23782  24.693   2.841   7.653
 6692POPC   NC323783   8.941   6.604   9.453
 6692POPC   PO423784   9.013   6.626   9.153
 6692POPC   GL123785   8.930   6.599   8.853
 6692POPC   GL223786   8.904   6.577   8.853
 6692POPC   C1A23787   8.993   6.668   8.553
 6692POPC   D2A23788   9.013   6.622   8.253
 6692POPC   C3A23789   9.020   6.667   7.953
 6692POPC   C4A23790   8.950   6.628   7.653
 6692POPC   C1B23791   8.824   6.447   8.553
 6692POPC   C2B23792   8.819   6.471   8.253
 6692POPC   C3B23793   8.861   6.432   7.953
 6692POPC   C4B23794   8.830   6.405   7.653
 6693POPC   NC323795  25.282  44.682   9.453
 6693POPC   PO423796  25.218  44.620   9.153
 6693POPC   GL123797  25.302  44.645   8.853
 6693POPC   GL223798  25.359  44.676   8.853
 6693POPC   C1A23799  25.314  44.659   8.553
 6693POPC   D2A23800  25.279  44.624   8.253
 6693POPC   C3A23801  25.223  44.697   7.953
 6693POPC   C4A23802  25.267  44.652   7.653
 6693POPC   C1B23803  25.516  44.736   8.553
 6693POPC   C2B23804  25.514  44.735   8.253
 6693POPC   C3B23805  25.472  44.756   7.953
 6693POPC   C4B23806  25.492  44.798   7.653
 6694POPC   NC323807  43.064   7.432   9.453
 6694POPC   PO423808  43.065   7.371   9.153
 6694POPC   GL123809  43.087   7.394   8.853
 6694POPC   GL223810  43.200   7.437   8.853
 6694POPC   C1A23811  43.146   7.381   8.553
 6694POPC   D2A23812  43.143   7.468   8.253
 6694POPC   C3A23813  43.155   7.395   7.953
 6694POPC   C4A23814  43.135   7.404   7.653
 6694POPC   C1B23815  43.347   7.420   8.553
 6694POPC   C2B23816  43.388   7.387   8.253
 6694POPC   C3B23817  43.348   7.467   7.953
 6694POPC   C4B23818  43.349   7.409   7.653
 6695POPC   NC323819   6.622  29.923   9.453
 6695POPC   PO423820   6.652  29.893   9.153
 6695POPC   GL123821   6.691  29.913   8.853
 6695POPC   GL223822   6.563  30.056   8.853
 6695POPC   C1A23823   6.689  29.932   8.553
 6695POPC   D2A23824   6.609  29.956   8.253
 6695POPC   C3A23825   6.678  29.933   7.953
 6695POPC   C4A23826   6.664  29.943   7.653
 6695POPC   C1B23827   6.523  30.173   8.553
 6695POPC   C2B23828   6.501  30.125   8.253
 6695POPC   C3B23829   6.549  30.141   7.953
 6695POPC   C4B23830   6.524  30.165   7.653
 6696POPC   NC323831   7.416  21.343   9.453
 6696POPC   PO423832   7.390  21.403   9.153
 6696POPC   GL123833   7.413  21.363   8.853
 6696POPC   GL223834   7.346  21.361   8.853
 6696POPC   C1A23835   7.446  21.370   8.553
 6696POPC   D2A23836   7.383  21.344   8.253
 6696POPC   C3A23837   7.430  21.422   7.953
 6696POPC   C4A23838   7.426  21.367   7.653
 6696POPC   C1B23839   7.213  21.351   8.553
 6696POPC   C2B23840   7.222  21.313   8.253
 6696POPC   C3B23841   7.222  21.275   7.953
 6696POPC   C4B23842   7.156  21.357   7.653
 6697POPC   NC323843  44.633   8.179   9.453
 6697POPC   PO423844  44.615   8.230   9.153
 6697POPC   GL123845  44.681   8.228   8.853
 6697POPC   GL223846  44.614   8.284   8.853
 6697POPC   C1A23847  44.697   8.207   8.553
 6697POPC   D2A23848  44.667   8.237   8.253
 6697POPC   C3A23849  44.623   8.233   7.953
 6697POPC   C4A23850  44.687   8.236   7.653
 6697POPC   C1B23851  44.499   8.455   8.553
 6697POPC   C2B23852  44.505   8.450   8.253
 6697POPC   C3B23853  44.553   8.414   7.953
 6697POPC   C4B23854  44.514   8.450   7.653
 6698POPC   NC323855   4.282  40.017   9.453
 6698POPC   PO423856   4.268  40.018   9.153
 6698POPC   GL123857   4.316  40.030   8.853
 6698POPC   GL223858   4.399  40.053   8.853
 6698POPC   C1A23859   4.313  39.964   8.553
 6698POPC   D2A23860   4.318  40.014   8.253
 6698POPC   C3A23861   4.309  39.998   7.953
 6698POPC   C4A23862   4.327  39.985   7.653
 6698POPC   C1B23863   4.557  40.062   8.553
 6698POPC   C2B23864   4.559  40.052   8.253
 6698POPC   C3B23865   4.567  40.078   7.953
 6698POPC   C4B23866   4.524  40.071   7.653
 6699POPC   NC323867   0.453  13.616   9.453
 6699POPC   PO423868   0.421  13.627   9.153
 6699POPC   GL123869   0.476  13.609   8.853
 6699POPC   GL223870   0.305  13.695   8.853
 6699POPC   C1A23871   0.393  13.647   8.553
 6699POPC   D2A23872   0.436  13.593   8.253
 6699POPC   C3A23873   0.443  13.608   7.953
 6699POPC   C4A23874   0.408  13.606   7.653
 6699POPC   C1B23875   0.227  13.821   8.553
 6699POPC   C2B23876   0.233  13.740   8.253
 6699POPC   C3B23877   0.279  13.775   7.953
 6699POPC   C4B23878   0.280  13.755   7.653
 6700POPC   NC323879  21.428   3.579   9.453
 6700POPC   PO423880  21.377   3.492   9.153
 6700POPC   GL123881  21.338   3.586   8.853
 6700POPC   GL223882  21.313   3.441   8.853
 6700POPC   C1A23883  21.363   3.565   8.553
 6700POPC   D2A23884  21.347   3.492   8.253
 6700POPC   C3A23885  21.409   3.531   7.953
 6700POPC   C4A23886  21.362   3.531   7.653
 6700POPC   C1B23887  21.304   3.263   8.553
 6700POPC   C2B23888  21.294   3.268   8.253
 6700POPC   C3B23889  21.328   3.304   7.953
 6700POPC   C4B23890  21.320   3.348   7.653
 6701POPC   NC323891  12.040  19.802   9.453
 6701POPC   PO423892  12.064  19.800   9.153
 6701POPC   GL123893  12.027  19.835   8.853
 6701POPC   GL223894  12.039  19.697   8.853
 6701POPC   C1A23895  12.108  19.826   8.553
 6701POPC   D2A23896  12.067  19.820   8.253
 6701POPC   C3A23897  12.067  19.876   7.953
 6701POPC   C4A23898  12.078  19.834   7.653
 6701POPC   C1B23899  12.088  19.546   8.553
 6701POPC   C2B23900  12.016  19.545   8.253
 6701POPC   C3B23901  12.043  19.607   7.953
 6701POPC   C4B23902  12.024  19.561   7.653
 6702POPC   NC323903  36.145   2.737   9.453
 6702POPC   PO423904  36.174   2.750   9.153
 6702POPC   GL123905  36.078   2.788   8.853
 6702POPC   GL223906  36.043   2.774   8.853
 6702POPC   C1A23907  36.110   2.767   8.553
 6702POPC   D2A23908  36.122   2.809   8.253
 6702POPC   C3A23909  36.112   2.730   7.953
 6702POPC   C4A23910  36.078   2.720   7.653
 6702POPC   C1B23911  35.877   2.850   8.553
 6702POPC   C2B23912  35.929   2.864   8.253
 6702POPC   C3B23913  35.929   2.787   7.953
 6702POPC   C4B23914  35.882   2.840   7.653
 6703POPC   NC323915   8.219  16.718   9.453
 6703POPC   PO423916   8.186  16.702   9.153
 6703POPC   GL123917   8.201  16.706   8.853
 6703POPC   GL223918   8.268  16.662   8.853
 6703POPC   C1A23919   8.198  16.698   8.553
 6703POPC   D2A23920   8.221  16.705   8.253
 6703POPC   C3A23921   8.161  16.688   7.953
 6703POPC   C4A23922   8.205  16.743   7.653
 6703POPC   C1B23923   8.390  16.685   8.553
 6703POPC   C2B23924   8.476  16.692   8.253
 6703POPC   C3B23925   8.413  16.623   7.953
 6703POPC   C4B23926   8.434  16.641   7.653
 6704POPC   NC323927  32.975  29.122   9.453
 6704POPC   PO423928  33.032  29.112   9.153
 6704POPC   GL123929  32.997  29.101   8.853
 6704POPC   GL223930  33.143  29.191   8.853
 6704POPC   C1A23931  32.984  29.123   8.553
 6704POPC   D2A23932  33.014  29.140   8.253
 6704POPC   C3A23933  32.984  29.148   7.953
 6704POPC   C4A23934  33.008  29.114   7.653
 6704POPC   C1B23935  33.258  29.123   8.553
 6704POPC   C2B23936  33.293  29.176   8.253
 6704POPC   C3B23937  33.302  29.195   7.953
 6704POPC   C4B23938  33.318  29.185   7.653
 6705POPC   NC323939  11.345  36.103   9.453
 6705POPC   PO423940  11.275  36.141   9.153
 6705POPC   GL123941  11.322  36.090   8.853
 6705POPC   GL223942  11.257  36.261   8.853
 6705POPC   C1A23943  11.258  36.121   8.553
 6705POPC   D2A23944  11.265  36.086   8.253
 6705POPC   C3A23945  11.255  36.142   7.953
 6705POPC   C4A23946  11.304  36.173   7.653
 6705POPC   C1B23947  11.137  36.348   8.553
 6705POPC   C2B23948  11.095  36.299   8.253
 6705POPC   C3B23949  11.102  36.288   7.953
 6705POPC   C4B23950  11.079  36.304   7.653
 6706POPC   NC323951   1.940  44.651   9.453
 6706POPC   PO423952   2.021  44.621   9.153
 6706POPC   GL123953   1.956  44.668   8.853
 6706POPC   GL223954   1.845  44.574   8.853
 6706POPC   C1A23955   1.952  44.666   8.553
 6706POPC   D2A23956   2.020  44.653   8.253
 6706POPC   C3A23957   1.997  44.622   7.953
 6706POPC   C4A23958   2.018  44.694   7.653
 6706POPC   C1B23959   1.777  44.525   8.553
 6706POPC   C2B23960   1.758  44.479   8.253
 6706POPC   C3B23961   1.754  44.518   7.953
 6706POPC   C4B23962   1.827  44.560   7.653
 6707POPC   NC323963  18.300  28.349   9.453
 6707POPC   PO423964  18.242  28.386   9.153
 6707POPC   GL123965  18.329  28.408   8.853
 6707POPC   GL223966  18.397  28.275   8.853
 6707POPC   C1A23967  18.307  28.374   8.553
 6707POPC   D2A23968  18.247  28.376   8.253
 6707POPC   C3A23969  18.268  28.352   7.953
 6707POPC   C4A23970  18.237  28.387   7.653
 6707POPC   C1B23971  18.479  28.224   8.553
 6707POPC   C2B23972  18.477  28.151   8.253
 6707POPC   C3B23973  18.475  28.132   7.953
 6707POPC   C4B23974  18.413  28.161   7.653
 6708POPC   NC323975  32.204  12.811   9.453
 6708POPC   PO423976  32.229  12.853   9.153
 6708POPC   GL123977  32.279  12.862   8.853
 6708POPC   GL223978  32.168  12.875   8.853
 6708POPC   C1A23979  32.283  12.840   8.553
 6708POPC   D2A23980  32.210  12.847   8.253
 6708POPC   C3A23981  32.216  12.902   7.953
 6708POPC   C4A23982  32.211  12.893   7.653
 6708POPC   C1B23983  32.046  12.879   8.553
 6708POPC   C2B23984  32.002  12.953   8.253
 6708POPC   C3B23985  32.055  12.964   7.953
 6708POPC   C4B23986  32.014  12.971   7.653
 6709POPC   NC323987  22.978  12.037   9.453
 6709POPC   PO423988  22.903  12.033   9.153
 6709POPC   GL123989  22.938  12.110   8.853
 6709POPC   GL223990  22.818  12.035   8.853
 6709POPC   C1A23991  22.984  12.116   8.553
 6709POPC   D2A23992  22.956  12.082   8.253
 6709POPC   C3A23993  22.979  12.087   7.953
 6709POPC   C4A23994  22.901  12.044   7.653
 6709POPC   C1B23995  22.714  11.924   8.553
 6709POPC   C2B23996  22.805  11.903   8.253
 6709POPC   C3B23997  22.731  11.926   7.953
 6709POPC   C4B23998  22.805  11.892   7.653
 6710POPC   NC323999  30.733  31.453   9.453
 6710POPC   PO424000  30.745  31.473   9.153
 6710POPC   GL124001  30.723  31.465   8.853
 6710POPC   GL224002  30.620  31.434   8.853
 6710POPC   C1A24003  30.673  31.499   8.553
 6710POPC   D2A24004  30.699  31.517   8.253
 6710POPC   C3A24005  30.723  31.459   7.953
 6710POPC   C4A24006  30.655  31.470   7.653
 6710POPC   C1B24007  30.454  31.473   8.553
 6710POPC   C2B24008  30.488  31.427   8.253
 6710POPC   C3B24009  30.448  31.423   7.953
 6710POPC   C4B24010  30.479  31.465   7.653
 6711POPC   NC324011  21.389   2.725   9.453
 6711POPC   PO424012  21.343   2.750   9.153
 6711POPC   GL124013  21.402   2.804   8.853
 6711POPC   GL224014  21.309   2.726   8.853
 6711POPC   C1A24015  21.337   2.785   8.553
 6711POPC   D2A24016  21.395   2.800   8.253
 6711POPC   C3A24017  21.364   2.756   7.953
 6711POPC   C4A24018  21.426   2.787   7.653
 6711POPC   C1B24019  21.201   2.675   8.553
 6711POPC   C2B24020  21.145   2.672   8.253
 6711POPC   C3B24021  21.126   2.668   7.953
 6711POPC   C4B24022  21.199   2.716   7.653
 6712POPC   NC324023   1.197  13.647   9.453
 6712POPC   PO424024   1.178  13.607   9.153
 6712POPC   GL124025   1.192  13.649   8.853
 6712POPC   GL224026   1.238  13.524   8.853
 6712POPC   C1A24027   1.257  13.619   8.553
 6712POPC   D2A24028   1.252  13.619   8.253
 6712POPC   C3A24029   1.263  13.627   7.953
 6712POPC   C4A24030   1.237  13.635   7.653
 6712POPC   C1B24031   1.374  13.457   8.553
 6712POPC   C2B24032   1.372  13.455   8.253
 6712POPC   C3B24033   1.314  13.404   7.953
 6712POPC   C4B24034   1.322  13.384   7.653
 6713POPC   NC324035   5.854  29.118   9.453
 6713POPC   PO424036   5.873  29.119   9.153
 6713POPC   GL124037   5.905  29.186   8.853
 6713POPC   GL224038   5.713  29.224   8.853
 6713POPC   C1A24039   5.899  29.119   8.553
 6713POPC   D2A24040   5.869  29.190   8.253
 6713POPC   C3A24041   5.902  29.185   7.953
 6713POPC   C4A24042   5.905  29.105   7.653
 6713POPC   C1B24043   5.592  29.184   8.553
 6713POPC   C2B24044   5.623  29.266   8.253
 6713POPC   C3B24045   5.591  29.252   7.953
 6713POPC   C4B24046   5.637  29.196   7.653
 6714POPC   NC324047  37.638  27.562   9.453
 6714POPC   PO424048  37.677  27.568   9.153
 6714POPC   GL124049  37.646  27.596   8.853
 6714POPC   GL224050  37.740  27.686   8.853
 6714POPC   C1A24051  37.662  27.544   8.553
 6714POPC   D2A24052  37.706  27.617   8.253
 6714POPC   C3A24053  37.634  27.543   7.953
 6714POPC   C4A24054  37.686  27.640   7.653
 6714POPC   C1B24055  37.893  27.735   8.553
 6714POPC   C2B24056  37.927  27.670   8.253
 6714POPC   C3B24057  37.916  27.759   7.953
 6714POPC   C4B24058  37.901  27.724   7.653
 6715POPC   NC324059  29.942   4.294   9.453
 6715POPC   PO424060  29.967   4.345   9.153
 6715POPC   GL124061  29.915   4.268   8.853
 6715POPC   GL224062  29.849   4.269   8.853
 6715POPC   C1A24063  29.882   4.352   8.553
 6715POPC   D2A24064  29.941   4.288   8.253
 6715POPC   C3A24065  29.936   4.282   7.953
 6715POPC   C4A24066  29.875   4.364   7.653
 6715POPC   C1B24067  29.724   4.268   8.553
 6715POPC   C2B24068  29.632   4.242   8.253
 6715POPC   C3B24069  29.633   4.265   7.953
 6715POPC   C4B24070  29.650   4.225   7.653
 6716POPC   NC324071  36.901   3.550   9.453
 6716POPC   PO424072  36.894   3.496   9.153
 6716POPC   GL124073  36.941   3.558   8.853
 6716POPC   GL224074  36.853   3.681   8.853
 6716POPC   C1A24075  36.946   3.575   8.553
 6716POPC   D2A24076  36.900   3.589   8.253
 6716POPC   C3A24077  36.886   3.588   7.953
 6716POPC   C4A24078  36.911   3.500   7.653
 6716POPC   C1B24079  36.832   3.738   8.553
 6716POPC   C2B24080  36.826   3.757   8.253
 6716POPC   C3B24081  36.799   3.728   7.953
 6716POPC   C4B24082  36.752   3.778   7.653
 6717POPC   NC324083  26.852  23.712   9.453
 6717POPC   PO424084  26.843  23.712   9.153
 6717POPC   GL124085  26.800  23.763   8.853
 6717POPC   GL224086  26.939  23.663   8.853
 6717POPC   C1A24087  26.779  23.692   8.553
 6717POPC   D2A24088  26.816  23.749   8.253
 6717POPC   C3A24089  26.806  23.679   7.953
 6717POPC   C4A24090  26.776  23.711   7.653
 6717POPC   C1B24091  27.028  23.597   8.553
 6717POPC   C2B24092  27.000  23.567   8.253
 6717POPC   C3B24093  27.059  23.554   7.953
 6717POPC   C4B24094  27.027  23.586   7.653
 6718POPC   NC324095   1.243  19.834   9.453
 6718POPC   PO424096   1.233  19.852   9.153
 6718POPC   GL124097   1.228  19.841   8.853
 6718POPC   GL224098   1.339  19.770   8.853
 6718POPC   C1A24099   1.174  19.872   8.553
 6718POPC   D2A24100   1.260  19.881   8.253
 6718POPC   C3A24101   1.202  19.862   7.953
 6718POPC   C4A24102   1.214  19.847   7.653
 6718POPC   C1B24103   1.418  19.639   8.553
 6718POPC   C2B24104   1.409  19.612   8.253
 6718POPC   C3B24105   1.354  19.655   7.953
 6718POPC   C4B24106   1.410  19.668   7.653
 6719POPC   NC324107  40.798   6.623   9.453
 6719POPC   PO424108  40.776   6.663   9.153
 6719POPC   GL124109  40.761   6.620   8.853
 6719POPC   GL224110  40.897   6.500   8.853
 6719POPC   C1A24111  40.757   6.665   8.553
 6719POPC   D2A24112  40.752   6.636   8.253
 6719POPC   C3A24113  40.823   6.622   7.953
 6719POPC   C4A24114  40.743   6.647   7.653
 6719POPC   C1B24115  40.905   6.441   8.553
 6719POPC   C2B24116  40.976   6.472   8.253
 6719POPC   C3B24117  40.983   6.427   7.953
 6719POPC   C4B24118  40.951   6.456   7.653
 6720POPC   NC324119  32.217  20.569   9.453
 6720POPC   PO424120  32.272  20.630   9.153
 6720POPC   GL124121  32.216  20.589   8.853
 6720POPC   GL224122  32.164  20.493   8.853
 6720POPC   C1A24123  32.226  20.619   8.553
 6720POPC   D2A24124  32.268  20.640   8.253
 6720POPC   C3A24125  32.288  20.594   7.953
 6720POPC   C4A24126  32.233  20.621   7.653
 6720POPC   C1B24127  32.190  20.405   8.553
 6720POPC   C2B24128  32.153  20.427   8.253
 6720POPC   C3B24129  32.105  20.407   7.953
 6720POPC   C4B24130  32.149  20.364   7.653
 6721POPC   NC324131  44.702  42.358   9.453
 6721POPC   PO424132  44.653  42.312   9.153
 6721POPC   GL124133  44.652  42.366   8.853
 6721POPC   GL224134  44.750  42.303   8.853
 6721POPC   C1A24135  44.699  42.321   8.553
 6721POPC   D2A24136  44.618  42.305   8.253
 6721POPC   C3A24137  44.645  42.302   7.953
 6721POPC   C4A24138  44.664  42.331   7.653
 6721POPC   C1B24139  44.903  42.328   8.553
 6721POPC   C2B24140  44.914  42.319   8.253
 6721POPC   C3B24141  44.862  42.270   7.953
 6721POPC   C4B24142  44.869  42.314   7.653
 6722POPC   NC324143  43.934   8.998   9.453
 6722POPC   PO424144  43.926   8.952   9.153
 6722POPC   GL124145  43.847   8.996   8.853
 6722POPC   GL224146  43.947   9.124   8.853
 6722POPC   C1A24147  43.876   8.945   8.553
 6722POPC   D2A24148  43.882   9.018   8.253
 6722POPC   C3A24149  43.904   9.018   7.953
 6722POPC   C4A24150  43.842   9.001   7.653
 6722POPC   C1B24151  44.039   9.208   8.553
 6722POPC   C2B24152  43.992   9.226   8.253
 6722POPC   C3B24153  44.050   9.136   7.953
 6722POPC   C4B24154  44.040   9.193   7.653
 6723POPC   NC324155  15.138  14.395   9.453
 6723POPC   PO424156  15.145  14.452   9.153
 6723POPC   GL124157  15.212  14.435   8.853
 6723POPC   GL224158  15.174  14.537   8.853
 6723POPC   C1A24159  15.215  14.409   8.553
 6723POPC   D2A24160  15.144  14.409   8.253
 6723POPC   C3A24161  15.199  14.367   7.953
 6723POPC   C4A24162  15.215  14.427   7.653
 6723POPC   C1B24163  15.255  14.634   8.553
 6723POPC   C2B24164  15.237  14.667   8.253
 6723POPC   C3B24165  15.223  14.648   7.953
 6723POPC   C4B24166  15.209  14.683   7.653
 6724POPC   NC324167  33.788  21.397   9.453
 6724POPC   PO424168  33.799  21.413   9.153
 6724POPC   GL124169  33.819  21.347   8.853
 6724POPC   GL224170  33.690  21.452   8.853
 6724POPC   C1A24171  33.818  21.428   8.553
 6724POPC   D2A24172  33.759  21.369   8.253
 6724POPC   C3A24173  33.830  21.403   7.953
 6724POPC   C4A24174  33.784  21.394   7.653
 6724POPC   C1B24175  33.590  21.441   8.553
 6724POPC   C2B24176  33.514  21.406   8.253
 6724POPC   C3B24177  33.516  21.453   7.953
 6724POPC   C4B24178  33.523  21.486   7.653
 6725POPC   NC324179   6.638   9.728   9.453
 6725POPC   PO424180   6.632   9.724   9.153
 6725POPC   GL124181   6.599   9.750   8.853
 6725POPC   GL224182   6.654   9.885   8.853
 6725POPC   C1A24183   6.692   9.718   8.553
 6725POPC   D2A24184   6.664   9.775   8.253
 6725POPC   C3A24185   6.683   9.723   7.953
 6725POPC   C4A24186   6.610   9.719   7.653
 6725POPC   C1B24187   6.663   9.956   8.553
 6725POPC   C2B24188   6.640  10.010   8.253
 6725POPC   C3B24189   6.650   9.985   7.953
 6725POPC   C4B24190   6.647   9.963   7.653
 6726POPC   NC324191  43.135  15.967   9.453
 6726POPC   PO424192  43.096  15.944   9.153
 6726POPC   GL124193  43.130  15.946   8.853
 6726POPC   GL224194  43.087  15.793   8.853
 6726POPC   C1A24195  43.085  15.978   8.553
 6726POPC   D2A24196  43.143  15.906   8.253
 6726POPC   C3A24197  43.100  15.968   7.953
 6726POPC   C4A24198  43.095  15.922   7.653
 6726POPC   C1B24199  43.110  15.694   8.553
 6726POPC   C2B24200  43.125  15.691   8.253
 6726POPC   C3B24201  43.086  15.716   7.953
 6726POPC   C4B24202  43.084  15.708   7.653
 6727POPC   NC324203  27.597  32.988   9.453
 6727POPC   PO424204  27.632  33.002   9.153
 6727POPC   GL124205  27.567  33.062   8.853
 6727POPC   GL224206  27.687  32.952   8.853
 6727POPC   C1A24207  27.579  33.000   8.553
 6727POPC   D2A24208  27.584  33.042   8.253
 6727POPC   C3A24209  27.598  32.994   7.953
 6727POPC   C4A24210  27.570  33.048   7.653
 6727POPC   C1B24211  27.809  32.861   8.553
 6727POPC   C2B24212  27.829  32.888   8.253
 6727POPC   C3B24213  27.836  32.879   7.953
 6727POPC   C4B24214  27.846  32.891   7.653
 6728POPC   NC324215  21.386  27.595   9.453
 6728POPC   PO424216  21.381  27.563   9.153
 6728POPC   GL124217  21.385  27.617   8.853
 6728POPC   GL224218  21.304  27.445   8.853
 6728POPC   C1A24219  21.350  27.604   8.553
 6728POPC   D2A24220  21.392  27.597   8.253
 6728POPC   C3A24221  21.358  27.632   7.953
 6728POPC   C4A24222  21.402  27.623   7.653
 6728POPC   C1B24223  21.327  27.396   8.553
 6728POPC   C2B24224  21.290  27.330   8.253
 6728POPC   C3B24225  21.337  27.339   7.953
 6728POPC   C4B24226  21.265  27.317   7.653
 6729POPC   NC324227  19.013  20.641   9.453
 6729POPC   PO424228  19.081  20.654   9.153
 6729POPC   GL124229  19.064  20.659   8.853
 6729POPC   GL224230  18.945  20.559   8.853
 6729POPC   C1A24231  19.093  20.562   8.553
 6729POPC   D2A24232  19.068  20.567   8.253
 6729POPC   C3A24233  19.026  20.597   7.953
 6729POPC   C4A24234  19.043  20.615   7.653
 6729POPC   C1B24235  18.885  20.421   8.553
 6729POPC   C2B24236  18.915  20.420   8.253
 6729POPC   C3B24237  18.920  20.411   7.953
 6729POPC   C4B24238  18.926  20.395   7.653
 6730POPC   NC324239  15.946  38.475   9.453
 6730POPC   PO424240  16.003  38.408   9.153
 6730POPC   GL124241  16.000  38.459   8.853
 6730POPC   GL224242  15.801  38.426   8.853
 6730POPC   C1A24243  15.920  38.441   8.553
 6730POPC   D2A24244  15.909  38.503   8.253
 6730POPC   C3A24245  15.978  38.472   7.953
 6730POPC   C4A24246  15.996  38.482   7.653
 6730POPC   C1B24247  15.697  38.436   8.553
 6730POPC   C2B24248  15.702  38.406   8.253
 6730POPC   C3B24249  15.658  38.456   7.953
 6730POPC   C4B24250  15.754  38.420   7.653
 6731POPC   NC324251   7.446  37.644   9.453
 6731POPC   PO424252   7.437  37.698   9.153
 6731POPC   GL124253   7.382  37.666   8.853
 6731POPC   GL224254   7.507  37.713   8.853
 6731POPC   C1A24255   7.379  37.640   8.553
 6731POPC   D2A24256   7.405  37.658   8.253
 6731POPC   C3A24257   7.456  37.632   7.953
 6731POPC   C4A24258   7.394  37.695   7.653
 6731POPC   C1B24259   7.667  37.628   8.553
 6731POPC   C2B24260   7.640  37.629   8.253
 6731POPC   C3B24261   7.702  37.694   7.953
 6731POPC   C4B24262   7.653  37.646   7.653
 6732POPC   NC324263  27.567  25.276   9.453
 6732POPC   PO424264  27.607  25.240   9.153
 6732POPC   GL124265  27.608  25.256   8.853
 6732POPC   GL224266  27.495  25.105   8.853
 6732POPC   C1A24267  27.596  25.263   8.553
 6732POPC   D2A24268  27.620  25.281   8.253
 6732POPC   C3A24269  27.553  25.302   7.953
 6732POPC   C4A24270  27.621  25.251   7.653
 6732POPC   C1B24271  27.510  25.040   8.553
 6732POPC   C2B24272  27.514  25.038   8.253
 6732POPC   C3B24273  27.535  25.069   7.953
 6732POPC   C4B24274  27.497  25.082   7.653
 6733POPC   NC324275  36.105  31.440   9.453
 6733POPC   PO424276  36.121  31.511   9.153
 6733POPC   GL124277  36.114  31.460   8.853
 6733POPC   GL224278  36.174  31.344   8.853
 6733POPC   C1A24279  36.100  31.480   8.553
 6733POPC   D2A24280  36.122  31.503   8.253
 6733POPC   C3A24281  36.080  31.515   7.953
 6733POPC   C4A24282  36.088  31.436   7.653
 6733POPC   C1B24283  36.185  31.195   8.553
 6733POPC   C2B24284  36.186  31.235   8.253
 6733POPC   C3B24285  36.247  31.275   7.953
 6733POPC   C4B24286  36.238  31.264   7.653
 6734POPC   NC324287   5.880  39.230   9.453
 6734POPC   PO424288   5.846  39.190   9.153
 6734POPC   GL124289   5.876  39.217   8.853
 6734POPC   GL224290   5.795  39.296   8.853
 6734POPC   C1A24291   5.840  39.221   8.553
 6734POPC   D2A24292   5.828  39.276   8.253
 6734POPC   C3A24293   5.848  39.226   7.953
 6734POPC   C4A24294   5.823  39.245   7.653
 6734POPC   C1B24295   5.728  39.493   8.553
 6734POPC   C2B24296   5.793  39.436   8.253
 6734POPC   C3B24297   5.731  39.422   7.953
 6734POPC   C4B24298   5.744  39.429   7.653
 6735POPC   NC324299  40.829  34.575   9.453
 6735POPC   PO424300  40.782  34.604   9.153
 6735POPC   GL124301  40.820  34.582   8.853
 6735POPC   GL224302  40.831  34.456   8.853
 6735POPC   C1A24303  40.817  34.589   8.553
 6735POPC   D2A24304  40.817  34.621   8.253
 6735POPC   C3A24305  40.832  34.577   7.953
 6735POPC   C4A24306  40.752  34.623   7.653
 6735POPC   C1B24307  40.951  34.421   8.553
 6735POPC   C2B24308  40.951  34.414   8.253
 6735POPC   C3B24309  40.932  34.355   7.953
 6735POPC   C4B24310  40.992  34.430   7.653
 6736POPC   NC324311  14.421  19.818   9.453
 6736POPC   PO424312  14.386  19.841   9.153
 6736POPC   GL124313  14.449  19.798   8.853
 6736POPC   GL224314  14.352  19.690   8.853
 6736POPC   C1A24315  14.416  19.809   8.553
 6736POPC   D2A24316  14.397  19.832   8.253
 6736POPC   C3A24317  14.384  19.812   7.953
 6736POPC   C4A24318  14.401  19.828   7.653
 6736POPC   C1B24319  14.222  19.590   8.553
 6736POPC   C2B24320  14.235  19.578   8.253
 6736POPC   C3B24321  14.247  19.657   7.953
 6736POPC   C4B24322  14.307  19.591   7.653
 6737POPC   NC324323  19.822  14.431   9.453
 6737POPC   PO424324  19.804  14.355   9.153
 6737POPC   GL124325  19.874  14.450   8.853
 6737POPC   GL224326  19.872  14.307   8.853
 6737POPC   C1A24327  19.799  14.440   8.553
 6737POPC   D2A24328  19.837  14.431   8.253
 6737POPC   C3A24329  19.870  14.357   7.953
 6737POPC   C4A24330  19.851  14.398   7.653
 6737POPC   C1B24331  19.779  14.176   8.553
 6737POPC   C2B24332  19.803  14.121   8.253
 6737POPC   C3B24333  19.790  14.186   7.953
 6737POPC   C4B24334  19.851  14.109   7.653
 6738POPC   NC324335  26.040   0.479   9.453
 6738POPC   PO424336  26.038   0.404   9.153
 6738POPC   GL124337  25.997   0.389   8.853
 6738POPC   GL224338  26.015   0.302   8.853
 6738POPC   C1A24339  25.997   0.442   8.553
 6738POPC   D2A24340  26.066   0.416   8.253
 6738POPC   C3A24341  26.063   0.486   7.953
 6738POPC   C4A24342  26.086   0.414   7.653
 6738POPC   C1B24343  25.922   0.240   8.553
 6738POPC   C2B24344  25.992   0.206   8.253
 6738POPC   C3B24345  25.908   0.171   7.953
 6738POPC   C4B24346  25.931   0.194   7.653
 6739POPC   NC324347  43.094  42.310   9.453
 6739POPC   PO424348  43.119  42.300   9.153
 6739POPC   GL124349  43.110  42.328   8.853
 6739POPC   GL224350  43.061  42.162   8.853
 6739POPC   C1A24351  43.100  42.362   8.553
 6739POPC   D2A24352  43.134  42.384   8.253
 6739POPC   C3A24353  43.092  42.308   7.953
 6739POPC   C4A24354  43.138  42.345   7.653
 6739POPC   C1B24355  43.088  42.098   8.553
 6739POPC   C2B24356  43.074  42.089   8.253
 6739POPC   C3B24357  43.047  42.107   7.953
 6739POPC   C4B24358  43.111  42.072   7.653
 6740POPC   NC324359  40.739  32.994   9.453
 6740POPC   PO424360  40.770  33.021   9.153
 6740POPC   GL124361  40.768  32.997   8.853
 6740POPC   GL224362  40.769  33.139   8.853
 6740POPC   C1A24363  40.830  33.071   8.553
 6740POPC   D2A24364  40.739  33.036   8.253
 6740POPC   C3A24365  40.773  33.005   7.953
 6740POPC   C4A24366  40.814  33.054   7.653
 6740POPC   C1B24367  40.708  33.311   8.553
 6740POPC   C2B24368  40.763  33.232   8.253
 6740POPC   C3B24369  40.731  33.253   7.953
 6740POPC   C4B24370  40.785  33.321   7.653
 6741POPC   NC324371  30.655  12.856   9.453
 6741POPC   PO424372  30.742  12.853   9.153
 6741POPC   GL124373  30.707  12.820   8.853
 6741POPC   GL224374  30.796  12.906   8.853
 6741POPC   C1A24375  30.731  12.842   8.553
 6741POPC   D2A24376  30.662  12.874   8.253
 6741POPC   C3A24377  30.655  12.846   7.953
 6741POPC   C4A24378  30.716  12.852   7.653
 6741POPC   C1B24379  30.787  13.085   8.553
 6741POPC   C2B24380  30.814  13.031   8.253
 6741POPC   C3B24381  30.786  13.012   7.953
 6741POPC   C4B24382  30.846  13.080   7.653
 6742POPC   NC324383  44.666  28.320   9.453
 6742POPC   PO424384  44.709  28.322   9.153
 6742POPC   GL124385  44.642  28.335   8.853
 6742POPC   GL224386  44.698  28.495   8.853
 6742POPC   C1A24387  44.703  28.405   8.553
 6742POPC   D2A24388  44.693  28.345   8.253
 6742POPC   C3A24389  44.709  28.349   7.953
 6742POPC   C4A24390  44.681  28.407   7.653
 6742POPC   C1B24391  44.629  28.617   8.553
 6742POPC   C2B24392  44.712  28.653   8.253
 6742POPC   C3B24393  44.679  28.600   7.953
 6742POPC   C4B24394  44.675  28.575   7.653
 6743POPC   NC324395  40.007  17.469   9.453
 6743POPC   PO424396  40.034  17.477   9.153
 6743POPC   GL124397  40.030  17.486   8.853
 6743POPC   GL224398  39.881  17.395   8.853
 6743POPC   C1A24399  40.001  17.457   8.553
 6743POPC   D2A24400  40.026  17.507   8.253
 6743POPC   C3A24401  39.961  17.460   7.953
 6743POPC   C4A24402  39.999  17.484   7.653
 6743POPC   C1B24403  39.767  17.341   8.553
 6743POPC   C2B24404  39.803  17.380   8.253
 6743POPC   C3B24405  39.807  17.386   7.953
 6743POPC   C4B24406  39.787  17.313   7.653
 6744POPC   NC324407  10.523  15.944   9.453
 6744POPC   PO424408  10.568  15.953   9.153
 6744POPC   GL124409  10.526  15.915   8.853
 6744POPC   GL224410  10.629  15.848   8.853
 6744POPC   C1A24411  10.541  15.919   8.553
 6744POPC   D2A24412  10.478  15.917   8.253
 6744POPC   C3A24413  10.489  15.914   7.953
 6744POPC   C4A24414  10.552  15.988   7.653
 6744POPC   C1B24415  10.675  15.806   8.553
 6744POPC   C2B24416  10.735  15.823   8.253
 6744POPC   C3B24417  10.730  15.782   7.953
 6744POPC   C4B24418  10.687  15.818   7.653
 6745POPC   NC324419   2.004  41.556   9.453
 6745POPC   PO424420   1.967  41.526   9.153
 6745POPC   GL124421   2.029  41.541   8.853
 6745POPC   GL224422   1.884  41.563   8.853
 6745POPC   C1A24423   2.010  41.566   8.553
 6745POPC   D2A24424   2.002  41.578   8.253
 6745POPC   C3A24425   2.032  41.533   7.953
 6745POPC   C4A24426   1.943  41.583   7.653
 6745POPC   C1B24427   1.785  41.533   8.553
 6745POPC   C2B24428   1.788  41.487   8.253
 6745POPC   C3B24429   1.743  41.571   7.953
 6745POPC   C4B24430   1.720  41.507   7.653
 6746POPC   NC324431  10.538   7.376   9.453
 6746POPC   PO424432  10.544   7.403   9.153
 6746POPC   GL124433  10.507   7.463   8.853
 6746POPC   GL224434  10.480   7.310   8.853
 6746POPC   C1A24435  10.500   7.447   8.553
 6746POPC   D2A24436  10.531   7.403   8.253
 6746POPC   C3A24437  10.543   7.379   7.953
 6746POPC   C4A24438  10.502   7.400   7.653
 6746POPC   C1B24439  10.542   7.165   8.553
 6746POPC   C2B24440  10.539   7.144   8.253
 6746POPC   C3B24441  10.547   7.148   7.953
 6746POPC   C4B24442  10.506   7.147   7.653
 6747POPC   NC324443  27.546  38.430   9.453
 6747POPC   PO424444  27.580  38.426   9.153
 6747POPC   GL124445  27.561  38.454   8.853
 6747POPC   GL224446  27.431  38.415   8.853
 6747POPC   C1A24447  27.616  38.417   8.553
 6747POPC   D2A24448  27.551  38.409   8.253
 6747POPC   C3A24449  27.635  38.477   7.953
 6747POPC   C4A24450  27.586  38.458   7.653
 6747POPC   C1B24451  27.321  38.391   8.553
 6747POPC   C2B24452  27.327  38.400   8.253
 6747POPC   C3B24453  27.364  38.382   7.953
 6747POPC   C4B24454  27.397  38.419   7.653
 6748POPC   NC324455   9.744  23.741   9.453
 6748POPC   PO424456   9.760  23.683   9.153
 6748POPC   GL124457   9.719  23.732   8.853
 6748POPC   GL224458   9.636  23.715   8.853
 6748POPC   C1A24459   9.710  23.668   8.553
 6748POPC   D2A24460   9.797  23.716   8.253
 6748POPC   C3A24461   9.728  23.685   7.953
 6748POPC   C4A24462   9.728  23.761   7.653
 6748POPC   C1B24463   9.550  23.740   8.553
 6748POPC   C2B24464   9.538  23.748   8.253
 6748POPC   C3B24465   9.458  23.718   7.953
 6748POPC   C4B24466   9.470  23.722   7.653
 6749POPC   NC324467  12.116   8.989   9.453
 6749POPC   PO424468  12.071   9.000   9.153
 6749POPC   GL124469  12.118   8.972   8.853
 6749POPC   GL224470  12.193   8.913   8.853
 6749POPC   C1A24471  12.077   9.002   8.553
 6749POPC   D2A24472  12.064   8.937   8.253
 6749POPC   C3A24473  12.100   8.991   7.953
 6749POPC   C4A24474  12.033   8.964   7.653
 6749POPC   C1B24475  12.247   8.740   8.553
 6749POPC   C2B24476  12.219   8.716   8.253
 6749POPC   C3B24477  12.225   8.776   7.953
 6749POPC   C4B24478  12.181   8.771   7.653
 6750POPC   NC324479  43.065   9.752   9.453
 6750POPC   PO424480  43.098   9.725   9.153
 6750POPC   GL124481  43.128   9.717   8.853
 6750POPC   GL224482  43.201   9.830   8.853
 6750POPC   C1A24483  43.096   9.751   8.553
 6750POPC   D2A24484  43.148   9.746   8.253
 6750POPC   C3A24485  43.094   9.754   7.953
 6750POPC   C4A24486  43.150   9.742   7.653
 6750POPC   C1B24487  43.281   9.967   8.553
 6750POPC   C2B24488  43.286   9.923   8.253
 6750POPC   C3B24489  43.202   9.975   7.953
 6750POPC   C4B24490  43.224   9.945   7.653
 6751POPC   NC324491  41.566  13.637   9.453
 6751POPC   PO424492  41.605  13.665   9.153
 6751POPC   GL124493  41.594  13.637   8.853
 6751POPC   GL224494  41.523  13.757   8.853
 6751POPC   C1A24495  41.573  13.630   8.553
 6751POPC   D2A24496  41.530  13.589   8.253
 6751POPC   C3A24497  41.563  13.608   7.953
 6751POPC   C4A24498  41.567  13.646   7.653
 6751POPC   C1B24499  41.517  13.844   8.553
 6751POPC   C2B24500  41.567  13.881   8.253
 6751POPC   C3B24501  41.553  13.863   7.953
 6751POPC   C4B24502  41.555  13.879   7.653
 6752POPC   NC324503  39.203  19.872   9.453
 6752POPC   PO424504  39.206  19.819   9.153
 6752POPC   GL124505  39.201  19.834   8.853
 6752POPC   GL224506  39.340  19.773   8.853
 6752POPC   C1A24507  39.281  19.832   8.553
 6752POPC   D2A24508  39.270  19.831   8.253
 6752POPC   C3A24509  39.279  19.787   7.953
 6752POPC   C4A24510  39.249  19.820   7.653
 6752POPC   C1B24511  39.521  19.763   8.553
 6752POPC   C2B24512  39.524  19.758   8.253
 6752POPC   C3B24513  39.447  19.815   7.953
 6752POPC   C4B24514  39.515  19.820   7.653
 6753POPC   NC324515   7.425  35.383   9.453
 6753POPC   PO424516   7.409  35.338   9.153
 6753POPC   GL124517   7.450  35.371   8.853
 6753POPC   GL224518   7.392  35.451   8.853
 6753POPC   C1A24519   7.431  35.367   8.553
 6753POPC   D2A24520   7.424  35.345   8.253
 6753POPC   C3A24521   7.411  35.344   7.953
 6753POPC   C4A24522   7.386  35.337   7.653
 6753POPC   C1B24523   7.405  35.624   8.553
 6753POPC   C2B24524   7.421  35.622   8.253
 6753POPC   C3B24525   7.408  35.560   7.953
 6753POPC   C4B24526   7.426  35.565   7.653
 6754POPC   NC324527   9.726  41.595   9.453
 6754POPC   PO424528   9.740  41.573   9.153
 6754POPC   GL124529   9.763  41.548   8.853
 6754POPC   GL224530   9.807  41.466   8.853
 6754POPC   C1A24531   9.781  41.584   8.553
 6754POPC   D2A24532   9.730  41.526   8.253
 6754POPC   C3A24533   9.719  41.515   7.953
 6754POPC   C4A24534   9.787  41.517   7.653
 6754POPC   C1B24535   9.950  41.457   8.553
 6754POPC   C2B24536   9.991  41.438   8.253
 6754POPC   C3B24537   9.950  41.448   7.953
 6754POPC   C4B24538   9.933  41.423   7.653
 6755POPC   NC324539  17.493   5.103   9.453
 6755POPC   PO424540  17.532   5.087   9.153
 6755POPC   GL124541  17.522   5.132   8.853
 6755POPC   GL224542  17.549   5.046   8.853
 6755POPC   C1A24543  17.530   5.140   8.553
 6755POPC   D2A24544  17.479   5.057   8.253
 6755POPC   C3A24545  17.473   5.140   7.953
 6755POPC   C4A24546  17.518   5.121   7.653
 6755POPC   C1B24547  17.661   4.917   8.553
 6755POPC   C2B24548  17.692   4.941   8.253
 6755POPC   C3B24549  17.703   4.866   7.953
 6755POPC   C4B24550  17.649   4.884   7.653
 6756POPC   NC324551  10.549  36.929   9.453
 6756POPC   PO424552  10.547  36.855   9.153
 6756POPC   GL124553  10.518  36.886   8.853
 6756POPC   GL224554  10.418  36.955   8.853
 6756POPC   C1A24555  10.548  36.900   8.553
 6756POPC   D2A24556  10.540  36.909   8.253
 6756POPC   C3A24557  10.550  36.927   7.953
 6756POPC   C4A24558  10.494  36.892   7.653
 6756POPC   C1B24559  10.351  37.059   8.553
 6756POPC   C2B24560  10.407  37.097   8.253
 6756POPC   C3B24561  10.367  37.090   7.953
 6756POPC   C4B24562  10.314  37.084   7.653
 6757POPC   NC324563  20.586  19.793   9.453
 6757POPC   PO424564  20.645  19.808   9.153
 6757POPC   GL124565  20.585  19.822   8.853
 6757POPC   GL224566  20.590  19.754   8.853
 6757POPC   C1A24567  20.647  19.870   8.553
 6757POPC   D2A24568  20.625  19.820   8.253
 6757POPC   C3A24569  20.640  19.876   7.953
 6757POPC   C4A24570  20.602  19.871   7.653
 6757POPC   C1B24571  20.666  19.592   8.553
 6757POPC   C2B24572  20.687  19.632   8.253
 6757POPC   C3B24573  20.628  19.569   7.953
 6757POPC   C4B24574  20.647  19.566   7.653
 6758POPC   NC324575   6.676  31.440   9.453
 6758POPC   PO424576   6.666  31.522   9.153
 6758POPC   GL124577   6.638  31.455   8.853
 6758POPC   GL224578   6.785  31.543   8.853
 6758POPC   C1A24579   6.598  31.504   8.553
 6758POPC   D2A24580   6.646  31.452   8.253
 6758POPC   C3A24581   6.596  31.438   7.953
 6758POPC   C4A24582   6.645  31.521   7.653
 6758POPC   C1B24583   6.866  31.613   8.553
 6758POPC   C2B24584   6.894  31.548   8.253
 6758POPC   C3B24585   6.837  31.529   7.953
 6758POPC   C4B24586   6.904  31.526   7.653
 6759POPC   NC324587   7.465  27.619   9.453
 6759POPC   PO424588   7.449  27.556   9.153
 6759POPC   GL124589   7.410  27.634   8.853
 6759POPC   GL224590   7.380  27.453   8.853
 6759POPC   C1A24591   7.386  27.605   8.553
 6759POPC   D2A24592   7.412  27.593   8.253
 6759POPC   C3A24593   7.452  27.551   7.953
 6759POPC   C4A24594   7.447  27.573   7.653
 6759POPC   C1B24595   7.395  27.336   8.553
 6759POPC   C2B24596   7.413  27.373   8.253
 6759POPC   C3B24597   7.416  27.318   7.953
 6759POPC   C4B24598   7.346  27.324   7.653
 6760POPC   NC324599   3.557  12.046   9.453
 6760POPC   PO424600   3.543  12.089   9.153
 6760POPC   GL124601   3.569  12.118   8.853
 6760POPC   GL224602   3.407  12.050   8.853
 6760POPC   C1A24603   3.539  12.108   8.553
 6760POPC   D2A24604   3.525  12.105   8.253
 6760POPC   C3A24605   3.493  12.048   7.953
 6760POPC   C4A24606   3.517  12.057   7.653
 6760POPC   C1B24607   3.315  11.952   8.553
 6760POPC   C2B24608   3.306  11.969   8.253
 6760POPC   C3B24609   3.267  11.984   7.953
 6760POPC   C4B24610   3.320  12.002   7.653
 6761POPC   NC324611   3.516  12.814   9.453
 6761POPC   PO424612   3.521  12.813   9.153
 6761POPC   GL124613   3.550  12.855   8.853
 6761POPC   GL224614   3.642  12.754   8.853
 6761POPC   C1A24615   3.582  12.901   8.553
 6761POPC   D2A24616   3.550  12.816   8.253
 6761POPC   C3A24617   3.499  12.855   7.953
 6761POPC   C4A24618   3.546  12.803   7.653
 6761POPC   C1B24619   3.737  12.705   8.553
 6761POPC   C2B24620   3.796  12.735   8.253
 6761POPC   C3B24621   3.744  12.672   7.953
 6761POPC   C4B24622   3.740  12.701   7.653
 6762POPC   NC324623  36.929  12.898   9.453
 6762POPC   PO424624  36.885  12.895   9.153
 6762POPC   GL124625  36.948  12.805   8.853
 6762POPC   GL224626  36.812  12.897   8.853
 6762POPC   C1A24627  36.873  12.840   8.553
 6762POPC   D2A24628  36.936  12.827   8.253
 6762POPC   C3A24629  36.870  12.870   7.953
 6762POPC   C4A24630  36.896  12.890   7.653
 6762POPC   C1B24631  36.667  12.910   8.553
 6762POPC   C2B24632  36.624  12.919   8.253
 6762POPC   C3B24633  36.679  12.944   7.953
 6762POPC   C4B24634  36.651  12.901   7.653
 6763POPC   NC324635  42.381  19.873   9.453
 6763POPC   PO424636  42.334  19.822   9.153
 6763POPC   GL124637  42.360  19.849   8.853
 6763POPC   GL224638  42.363  19.908   8.853
 6763POPC   C1A24639  42.376  19.803   8.553
 6763POPC   D2A24640  42.346  19.851   8.253
 6763POPC   C3A24641  42.365  19.838   7.953
 6763POPC   C4A24642  42.310  19.787   7.653
 6763POPC   C1B24643  42.362  20.090   8.553
 6763POPC   C2B24644  42.421  20.105   8.253
 6763POPC   C3B24645  42.414  20.091   7.953
 6763POPC   C4B24646  42.412  20.040   7.653
 6764POPC   NC324647  24.534  25.271   9.453
 6764POPC   PO424648  24.475  25.304   9.153
 6764POPC   GL124649  24.480  25.244   8.853
 6764POPC   GL224650  24.498  25.426   8.853
 6764POPC   C1A24651  24.515  25.222   8.553
 6764POPC   D2A24652  24.505  25.297   8.253
 6764POPC   C3A24653  24.455  25.224   7.953
 6764POPC   C4A24654  24.507  25.286   7.653
 6764POPC   C1B24655  24.413  25.490   8.553
 6764POPC   C2B24656  24.479  25.537   8.253
 6764POPC   C3B24657  24.441  25.542   7.953
 6764POPC   C4B24658  24.421  25.498   7.653
 6765POPC   NC324659  22.941   9.742   9.453
 6765POPC   PO424660  22.951   9.703   9.153
 6765POPC   GL124661  22.973   9.717   8.853
 6765POPC   GL224662  22.928   9.637   8.853
 6765POPC   C1A24663  22.962   9.759   8.553
 6765POPC   D2A24664  22.920   9.772   8.253
 6765POPC   C3A24665  22.921   9.723   7.953
 6765POPC   C4A24666  22.941   9.701   7.653
 6765POPC   C1B24667  23.003   9.464   8.553
 6765POPC   C2B24668  22.977   9.532   8.253
 6765POPC   C3B24669  22.962   9.539   7.953
 6765POPC   C4B24670  22.994   9.495   7.653
 6766POPC   NC324671   5.885   1.190   9.453
 6766POPC   PO424672   5.845   1.182   9.153
 6766POPC   GL124673   5.839   1.170   8.853
 6766POPC   GL224674   5.849   1.147   8.853
 6766POPC   C1A24675   5.878   1.178   8.553
 6766POPC   D2A24676   5.869   1.256   8.253
 6766POPC   C3A24677   5.912   1.259   7.953
 6766POPC   C4A24678   5.851   1.211   7.653
 6766POPC   C1B24679   5.736   1.027   8.553
 6766POPC   C2B24680   5.723   1.009   8.253
 6766POPC   C3B24681   5.804   0.982   7.953
 6766POPC   C4B24682   5.799   1.025   7.653
 6767POPC   NC324683  22.904  43.843   9.453
 6767POPC   PO424684  22.974  43.922   9.153
 6767POPC   GL124685  22.889  43.911   8.853
 6767POPC   GL224686  22.940  44.012   8.853
 6767POPC   C1A24687  22.894  43.883   8.553
 6767POPC   D2A24688  22.947  43.913   8.253
 6767POPC   C3A24689  22.947  43.874   7.953
 6767POPC   C4A24690  22.922  43.887   7.653
 6767POPC   C1B24691  22.978  44.111   8.553
 6767POPC   C2B24692  22.943  44.121   8.253
 6767POPC   C3B24693  22.956  44.165   7.953
 6767POPC   C4B24694  23.025  44.125   7.653
 6768POPC   NC324695  29.191  43.878   9.453
 6768POPC   PO424696  29.121  43.921   9.153
 6768POPC   GL124697  29.140  43.877   8.853
 6768POPC   GL224698  29.072  43.979   8.853
 6768POPC   C1A24699  29.192  43.919   8.553
 6768POPC   D2A24700  29.123  43.871   8.253
 6768POPC   C3A24701  29.149  43.899   7.953
 6768POPC   C4A24702  29.149  43.861   7.653
 6768POPC   C1B24703  29.099  44.114   8.553
 6768POPC   C2B24704  29.074  44.095   8.253
 6768POPC   C3B24705  29.023  44.096   7.953
 6768POPC   C4B24706  29.115  44.124   7.653
 6769POPC   NC324707  40.047  19.790   9.453
 6769POPC   PO424708  40.007  19.801   9.153
 6769POPC   GL124709  39.988  19.790   8.853
 6769POPC   GL224710  39.980  19.918   8.853
 6769POPC   C1A24711  39.965  19.838   8.553
 6769POPC   D2A24712  39.992  19.814   8.253
 6769POPC   C3A24713  40.008  19.823   7.953
 6769POPC   C4A24714  40.056  19.858   7.653
 6769POPC   C1B24715  40.083  20.126   8.553
 6769POPC   C2B24716  40.058  20.054   8.253
 6769POPC   C3B24717  40.037  20.110   7.953
 6769POPC   C4B24718  40.067  20.060   7.653
 6770POPC   NC324719  26.793  12.841   9.453
 6770POPC   PO424720  26.793  12.851   9.153
 6770POPC   GL124721  26.773  12.874   8.853
 6770POPC   GL224722  26.741  12.957   8.853
 6770POPC   C1A24723  26.806  12.839   8.553
 6770POPC   D2A24724  26.858  12.833   8.253
 6770POPC   C3A24725  26.820  12.815   7.953
 6770POPC   C4A24726  26.818  12.823   7.653
 6770POPC   C1B24727  26.684  13.046   8.553
 6770POPC   C2B24728  26.689  13.079   8.253
 6770POPC   C3B24729  26.684  13.000   7.953
 6770POPC   C4B24730  26.680  13.002   7.653
 6771POPC   NC324731  29.146   0.394   9.453
 6771POPC   PO424732  29.122   0.470   9.153
 6771POPC   GL124733  29.194   0.399   8.853
 6771POPC   GL224734  29.052   0.458   8.853
 6771POPC   C1A24735  29.096   0.442   8.553
 6771POPC   D2A24736  29.126   0.446   8.253
 6771POPC   C3A24737  29.110   0.403   7.953
 6771POPC   C4A24738  29.193   0.452   7.653
 6771POPC   C1B24739  28.882   0.466   8.553
 6771POPC   C2B24740  28.867   0.405   8.253
 6771POPC   C3B24741  28.870   0.472   7.953
 6771POPC   C4B24742  28.922   0.457   7.653
 6772POPC   NC324743  38.451  20.579   9.453
 6772POPC   PO424744  38.430  20.582   9.153
 6772POPC   GL124745  38.462  20.567   8.853
 6772POPC   GL224746  38.541  20.472   8.853
 6772POPC   C1A24747  38.498  20.639   8.553
 6772POPC   D2A24748  38.466  20.583   8.253
 6772POPC   C3A24749  38.499  20.569   7.953
 6772POPC   C4A24750  38.438  20.579   7.653
 6772POPC   C1B24751  38.492  20.327   8.553
 6772POPC   C2B24752  38.574  20.419   8.253
 6772POPC   C3B24753  38.536  20.347   7.953
 6772POPC   C4B24754  38.517  20.410   7.653
 6773POPC   NC324755  18.320   6.693   9.453
 6773POPC   PO424756  18.280   6.607   9.153
 6773POPC   GL124757  18.246   6.684   8.853
 6773POPC   GL224758  18.221   6.511   8.853
 6773POPC   C1A24759  18.271   6.635   8.553
 6773POPC   D2A24760  18.268   6.668   8.253
 6773POPC   C3A24761  18.260   6.661   7.953
 6773POPC   C4A24762  18.284   6.638   7.653
 6773POPC   C1B24763  18.161   6.416   8.553
 6773POPC   C2B24764  18.207   6.390   8.253
 6773POPC   C3B24765  18.137   6.375   7.953
 6773POPC   C4B24766  18.157   6.393   7.653
 6774POPC   NC324767  43.845  31.458   9.453
 6774POPC   PO424768  43.850  31.439   9.153
 6774POPC   GL124769  43.860  31.478   8.853
 6774POPC   GL224770  43.945  31.450   8.853
 6774POPC   C1A24771  43.850  31.427   8.553
 6774POPC   D2A24772  43.913  31.466   8.253
 6774POPC   C3A24773  43.844  31.440   7.953
 6774POPC   C4A24774  43.875  31.480   7.653
 6774POPC   C1B24775  44.060  31.343   8.553
 6774POPC   C2B24776  44.138  31.357   8.253
 6774POPC   C3B24777  44.110  31.337   7.953
 6774POPC   C4B24778  44.057  31.304   7.653
 6775POPC   NC324779  26.068   2.004   9.453
 6775POPC   PO424780  26.017   1.946   9.153
 6775POPC   GL124781  25.995   2.014   8.853
 6775POPC   GL224782  25.974   1.918   8.853
 6775POPC   C1A24783  26.000   2.016   8.553
 6775POPC   D2A24784  26.016   1.976   8.253
 6775POPC   C3A24785  26.070   1.948   7.953
 6775POPC   C4A24786  26.082   1.990   7.653
 6775POPC   C1B24787  25.878   1.815   8.553
 6775POPC   C2B24788  25.848   1.844   8.253
 6775POPC   C3B24789  25.828   1.826   7.953
 6775POPC   C4B24790  25.803   1.790   7.653
 6776POPC   NC324791  27.563  18.277   9.453
 6776POPC   PO424792  27.566  18.259   9.153
 6776POPC   GL124793  27.599  18.278   8.853
 6776POPC   GL224794  27.731  18.295   8.853
 6776POPC   C1A24795  27.596  18.239   8.553
 6776POPC   D2A24796  27.559  18.298   8.253
 6776POPC   C3A24797  27.622  18.307   7.953
 6776POPC   C4A24798  27.566  18.283   7.653
 6776POPC   C1B24799  27.836  18.280   8.553
 6776POPC   C2B24800  27.882  18.302   8.253
 6776POPC   C3B24801  27.793  18.349   7.953
 6776POPC   C4B24802  27.807  18.285   7.653
 6777POPC   NC324803   1.993  30.660   9.453
 6777POPC   PO424804   1.998  30.675   9.153
 6777POPC   GL124805   1.972  30.722   8.853
 6777POPC   GL224806   2.105  30.732   8.853
 6777POPC   C1A24807   2.035  30.704   8.553
 6777POPC   D2A24808   2.015  30.718   8.253
 6777POPC   C3A24809   1.965  30.651   7.953
 6777POPC   C4A24810   1.985  30.729   7.653
 6777POPC   C1B24811   2.281  30.705   8.553
 6777POPC   C2B24812   2.229  30.768   8.253
 6777POPC   C3B24813   2.228  30.737   7.953
 6777POPC   C4B24814   2.198  30.715   7.653
 6778POPC   NC324815   5.142  30.663   9.453
 6778POPC   PO424816   5.087  30.726   9.153
 6778POPC   GL124817   5.050  30.649   8.853
 6778POPC   GL224818   5.011  30.634   8.853
 6778POPC   C1A24819   5.059  30.648   8.553
 6778POPC   D2A24820   5.105  30.726   8.253
 6778POPC   C3A24821   5.131  30.727   7.953
 6778POPC   C4A24822   5.116  30.692   7.653
 6778POPC   C1B24823   4.847  30.632   8.553
 6778POPC   C2B24824   4.877  30.566   8.253
 6778POPC   C3B24825   4.824  30.642   7.953
 6778POPC   C4B24826   4.826  30.600   7.653
 6779POPC   NC324827  40.800  30.700   9.453
 6779POPC   PO424828  40.755  30.746   9.153
 6779POPC   GL124829  40.746  30.681   8.853
 6779POPC   GL224830  40.880  30.616   8.853
 6779POPC   C1A24831  40.794  30.667   8.553
 6779POPC   D2A24832  40.758  30.743   8.253
 6779POPC   C3A24833  40.789  30.746   7.953
 6779POPC   C4A24834  40.829  30.735   7.653
 6779POPC   C1B24835  40.999  30.514   8.553
 6779POPC   C2B24836  40.936  30.551   8.253
 6779POPC   C3B24837  40.938  30.507   7.953
 6779POPC   C4B24838  40.981  30.564   7.653
 6780POPC   NC324839   4.302  26.807   9.453
 6780POPC   PO424840   4.282  26.835   9.153
 6780POPC   GL124841   4.325  26.833   8.853
 6780POPC   GL224842   4.319  26.952   8.853
 6780POPC   C1A24843   4.352  26.855   8.553
 6780POPC   D2A24844   4.365  26.801   8.253
 6780POPC   C3A24845   4.333  26.865   7.953
 6780POPC   C4A24846   4.287  26.836   7.653
 6780POPC   C1B24847   4.256  27.059   8.553
 6780POPC   C2B24848   4.307  27.096   8.253
 6780POPC   C3B24849   4.215  27.019   7.953
 6780POPC   C4B24850   4.291  27.102   7.653
 6781POPC   NC324851  39.206  41.533   9.453
 6781POPC   PO424852  39.222  41.549   9.153
 6781POPC   GL124853  39.278  41.561   8.853
 6781POPC   GL224854  39.346  41.445   8.853
 6781POPC   C1A24855  39.235  41.602   8.553
 6781POPC   D2A24856  39.240  41.593   8.253
 6781POPC   C3A24857  39.220  41.604   7.953
 6781POPC   C4A24858  39.232  41.555   7.653
 6781POPC   C1B24859  39.435  41.437   8.553
 6781POPC   C2B24860  39.457  41.407   8.253
 6781POPC   C3B24861  39.430  41.370   7.953
 6781POPC   C4B24862  39.434  41.438   7.653
 6782POPC   NC324863  19.826  33.829   9.453
 6782POPC   PO424864  19.829  33.783   9.153
 6782POPC   GL124865  19.824  33.752   8.853
 6782POPC   GL224866  20.006  33.780   8.853
 6782POPC   C1A24867  19.868  33.793   8.553
 6782POPC   D2A24868  19.833  33.782   8.253
 6782POPC   C3A24869  19.800  33.815   7.953
 6782POPC   C4A24870  19.851  33.837   7.653
 6782POPC   C1B24871  20.059  33.798   8.553
 6782POPC   C2B24872  20.068  33.804   8.253
 6782POPC   C3B24873  20.094  33.885   7.953
 6782POPC   C4B24874  20.094  33.888   7.653
 6783POPC   NC324875   6.666  32.278   9.453
 6783POPC   PO424876   6.622  32.255   9.153
 6783POPC   GL124877   6.632  32.290   8.853
 6783POPC   GL224878   6.558  32.094   8.853
 6783POPC   C1A24879   6.610  32.208   8.553
 6783POPC   D2A24880   6.625  32.237   8.253
 6783POPC   C3A24881   6.693  32.213   7.953
 6783POPC   C4A24882   6.683  32.251   7.653
 6783POPC   C1B24883   6.550  32.037   8.553
 6783POPC   C2B24884   6.509  32.056   8.253
 6783POPC   C3B24885   6.540  32.010   7.953
 6783POPC   C4B24886   6.472  32.017   7.653
 6784POPC   NC324887   2.015   6.625   9.453
 6784POPC   PO424888   2.039   6.650   9.153
 6784POPC   GL124889   1.966   6.634   8.853
 6784POPC   GL224890   1.977   6.502   8.853
 6784POPC   C1A24891   1.982   6.622   8.553
 6784POPC   D2A24892   1.966   6.685   8.253
 6784POPC   C3A24893   1.988   6.627   7.953
 6784POPC   C4A24894   2.006   6.631   7.653
 6784POPC   C1B24895   2.000   6.375   8.553
 6784POPC   C2B24896   1.962   6.417   8.253
 6784POPC   C3B24897   1.984   6.424   7.953
 6784POPC   C4B24898   1.990   6.346   7.653
 6785POPC   NC324899  19.806  44.687   9.453
 6785POPC   PO424900  19.829  44.680   9.153
 6785POPC   GL124901  19.813  44.707   8.853
 6785POPC   GL224902  19.896  44.810   8.853
 6785POPC   C1A24903  19.847  44.647   8.553
 6785POPC   D2A24904  19.811  44.630   8.253
 6785POPC   C3A24905  19.821  44.633   7.953
 6785POPC   C4A24906  19.796  44.633   7.653
 6785POPC   C1B24907  19.984  44.865   8.553
 6785POPC   C2B24908  19.971  44.873   8.253
 6785POPC   C3B24909  19.956  44.835   7.953
 6785POPC   C4B24910  19.999  44.883   7.653
 6786POPC   NC324911  40.791  32.216   9.453
 6786POPC   PO424912  40.743  32.240   9.153
 6786POPC   GL124913  40.811  32.297   8.853
 6786POPC   GL224914  40.832  32.392   8.853
 6786POPC   C1A24915  40.740  32.259   8.553
 6786POPC   D2A24916  40.744  32.279   8.253
 6786POPC   C3A24917  40.826  32.226   7.953
 6786POPC   C4A24918  40.789  32.205   7.653
 6786POPC   C1B24919  40.829  32.501   8.553
 6786POPC   C2B24920  40.793  32.537   8.253
 6786POPC   C3B24921  40.758  32.453   7.953
 6786POPC   C4B24922  40.800  32.519   7.653
 6787POPC   NC324923  22.888  22.156   9.453
 6787POPC   PO424924  22.968  22.205   9.153
 6787POPC   GL124925  22.889  22.143   8.853
 6787POPC   GL224926  22.795  22.207   8.853
 6787POPC   C1A24927  22.971  22.153   8.553
 6787POPC   D2A24928  22.921  22.146   8.253
 6787POPC   C3A24929  22.936  22.204   7.953
 6787POPC   C4A24930  22.971  22.176   7.653
 6787POPC   C1B24931  22.715  22.190   8.553
 6787POPC   C2B24932  22.726  22.223   8.253
 6787POPC   C3B24933  22.693  22.263   7.953
 6787POPC   C4B24934  22.647  22.189   7.653
 6788POPC   NC324935  26.768  35.328   9.453
 6788POPC   PO424936  26.845  35.362   9.153
 6788POPC   GL124937  26.823  35.358   8.853
 6788POPC   GL224938  26.904  35.356   8.853
 6788POPC   C1A24939  26.846  35.377   8.553
 6788POPC   D2A24940  26.850  35.326   8.253
 6788POPC   C3A24941  26.820  35.328   7.953
 6788POPC   C4A24942  26.781  35.348   7.653
 6788POPC   C1B24943  27.060  35.287   8.553
 6788POPC   C2B24944  27.082  35.355   8.253
 6788POPC   C3B24945  27.028  35.345   7.953
 6788POPC   C4B24946  27.069  35.358   7.653
 6789POPC   NC324947  12.118  17.504   9.453
 6789POPC   PO424948  12.048  17.528   9.153
 6789POPC   GL124949  12.109  17.525   8.853
 6789POPC   GL224950  12.012  17.393   8.853
 6789POPC   C1A24951  12.061  17.534   8.553
 6789POPC   D2A24952  12.067  17.533   8.253
 6789POPC   C3A24953  12.073  17.466   7.953
 6789POPC   C4A24954  12.121  17.519   7.653
 6789POPC   C1B24955  11.953  17.306   8.553
 6789POPC   C2B24956  12.004  17.311   8.253
 6789POPC   C3B24957  11.982  17.318   7.953
 6789POPC   C4B24958  11.949  17.270   7.653
 6790POPC   NC324959   8.956  23.726   9.453
 6790POPC   PO424960   9.003  23.711   9.153
 6790POPC   GL124961   8.938  23.700   8.853
 6790POPC   GL224962   8.954  23.604   8.853
 6790POPC   C1A24963   9.005  23.730   8.553
 6790POPC   D2A24964   8.943  23.758   8.253
 6790POPC   C3A24965   9.005  23.687   7.953
 6790POPC   C4A24966   8.927  23.685   7.653
 6790POPC   C1B24967   8.977  23.495   8.553
 6790POPC   C2B24968   8.963  23.426   8.253
 6790POPC   C3B24969   8.940  23.476   7.953
 6790POPC   C4B24970   8.957  23.475   7.653
 6791POPC   NC324971  23.714  12.890   9.453
 6791POPC   PO424972  23.738  12.875   9.153
 6791POPC   GL124973  23.675  12.873   8.853
 6791POPC   GL224974  23.583  12.782   8.853
 6791POPC   C1A24975  23.733  12.881   8.553
 6791POPC   D2A24976  23.686  12.826   8.253
 6791POPC   C3A24977  23.705  12.884   7.953
 6791POPC   C4A24978  23.711  12.851   7.653
 6791POPC   C1B24979  23.503  12.784   8.553
 6791POPC   C2B24980  23.447  12.724   8.253
 6791POPC   C3B24981  23.446  12.723   7.953
 6791POPC   C4B24982  23.447  12.689   7.653
 6792POPC   NC324983  25.279  19.814   9.453
 6792POPC   PO424984  25.273  19.786   9.153
 6792POPC   GL124985  25.245  19.857   8.853
 6792POPC   GL224986  25.169  19.915   8.853
 6792POPC   C1A24987  25.249  19.874   8.553
 6792POPC   D2A24988  25.304  19.845   8.253
 6792POPC   C3A24989  25.237  19.805   7.953
 6792POPC   C4A24990  25.251  19.832   7.653
 6792POPC   C1B24991  25.148  20.070   8.553
 6792POPC   C2B24992  25.123  20.027   8.253
 6792POPC   C3B24993  25.179  20.049   7.953
 6792POPC   C4B24994  25.127  20.025   7.653
 6793POPC   NC324995  14.388  43.129   9.453
 6793POPC   PO424996  14.436  43.131   9.153
 6793POPC   GL124997  14.377  43.103   8.853
 6793POPC   GL224998  14.501  43.178   8.853
 6793POPC   C1A24999  14.384  43.084   8.553
 6793POPC   D2A25000  14.376  43.103   8.253
 6793POPC   C3A25001  14.391  43.093   7.953
 6793POPC   C4A25002  14.384  43.088   7.653
 6793POPC   C1B25003  14.532  43.307   8.553
 6793POPC   C2B25004  14.548  43.355   8.253
 6793POPC   C3B25005  14.578  43.300   7.953
 6793POPC   C4B25006  14.554  43.335   7.653
 6794POPC   NC325007  26.794  33.815   9.453
 6794POPC   PO425008  26.806  33.753   9.153
 6794POPC   GL125009  26.768  33.797   8.853
 6794POPC   GL225010  26.745  33.707   8.853
 6794POPC   C1A25011  26.793  33.796   8.553
 6794POPC   D2A25012  26.821  33.838   8.253
 6794POPC   C3A25013  26.810  33.840   7.953
 6794POPC   C4A25014  26.822  33.756   7.653
 6794POPC   C1B25015  26.660  33.628   8.553
 6794POPC   C2B25016  26.599  33.592   8.253
 6794POPC   C3B25017  26.681  33.666   7.953
 6794POPC   C4B25018  26.600  33.605   7.653
 6795POPC   NC325019  29.956  12.826   9.453
 6795POPC   PO425020  29.959  12.853   9.153
 6795POPC   GL125021  29.897  12.848   8.853
 6795POPC   GL225022  30.084  12.819   8.853
 6795POPC   C1A25023  29.970  12.885   8.553
 6795POPC   D2A25024  29.919  12.839   8.253
 6795POPC   C3A25025  29.951  12.840   7.953
 6795POPC   C4A25026  29.921  12.823   7.653
 6795POPC   C1B25027  30.143  12.738   8.553
 6795POPC   C2B25028  30.113  12.733   8.253
 6795POPC   C3B25029  30.144  12.811   7.953
 6795POPC   C4B25030  30.184  12.792   7.653
 6796POPC   NC325031  18.320   1.985   9.453
 6796POPC   PO425032  18.247   1.975   9.153
 6796POPC   GL125033  18.293   1.987   8.853
 6796POPC   GL225034  18.220   1.924   8.853
 6796POPC   C1A25035  18.311   2.024   8.553
 6796POPC   D2A25036  18.332   1.946   8.253
 6796POPC   C3A25037  18.295   1.958   7.953
 6796POPC   C4A25038  18.267   2.003   7.653
 6796POPC   C1B25039  18.144   1.842   8.553
 6796POPC   C2B25040  18.086   1.785   8.253
 6796POPC   C3B25041  18.159   1.799   7.953
 6796POPC   C4B25042  18.151   1.757   7.653
 6797POPC   NC325043  23.689   1.943   9.453
 6797POPC   PO425044  23.695   2.032   9.153
 6797POPC   GL125045  23.668   2.006   8.853
 6797POPC   GL225046  23.826   1.916   8.853
 6797POPC   C1A25047  23.677   1.986   8.553
 6797POPC   D2A25048  23.735   1.952   8.253
 6797POPC   C3A25049  23.752   2.023   7.953
 6797POPC   C4A25050  23.695   1.960   7.653
 6797POPC   C1B25051  23.979   1.874   8.553
 6797POPC   C2B25052  23.981   1.908   8.253
 6797POPC   C3B25053  23.985   1.869   7.953
 6797POPC   C4B25054  23.982   1.873   7.653
 6798POPC   NC325055  29.962   0.471   9.453
 6798POPC   PO425056  29.947   0.398   9.153
 6798POPC   GL125057  29.966   0.405   8.853
 6798POPC   GL225058  29.847   0.362   8.853
 6798POPC   C1A25059  29.958   0.409   8.553
 6798POPC   D2A25060  29.964   0.430   8.253
 6798POPC   C3A25061  29.905   0.476   7.953
 6798POPC   C4A25062  29.876   0.446   7.653
 6798POPC   C1B25063  29.862   0.206   8.553
 6798POPC   C2B25064  29.812   0.242   8.253
 6798POPC   C3B25065  29.828   0.245   7.953
 6798POPC   C4B25066  29.820   0.222   7.653
 6799POPC   NC325067  20.620  33.767   9.453
 6799POPC   PO425068  20.611  33.832   9.153
 6799POPC   GL125069  20.630  33.824   8.853
 6799POPC   GL225070  20.735  33.847   8.853
 6799POPC   C1A25071  20.625  33.843   8.553
 6799POPC   D2A25072  20.651  33.822   8.253
 6799POPC   C3A25073  20.588  33.806   7.953
 6799POPC   C4A25074  20.631  33.816   7.653
 6799POPC   C1B25075  20.796  33.916   8.553
 6799POPC   C2B25076  20.811  33.844   8.253
 6799POPC   C3B25077  20.887  33.857   7.953
 6799POPC   C4B25078  20.824  33.874   7.653
 6800POPC   NC325079  19.881  15.936   9.453
 6800POPC   PO425080  19.875  15.977   9.153
 6800POPC   GL125081  19.816  15.954   8.853
 6800POPC   GL225082  19.958  15.993   8.853
 6800POPC   C1A25083  19.808  15.948   8.553
 6800POPC   D2A25084  19.820  15.939   8.253
 6800POPC   C3A25085  19.827  15.935   7.953
 6800POPC   C4A25086  19.826  15.997   7.653
 6800POPC   C1B25087  20.115  15.983   8.553
 6800POPC   C2B25088  20.073  16.000   8.253
 6800POPC   C3B25089  20.104  16.056   7.953
 6800POPC   C4B25090  20.086  16.077   7.653
 6801POPC   NC325091   4.287  17.515   9.453
 6801POPC   PO425092   4.279  17.498   9.153
 6801POPC   GL125093   4.332  17.554   8.853
 6801POPC   GL225094   4.153  17.480   8.853
 6801POPC   C1A25095   4.288  17.531   8.553
 6801POPC   D2A25096   4.281  17.541   8.253
 6801POPC   C3A25097   4.302  17.546   7.953
 6801POPC   C4A25098   4.314  17.537   7.653
 6801POPC   C1B25099   4.038  17.509   8.553
 6801POPC   C2B25100   4.042  17.576   8.253
 6801POPC   C3B25101   4.096  17.574   7.953
 6801POPC   C4B25102   4.113  17.575   7.653
 6802POPC   NC325103   3.514  42.356   9.453
 6802POPC   PO425104   3.589  42.345   9.153
 6802POPC   GL125105   3.567  42.289   8.853
 6802POPC   GL225106   3.641  42.484   8.853
 6802POPC   C1A25107   3.548  42.293   8.553
 6802POPC   D2A25108   3.524  42.300   8.253
 6802POPC   C3A25109   3.509  42.348   7.953
 6802POPC   C4A25110   3.574  42.345   7.653
 6802POPC   C1B25111   3.654  42.596   8.553
 6802POPC   C2B25112   3.606  42.547   8.253
 6802POPC   C3B25113   3.686  42.543   7.953
 6802POPC   C4B25114   3.666  42.510   7.653
 6803POPC   NC325115  40.014  26.792   9.453
 6803POPC   PO425116  39.979  26.804   9.153
 6803POPC   GL125117  40.045  26.789   8.853
 6803POPC   GL225118  40.136  26.896   8.853
 6803POPC   C1A25119  39.977  26.863   8.553
 6803POPC   D2A25120  40.052  26.804   8.253
 6803POPC   C3A25121  40.048  26.804   7.953
 6803POPC   C4A25122  40.011  26.820   7.653
 6803POPC   C1B25123  40.189  27.019   8.553
 6803POPC   C2B25124  40.220  27.005   8.253
 6803POPC   C3B25125  40.155  27.011   7.953
 6803POPC   C4B25126  40.225  26.944   7.653
 6804POPC   NC325127  25.283  36.857   9.453
 6804POPC   PO425128  25.301  36.934   9.153
 6804POPC   GL125129  25.292  36.930   8.853
 6804POPC   GL225130  25.282  37.005   8.853
 6804POPC   C1A25131  25.285  36.932   8.553
 6804POPC   D2A25132  25.222  36.886   8.253
 6804POPC   C3A25133  25.246  36.932   7.953
 6804POPC   C4A25134  25.252  36.877   7.653
 6804POPC   C1B25135  25.262  37.185   8.553
 6804POPC   C2B25136  25.218  37.181   8.253
 6804POPC   C3B25137  25.202  37.139   7.953
 6804POPC   C4B25138  25.222  37.188   7.653
 6805POPC   NC325139   8.953  40.044   9.453
 6805POPC   PO425140   8.954  39.980   9.153
 6805POPC   GL125141   8.937  39.965   8.853
 6805POPC   GL225142   8.879  40.133   8.853
 6805POPC   C1A25143   8.992  39.977   8.553
 6805POPC   D2A25144   8.947  39.986   8.253
 6805POPC   C3A25145   8.971  39.966   7.953
 6805POPC   C4A25146   9.001  40.003   7.653
 6805POPC   C1B25147   8.778  40.143   8.553
 6805POPC   C2B25148   8.816  40.122   8.253
 6805POPC   C3B25149   8.770  40.199   7.953
 6805POPC   C4B25150   8.786  40.121   7.653
 6806POPC   NC325151  28.394   4.349   9.453
 6806POPC   PO425152  28.394   4.276   9.153
 6806POPC   GL125153  28.337   4.365   8.853
 6806POPC   GL225154  28.351   4.236   8.853
 6806POPC   C1A25155  28.328   4.291   8.553
 6806POPC   D2A25156  28.369   4.273   8.253
 6806POPC   C3A25157  28.320   4.349   7.953
 6806POPC   C4A25158  28.323   4.355   7.653
 6806POPC   C1B25159  28.285   4.111   8.553
 6806POPC   C2B25160  28.268   4.135   8.253
 6806POPC   C3B25161  28.249   4.093   7.953
 6806POPC   C4B25162  28.216   4.081   7.653
 6807POPC   NC325163  21.432  35.352   9.453
 6807POPC   PO425164  21.363  35.369   9.153
 6807POPC   GL125165  21.373  35.306   8.853
 6807POPC   GL225166  21.416  35.212   8.853
 6807POPC   C1A25167  21.433  35.370   8.553
 6807POPC   D2A25168  21.382  35.315   8.253
 6807POPC   C3A25169  21.356  35.338   7.953
 6807POPC   C4A25170  21.368  35.346   7.653
 6807POPC   C1B25171  21.375  35.098   8.553
 6807POPC   C2B25172  21.438  35.072   8.253
 6807POPC   C3B25173  21.435  35.089   7.953
 6807POPC   C4B25174  21.416  35.099   7.653
 6808POPC   NC325175  40.807  36.116   9.453
 6808POPC   PO425176  40.743  36.105   9.153
 6808POPC   GL125177  40.747  36.120   8.853
 6808POPC   GL225178  40.866  36.106   8.853
 6808POPC   C1A25179  40.795  36.135   8.553
 6808POPC   D2A25180  40.814  36.128   8.253
 6808POPC   C3A25181  40.771  36.099   7.953
 6808POPC   C4A25182  40.748  36.131   7.653
 6808POPC   C1B25183  41.005  36.002   8.553
 6808POPC   C2B25184  41.058  35.994   8.253
 6808POPC   C3B25185  40.976  36.059   7.953
 6808POPC   C4B25186  40.986  36.020   7.653
 6809POPC   NC325187   8.203  29.187   9.453
 6809POPC   PO425188   8.170  29.186   9.153
 6809POPC   GL125189   8.148  29.148   8.853
 6809POPC   GL225190   8.287  29.180   8.853
 6809POPC   C1A25191   8.156  29.168   8.553
 6809POPC   D2A25192   8.225  29.124   8.253
 6809POPC   C3A25193   8.236  29.156   7.953
 6809POPC   C4A25194   8.209  29.176   7.653
 6809POPC   C1B25195   8.462  29.202   8.553
 6809POPC   C2B25196   8.442  29.171   8.253
 6809POPC   C3B25197   8.460  29.154   7.953
 6809POPC   C4B25198   8.408  29.181   7.653
 6810POPC   NC325199  19.087  14.416   9.453
 6810POPC   PO425200  19.036  14.373   9.153
 6810POPC   GL125201  19.077  14.422   8.853
 6810POPC   GL225202  19.180  14.472   8.853
 6810POPC   C1A25203  19.021  14.413   8.553
 6810POPC   D2A25204  19.046  14.451   8.253
 6810POPC   C3A25205  19.020  14.358   7.953
 6810POPC   C4A25206  19.036  14.357   7.653
 6810POPC   C1B25207  19.335  14.460   8.553
 6810POPC   C2B25208  19.253  14.491   8.253
 6810POPC   C3B25209  19.279  14.450   7.953
 6810POPC   C4B25210  19.329  14.466   7.653
 6811POPC   NC325211  19.034  17.534   9.453
 6811POPC   PO425212  19.103  17.499   9.153
 6811POPC   GL125213  19.044  17.544   8.853
 6811POPC   GL225214  19.061  17.411   8.853
 6811POPC   C1A25215  19.035  17.472   8.553
 6811POPC   D2A25216  19.038  17.499   8.253
 6811POPC   C3A25217  19.071  17.500   7.953
 6811POPC   C4A25218  19.076  17.499   7.653
 6811POPC   C1B25219  19.075  17.265   8.553
 6811POPC   C2B25220  19.070  17.222   8.253
 6811POPC   C3B25221  19.065  17.207   7.953
 6811POPC   C4B25222  19.071  17.286   7.653
 6812POPC   NC325223   5.883  37.635   9.453
 6812POPC   PO425224   5.854  37.630   9.153
 6812POPC   GL125225   5.917  37.658   8.853
 6812POPC   GL225226   5.748  37.806   8.853
 6812POPC   C1A25227   5.916  37.643   8.553
 6812POPC   D2A25228   5.916  37.634   8.253
 6812POPC   C3A25229   5.827  37.636   7.953
 6812POPC   C4A25230   5.906  37.646   7.653
 6812POPC   C1B25231   5.671  37.841   8.553
 6812POPC   C2B25232   5.751  37.878   8.253
 6812POPC   C3B25233   5.705  37.857   7.953
 6812POPC   C4B25234   5.672  37.910   7.653
 6813POPC   NC325235  35.399   1.961   9.453
 6813POPC   PO425236  35.327   1.986   9.153
 6813POPC   GL125237  35.303   1.956   8.853
 6813POPC   GL225238  35.231   1.850   8.853
 6813POPC   C1A25239  35.348   1.943   8.553
 6813POPC   D2A25240  35.329   1.967   8.253
 6813POPC   C3A25241  35.398   1.946   7.953
 6813POPC   C4A25242  35.317   1.945   7.653
 6813POPC   C1B25243  35.233   1.840   8.553
 6813POPC   C2B25244  35.225   1.798   8.253
 6813POPC   C3B25245  35.161   1.767   7.953
 6813POPC   C4B25246  35.191   1.825   7.653
 6814POPC   NC325247   2.720  12.836   9.453
 6814POPC   PO425248   2.741  12.812   9.153
 6814POPC   GL125249   2.811  12.896   8.853
 6814POPC   GL225250   2.903  12.939   8.853
 6814POPC   C1A25251   2.790  12.880   8.553
 6814POPC   D2A25252   2.789  12.854   8.253
 6814POPC   C3A25253   2.804  12.897   7.953
 6814POPC   C4A25254   2.719  12.882   7.653
 6814POPC   C1B25255   2.928  13.062   8.553
 6814POPC   C2B25256   2.924  13.007   8.253
 6814POPC   C3B25257   2.954  12.997   7.953
 6814POPC   C4B25258   2.910  13.020   7.653
 6815POPC   NC325259  35.303  29.903   9.453
 6815POPC   PO425260  35.349  29.938   9.153
 6815POPC   GL125261  35.357  29.871   8.853
 6815POPC   GL225262  35.249  29.890   8.853
 6815POPC   C1A25263  35.373  29.886   8.553
 6815POPC   D2A25264  35.349  29.959   8.253
 6815POPC   C3A25265  35.331  29.937   7.953
 6815POPC   C4A25266  35.305  29.942   7.653
 6815POPC   C1B25267  35.147  29.852   8.553
 6815POPC   C2B25268  35.076  29.891   8.253
 6815POPC   C3B25269  35.154  29.856   7.953
 6815POPC   C4B25270  35.127  29.891   7.653
 6816POPC   NC325271  22.920  16.754   9.453
 6816POPC   PO425272  22.949  16.714   9.153
 6816POPC   GL125273  22.892  16.687   8.853
 6816POPC   GL225274  23.056  16.750   8.853
 6816POPC   C1A25275  22.945  16.779   8.553
 6816POPC   D2A25276  22.926  16.738   8.253
 6816POPC   C3A25277  22.902  16.701   7.953
 6816POPC   C4A25278  22.948  16.737   7.653
 6816POPC   C1B25279  23.145  16.692   8.553
 6816POPC   C2B25280  23.187  16.714   8.253
 6816POPC   C3B25281  23.166  16.668   7.953
 6816POPC   C4B25282  23.233  16.657   7.653
 6817POPC   NC325283  29.135  18.283   9.453
 6817POPC   PO425284  29.117  18.258   9.153
 6817POPC   GL125285  29.111  18.319   8.853
 6817POPC   GL225286  29.142  18.206   8.853
 6817POPC   C1A25287  29.134  18.236   8.553
 6817POPC   D2A25288  29.101  18.326   8.253
 6817POPC   C3A25289  29.131  18.289   7.953
 6817POPC   C4A25290  29.120  18.238   7.653
 6817POPC   C1B25291  29.144  18.011   8.553
 6817POPC   C2B25292  29.165  18.065   8.253
 6817POPC   C3B25293  29.137  18.044   7.953
 6817POPC   C4B25294  29.203  18.063   7.653
 6818POPC   NC325295  11.255  25.225   9.453
 6818POPC   PO425296  11.251  25.303   9.153
 6818POPC   GL125297  11.263  25.219   8.853
 6818POPC   GL225298  11.320  25.429   8.853
 6818POPC   C1A25299  11.267  25.293   8.553
 6818POPC   D2A25300  11.256  25.221   8.253
 6818POPC   C3A25301  11.251  25.247   7.953
 6818POPC   C4A25302  11.327  25.278   7.653
 6818POPC   C1B25303  11.309  25.480   8.553
 6818POPC   C2B25304  11.367  25.554   8.253
 6818POPC   C3B25305  11.367  25.488   7.953
 6818POPC   C4B25306  11.305  25.559   7.653
 6819POPC   NC325307  39.252  26.030   9.453
 6819POPC   PO425308  39.217  26.045   9.153
 6819POPC   GL125309  39.256  26.083   8.853
 6819POPC   GL225310  39.126  25.920   8.853
 6819POPC   C1A25311  39.202  26.021   8.553
 6819POPC   D2A25312  39.226  26.012   8.253
 6819POPC   C3A25313  39.234  26.008   7.953
 6819POPC   C4A25314  39.265  26.085   7.653
 6819POPC   C1B25315  39.053  25.785   8.553
 6819POPC   C2B25316  39.078  25.859   8.253
 6819POPC   C3B25317  39.096  25.800   7.953
 6819POPC   C4B25318  39.112  25.874   7.653
 6820POPC   NC325319  29.170  35.388   9.453
 6820POPC   PO425320  29.139  35.334   9.153
 6820POPC   GL125321  29.177  35.390   8.853
 6820POPC   GL225322  29.059  35.273   8.853
 6820POPC   C1A25323  29.108  35.379   8.553
 6820POPC   D2A25324  29.097  35.339   8.253
 6820POPC   C3A25325  29.110  35.387   7.953
 6820POPC   C4A25326  29.140  35.386   7.653
 6820POPC   C1B25327  28.985  35.237   8.553
 6820POPC   C2B25328  29.003  35.162   8.253
 6820POPC   C3B25329  28.976  35.185   7.953
 6820POPC   C4B25330  28.963  35.183   7.653
 6821POPC   NC325331   3.589  43.851   9.453
 6821POPC   PO425332   3.568  43.840   9.153
 6821POPC   GL125333   3.585  43.926   8.853
 6821POPC   GL225334   3.543  43.974   8.853
 6821POPC   C1A25335   3.522  43.867   8.553
 6821POPC   D2A25336   3.545  43.908   8.253
 6821POPC   C3A25337   3.565  43.855   7.953
 6821POPC   C4A25338   3.493  43.897   7.653
 6821POPC   C1B25339   3.577  44.117   8.553
 6821POPC   C2B25340   3.572  44.171   8.253
 6821POPC   C3B25341   3.608  44.169   7.953
 6821POPC   C4B25342   3.567  44.135   7.653
 6822POPC   NC325343  17.516  28.329   9.453
 6822POPC   PO425344  17.509  28.403   9.153
 6822POPC   GL125345  17.504  28.351   8.853
 6822POPC   GL225346  17.441  28.492   8.853
 6822POPC   C1A25347  17.468  28.415   8.553
 6822POPC   D2A25348  17.544  28.414   8.253
 6822POPC   C3A25349  17.475  28.402   7.953
 6822POPC   C4A25350  17.516  28.343   7.653
 6822POPC   C1B25351  17.309  28.535   8.553
 6822POPC   C2B25352  17.336  28.513   8.253
 6822POPC   C3B25353  17.299  28.551   7.953
 6822POPC   C4B25354  17.316  28.558   7.653
 6823POPC   NC325355  39.269   3.581   9.453
 6823POPC   PO425356  39.217   3.544   9.153
 6823POPC   GL125357  39.240   3.561   8.853
 6823POPC   GL225358  39.326   3.557   8.853
 6823POPC   C1A25359  39.280   3.580   8.553
 6823POPC   D2A25360  39.231   3.575   8.253
 6823POPC   C3A25361  39.208   3.539   7.953
 6823POPC   C4A25362  39.245   3.517   7.653
 6823POPC   C1B25363  39.430   3.621   8.553
 6823POPC   C2B25364  39.431   3.576   8.253
 6823POPC   C3B25365  39.423   3.595   7.953
 6823POPC   C4B25366  39.448   3.663   7.653
 6824POPC   NC325367   8.166  24.466   9.453
 6824POPC   PO425368   8.208  24.461   9.153
 6824POPC   GL125369   8.176  24.485   8.853
 6824POPC   GL225370   8.260  24.326   8.853
 6824POPC   C1A25371   8.166  24.535   8.553
 6824POPC   D2A25372   8.187  24.535   8.253
 6824POPC   C3A25373   8.240  24.469   7.953
 6824POPC   C4A25374   8.205  24.518   7.653
 6824POPC   C1B25375   8.285  24.270   8.553
 6824POPC   C2B25376   8.251  24.290   8.253
 6824POPC   C3B25377   8.229  24.297   7.953
 6824POPC   C4B25378   8.295  24.279   7.653
 6825POPC   NC325379  26.779   1.187   9.453
 6825POPC   PO425380  26.852   1.244   9.153
 6825POPC   GL125381  26.790   1.188   8.853
 6825POPC   GL225382  26.731   1.116   8.853
 6825POPC   C1A25383  26.815   1.203   8.553
 6825POPC   D2A25384  26.845   1.189   8.253
 6825POPC   C3A25385  26.832   1.226   7.953
 6825POPC   C4A25386  26.788   1.202   7.653
 6825POPC   C1B25387  26.621   1.064   8.553
 6825POPC   C2B25388  26.651   1.067   8.253
 6825POPC   C3B25389  26.664   1.076   7.953
 6825POPC   C4B25390  26.636   1.048   7.653
 6826POPC   NC325391  10.515   5.823   9.453
 6826POPC   PO425392  10.541   5.842   9.153
 6826POPC   GL125393  10.561   5.835   8.853
 6826POPC   GL225394  10.611   5.818   8.853
 6826POPC   C1A25395  10.530   5.829   8.553
 6826POPC   D2A25396  10.489   5.846   8.253
 6826POPC   C3A25397  10.531   5.868   7.953
 6826POPC   C4A25398  10.569   5.897   7.653
 6826POPC   C1B25399  10.665   5.725   8.553
 6826POPC   C2B25400  10.687   5.687   8.253
 6826POPC   C3B25401  10.656   5.740   7.953
 6826POPC   C4B25402  10.738   5.685   7.653
 6827POPC   NC325403  11.256  43.133   9.453
 6827POPC   PO425404  11.349  43.152   9.153
 6827POPC   GL125405  11.342  43.091   8.853
 6827POPC   GL225406  11.232  42.973   8.853
 6827POPC   C1A25407  11.347  43.124   8.553
 6827POPC   D2A25408  11.327  43.076   8.253
 6827POPC   C3A25409  11.340  43.131   7.953
 6827POPC   C4A25410  11.306  43.157   7.653
 6827POPC   C1B25411  11.149  42.901   8.553
 6827POPC   C2B25412  11.159  42.891   8.253
 6827POPC   C3B25413  11.113  42.950   7.953
 6827POPC   C4B25414  11.156  42.962   7.653
 6828POPC   NC325415   0.487  35.352   9.453
 6828POPC   PO425416   0.432  35.303   9.153
 6828POPC   GL125417   0.450  35.345   8.853
 6828POPC   GL225418   0.393  35.470   8.853
 6828POPC   C1A25419   0.399  35.373   8.553
 6828POPC   D2A25420   0.405  35.351   8.253
 6828POPC   C3A25421   0.421  35.399   7.953
 6828POPC   C4A25422   0.471  35.356   7.653
 6828POPC   C1B25423   0.262  35.552   8.553
 6828POPC   C2B25424   0.310  35.487   8.253
 6828POPC   C3B25425   0.221  35.541   7.953
 6828POPC   C4B25426   0.232  35.516   7.653
 6829POPC   NC325427  25.227   1.949   9.453
 6829POPC   PO425428  25.315   1.957   9.153
 6829POPC   GL125429  25.268   1.972   8.853
 6829POPC   GL225430  25.124   1.982   8.853
 6829POPC   C1A25431  25.256   1.997   8.553
 6829POPC   D2A25432  25.272   2.028   8.253
 6829POPC   C3A25433  25.262   1.999   7.953
 6829POPC   C4A25434  25.216   1.996   7.653
 6829POPC   C1B25435  25.038   1.941   8.553
 6829POPC   C2B25436  25.013   1.943   8.253
 6829POPC   C3B25437  25.026   1.945   7.953
 6829POPC   C4B25438  25.039   1.947   7.653
 6830POPC   NC325439  12.827  44.633   9.453
 6830POPC   PO425440  12.841  44.657   9.153
 6830POPC   GL125441  12.824  44.641   8.853
 6830POPC   GL225442  12.710  44.680   8.853
 6830POPC   C1A25443  12.851  44.695   8.553
 6830POPC   D2A25444  12.830  44.649   8.253
 6830POPC   C3A25445  12.824  44.693   7.953
 6830POPC   C4A25446  12.836  44.668   7.653
 6830POPC   C1B25447  12.626  44.758   8.553
 6830POPC   C2B25448  12.588  44.742   8.253
 6830POPC   C3B25449  12.589  44.777   7.953
 6830POPC   C4B25450  12.606  44.809   7.653
 6831POPC   NC325451  25.238  15.965   9.453
 6831POPC   PO425452  25.245  15.942   9.153
 6831POPC   GL125453  25.273  15.943   8.853
 6831POPC   GL225454  25.220  16.046   8.853
 6831POPC   C1A25455  25.246  15.910   8.553
 6831POPC   D2A25456  25.302  15.993   8.253
 6831POPC   C3A25457  25.288  15.978   7.953
 6831POPC   C4A25458  25.279  15.984   7.653
 6831POPC   C1B25459  25.243  16.219   8.553
 6831POPC   C2B25460  25.175  16.225   8.253
 6831POPC   C3B25461  25.175  16.227   7.953
 6831POPC   C4B25462  25.221  16.187   7.653
 6832POPC   NC325463   5.079  40.741   9.453
 6832POPC   PO425464   5.066  40.792   9.153
 6832POPC   GL125465   5.121  40.765   8.853
 6832POPC   GL225466   5.173  40.868   8.853
 6832POPC   C1A25467   5.061  40.810   8.553
 6832POPC   D2A25468   5.049  40.767   8.253
 6832POPC   C3A25469   5.109  40.739   7.953
 6832POPC   C4A25470   5.124  40.768   7.653
 6832POPC   C1B25471   5.258  41.015   8.553
 6832POPC   C2B25472   5.182  40.976   8.253
 6832POPC   C3B25473   5.197  40.962   7.953
 6832POPC   C4B25474   5.246  40.995   7.653
 6833POPC   NC325475  14.432  19.038   9.453
 6833POPC   PO425476  14.373  19.029   9.153
 6833POPC   GL125477  14.354  19.096   8.853
 6833POPC   GL225478  14.512  18.957   8.853
 6833POPC   C1A25479  14.394  19.085   8.553
 6833POPC   D2A25480  14.360  19.062   8.253
 6833POPC   C3A25481  14.441  19.088   7.953
 6833POPC   C4A25482  14.453  19.075   7.653
 6833POPC   C1B25483  14.642  18.907   8.553
 6833POPC   C2B25484  14.604  18.973   8.253
 6833POPC   C3B25485  14.624  18.987   7.953
 6833POPC   C4B25486  14.656  18.976   7.653
 6834POPC   NC325487  26.771  40.046   9.453
 6834POPC   PO425488  26.842  40.055   9.153
 6834POPC   GL125489  26.767  39.982   8.853
 6834POPC   GL225490  26.974  40.042   8.853
 6834POPC   C1A25491  26.859  40.026   8.553
 6834POPC   D2A25492  26.797  40.050   8.253
 6834POPC   C3A25493  26.806  40.030   7.953
 6834POPC   C4A25494  26.812  39.966   7.653
 6834POPC   C1B25495  27.039  39.996   8.553
 6834POPC   C2B25496  27.042  40.044   8.253
 6834POPC   C3B25497  27.078  39.960   7.953
 6834POPC   C4B25498  27.108  39.968   7.653
 6835POPC   NC325499   5.833  33.042   9.453
 6835POPC   PO425500   5.892  33.068   9.153
 6835POPC   GL125501   5.837  33.045   8.853
 6835POPC   GL225502   5.860  33.170   8.853
 6835POPC   C1A25503   5.904  32.981   8.553
 6835POPC   D2A25504   5.917  32.982   8.253
 6835POPC   C3A25505   5.897  33.010   7.953
 6835POPC   C4A25506   5.878  33.043   7.653
 6835POPC   C1B25507   5.787  33.243   8.553
 6835POPC   C2B25508   5.799  33.266   8.253
 6835POPC   C3B25509   5.831  33.293   7.953
 6835POPC   C4B25510   5.800  33.223   7.653
 6836POPC   NC325511  32.217   2.038   9.453
 6836POPC   PO425512  32.255   1.966   9.153
 6836POPC   GL125513  32.208   1.981   8.853
 6836POPC   GL225514  32.375   1.911   8.853
 6836POPC   C1A25515  32.217   1.988   8.553
 6836POPC   D2A25516  32.277   1.969   8.253
 6836POPC   C3A25517  32.256   1.946   7.953
 6836POPC   C4A25518  32.264   1.965   7.653
 6836POPC   C1B25519  32.397   1.860   8.553
 6836POPC   C2B25520  32.400   1.793   8.253
 6836POPC   C3B25521  32.462   1.835   7.953
 6836POPC   C4B25522  32.398   1.838   7.653
 6837POPC   NC325523  10.504   8.961   9.453
 6837POPC   PO425524  10.543   8.981   9.153
 6837POPC   GL125525  10.552   8.950   8.853
 6837POPC   GL225526  10.652   8.947   8.853
 6837POPC   C1A25527  10.520   8.976   8.553
 6837POPC   D2A25528  10.557   8.930   8.253
 6837POPC   C3A25529  10.493   8.981   7.953
 6837POPC   C4A25530  10.530   8.927   7.653
 6837POPC   C1B25531  10.726   8.879   8.553
 6837POPC   C2B25532  10.808   8.952   8.253
 6837POPC   C3B25533  10.773   8.898   7.953
 6837POPC   C4B25534  10.735   8.962   7.653
 6838POPC   NC325535  39.270  32.251   9.453
 6838POPC   PO425536  39.200  32.233   9.153
 6838POPC   GL125537  39.270  32.229   8.853
 6838POPC   GL225538  39.294  32.389   8.853
 6838POPC   C1A25539  39.264  32.271   8.553
 6838POPC   D2A25540  39.194  32.203   8.253
 6838POPC   C3A25541  39.183  32.274   7.953
 6838POPC   C4A25542  39.267  32.227   7.653
 6838POPC   C1B25543  39.362  32.445   8.553
 6838POPC   C2B25544  39.372  32.494   8.253
 6838POPC   C3B25545  39.332  32.505   7.953
 6838POPC   C4B25546  39.369  32.501   7.653
 6839POPC   NC325547   5.119   7.467   9.453
 6839POPC   PO425548   5.100   7.436   9.153
 6839POPC   GL125549   5.101   7.396   8.853
 6839POPC   GL225550   5.036   7.566   8.853
 6839POPC   C1A25551   5.094   7.433   8.553
 6839POPC   D2A25552   5.113   7.471   8.253
 6839POPC   C3A25553   5.124   7.439   7.953
 6839POPC   C4A25554   5.101   7.442   7.653
 6839POPC   C1B25555   4.979   7.654   8.553
 6839POPC   C2B25556   4.958   7.628   8.253
 6839POPC   C3B25557   4.966   7.632   7.953
 6839POPC   C4B25558   4.928   7.589   7.653
 6840POPC   NC325559   8.999  26.833   9.453
 6840POPC   PO425560   8.967  26.840   9.153
 6840POPC   GL125561   8.965  26.851   8.853
 6840POPC   GL225562   9.104  26.883   8.853
 6840POPC   C1A25563   8.963  26.803   8.553
 6840POPC   D2A25564   8.951  26.838   8.253
 6840POPC   C3A25565   8.957  26.808   7.953
 6840POPC   C4A25566   9.012  26.863   7.653
 6840POPC   C1B25567   9.240  26.913   8.553
 6840POPC   C2B25568   9.226  26.872   8.253
 6840POPC   C3B25569   9.167  26.899   7.953
 6840POPC   C4B25570   9.177  26.917   7.653
 6841POPC   NC325571  33.048   9.775   9.453
 6841POPC   PO425572  33.002   9.774   9.153
 6841POPC   GL125573  32.984   9.707   8.853
 6841POPC   GL225574  32.950   9.707   8.853
 6841POPC   C1A25575  33.027   9.733   8.553
 6841POPC   D2A25576  32.992   9.771   8.253
 6841POPC   C3A25577  33.032   9.745   7.953
 6841POPC   C4A25578  33.020   9.760   7.653
 6841POPC   C1B25579  32.823   9.687   8.553
 6841POPC   C2B25580  32.753   9.719   8.253
 6841POPC   C3B25581  32.782   9.700   7.953
 6841POPC   C4B25582  32.760   9.719   7.653
 6842POPC   NC325583  37.678   0.396   9.453
 6842POPC   PO425584  37.706   0.435   9.153
 6842POPC   GL125585  37.653   0.390   8.853
 6842POPC   GL225586  37.565   0.390   8.853
 6842POPC   C1A25587  37.641   0.454   8.553
 6842POPC   D2A25588  37.645   0.430   8.253
 6842POPC   C3A25589  37.698   0.470   7.953
 6842POPC   C4A25590  37.722   0.483   7.653
 6842POPC   C1B25591  37.490   0.212   8.553
 6842POPC   C2B25592  37.514   0.287   8.253
 6842POPC   C3B25593  37.460   0.295   7.953
 6842POPC   C4B25594  37.499   0.291   7.653
 6843POPC   NC325595   3.553  43.133   9.453
 6843POPC   PO425596   3.510  43.140   9.153
 6843POPC   GL125597   3.532  43.102   8.853
 6843POPC   GL225598   3.427  43.130   8.853
 6843POPC   C1A25599   3.505  43.114   8.553
 6843POPC   D2A25600   3.516  43.105   8.253
 6843POPC   C3A25601   3.569  43.124   7.953
 6843POPC   C4A25602   3.539  43.112   7.653
 6843POPC   C1B25603   3.344  43.183   8.553
 6843POPC   C2B25604   3.265  43.142   8.253
 6843POPC   C3B25605   3.268  43.171   7.953
 6843POPC   C4B25606   3.273  43.206   7.653
 6844POPC   NC325607  37.722  26.042   9.453
 6844POPC   PO425608  37.721  26.079   9.153
 6844POPC   GL125609  37.656  26.042   8.853
 6844POPC   GL225610  37.757  26.134   8.853
 6844POPC   C1A25611  37.718  26.070   8.553
 6844POPC   D2A25612  37.631  26.002   8.253
 6844POPC   C3A25613  37.646  26.006   7.953
 6844POPC   C4A25614  37.690  26.035   7.653
 6844POPC   C1B25615  37.830  26.257   8.553
 6844POPC   C2B25616  37.812  26.182   8.253
 6844POPC   C3B25617  37.861  26.216   7.953
 6844POPC   C4B25618  37.884  26.240   7.653
 6845POPC   NC325619  26.785  43.093   9.453
 6845POPC   PO425620  26.838  43.085   9.153
 6845POPC   GL125621  26.772  43.093   8.853
 6845POPC   GL225622  26.654  43.068   8.853
 6845POPC   C1A25623  26.852  43.066   8.553
 6845POPC   D2A25624  26.789  43.115   8.253
 6845POPC   C3A25625  26.821  43.160   7.953
 6845POPC   C4A25626  26.780  43.117   7.653
 6845POPC   C1B25627  26.595  43.047   8.553
 6845POPC   C2B25628  26.576  43.124   8.253
 6845POPC   C3B25629  26.581  43.030   7.953
 6845POPC   C4B25630  26.565  43.086   7.653
 6846POPC   NC325631  20.593   0.395   9.453
 6846POPC   PO425632  20.648   0.441   9.153
 6846POPC   GL125633  20.568   0.455   8.853
 6846POPC   GL225634  20.537   0.360   8.853
 6846POPC   C1A25635  20.563   0.450   8.553
 6846POPC   D2A25636  20.563   0.457   8.253
 6846POPC   C3A25637  20.596   0.453   7.953
 6846POPC   C4A25638  20.597   0.395   7.653
 6846POPC   C1B25639  20.371   0.402   8.553
 6846POPC   C2B25640  20.357   0.303   8.253
 6846POPC   C3B25641  20.388   0.400   7.953
 6846POPC   C4B25642  20.348   0.355   7.653
 6847POPC   NC325643  44.654  22.159   9.453
 6847POPC   PO425644  44.628  22.203   9.153
 6847POPC   GL125645  44.620  22.145   8.853
 6847POPC   GL225646  44.584  22.261   8.853
 6847POPC   C1A25647  44.614  22.196   8.553
 6847POPC   D2A25648  44.643  22.195   8.253
 6847POPC   C3A25649  44.655  22.176   7.953
 6847POPC   C4A25650  44.699  22.138   7.653
 6847POPC   C1B25651  44.559  22.377   8.553
 6847POPC   C2B25652  44.551  22.354   8.253
 6847POPC   C3B25653  44.534  22.398   7.953
 6847POPC   C4B25654  44.534  22.331   7.653
 6848POPC   NC325655   5.073  29.146   9.453
 6848POPC   PO425656   5.137  29.186   9.153
 6848POPC   GL125657   5.122  29.142   8.853
 6848POPC   GL225658   5.237  29.196   8.853
 6848POPC   C1A25659   5.087  29.112   8.553
 6848POPC   D2A25660   5.051  29.104   8.253
 6848POPC   C3A25661   5.130  29.172   7.953
 6848POPC   C4A25662   5.129  29.156   7.653
 6848POPC   C1B25663   5.358  29.198   8.553
 6848POPC   C2B25664   5.296  29.149   8.253
 6848POPC   C3B25665   5.386  29.159   7.953
 6848POPC   C4B25666   5.364  29.212   7.653
 6849POPC   NC325667  10.542  19.013   9.453
 6849POPC   PO425668  10.498  19.037   9.153
 6849POPC   GL125669  10.518  19.078   8.853
 6849POPC   GL225670  10.481  18.984   8.853
 6849POPC   C1A25671  10.519  19.061   8.553
 6849POPC   D2A25672  10.481  19.073   8.253
 6849POPC   C3A25673  10.562  19.043   7.953
 6849POPC   C4A25674  10.513  19.028   7.653
 6849POPC   C1B25675  10.405  18.822   8.553
 6849POPC   C2B25676  10.438  18.855   8.253
 6849POPC   C3B25677  10.440  18.824   7.953
 6849POPC   C4B25678  10.397  18.839   7.653
 6850POPC   NC325679  41.557  23.743   9.453
 6850POPC   PO425680  41.597  23.714   9.153
 6850POPC   GL125681  41.529  23.726   8.853
 6850POPC   GL225682  41.712  23.697   8.853
 6850POPC   C1A25683  41.570  23.665   8.553
 6850POPC   D2A25684  41.604  23.725   8.253
 6850POPC   C3A25685  41.594  23.679   7.953
 6850POPC   C4A25686  41.565  23.741   7.653
 6850POPC   C1B25687  41.834  23.676   8.553
 6850POPC   C2B25688  41.776  23.667   8.253
 6850POPC   C3B25689  41.797  23.703   7.953
 6850POPC   C4B25690  41.846  23.683   7.653
 6851POPC   NC325691  17.500  10.500   9.453
 6851POPC   PO425692  17.469  10.539   9.153
 6851POPC   GL125693  17.524  10.569   8.853
 6851POPC   GL225694  17.389  10.500   8.853
 6851POPC   C1A25695  17.552  10.522   8.553
 6851POPC   D2A25696  17.527  10.492   8.253
 6851POPC   C3A25697  17.511  10.493   7.953
 6851POPC   C4A25698  17.507  10.539   7.653
 6851POPC   C1B25699  17.251  10.445   8.553
 6851POPC   C2B25700  17.216  10.502   8.253
 6851POPC   C3B25701  17.271  10.458   7.953
 6851POPC   C4B25702  17.261  10.451   7.653
 6852POPC   NC325703  16.005  34.614   9.453
 6852POPC   PO425704  15.906  34.612   9.153
 6852POPC   GL125705  15.982  34.533   8.853
 6852POPC   GL225706  16.031  34.604   8.853
 6852POPC   C1A25707  15.915  34.563   8.553
 6852POPC   D2A25708  15.925  34.530   8.253
 6852POPC   C3A25709  15.922  34.539   7.953
 6852POPC   C4A25710  15.910  34.543   7.653
 6852POPC   C1B25711  16.128  34.690   8.553
 6852POPC   C2B25712  16.190  34.706   8.253
 6852POPC   C3B25713  16.204  34.709   7.953
 6852POPC   C4B25714  16.177  34.712   7.653
 6853POPC   NC325715  21.411  22.894   9.453
 6853POPC   PO425716  21.352  22.943   9.153
 6853POPC   GL125717  21.387  22.890   8.853
 6853POPC   GL225718  21.343  23.085   8.853
 6853POPC   C1A25719  21.390  22.965   8.553
 6853POPC   D2A25720  21.422  22.893   8.253
 6853POPC   C3A25721  21.411  22.977   7.953
 6853POPC   C4A25722  21.384  22.922   7.653
 6853POPC   C1B25723  21.258  23.154   8.553
 6853POPC   C2B25724  21.230  23.145   8.253
 6853POPC   C3B25725  21.213  23.096   7.953
 6853POPC   C4B25726  21.262  23.146   7.653
 6854POPC   NC325727   8.961   5.058   9.453
 6854POPC   PO425728   8.997   5.088   9.153
 6854POPC   GL125729   8.954   5.100   8.853
 6854POPC   GL225730   9.000   4.961   8.853
 6854POPC   C1A25731   8.955   5.123   8.553
 6854POPC   D2A25732   8.997   5.070   8.253
 6854POPC   C3A25733   8.965   5.119   7.953
 6854POPC   C4A25734   8.977   5.102   7.653
 6854POPC   C1B25735   9.040   4.909   8.553
 6854POPC   C2B25736   9.116   4.884   8.253
 6854POPC   C3B25737   9.130   4.842   7.953
 6854POPC   C4B25738   9.079   4.892   7.653
 6855POPC   NC325739   6.694  36.886   9.453
 6855POPC   PO425740   6.603  36.929   9.153
 6855POPC   GL125741   6.604  36.925   8.853
 6855POPC   GL225742   6.606  36.779   8.853
 6855POPC   C1A25743   6.639  36.947   8.553
 6855POPC   D2A25744   6.691  36.947   8.253
 6855POPC   C3A25745   6.601  36.877   7.953
 6855POPC   C4A25746   6.615  36.855   7.653
 6855POPC   C1B25747   6.454  36.680   8.553
 6855POPC   C2B25748   6.453  36.681   8.253
 6855POPC   C3B25749   6.493  36.663   7.953
 6855POPC   C4B25750   6.544  36.701   7.653
 6856POPC   NC325751   8.964  13.631   9.453
 6856POPC   PO425752   8.973  13.651   9.153
 6856POPC   GL125753   8.982  13.661   8.853
 6856POPC   GL225754   9.109  13.759   8.853
 6856POPC   C1A25755   9.005  13.628   8.553
 6856POPC   D2A25756   8.948  13.603   8.253
 6856POPC   C3A25757   8.924  13.582   7.953
 6856POPC   C4A25758   8.956  13.628   7.653
 6856POPC   C1B25759   9.165  13.817   8.553
 6856POPC   C2B25760   9.204  13.799   8.253
 6856POPC   C3B25761   9.158  13.817   7.953
 6856POPC   C4B25762   9.136  13.787   7.653
 6857POPC   NC325763   5.088   9.793   9.453
 6857POPC   PO425764   5.133   9.708   9.153
 6857POPC   GL125765   5.131   9.791   8.853
 6857POPC   GL225766   4.949   9.775   8.853
 6857POPC   C1A25767   5.116   9.740   8.553
 6857POPC   D2A25768   5.046   9.781   8.253
 6857POPC   C3A25769   5.113   9.726   7.953
 6857POPC   C4A25770   5.094   9.715   7.653
 6857POPC   C1B25771   4.827   9.785   8.553
 6857POPC   C2B25772   4.821   9.751   8.253
 6857POPC   C3B25773   4.815   9.770   7.953
 6857POPC   C4B25774   4.810   9.801   7.653
 6858POPC   NC325775   8.200  31.517   9.453
 6858POPC   PO425776   8.187  31.473   9.153
 6858POPC   GL125777   8.234  31.431   8.853
 6858POPC   GL225778   8.252  31.436   8.853
 6858POPC   C1A25779   8.238  31.464   8.553
 6858POPC   D2A25780   8.187  31.455   8.253
 6858POPC   C3A25781   8.173  31.513   7.953
 6858POPC   C4A25782   8.196  31.498   7.653
 6858POPC   C1B25783   8.416  31.322   8.553
 6858POPC   C2B25784   8.445  31.369   8.253
 6858POPC   C3B25785   8.426  31.349   7.953
 6858POPC   C4B25786   8.423  31.325   7.653
 6859POPC   NC325787  25.216  39.196   9.453
 6859POPC   PO425788  25.216  39.237   9.153
 6859POPC   GL125789  25.228  39.215   8.853
 6859POPC   GL225790  25.350  39.346   8.853
 6859POPC   C1A25791  25.254  39.233   8.553
 6859POPC   D2A25792  25.254  39.257   8.253
 6859POPC   C3A25793  25.276  39.199   7.953
 6859POPC   C4A25794  25.272  39.270   7.653
 6859POPC   C1B25795  25.402  39.418   8.553
 6859POPC   C2B25796  25.364  39.419   8.253
 6859POPC   C3B25797  25.397  39.468   7.953
 6859POPC   C4B25798  25.354  39.510   7.653
 6860POPC   NC325799  34.585   2.035   9.453
 6860POPC   PO425800  34.603   2.019   9.153
 6860POPC   GL125801  34.605   1.998   8.853
 6860POPC   GL225802  34.427   1.973   8.853
 6860POPC   C1A25803  34.551   1.983   8.553
 6860POPC   D2A25804  34.549   1.989   8.253
 6860POPC   C3A25805  34.576   1.978   7.953
 6860POPC   C4A25806  34.574   1.967   7.653
 6860POPC   C1B25807  34.365   1.903   8.553
 6860POPC   C2B25808  34.371   1.902   8.253
 6860POPC   C3B25809  34.350   1.930   7.953
 6860POPC   C4B25810  34.337   1.889   7.653
 6861POPC   NC325811  22.893  10.557   9.453
 6861POPC   PO425812  22.962  10.517   9.153
 6861POPC   GL125813  22.914  10.496   8.853
 6861POPC   GL225814  22.980  10.361   8.853
 6861POPC   C1A25815  22.900  10.545   8.553
 6861POPC   D2A25816  22.960  10.570   8.253
 6861POPC   C3A25817  22.918  10.551   7.953
 6861POPC   C4A25818  22.976  10.519   7.653
 6861POPC   C1B25819  22.946  10.261   8.553
 6861POPC   C2B25820  22.978  10.249   8.253
 6861POPC   C3B25821  22.966  10.254   7.953
 6861POPC   C4B25822  22.907  10.289   7.653
 6862POPC   NC325823   7.444   8.169   9.453
 6862POPC   PO425824   7.416   8.239   9.153
 6862POPC   GL125825   7.447   8.233   8.853
 6862POPC   GL225826   7.291   8.213   8.853
 6862POPC   C1A25827   7.406   8.177   8.553
 6862POPC   D2A25828   7.398   8.166   8.253
 6862POPC   C3A25829   7.392   8.195   7.953
 6862POPC   C4A25830   7.387   8.175   7.653
 6862POPC   C1B25831   7.236   8.339   8.553
 6862POPC   C2B25832   7.232   8.337   8.253
 6862POPC   C3B25833   7.224   8.268   7.953
 6862POPC   C4B25834   7.182   8.268   7.653
 6863POPC   NC325835   2.799  44.659   9.453
 6863POPC   PO425836   2.772  44.684   9.153
 6863POPC   GL125837   2.783  44.688   8.853
 6863POPC   GL225838   2.694  44.797   8.853
 6863POPC   C1A25839   2.773  44.655   8.553
 6863POPC   D2A25840   2.780  44.690   8.253
 6863POPC   C3A25841   2.776  44.668   7.953
 6863POPC   C4A25842   2.770  44.685   7.653
 6863POPC   C1B25843   2.547  44.801   8.553
 6863POPC   C2B25844   2.594  44.851   8.253
 6863POPC   C3B25845   2.565  44.819   7.953
 6863POPC   C4B25846   2.587  44.804   7.653
 6864POPC   NC325847   0.400   2.007   9.453
 6864POPC   PO425848   0.462   1.953   9.153
 6864POPC   GL125849   0.475   1.996   8.853
 6864POPC   GL225850   0.541   2.017   8.853
 6864POPC   C1A25851   0.460   2.021   8.553
 6864POPC   D2A25852   0.395   2.025   8.253
 6864POPC   C3A25853   0.454   2.014   7.953
 6864POPC   C4A25854   0.454   2.028   7.653
 6864POPC   C1B25855   0.718   2.063   8.553
 6864POPC   C2B25856   0.688   2.017   8.253
 6864POPC   C3B25857   0.706   2.054   7.953
 6864POPC   C4B25858   0.726   2.040   7.653
 6865POPC   NC325859  14.393   8.941   9.453
 6865POPC   PO425860  14.371   8.965   9.153
 6865POPC   GL125861  14.355   8.990   8.853
 6865POPC   GL225862  14.500   8.992   8.853
 6865POPC   C1A25863  14.367   8.941   8.553
 6865POPC   D2A25864  14.373   9.017   8.253
 6865POPC   C3A25865  14.384   9.002   7.953
 6865POPC   C4A25866  14.368   9.018   7.653
 6865POPC   C1B25867  14.616   8.954   8.553
 6865POPC   C2B25868  14.684   8.950   8.253
 6865POPC   C3B25869  14.691   8.890   7.953
 6865POPC   C4B25870  14.697   8.907   7.653
 6866POPC   NC325871  32.202  40.750   9.453
 6866POPC   PO425872  32.219  40.833   9.153
 6866POPC   GL125873  32.277  40.773   8.853
 6866POPC   GL225874  32.123  40.818   8.853
 6866POPC   C1A25875  32.202  40.759   8.553
 6866POPC   D2A25876  32.219  40.800   8.253
 6866POPC   C3A25877  32.290  40.760   7.953
 6866POPC   C4A25878  32.213  40.740   7.653
 6866POPC   C1B25879  32.042  40.854   8.553
 6866POPC   C2B25880  31.968  40.835   8.253
 6866POPC   C3B25881  32.034  40.814   7.953
 6866POPC   C4B25882  31.983  40.822   7.653
 6867POPC   NC325883  15.911  39.191   9.453
 6867POPC   PO425884  15.994  39.207   9.153
 6867POPC   GL125885  15.935  39.210   8.853
 6867POPC   GL225886  15.814  39.285   8.853
 6867POPC   C1A25887  15.967  39.193   8.553
 6867POPC   D2A25888  15.958  39.251   8.253
 6867POPC   C3A25889  15.981  39.255   7.953
 6867POPC   C4A25890  15.972  39.184   7.653
 6867POPC   C1B25891  15.773  39.380   8.553
 6867POPC   C2B25892  15.769  39.306   8.253
 6867POPC   C3B25893  15.693  39.304   7.953
 6867POPC   C4B25894  15.688  39.316   7.653
 6868POPC   NC325895  44.679  10.503   9.453
 6868POPC   PO425896  44.645  10.533   9.153
 6868POPC   GL125897  44.649  10.495   8.853
 6868POPC   GL225898  44.539  10.489   8.853
 6868POPC   C1A25899  44.703  10.486   8.553
 6868POPC   D2A25900  44.647  10.565   8.253
 6868POPC   C3A25901  44.619  10.519   7.953
 6868POPC   C4A25902  44.639  10.559   7.653
 6868POPC   C1B25903  44.383  10.418   8.553
 6868POPC   C2B25904  44.422  10.496   8.253
 6868POPC   C3B25905  44.468  10.419   7.953
 6868POPC   C4B25906  44.406  10.459   7.653
 6869POPC   NC325907   8.955   7.420   9.453
 6869POPC   PO425908   8.928   7.451   9.153
 6869POPC   GL125909   8.957   7.428   8.853
 6869POPC   GL225910   8.942   7.555   8.853
 6869POPC   C1A25911   9.013   7.444   8.553
 6869POPC   D2A25912   9.001   7.452   8.253
 6869POPC   C3A25913   8.944   7.407   7.953
 6869POPC   C4A25914   8.981   7.456   7.653
 6869POPC   C1B25915   8.933   7.682   8.553
 6869POPC   C2B25916   8.997   7.682   8.253
 6869POPC   C3B25917   8.921   7.657   7.953
 6869POPC   C4B25918   8.954   7.698   7.653
 6870POPC   NC325919   0.424  29.150   9.453
 6870POPC   PO425920   0.444  29.121   9.153
 6870POPC   GL125921   0.446  29.099   8.853
 6870POPC   GL225922   0.294  29.146   8.853
 6870POPC   C1A25923   0.477  29.135   8.553
 6870POPC   D2A25924   0.470  29.136   8.253
 6870POPC   C3A25925   0.473  29.116   7.953
 6870POPC   C4A25926   0.394  29.150   7.653
 6870POPC   C1B25927   0.212  29.098   8.553
 6870POPC   C2B25928   0.164  29.119   8.253
 6870POPC   C3B25929   0.226  29.080   7.953
 6870POPC   C4B25930   0.148  29.106   7.653
 6871POPC   NC325931  32.228  32.270   9.453
 6871POPC   PO425932  32.247  32.225   9.153
 6871POPC   GL125933  32.208  32.273   8.853
 6871POPC   GL225934  32.279  32.392   8.853
 6871POPC   C1A25935  32.248  32.222   8.553
 6871POPC   D2A25936  32.247  32.233   8.253
 6871POPC   C3A25937  32.219  32.217   7.953
 6871POPC   C4A25938  32.245  32.293   7.653
 6871POPC   C1B25939  32.177  32.467   8.553
 6871POPC   C2B25940  32.272  32.457   8.253
 6871POPC   C3B25941  32.198  32.506   7.953
 6871POPC   C4B25942  32.270  32.521   7.653
 6872POPC   NC325943  22.922   2.024   9.453
 6872POPC   PO425944  22.946   2.014   9.153
 6872POPC   GL125945  22.931   2.005   8.853
 6872POPC   GL225946  22.869   2.080   8.853
 6872POPC   C1A25947  22.982   1.943   8.553
 6872POPC   D2A25948  22.986   1.972   8.253
 6872POPC   C3A25949  22.965   2.039   7.953
 6872POPC   C4A25950  22.983   1.957   7.653
 6872POPC   C1B25951  22.866   2.226   8.553
 6872POPC   C2B25952  22.776   2.260   8.253
 6872POPC   C3B25953  22.783   2.245   7.953
 6872POPC   C4B25954  22.832   2.246   7.653
 6873POPC   NC325955  40.738  27.637   9.453
 6873POPC   PO425956  40.741  27.548   9.153
 6873POPC   GL125957  40.828  27.555   8.853
 6873POPC   GL225958  40.798  27.736   8.853
 6873POPC   C1A25959  40.784  27.608   8.553
 6873POPC   D2A25960  40.817  27.582   8.253
 6873POPC   C3A25961  40.762  27.629   7.953
 6873POPC   C4A25962  40.742  27.546   7.653
 6873POPC   C1B25963  40.930  27.794   8.553
 6873POPC   C2B25964  40.930  27.785   8.253
 6873POPC   C3B25965  40.885  27.848   7.953
 6873POPC   C4B25966  40.951  27.847   7.653
 6874POPC   NC325967  16.768  15.938   9.453
 6874POPC   PO425968  16.745  15.928   9.153
 6874POPC   GL125969  16.739  15.977   8.853
 6874POPC   GL225970  16.826  15.821   8.853
 6874POPC   C1A25971  16.702  15.990   8.553
 6874POPC   D2A25972  16.704  15.975   8.253
 6874POPC   C3A25973  16.751  15.957   7.953
 6874POPC   C4A25974  16.763  15.916   7.653
 6874POPC   C1B25975  16.923  15.753   8.553
 6874POPC   C2B25976  16.896  15.787   8.253
 6874POPC   C3B25977  16.903  15.808   7.953
 6874POPC   C4B25978  16.926  15.786   7.653
 6875POPC   NC325979  24.516  44.612   9.453
 6875POPC   PO425980  24.472  44.613   9.153
 6875POPC   GL125981  24.484  44.613   8.853
 6875POPC   GL225982  24.517  44.836   8.853
 6875POPC   C1A25983  24.519  44.652   8.553
 6875POPC   D2A25984  24.532  44.658   8.253
 6875POPC   C3A25985  24.486  44.627   7.953
 6875POPC   C4A25986  24.457  44.706   7.653
 6875POPC   C1B25987  24.498  44.907   8.553
 6875POPC   C2B25988  24.526  44.896   8.253
 6875POPC   C3B25989  24.515  44.914   7.953
 6875POPC   C4B25990  24.465  44.925   7.653
 6876POPC   NC325991  14.436  24.497   9.453
 6876POPC   PO425992  14.383  24.445   9.153
 6876POPC   GL125993  14.361  24.511   8.853
 6876POPC   GL225994  14.333  24.539   8.853
 6876POPC   C1A25995  14.414  24.528   8.553
 6876POPC   D2A25996  14.373  24.472   8.253
 6876POPC   C3A25997  14.444  24.471   7.953
 6876POPC   C4A25998  14.449  24.473   7.653
 6876POPC   C1B25999  14.154  24.541   8.553
 6876POPC   C2B26000  14.132  24.569   8.253
 6876POPC   C3B26001  14.170  24.533   7.953
 6876POPC   C4B26002  14.172  24.564   7.653
 6877POPC   NC326003  13.610   1.947   9.453
 6877POPC   PO426004  13.586   2.011   9.153
 6877POPC   GL126005  13.580   2.003   8.853
 6877POPC   GL226006  13.563   2.129   8.853
 6877POPC   C1A26007  13.614   1.971   8.553
 6877POPC   D2A26008  13.591   2.018   8.253
 6877POPC   C3A26009  13.602   2.024   7.953
 6877POPC   C4A26010  13.606   2.016   7.653
 6877POPC   C1B26011  13.549   2.174   8.553
 6877POPC   C2B26012  13.553   2.241   8.253
 6877POPC   C3B26013  13.548   2.222   7.953
 6877POPC   C4B26014  13.516   2.207   7.653
 6878POPC   NC326015  43.900   6.599   9.453
 6878POPC   PO426016  43.927   6.686   9.153
 6878POPC   GL126017  43.878   6.655   8.853
 6878POPC   GL226018  43.871   6.744   8.853
 6878POPC   C1A26019  43.918   6.690   8.553
 6878POPC   D2A26020  43.836   6.614   8.253
 6878POPC   C3A26021  43.880   6.622   7.953
 6878POPC   C4A26022  43.845   6.597   7.653
 6878POPC   C1B26023  43.740   6.905   8.553
 6878POPC   C2B26024  43.741   6.861   8.253
 6878POPC   C3B26025  43.798   6.898   7.953
 6878POPC   C4B26026  43.774   6.844   7.653
 6879POPC   NC326027  44.710   2.719   9.453
 6879POPC   PO426028  44.638   2.804   9.153
 6879POPC   GL126029  44.703   2.756   8.853
 6879POPC   GL226030  44.796   2.796   8.853
 6879POPC   C1A26031  44.650   2.759   8.553
 6879POPC   D2A26032  44.661   2.793   8.253
 6879POPC   C3A26033  44.614   2.751   7.953
 6879POPC   C4A26034  44.618   2.734   7.653
 6879POPC   C1B26035  44.846   2.873   8.553
 6879POPC   C2B26036  44.863   2.890   8.253
 6879POPC   C3B26037  44.885   2.890   7.953
 6879POPC   C4B26038  44.893   2.882   7.653
 6880POPC   NC326039  41.555  24.517   9.453
 6880POPC   PO426040  41.598  24.497   9.153
 6880POPC   GL126041  41.571  24.522   8.853
 6880POPC   GL226042  41.578  24.635   8.853
 6880POPC   C1A26043  41.563  24.459   8.553
 6880POPC   D2A26044  41.571  24.441   8.253
 6880POPC   C3A26045  41.512  24.529   7.953
 6880POPC   C4A26046  41.573  24.499   7.653
 6880POPC   C1B26047  41.641  24.757   8.553
 6880POPC   C2B26048  41.618  24.769   8.253
 6880POPC   C3B26049  41.640  24.698   7.953
 6880POPC   C4B26050  41.569  24.692   7.653
 6881POPC   NC326051  24.538  12.845   9.453
 6881POPC   PO426052  24.504  12.887   9.153
 6881POPC   GL126053  24.470  12.804   8.853
 6881POPC   GL226054  24.498  12.955   8.853
 6881POPC   C1A26055  24.520  12.846   8.553
 6881POPC   D2A26056  24.441  12.899   8.253
 6881POPC   C3A26057  24.531  12.878   7.953
 6881POPC   C4A26058  24.453  12.863   7.653
 6881POPC   C1B26059  24.487  13.152   8.553
 6881POPC   C2B26060  24.515  13.129   8.253
 6881POPC   C3B26061  24.516  13.083   7.953
 6881POPC   C4B26062  24.504  13.152   7.653
 6882POPC   NC326063  28.374  18.300   9.453
 6882POPC   PO426064  28.361  18.246   9.153
 6882POPC   GL126065  28.325  18.296   8.853
 6882POPC   GL226066  28.225  18.334   8.853
 6882POPC   C1A26067  28.405  18.238   8.553
 6882POPC   D2A26068  28.388  18.282   8.253
 6882POPC   C3A26069  28.329  18.253   7.953
 6882POPC   C4A26070  28.341  18.291   7.653
 6882POPC   C1B26071  28.120  18.368   8.553
 6882POPC   C2B26072  28.175  18.376   8.253
 6882POPC   C3B26073  28.198  18.400   7.953
 6882POPC   C4B26074  28.123  18.417   7.653
 6883POPC   NC326075  31.506  20.632   9.453
 6883POPC   PO426076  31.452  20.567   9.153
 6883POPC   GL126077  31.509  20.637   8.853
 6883POPC   GL226078  31.597  20.572   8.853
 6883POPC   C1A26079  31.485  20.584   8.553
 6883POPC   D2A26080  31.450  20.573   8.253
 6883POPC   C3A26081  31.433  20.621   7.953
 6883POPC   C4A26082  31.444  20.572   7.653
 6883POPC   C1B26083  31.689  20.588   8.553
 6883POPC   C2B26084  31.738  20.637   8.253
 6883POPC   C3B26085  31.763  20.661   7.953
 6883POPC   C4B26086  31.728  20.662   7.653
 6884POPC   NC326087  38.417  15.139   9.453
 6884POPC   PO426088  38.459  15.208   9.153
 6884POPC   GL126089  38.471  15.178   8.853
 6884POPC   GL226090  38.293  15.195   8.853
 6884POPC   C1A26091  38.473  15.196   8.553
 6884POPC   D2A26092  38.440  15.147   8.253
 6884POPC   C3A26093  38.470  15.161   7.953
 6884POPC   C4A26094  38.505  15.153   7.653
 6884POPC   C1B26095  38.250  15.220   8.553
 6884POPC   C2B26096  38.186  15.274   8.253
 6884POPC   C3B26097  38.260  15.222   7.953
 6884POPC   C4B26098  38.262  15.312   7.653
 6885POPC   NC326099   0.454  43.887   9.453
 6885POPC   PO426100   0.432  43.897   9.153
 6885POPC   GL126101   0.408  43.855   8.853
 6885POPC   GL226102   0.403  43.771   8.853
 6885POPC   C1A26103   0.453  43.927   8.553
 6885POPC   D2A26104   0.472  43.841   8.253
 6885POPC   C3A26105   0.418  43.890   7.953
 6885POPC   C4A26106   0.416  43.900   7.653
 6885POPC   C1B26107   0.414  43.680   8.553
 6885POPC   C2B26108   0.404  43.609   8.253
 6885POPC   C3B26109   0.398  43.662   7.953
 6885POPC   C4B26110   0.358  43.622   7.653
 6886POPC   NC326111  30.667  21.419   9.453
 6886POPC   PO426112  30.738  21.421   9.153
 6886POPC   GL126113  30.731  21.365   8.853
 6886POPC   GL226114  30.869  21.412   8.853
 6886POPC   C1A26115  30.648  21.358   8.553
 6886POPC   D2A26116  30.666  21.407   8.253
 6886POPC   C3A26117  30.706  21.392   7.953
 6886POPC   C4A26118  30.713  21.402   7.653
 6886POPC   C1B26119  30.911  21.397   8.553
 6886POPC   C2B26120  30.949  21.333   8.253
 6886POPC   C3B26121  30.965  21.376   7.953
 6886POPC   C4B26122  30.934  21.398   7.653
 6887POPC   NC326123  22.130   8.989   9.453
 6887POPC   PO426124  22.144   8.988   9.153
 6887POPC   GL126125  22.122   8.928   8.853
 6887POPC   GL226126  22.248   9.034   8.853
 6887POPC   C1A26127  22.159   8.981   8.553
 6887POPC   D2A26128  22.114   8.996   8.253
 6887POPC   C3A26129  22.164   9.015   7.953
 6887POPC   C4A26130  22.182   8.996   7.653
 6887POPC   C1B26131  22.364   9.092   8.553
 6887POPC   C2B26132  22.319   9.153   8.253
 6887POPC   C3B26133  22.304   9.103   7.953
 6887POPC   C4B26134  22.358   9.088   7.653
 6888POPC   NC326135   8.239  33.047   9.453
 6888POPC   PO426136   8.242  33.017   9.153
 6888POPC   GL126137   8.164  32.995   8.853
 6888POPC   GL226138   8.269  33.122   8.853
 6888POPC   C1A26139   8.202  33.018   8.553
 6888POPC   D2A26140   8.222  33.003   8.253
 6888POPC   C3A26141   8.153  32.980   7.953
 6888POPC   C4A26142   8.204  33.044   7.653
 6888POPC   C1B26143   8.419  33.216   8.553
 6888POPC   C2B26144   8.360  33.143   8.253
 6888POPC   C3B26145   8.398  33.215   7.953
 6888POPC   C4B26146   8.384  33.141   7.653
 6889POPC   NC326147  22.173  12.096   9.453
 6889POPC   PO426148  22.158  12.053   9.153
 6889POPC   GL126149  22.144  12.077   8.853
 6889POPC   GL226150  22.313  12.097   8.853
 6889POPC   C1A26151  22.182  12.055   8.553
 6889POPC   D2A26152  22.137  12.041   8.253
 6889POPC   C3A26153  22.171  12.074   7.953
 6889POPC   C4A26154  22.165  12.100   7.653
 6889POPC   C1B26155  22.353  12.169   8.553
 6889POPC   C2B26156  22.440  12.163   8.253
 6889POPC   C3B26157  22.371  12.150   7.953
 6889POPC   C4B26158  22.411  12.116   7.653
 6890POPC   NC326159  20.607  14.449   9.453
 6890POPC   PO426160  20.589  14.424   9.153
 6890POPC   GL126161  20.597  14.369   8.853
 6890POPC   GL226162  20.493  14.434   8.853
 6890POPC   C1A26163  20.626  14.361   8.553
 6890POPC   D2A26164  20.598  14.403   8.253
 6890POPC   C3A26165  20.570  14.443   7.953
 6890POPC   C4A26166  20.657  14.378   7.653
 6890POPC   C1B26167  20.318  14.395   8.553
 6890POPC   C2B26168  20.347  14.365   8.253
 6890POPC   C3B26169  20.312  14.406   7.953
 6890POPC   C4B26170  20.379  14.375   7.653
 6891POPC   NC326171   9.701  15.171   9.453
 6891POPC   PO426172   9.748  15.182   9.153
 6891POPC   GL126173   9.726  15.203   8.853
 6891POPC   GL226174   9.801  15.094   8.853
 6891POPC   C1A26175   9.709  15.227   8.553
 6891POPC   D2A26176   9.721  15.138   8.253
 6891POPC   C3A26177   9.792  15.193   7.953
 6891POPC   C4A26178   9.738  15.168   7.653
 6891POPC   C1B26179   9.976  15.002   8.553
 6891POPC   C2B26180   9.916  15.024   8.253
 6891POPC   C3B26181   9.893  15.058   7.953
 6891POPC   C4B26182   9.959  15.008   7.653
 6892POPC   NC326183   7.384   7.458   9.453
 6892POPC   PO426184   7.465   7.435   9.153
 6892POPC   GL126185   7.385   7.469   8.853
 6892POPC   GL226186   7.310   7.345   8.853
 6892POPC   C1A26187   7.377   7.388   8.553
 6892POPC   D2A26188   7.436   7.446   8.253
 6892POPC   C3A26189   7.398   7.450   7.953
 6892POPC   C4A26190   7.400   7.372   7.653
 6892POPC   C1B26191   7.196   7.337   8.553
 6892POPC   C2B26192   7.243   7.306   8.253
 6892POPC   C3B26193   7.220   7.347   7.953
 6892POPC   C4B26194   7.190   7.270   7.653
 6893POPC   NC326195   3.526  11.279   9.453
 6893POPC   PO426196   3.542  11.313   9.153
 6893POPC   GL126197   3.495  11.293   8.853
 6893POPC   GL226198   3.560  11.151   8.853
 6893POPC   C1A26199   3.585  11.291   8.553
 6893POPC   D2A26200   3.493  11.330   8.253
 6893POPC   C3A26201   3.578  11.318   7.953
 6893POPC   C4A26202   3.534  11.341   7.653
 6893POPC   C1B26203   3.536  11.068   8.553
 6893POPC   C2B26204   3.501  11.050   8.253
 6893POPC   C3B26205   3.562  11.098   7.953
 6893POPC   C4B26206   3.513  11.095   7.653
 6894POPC   NC326207  16.744  29.944   9.453
 6894POPC   PO426208  16.766  29.909   9.153
 6894POPC   GL126209  16.698  29.956   8.853
 6894POPC   GL226210  16.632  29.959   8.853
 6894POPC   C1A26211  16.773  29.935   8.553
 6894POPC   D2A26212  16.702  29.928   8.253
 6894POPC   C3A26213  16.708  29.901   7.953
 6894POPC   C4A26214  16.737  29.890   7.653
 6894POPC   C1B26215  16.476  30.058   8.553
 6894POPC   C2B26216  16.480  30.052   8.253
 6894POPC   C3B26217  16.518  30.024   7.953
 6894POPC   C4B26218  16.478  30.044   7.653
 6895POPC   NC326219   2.002  17.533   9.453
 6895POPC   PO426220   2.003  17.544   9.153
 6895POPC   GL126221   1.981  17.465   8.853
 6895POPC   GL226222   1.921  17.553   8.853
 6895POPC   C1A26223   1.945  17.537   8.553
 6895POPC   D2A26224   2.018  17.511   8.253
 6895POPC   C3A26225   1.967  17.486   7.953
 6895POPC   C4A26226   1.945  17.516   7.653
 6895POPC   C1B26227   1.803  17.632   8.553
 6895POPC   C2B26228   1.790  17.622   8.253
 6895POPC   C3B26229   1.746  17.636   7.953
 6895POPC   C4B26230   1.753  17.622   7.653
 6896POPC   NC326231  19.839   9.797   9.453
 6896POPC   PO426232  19.831   9.754   9.153
 6896POPC   GL126233  19.797   9.787   8.853
 6896POPC   GL226234  19.673   9.707   8.853
 6896POPC   C1A26235  19.832   9.703   8.553
 6896POPC   D2A26236  19.802   9.718   8.253
 6896POPC   C3A26237  19.822   9.716   7.953
 6896POPC   C4A26238  19.876   9.729   7.653
 6896POPC   C1B26239  19.634   9.627   8.553
 6896POPC   C2B26240  19.634   9.633   8.253
 6896POPC   C3B26241  19.581   9.661   7.953
 6896POPC   C4B26242  19.603   9.687   7.653
 6897POPC   NC326243  29.124  40.735   9.453
 6897POPC   PO426244  29.124  40.748   9.153
 6897POPC   GL126245  29.102  40.803   8.853
 6897POPC   GL226246  28.989  40.780   8.853
 6897POPC   C1A26247  29.164  40.804   8.553
 6897POPC   D2A26248  29.136  40.786   8.253
 6897POPC   C3A26249  29.137  40.763   7.953
 6897POPC   C4A26250  29.144  40.775   7.653
 6897POPC   C1B26251  28.938  40.873   8.553
 6897POPC   C2B26252  28.865  40.879   8.253
 6897POPC   C3B26253  28.943  40.822   7.953
 6897POPC   C4B26254  28.915  40.816   7.653
 6898POPC   NC326255  43.897  13.594   9.453
 6898POPC   PO426256  43.868  13.622   9.153
 6898POPC   GL126257  43.851  13.660   8.853
 6898POPC   GL226258  43.813  13.703   8.853
 6898POPC   C1A26259  43.897  13.591   8.553
 6898POPC   D2A26260  43.841  13.645   8.253
 6898POPC   C3A26261  43.870  13.672   7.953
 6898POPC   C4A26262  43.869  13.643   7.653
 6898POPC   C1B26263  43.673  13.722   8.553
 6898POPC   C2B26264  43.688  13.644   8.253
 6898POPC   C3B26265  43.675  13.671   7.953
 6898POPC   C4B26266  43.686  13.652   7.653
 6899POPC   NC326267  29.883  19.072   9.453
 6899POPC   PO426268  29.939  19.046   9.153
 6899POPC   GL126269  29.893  19.049   8.853
 6899POPC   GL226270  29.939  18.921   8.853
 6899POPC   C1A26271  29.925  19.047   8.553
 6899POPC   D2A26272  29.928  19.038   8.253
 6899POPC   C3A26273  29.948  19.098   7.953
 6899POPC   C4A26274  29.954  19.048   7.653
 6899POPC   C1B26275  29.874  18.848   8.553
 6899POPC   C2B26276  29.872  18.760   8.253
 6899POPC   C3B26277  29.901  18.839   7.953
 6899POPC   C4B26278  29.906  18.767   7.653
 6900POPC   NC326279  25.219   7.389   9.453
 6900POPC   PO426280  25.281   7.442   9.153
 6900POPC   GL126281  25.234   7.460   8.853
 6900POPC   GL226282  25.171   7.427   8.853
 6900POPC   C1A26283  25.226   7.465   8.553
 6900POPC   D2A26284  25.283   7.415   8.253
 6900POPC   C3A26285  25.257   7.429   7.953
 6900POPC   C4A26286  25.246   7.446   7.653
 6900POPC   C1B26287  25.012   7.501   8.553
 6900POPC   C2B26288  25.036   7.515   8.253
 6900POPC   C3B26289  25.012   7.478   7.953
 6900POPC   C4B26290  24.996   7.486   7.653
 6901POPC   NC326291   1.167   9.712   9.453
 6901POPC   PO426292   1.259   9.778   9.153
 6901POPC   GL126293   1.205   9.744   8.853
 6901POPC   GL226294   1.108   9.746   8.853
 6901POPC   C1A26295   1.236   9.731   8.553
 6901POPC   D2A26296   1.196   9.742   8.253
 6901POPC   C3A26297   1.256   9.742   7.953
 6901POPC   C4A26298   1.240   9.732   7.653
 6901POPC   C1B26299   1.004   9.814   8.553
 6901POPC   C2B26300   0.958   9.725   8.253
 6901POPC   C3B26301   1.006   9.734   7.953
 6901POPC   C4B26302   0.946   9.759   7.653
 6902POPC   NC326303  27.586  19.816   9.453
 6902POPC   PO426304  27.634  19.831   9.153
 6902POPC   GL126305  27.546  19.836   8.853
 6902POPC   GL226306  27.576  19.957   8.853
 6902POPC   C1A26307  27.548  19.841   8.553
 6902POPC   D2A26308  27.625  19.800   8.253
 6902POPC   C3A26309  27.547  19.852   7.953
 6902POPC   C4A26310  27.549  19.878   7.653
 6902POPC   C1B26311  27.572  20.094   8.553
 6902POPC   C2B26312  27.623  20.057   8.253
 6902POPC   C3B26313  27.585  20.053   7.953
 6902POPC   C4B26314  27.626  20.116   7.653
 6903POPC   NC326315   1.197  11.260   9.453
 6903POPC   PO426316   1.246  11.304   9.153
 6903POPC   GL126317   1.247  11.269   8.853
 6903POPC   GL226318   1.219  11.382   8.853
 6903POPC   C1A26319   1.258  11.332   8.553
 6903POPC   D2A26320   1.263  11.276   8.253
 6903POPC   C3A26321   1.219  11.345   7.953
 6903POPC   C4A26322   1.185  11.257   7.653
 6903POPC   C1B26323   1.190  11.557   8.553
 6903POPC   C2B26324   1.164  11.580   8.253
 6903POPC   C3B26325   1.139  11.494   7.953
 6903POPC   C4B26326   1.130  11.510   7.653
 6904POPC   NC326327  39.272  33.804   9.453
 6904POPC   PO426328  39.182  33.830   9.153
 6904POPC   GL126329  39.266  33.771   8.853
 6904POPC   GL226330  39.171  33.721   8.853
 6904POPC   C1A26331  39.231  33.816   8.553
 6904POPC   D2A26332  39.228  33.821   8.253
 6904POPC   C3A26333  39.206  33.811   7.953
 6904POPC   C4A26334  39.188  33.782   7.653
 6904POPC   C1B26335  39.139  33.560   8.553
 6904POPC   C2B26336  39.083  33.569   8.253
 6904POPC   C3B26337  39.117  33.557   7.953
 6904POPC   C4B26338  39.112  33.570   7.653
 6905POPC   NC326339  23.729  35.396   9.453
 6905POPC   PO426340  23.735  35.334   9.153
 6905POPC   GL126341  23.696  35.368   8.853
 6905POPC   GL226342  23.563  35.351   8.853
 6905POPC   C1A26343  23.741  35.338   8.553
 6905POPC   D2A26344  23.678  35.396   8.253
 6905POPC   C3A26345  23.710  35.374   7.953
 6905POPC   C4A26346  23.753  35.372   7.653
 6905POPC   C1B26347  23.478  35.282   8.553
 6905POPC   C2B26348  23.476  35.263   8.253
 6905POPC   C3B26349  23.433  35.305   7.953
 6905POPC   C4B26350  23.466  35.333   7.653
 6906POPC   NC326351  26.855  20.639   9.453
 6906POPC   PO426352  26.806  20.563   9.153
 6906POPC   GL126353  26.838  20.637   8.853
 6906POPC   GL226354  26.845  20.700   8.853
 6906POPC   C1A26355  26.771  20.637   8.553
 6906POPC   D2A26356  26.792  20.645   8.253
 6906POPC   C3A26357  26.798  20.646   7.953
 6906POPC   C4A26358  26.845  20.567   7.653
 6906POPC   C1B26359  26.956  20.824   8.553
 6906POPC   C2B26360  26.896  20.849   8.253
 6906POPC   C3B26361  26.890  20.876   7.953
 6906POPC   C4B26362  26.911  20.860   7.653
 6907POPC   NC326363  24.446  15.938   9.453
 6907POPC   PO426364  24.538  15.942   9.153
 6907POPC   GL126365  24.445  15.938   8.853
 6907POPC   GL226366  24.508  16.115   8.853
 6907POPC   C1A26367  24.529  15.910   8.553
 6907POPC   D2A26368  24.516  15.931   8.253
 6907POPC   C3A26369  24.451  15.958   7.953
 6907POPC   C4A26370  24.513  15.927   7.653
 6907POPC   C1B26371  24.429  16.192   8.553
 6907POPC   C2B26372  24.406  16.218   8.253
 6907POPC   C3B26373  24.499  16.236   7.953
 6907POPC   C4B26374  24.440  16.202   7.653
 6908POPC   NC326375   8.155   5.864   9.453
 6908POPC   PO426376   8.176   5.875   9.153
 6908POPC   GL126377   8.188   5.884   8.853
 6908POPC   GL226378   8.178   5.756   8.853
 6908POPC   C1A26379   8.188   5.887   8.553
 6908POPC   D2A26380   8.206   5.910   8.253
 6908POPC   C3A26381   8.189   5.907   7.953
 6908POPC   C4A26382   8.195   5.882   7.653
 6908POPC   C1B26383   8.074   5.623   8.553
 6908POPC   C2B26384   8.020   5.701   8.253
 6908POPC   C3B26385   8.052   5.623   7.953
 6908POPC   C4B26386   8.050   5.683   7.653
 6909POPC   NC326387  19.799  36.082   9.453
 6909POPC   PO426388  19.817  36.169   9.153
 6909POPC   GL126389  19.857  36.080   8.853
 6909POPC   GL226390  19.750  36.259   8.853
 6909POPC   C1A26391  19.808  36.105   8.553
 6909POPC   D2A26392  19.867  36.147   8.253
 6909POPC   C3A26393  19.843  36.114   7.953
 6909POPC   C4A26394  19.856  36.132   7.653
 6909POPC   C1B26395  19.721  36.322   8.553
 6909POPC   C2B26396  19.736  36.308   8.253
 6909POPC   C3B26397  19.726  36.354   7.953
 6909POPC   C4B26398  19.724  36.381   7.653
 6910POPC   NC326399  37.630  22.169   9.453
 6910POPC   PO426400  37.653  22.187   9.153
 6910POPC   GL126401  37.642  22.187   8.853
 6910POPC   GL226402  37.641  22.303   8.853
 6910POPC   C1A26403  37.729  22.167   8.553
 6910POPC   D2A26404  37.721  22.207   8.253
 6910POPC   C3A26405  37.662  22.200   7.953
 6910POPC   C4A26406  37.668  22.125   7.653
 6910POPC   C1B26407  37.593  22.394   8.553
 6910POPC   C2B26408  37.622  22.425   8.253
 6910POPC   C3B26409  37.623  22.425   7.953
 6910POPC   C4B26410  37.621  22.401   7.653
 6911POPC   NC326411  34.543  42.384   9.453
 6911POPC   PO426412  34.584  42.341   9.153
 6911POPC   GL126413  34.535  42.378   8.853
 6911POPC   GL226414  34.597  42.160   8.853
 6911POPC   C1A26415  34.564  42.323   8.553
 6911POPC   D2A26416  34.534  42.321   8.253
 6911POPC   C3A26417  34.574  42.326   7.953
 6911POPC   C4A26418  34.567  42.286   7.653
 6911POPC   C1B26419  34.604  42.093   8.553
 6911POPC   C2B26420  34.536  42.105   8.253
 6911POPC   C3B26421  34.552  42.071   7.953
 6911POPC   C4B26422  34.566  42.090   7.653
 6912POPC   NC326423  36.860  19.789   9.453
 6912POPC   PO426424  36.872  19.860   9.153
 6912POPC   GL126425  36.887  19.789   8.853
 6912POPC   GL226426  36.793  19.735   8.853
 6912POPC   C1A26427  36.922  19.884   8.553
 6912POPC   D2A26428  36.873  19.821   8.253
 6912POPC   C3A26429  36.868  19.807   7.953
 6912POPC   C4A26430  36.927  19.799   7.653
 6912POPC   C1B26431  36.680  19.608   8.553
 6912POPC   C2B26432  36.692  19.690   8.253
 6912POPC   C3B26433  36.713  19.664   7.953
 6912POPC   C4B26434  36.698  19.617   7.653
 6913POPC   NC326435  39.964  22.894   9.453
 6913POPC   PO426436  40.054  22.963   9.153
 6913POPC   GL126437  40.026  22.985   8.853
 6913POPC   GL226438  39.963  23.031   8.853
 6913POPC   C1A26439  40.001  22.987   8.553
 6913POPC   D2A26440  39.967  22.966   8.253
 6913POPC   C3A26441  40.024  22.940   7.953
 6913POPC   C4A26442  39.961  22.908   7.653
 6913POPC   C1B26443  40.031  23.165   8.553
 6913POPC   C2B26444  40.001  23.172   8.253
 6913POPC   C3B26445  39.999  23.173   7.953
 6913POPC   C4B26446  40.036  23.204   7.653
 6914POPC   NC326447   1.181   8.178   9.453
 6914POPC   PO426448   1.240   8.226   9.153
 6914POPC   GL126449   1.248   8.234   8.853
 6914POPC   GL226450   1.326   8.125   8.853
 6914POPC   C1A26451   1.217   8.185   8.553
 6914POPC   D2A26452   1.214   8.212   8.253
 6914POPC   C3A26453   1.248   8.238   7.953
 6914POPC   C4A26454   1.210   8.190   7.653
 6914POPC   C1B26455   1.485   8.087   8.553
 6914POPC   C2B26456   1.458   8.157   8.253
 6914POPC   C3B26457   1.484   8.126   7.953
 6914POPC   C4B26458   1.447   8.124   7.653
 6915POPC   NC326459   8.934  18.258   9.453
 6915POPC   PO426460   8.968  18.237   9.153
 6915POPC   GL126461   8.969  18.264   8.853
 6915POPC   GL226462   8.976  18.403   8.853
 6915POPC   C1A26463   8.980  18.306   8.553
 6915POPC   D2A26464   8.928  18.290   8.253
 6915POPC   C3A26465   8.996  18.259   7.953
 6915POPC   C4A26466   8.968  18.265   7.653
 6915POPC   C1B26467   9.012  18.495   8.553
 6915POPC   C2B26468   8.995  18.545   8.253
 6915POPC   C3B26469   9.025  18.545   7.953
 6915POPC   C4B26470   9.054  18.572   7.653
 6916POPC   NC326471  22.210  22.130   9.453
 6916POPC   PO426472  22.112  22.144   9.153
 6916POPC   GL126473  22.118  22.205   8.853
 6916POPC   GL226474  22.285  22.177   8.853
 6916POPC   C1A26475  22.132  22.119   8.553
 6916POPC   D2A26476  22.167  22.186   8.253
 6916POPC   C3A26477  22.147  22.209   7.953
 6916POPC   C4A26478  22.153  22.169   7.653
 6916POPC   C1B26479  22.365  22.279   8.553
 6916POPC   C2B26480  22.371  22.288   8.253
 6916POPC   C3B26481  22.411  22.278   7.953
 6916POPC   C4B26482  22.394  22.305   7.653
 6917POPC   NC326483  26.860  25.307   9.453
 6917POPC   PO426484  26.851  25.300   9.153
 6917POPC   GL126485  26.797  25.269   8.853
 6917POPC   GL226486  26.708  25.232   8.853
 6917POPC   C1A26487  26.857  25.234   8.553
 6917POPC   D2A26488  26.792  25.243   8.253
 6917POPC   C3A26489  26.776  25.293   7.953
 6917POPC   C4A26490  26.817  25.273   7.653
 6917POPC   C1B26491  26.574  25.246   8.553
 6917POPC   C2B26492  26.562  25.339   8.253
 6917POPC   C3B26493  26.591  25.257   7.953
 6917POPC   C4B26494  26.583  25.246   7.653
 6918POPC   NC326495  21.416  11.272   9.453
 6918POPC   PO426496  21.434  11.301   9.153
 6918POPC   GL126497  21.370  11.348   8.853
 6918POPC   GL226498  21.327  11.316   8.853
 6918POPC   C1A26499  21.401  11.252   8.553
 6918POPC   D2A26500  21.424  11.300   8.253
 6918POPC   C3A26501  21.400  11.339   7.953
 6918POPC   C4A26502  21.416  11.310   7.653
 6918POPC   C1B26503  21.190  11.394   8.553
 6918POPC   C2B26504  21.219  11.430   8.253
 6918POPC   C3B26505  21.213  11.390   7.953
 6918POPC   C4B26506  21.134  11.397   7.653
 6919POPC   NC326507   6.610  30.736   9.453
 6919POPC   PO426508   6.624  30.692   9.153
 6919POPC   GL126509   6.647  30.740   8.853
 6919POPC   GL226510   6.552  30.619   8.853
 6919POPC   C1A26511   6.622  30.711   8.553
 6919POPC   D2A26512   6.668  30.665   8.253
 6919POPC   C3A26513   6.609  30.697   7.953
 6919POPC   C4A26514   6.609  30.684   7.653
 6919POPC   C1B26515   6.394  30.544   8.553
 6919POPC   C2B26516   6.433  30.576   8.253
 6919POPC   C3B26517   6.393  30.579   7.953
 6919POPC   C4B26518   6.478  30.571   7.653
 6920POPC   NC326519  14.364  12.876   9.453
 6920POPC   PO426520  14.374  12.871   9.153
 6920POPC   GL126521  14.444  12.858   8.853
 6920POPC   GL226522  14.508  12.904   8.853
 6920POPC   C1A26523  14.420  12.900   8.553
 6920POPC   D2A26524  14.441  12.816   8.253
 6920POPC   C3A26525  14.440  12.880   7.953
 6920POPC   C4A26526  14.376  12.818   7.653
 6920POPC   C1B26527  14.605  13.003   8.553
 6920POPC   C2B26528  14.654  12.955   8.253
 6920POPC   C3B26529  14.580  12.965   7.953
 6920POPC   C4B26530  14.631  12.990   7.653
 6921POPC   NC326531   2.743  31.446   9.453
 6921POPC   PO426532   2.725  31.430   9.153
 6921POPC   GL126533   2.755  31.443   8.853
 6921POPC   GL226534   2.861  31.574   8.853
 6921POPC   C1A26535   2.755  31.521   8.553
 6921POPC   D2A26536   2.737  31.508   8.253
 6921POPC   C3A26537   2.773  31.443   7.953
 6921POPC   C4A26538   2.769  31.499   7.653
 6921POPC   C1B26539   2.911  31.667   8.553
 6921POPC   C2B26540   2.952  31.694   8.253
 6921POPC   C3B26541   2.903  31.700   7.953
 6921POPC   C4B26542   2.947  31.643   7.653
 6922POPC   NC326543  15.967  20.601   9.453
 6922POPC   PO426544  16.000  20.603   9.153
 6922POPC   GL126545  15.939  20.622   8.853
 6922POPC   GL226546  15.885  20.576   8.853
 6922POPC   C1A26547  15.957  20.629   8.553
 6922POPC   D2A26548  15.916  20.647   8.253
 6922POPC   C3A26549  15.919  20.643   7.953
 6922POPC   C4A26550  15.958  20.626   7.653
 6922POPC   C1B26551  15.725  20.479   8.553
 6922POPC   C2B26552  15.711  20.484   8.253
 6922POPC   C3B26553  15.765  20.543   7.953
 6922POPC   C4B26554  15.688  20.532   7.653
 6923POPC   NC326555   3.492  31.441   9.453
 6923POPC   PO426556   3.585  31.448   9.153
 6923POPC   GL126557   3.531  31.473   8.853
 6923POPC   GL226558   3.536  31.603   8.853
 6923POPC   C1A26559   3.555  31.486   8.553
 6923POPC   D2A26560   3.521  31.478   8.253
 6923POPC   C3A26561   3.547  31.506   7.953
 6923POPC   C4A26562   3.495  31.491   7.653
 6923POPC   C1B26563   3.625  31.665   8.553
 6923POPC   C2B26564   3.664  31.737   8.253
 6923POPC   C3B26565   3.628  31.703   7.953
 6923POPC   C4B26566   3.620  31.666   7.653
 6924POPC   NC326567  14.430  26.778   9.453
 6924POPC   PO426568  14.387  26.780   9.153
 6924POPC   GL126569  14.452  26.858   8.853
 6924POPC   GL226570  14.298  26.805   8.853
 6924POPC   C1A26571  14.412  26.805   8.553
 6924POPC   D2A26572  14.377  26.773   8.253
 6924POPC   C3A26573  14.400  26.837   7.953
 6924POPC   C4A26574  14.435  26.831   7.653
 6924POPC   C1B26575  14.115  26.777   8.553
 6924POPC   C2B26576  14.111  26.844   8.253
 6924POPC   C3B26577  14.139  26.757   7.953
 6924POPC   C4B26578  14.196  26.780   7.653
 6925POPC   NC326579  26.068  33.774   9.453
 6925POPC   PO426580  26.007  33.817   9.153
 6925POPC   GL126581  26.077  33.800   8.853
 6925POPC   GL226582  26.122  33.658   8.853
 6925POPC   C1A26583  26.029  33.836   8.553
 6925POPC   D2A26584  26.016  33.836   8.253
 6925POPC   C3A26585  26.021  33.841   7.953
 6925POPC   C4A26586  26.037  33.804   7.653
 6925POPC   C1B26587  26.136  33.585   8.553
 6925POPC   C2B26588  26.106  33.585   8.253
 6925POPC   C3B26589  26.164  33.516   7.953
 6925POPC   C4B26590  26.129  33.583   7.653
 6926POPC   NC326591   1.170  19.035   9.453
 6926POPC   PO426592   1.167  19.083   9.153
 6926POPC   GL126593   1.222  19.086   8.853
 6926POPC   GL226594   1.375  18.973   8.853
 6926POPC   C1A26595   1.242  19.045   8.553
 6926POPC   D2A26596   1.235  19.035   8.253
 6926POPC   C3A26597   1.175  19.080   7.953
 6926POPC   C4A26598   1.234  19.097   7.653
 6926POPC   C1B26599   1.477  18.929   8.553
 6926POPC   C2B26600   1.398  18.959   8.253
 6926POPC   C3B26601   1.445  18.924   7.953
 6926POPC   C4B26602   1.407  19.013   7.653
 6927POPC   NC326603  40.830  19.082   9.453
 6927POPC   PO426604  40.816  19.011   9.153
 6927POPC   GL126605  40.770  19.094   8.853
 6927POPC   GL226606  40.693  18.989   8.853
 6927POPC   C1A26607  40.757  19.084   8.553
 6927POPC   D2A26608  40.833  19.071   8.253
 6927POPC   C3A26609  40.768  19.041   7.953
 6927POPC   C4A26610  40.784  19.076   7.653
 6927POPC   C1B26611  40.714  18.874   8.553
 6927POPC   C2B26612  40.735  18.811   8.253
 6927POPC   C3B26613  40.683  18.815   7.953
 6927POPC   C4B26614  40.697  18.842   7.653
 6928POPC   NC326615  42.315  21.364   9.453
 6928POPC   PO426616  42.372  21.430   9.153
 6928POPC   GL126617  42.335  21.374   8.853
 6928POPC   GL226618  42.250  21.488   8.853
 6928POPC   C1A26619  42.366  21.346   8.553
 6928POPC   D2A26620  42.301  21.396   8.253
 6928POPC   C3A26621  42.318  21.352   7.953
 6928POPC   C4A26622  42.286  21.368   7.653
 6928POPC   C1B26623  42.220  21.629   8.553
 6928POPC   C2B26624  42.239  21.629   8.253
 6928POPC   C3B26625  42.229  21.582   7.953
 6928POPC   C4B26626  42.176  21.620   7.653
 6929POPC   NC326627  15.154   0.480   9.453
 6929POPC   PO426628  15.226   0.465   9.153
 6929POPC   GL126629  15.219   0.483   8.853
 6929POPC   GL226630  15.055   0.539   8.853
 6929POPC   C1A26631  15.203   0.407   8.553
 6929POPC   D2A26632  15.168   0.454   8.253
 6929POPC   C3A26633  15.161   0.425   7.953
 6929POPC   C4A26634  15.171   0.446   7.653
 6929POPC   C1B26635  14.910   0.590   8.553
 6929POPC   C2B26636  14.968   0.562   8.253
 6929POPC   C3B26637  14.966   0.543   7.953
 6929POPC   C4B26638  14.993   0.521   7.653
 6930POPC   NC326639  39.251  24.464   9.453
 6930POPC   PO426640  39.265  24.449   9.153
 6930POPC   GL126641  39.238  24.493   8.853
 6930POPC   GL226642  39.313  24.583   8.853
 6930POPC   C1A26643  39.208  24.527   8.553
 6930POPC   D2A26644  39.281  24.450   8.253
 6930POPC   C3A26645  39.201  24.531   7.953
 6930POPC   C4A26646  39.278  24.456   7.653
 6930POPC   C1B26647  39.381  24.682   8.553
 6930POPC   C2B26648  39.412  24.693   8.253
 6930POPC   C3B26649  39.431  24.711   7.953
 6930POPC   C4B26650  39.357  24.655   7.653
 6931POPC   NC326651  44.690   5.903   9.453
 6931POPC   PO426652  44.680   5.841   9.153
 6931POPC   GL126653  44.635   5.907   8.853
 6931POPC   GL226654  44.736   5.913   8.853
 6931POPC   C1A26655  44.620   5.883   8.553
 6931POPC   D2A26656  44.683   5.866   8.253
 6931POPC   C3A26657  44.703   5.890   7.953
 6931POPC   C4A26658  44.621   5.862   7.653
 6931POPC   C1B26659  44.862   5.989   8.553
 6931POPC   C2B26660  44.849   6.019   8.253
 6931POPC   C3B26661  44.833   5.986   7.953
 6931POPC   C4B26662  44.834   6.032   7.653
 6932POPC   NC326663  40.055  40.750   9.453
 6932POPC   PO426664  40.037  40.831   9.153
 6932POPC   GL126665  40.047  40.805   8.853
 6932POPC   GL226666  40.046  40.835   8.853
 6932POPC   C1A26667  40.035  40.771   8.553
 6932POPC   D2A26668  39.970  40.763   8.253
 6932POPC   C3A26669  40.041  40.745   7.953
 6932POPC   C4A26670  39.974  40.755   7.653
 6932POPC   C1B26671  40.118  40.979   8.553
 6932POPC   C2B26672  40.195  40.950   8.253
 6932POPC   C3B26673  40.123  40.945   7.953
 6932POPC   C4B26674  40.154  40.986   7.653
 6933POPC   NC326675  20.561   5.897   9.453
 6933POPC   PO426676  20.625   5.907   9.153
 6933POPC   GL126677  20.580   5.901   8.853
 6933POPC   GL226678  20.538   5.816   8.853
 6933POPC   C1A26679  20.563   5.860   8.553
 6933POPC   D2A26680  20.658   5.846   8.253
 6933POPC   C3A26681  20.608   5.909   7.953
 6933POPC   C4A26682  20.568   5.911   7.653
 6933POPC   C1B26683  20.418   5.689   8.553
 6933POPC   C2B26684  20.438   5.703   8.253
 6933POPC   C3B26685  20.425   5.667   7.953
 6933POPC   C4B26686  20.416   5.734   7.653
 6934POPC   NC326687  40.029  16.756   9.453
 6934POPC   PO426688  40.004  16.749   9.153
 6934POPC   GL126689  40.006  16.707   8.853
 6934POPC   GL226690  39.905  16.711   8.853
 6934POPC   C1A26691  40.015  16.710   8.553
 6934POPC   D2A26692  40.032  16.715   8.253
 6934POPC   C3A26693  39.978  16.725   7.953
 6934POPC   C4A26694  39.995  16.721   7.653
 6934POPC   C1B26695  39.743  16.738   8.553
 6934POPC   C2B26696  39.719  16.750   8.253
 6934POPC   C3B26697  39.726  16.748   7.953
 6934POPC   C4B26698  39.753  16.723   7.653
 6935POPC   NC326699   4.298   8.211   9.453
 6935POPC   PO426700   4.285   8.236   9.153
 6935POPC   GL126701   4.270   8.168   8.853
 6935POPC   GL226702   4.366   8.305   8.853
 6935POPC   C1A26703   4.301   8.207   8.553
 6935POPC   D2A26704   4.291   8.220   8.253
 6935POPC   C3A26705   4.360   8.176   7.953
 6935POPC   C4A26706   4.360   8.181   7.653
 6935POPC   C1B26707   4.362   8.412   8.553
 6935POPC   C2B26708   4.285   8.480   8.253
 6935POPC   C3B26709   4.312   8.495   7.953
 6935POPC   C4B26710   4.307   8.467   7.653
 6936POPC   NC326711  15.221  19.011   9.453
 6936POPC   PO426712  15.201  19.022   9.153
 6936POPC   GL126713  15.136  19.093   8.853
 6936POPC   GL226714  15.107  19.176   8.853
 6936POPC   C1A26715  15.167  19.054   8.553
 6936POPC   D2A26716  15.138  19.010   8.253
 6936POPC   C3A26717  15.162  19.071   7.953
 6936POPC   C4A26718  15.191  19.060   7.653
 6936POPC   C1B26719  15.027  19.224   8.553
 6936POPC   C2B26720  14.965  19.252   8.253
 6936POPC   C3B26721  15.048  19.282   7.953
 6936POPC   C4B26722  14.986  19.211   7.653
 6937POPC   NC326723  37.660  17.539   9.453
 6937POPC   PO426724  37.721  17.531   9.153
 6937POPC   GL126725  37.717  17.480   8.853
 6937POPC   GL226726  37.650  17.638   8.853
 6937POPC   C1A26727  37.653  17.534   8.553
 6937POPC   D2A26728  37.634  17.491   8.253
 6937POPC   C3A26729  37.658  17.549   7.953
 6937POPC   C4A26730  37.686  17.502   7.653
 6937POPC   C1B26731  37.563  17.742   8.553
 6937POPC   C2B26732  37.592  17.761   8.253
 6937POPC   C3B26733  37.602  17.687   7.953
 6937POPC   C4B26734  37.549  17.696   7.653
 6938POPC   NC326735  43.904  41.549   9.453
 6938POPC   PO426736  43.869  41.535   9.153
 6938POPC   GL126737  43.858  41.581   8.853
 6938POPC   GL226738  43.943  41.687   8.853
 6938POPC   C1A26739  43.846  41.572   8.553
 6938POPC   D2A26740  43.935  41.545   8.253
 6938POPC   C3A26741  43.869  41.588   7.953
 6938POPC   C4A26742  43.923  41.583   7.653
 6938POPC   C1B26743  43.972  41.840   8.553
 6938POPC   C2B26744  44.010  41.803   8.253
 6938POPC   C3B26745  43.993  41.828   7.953
 6938POPC   C4B26746  44.001  41.811   7.653
 6939POPC   NC326747  28.363  34.585   9.453
 6939POPC   PO426748  28.334  34.558   9.153
 6939POPC   GL126749  28.350  34.592   8.853
 6939POPC   GL226750  28.261  34.513   8.853
 6939POPC   C1A26751  28.378  34.613   8.553
 6939POPC   D2A26752  28.358  34.530   8.253
 6939POPC   C3A26753  28.346  34.570   7.953
 6939POPC   C4A26754  28.374  34.566   7.653
 6939POPC   C1B26755  28.204  34.413   8.553
 6939POPC   C2B26756  28.171  34.477   8.253
 6939POPC   C3B26757  28.185  34.424   7.953
 6939POPC   C4B26758  28.192  34.415   7.653
 6940POPC   NC326759  31.487   6.608   9.453
 6940POPC   PO426760  31.496   6.645   9.153
 6940POPC   GL126761  31.496   6.600   8.853
 6940POPC   GL226762  31.369   6.685   8.853
 6940POPC   C1A26763  31.474   6.664   8.553
 6940POPC   D2A26764  31.522   6.596   8.253
 6940POPC   C3A26765  31.458   6.600   7.953
 6940POPC   C4A26766  31.439   6.692   7.653
 6940POPC   C1B26767  31.308   6.760   8.553
 6940POPC   C2B26768  31.313   6.776   8.253
 6940POPC   C3B26769  31.266   6.823   7.953
 6940POPC   C4B26770  31.257   6.768   7.653
 6941POPC   NC326771  22.970  14.406   9.453
 6941POPC   PO426772  22.955  14.358   9.153
 6941POPC   GL126773  22.901  14.414   8.853
 6941POPC   GL226774  23.031  14.281   8.853
 6941POPC   C1A26775  22.952  14.445   8.553
 6941POPC   D2A26776  22.904  14.377   8.253
 6941POPC   C3A26777  22.929  14.367   7.953
 6941POPC   C4A26778  22.905  14.366   7.653
 6941POPC   C1B26779  23.100  14.172   8.553
 6941POPC   C2B26780  23.114  14.169   8.253
 6941POPC   C3B26781  23.103  14.149   7.953
 6941POPC   C4B26782  23.077  14.242   7.653
 6942POPC   NC326783  39.281  36.906   9.453
 6942POPC   PO426784  39.248  36.878   9.153
 6942POPC   GL126785  39.245  36.909   8.853
 6942POPC   GL226786  39.303  36.985   8.853
 6942POPC   C1A26787  39.218  36.874   8.553
 6942POPC   D2A26788  39.194  36.912   8.253
 6942POPC   C3A26789  39.270  36.921   7.953
 6942POPC   C4A26790  39.188  36.931   7.653
 6942POPC   C1B26791  39.287  37.152   8.553
 6942POPC   C2B26792  39.314  37.180   8.253
 6942POPC   C3B26793  39.305  37.105   7.953
 6942POPC   C4B26794  39.368  37.180   7.653
 6943POPC   NC326795  18.258   0.402   9.453
 6943POPC   PO426796  18.242   0.468   9.153
 6943POPC   GL126797  18.242   0.486   8.853
 6943POPC   GL226798  18.304   0.524   8.853
 6943POPC   C1A26799  18.289   0.426   8.553
 6943POPC   D2A26800  18.271   0.479   8.253
 6943POPC   C3A26801  18.270   0.413   7.953
 6943POPC   C4A26802  18.261   0.487   7.653
 6943POPC   C1B26803  18.369   0.645   8.553
 6943POPC   C2B26804  18.367   0.695   8.253
 6943POPC   C3B26805  18.317   0.684   7.953
 6943POPC   C4B26806  18.318   0.710   7.653
 6944POPC   NC326807  14.372   1.257   9.453
 6944POPC   PO426808  14.404   1.244   9.153
 6944POPC   GL126809  14.443   1.191   8.853
 6944POPC   GL226810  14.426   1.319   8.853
 6944POPC   C1A26811  14.408   1.200   8.553
 6944POPC   D2A26812  14.447   1.219   8.253
 6944POPC   C3A26813  14.425   1.170   7.953
 6944POPC   C4A26814  14.377   1.220   7.653
 6944POPC   C1B26815  14.399   1.422   8.553
 6944POPC   C2B26816  14.394   1.433   8.253
 6944POPC   C3B26817  14.392   1.501   7.953
 6944POPC   C4B26818  14.445   1.455   7.653
 6945POPC   NC326819  19.805  34.539   9.453
 6945POPC   PO426820  19.824  34.558   9.153
 6945POPC   GL126821  19.816  34.580   8.853
 6945POPC   GL226822  19.705  34.672   8.853
 6945POPC   C1A26823  19.865  34.620   8.553
 6945POPC   D2A26824  19.795  34.580   8.253
 6945POPC   C3A26825  19.856  34.612   7.953
 6945POPC   C4A26826  19.797  34.605   7.653
 6945POPC   C1B26827  19.626  34.733   8.553
 6945POPC   C2B26828  19.619  34.747   8.253
 6945POPC   C3B26829  19.679  34.701   7.953
 6945POPC   C4B26830  19.673  34.759   7.653
 6946POPC   NC326831  12.866   5.917   9.453
 6946POPC   PO426832  12.817   5.828   9.153
 6946POPC   GL126833  12.803   5.900   8.853
 6946POPC   GL226834  12.774   5.985   8.853
 6946POPC   C1A26835  12.857   5.899   8.553
 6946POPC   D2A26836  12.866   5.829   8.253
 6946POPC   C3A26837  12.848   5.835   7.953
 6946POPC   C4A26838  12.896   5.844   7.653
 6946POPC   C1B26839  12.798   6.102   8.553
 6946POPC   C2B26840  12.808   6.065   8.253
 6946POPC   C3B26841  12.815   6.126   7.953
 6946POPC   C4B26842  12.814   6.061   7.653
 6947POPC   NC326843   6.612  11.277   9.453
 6947POPC   PO426844   6.642  11.276   9.153
 6947POPC   GL126845   6.666  11.266   8.853
 6947POPC   GL226846   6.814  11.337   8.853
 6947POPC   C1A26847   6.656  11.303   8.553
 6947POPC   D2A26848   6.619  11.293   8.253
 6947POPC   C3A26849   6.658  11.291   7.953
 6947POPC   C4A26850   6.626  11.304   7.653
 6947POPC   C1B26851   6.892  11.350   8.553
 6947POPC   C2B26852   6.939  11.322   8.253
 6947POPC   C3B26853   6.944  11.262   7.953
 6947POPC   C4B26854   6.890  11.332   7.653
 6948POPC   NC326855  21.397  26.840   9.453
 6948POPC   PO426856  21.371  26.773   9.153
 6948POPC   GL126857  21.409  26.809   8.853
 6948POPC   GL226858  21.225  26.861   8.853
 6948POPC   C1A26859  21.433  26.805   8.553
 6948POPC   D2A26860  21.360  26.801   8.253
 6948POPC   C3A26861  21.338  26.801   7.953
 6948POPC   C4A26862  21.429  26.810   7.653
 6948POPC   C1B26863  21.148  26.840   8.553
 6948POPC   C2B26864  21.154  26.847   8.253
 6948POPC   C3B26865  21.119  26.891   7.953
 6948POPC   C4B26866  21.096  26.862   7.653
 6949POPC   NC326867   8.993  19.108   9.453
 6949POPC   PO426868   8.991  19.066   9.153
 6949POPC   GL126869   8.983  19.101   8.853
 6949POPC   GL226870   8.837  19.141   8.853
 6949POPC   C1A26871   8.963  19.065   8.553
 6949POPC   D2A26872   8.994  19.095   8.253
 6949POPC   C3A26873   8.950  19.095   7.953
 6949POPC   C4A26874   9.016  19.029   7.653
 6949POPC   C1B26875   8.765  19.162   8.553
 6949POPC   C2B26876   8.731  19.141   8.253
 6949POPC   C3B26877   8.741  19.169   7.953
 6949POPC   C4B26878   8.770  19.205   7.653
 6950POPC   NC326879   8.167  26.067   9.453
 6950POPC   PO426880   8.191  26.037   9.153
 6950POPC   GL126881   8.165  26.013   8.853
 6950POPC   GL226882   8.180  25.966   8.853
 6950POPC   C1A26883   8.189  26.054   8.553
 6950POPC   D2A26884   8.160  26.001   8.253
 6950POPC   C3A26885   8.235  25.995   7.953
 6950POPC   C4A26886   8.171  26.053   7.653
 6950POPC   C1B26887   8.065  25.858   8.553
 6950POPC   C2B26888   8.071  25.864   8.253
 6950POPC   C3B26889   8.060  25.789   7.953
 6950POPC   C4B26890   8.073  25.777   7.653
 6951POPC   NC326891  18.264   2.812   9.453
 6951POPC   PO426892  18.305   2.782   9.153
 6951POPC   GL126893  18.267   2.779   8.853
 6951POPC   GL226894  18.324   2.713   8.853
 6951POPC   C1A26895  18.245   2.776   8.553
 6951POPC   D2A26896  18.259   2.769   8.253
 6951POPC   C3A26897  18.303   2.777   7.953
 6951POPC   C4A26898  18.236   2.813   7.653
 6951POPC   C1B26899  18.455   2.580   8.553
 6951POPC   C2B26900  18.433   2.577   8.253
 6951POPC   C3B26901  18.432   2.571   7.953
 6951POPC   C4B26902  18.428   2.573   7.653
 6952POPC   NC326903  32.204   6.695   9.453
 6952POPC   PO426904  32.247   6.681   9.153
 6952POPC   GL126905  32.210   6.615   8.853
 6952POPC   GL226906  32.242   6.526   8.853
 6952POPC   C1A26907  32.217   6.628   8.553
 6952POPC   D2A26908  32.226   6.609   8.253
 6952POPC   C3A26909  32.282   6.692   7.953
 6952POPC   C4A26910  32.229   6.645   7.653
 6952POPC   C1B26911  32.155   6.433   8.553
 6952POPC   C2B26912  32.113   6.413   8.253
 6952POPC   C3B26913  32.122   6.408   7.953
 6952POPC   C4B26914  32.180   6.404   7.653
 6953POPC   NC326915  12.854  39.257   9.453
 6953POPC   PO426916  12.828  39.228   9.153
 6953POPC   GL126917  12.875  39.263   8.853
 6953POPC   GL226918  12.677  39.207   8.853
 6953POPC   C1A26919  12.837  39.225   8.553
 6953POPC   D2A26920  12.859  39.202   8.253
 6953POPC   C3A26921  12.896  39.181   7.953
 6953POPC   C4A26922  12.858  39.198   7.653
 6953POPC   C1B26923  12.616  39.184   8.553
 6953POPC   C2B26924  12.606  39.211   8.253
 6953POPC   C3B26925  12.635  39.275   7.953
 6953POPC   C4B26926  12.581  39.248   7.653
 6954POPC   NC326927  39.986  32.286   9.453
 6954POPC   PO426928  40.021  32.292   9.153
 6954POPC   GL126929  40.007  32.247   8.853
 6954POPC   GL226930  39.982  32.147   8.853
 6954POPC   C1A26931  40.037  32.276   8.553
 6954POPC   D2A26932  40.029  32.230   8.253
 6954POPC   C3A26933  39.982  32.239   7.953
 6954POPC   C4A26934  39.988  32.254   7.653
 6954POPC   C1B26935  40.009  32.009   8.553
 6954POPC   C2B26936  40.001  31.987   8.253
 6954POPC   C3B26937  39.973  31.997   7.953
 6954POPC   C4B26938  39.943  31.956   7.653
 6955POPC   NC326939   4.278   5.080   9.453
 6955POPC   PO426940   4.343   5.083   9.153
 6955POPC   GL126941   4.338   5.066   8.853
 6955POPC   GL226942   4.441   5.060   8.853
 6955POPC   C1A26943   4.287   5.060   8.553
 6955POPC   D2A26944   4.322   5.080   8.253
 6955POPC   C3A26945   4.341   5.047   7.953
 6955POPC   C4A26946   4.323   5.065   7.653
 6955POPC   C1B26947   4.586   5.015   8.553
 6955POPC   C2B26948   4.549   5.051   8.253
 6955POPC   C3B26949   4.512   4.982   7.953
 6955POPC   C4B26950   4.537   5.054   7.653
 6956POPC   NC326951  13.667  36.936   9.453
 6956POPC   PO426952  13.583  36.871   9.153
 6956POPC   GL126953  13.585  36.906   8.853
 6956POPC   GL226954  13.690  36.804   8.853
 6956POPC   C1A26955  13.630  36.881   8.553
 6956POPC   D2A26956  13.595  36.911   8.253
 6956POPC   C3A26957  13.647  36.921   7.953
 6956POPC   C4A26958  13.643  36.941   7.653
 6956POPC   C1B26959  13.666  36.702   8.553
 6956POPC   C2B26960  13.679  36.660   8.253
 6956POPC   C3B26961  13.671  36.701   7.953
 6956POPC   C4B26962  13.660  36.673   7.653
 6957POPC   NC326963  22.922   8.172   9.453
 6957POPC   PO426964  22.969   8.228   9.153
 6957POPC   GL126965  22.973   8.231   8.853
 6957POPC   GL226966  22.792   8.249   8.853
 6957POPC   C1A26967  22.980   8.227   8.553
 6957POPC   D2A26968  22.917   8.192   8.253
 6957POPC   C3A26969  22.891   8.157   7.953
 6957POPC   C4A26970  22.903   8.187   7.653
 6957POPC   C1B26971  22.720   8.313   8.553
 6957POPC   C2B26972  22.776   8.342   8.253
 6957POPC   C3B26973  22.753   8.389   7.953
 6957POPC   C4B26974  22.780   8.384   7.653
 6958POPC   NC326975  41.592  42.367   9.453
 6958POPC   PO426976  41.584  42.380   9.153
 6958POPC   GL126977  41.559  42.302   8.853
 6958POPC   GL226978  41.443  42.401   8.853
 6958POPC   C1A26979  41.549  42.370   8.553
 6958POPC   D2A26980  41.575  42.289   8.253
 6958POPC   C3A26981  41.528  42.354   7.953
 6958POPC   C4A26982  41.511  42.315   7.653
 6958POPC   C1B26983  41.461  42.489   8.553
 6958POPC   C2B26984  41.378  42.511   8.253
 6958POPC   C3B26985  41.455  42.517   7.953
 6958POPC   C4B26986  41.428  42.547   7.653
 6959POPC   NC326987  43.849  40.785   9.453
 6959POPC   PO426988  43.907  40.767   9.153
 6959POPC   GL126989  43.861  40.750   8.853
 6959POPC   GL226990  43.989  40.775   8.853
 6959POPC   C1A26991  43.908  40.816   8.553
 6959POPC   D2A26992  43.857  40.787   8.253
 6959POPC   C3A26993  43.915  40.768   7.953
 6959POPC   C4A26994  43.884  40.800   7.653
 6959POPC   C1B26995  44.135  40.797   8.553
 6959POPC   C2B26996  44.103  40.779   8.253
 6959POPC   C3B26997  44.172  40.799   7.953
 6959POPC   C4B26998  44.109  40.785   7.653
 6960POPC   NC326999  36.131   7.385   9.453
 6960POPC   PO427000  36.161   7.427   9.153
 6960POPC   GL127001  36.168   7.390   8.853
 6960POPC   GL227002  36.101   7.545   8.853
 6960POPC   C1A27003  36.082   7.455   8.553
 6960POPC   D2A27004  36.139   7.377   8.253
 6960POPC   C3A27005  36.095   7.455   7.953
 6960POPC   C4A27006  36.096   7.383   7.653
 6960POPC   C1B27007  36.026   7.631   8.553
 6960POPC   C2B27008  35.985   7.627   8.253
 6960POPC   C3B27009  35.992   7.628   7.953
 6960POPC   C4B27010  35.962   7.613   7.653
 6961POPC   NC327011  42.343   5.881   9.453
 6961POPC   PO427012  42.287   5.850   9.153
 6961POPC   GL127013  42.307   5.877   8.853
 6961POPC   GL227014  42.207   5.795   8.853
 6961POPC   C1A27015  42.377   5.840   8.553
 6961POPC   D2A27016  42.355   5.825   8.253
 6961POPC   C3A27017  42.297   5.877   7.953
 6961POPC   C4A27018  42.377   5.837   7.653
 6961POPC   C1B27019  42.136   5.779   8.553
 6961POPC   C2B27020  42.086   5.729   8.253
 6961POPC   C3B27021  42.081   5.747   7.953
 6961POPC   C4B27022  42.123   5.734   7.653
 6962POPC   NC327023   1.240   1.183   9.453
 6962POPC   PO427024   1.224   1.189   9.153
 6962POPC   GL127025   1.216   1.194   8.853
 6962POPC   GL227026   1.107   1.292   8.853
 6962POPC   C1A27027   1.207   1.219   8.553
 6962POPC   D2A27028   1.229   1.254   8.253
 6962POPC   C3A27029   1.212   1.191   7.953
 6962POPC   C4A27030   1.196   1.238   7.653
 6962POPC   C1B27031   1.008   1.365   8.553
 6962POPC   C2B27032   1.070   1.371   8.253
 6962POPC   C3B27033   1.041   1.375   7.953
 6962POPC   C4B27034   1.048   1.380   7.653
 6963POPC   NC327035   8.948  37.673   9.453
 6963POPC   PO427036   9.020  37.700   9.153
 6963POPC   GL127037   8.932  37.675   8.853
 6963POPC   GL227038   8.826  37.730   8.853
 6963POPC   C1A27039   8.930  37.723   8.553
 6963POPC   D2A27040   8.959  37.687   8.253
 6963POPC   C3A27041   8.979  37.677   7.953
 6963POPC   C4A27042   8.978  37.667   7.653
 6963POPC   C1B27043   8.721  37.686   8.553
 6963POPC   C2B27044   8.733  37.705   8.253
 6963POPC   C3B27045   8.760  37.728   7.953
 6963POPC   C4B27046   8.769  37.753   7.653
 6964POPC   NC327047  26.090  33.025   9.453
 6964POPC   PO427048  26.081  33.021   9.153
 6964POPC   GL127049  26.020  33.020   8.853
 6964POPC   GL227050  25.945  32.981   8.853
 6964POPC   C1A27051  26.035  33.059   8.553
 6964POPC   D2A27052  26.063  33.072   8.253
 6964POPC   C3A27053  26.017  33.015   7.953
 6964POPC   C4A27054  26.070  33.062   7.653
 6964POPC   C1B27055  25.832  32.835   8.553
 6964POPC   C2B27056  25.889  32.799   8.253
 6964POPC   C3B27057  25.915  32.847   7.953
 6964POPC   C4B27058  25.897  32.881   7.653
 6965POPC   NC327059  41.590  15.954   9.453
 6965POPC   PO427060  41.594  15.996   9.153
 6965POPC   GL127061  41.599  16.001   8.853
 6965POPC   GL227062  41.669  15.938   8.853
 6965POPC   C1A27063  41.602  15.989   8.553
 6965POPC   D2A27064  41.530  15.921   8.253
 6965POPC   C3A27065  41.562  15.954   7.953
 6965POPC   C4A27066  41.562  15.939   7.653
 6965POPC   C1B27067  41.748  15.832   8.553
 6965POPC   C2B27068  41.808  15.881   8.253
 6965POPC   C3B27069  41.776  15.904   7.953
 6965POPC   C4B27070  41.793  15.841   7.653
 6966POPC   NC327071  40.044   5.139   9.453
 6966POPC   PO427072  39.991   5.082   9.153
 6966POPC   GL127073  39.985   5.053   8.853
 6966POPC   GL227074  39.954   4.968   8.853
 6966POPC   C1A27075  40.016   5.131   8.553
 6966POPC   D2A27076  40.028   5.057   8.253
 6966POPC   C3A27077  40.013   5.138   7.953
 6966POPC   C4A27078  40.051   5.091   7.653
 6966POPC   C1B27079  40.004   4.894   8.553
 6966POPC   C2B27080  40.002   4.834   8.253
 6966POPC   C3B27081  39.916   4.853   7.953
 6966POPC   C4B27082  40.006   4.858   7.653
 6967POPC   NC327083   5.090  19.104   9.453
 6967POPC   PO427084   5.058  19.099   9.153
 6967POPC   GL127085   5.076  19.053   8.853
 6967POPC   GL227086   5.074  19.206   8.853
 6967POPC   C1A27087   5.136  19.025   8.553
 6967POPC   D2A27088   5.055  19.077   8.253
 6967POPC   C3A27089   5.115  19.054   7.953
 6967POPC   C4A27090   5.084  19.072   7.653
 6967POPC   C1B27091   4.984  19.279   8.553
 6967POPC   C2B27092   4.956  19.279   8.253
 6967POPC   C3B27093   5.023  19.262   7.953
 6967POPC   C4B27094   4.978  19.282   7.653
 6968POPC   NC327095  10.536  43.150   9.453
 6968POPC   PO427096  10.527  43.091   9.153
 6968POPC   GL127097  10.532  43.119   8.853
 6968POPC   GL227098  10.558  43.272   8.853
 6968POPC   C1A27099  10.482  43.074   8.553
 6968POPC   D2A27100  10.509  43.146   8.253
 6968POPC   C3A27101  10.528  43.076   7.953
 6968POPC   C4A27102  10.499  43.102   7.653
 6968POPC   C1B27103  10.630  43.395   8.553
 6968POPC   C2B27104  10.642  43.303   8.253
 6968POPC   C3B27105  10.595  43.388   7.953
 6968POPC   C4B27106  10.599  43.391   7.653
 6969POPC   NC327107  40.043  19.098   9.453
 6969POPC   PO427108  40.038  19.103   9.153
 6969POPC   GL127109  39.970  19.068   8.853
 6969POPC   GL227110  39.853  19.102   8.853
 6969POPC   C1A27111  40.037  19.049   8.553
 6969POPC   D2A27112  39.992  19.106   8.253
 6969POPC   C3A27113  39.984  19.010   7.953
 6969POPC   C4A27114  40.045  19.087   7.653
 6969POPC   C1B27115  39.758  19.098   8.553
 6969POPC   C2B27116  39.776  19.156   8.253
 6969POPC   C3B27117  39.773  19.191   7.953
 6969POPC   C4B27118  39.748  19.182   7.653
 6970POPC   NC327119  41.602  22.195   9.453
 6970POPC   PO427120  41.530  22.142   9.153
 6970POPC   GL127121  41.594  22.157   8.853
 6970POPC   GL227122  41.461  22.197   8.853
 6970POPC   C1A27123  41.513  22.189   8.553
 6970POPC   D2A27124  41.602  22.113   8.253
 6970POPC   C3A27125  41.595  22.145   7.953
 6970POPC   C4A27126  41.547  22.178   7.653
 6970POPC   C1B27127  41.366  22.248   8.553
 6970POPC   C2B27128  41.365  22.290   8.253
 6970POPC   C3B27129  41.342  22.283   7.953
 6970POPC   C4B27130  41.342  22.228   7.653
 6971POPC   NC327131  29.102  34.549   9.453
 6971POPC   PO427132  29.113  34.588   9.153
 6971POPC   GL127133  29.145  34.570   8.853
 6971POPC   GL227134  29.122  34.471   8.853
 6971POPC   C1A27135  29.116  34.565   8.553
 6971POPC   D2A27136  29.154  34.565   8.253
 6971POPC   C3A27137  29.163  34.550   7.953
 6971POPC   C4A27138  29.128  34.563   7.653
 6971POPC   C1B27139  29.014  34.336   8.553
 6971POPC   C2B27140  29.037  34.353   8.253
 6971POPC   C3B27141  28.989  34.392   7.953
 6971POPC   C4B27142  29.012  34.307   7.653
 6972POPC   NC327143  15.910   2.764   9.453
 6972POPC   PO427144  15.943   2.807   9.153
 6972POPC   GL127145  15.940   2.764   8.853
 6972POPC   GL227146  16.039   2.777   8.853
 6972POPC   C1A27147  15.932   2.773   8.553
 6972POPC   D2A27148  15.983   2.807   8.253
 6972POPC   C3A27149  15.952   2.749   7.953
 6972POPC   C4A27150  15.999   2.717   7.653
 6972POPC   C1B27151  16.252   2.780   8.553
 6972POPC   C2B27152  16.163   2.754   8.253
 6972POPC   C3B27153  16.222   2.784   7.953
 6972POPC   C4B27154  16.163   2.717   7.653
 6973POPC   NC327155   5.055   5.113   9.453
 6973POPC   PO427156   5.137   5.073   9.153
 6973POPC   GL127157   5.068   5.073   8.853
 6973POPC   GL227158   5.056   4.950   8.853
 6973POPC   C1A27159   5.051   5.089   8.553
 6973POPC   D2A27160   5.099   5.046   8.253
 6973POPC   C3A27161   5.095   5.061   7.953
 6973POPC   C4A27162   5.121   5.053   7.653
 6973POPC   C1B27163   5.013   4.860   8.553
 6973POPC   C2B27164   4.960   4.845   8.253
 6973POPC   C3B27165   4.962   4.822   7.953
 6973POPC   C4B27166   4.948   4.837   7.653
 6974POPC   NC327167  43.850  39.217   9.453
 6974POPC   PO427168  43.933  39.247   9.153
 6974POPC   GL127169  43.933  39.237   8.853
 6974POPC   GL227170  43.777  39.252   8.853
 6974POPC   C1A27171  43.928  39.200   8.553
 6974POPC   D2A27172  43.905  39.230   8.253
 6974POPC   C3A27173  43.866  39.257   7.953
 6974POPC   C4A27174  43.843  39.266   7.653
 6974POPC   C1B27175  43.611  39.234   8.553
 6974POPC   C2B27176  43.590  39.285   8.253
 6974POPC   C3B27177  43.682  39.267   7.953
 6974POPC   C4B27178  43.669  39.207   7.653
 6975POPC   NC327179  28.391  30.666   9.453
 6975POPC   PO427180  28.335  30.721   9.153
 6975POPC   GL127181  28.324  30.694   8.853
 6975POPC   GL227182  28.463  30.800   8.853
 6975POPC   C1A27183  28.379  30.704   8.553
 6975POPC   D2A27184  28.366  30.710   8.253
 6975POPC   C3A27185  28.346  30.701   7.953
 6975POPC   C4A27186  28.375  30.715   7.653
 6975POPC   C1B27187  28.615  30.810   8.553
 6975POPC   C2B27188  28.605  30.901   8.253
 6975POPC   C3B27189  28.572  30.896   7.953
 6975POPC   C4B27190  28.546  30.900   7.653
 6976POPC   NC327191  21.379  26.027   9.453
 6976POPC   PO427192  21.344  26.065   9.153
 6976POPC   GL127193  21.385  26.043   8.853
 6976POPC   GL227194  21.523  25.922   8.853
 6976POPC   C1A27195  21.368  26.031   8.553
 6976POPC   D2A27196  21.393  26.012   8.253
 6976POPC   C3A27197  21.346  26.001   7.953
 6976POPC   C4A27198  21.391  26.006   7.653
 6976POPC   C1B27199  21.631  25.918   8.553
 6976POPC   C2B27200  21.599  25.909   8.253
 6976POPC   C3B27201  21.626  25.903   7.953
 6976POPC   C4B27202  21.621  25.858   7.653
 6977POPC   NC327203   3.564  41.524   9.453
 6977POPC   PO427204   3.543  41.531   9.153
 6977POPC   GL127205   3.564  41.597   8.853
 6977POPC   GL227206   3.609  41.418   8.853
 6977POPC   C1A27207   3.577  41.593   8.553
 6977POPC   D2A27208   3.579  41.588   8.253
 6977POPC   C3A27209   3.540  41.574   7.953
 6977POPC   C4A27210   3.566  41.541   7.653
 6977POPC   C1B27211   3.641  41.330   8.553
 6977POPC   C2B27212   3.721  41.329   8.253
 6977POPC   C3B27213   3.680  41.345   7.953
 6977POPC   C4B27214   3.711  41.351   7.653
 6978POPC   NC327215  22.160  19.820   9.453
 6978POPC   PO427216  22.190  19.870   9.153
 6978POPC   GL127217  22.153  19.843   8.853
 6978POPC   GL227218  22.193  19.900   8.853
 6978POPC   C1A27219  22.164  19.865   8.553
 6978POPC   D2A27220  22.176  19.789   8.253
 6978POPC   C3A27221  22.144  19.826   7.953
 6978POPC   C4A27222  22.128  19.837   7.653
 6978POPC   C1B27223  22.306  20.078   8.553
 6978POPC   C2B27224  22.268  20.056   8.253
 6978POPC   C3B27225  22.256  20.010   7.953
 6978POPC   C4B27226  22.291  20.056   7.653
 6979POPC   NC327227  26.038  14.394   9.453
 6979POPC   PO427228  26.029  14.424   9.153
 6979POPC   GL127229  26.028  14.380   8.853
 6979POPC   GL227230  26.184  14.456   8.853
 6979POPC   C1A27231  26.070  14.437   8.553
 6979POPC   D2A27232  26.085  14.396   8.253
 6979POPC   C3A27233  26.012  14.354   7.953
 6979POPC   C4A27234  26.008  14.429   7.653
 6979POPC   C1B27235  26.320  14.540   8.553
 6979POPC   C2B27236  26.262  14.490   8.253
 6979POPC   C3B27237  26.248  14.441   7.953
 6979POPC   C4B27238  26.260  14.470   7.653
 6980POPC   NC327239  41.606   5.866   9.453
 6980POPC   PO427240  41.599   5.918   9.153
 6980POPC   GL127241  41.577   5.900   8.853
 6980POPC   GL227242  41.703   5.936   8.853
 6980POPC   C1A27243  41.592   5.910   8.553
 6980POPC   D2A27244  41.580   5.907   8.253
 6980POPC   C3A27245  41.555   5.918   7.953
 6980POPC   C4A27246  41.554   5.908   7.653
 6980POPC   C1B27247  41.718   6.031   8.553
 6980POPC   C2B27248  41.742   5.986   8.253
 6980POPC   C3B27249  41.790   6.052   7.953
 6980POPC   C4B27250  41.745   5.970   7.653
 6981POPC   NC327251  36.870  29.167   9.453
 6981POPC   PO427252  36.860  29.161   9.153
 6981POPC   GL127253  36.861  29.139   8.853
 6981POPC   GL227254  36.785  29.204   8.853
 6981POPC   C1A27255  36.948  29.148   8.553
 6981POPC   D2A27256  36.916  29.142   8.253
 6981POPC   C3A27257  36.950  29.133   7.953
 6981POPC   C4A27258  36.921  29.123   7.653
 6981POPC   C1B27259  36.764  29.364   8.553
 6981POPC   C2B27260  36.747  29.359   8.253
 6981POPC   C3B27261  36.778  29.323   7.953
 6981POPC   C4B27262  36.787  29.384   7.653
 6982POPC   NC327263  15.933  36.919   9.453
 6982POPC   PO427264  15.923  36.900   9.153
 6982POPC   GL127265  15.980  36.872   8.853
 6982POPC   GL227266  16.046  36.815   8.853
 6982POPC   C1A27267  15.960  36.888   8.553
 6982POPC   D2A27268  15.966  36.936   8.253
 6982POPC   C3A27269  15.940  36.879   7.953
 6982POPC   C4A27270  15.953  36.907   7.653
 6982POPC   C1B27271  16.173  36.718   8.553
 6982POPC   C2B27272  16.188  36.739   8.253
 6982POPC   C3B27273  16.169  36.739   7.953
 6982POPC   C4B27274  16.144  36.739   7.653
 6983POPC   NC327275   8.184  10.553   9.453
 6983POPC   PO427276   8.204  10.525   9.153
 6983POPC   GL127277   8.150  10.524   8.853
 6983POPC   GL227278   8.149  10.622   8.853
 6983POPC   C1A27279   8.244  10.547   8.553
 6983POPC   D2A27280   8.219  10.551   8.253
 6983POPC   C3A27281   8.216  10.513   7.953
 6983POPC   C4A27282   8.181  10.486   7.653
 6983POPC   C1B27283   8.154  10.737   8.553
 6983POPC   C2B27284   8.159  10.787   8.253
 6983POPC   C3B27285   8.116  10.741   7.953
 6983POPC   C4B27286   8.146  10.715   7.653
 6984POPC   NC327287  22.929  33.837   9.453
 6984POPC   PO427288  22.983  33.813   9.153
 6984POPC   GL127289  22.902  33.772   8.853
 6984POPC   GL227290  23.030  33.931   8.853
 6984POPC   C1A27291  22.952  33.780   8.553
 6984POPC   D2A27292  22.949  33.803   8.253
 6984POPC   C3A27293  22.952  33.755   7.953
 6984POPC   C4A27294  22.959  33.771   7.653
 6984POPC   C1B27295  23.062  34.021   8.553
 6984POPC   C2B27296  23.058  33.972   8.253
 6984POPC   C3B27297  23.081  33.977   7.953
 6984POPC   C4B27298  23.105  34.011   7.653
 6985POPC   NC327299  13.611  12.088   9.453
 6985POPC   PO427300  13.649  12.091   9.153
 6985POPC   GL127301  13.593  12.093   8.853
 6985POPC   GL227302  13.772  12.080   8.853
 6985POPC   C1A27303  13.597  12.095   8.553
 6985POPC   D2A27304  13.653  12.068   8.253
 6985POPC   C3A27305  13.674  12.108   7.953
 6985POPC   C4A27306  13.660  12.028   7.653
 6985POPC   C1B27307  13.881  12.178   8.553
 6985POPC   C2B27308  13.827  12.095   8.253
 6985POPC   C3B27309  13.909  12.182   7.953
 6985POPC   C4B27310  13.899  12.140   7.653
 6986POPC   NC327311   1.988  40.790   9.453
 6986POPC   PO427312   1.948  40.816   9.153
 6986POPC   GL127313   1.943  40.761   8.853
 6986POPC   GL227314   1.914  40.830   8.853
 6986POPC   C1A27315   2.029  40.816   8.553
 6986POPC   D2A27316   1.989  40.782   8.253
 6986POPC   C3A27317   1.959  40.812   7.953
 6986POPC   C4A27318   2.000  40.753   7.653
 6986POPC   C1B27319   1.822  40.925   8.553
 6986POPC   C2B27320   1.751  40.881   8.253
 6986POPC   C3B27321   1.828  40.885   7.953
 6986POPC   C4B27322   1.769  40.919   7.653
 6987POPC   NC327323  19.837   4.286   9.453
 6987POPC   PO427324  19.794   4.359   9.153
 6987POPC   GL127325  19.830   4.328   8.853
 6987POPC   GL227326  19.728   4.253   8.853
 6987POPC   C1A27327  19.865   4.359   8.553
 6987POPC   D2A27328  19.822   4.275   8.253
 6987POPC   C3A27329  19.802   4.360   7.953
 6987POPC   C4A27330  19.836   4.312   7.653
 6987POPC   C1B27331  19.566   4.212   8.553
 6987POPC   C2B27332  19.575   4.298   8.253
 6987POPC   C3B27333  19.620   4.236   7.953
 6987POPC   C4B27334  19.608   4.248   7.653
 6988POPC   NC327335  42.313  28.369   9.453
 6988POPC   PO427336  42.323  28.358   9.153
 6988POPC   GL127337  42.294  28.388   8.853
 6988POPC   GL227338  42.309  28.217   8.853
 6988POPC   C1A27339  42.318  28.397   8.553
 6988POPC   D2A27340  42.363  28.407   8.253
 6988POPC   C3A27341  42.304  28.379   7.953
 6988POPC   C4A27342  42.384  28.383   7.653
 6988POPC   C1B27343  42.349  28.148   8.553
 6988POPC   C2B27344  42.328  28.094   8.253
 6988POPC   C3B27345  42.266  28.151   7.953
 6988POPC   C4B27346  42.325  28.071   7.653
 6989POPC   NC327347  32.247  22.956   9.453
 6989POPC   PO427348  32.282  22.900   9.153
 6989POPC   GL127349  32.289  22.944   8.853
 6989POPC   GL227350  32.260  22.855   8.853
 6989POPC   C1A27351  32.296  22.943   8.553
 6989POPC   D2A27352  32.252  22.985   8.253
 6989POPC   C3A27353  32.288  22.944   7.953
 6989POPC   C4A27354  32.248  22.976   7.653
 6989POPC   C1B27355  32.194  22.702   8.553
 6989POPC   C2B27356  32.245  22.718   8.253
 6989POPC   C3B27357  32.184  22.733   7.953
 6989POPC   C4B27358  32.204  22.674   7.653
 6990POPC   NC327359   2.772   7.378   9.453
 6990POPC   PO427360   2.728   7.390   9.153
 6990POPC   GL127361   2.723   7.373   8.853
 6990POPC   GL227362   2.842   7.308   8.853
 6990POPC   C1A27363   2.777   7.418   8.553
 6990POPC   D2A27364   2.721   7.390   8.253
 6990POPC   C3A27365   2.789   7.451   7.953
 6990POPC   C4A27366   2.808   7.398   7.653
 6990POPC   C1B27367   2.962   7.254   8.553
 6990POPC   C2B27368   2.891   7.215   8.253
 6990POPC   C3B27369   2.889   7.255   7.953
 6990POPC   C4B27370   2.935   7.276   7.653
 6991POPC   NC327371  21.404   7.415   9.453
 6991POPC   PO427372  21.383   7.376   9.153
 6991POPC   GL127373  21.387   7.415   8.853
 6991POPC   GL227374  21.388   7.291   8.853
 6991POPC   C1A27375  21.415   7.426   8.553
 6991POPC   D2A27376  21.380   7.406   8.253
 6991POPC   C3A27377  21.391   7.439   7.953
 6991POPC   C4A27378  21.356   7.448   7.653
 6991POPC   C1B27379  21.456   7.143   8.553
 6991POPC   C2B27380  21.495   7.192   8.253
 6991POPC   C3B27381  21.464   7.232   7.953
 6991POPC   C4B27382  21.498   7.226   7.653
 6992POPC   NC327383  36.872  25.273   9.453
 6992POPC   PO427384  36.885  25.295   9.153
 6992POPC   GL127385  36.902  25.307   8.853
 6992POPC   GL227386  36.894  25.157   8.853
 6992POPC   C1A27387  36.908  25.273   8.553
 6992POPC   D2A27388  36.936  25.246   8.253
 6992POPC   C3A27389  36.881  25.231   7.953
 6992POPC   C4A27390  36.893  25.243   7.653
 6992POPC   C1B27391  36.908  25.063   8.553
 6992POPC   C2B27392  36.896  24.987   8.253
 6992POPC   C3B27393  36.913  25.056   7.953
 6992POPC   C4B27394  36.916  25.025   7.653
 6993POPC   NC327395   9.000  39.213   9.453
 6993POPC   PO427396   8.945  39.280   9.153
 6993POPC   GL127397   9.005  39.214   8.853
 6993POPC   GL227398   9.042  39.319   8.853
 6993POPC   C1A27399   8.952  39.199   8.553
 6993POPC   D2A27400   8.942  39.240   8.253
 6993POPC   C3A27401   8.994  39.242   7.953
 6993POPC   C4A27402   8.991  39.200   7.653
 6993POPC   C1B27403   9.180  39.353   8.553
 6993POPC   C2B27404   9.251  39.282   8.253
 6993POPC   C3B27405   9.245  39.299   7.953
 6993POPC   C4B27406   9.228  39.339   7.653
 6994POPC   NC327407  29.117  22.194   9.453
 6994POPC   PO427408  29.096  22.198   9.153
 6994POPC   GL127409  29.104  22.171   8.853
 6994POPC   GL227410  29.036  22.133   8.853
 6994POPC   C1A27411  29.118  22.191   8.553
 6994POPC   D2A27412  29.161  22.179   8.253
 6994POPC   C3A27413  29.182  22.123   7.953
 6994POPC   C4A27414  29.186  22.158   7.653
 6994POPC   C1B27415  28.920  22.166   8.553
 6994POPC   C2B27416  28.917  22.175   8.253
 6994POPC   C3B27417  28.894  22.159   7.953
 6994POPC   C4B27418  28.918  22.117   7.653
 6995POPC   NC327419  37.660  29.158   9.453
 6995POPC   PO427420  37.698  29.164   9.153
 6995POPC   GL127421  37.729  29.184   8.853
 6995POPC   GL227422  37.689  29.063   8.853
 6995POPC   C1A27423  37.631  29.099   8.553
 6995POPC   D2A27424  37.658  29.095   8.253
 6995POPC   C3A27425  37.723  29.189   7.953
 6995POPC   C4A27426  37.704  29.097   7.653
 6995POPC   C1B27427  37.630  28.911   8.553
 6995POPC   C2B27428  37.602  28.918   8.253
 6995POPC   C3B27429  37.644  28.888   7.953
 6995POPC   C4B27430  37.649  28.867   7.653
 6996POPC   NC327431  30.685  25.217   9.453
 6996POPC   PO427432  30.685  25.219   9.153
 6996POPC   GL127433  30.684  25.275   8.853
 6996POPC   GL227434  30.670  25.116   8.853
 6996POPC   C1A27435  30.699  25.292   8.553
 6996POPC   D2A27436  30.687  25.295   8.253
 6996POPC   C3A27437  30.744  25.282   7.953
 6996POPC   C4A27438  30.716  25.301   7.653
 6996POPC   C1B27439  30.701  25.064   8.553
 6996POPC   C2B27440  30.742  25.011   8.253
 6996POPC   C3B27441  30.672  25.064   7.953
 6996POPC   C4B27442  30.659  24.997   7.653
 6997POPC   NC327443  31.509  24.490   9.453
 6997POPC   PO427444  31.501  24.532   9.153
 6997POPC   GL127445  31.503  24.482   8.853
 6997POPC   GL227446  31.567  24.553   8.853
 6997POPC   C1A27447  31.471  24.528   8.553
 6997POPC   D2A27448  31.473  24.490   8.253
 6997POPC   C3A27449  31.466  24.486   7.953
 6997POPC   C4A27450  31.424  24.454   7.653
 6997POPC   C1B27451  31.755  24.501   8.553
 6997POPC   C2B27452  31.715  24.492   8.253
 6997POPC   C3B27453  31.693  24.562   7.953
 6997POPC   C4B27454  31.681  24.506   7.653
 6998POPC   NC327455  15.947  40.804   9.453
 6998POPC   PO427456  15.946  40.765   9.153
 6998POPC   GL127457  15.989  40.828   8.853
 6998POPC   GL227458  16.035  40.715   8.853
 6998POPC   C1A27459  15.981  40.789   8.553
 6998POPC   D2A27460  15.971  40.743   8.253
 6998POPC   C3A27461  15.934  40.807   7.953
 6998POPC   C4A27462  15.965  40.793   7.653
 6998POPC   C1B27463  16.203  40.692   8.553
 6998POPC   C2B27464  16.224  40.683   8.253
 6998POPC   C3B27465  16.150  40.688   7.953
 6998POPC   C4B27466  16.240  40.741   7.653
 6999POPC   NC327467  19.061  34.597   9.453
 6999POPC   PO427468  19.076  34.553   9.153
 6999POPC   GL127469  19.063  34.596   8.853
 6999POPC   GL227470  19.221  34.589   8.853
 6999POPC   C1A27471  19.071  34.621   8.553
 6999POPC   D2A27472  19.063  34.584   8.253
 6999POPC   C3A27473  19.016  34.530   7.953
 6999POPC   C4A27474  19.086  34.548   7.653
 6999POPC   C1B27475  19.282  34.608   8.553
 6999POPC   C2B27476  19.309  34.573   8.253
 6999POPC   C3B27477  19.349  34.566   7.953
 6999POPC   C4B27478  19.310  34.573   7.653
 7000POPC   NC327479  32.295  31.434   9.453
 7000POPC   PO427480  32.206  31.426   9.153
 7000POPC   GL127481  32.298  31.461   8.853
 7000POPC   GL227482  32.329  31.577   8.853
 7000POPC   C1A27483  32.223  31.458   8.553
 7000POPC   D2A27484  32.292  31.511   8.253
 7000POPC   C3A27485  32.199  31.492   7.953
 7000POPC   C4A27486  32.244  31.483   7.653
 7000POPC   C1B27487  32.390  31.657   8.553
 7000POPC   C2B27488  32.374  31.694   8.253
 7000POPC   C3B27489  32.412  31.605   7.953
 7000POPC   C4B27490  32.389  31.684   7.653
 7001POPC   NC327491  33.005  33.779   9.453
 7001POPC   PO427492  32.983  33.770   9.153
 7001POPC   GL127493  33.019  33.847   8.853
 7001POPC   GL227494  32.903  33.812   8.853
 7001POPC   C1A27495  33.019  33.798   8.553
 7001POPC   D2A27496  32.999  33.770   8.253
 7001POPC   C3A27497  32.994  33.804   7.953
 7001POPC   C4A27498  33.012  33.771   7.653
 7001POPC   C1B27499  32.730  33.740   8.553
 7001POPC   C2B27500  32.797  33.793   8.253
 7001POPC   C3B27501  32.740  33.814   7.953
 7001POPC   C4B27502  32.779  33.736   7.653
 7002POPC   NC327503  24.499  13.647   9.453
 7002POPC   PO427504  24.443  13.609   9.153
 7002POPC   GL127505  24.443  13.657   8.853
 7002POPC   GL227506  24.526  13.752   8.853
 7002POPC   C1A27507  24.458  13.601   8.553
 7002POPC   D2A27508  24.510  13.610   8.253
 7002POPC   C3A27509  24.500  13.673   7.953
 7002POPC   C4A27510  24.521  13.648   7.653
 7002POPC   C1B27511  24.502  13.904   8.553
 7002POPC   C2B27512  24.459  13.865   8.253
 7002POPC   C3B27513  24.454  13.862   7.953
 7002POPC   C4B27514  24.531  13.873   7.653
 7003POPC   NC327515  40.029  33.804   9.453
 7003POPC   PO427516  40.039  33.795   9.153
 7003POPC   GL127517  40.033  33.806   8.853
 7003POPC   GL227518  40.103  33.740   8.853
 7003POPC   C1A27519  40.002  33.777   8.553
 7003POPC   D2A27520  40.055  33.814   8.253
 7003POPC   C3A27521  40.009  33.779   7.953
 7003POPC   C4A27522  39.999  33.761   7.653
 7003POPC   C1B27523  40.196  33.642   8.553
 7003POPC   C2B27524  40.266  33.711   8.253
 7003POPC   C3B27525  40.240  33.718   7.953
 7003POPC   C4B27526  40.221  33.634   7.653
 7004POPC   NC327527  42.309  16.699   9.453
 7004POPC   PO427528  42.312  16.729   9.153
 7004POPC   GL127529  42.312  16.713   8.853
 7004POPC   GL227530  42.332  16.589   8.853
 7004POPC   C1A27531  42.355  16.718   8.553
 7004POPC   D2A27532  42.359  16.683   8.253
 7004POPC   C3A27533  42.322  16.755   7.953
 7004POPC   C4A27534  42.304  16.687   7.653
 7004POPC   C1B27535  42.381  16.443   8.553
 7004POPC   C2B27536  42.360  16.450   8.253
 7004POPC   C3B27537  42.317  16.467   7.953
 7004POPC   C4B27538  42.392  16.448   7.653
 7005POPC   NC327539  19.844  16.716   9.453
 7005POPC   PO427540  19.794  16.736   9.153
 7005POPC   GL127541  19.788  16.740   8.853
 7005POPC   GL227542  19.928  16.820   8.853
 7005POPC   C1A27543  19.830  16.687   8.553
 7005POPC   D2A27544  19.821  16.741   8.253
 7005POPC   C3A27545  19.880  16.730   7.953
 7005POPC   C4A27546  19.815  16.713   7.653
 7005POPC   C1B27547  20.002  16.901   8.553
 7005POPC   C2B27548  20.014  16.885   8.253
 7005POPC   C3B27549  20.029  16.937   7.953
 7005POPC   C4B27550  19.960  16.870   7.653
 7006POPC   NC327551   5.849  18.276   9.453
 7006POPC   PO427552   5.844  18.318   9.153
 7006POPC   GL127553   5.874  18.309   8.853
 7006POPC   GL227554   5.787  18.351   8.853
 7006POPC   C1A27555   5.871  18.286   8.553
 7006POPC   D2A27556   5.867  18.278   8.253
 7006POPC   C3A27557   5.860  18.257   7.953
 7006POPC   C4A27558   5.835  18.238   7.653
 7006POPC   C1B27559   5.701  18.373   8.553
 7006POPC   C2B27560   5.703  18.454   8.253
 7006POPC   C3B27561   5.650  18.469   7.953
 7006POPC   C4B27562   5.692  18.462   7.653
 7007POPC   NC327563   1.972   1.166   9.453
 7007POPC   PO427564   2.012   1.170   9.153
 7007POPC   GL127565   2.026   1.258   8.853
 7007POPC   GL227566   1.964   1.048   8.853
 7007POPC   C1A27567   1.981   1.212   8.553
 7007POPC   D2A27568   1.956   1.261   8.253
 7007POPC   C3A27569   1.943   1.219   7.953
 7007POPC   C4A27570   2.013   1.207   7.653
 7007POPC   C1B27571   2.027   0.948   8.553
 7007POPC   C2B27572   2.009   1.013   8.253
 7007POPC   C3B27573   2.042   0.947   7.953
 7007POPC   C4B27574   2.008   1.001   7.653
 7008POPC   NC327575   1.976  33.012   9.453
 7008POPC   PO427576   2.010  33.007   9.153
 7008POPC   GL127577   2.015  33.029   8.853
 7008POPC   GL227578   2.115  33.072   8.853
 7008POPC   C1A27579   1.957  33.036   8.553
 7008POPC   D2A27580   1.940  33.050   8.253
 7008POPC   C3A27581   2.032  33.061   7.953
 7008POPC   C4A27582   2.024  32.995   7.653
 7008POPC   C1B27583   2.192  33.211   8.553
 7008POPC   C2B27584   2.200  33.198   8.253
 7008POPC   C3B27585   2.196  33.230   7.953
 7008POPC   C4B27586   2.213  33.180   7.653
 7009POPC   NC327587   1.221   5.076   9.453
 7009POPC   PO427588   1.188   5.044   9.153
 7009POPC   GL127589   1.236   5.075   8.853
 7009POPC   GL227590   1.210   5.226   8.853
 7009POPC   C1A27591   1.202   5.054   8.553
 7009POPC   D2A27592   1.241   5.138   8.253
 7009POPC   C3A27593   1.223   5.142   7.953
 7009POPC   C4A27594   1.187   5.079   7.653
 7009POPC   C1B27595   1.167   5.389   8.553
 7009POPC   C2B27596   1.209   5.370   8.253
 7009POPC   C3B27597   1.220   5.340   7.953
 7009POPC   C4B27598   1.239   5.319   7.653
 7010POPC   NC327599   0.409  15.226   9.453
 7010POPC   PO427600   0.428  15.201   9.153
 7010POPC   GL127601   0.472  15.204   8.853
 7010POPC   GL227602   0.437  15.269   8.853
 7010POPC   C1A27603   0.478  15.130   8.553
 7010POPC   D2A27604   0.431  15.214   8.253
 7010POPC   C3A27605   0.486  15.200   7.953
 7010POPC   C4A27606   0.476  15.143   7.653
 7010POPC   C1B27607   0.299  15.374   8.553
 7010POPC   C2B27608   0.352  15.454   8.253
 7010POPC   C3B27609   0.336  15.397   7.953
 7010POPC   C4B27610   0.352  15.407   7.653
 7011POPC   NC327611  40.787  21.406   9.453
 7011POPC   PO427612  40.814  21.428   9.153
 7011POPC   GL127613  40.818  21.422   8.853
 7011POPC   GL227614  40.730  21.541   8.853
 7011POPC   C1A27615  40.734  21.411   8.553
 7011POPC   D2A27616  40.809  21.353   8.253
 7011POPC   C3A27617  40.823  21.379   7.953
 7011POPC   C4A27618  40.755  21.347   7.653
 7011POPC   C1B27619  40.651  21.627   8.553
 7011POPC   C2B27620  40.639  21.585   8.253
 7011POPC   C3B27621  40.709  21.585   7.953
 7011POPC   C4B27622  40.728  21.623   7.653
 7012POPC   NC327623  43.154  22.204   9.453
 7012POPC   PO427624  43.085  22.173   9.153
 7012POPC   GL127625  43.139  22.157   8.853
 7012POPC   GL227626  42.971  22.056   8.853
 7012POPC   C1A27627  43.116  22.198   8.553
 7012POPC   D2A27628  43.105  22.141   8.253
 7012POPC   C3A27629  43.112  22.186   7.953
 7012POPC   C4A27630  43.157  22.202   7.653
 7012POPC   C1B27631  42.926  22.014   8.553
 7012POPC   C2B27632  42.884  22.062   8.253
 7012POPC   C3B27633  42.917  22.027   7.953
 7012POPC   C4B27634  42.881  22.061   7.653
 7013POPC   NC327635  25.233  19.086   9.453
 7013POPC   PO427636  25.216  19.045   9.153
 7013POPC   GL127637  25.239  19.106   8.853
 7013POPC   GL227638  25.206  19.122   8.853
 7013POPC   C1A27639  25.279  19.091   8.553
 7013POPC   D2A27640  25.227  19.054   8.253
 7013POPC   C3A27641  25.254  19.046   7.953
 7013POPC   C4A27642  25.302  19.010   7.653
 7013POPC   C1B27643  25.108  19.290   8.553
 7013POPC   C2B27644  25.100  19.273   8.253
 7013POPC   C3B27645  25.157  19.305   7.953
 7013POPC   C4B27646  25.139  19.301   7.653
 7014POPC   NC327647  44.667  37.633   9.453
 7014POPC   PO427648  44.652  37.639   9.153
 7014POPC   GL127649  44.636  37.633   8.853
 7014POPC   GL227650  44.741  37.631   8.853
 7014POPC   C1A27651  44.697  37.720   8.553
 7014POPC   D2A27652  44.626  37.705   8.253
 7014POPC   C3A27653  44.661  37.693   7.953
 7014POPC   C4A27654  44.685  37.715   7.653
 7014POPC   C1B27655  44.907  37.546   8.553
 7014POPC   C2B27656  44.859  37.553   8.253
 7014POPC   C3B27657  44.946  37.617   7.953
 7014POPC   C4B27658  44.940  37.572   7.653
 7015POPC   NC327659   4.303  44.630   9.453
 7015POPC   PO427660   4.308  44.670   9.153
 7015POPC   GL127661   4.281  44.696   8.853
 7015POPC   GL227662   4.279  44.579   8.853
 7015POPC   C1A27663   4.328  44.698   8.553
 7015POPC   D2A27664   4.273  44.698   8.253
 7015POPC   C3A27665   4.313  44.635   7.953
 7015POPC   C4A27666   4.338  44.702   7.653
 7015POPC   C1B27667   4.130  44.440   8.553
 7015POPC   C2B27668   4.203  44.465   8.253
 7015POPC   C3B27669   4.136  44.506   7.953
 7015POPC   C4B27670   4.160  44.425   7.653
 7016POPC   NC327671  39.993  29.927   9.453
 7016POPC   PO427672  40.000  29.905   9.153
 7016POPC   GL127673  40.021  29.944   8.853
 7016POPC   GL227674  40.005  29.837   8.853
 7016POPC   C1A27675  40.011  29.927   8.553
 7016POPC   D2A27676  40.045  29.935   8.253
 7016POPC   C3A27677  40.032  29.914   7.953
 7016POPC   C4A27678  39.963  29.880   7.653
 7016POPC   C1B27679  40.043  29.674   8.553
 7016POPC   C2B27680  40.064  29.677   8.253
 7016POPC   C3B27681  39.977  29.652   7.953
 7016POPC   C4B27682  40.041  29.696   7.653
 7017POPC   NC327683  41.575  29.951   9.453
 7017POPC   PO427684  41.598  29.937   9.153
 7017POPC   GL127685  41.552  29.892   8.853
 7017POPC   GL227686  41.409  29.950   8.853
 7017POPC   C1A27687  41.521  29.944   8.553
 7017POPC   D2A27688  41.606  29.878   8.253
 7017POPC   C3A27689  41.544  29.878   7.953
 7017POPC   C4A27690  41.551  29.880   7.653
 7017POPC   C1B27691  41.322  29.993   8.553
 7017POPC   C2B27692  41.347  29.950   8.253
 7017POPC   C3B27693  41.314  29.947   7.953
 7017POPC   C4B27694  41.301  29.949   7.653
 7018POPC   NC327695  29.184  20.628   9.453
 7018POPC   PO427696  29.105  20.606   9.153
 7018POPC   GL127697  29.176  20.638   8.853
 7018POPC   GL227698  29.208  20.481   8.853
 7018POPC   C1A27699  29.162  20.623   8.553
 7018POPC   D2A27700  29.097  20.574   8.253
 7018POPC   C3A27701  29.127  20.638   7.953
 7018POPC   C4A27702  29.179  20.611   7.653
 7018POPC   C1B27703  29.274  20.377   8.553
 7018POPC   C2B27704  29.324  20.395   8.253
 7018POPC   C3B27705  29.280  20.376   7.953
 7018POPC   C4B27706  29.256  20.433   7.653
 7019POPC   NC327707  43.088  17.539   9.453
 7019POPC   PO427708  43.124  17.466   9.153
 7019POPC   GL127709  43.082  17.460   8.853
 7019POPC   GL227710  43.128  17.669   8.853
 7019POPC   C1A27711  43.075  17.506   8.553
 7019POPC   D2A27712  43.100  17.465   8.253
 7019POPC   C3A27713  43.103  17.524   7.953
 7019POPC   C4A27714  43.145  17.513   7.653
 7019POPC   C1B27715  43.041  17.787   8.553
 7019POPC   C2B27716  43.084  17.750   8.253
 7019POPC   C3B27717  43.107  17.787   7.953
 7019POPC   C4B27718  43.022  17.766   7.653
 7020POPC   NC327719  35.353  43.895   9.453
 7020POPC   PO427720  35.382  43.882   9.153
 7020POPC   GL127721  35.336  43.847   8.853
 7020POPC   GL227722  35.325  43.773   8.853
 7020POPC   C1A27723  35.391  43.871   8.553
 7020POPC   D2A27724  35.359  43.888   8.253
 7020POPC   C3A27725  35.339  43.889   7.953
 7020POPC   C4A27726  35.393  43.910   7.653
 7020POPC   C1B27727  35.345  43.649   8.553
 7020POPC   C2B27728  35.305  43.607   8.253
 7020POPC   C3B27729  35.325  43.593   7.953
 7020POPC   C4B27730  35.254  43.609   7.653
 7021POPC   NC327731  36.123  32.999   9.453
 7021POPC   PO427732  36.177  33.020   9.153
 7021POPC   GL127733  36.102  32.992   8.853
 7021POPC   GL227734  36.121  32.886   8.853
 7021POPC   C1A27735  36.171  33.069   8.553
 7021POPC   D2A27736  36.164  32.982   8.253
 7021POPC   C3A27737  36.149  33.068   7.953
 7021POPC   C4A27738  36.111  33.009   7.653
 7021POPC   C1B27739  36.128  32.783   8.553
 7021POPC   C2B27740  36.217  32.785   8.253
 7021POPC   C3B27741  36.130  32.788   7.953
 7021POPC   C4B27742  36.159  32.810   7.653
 7022POPC   NC327743  42.375  13.665   9.453
 7022POPC   PO427744  42.296  13.629   9.153
 7022POPC   GL127745  42.321  13.639   8.853
 7022POPC   GL227746  42.300  13.513   8.853
 7022POPC   C1A27747  42.363  13.622   8.553
 7022POPC   D2A27748  42.309  13.640   8.253
 7022POPC   C3A27749  42.326  13.612   7.953
 7022POPC   C4A27750  42.337  13.609   7.653
 7022POPC   C1B27751  42.234  13.429   8.553
 7022POPC   C2B27752  42.222  13.409   8.253
 7022POPC   C3B27753  42.274  13.437   7.953
 7022POPC   C4B27754  42.254  13.387   7.653
 7023POPC   NC327755  31.516  26.792   9.453
 7023POPC   PO427756  31.429  26.795   9.153
 7023POPC   GL127757  31.515  26.831   8.853
 7023POPC   GL227758  31.456  26.713   8.853
 7023POPC   C1A27759  31.488  26.865   8.553
 7023POPC   D2A27760  31.478  26.841   8.253
 7023POPC   C3A27761  31.485  26.802   7.953
 7023POPC   C4A27762  31.434  26.830   7.653
 7023POPC   C1B27763  31.432  26.612   8.553
 7023POPC   C2B27764  31.458  26.541   8.253
 7023POPC   C3B27765  31.392  26.534   7.953
 7023POPC   C4B27766  31.400  26.581   7.653
 7024POPC   NC327767  12.055  23.688   9.453
 7024POPC   PO427768  12.046  23.704   9.153
 7024POPC   GL127769  12.100  23.690   8.853
 7024POPC   GL227770  12.133  23.870   8.853
 7024POPC   C1A27771  12.056  23.664   8.553
 7024POPC   D2A27772  12.071  23.712   8.253
 7024POPC   C3A27773  12.095  23.671   7.953
 7024POPC   C4A27774  12.045  23.705   7.653
 7024POPC   C1B27775  12.145  23.967   8.553
 7024POPC   C2B27776  12.135  23.989   8.253
 7024POPC   C3B27777  12.152  23.939   7.953
 7024POPC   C4B27778  12.102  23.950   7.653
 7025POPC   NC327779  40.044  41.547   9.453
 7025POPC   PO427780  39.983  41.561   9.153
 7025POPC   GL127781  39.995  41.559   8.853
 7025POPC   GL227782  39.987  41.441   8.853
 7025POPC   C1A27783  40.034  41.552   8.553
 7025POPC   D2A27784  39.969  41.591   8.253
 7025POPC   C3A27785  40.054  41.606   7.953
 7025POPC   C4A27786  40.032  41.596   7.653
 7025POPC   C1B27787  39.963  41.266   8.553
 7025POPC   C2B27788  39.966  41.262   8.253
 7025POPC   C3B27789  39.952  41.327   7.953
 7025POPC   C4B27790  40.016  41.342   7.653
 7026POPC   NC327791   8.191  37.647   9.453
 7026POPC   PO427792   8.167  37.662   9.153
 7026POPC   GL127793   8.192  37.638   8.853
 7026POPC   GL227794   8.296  37.590   8.853
 7026POPC   C1A27795   8.189  37.655   8.553
 7026POPC   D2A27796   8.206  37.677   8.253
 7026POPC   C3A27797   8.183  37.646   7.953
 7026POPC   C4A27798   8.182  37.651   7.653
 7026POPC   C1B27799   8.319  37.449   8.553
 7026POPC   C2B27800   8.359  37.445   8.253
 7026POPC   C3B27801   8.318  37.467   7.953
 7026POPC   C4B27802   8.328  37.461   7.653
 7027POPC   NC327803   8.193  12.879   9.453
 7027POPC   PO427804   8.151  12.864   9.153
 7027POPC   GL127805   8.230  12.843   8.853
 7027POPC   GL227806   8.285  12.923   8.853
 7027POPC   C1A27807   8.213  12.861   8.553
 7027POPC   D2A27808   8.147  12.901   8.253
 7027POPC   C3A27809   8.228  12.896   7.953
 7027POPC   C4A27810   8.184  12.825   7.653
 7027POPC   C1B27811   8.467  12.949   8.553
 7027POPC   C2B27812   8.463  12.880   8.253
 7027POPC   C3B27813   8.438  12.918   7.953
 7027POPC   C4B27814   8.429  12.949   7.653
 7028POPC   NC327815  15.951  19.858   9.453
 7028POPC   PO427816  15.918  19.813   9.153
 7028POPC   GL127817  15.990  19.809   8.853
 7028POPC   GL227818  15.894  19.989   8.853
 7028POPC   C1A27819  15.917  19.874   8.553
 7028POPC   D2A27820  15.969  19.873   8.253
 7028POPC   C3A27821  15.933  19.823   7.953
 7028POPC   C4A27822  15.971  19.858   7.653
 7028POPC   C1B27823  15.857  20.078   8.553
 7028POPC   C2B27824  15.878  20.111   8.253
 7028POPC   C3B27825  15.849  20.069   7.953
 7028POPC   C4B27826  15.850  20.103   7.653
 7029POPC   NC327827  24.462  42.371   9.453
 7029POPC   PO427828  24.467  42.337   9.153
 7029POPC   GL127829  24.451  42.350   8.853
 7029POPC   GL227830  24.410  42.217   8.853
 7029POPC   C1A27831  24.475  42.376   8.553
 7029POPC   D2A27832  24.479  42.374   8.253
 7029POPC   C3A27833  24.501  42.326   7.953
 7029POPC   C4A27834  24.467  42.295   7.653
 7029POPC   C1B27835  24.367  42.107   8.553
 7029POPC   C2B27836  24.377  42.131   8.253
 7029POPC   C3B27837  24.373  42.113   7.953
 7029POPC   C4B27838  24.353  42.148   7.653
 7030POPC   NC327839  21.423   9.775   9.453
 7030POPC   PO427840  21.341   9.747   9.153
 7030POPC   GL127841  21.378   9.773   8.853
 7030POPC   GL227842  21.383   9.652   8.853
 7030POPC   C1A27843  21.399   9.750   8.553
 7030POPC   D2A27844  21.428   9.775   8.253
 7030POPC   C3A27845  21.363   9.798   7.953
 7030POPC   C4A27846  21.378   9.736   7.653
 7030POPC   C1B27847  21.340   9.451   8.553
 7030POPC   C2B27848  21.321   9.463   8.253
 7030POPC   C3B27849  21.390   9.505   7.953
 7030POPC   C4B27850  21.342   9.495   7.653
 7031POPC   NC327851   1.981   2.807   9.453
 7031POPC   PO427852   1.965   2.749   9.153
 7031POPC   GL127853   1.940   2.767   8.853
 7031POPC   GL227854   1.931   2.631   8.853
 7031POPC   C1A27855   1.978   2.768   8.553
 7031POPC   D2A27856   2.028   2.727   8.253
 7031POPC   C3A27857   1.946   2.792   7.953
 7031POPC   C4A27858   1.942   2.745   7.653
 7031POPC   C1B27859   1.865   2.549   8.553
 7031POPC   C2B27860   1.918   2.492   8.253
 7031POPC   C3B27861   1.894   2.550   7.953
 7031POPC   C4B27862   1.939   2.539   7.653
 7032POPC   NC327863  43.157  23.738   9.453
 7032POPC   PO427864  43.091  23.746   9.153
 7032POPC   GL127865  43.154  23.719   8.853
 7032POPC   GL227866  42.992  23.652   8.853
 7032POPC   C1A27867  43.136  23.735   8.553
 7032POPC   D2A27868  43.130  23.706   8.253
 7032POPC   C3A27869  43.131  23.667   7.953
 7032POPC   C4A27870  43.109  23.677   7.653
 7032POPC   C1B27871  42.917  23.600   8.553
 7032POPC   C2B27872  42.877  23.559   8.253
 7032POPC   C3B27873  42.878  23.546   7.953
 7032POPC   C4B27874  42.896  23.529   7.653
 7033POPC   NC327875   2.017  34.590   9.453
 7033POPC   PO427876   2.039  34.623   9.153
 7033POPC   GL127877   1.970  34.539   8.853
 7033POPC   GL227878   1.957  34.434   8.853
 7033POPC   C1A27879   1.949  34.545   8.553
 7033POPC   D2A27880   1.955  34.563   8.253
 7033POPC   C3A27881   1.995  34.595   7.953
 7033POPC   C4A27882   2.003  34.577   7.653
 7033POPC   C1B27883   1.977  34.342   8.553
 7033POPC   C2B27884   1.993  34.290   8.253
 7033POPC   C3B27885   1.981  34.307   7.953
 7033POPC   C4B27886   1.938  34.353   7.653
 7034POPC   NC327887  15.171  39.195   9.453
 7034POPC   PO427888  15.222  39.198   9.153
 7034POPC   GL127889  15.221  39.234   8.853
 7034POPC   GL227890  15.219  39.308   8.853
 7034POPC   C1A27891  15.192  39.262   8.553
 7034POPC   D2A27892  15.217  39.191   8.253
 7034POPC   C3A27893  15.217  39.253   7.953
 7034POPC   C4A27894  15.150  39.234   7.653
 7034POPC   C1B27895  15.270  39.443   8.553
 7034POPC   C2B27896  15.207  39.454   8.253
 7034POPC   C3B27897  15.247  39.479   7.953
 7034POPC   C4B27898  15.232  39.513   7.653
 7035POPC   NC327899  28.383  16.723   9.453
 7035POPC   PO427900  28.369  16.776   9.153
 7035POPC   GL127901  28.361  16.706   8.853
 7035POPC   GL227902  28.352  16.866   8.853
 7035POPC   C1A27903  28.366  16.685   8.553
 7035POPC   D2A27904  28.325  16.740   8.253
 7035POPC   C3A27905  28.357  16.717   7.953
 7035POPC   C4A27906  28.401  16.755   7.653
 7035POPC   C1B27907  28.267  16.954   8.553
 7035POPC   C2B27908  28.271  16.903   8.253
 7035POPC   C3B27909  28.213  16.978   7.953
 7035POPC   C4B27910  28.275  16.998   7.653
 7036POPC   NC327911  23.731  22.173   9.453
 7036POPC   PO427912  23.754  22.195   9.153
 7036POPC   GL127913  23.703  22.115   8.853
 7036POPC   GL227914  23.569  22.158   8.853
 7036POPC   C1A27915  23.738  22.180   8.553
 7036POPC   D2A27916  23.678  22.208   8.253
 7036POPC   C3A27917  23.722  22.195   7.953
 7036POPC   C4A27918  23.687  22.198   7.653
 7036POPC   C1B27919  23.496  22.187   8.553
 7036POPC   C2B27920  23.466  22.283   8.253
 7036POPC   C3B27921  23.436  22.242   7.953
 7036POPC   C4B27922  23.469  22.281   7.653
 7037POPC   NC327923   9.769  25.280   9.453
 7037POPC   PO427924   9.795  25.270   9.153
 7037POPC   GL127925   9.754  25.290   8.853
 7037POPC   GL227926   9.765  25.397   8.853
 7037POPC   C1A27927   9.779  25.267   8.553
 7037POPC   D2A27928   9.730  25.230   8.253
 7037POPC   C3A27929   9.789  25.285   7.953
 7037POPC   C4A27930   9.707  25.276   7.653
 7037POPC   C1B27931   9.755  25.506   8.553
 7037POPC   C2B27932   9.820  25.486   8.253
 7037POPC   C3B27933   9.811  25.553   7.953
 7037POPC   C4B27934   9.829  25.546   7.653
 7038POPC   NC327935  17.536   3.499   9.453
 7038POPC   PO427936  17.462   3.533   9.153
 7038POPC   GL127937  17.496   3.554   8.853
 7038POPC   GL227938  17.458   3.653   8.853
 7038POPC   C1A27939  17.466   3.526   8.553
 7038POPC   D2A27940  17.476   3.525   8.253
 7038POPC   C3A27941  17.539   3.563   7.953
 7038POPC   C4A27942  17.542   3.538   7.653
 7038POPC   C1B27943  17.367   3.713   8.553
 7038POPC   C2B27944  17.380   3.701   8.253
 7038POPC   C3B27945  17.363   3.716   7.953
 7038POPC   C4B27946  17.365   3.763   7.653
 7039POPC   NC327947   8.995  22.913   9.453
 7039POPC   PO427948   8.924  22.916   9.153
 7039POPC   GL127949   8.972  22.900   8.853
 7039POPC   GL227950   8.956  23.002   8.853
 7039POPC   C1A27951   9.006  22.902   8.553
 7039POPC   D2A27952   9.008  22.963   8.253
 7039POPC   C3A27953   8.969  22.904   7.953
 7039POPC   C4A27954   8.927  22.952   7.653
 7039POPC   C1B27955   8.813  23.199   8.553
 7039POPC   C2B27956   8.839  23.147   8.253
 7039POPC   C3B27957   8.835  23.123   7.953
 7039POPC   C4B27958   8.840  23.180   7.653
 7040POPC   NC327959  19.020   2.790   9.453
 7040POPC   PO427960  19.102   2.742   9.153
 7040POPC   GL127961  19.044   2.794   8.853
 7040POPC   GL227962  18.976   2.875   8.853
 7040POPC   C1A27963  19.067   2.789   8.553
 7040POPC   D2A27964  19.086   2.783   8.253
 7040POPC   C3A27965  19.039   2.792   7.953
 7040POPC   C4A27966  19.029   2.808   7.653
 7040POPC   C1B27967  19.001   2.965   8.553
 7040POPC   C2B27968  18.949   2.960   8.253
 7040POPC   C3B27969  19.017   2.999   7.953
 7040POPC   C4B27970  19.039   3.030   7.653
 7041POPC   NC327971  40.750   0.468   9.453
 7041POPC   PO427972  40.777   0.484   9.153
 7041POPC   GL127973  40.817   0.469   8.853
 7041POPC   GL227974  40.855   0.498   8.853
 7041POPC   C1A27975  40.762   0.461   8.553
 7041POPC   D2A27976  40.765   0.403   8.253
 7041POPC   C3A27977  40.744   0.470   7.953
 7041POPC   C4A27978  40.794   0.429   7.653
 7041POPC   C1B27979  41.050   0.550   8.553
 7041POPC   C2B27980  41.042   0.534   8.253
 7041POPC   C3B27981  41.027   0.583   7.953
 7041POPC   C4B27982  40.975   0.503   7.653
 7042POPC   NC327983  13.580  12.887   9.453
 7042POPC   PO427984  13.613  12.814   9.153
 7042POPC   GL127985  13.579  12.843   8.853
 7042POPC   GL227986  13.544  12.739   8.853
 7042POPC   C1A27987  13.601  12.867   8.553
 7042POPC   D2A27988  13.608  12.843   8.253
 7042POPC   C3A27989  13.593  12.802   7.953
 7042POPC   C4A27990  13.609  12.897   7.653
 7042POPC   C1B27991  13.417  12.637   8.553
 7042POPC   C2B27992  13.424  12.618   8.253
 7042POPC   C3B27993  13.415  12.690   7.953
 7042POPC   C4B27994  13.471  12.706   7.653
 7043POPC   NC327995   8.993  41.586   9.453
 7043POPC   PO427996   8.981  41.595   9.153
 7043POPC   GL127997   8.968  41.597   8.853
 7043POPC   GL227998   9.112  41.587   8.853
 7043POPC   C1A27999   8.940  41.519   8.553
 7043POPC   D2A28000   8.995  41.606   8.253
 7043POPC   C3A28001   8.923  41.512   7.953
 7043POPC   C4A28002   8.974  41.522   7.653
 7043POPC   C1B28003   9.207  41.534   8.553
 7043POPC   C2B28004   9.184  41.539   8.253
 7043POPC   C3B28005   9.214  41.527   7.953
 7043POPC   C4B28006   9.177  41.525   7.653
 7044POPC   NC328007  22.916  17.541   9.453
 7044POPC   PO428008  22.956  17.535   9.153
 7044POPC   GL128009  22.905  17.553   8.853
 7044POPC   GL228010  22.926  17.399   8.853
 7044POPC   C1A28011  22.965  17.508   8.553
 7044POPC   D2A28012  22.921  17.541   8.253
 7044POPC   C3A28013  22.934  17.463   7.953
 7044POPC   C4A28014  22.940  17.495   7.653
 7044POPC   C1B28015  23.021  17.246   8.553
 7044POPC   C2B28016  22.976  17.237   8.253
 7044POPC   C3B28017  23.013  17.262   7.953
 7044POPC   C4B28018  22.954  17.243   7.653
 7045POPC   NC328019  12.123  22.156   9.453
 7045POPC   PO428020  12.120  22.140   9.153
 7045POPC   GL128021  12.115  22.116   8.853
 7045POPC   GL228022  12.167  22.144   8.853
 7045POPC   C1A28023  12.071  22.123   8.553
 7045POPC   D2A28024  12.082  22.153   8.253
 7045POPC   C3A28025  12.051  22.161   7.953
 7045POPC   C4A28026  12.112  22.149   7.653
 7045POPC   C1B28027  12.248  22.006   8.553
 7045POPC   C2B28028  12.290  22.052   8.253
 7045POPC   C3B28029  12.335  21.993   7.953
 7045POPC   C4B28030  12.252  22.013   7.653
 7046POPC   NC328031   0.421  37.685   9.453
 7046POPC   PO428032   0.469  37.687   9.153
 7046POPC   GL128033   0.469  37.666   8.853
 7046POPC   GL228034   0.568  37.597   8.853
 7046POPC   C1A28035   0.458  37.633   8.553
 7046POPC   D2A28036   0.389  37.643   8.253
 7046POPC   C3A28037   0.440  37.638   7.953
 7046POPC   C4A28038   0.418  37.724   7.653
 7046POPC   C1B28039   0.704  37.573   8.553
 7046POPC   C2B28040   0.723  37.627   8.253
 7046POPC   C3B28041   0.718  37.618   7.953
 7046POPC   C4B28042   0.702  37.611   7.653
 7047POPC   NC328043  36.902  24.471   9.453
 7047POPC   PO428044  36.877  24.480   9.153
 7047POPC   GL128045  36.858  24.479   8.853
 7047POPC   GL228046  36.978  24.345   8.853
 7047POPC   C1A28047  36.893  24.440   8.553
 7047POPC   D2A28048  36.869  24.446   8.253
 7047POPC   C3A28049  36.892  24.503   7.953
 7047POPC   C4A28050  36.879  24.469   7.653
 7047POPC   C1B28051  37.090  24.320   8.553
 7047POPC   C2B28052  37.020  24.261   8.253
 7047POPC   C3B28053  37.060  24.294   7.953
 7047POPC   C4B28054  37.030  24.331   7.653
 7048POPC   NC328055  36.136  27.591   9.453
 7048POPC   PO428056  36.157  27.572   9.153
 7048POPC   GL128057  36.175  27.558   8.853
 7048POPC   GL228058  36.111  27.468   8.853
 7048POPC   C1A28059  36.172  27.630   8.553
 7048POPC   D2A28060  36.111  27.543   8.253
 7048POPC   C3A28061  36.081  27.589   7.953
 7048POPC   C4A28062  36.086  27.636   7.653
 7048POPC   C1B28063  36.202  27.299   8.553
 7048POPC   C2B28064  36.174  27.386   8.253
 7048POPC   C3B28065  36.136  27.300   7.953
 7048POPC   C4B28066  36.175  27.300   7.653
 7049POPC   NC328067  27.607  16.721   9.453
 7049POPC   PO428068  27.599  16.683   9.153
 7049POPC   GL128069  27.595  16.765   8.853
 7049POPC   GL228070  27.618  16.892   8.853
 7049POPC   C1A28071  27.639  16.690   8.553
 7049POPC   D2A28072  27.640  16.688   8.253
 7049POPC   C3A28073  27.638  16.697   7.953
 7049POPC   C4A28074  27.577  16.755   7.653
 7049POPC   C1B28075  27.540  16.932   8.553
 7049POPC   C2B28076  27.604  16.983   8.253
 7049POPC   C3B28077  27.579  16.974   7.953
 7049POPC   C4B28078  27.534  16.987   7.653
 7050POPC   NC328079   2.011   2.039   9.453
 7050POPC   PO428080   2.016   1.942   9.153
 7050POPC   GL128081   2.026   2.014   8.853
 7050POPC   GL228082   1.892   2.002   8.853
 7050POPC   C1A28083   2.040   2.004   8.553
 7050POPC   D2A28084   2.012   1.983   8.253
 7050POPC   C3A28085   2.008   1.941   7.953
 7050POPC   C4A28086   2.028   1.980   7.653
 7050POPC   C1B28087   1.710   1.974   8.553
 7050POPC   C2B28088   1.777   1.997   8.253
 7050POPC   C3B28089   1.709   2.000   7.953
 7050POPC   C4B28090   1.789   1.967   7.653
 7051POPC   NC328091  39.220  22.144   9.453
 7051POPC   PO428092  39.216  22.154   9.153
 7051POPC   GL128093  39.217  22.196   8.853
 7051POPC   GL228094  39.345  22.222   8.853
 7051POPC   C1A28095  39.210  22.126   8.553
 7051POPC   D2A28096  39.185  22.162   8.253
 7051POPC   C3A28097  39.251  22.202   7.953
 7051POPC   C4A28098  39.274  22.158   7.653
 7051POPC   C1B28099  39.414  22.278   8.553
 7051POPC   C2B28100  39.493  22.208   8.253
 7051POPC   C3B28101  39.425  22.248   7.953
 7051POPC   C4B28102  39.474  22.220   7.653
 7052POPC   NC328103  24.497  26.788   9.453
 7052POPC   PO428104  24.445  26.818   9.153
 7052POPC   GL128105  24.453  26.799   8.853
 7052POPC   GL228106  24.405  26.943   8.853
 7052POPC   C1A28107  24.455  26.773   8.553
 7052POPC   D2A28108  24.447  26.815   8.253
 7052POPC   C3A28109  24.441  26.835   7.953
 7052POPC   C4A28110  24.516  26.836   7.653
 7052POPC   C1B28111  24.412  27.041   8.553
 7052POPC   C2B28112  24.390  27.090   8.253
 7052POPC   C3B28113  24.357  27.027   7.953
 7052POPC   C4B28114  24.344  27.026   7.653
 7053POPC   NC328115  17.482  34.581   9.453
 7053POPC   PO428116  17.503  34.595   9.153
 7053POPC   GL128117  17.460  34.571   8.853
 7053POPC   GL228118  17.662  34.546   8.853
 7053POPC   C1A28119  17.467  34.536   8.553
 7053POPC   D2A28120  17.500  34.625   8.253
 7053POPC   C3A28121  17.493  34.589   7.953
 7053POPC   C4A28122  17.477  34.612   7.653
 7053POPC   C1B28123  17.717  34.573   8.553
 7053POPC   C2B28124  17.792  34.548   8.253
 7053POPC   C3B28125  17.728  34.591   7.953
 7053POPC   C4B28126  17.762  34.552   7.653
 7054POPC   NC328127  25.299  42.294   9.453
 7054POPC   PO428128  25.244  42.363   9.153
 7054POPC   GL128129  25.273  42.288   8.853
 7054POPC   GL228130  25.182  42.303   8.853
 7054POPC   C1A28131  25.272  42.382   8.553
 7054POPC   D2A28132  25.296  42.320   8.253
 7054POPC   C3A28133  25.253  42.332   7.953
 7054POPC   C4A28134  25.291  42.326   7.653
 7054POPC   C1B28135  25.038  42.274   8.553
 7054POPC   C2B28136  25.054  42.326   8.253
 7054POPC   C3B28137  24.995  42.316   7.953
 7054POPC   C4B28138  24.990  42.323   7.653
 7055POPC   NC328139  19.047   0.399   9.453
 7055POPC   PO428140  19.035   0.438   9.153
 7055POPC   GL128141  19.103   0.458   8.853
 7055POPC   GL228142  19.175   0.389   8.853
 7055POPC   C1A28143  19.077   0.471   8.553
 7055POPC   D2A28144  19.020   0.478   8.253
 7055POPC   C3A28145  19.085   0.471   7.953
 7055POPC   C4A28146  19.102   0.470   7.653
 7055POPC   C1B28147  19.324   0.285   8.553
 7055POPC   C2B28148  19.264   0.338   8.253
 7055POPC   C3B28149  19.297   0.352   7.953
 7055POPC   C4B28150  19.242   0.298   7.653
 7056POPC   NC328151  17.457  36.112   9.453
 7056POPC   PO428152  17.542  36.130   9.153
 7056POPC   GL128153  17.514  36.116   8.853
 7056POPC   GL228154  17.465  36.268   8.853
 7056POPC   C1A28155  17.506  36.095   8.553
 7056POPC   D2A28156  17.526  36.106   8.253
 7056POPC   C3A28157  17.542  36.117   7.953
 7056POPC   C4A28158  17.534  36.085   7.653
 7056POPC   C1B28159  17.407  36.323   8.553
 7056POPC   C2B28160  17.378  36.349   8.253
 7056POPC   C3B28161  17.367  36.372   7.953
 7056POPC   C4B28162  17.446  36.361   7.653
 7057POPC   NC328163  22.922   8.939   9.453
 7057POPC   PO428164  22.972   8.939   9.153
 7057POPC   GL128165  22.895   9.000   8.853
 7057POPC   GL228166  22.784   8.905   8.853
 7057POPC   C1A28167  22.894   8.966   8.553
 7057POPC   D2A28168  22.970   8.996   8.253
 7057POPC   C3A28169  22.971   8.933   7.953
 7057POPC   C4A28170  22.955   9.007   7.653
 7057POPC   C1B28171  22.675   8.871   8.553
 7057POPC   C2B28172  22.745   8.840   8.253
 7057POPC   C3B28173  22.701   8.913   7.953
 7057POPC   C4B28174  22.682   8.885   7.653
 7058POPC   NC328175  15.957  15.982   9.453
 7058POPC   PO428176  15.965  15.947   9.153
 7058POPC   GL128177  15.934  15.907   8.853
 7058POPC   GL228178  15.944  15.837   8.853
 7058POPC   C1A28179  15.997  15.992   8.553
 7058POPC   D2A28180  16.005  15.920   8.253
 7058POPC   C3A28181  15.940  15.951   7.953
 7058POPC   C4A28182  15.914  15.995   7.653
 7058POPC   C1B28183  15.994  15.722   8.553
 7058POPC   C2B28184  15.945  15.678   8.253
 7058POPC   C3B28185  16.013  15.664   7.953
 7058POPC   C4B28186  15.928  15.748   7.653
 7059POPC   NC328187  19.880  21.361   9.453
 7059POPC   PO428188  19.816  21.420   9.153
 7059POPC   GL128189  19.877  21.390   8.853
 7059POPC   GL228190  19.771  21.461   8.853
 7059POPC   C1A28191  19.880  21.384   8.553
 7059POPC   D2A28192  19.857  21.362   8.253
 7059POPC   C3A28193  19.825  21.422   7.953
 7059POPC   C4A28194  19.786  21.351   7.653
 7059POPC   C1B28195  19.629  21.542   8.553
 7059POPC   C2B28196  19.642  21.487   8.253
 7059POPC   C3B28197  19.676  21.581   7.953
 7059POPC   C4B28198  19.627  21.486   7.653
 7060POPC   NC328199  43.852  21.415   9.453
 7060POPC   PO428200  43.893  21.383   9.153
 7060POPC   GL128201  43.847  21.422   8.853
 7060POPC   GL228202  44.003  21.444   8.853
 7060POPC   C1A28203  43.869  21.409   8.553
 7060POPC   D2A28204  43.901  21.381   8.253
 7060POPC   C3A28205  43.855  21.363   7.953
 7060POPC   C4A28206  43.850  21.343   7.653
 7060POPC   C1B28207  44.106  21.513   8.553
 7060POPC   C2B28208  44.062  21.534   8.253
 7060POPC   C3B28209  44.144  21.469   7.953
 7060POPC   C4B28210  44.084  21.495   7.653
 7061POPC   NC328211  43.159  33.751   9.453
 7061POPC   PO428212  43.114  33.809   9.153
 7061POPC   GL128213  43.093  33.848   8.853
 7061POPC   GL228214  43.253  33.766   8.853
 7061POPC   C1A28215  43.118  33.765   8.553
 7061POPC   D2A28216  43.073  33.760   8.253
 7061POPC   C3A28217  43.120  33.844   7.953
 7061POPC   C4A28218  43.155  33.808   7.653
 7061POPC   C1B28219  43.400  33.765   8.553
 7061POPC   C2B28220  43.337  33.754   8.253
 7061POPC   C3B28221  43.337  33.762   7.953
 7061POPC   C4B28222  43.367  33.721   7.653
 7062POPC   NC328223  27.557  20.621   9.453
 7062POPC   PO428224  27.599  20.596   9.153
 7062POPC   GL128225  27.602  20.579   8.853
 7062POPC   GL228226  27.548  20.754   8.853
 7062POPC   C1A28227  27.586  20.588   8.553
 7062POPC   D2A28228  27.605  20.573   8.253
 7062POPC   C3A28229  27.599  20.643   7.953
 7062POPC   C4A28230  27.627  20.620   7.653
 7062POPC   C1B28231  27.515  20.828   8.553
 7062POPC   C2B28232  27.572  20.812   8.253
 7062POPC   C3B28233  27.506  20.862   7.953
 7062POPC   C4B28234  27.577  20.896   7.653
 7063POPC   NC328235  31.520  34.604   9.453
 7063POPC   PO428236  31.517  34.567   9.153
 7063POPC   GL128237  31.423  34.623   8.853
 7063POPC   GL228238  31.389  34.617   8.853
 7063POPC   C1A28239  31.499  34.585   8.553
 7063POPC   D2A28240  31.494  34.575   8.253
 7063POPC   C3A28241  31.499  34.563   7.953
 7063POPC   C4A28242  31.480  34.544   7.653
 7063POPC   C1B28243  31.238  34.651   8.553
 7063POPC   C2B28244  31.190  34.635   8.253
 7063POPC   C3B28245  31.220  34.645   7.953
 7063POPC   C4B28246  31.195  34.639   7.653
 7064POPC   NC328247   4.327  12.106   9.453
 7064POPC   PO428248   4.303  12.118   9.153
 7064POPC   GL128249   4.318  12.060   8.853
 7064POPC   GL228250   4.267  12.184   8.853
 7064POPC   C1A28251   4.350  12.081   8.553
 7064POPC   D2A28252   4.343  12.109   8.253
 7064POPC   C3A28253   4.362  12.085   7.953
 7064POPC   C4A28254   4.313  12.047   7.653
 7064POPC   C1B28255   4.319  12.369   8.553
 7064POPC   C2B28256   4.273  12.319   8.253
 7064POPC   C3B28257   4.338  12.330   7.953
 7064POPC   C4B28258   4.258  12.373   7.653
 7065POPC   NC328259  27.569  37.652   9.453
 7065POPC   PO428260  27.562  37.668   9.153
 7065POPC   GL128261  27.620  37.654   8.853
 7065POPC   GL228262  27.646  37.611   8.853
 7065POPC   C1A28263  27.616  37.644   8.553
 7065POPC   D2A28264  27.630  37.706   8.253
 7065POPC   C3A28265  27.615  37.689   7.953
 7065POPC   C4A28266  27.599  37.690   7.653
 7065POPC   C1B28267  27.742  37.474   8.553
 7065POPC   C2B28268  27.762  37.507   8.253
 7065POPC   C3B28269  27.680  37.432   7.953
 7065POPC   C4B28270  27.700  37.437   7.653
 7066POPC   NC328271  12.890   7.448   9.453
 7066POPC   PO428272  12.808   7.434   9.153
 7066POPC   GL128273  12.871   7.383   8.853
 7066POPC   GL228274  12.892   7.564   8.853
 7066POPC   C1A28275  12.822   7.434   8.553
 7066POPC   D2A28276  12.806   7.435   8.253
 7066POPC   C3A28277  12.889   7.408   7.953
 7066POPC   C4A28278  12.833   7.406   7.653
 7066POPC   C1B28279  12.978   7.669   8.553
 7066POPC   C2B28280  12.996   7.618   8.253
 7066POPC   C3B28281  12.991   7.618   7.953
 7066POPC   C4B28282  12.961   7.595   7.653
 7067POPC   NC328283   8.161  15.936   9.453
 7067POPC   PO428284   8.239  15.942   9.153
 7067POPC   GL128285   8.226  16.005   8.853
 7067POPC   GL228286   8.297  15.920   8.853
 7067POPC   C1A28287   8.234  15.949   8.553
 7067POPC   D2A28288   8.185  15.930   8.253
 7067POPC   C3A28289   8.189  15.992   7.953
 7067POPC   C4A28290   8.244  15.976   7.653
 7067POPC   C1B28291   8.383  15.830   8.553
 7067POPC   C2B28292   8.376  15.878   8.253
 7067POPC   C3B28293   8.453  15.826   7.953
 7067POPC   C4B28294   8.366  15.869   7.653
 7068POPC   NC328295  21.339   1.180   9.453
 7068POPC   PO428296  21.393   1.225   9.153
 7068POPC   GL128297  21.433   1.244   8.853
 7068POPC   GL228298  21.472   1.229   8.853
 7068POPC   C1A28299  21.398   1.206   8.553
 7068POPC   D2A28300  21.377   1.207   8.253
 7068POPC   C3A28301  21.365   1.231   7.953
 7068POPC   C4A28302  21.419   1.171   7.653
 7068POPC   C1B28303  21.656   1.114   8.553
 7068POPC   C2B28304  21.647   1.190   8.253
 7068POPC   C3B28305  21.643   1.155   7.953
 7068POPC   C4B28306  21.612   1.112   7.653
 7069POPC   NC328307   2.716  36.889   9.453
 7069POPC   PO428308   2.749  36.868   9.153
 7069POPC   GL128309   2.747  36.899   8.853
 7069POPC   GL228310   2.732  36.748   8.853
 7069POPC   C1A28311   2.726  36.944   8.553
 7069POPC   D2A28312   2.746  36.953   8.253
 7069POPC   C3A28313   2.726  36.927   7.953
 7069POPC   C4A28314   2.739  36.870   7.653
 7069POPC   C1B28315   2.760  36.659   8.553
 7069POPC   C2B28316   2.707  36.686   8.253
 7069POPC   C3B28317   2.735  36.697   7.953
 7069POPC   C4B28318   2.720  36.666   7.653
 7070POPC   NC328319  14.429   7.463   9.453
 7070POPC   PO428320  14.405   7.378   9.153
 7070POPC   GL128321  14.391   7.469   8.853
 7070POPC   GL228322  14.294   7.405   8.853
 7070POPC   C1A28323  14.371   7.461   8.553
 7070POPC   D2A28324  14.422   7.375   8.253
 7070POPC   C3A28325  14.432   7.447   7.953
 7070POPC   C4A28326  14.404   7.449   7.653
 7070POPC   C1B28327  14.207   7.384   8.553
 7070POPC   C2B28328  14.152   7.354   8.253
 7070POPC   C3B28329  14.155   7.359   7.953
 7070POPC   C4B28330  14.199   7.386   7.653
 7071POPC   NC328331  37.689  39.989   9.453
 7071POPC   PO428332  37.726  40.016   9.153
 7071POPC   GL128333  37.643  40.033   8.853
 7071POPC   GL228334  37.784  40.070   8.853
 7071POPC   C1A28335  37.665  40.011   8.553
 7071POPC   D2A28336  37.708  40.013   8.253
 7071POPC   C3A28337  37.712  40.043   7.953
 7071POPC   C4A28338  37.708  40.029   7.653
 7071POPC   C1B28339  37.890  40.140   8.553
 7071POPC   C2B28340  37.881  40.144   8.253
 7071POPC   C3B28341  37.876  40.184   7.953
 7071POPC   C4B28342  37.828  40.216   7.653
 7072POPC   NC328343  11.281  12.843   9.453
 7072POPC   PO428344  11.273  12.861   9.153
 7072POPC   GL128345  11.345  12.813   8.853
 7072POPC   GL228346  11.234  12.759   8.853
 7072POPC   C1A28347  11.339  12.831   8.553
 7072POPC   D2A28348  11.279  12.859   8.253
 7072POPC   C3A28349  11.344  12.872   7.953
 7072POPC   C4A28350  11.333  12.804   7.653
 7072POPC   C1B28351  11.148  12.610   8.553
 7072POPC   C2B28352  11.196  12.614   8.253
 7072POPC   C3B28353  11.120  12.681   7.953
 7072POPC   C4B28354  11.119  12.684   7.653
 7073POPC   NC328355   6.602  15.151   9.453
 7073POPC   PO428356   6.633  15.226   9.153
 7073POPC   GL128357   6.686  15.195   8.853
 7073POPC   GL228358   6.621  15.010   8.853
 7073POPC   C1A28359   6.637  15.146   8.553
 7073POPC   D2A28360   6.632  15.151   8.253
 7073POPC   C3A28361   6.650  15.215   7.953
 7073POPC   C4A28362   6.674  15.155   7.653
 7073POPC   C1B28363   6.726  14.945   8.553
 7073POPC   C2B28364   6.681  14.952   8.253
 7073POPC   C3B28365   6.657  14.941   7.953
 7073POPC   C4B28366   6.640  14.968   7.653
 7074POPC   NC328367  28.418  26.043   9.453
 7074POPC   PO428368  28.338  26.035   9.153
 7074POPC   GL128369  28.333  26.087   8.853
 7074POPC   GL228370  28.286  25.947   8.853
 7074POPC   C1A28371  28.334  26.011   8.553
 7074POPC   D2A28372  28.357  26.007   8.253
 7074POPC   C3A28373  28.408  26.025   7.953
 7074POPC   C4A28374  28.367  26.062   7.653
 7074POPC   C1B28375  28.248  25.790   8.553
 7074POPC   C2B28376  28.250  25.814   8.253
 7074POPC   C3B28377  28.315  25.852   7.953
 7074POPC   C4B28378  28.286  25.855   7.653
 7075POPC   NC328379  21.425  21.425   9.453
 7075POPC   PO428380  21.432  21.354   9.153
 7075POPC   GL128381  21.419  21.355   8.853
 7075POPC   GL228382  21.552  21.312   8.853
 7075POPC   C1A28383  21.349  21.398   8.553
 7075POPC   D2A28384  21.373  21.366   8.253
 7075POPC   C3A28385  21.392  21.355   7.953
 7075POPC   C4A28386  21.401  21.340   7.653
 7075POPC   C1B28387  21.598  21.303   8.553
 7075POPC   C2B28388  21.602  21.297   8.253
 7075POPC   C3B28389  21.635  21.310   7.953
 7075POPC   C4B28390  21.611  21.257   7.653
 7076POPC   NC328391  36.100  26.779   9.453
 7076POPC   PO428392  36.163  26.799   9.153
 7076POPC   GL128393  36.111  26.813   8.853
 7076POPC   GL228394  36.247  26.898   8.853
 7076POPC   C1A28395  36.153  26.836   8.553
 7076POPC   D2A28396  36.105  26.846   8.253
 7076POPC   C3A28397  36.114  26.854   7.953
 7076POPC   C4A28398  36.118  26.845   7.653
 7076POPC   C1B28399  36.343  26.988   8.553
 7076POPC   C2B28400  36.256  26.981   8.253
 7076POPC   C3B28401  36.340  26.973   7.953
 7076POPC   C4B28402  36.313  27.012   7.653
 7077POPC   NC328403  31.446  26.058   9.453
 7077POPC   PO428404  31.458  26.040   9.153
 7077POPC   GL128405  31.455  26.071   8.853
 7077POPC   GL228406  31.579  26.034   8.853
 7077POPC   C1A28407  31.432  26.048   8.553
 7077POPC   D2A28408  31.427  26.037   8.253
 7077POPC   C3A28409  31.510  26.027   7.953
 7077POPC   C4A28410  31.463  26.036   7.653
 7077POPC   C1B28411  31.738  25.982   8.553
 7077POPC   C2B28412  31.683  26.040   8.253
 7077POPC   C3B28413  31.767  26.023   7.953
 7077POPC   C4B28414  31.755  26.015   7.653
 7078POPC   NC328415  12.103   9.775   9.453
 7078POPC   PO428416  12.118   9.775   9.153
 7078POPC   GL128417  12.054   9.776   8.853
 7078POPC   GL228418  11.934   9.744   8.853
 7078POPC   C1A28419  12.039   9.771   8.553
 7078POPC   D2A28420  12.095   9.710   8.253
 7078POPC   C3A28421  12.027   9.726   7.953
 7078POPC   C4A28422  12.062   9.787   7.653
 7078POPC   C1B28423  11.799   9.715   8.553
 7078POPC   C2B28424  11.852   9.714   8.253
 7078POPC   C3B28425  11.800   9.688   7.953
 7078POPC   C4B28426  11.809   9.707   7.653
 7079POPC   NC328427  10.486  14.360   9.453
 7079POPC   PO428428  10.484  14.378   9.153
 7079POPC   GL128429  10.515  14.356   8.853
 7079POPC   GL228430  10.414  14.547   8.853
 7079POPC   C1A28431  10.506  14.393   8.553
 7079POPC   D2A28432  10.557  14.398   8.253
 7079POPC   C3A28433  10.539  14.416   7.953
 7079POPC   C4A28434  10.493  14.428   7.653
 7079POPC   C1B28435  10.403  14.634   8.553
 7079POPC   C2B28436  10.332  14.558   8.253
 7079POPC   C3B28437  10.398  14.592   7.953
 7079POPC   C4B28438  10.331  14.645   7.653
 7080POPC   NC328439  31.453   1.168   9.453
 7080POPC   PO428440  31.432   1.177   9.153
 7080POPC   GL128441  31.455   1.176   8.853
 7080POPC   GL228442  31.467   1.140   8.853
 7080POPC   C1A28443  31.423   1.256   8.553
 7080POPC   D2A28444  31.487   1.167   8.253
 7080POPC   C3A28445  31.519   1.258   7.953
 7080POPC   C4A28446  31.490   1.232   7.653
 7080POPC   C1B28447  31.447   1.012   8.553
 7080POPC   C2B28448  31.435   1.006   8.253
 7080POPC   C3B28449  31.382   0.972   7.953
 7080POPC   C4B28450  31.450   0.968   7.653
 7081POPC   NC328451  36.920  33.795   9.453
 7081POPC   PO428452  36.875  33.776   9.153
 7081POPC   GL128453  36.919  33.804   8.853
 7081POPC   GL228454  37.066  33.841   8.853
 7081POPC   C1A28455  36.896  33.774   8.553
 7081POPC   D2A28456  36.941  33.778   8.253
 7081POPC   C3A28457  36.953  33.818   7.953
 7081POPC   C4A28458  36.856  33.771   7.653
 7081POPC   C1B28459  37.149  33.858   8.553
 7081POPC   C2B28460  37.089  33.927   8.253
 7081POPC   C3B28461  37.172  33.930   7.953
 7081POPC   C4B28462  37.170  33.946   7.653
 7082POPC   NC328463  43.879  24.473   9.453
 7082POPC   PO428464  43.847  24.491   9.153
 7082POPC   GL128465  43.858  24.462   8.853
 7082POPC   GL228466  43.934  24.626   8.853
 7082POPC   C1A28467  43.853  24.451   8.553
 7082POPC   D2A28468  43.887  24.492   8.253
 7082POPC   C3A28469  43.922  24.449   7.953
 7082POPC   C4A28470  43.862  24.514   7.653
 7082POPC   C1B28471  44.023  24.673   8.553
 7082POPC   C2B28472  44.005  24.730   8.253
 7082POPC   C3B28473  44.066  24.650   7.953
 7082POPC   C4B28474  44.037  24.650   7.653
 7083POPC   NC328475   5.867  10.517   9.453
 7083POPC   PO428476   5.840  10.564   9.153
 7083POPC   GL128477   5.856  10.560   8.853
 7083POPC   GL228478   5.737  10.495   8.853
 7083POPC   C1A28479   5.870  10.484   8.553
 7083POPC   D2A28480   5.839  10.568   8.253
 7083POPC   C3A28481   5.902  10.508   7.953
 7083POPC   C4A28482   5.852  10.563   7.653
 7083POPC   C1B28483   5.626  10.455   8.553
 7083POPC   C2B28484   5.651  10.436   8.253
 7083POPC   C3B28485   5.657  10.414   7.953
 7083POPC   C4B28486   5.613  10.404   7.653
 7084POPC   NC328487  14.360  20.570   9.453
 7084POPC   PO428488  14.438  20.621   9.153
 7084POPC   GL128489  14.369  20.593   8.853
 7084POPC   GL228490  14.456  20.561   8.853
 7084POPC   C1A28491  14.404  20.565   8.553
 7084POPC   D2A28492  14.367  20.622   8.253
 7084POPC   C3A28493  14.391  20.580   7.953
 7084POPC   C4A28494  14.453  20.622   7.653
 7084POPC   C1B28495  14.528  20.416   8.553
 7084POPC   C2B28496  14.571  20.396   8.253
 7084POPC   C3B28497  14.565  20.443   7.953
 7084POPC   C4B28498  14.600  20.432   7.653
 7085POPC   NC328499  29.926  44.625   9.453
 7085POPC   PO428500  29.943  44.647   9.153
 7085POPC   GL128501  29.909  44.690   8.853
 7085POPC   GL228502  29.910  44.802   8.853
 7085POPC   C1A28503  29.936  44.643   8.553
 7085POPC   D2A28504  29.919  44.688   8.253
 7085POPC   C3A28505  29.953  44.687   7.953
 7085POPC   C4A28506  29.889  44.709   7.653
 7085POPC   C1B28507  29.881  44.884   8.553
 7085POPC   C2B28508  29.827  44.900   8.253
 7085POPC   C3B28509  29.895  44.895   7.953
 7085POPC   C4B28510  29.841  44.870   7.653
 7086POPC   NC328511  20.640  29.172   9.453
 7086POPC   PO428512  20.639  29.096   9.153
 7086POPC   GL128513  20.592  29.167   8.853
 7086POPC   GL228514  20.559  29.271   8.853
 7086POPC   C1A28515  20.564  29.167   8.553
 7086POPC   D2A28516  20.584  29.098   8.253
 7086POPC   C3A28517  20.648  29.151   7.953
 7086POPC   C4A28518  20.566  29.099   7.653
 7086POPC   C1B28519  20.565  29.387   8.553
 7086POPC   C2B28520  20.532  29.375   8.253
 7086POPC   C3B28521  20.582  29.370   7.953
 7086POPC   C4B28522  20.537  29.364   7.653
 7087POPC   NC328523   1.201  29.097   9.453
 7087POPC   PO428524   1.233  29.137   9.153
 7087POPC   GL128525   1.209  29.188   8.853
 7087POPC   GL228526   1.206  29.242   8.853
 7087POPC   C1A28527   1.247  29.137   8.553
 7087POPC   D2A28528   1.232  29.105   8.253
 7087POPC   C3A28529   1.257  29.127   7.953
 7087POPC   C4A28530   1.235  29.103   7.653
 7087POPC   C1B28531   1.111  29.373   8.553
 7087POPC   C2B28532   1.140  29.349   8.253
 7087POPC   C3B28533   1.137  29.408   7.953
 7087POPC   C4B28534   1.100  29.346   7.653
 7088POPC   NC328535   4.305  27.615   9.453
 7088POPC   PO428536   4.304  27.611   9.153
 7088POPC   GL128537   4.318  27.588   8.853
 7088POPC   GL228538   4.177  27.612   8.853
 7088POPC   C1A28539   4.348  27.608   8.553
 7088POPC   D2A28540   4.272  27.626   8.253
 7088POPC   C3A28541   4.336  27.619   7.953
 7088POPC   C4A28542   4.306  27.565   7.653
 7088POPC   C1B28543   4.028  27.629   8.553
 7088POPC   C2B28544   4.100  27.635   8.253
 7088POPC   C3B28545   4.031  27.594   7.953
 7088POPC   C4B28546   4.087  27.617   7.653
 7089POPC   NC328547  39.224  18.330   9.453
 7089POPC   PO428548  39.187  18.244   9.153
 7089POPC   GL128549  39.269  18.246   8.853
 7089POPC   GL228550  39.306  18.410   8.853
 7089POPC   C1A28551  39.270  18.319   8.553
 7089POPC   D2A28552  39.237  18.234   8.253
 7089POPC   C3A28553  39.240  18.301   7.953
 7089POPC   C4A28554  39.257  18.241   7.653
 7089POPC   C1B28555  39.348  18.514   8.553
 7089POPC   C2B28556  39.390  18.515   8.253
 7089POPC   C3B28557  39.318  18.456   7.953
 7089POPC   C4B28558  39.358  18.501   7.653
 7090POPC   NC328559  23.689  42.369   9.453
 7090POPC   PO428560  23.665  42.374   9.153
 7090POPC   GL128561  23.682  42.301   8.853
 7090POPC   GL228562  23.552  42.310   8.853
 7090POPC   C1A28563  23.749  42.323   8.553
 7090POPC   D2A28564  23.697  42.359   8.253
 7090POPC   C3A28565  23.700  42.299   7.953
 7090POPC   C4A28566  23.745  42.319   7.653
 7090POPC   C1B28567  23.441  42.340   8.553
 7090POPC   C2B28568  23.477  42.345   8.253
 7090POPC   C3B28569  23.516  42.307   7.953
 7090POPC   C4B28570  23.499  42.339   7.653
 7091POPC   NC328571  22.156  16.756   9.453
 7091POPC   PO428572  22.127  16.695   9.153
 7091POPC   GL128573  22.178  16.737   8.853
 7091POPC   GL228574  22.137  16.845   8.853
 7091POPC   C1A28575  22.121  16.771   8.553
 7091POPC   D2A28576  22.141  16.733   8.253
 7091POPC   C3A28577  22.167  16.696   7.953
 7091POPC   C4A28578  22.208  16.751   7.653
 7091POPC   C1B28579  22.195  16.963   8.553
 7091POPC   C2B28580  22.212  17.017   8.253
 7091POPC   C3B28581  22.170  16.994   7.953
 7091POPC   C4B28582  22.199  16.938   7.653
 7092POPC   NC328583   0.392  27.595   9.453
 7092POPC   PO428584   0.452  27.618   9.153
 7092POPC   GL128585   0.426  27.562   8.853
 7092POPC   GL228586   0.416  27.670   8.853
 7092POPC   C1A28587   0.413  27.594   8.553
 7092POPC   D2A28588   0.413  27.604   8.253
 7092POPC   C3A28589   0.401  27.597   7.953
 7092POPC   C4A28590   0.476  27.550   7.653
 7092POPC   C1B28591   0.304  27.841   8.553
 7092POPC   C2B28592   0.338  27.784   8.253
 7092POPC   C3B28593   0.305  27.804   7.953
 7092POPC   C4B28594   0.337  27.775   7.653
 7093POPC   NC328595  34.605   1.231   9.453
 7093POPC   PO428596  34.600   1.188   9.153
 7093POPC   GL128597  34.572   1.166   8.853
 7093POPC   GL228598  34.708   1.298   8.853
 7093POPC   C1A28599  34.579   1.190   8.553
 7093POPC   D2A28600  34.614   1.180   8.253
 7093POPC   C3A28601  34.530   1.256   7.953
 7093POPC   C4A28602  34.556   1.177   7.653
 7093POPC   C1B28603  34.768   1.279   8.553
 7093POPC   C2B28604  34.779   1.340   8.253
 7093POPC   C3B28605  34.800   1.326   7.953
 7093POPC   C4B28606  34.782   1.342   7.653
 7094POPC   NC328607   9.722  40.045   9.453
 7094POPC   PO428608   9.780  40.025   9.153
 7094POPC   GL128609   9.767  39.998   8.853
 7094POPC   GL228610   9.645  39.997   8.853
 7094POPC   C1A28611   9.771  39.964   8.553
 7094POPC   D2A28612   9.757  39.962   8.253
 7094POPC   C3A28613   9.718  40.015   7.953
 7094POPC   C4A28614   9.772  39.977   7.653
 7094POPC   C1B28615   9.456  39.985   8.553
 7094POPC   C2B28616   9.511  39.978   8.253
 7094POPC   C3B28617   9.512  39.983   7.953
 7094POPC   C4B28618   9.466  39.981   7.653
 7095POPC   NC328619   8.220  43.133   9.453
 7095POPC   PO428620   8.183  43.118   9.153
 7095POPC   GL128621   8.209  43.095   8.853
 7095POPC   GL228622   8.272  43.123   8.853
 7095POPC   C1A28623   8.202  43.062   8.553
 7095POPC   D2A28624   8.216  43.081   8.253
 7095POPC   C3A28625   8.182  43.155   7.953
 7095POPC   C4A28626   8.182  43.111   7.653
 7095POPC   C1B28627   8.456  43.227   8.553
 7095POPC   C2B28628   8.418  43.182   8.253
 7095POPC   C3B28629   8.424  43.181   7.953
 7095POPC   C4B28630   8.403  43.198   7.653
 7096POPC   NC328631   9.745   6.613   9.453
 7096POPC   PO428632   9.771   6.649   9.153
 7096POPC   GL128633   9.779   6.681   8.853
 7096POPC   GL228634   9.701   6.538   8.853
 7096POPC   C1A28635   9.718   6.617   8.553
 7096POPC   D2A28636   9.765   6.648   8.253
 7096POPC   C3A28637   9.709   6.691   7.953
 7096POPC   C4A28638   9.724   6.681   7.653
 7096POPC   C1B28639   9.714   6.362   8.553
 7096POPC   C2B28640   9.704   6.427   8.253
 7096POPC   C3B28641   9.742   6.383   7.953
 7096POPC   C4B28642   9.717   6.436   7.653
 7097POPC   NC328643  33.054  20.564   9.453
 7097POPC   PO428644  33.070  20.590   9.153
 7097POPC   GL128645  33.019  20.581   8.853
 7097POPC   GL228646  33.071  20.505   8.853
 7097POPC   C1A28647  33.021  20.631   8.553
 7097POPC   D2A28648  33.005  20.596   8.253
 7097POPC   C3A28649  33.029  20.633   7.953
 7097POPC   C4A28650  33.055  20.632   7.653
 7097POPC   C1B28651  33.070  20.350   8.553
 7097POPC   C2B28652  33.132  20.403   8.253
 7097POPC   C3B28653  33.137  20.413   7.953
 7097POPC   C4B28654  33.094  20.344   7.653
 7098POPC   NC328655   5.905   4.328   9.453
 7098POPC   PO428656   5.830   4.321   9.153
 7098POPC   GL128657   5.893   4.304   8.853
 7098POPC   GL228658   5.868   4.444   8.853
 7098POPC   C1A28659   5.919   4.276   8.553
 7098POPC   D2A28660   5.914   4.345   8.253
 7098POPC   C3A28661   5.851   4.347   7.953
 7098POPC   C4A28662   5.840   4.282   7.653
 7098POPC   C1B28663   5.858   4.533   8.553
 7098POPC   C2B28664   5.854   4.521   8.253
 7098POPC   C3B28665   5.887   4.585   7.953
 7098POPC   C4B28666   5.852   4.611   7.653
 7099POPC   NC328667  27.558  26.789   9.453
 7099POPC   PO428668  27.565  26.835   9.153
 7099POPC   GL128669  27.553  26.796   8.853
 7099POPC   GL228670  27.547  26.967   8.853
 7099POPC   C1A28671  27.563  26.820   8.553
 7099POPC   D2A28672  27.640  26.810   8.253
 7099POPC   C3A28673  27.603  26.811   7.953
 7099POPC   C4A28674  27.546  26.862   7.653
 7099POPC   C1B28675  27.558  27.027   8.553
 7099POPC   C2B28676  27.566  27.055   8.253
 7099POPC   C3B28677  27.480  27.103   7.953
 7099POPC   C4B28678  27.485  27.023   7.653
 7100POPC   NC328679  13.606  24.467   9.453
 7100POPC   PO428680  13.623  24.452   9.153
 7100POPC   GL128681  13.616  24.530   8.853
 7100POPC   GL228682  13.562  24.378   8.853
 7100POPC   C1A28683  13.611  24.486   8.553
 7100POPC   D2A28684  13.589  24.485   8.253
 7100POPC   C3A28685  13.657  24.476   7.953
 7100POPC   C4A28686  13.600  24.535   7.653
 7100POPC   C1B28687  13.502  24.302   8.553
 7100POPC   C2B28688  13.516  24.235   8.253
 7100POPC   C3B28689  13.464  24.313   7.953
 7100POPC   C4B28690  13.453  24.269   7.653
 7101POPC   NC328691  43.159   3.589   9.453
 7101POPC   PO428692  43.117   3.527   9.153
 7101POPC   GL128693  43.061   3.539   8.853
 7101POPC   GL228694  43.094   3.687   8.853
 7101POPC   C1A28695  43.096   3.555   8.553
 7101POPC   D2A28696  43.093   3.584   8.253
 7101POPC   C3A28697  43.129   3.493   7.953
 7101POPC   C4A28698  43.061   3.524   7.653
 7101POPC   C1B28699  43.159   3.776   8.553
 7101POPC   C2B28700  43.093   3.793   8.253
 7101POPC   C3B28701  43.116   3.793   7.953
 7101POPC   C4B28702  43.118   3.788   7.653
 7102POPC   NC328703  20.595  29.906   9.453
 7102POPC   PO428704  20.636  29.933   9.153
 7102POPC   GL128705  20.566  29.910   8.853
 7102POPC   GL228706  20.686  30.025   8.853
 7102POPC   C1A28707  20.593  29.887   8.553
 7102POPC   D2A28708  20.620  29.960   8.253
 7102POPC   C3A28709  20.613  29.891   7.953
 7102POPC   C4A28710  20.598  29.874   7.653
 7102POPC   C1B28711  20.821  30.086   8.553
 7102POPC   C2B28712  20.804  30.105   8.253
 7102POPC   C3B28713  20.803  30.073   7.953
 7102POPC   C4B28714  20.847  30.035   7.653
 7103POPC   NC328715  17.475  30.745   9.453
 7103POPC   PO428716  17.497  30.713   9.153
 7103POPC   GL128717  17.550  30.717   8.853
 7103POPC   GL228718  17.606  30.710   8.853
 7103POPC   C1A28719  17.476  30.669   8.553
 7103POPC   D2A28720  17.464  30.693   8.253
 7103POPC   C3A28721  17.531  30.675   7.953
 7103POPC   C4A28722  17.505  30.669   7.653
 7103POPC   C1B28723  17.758  30.722   8.553
 7103POPC   C2B28724  17.718  30.793   8.253
 7103POPC   C3B28725  17.761  30.779   7.953
 7103POPC   C4B28726  17.721  30.789   7.653
 7104POPC   NC328727  19.067   4.301   9.453
 7104POPC   PO428728  19.009   4.289   9.153
 7104POPC   GL128729  19.059   4.316   8.853
 7104POPC   GL228730  19.154   4.214   8.853
 7104POPC   C1A28731  19.097   4.326   8.553
 7104POPC   D2A28732  19.088   4.364   8.253
 7104POPC   C3A28733  19.091   4.296   7.953
 7104POPC   C4A28734  19.064   4.357   7.653
 7104POPC   C1B28735  19.250   4.244   8.553
 7104POPC   C2B28736  19.286   4.196   8.253
 7104POPC   C3B28737  19.270   4.161   7.953
 7104POPC   C4B28738  19.247   4.168   7.653
 7105POPC   NC328739   2.750  32.288   9.453
 7105POPC   PO428740   2.733  32.218   9.153
 7105POPC   GL128741   2.800  32.263   8.853
 7105POPC   GL228742   2.644  32.364   8.853
 7105POPC   C1A28743   2.727  32.205   8.553
 7105POPC   D2A28744   2.753  32.277   8.253
 7105POPC   C3A28745   2.732  32.207   7.953
 7105POPC   C4A28746   2.776  32.209   7.653
 7105POPC   C1B28747   2.645  32.423   8.553
 7105POPC   C2B28748   2.623  32.425   8.253
 7105POPC   C3B28749   2.586  32.480   7.953
 7105POPC   C4B28750   2.636  32.435   7.653
 7106POPC   NC328751  28.418  20.636   9.453
 7106POPC   PO428752  28.376  20.611   9.153
 7106POPC   GL128753  28.415  20.628   8.853
 7106POPC   GL228754  28.333  20.548   8.853
 7106POPC   C1A28755  28.339  20.566   8.553
 7106POPC   D2A28756  28.347  20.589   8.253
 7106POPC   C3A28757  28.363  20.627   7.953
 7106POPC   C4A28758  28.391  20.634   7.653
 7106POPC   C1B28759  28.183  20.363   8.553
 7106POPC   C2B28760  28.177  20.458   8.253
 7106POPC   C3B28761  28.251  20.406   7.953
 7106POPC   C4B28762  28.222  20.378   7.653
 7107POPC   NC328763   4.349  39.218   9.453
 7107POPC   PO428764   4.298  39.264   9.153
 7107POPC   GL128765   4.279  39.240   8.853
 7107POPC   GL228766   4.249  39.361   8.853
 7107POPC   C1A28767   4.316  39.184   8.553
 7107POPC   D2A28768   4.290  39.260   8.253
 7107POPC   C3A28769   4.283  39.255   7.953
 7107POPC   C4A28770   4.291  39.215   7.653
 7107POPC   C1B28771   4.167  39.461   8.553
 7107POPC   C2B28772   4.100  39.433   8.253
 7107POPC   C3B28773   4.153  39.402   7.953
 7107POPC   C4B28774   4.191  39.457   7.653
 7108POPC   NC328775  24.445  16.724   9.453
 7108POPC   PO428776  24.445  16.691   9.153
 7108POPC   GL128777  24.468  16.715   8.853
 7108POPC   GL228778  24.540  16.575   8.853
 7108POPC   C1A28779  24.510  16.718   8.553
 7108POPC   D2A28780  24.502  16.687   8.253
 7108POPC   C3A28781  24.513  16.693   7.953
 7108POPC   C4A28782  24.499  16.690   7.653
 7108POPC   C1B28783  24.643  16.528   8.553
 7108POPC   C2B28784  24.627  16.514   8.253
 7108POPC   C3B28785  24.620  16.490   7.953
 7108POPC   C4B28786  24.575  16.546   7.653
 7109POPC   NC328787  14.397   9.755   9.453
 7109POPC   PO428788  14.442   9.790   9.153
 7109POPC   GL128789  14.386   9.726   8.853
 7109POPC   GL228790  14.279   9.799   8.853
 7109POPC   C1A28791  14.385   9.709   8.553
 7109POPC   D2A28792  14.386   9.718   8.253
 7109POPC   C3A28793  14.430   9.743   7.953
 7109POPC   C4A28794  14.378   9.759   7.653
 7109POPC   C1B28795  14.195   9.814   8.553
 7109POPC   C2B28796  14.165   9.802   8.253
 7109POPC   C3B28797  14.137   9.782   7.953
 7109POPC   C4B28798  14.183   9.785   7.653
 7110POPC   NC328799   3.586  40.022   9.453
 7110POPC   PO428800   3.549  40.032   9.153
 7110POPC   GL128801   3.529  40.053   8.853
 7110POPC   GL228802   3.495  40.143   8.853
 7110POPC   C1A28803   3.519  40.020   8.553
 7110POPC   D2A28804   3.513  39.982   8.253
 7110POPC   C3A28805   3.589  39.977   7.953
 7110POPC   C4A28806   3.567  40.050   7.653
 7110POPC   C1B28807   3.410  40.228   8.553
 7110POPC   C2B28808   3.432  40.267   8.253
 7110POPC   C3B28809   3.413  40.233   7.953
 7110POPC   C4B28810   3.406  40.257   7.653
 7111POPC   NC328811  41.526   5.101   9.453
 7111POPC   PO428812  41.603   5.052   9.153
 7111POPC   GL128813  41.543   5.067   8.853
 7111POPC   GL228814  41.637   5.050   8.853
 7111POPC   C1A28815  41.605   5.130   8.553
 7111POPC   D2A28816  41.525   5.044   8.253
 7111POPC   C3A28817  41.533   5.104   7.953
 7111POPC   C4A28818  41.603   5.047   7.653
 7111POPC   C1B28819  41.773   4.953   8.553
 7111POPC   C2B28820  41.805   4.947   8.253
 7111POPC   C3B28821  41.747   4.949   7.953
 7111POPC   C4B28822  41.751   4.915   7.653
 7112POPC   NC328823  24.496  22.125   9.453
 7112POPC   PO428824  24.535  22.166   9.153
 7112POPC   GL128825  24.534  22.163   8.853
 7112POPC   GL228826  24.568  22.126   8.853
 7112POPC   C1A28827  24.539  22.188   8.553
 7112POPC   D2A28828  24.493  22.141   8.253
 7112POPC   C3A28829  24.478  22.186   7.953
 7112POPC   C4A28830  24.533  22.138   7.653
 7112POPC   C1B28831  24.693  22.181   8.553
 7112POPC   C2B28832  24.781  22.109   8.253
 7112POPC   C3B28833  24.739  22.147   7.953
 7112POPC   C4B28834  24.707  22.088   7.653
 7113POPC   NC328835  29.140  13.604   9.453
 7113POPC   PO428836  29.160  13.635   9.153
 7113POPC   GL128837  29.139  13.645   8.853
 7113POPC   GL228838  29.027  13.646   8.853
 7113POPC   C1A28839  29.116  13.645   8.553
 7113POPC   D2A28840  29.161  13.645   8.253
 7113POPC   C3A28841  29.179  13.619   7.953
 7113POPC   C4A28842  29.111  13.608   7.653
 7113POPC   C1B28843  28.953  13.771   8.553
 7113POPC   C2B28844  28.940  13.727   8.253
 7113POPC   C3B28845  28.919  13.785   7.953
 7113POPC   C4B28846  28.907  13.707   7.653
 7114POPC   NC328847  29.970  15.953   9.453
 7114POPC   PO428848  29.893  15.996   9.153
 7114POPC   GL128849  29.899  15.980   8.853
 7114POPC   GL228850  29.790  15.940   8.853
 7114POPC   C1A28851  29.906  15.978   8.553
 7114POPC   D2A28852  29.930  15.939   8.253
 7114POPC   C3A28853  29.873  15.949   7.953
 7114POPC   C4A28854  29.876  15.954   7.653
 7114POPC   C1B28855  29.750  15.845   8.553
 7114POPC   C2B28856  29.673  15.870   8.253
 7114POPC   C3B28857  29.715  15.786   7.953
 7114POPC   C4B28858  29.700  15.807   7.653
 7115POPC   NC328859  38.456  19.792   9.453
 7115POPC   PO428860  38.417  19.844   9.153
 7115POPC   GL128861  38.433  19.824   8.853
 7115POPC   GL228862  38.570  19.929   8.853
 7115POPC   C1A28863  38.466  19.788   8.553
 7115POPC   D2A28864  38.495  19.819   8.253
 7115POPC   C3A28865  38.421  19.813   7.953
 7115POPC   C4A28866  38.427  19.854   7.653
 7115POPC   C1B28867  38.681  19.978   8.553
 7115POPC   C2B28868  38.639  19.992   8.253
 7115POPC   C3B28869  38.685  19.991   7.953
 7115POPC   C4B28870  38.664  19.984   7.653
 7116POPC   NC328871   1.981   5.072   9.453
 7116POPC   PO428872   1.990   5.044   9.153
 7116POPC   GL128873   1.993   5.069   8.853
 7116POPC   GL228874   2.020   5.223   8.853
 7116POPC   C1A28875   2.007   5.077   8.553
 7116POPC   D2A28876   1.947   5.132   8.253
 7116POPC   C3A28877   1.994   5.065   7.953
 7116POPC   C4A28878   2.015   5.108   7.653
 7116POPC   C1B28879   1.983   5.391   8.553
 7116POPC   C2B28880   2.014   5.294   8.253
 7116POPC   C3B28881   1.950   5.353   7.953
 7116POPC   C4B28882   1.948   5.306   7.653
 7117POPC   NC328883  20.622  41.598   9.453
 7117POPC   PO428884  20.612  41.556   9.153
 7117POPC   GL128885  20.577  41.516   8.853
 7117POPC   GL228886  20.675  41.486   8.853
 7117POPC   C1A28887  20.592  41.596   8.553
 7117POPC   D2A28888  20.641  41.532   8.253
 7117POPC   C3A28889  20.656  41.602   7.953
 7117POPC   C4A28890  20.631  41.527   7.653
 7117POPC   C1B28891  20.683  41.346   8.553
 7117POPC   C2B28892  20.758  41.336   8.253
 7117POPC   C3B28893  20.694  41.307   7.953
 7117POPC   C4B28894  20.684  41.333   7.653
 7118POPC   NC328895  15.135  10.529   9.453
 7118POPC   PO428896  15.147  10.486   9.153
 7118POPC   GL128897  15.134  10.563   8.853
 7118POPC   GL228898  15.076  10.610   8.853
 7118POPC   C1A28899  15.181  10.545   8.553
 7118POPC   D2A28900  15.227  10.485   8.253
 7118POPC   C3A28901  15.170  10.493   7.953
 7118POPC   C4A28902  15.150  10.569   7.653
 7118POPC   C1B28903  14.916  10.681   8.553
 7118POPC   C2B28904  14.960  10.643   8.253
 7118POPC   C3B28905  14.937  10.602   7.953
 7118POPC   C4B28906  14.982  10.631   7.653
 7119POPC   NC328907  33.024   3.511   9.453
 7119POPC   PO428908  33.055   3.494   9.153
 7119POPC   GL128909  33.015   3.525   8.853
 7119POPC   GL228910  33.191   3.534   8.853
 7119POPC   C1A28911  33.059   3.581   8.553
 7119POPC   D2A28912  33.031   3.571   8.253
 7119POPC   C3A28913  32.978   3.507   7.953
 7119POPC   C4A28914  33.059   3.522   7.653
 7119POPC   C1B28915  33.262   3.512   8.553
 7119POPC   C2B28916  33.267   3.534   8.253
 7119POPC   C3B28917  33.292   3.505   7.953
 7119POPC   C4B28918  33.303   3.502   7.653
 7120POPC   NC328919  22.914   3.511   9.453
 7120POPC   PO428920  22.982   3.563   9.153
 7120POPC   GL128921  22.960   3.524   8.853
 7120POPC   GL228922  22.999   3.445   8.853
 7120POPC   C1A28923  22.984   3.520   8.553
 7120POPC   D2A28924  22.902   3.567   8.253
 7120POPC   C3A28925  22.934   3.530   7.953
 7120POPC   C4A28926  22.936   3.556   7.653
 7120POPC   C1B28927  23.049   3.351   8.553
 7120POPC   C2B28928  23.051   3.313   8.253
 7120POPC   C3B28929  23.100   3.350   7.953
 7120POPC   C4B28930  23.096   3.296   7.653
 7121POPC   NC328931   9.719   5.881   9.453
 7121POPC   PO428932   9.798   5.900   9.153
 7121POPC   GL128933   9.742   5.886   8.853
 7121POPC   GL228934   9.824   5.792   8.853
 7121POPC   C1A28935   9.775   5.848   8.553
 7121POPC   D2A28936   9.795   5.825   8.253
 7121POPC   C3A28937   9.751   5.870   7.953
 7121POPC   C4A28938   9.773   5.826   7.653
 7121POPC   C1B28939  10.003   5.764   8.553
 7121POPC   C2B28940  10.033   5.775   8.253
 7121POPC   C3B28941   9.943   5.828   7.953
 7121POPC   C4B28942   9.997   5.817   7.653
 7122POPC   NC328943  13.657  40.766   9.453
 7122POPC   PO428944  13.617  40.828   9.153
 7122POPC   GL128945  13.624  40.758   8.853
 7122POPC   GL228946  13.542  40.810   8.853
 7122POPC   C1A28947  13.582  40.826   8.553
 7122POPC   D2A28948  13.615  40.796   8.253
 7122POPC   C3A28949  13.594  40.832   7.953
 7122POPC   C4A28950  13.669  40.811   7.653
 7122POPC   C1B28951  13.359  40.909   8.553
 7122POPC   C2B28952  13.425  40.865   8.253
 7122POPC   C3B28953  13.361  40.847   7.953
 7122POPC   C4B28954  13.441  40.885   7.653
 7123POPC   NC328955  31.464   3.554   9.453
 7123POPC   PO428956  31.485   3.579   9.153
 7123POPC   GL128957  31.446   3.536   8.853
 7123POPC   GL228958  31.534   3.663   8.853
 7123POPC   C1A28959  31.481   3.504   8.553
 7123POPC   D2A28960  31.451   3.572   8.253
 7123POPC   C3A28961  31.502   3.509   7.953
 7123POPC   C4A28962  31.431   3.586   7.653
 7123POPC   C1B28963  31.678   3.775   8.553
 7123POPC   C2B28964  31.654   3.729   8.253
 7123POPC   C3B28965  31.607   3.686   7.953
 7123POPC   C4B28966  31.658   3.779   7.653
 7124POPC   NC328967   2.810  15.923   9.453
 7124POPC   PO428968   2.729  15.950   9.153
 7124POPC   GL128969   2.718  15.975   8.853
 7124POPC   GL228970   2.795  15.794   8.853
 7124POPC   C1A28971   2.803  15.959   8.553
 7124POPC   D2A28972   2.790  15.977   8.253
 7124POPC   C3A28973   2.775  15.994   7.953
 7124POPC   C4A28974   2.725  15.998   7.653
 7124POPC   C1B28975   2.786  15.683   8.553
 7124POPC   C2B28976   2.856  15.748   8.253
 7124POPC   C3B28977   2.824  15.732   7.953
 7124POPC   C4B28978   2.848  15.668   7.653
 7125POPC   NC328979  22.888  42.367   9.453
 7125POPC   PO428980  22.909  42.384   9.153
 7125POPC   GL128981  22.912  42.327   8.853
 7125POPC   GL228982  22.922  42.201   8.853
 7125POPC   C1A28983  22.934  42.302   8.553
 7125POPC   D2A28984  22.933  42.315   8.253
 7125POPC   C3A28985  22.907  42.295   7.953
 7125POPC   C4A28986  22.941  42.340   7.653
 7125POPC   C1B28987  23.040  42.137   8.553
 7125POPC   C2B28988  22.964  42.081   8.253
 7125POPC   C3B28989  23.029  42.057   7.953
 7125POPC   C4B28990  22.985  42.123   7.653
 7126POPC   NC328991  37.676  34.597   9.453
 7126POPC   PO428992  37.709  34.536   9.153
 7126POPC   GL128993  37.690  34.573   8.853
 7126POPC   GL228994  37.770  34.512   8.853
 7126POPC   C1A28995  37.687  34.626   8.553
 7126POPC   D2A28996  37.684  34.606   8.253
 7126POPC   C3A28997  37.684  34.589   7.953
 7126POPC   C4A28998  37.635  34.547   7.653
 7126POPC   C1B28999  37.763  34.400   8.553
 7126POPC   C2B29000  37.761  34.363   8.253
 7126POPC   C3B29001  37.790  34.391   7.953
 7126POPC   C4B29002  37.831  34.346   7.653
 7127POPC   NC329003   9.775  34.550   9.453
 7127POPC   PO429004   9.777  34.562   9.153
 7127POPC   GL129005   9.791  34.616   8.853
 7127POPC   GL229006   9.875  34.612   8.853
 7127POPC   C1A29007   9.740  34.570   8.553
 7127POPC   D2A29008   9.776  34.567   8.253
 7127POPC   C3A29009   9.786  34.576   7.953
 7127POPC   C4A29010   9.720  34.618   7.653
 7127POPC   C1B29011  10.018  34.717   8.553
 7127POPC   C2B29012   9.953  34.683   8.253
 7127POPC   C3B29013   9.926  34.712   7.953
 7127POPC   C4B29014   9.983  34.730   7.653
 7128POPC   NC329015   1.181  32.241   9.453
 7128POPC   PO429016   1.245  32.273   9.153
 7128POPC   GL129017   1.230  32.215   8.853
 7128POPC   GL229018   1.125  32.348   8.853
 7128POPC   C1A29019   1.224  32.295   8.553
 7128POPC   D2A29020   1.248  32.219   8.253
 7128POPC   C3A29021   1.232  32.224   7.953
 7128POPC   C4A29022   1.205  32.209   7.653
 7128POPC   C1B29023   1.059  32.368   8.553
 7128POPC   C2B29024   1.027  32.348   8.253
 7128POPC   C3B29025   0.968  32.361   7.953
 7128POPC   C4B29026   1.025  32.423   7.653
 7129POPC   NC329027  13.630   3.492   9.453
 7129POPC   PO429028  13.626   3.531   9.153
 7129POPC   GL129029  13.638   3.577   8.853
 7129POPC   GL229030  13.522   3.565   8.853
 7129POPC   C1A29031  13.648   3.537   8.553
 7129POPC   D2A29032  13.595   3.575   8.253
 7129POPC   C3A29033  13.635   3.527   7.953
 7129POPC   C4A29034  13.582   3.494   7.653
 7129POPC   C1B29035  13.401   3.466   8.553
 7129POPC   C2B29036  13.384   3.534   8.253
 7129POPC   C3B29037  13.424   3.530   7.953
 7129POPC   C4B29038  13.406   3.523   7.653
 7130POPC   NC329039  16.757  10.573   9.453
 7130POPC   PO429040  16.752  10.502   9.153
 7130POPC   GL129041  16.774  10.550   8.853
 7130POPC   GL229042  16.605  10.466   8.853
 7130POPC   C1A29043  16.728  10.546   8.553
 7130POPC   D2A29044  16.737  10.495   8.253
 7130POPC   C3A29045  16.725  10.484   7.953
 7130POPC   C4A29046  16.695  10.548   7.653
 7130POPC   C1B29047  16.533  10.438   8.553
 7130POPC   C2B29048  16.553  10.404   8.253
 7130POPC   C3B29049  16.530  10.427   7.953
 7130POPC   C4B29050  16.544  10.368   7.653
 7131POPC   NC329051  13.630  21.431   9.453
 7131POPC   PO429052  13.587  21.399   9.153
 7131POPC   GL129053  13.610  21.368   8.853
 7131POPC   GL229054  13.681  21.527   8.853
 7131POPC   C1A29055  13.666  21.362   8.553
 7131POPC   D2A29056  13.660  21.378   8.253
 7131POPC   C3A29057  13.629  21.408   7.953
 7131POPC   C4A29058  13.583  21.385   7.653
 7131POPC   C1B29059  13.727  21.588   8.553
 7131POPC   C2B29060  13.673  21.585   8.253
 7131POPC   C3B29061  13.753  21.658   7.953
 7131POPC   C4B29062  13.685  21.600   7.653
 7132POPC   NC329063  39.265  43.078   9.453
 7132POPC   PO429064  39.273  43.119   9.153
 7132POPC   GL129065  39.254  43.098   8.853
 7132POPC   GL229066  39.319  42.989   8.853
 7132POPC   C1A29067  39.194  43.134   8.553
 7132POPC   D2A29068  39.196  43.097   8.253
 7132POPC   C3A29069  39.199  43.113   7.953
 7132POPC   C4A29070  39.207  43.150   7.653
 7132POPC   C1B29071  39.399  42.888   8.553
 7132POPC   C2B29072  39.389  42.952   8.253
 7132POPC   C3B29073  39.386  42.932   7.953
 7132POPC   C4B29074  39.367  42.878   7.653
 7133POPC   NC329075  41.602   1.220   9.453
 7133POPC   PO429076  41.577   1.253   9.153
 7133POPC   GL129077  41.553   1.207   8.853
 7133POPC   GL229078  41.657   1.304   8.853
 7133POPC   C1A29079  41.551   1.203   8.553
 7133POPC   D2A29080  41.542   1.174   8.253
 7133POPC   C3A29081  41.539   1.225   7.953
 7133POPC   C4A29082  41.583   1.225   7.653
 7133POPC   C1B29083  41.703   1.388   8.553
 7133POPC   C2B29084  41.657   1.441   8.253
 7133POPC   C3B29085  41.731   1.455   7.953
 7133POPC   C4B29086  41.678   1.453   7.653
 7134POPC   NC329087  18.247  44.705   9.453
 7134POPC   PO429088  18.234  44.697   9.153
 7134POPC   GL129089  18.301  44.682   8.853
 7134POPC   GL229090  18.209  44.755   8.853
 7134POPC   C1A29091  18.309  44.667   8.553
 7134POPC   D2A29092  18.237  44.697   8.253
 7134POPC   C3A29093  18.249  44.670   7.953
 7134POPC   C4A29094  18.247  44.670   7.653
 7134POPC   C1B29095  18.101  44.786   8.553
 7134POPC   C2B29096  18.026  44.801   8.253
 7134POPC   C3B29097  18.048  44.775   7.953
 7134POPC   C4B29098  18.037  44.814   7.653
 7135POPC   NC329099  13.578   8.937   9.453
 7135POPC   PO429100  13.670   8.936   9.153
 7135POPC   GL129101  13.645   8.985   8.853
 7135POPC   GL229102  13.698   9.099   8.853
 7135POPC   C1A29103  13.660   8.951   8.553
 7135POPC   D2A29104  13.617   9.018   8.253
 7135POPC   C3A29105  13.634   8.950   7.953
 7135POPC   C4A29106  13.677   8.989   7.653
 7135POPC   C1B29107  13.797   9.118   8.553
 7135POPC   C2B29108  13.855   9.093   8.253
 7135POPC   C3B29109  13.847   9.100   7.953
 7135POPC   C4B29110  13.770   9.097   7.653
 7136POPC   NC329111  15.994  28.328   9.453
 7136POPC   PO429112  15.994  28.376   9.153
 7136POPC   GL129113  15.941  28.419   8.853
 7136POPC   GL229114  15.964  28.241   8.853
 7136POPC   C1A29115  15.929  28.351   8.553
 7136POPC   D2A29116  15.918  28.379   8.253
 7136POPC   C3A29117  15.920  28.346   7.953
 7136POPC   C4A29118  15.948  28.408   7.653
 7136POPC   C1B29119  16.032  28.159   8.553
 7136POPC   C2B29120  15.976  28.164   8.253
 7136POPC   C3B29121  16.010  28.097   7.953
 7136POPC   C4B29122  16.027  28.084   7.653
 7137POPC   NC329123   6.687  39.959   9.453
 7137POPC   PO429124   6.653  39.968   9.153
 7137POPC   GL129125   6.611  40.044   8.853
 7137POPC   GL229126   6.623  39.843   8.853
 7137POPC   C1A29127   6.668  39.991   8.553
 7137POPC   D2A29128   6.638  40.051   8.253
 7137POPC   C3A29129   6.655  39.960   7.953
 7137POPC   C4A29130   6.665  39.968   7.653
 7137POPC   C1B29131   6.683  39.785   8.553
 7137POPC   C2B29132   6.652  39.799   8.253
 7137POPC   C3B29133   6.742  39.723   7.953
 7137POPC   C4B29134   6.741  39.725   7.653
 7138POPC   NC329135   6.650  40.824   9.453
 7138POPC   PO429136   6.621  40.779   9.153
 7138POPC   GL129137   6.640  40.769   8.853
 7138POPC   GL229138   6.595  40.858   8.853
 7138POPC   C1A29139   6.595  40.769   8.553
 7138POPC   D2A29140   6.614  40.748   8.253
 7138POPC   C3A29141   6.684  40.759   7.953
 7138POPC   C4A29142   6.638  40.756   7.653
 7138POPC   C1B29143   6.465  41.004   8.553
 7138POPC   C2B29144   6.433  40.979   8.253
 7138POPC   C3B29145   6.504  40.982   7.953
 7138POPC   C4B29146   6.453  40.997   7.653
 7139POPC   NC329147  25.248  22.902   9.453
 7139POPC   PO429148  25.226  22.986   9.153
 7139POPC   GL129149  25.246  22.963   8.853
 7139POPC   GL229150  25.369  22.956   8.853
 7139POPC   C1A29151  25.280  22.892   8.553
 7139POPC   D2A29152  25.216  22.910   8.253
 7139POPC   C3A29153  25.314  22.911   7.953
 7139POPC   C4A29154  25.281  22.952   7.653
 7139POPC   C1B29155  25.481  22.918   8.553
 7139POPC   C2B29156  25.480  22.842   8.253
 7139POPC   C3B29157  25.464  22.894   7.953
 7139POPC   C4B29158  25.480  22.838   7.653
 7140POPC   NC329159  32.250  26.037   9.453
 7140POPC   PO429160  32.251  26.061   9.153
 7140POPC   GL129161  32.226  26.038   8.853
 7140POPC   GL229162  32.278  26.162   8.853
 7140POPC   C1A29163  32.266  26.082   8.553
 7140POPC   D2A29164  32.272  26.064   8.253
 7140POPC   C3A29165  32.259  26.006   7.953
 7140POPC   C4A29166  32.260  26.015   7.653
 7140POPC   C1B29167  32.419  26.263   8.553
 7140POPC   C2B29168  32.380  26.255   8.253
 7140POPC   C3B29169  32.344  26.261   7.953
 7140POPC   C4B29170  32.412  26.286   7.653
 7141POPC   NC329171  17.504   9.011   9.453
 7141POPC   PO429172  17.520   8.986   9.153
 7141POPC   GL129173  17.507   8.966   8.853
 7141POPC   GL229174  17.432   9.105   8.853
 7141POPC   C1A29175  17.555   9.006   8.553
 7141POPC   D2A29176  17.472   8.961   8.253
 7141POPC   C3A29177  17.531   8.995   7.953
 7141POPC   C4A29178  17.471   8.978   7.653
 7141POPC   C1B29179  17.484   9.264   8.553
 7141POPC   C2B29180  17.504   9.246   8.253
 7141POPC   C3B29181  17.471   9.172   7.953
 7141POPC   C4B29182  17.497   9.229   7.653
 7142POPC   NC329183   4.283  29.932   9.453
 7142POPC   PO429184   4.340  29.952   9.153
 7142POPC   GL129185   4.328  29.893   8.853
 7142POPC   GL229186   4.398  29.823   8.853
 7142POPC   C1A29187   4.338  29.934   8.553
 7142POPC   D2A29188   4.331  29.942   8.253
 7142POPC   C3A29189   4.279  29.951   7.953
 7142POPC   C4A29190   4.351  29.910   7.653
 7142POPC   C1B29191   4.456  29.684   8.553
 7142POPC   C2B29192   4.492  29.754   8.253
 7142POPC   C3B29193   4.459  29.685   7.953
 7142POPC   C4B29194   4.443  29.700   7.653
 7143POPC   NC329195  17.525  12.106   9.453
 7143POPC   PO429196  17.465  12.044   9.153
 7143POPC   GL129197  17.522  12.101   8.853
 7143POPC   GL229198  17.514  12.154   8.853
 7143POPC   C1A29199  17.501  12.049   8.553
 7143POPC   D2A29200  17.530  12.071   8.253
 7143POPC   C3A29201  17.537  12.091   7.953
 7143POPC   C4A29202  17.491  12.080   7.653
 7143POPC   C1B29203  17.579  12.279   8.553
 7143POPC   C2B29204  17.579  12.338   8.253
 7143POPC   C3B29205  17.545  12.310   7.953
 7143POPC   C4B29206  17.535  12.356   7.653
 7144POPC   NC329207  18.304  12.865   9.453
 7144POPC   PO429208  18.249  12.849   9.153
 7144POPC   GL129209  18.278  12.833   8.853
 7144POPC   GL229210  18.146  12.939   8.853
 7144POPC   C1A29211  18.302  12.827   8.553
 7144POPC   D2A29212  18.303  12.841   8.253
 7144POPC   C3A29213  18.274  12.866   7.953
 7144POPC   C4A29214  18.253  12.881   7.653
 7144POPC   C1B29215  18.078  12.988   8.553
 7144POPC   C2B29216  18.049  12.991   8.253
 7144POPC   C3B29217  18.075  13.040   7.953
 7144POPC   C4B29218  18.060  12.949   7.653
 7145POPC   NC329219  38.421  15.912   9.453
 7145POPC   PO429220  38.444  15.941   9.153
 7145POPC   GL129221  38.486  15.967   8.853
 7145POPC   GL229222  38.528  15.819   8.853
 7145POPC   C1A29223  38.455  15.933   8.553
 7145POPC   D2A29224  38.499  15.933   8.253
 7145POPC   C3A29225  38.410  15.958   7.953
 7145POPC   C4A29226  38.443  15.988   7.653
 7145POPC   C1B29227  38.615  15.722   8.553
 7145POPC   C2B29228  38.561  15.773   8.253
 7145POPC   C3B29229  38.645  15.742   7.953
 7145POPC   C4B29230  38.642  15.731   7.653
 7146POPC   NC329231  25.231  10.481   9.453
 7146POPC   PO429232  25.217  10.568   9.153
 7146POPC   GL129233  25.277  10.488   8.853
 7146POPC   GL229234  25.322  10.633   8.853
 7146POPC   C1A29235  25.297  10.567   8.553
 7146POPC   D2A29236  25.273  10.567   8.253
 7146POPC   C3A29237  25.243  10.509   7.953
 7146POPC   C4A29238  25.288  10.550   7.653
 7146POPC   C1B29239  25.259  10.815   8.553
 7146POPC   C2B29240  25.266  10.771   8.253
 7146POPC   C3B29241  25.334  10.805   7.953
 7146POPC   C4B29242  25.268  10.823   7.653
 7147POPC   NC329243   1.237  10.508   9.453
 7147POPC   PO429244   1.242  10.492   9.153
 7147POPC   GL129245   1.182  10.487   8.853
 7147POPC   GL229246   1.170  10.388   8.853
 7147POPC   C1A29247   1.194  10.477   8.553
 7147POPC   D2A29248   1.222  10.566   8.253
 7147POPC   C3A29249   1.214  10.474   7.953
 7147POPC   C4A29250   1.169  10.505   7.653
 7147POPC   C1B29251   1.134  10.255   8.553
 7147POPC   C2B29252   1.124  10.268   8.253
 7147POPC   C3B29253   1.102  10.323   7.953
 7147POPC   C4B29254   1.127  10.267   7.653
 7148POPC   NC329255  29.150  43.098   9.453
 7148POPC   PO429256  29.144  43.151   9.153
 7148POPC   GL129257  29.111  43.086   8.853
 7148POPC   GL229258  28.991  43.134   8.853
 7148POPC   C1A29259  29.131  43.088   8.553
 7148POPC   D2A29260  29.122  43.106   8.253
 7148POPC   C3A29261  29.166  43.072   7.953
 7148POPC   C4A29262  29.156  43.152   7.653
 7148POPC   C1B29263  28.964  43.222   8.553
 7148POPC   C2B29264  28.946  43.186   8.253
 7148POPC   C3B29265  28.892  43.243   7.953
 7148POPC   C4B29266  28.923  43.219   7.653
 7149POPC   NC329267  40.754  41.579   9.453
 7149POPC   PO429268  40.756  41.516   9.153
 7149POPC   GL129269  40.823  41.520   8.853
 7149POPC   GL229270  40.709  41.492   8.853
 7149POPC   C1A29271  40.737  41.608   8.553
 7149POPC   D2A29272  40.802  41.511   8.253
 7149POPC   C3A29273  40.826  41.563   7.953
 7149POPC   C4A29274  40.797  41.517   7.653
 7149POPC   C1B29275  40.535  41.389   8.553
 7149POPC   C2B29276  40.601  41.458   8.253
 7149POPC   C3B29277  40.543  41.428   7.953
 7149POPC   C4B29278  40.559  41.439   7.653
 7150POPC   NC329279   5.122  21.364   9.453
 7150POPC   PO429280   5.056  21.414   9.153
 7150POPC   GL129281   5.051  21.373   8.853
 7150POPC   GL229282   5.080  21.253   8.853
 7150POPC   C1A29283   5.056  21.345   8.553
 7150POPC   D2A29284   5.086  21.341   8.253
 7150POPC   C3A29285   5.117  21.409   7.953
 7150POPC   C4A29286   5.129  21.420   7.653
 7150POPC   C1B29287   4.964  21.121   8.553
 7150POPC   C2B29288   4.953  21.147   8.253
 7150POPC   C3B29289   5.040  21.204   7.953
 7150POPC   C4B29290   4.973  21.195   7.653
 7151POPC   NC329291   0.397  17.556   9.453
 7151POPC   PO429292   0.437  17.515   9.153
 7151POPC   GL129293   0.446  17.497   8.853
 7151POPC   GL229294   0.379  17.582   8.853
 7151POPC   C1A29295   0.397  17.522   8.553
 7151POPC   D2A29296   0.400  17.480   8.253
 7151POPC   C3A29297   0.481  17.490   7.953
 7151POPC   C4A29298   0.466  17.488   7.653
 7151POPC   C1B29299   0.182  17.683   8.553
 7151POPC   C2B29300   0.277  17.648   8.253
 7151POPC   C3B29301   0.238  17.619   7.953
 7151POPC   C4B29302   0.207  17.633   7.653
 7152POPC   NC329303  31.517  30.706   9.453
 7152POPC   PO429304  31.510  30.672   9.153
 7152POPC   GL129305  31.458  30.737   8.853
 7152POPC   GL229306  31.325  30.732   8.853
 7152POPC   C1A29307  31.483  30.720   8.553
 7152POPC   D2A29308  31.427  30.663   8.253
 7152POPC   C3A29309  31.441  30.720   7.953
 7152POPC   C4A29310  31.433  30.741   7.653
 7152POPC   C1B29311  31.261  30.646   8.553
 7152POPC   C2B29312  31.211  30.703   8.253
 7152POPC   C3B29313  31.181  30.647   7.953
 7152POPC   C4B29314  31.257  30.678   7.653
 7153POPC   NC329315   4.312  43.083   9.453
 7153POPC   PO429316   4.332  43.119   9.153
 7153POPC   GL129317   4.330  43.132   8.853
 7153POPC   GL229318   4.361  42.957   8.853
 7153POPC   C1A29319   4.333  43.102   8.553
 7153POPC   D2A29320   4.339  43.102   8.253
 7153POPC   C3A29321   4.347  43.122   7.953
 7153POPC   C4A29322   4.356  43.075   7.653
 7153POPC   C1B29323   4.454  42.897   8.553
 7153POPC   C2B29324   4.446  42.924   8.253
 7153POPC   C3B29325   4.406  42.856   7.953
 7153POPC   C4B29326   4.382  42.870   7.653
 7154POPC   NC329327  36.923   1.216   9.453
 7154POPC   PO429328  36.917   1.218   9.153
 7154POPC   GL129329  36.900   1.192   8.853
 7154POPC   GL229330  37.026   1.068   8.853
 7154POPC   C1A29331  36.949   1.178   8.553
 7154POPC   D2A29332  36.881   1.185   8.253
 7154POPC   C3A29333  36.918   1.225   7.953
 7154POPC   C4A29334  36.951   1.226   7.653
 7154POPC   C1B29335  37.047   1.034   8.553
 7154POPC   C2B29336  37.015   1.004   8.253
 7154POPC   C3B29337  37.046   1.044   7.953
 7154POPC   C4B29338  37.109   1.006   7.653
 7155POPC   NC329339  23.758  21.409   9.453
 7155POPC   PO429340  23.744  21.365   9.153
 7155POPC   GL129341  23.710  21.424   8.853
 7155POPC   GL229342  23.842  21.303   8.853
 7155POPC   C1A29343  23.735  21.405   8.553
 7155POPC   D2A29344  23.678  21.435   8.253
 7155POPC   C3A29345  23.680  21.356   7.953
 7155POPC   C4A29346  23.666  21.404   7.653
 7155POPC   C1B29347  23.915  21.224   8.553
 7155POPC   C2B29348  23.958  21.248   8.253
 7155POPC   C3B29349  23.889  21.253   7.953
 7155POPC   C4B29350  23.894  21.272   7.653
 7156POPC   NC329351  23.690   2.734   9.453
 7156POPC   PO429352  23.685   2.739   9.153
 7156POPC   GL129353  23.735   2.785   8.853
 7156POPC   GL229354  23.652   2.671   8.853
 7156POPC   C1A29355  23.747   2.781   8.553
 7156POPC   D2A29356  23.688   2.732   8.253
 7156POPC   C3A29357  23.724   2.815   7.953
 7156POPC   C4A29358  23.673   2.801   7.653
 7156POPC   C1B29359  23.554   2.564   8.553
 7156POPC   C2B29360  23.605   2.499   8.253
 7156POPC   C3B29361  23.651   2.555   7.953
 7156POPC   C4B29362  23.599   2.530   7.653
 7157POPC   NC329363  43.074  18.236   9.453
 7157POPC   PO429364  43.065  18.248   9.153
 7157POPC   GL129365  43.123  18.250   8.853
 7157POPC   GL229366  42.971  18.180   8.853
 7157POPC   C1A29367  43.136  18.327   8.553
 7157POPC   D2A29368  43.124  18.324   8.253
 7157POPC   C3A29369  43.150  18.266   7.953
 7157POPC   C4A29370  43.123  18.319   7.653
 7157POPC   C1B29371  42.893  18.113   8.553
 7157POPC   C2B29372  42.868  18.158   8.253
 7157POPC   C3B29373  42.903  18.110   7.953
 7157POPC   C4B29374  42.934  18.134   7.653
 7158POPC   NC329375  42.289  36.164   9.453
 7158POPC   PO429376  42.330  36.166   9.153
 7158POPC   GL129377  42.361  36.118   8.853
 7158POPC   GL229378  42.307  36.224   8.853
 7158POPC   C1A29379  42.372  36.136   8.553
 7158POPC   D2A29380  42.360  36.146   8.253
 7158POPC   C3A29381  42.307  36.169   7.953
 7158POPC   C4A29382  42.361  36.143   7.653
 7158POPC   C1B29383  42.357  36.359   8.553
 7158POPC   C2B29384  42.367  36.387   8.253
 7158POPC   C3B29385  42.358  36.386   7.953
 7158POPC   C4B29386  42.340  36.396   7.653
 7159POPC   NC329387  34.542  22.200   9.453
 7159POPC   PO429388  34.575  22.190   9.153
 7159POPC   GL129389  34.569  22.202   8.853
 7159POPC   GL229390  34.425  22.106   8.853
 7159POPC   C1A29391  34.598  22.152   8.553
 7159POPC   D2A29392  34.565  22.175   8.253
 7159POPC   C3A29393  34.605  22.143   7.953
 7159POPC   C4A29394  34.546  22.132   7.653
 7159POPC   C1B29395  34.371  22.129   8.553
 7159POPC   C2B29396  34.297  22.123   8.253
 7159POPC   C3B29397  34.354  22.124   7.953
 7159POPC   C4B29398  34.310  22.099   7.653
 7160POPC   NC329399   1.225  42.344   9.453
 7160POPC   PO429400   1.190  42.297   9.153
 7160POPC   GL129401   1.190  42.299   8.853
 7160POPC   GL229402   1.123  42.355   8.853
 7160POPC   C1A29403   1.233  42.323   8.553
 7160POPC   D2A29404   1.213  42.346   8.253
 7160POPC   C3A29405   1.213  42.306   7.953
 7160POPC   C4A29406   1.176  42.360   7.653
 7160POPC   C1B29407   0.977  42.426   8.553
 7160POPC   C2B29408   0.946  42.370   8.253
 7160POPC   C3B29409   0.960  42.422   7.953
 7160POPC   C4B29410   0.955  42.404   7.653
 7161POPC   NC329411  33.003   1.184   9.453
 7161POPC   PO429412  33.056   1.189   9.153
 7161POPC   GL129413  33.062   1.219   8.853
 7161POPC   GL229414  33.054   1.107   8.853
 7161POPC   C1A29415  33.026   1.205   8.553
 7161POPC   D2A29416  32.995   1.207   8.253
 7161POPC   C3A29417  33.072   1.171   7.953
 7161POPC   C4A29418  32.977   1.199   7.653
 7161POPC   C1B29419  32.976   1.003   8.553
 7161POPC   C2B29420  33.005   1.000   8.253
 7161POPC   C3B29421  33.055   1.011   7.953
 7161POPC   C4B29422  33.050   0.976   7.653
 7162POPC   NC329423  18.312   8.159   9.453
 7162POPC   PO429424  18.243   8.190   9.153
 7162POPC   GL129425  18.317   8.149   8.853
 7162POPC   GL229426  18.380   8.277   8.853
 7162POPC   C1A29427  18.260   8.236   8.553
 7162POPC   D2A29428  18.233   8.191   8.253
 7162POPC   C3A29429  18.243   8.147   7.953
 7162POPC   C4A29430  18.246   8.206   7.653
 7162POPC   C1B29431  18.432   8.451   8.553
 7162POPC   C2B29432  18.384   8.443   8.253
 7162POPC   C3B29433  18.380   8.401   7.953
 7162POPC   C4B29434  18.381   8.363   7.653
 7163POPC   NC329435  10.565  29.192   9.453
 7163POPC   PO429436  10.514  29.102   9.153
 7163POPC   GL129437  10.546  29.148   8.853
 7163POPC   GL229438  10.465  29.036   8.853
 7163POPC   C1A29439  10.537  29.144   8.553
 7163POPC   D2A29440  10.476  29.099   8.253
 7163POPC   C3A29441  10.519  29.154   7.953
 7163POPC   C4A29442  10.526  29.163   7.653
 7163POPC   C1B29443  10.441  28.867   8.553
 7163POPC   C2B29444  10.479  28.929   8.253
 7163POPC   C3B29445  10.433  28.955   7.953
 7163POPC   C4B29446  10.395  28.897   7.653
 7164POPC   NC329447  30.725  26.772   9.453
 7164POPC   PO429448  30.659  26.824   9.153
 7164POPC   GL129449  30.698  26.865   8.853
 7164POPC   GL229450  30.863  26.784   8.853
 7164POPC   C1A29451  30.663  26.772   8.553
 7164POPC   D2A29452  30.717  26.812   8.253
 7164POPC   C3A29453  30.741  26.802   7.953
 7164POPC   C4A29454  30.663  26.852   7.653
 7164POPC   C1B29455  30.940  26.716   8.553
 7164POPC   C2B29456  30.966  26.721   8.253
 7164POPC   C3B29457  30.957  26.742   7.953
 7164POPC   C4B29458  30.911  26.721   7.653
 7165POPC   NC329459  12.863   5.104   9.453
 7165POPC   PO429460  12.869   5.084   9.153
 7165POPC   GL129461  12.860   5.130   8.853
 7165POPC   GL229462  12.726   5.042   8.853
 7165POPC   C1A29463  12.821   5.120   8.553
 7165POPC   D2A29464  12.863   5.118   8.253
 7165POPC   C3A29465  12.829   5.143   7.953
 7165POPC   C4A29466  12.802   5.129   7.653
 7165POPC   C1B29467  12.610   5.089   8.553
 7165POPC   C2B29468  12.654   5.095   8.253
 7165POPC   C3B29469  12.556   5.095   7.953
 7165POPC   C4B29470  12.635   5.018   7.653
 7166POPC   NC329471  12.841  35.327   9.453
 7166POPC   PO429472  12.811  35.308   9.153
 7166POPC   GL129473  12.841  35.327   8.853
 7166POPC   GL229474  12.865  35.235   8.853
 7166POPC   C1A29475  12.803  35.366   8.553
 7166POPC   D2A29476  12.899  35.338   8.253
 7166POPC   C3A29477  12.870  35.358   7.953
 7166POPC   C4A29478  12.877  35.373   7.653
 7166POPC   C1B29479  12.962  35.103   8.553
 7166POPC   C2B29480  12.909  35.082   8.253
 7166POPC   C3B29481  13.003  35.167   7.953
 7166POPC   C4B29482  12.980  35.116   7.653
 7167POPC   NC329483   6.647  10.516   9.453
 7167POPC   PO429484   6.614  10.490   9.153
 7167POPC   GL129485   6.680  10.475   8.853
 7167POPC   GL229486   6.730  10.445   8.853
 7167POPC   C1A29487   6.647  10.477   8.553
 7167POPC   D2A29488   6.659  10.506   8.253
 7167POPC   C3A29489   6.597  10.536   7.953
 7167POPC   C4A29490   6.684  10.561   7.653
 7167POPC   C1B29491   6.844  10.379   8.553
 7167POPC   C2B29492   6.874  10.470   8.253
 7167POPC   C3B29493   6.841  10.382   7.953
 7167POPC   C4B29494   6.857  10.457   7.653
 7168POPC   NC329495  12.815  39.966   9.453
 7168POPC   PO429496  12.846  39.975   9.153
 7168POPC   GL129497  12.888  39.977   8.853
 7168POPC   GL229498  12.765  39.984   8.853
 7168POPC   C1A29499  12.813  40.028   8.553
 7168POPC   D2A29500  12.878  40.053   8.253
 7168POPC   C3A29501  12.831  40.029   7.953
 7168POPC   C4A29502  12.830  40.048   7.653
 7168POPC   C1B29503  12.649  39.995   8.553
 7168POPC   C2B29504  12.651  40.018   8.253
 7168POPC   C3B29505  12.634  40.032   7.953
 7168POPC   C4B29506  12.640  39.992   7.653
 7169POPC   NC329507   1.225   0.445   9.453
 7169POPC   PO429508   1.216   0.391   9.153
 7169POPC   GL129509   1.262   0.395   8.853
 7169POPC   GL229510   1.252   0.303   8.853
 7169POPC   C1A29511   1.171   0.409   8.553
 7169POPC   D2A29512   1.181   0.461   8.253
 7169POPC   C3A29513   1.258   0.431   7.953
 7169POPC   C4A29514   1.178   0.414   7.653
 7169POPC   C1B29515   1.346   0.231   8.553
 7169POPC   C2B29516   1.286   0.240   8.253
 7169POPC   C3B29517   1.291   0.242   7.953
 7169POPC   C4B29518   1.271   0.243   7.653
 7170POPC   NC329519   0.452   8.205   9.453
 7170POPC   PO429520   0.409   8.188   9.153
 7170POPC   GL129521   0.414   8.167   8.853
 7170POPC   GL229522   0.368   8.307   8.853
 7170POPC   C1A29523   0.453   8.195   8.553
 7170POPC   D2A29524   0.433   8.208   8.253
 7170POPC   C3A29525   0.389   8.236   7.953
 7170POPC   C4A29526   0.426   8.220   7.653
 7170POPC   C1B29527   0.415   8.398   8.553
 7170POPC   C2B29528   0.409   8.394   8.253
 7170POPC   C3B29529   0.339   8.488   7.953
 7170POPC   C4B29530   0.369   8.433   7.653
 7171POPC   NC329531  40.814  29.927   9.453
 7171POPC   PO429532  40.764  29.933   9.153
 7171POPC   GL129533  40.823  29.951   8.853
 7171POPC   GL229534  40.882  29.863   8.853
 7171POPC   C1A29535  40.827  29.898   8.553
 7171POPC   D2A29536  40.781  29.937   8.253
 7171POPC   C3A29537  40.748  29.890   7.953
 7171POPC   C4A29538  40.825  29.881   7.653
 7171POPC   C1B29539  40.939  29.741   8.553
 7171POPC   C2B29540  40.926  29.718   8.253
 7171POPC   C3B29541  40.920  29.741   7.953
 7171POPC   C4B29542  40.908  29.755   7.653
 7172POPC   NC329543   6.602   6.685   9.453
 7172POPC   PO429544   6.691   6.599   9.153
 7172POPC   GL129545   6.643   6.602   8.853
 7172POPC   GL229546   6.804   6.664   8.853
 7172POPC   C1A29547   6.679   6.610   8.553
 7172POPC   D2A29548   6.640   6.627   8.253
 7172POPC   C3A29549   6.619   6.637   7.953
 7172POPC   C4A29550   6.636   6.631   7.653
 7172POPC   C1B29551   6.902   6.555   8.553
 7172POPC   C2B29552   6.906   6.601   8.253
 7172POPC   C3B29553   6.879   6.634   7.953
 7172POPC   C4B29554   6.920   6.575   7.653
 7173POPC   NC329555  24.500  22.968   9.453
 7173POPC   PO429556  24.482  22.907   9.153
 7173POPC   GL129557  24.479  22.967   8.853
 7173POPC   GL229558  24.470  22.829   8.853
 7173POPC   C1A29559  24.458  22.967   8.553
 7173POPC   D2A29560  24.495  22.945   8.253
 7173POPC   C3A29561  24.440  22.962   7.953
 7173POPC   C4A29562  24.480  22.930   7.653
 7173POPC   C1B29563  24.536  22.737   8.553
 7173POPC   C2B29564  24.508  22.721   8.253
 7173POPC   C3B29565  24.488  22.685   7.953
 7173POPC   C4B29566  24.459  22.655   7.653
 7174POPC   NC329567   7.447  22.940   9.453
 7174POPC   PO429568   7.376  22.889   9.153
 7174POPC   GL129569   7.385  22.981   8.853
 7174POPC   GL229570   7.326  22.821   8.853
 7174POPC   C1A29571   7.394  22.967   8.553
 7174POPC   D2A29572   7.394  22.923   8.253
 7174POPC   C3A29573   7.396  22.926   7.953
 7174POPC   C4A29574   7.433  22.913   7.653
 7174POPC   C1B29575   7.250  22.742   8.553
 7174POPC   C2B29576   7.288  22.704   8.253
 7174POPC   C3B29577   7.265  22.689   7.953
 7174POPC   C4B29578   7.258  22.727   7.653
 7175POPC   NC329579  25.257  26.038   9.453
 7175POPC   PO429580  25.292  26.068   9.153
 7175POPC   GL129581  25.251  26.048   8.853
 7175POPC   GL229582  25.431  26.064   8.853
 7175POPC   C1A29583  25.292  26.033   8.553
 7175POPC   D2A29584  25.299  26.011   8.253
 7175POPC   C3A29585  25.286  26.023   7.953
 7175POPC   C4A29586  25.306  26.091   7.653
 7175POPC   C1B29587  25.561  26.011   8.553
 7175POPC   C2B29588  25.500  25.984   8.253
 7175POPC   C3B29589  25.554  26.074   7.953
 7175POPC   C4B29590  25.532  26.022   7.653
 7176POPC   NC329591  41.543  39.231   9.453
 7176POPC   PO429592  41.597  39.216   9.153
 7176POPC   GL129593  41.510  39.272   8.853
 7176POPC   GL229594  41.701  39.327   8.853
 7176POPC   C1A29595  41.596  39.276   8.553
 7176POPC   D2A29596  41.600  39.229   8.253
 7176POPC   C3A29597  41.557  39.272   7.953
 7176POPC   C4A29598  41.554  39.263   7.653
 7176POPC   C1B29599  41.739  39.358   8.553
 7176POPC   C2B29600  41.814  39.370   8.253
 7176POPC   C3B29601  41.789  39.334   7.953
 7176POPC   C4B29602  41.810  39.323   7.653
 7177POPC   NC329603  32.993  35.307   9.453
 7177POPC   PO429604  33.052  35.324   9.153
 7177POPC   GL129605  33.056  35.399   8.853
 7177POPC   GL229606  32.966  35.508   8.853
 7177POPC   C1A29607  33.000  35.382   8.553
 7177POPC   D2A29608  32.986  35.354   8.253
 7177POPC   C3A29609  32.989  35.339   7.953
 7177POPC   C4A29610  33.049  35.330   7.653
 7177POPC   C1B29611  32.943  35.591   8.553
 7177POPC   C2B29612  32.962  35.585   8.253
 7177POPC   C3B29613  32.993  35.635   7.953
 7177POPC   C4B29614  32.953  35.631   7.653
 7178POPC   NC329615  26.082  12.878   9.453
 7178POPC   PO429616  26.077  12.850   9.153
 7178POPC   GL129617  26.035  12.887   8.853
 7178POPC   GL229618  25.927  12.876   8.853
 7178POPC   C1A29619  25.995  12.857   8.553
 7178POPC   D2A29620  26.017  12.886   8.253
 7178POPC   C3A29621  26.074  12.893   7.953
 7178POPC   C4A29622  26.089  12.886   7.653
 7178POPC   C1B29623  25.747  12.928   8.553
 7178POPC   C2B29624  25.834  12.939   8.253
 7178POPC   C3B29625  25.844  12.914   7.953
 7178POPC   C4B29626  25.758  12.878   7.653
 7179POPC   NC329627   4.303  20.639   9.453
 7179POPC   PO429628   4.301  20.595   9.153
 7179POPC   GL129629   4.318  20.643   8.853
 7179POPC   GL229630   4.386  20.581   8.853
 7179POPC   C1A29631   4.355  20.660   8.553
 7179POPC   D2A29632   4.333  20.655   8.253
 7179POPC   C3A29633   4.276  20.627   7.953
 7179POPC   C4A29634   4.336  20.642   7.653
 7179POPC   C1B29635   4.559  20.541   8.553
 7179POPC   C2B29636   4.504  20.545   8.253
 7179POPC   C3B29637   4.513  20.456   7.953
 7179POPC   C4B29638   4.496  20.468   7.653
 7180POPC   NC329639  29.103  42.318   9.453
 7180POPC   PO429640  29.112  42.361   9.153
 7180POPC   GL129641  29.100  42.290   8.853
 7180POPC   GL229642  29.288  42.280   8.853
 7180POPC   C1A29643  29.101  42.377   8.553
 7180POPC   D2A29644  29.189  42.332   8.253
 7180POPC   C3A29645  29.096  42.330   7.953
 7180POPC   C4A29646  29.165  42.291   7.653
 7180POPC   C1B29647  29.376  42.232   8.553
 7180POPC   C2B29648  29.326  42.178   8.253
 7180POPC   C3B29649  29.375  42.180   7.953
 7180POPC   C4B29650  29.303  42.207   7.653
 7181POPC   NC329651  35.376   5.102   9.453
 7181POPC   PO429652  35.304   5.062   9.153
 7181POPC   GL129653  35.336   5.142   8.853
 7181POPC   GL229654  35.442   4.966   8.853
 7181POPC   C1A29655  35.304   5.123   8.553
 7181POPC   D2A29656  35.362   5.093   8.253
 7181POPC   C3A29657  35.302   5.078   7.953
 7181POPC   C4A29658  35.380   5.135   7.653
 7181POPC   C1B29659  35.555   4.891   8.553
 7181POPC   C2B29660  35.536   4.908   8.253
 7181POPC   C3B29661  35.531   4.932   7.953
 7181POPC   C4B29662  35.462   4.948   7.653
 7182POPC   NC329663  31.462  11.317   9.453
 7182POPC   PO429664  31.510  11.336   9.153
 7182POPC   GL129665  31.437  11.339   8.853
 7182POPC   GL229666  31.423  11.194   8.853
 7182POPC   C1A29667  31.442  11.331   8.553
 7182POPC   D2A29668  31.512  11.336   8.253
 7182POPC   C3A29669  31.501  11.325   7.953
 7182POPC   C4A29670  31.511  11.330   7.653
 7182POPC   C1B29671  31.336  11.129   8.553
 7182POPC   C2B29672  31.297  11.077   8.253
 7182POPC   C3B29673  31.328  11.128   7.953
 7182POPC   C4B29674  31.379  11.126   7.653
 7183POPC   NC329675  29.899   1.187   9.453
 7183POPC   PO429676  29.897   1.220   9.153
 7183POPC   GL129677  29.954   1.237   8.853
 7183POPC   GL229678  29.824   1.135   8.853
 7183POPC   C1A29679  29.934   1.199   8.553
 7183POPC   D2A29680  29.965   1.223   8.253
 7183POPC   C3A29681  29.913   1.229   7.953
 7183POPC   C4A29682  29.871   1.238   7.653
 7183POPC   C1B29683  29.745   1.016   8.553
 7183POPC   C2B29684  29.720   1.047   8.253
 7183POPC   C3B29685  29.699   1.010   7.953
 7183POPC   C4B29686  29.746   1.022   7.653
 7184POPC   NC329687  43.064  34.560   9.453
 7184POPC   PO429688  43.083  34.527   9.153
 7184POPC   GL129689  43.096  34.565   8.853
 7184POPC   GL229690  43.072  34.437   8.853
 7184POPC   C1A29691  43.138  34.550   8.553
 7184POPC   D2A29692  43.099  34.530   8.253
 7184POPC   C3A29693  43.136  34.536   7.953
 7184POPC   C4A29694  43.065  34.540   7.653
 7184POPC   C1B29695  43.040  34.386   8.553
 7184POPC   C2B29696  42.997  34.324   8.253
 7184POPC   C3B29697  43.001  34.369   7.953
 7184POPC   C4B29698  43.058  34.333   7.653
 7185POPC   NC329699  41.540  25.264   9.453
 7185POPC   PO429700  41.544  25.300   9.153
 7185POPC   GL129701  41.522  25.262   8.853
 7185POPC   GL229702  41.415  25.235   8.853
 7185POPC   C1A29703  41.510  25.268   8.553
 7185POPC   D2A29704  41.534  25.240   8.253
 7185POPC   C3A29705  41.582  25.263   7.953
 7185POPC   C4A29706  41.587  25.256   7.653
 7185POPC   C1B29707  41.265  25.229   8.553
 7185POPC   C2B29708  41.328  25.293   8.253
 7185POPC   C3B29709  41.339  25.280   7.953
 7185POPC   C4B29710  41.291  25.275   7.653
 7186POPC   NC329711  22.979   0.458   9.453
 7186POPC   PO429712  22.945   0.392   9.153
 7186POPC   GL129713  22.916   0.400   8.853
 7186POPC   GL229714  23.019   0.418   8.853
 7186POPC   C1A29715  22.985   0.480   8.553
 7186POPC   D2A29716  22.969   0.436   8.253
 7186POPC   C3A29717  22.975   0.418   7.953
 7186POPC   C4A29718  22.960   0.452   7.653
 7186POPC   C1B29719  23.205   0.471   8.553
 7186POPC   C2B29720  23.174   0.409   8.253
 7186POPC   C3B29721  23.156   0.443   7.953
 7186POPC   C4B29722  23.206   0.461   7.653
 7187POPC   NC329723   8.982  16.768   9.453
 7187POPC   PO429724   9.006  16.685   9.153
 7187POPC   GL129725   8.925  16.705   8.853
 7187POPC   GL229726   8.865  16.733   8.853
 7187POPC   C1A29727   8.927  16.689   8.553
 7187POPC   D2A29728   8.979  16.758   8.253
 7187POPC   C3A29729   8.979  16.723   7.953
 7187POPC   C4A29730   8.952  16.718   7.653
 7187POPC   C1B29731   8.731  16.685   8.553
 7187POPC   C2B29732   8.745  16.628   8.253
 7187POPC   C3B29733   8.755  16.622   7.953
 7187POPC   C4B29734   8.778  16.660   7.653
 7188POPC   NC329735   5.904  19.041   9.453
 7188POPC   PO429736   5.891  19.079   9.153
 7188POPC   GL129737   5.904  19.082   8.853
 7188POPC   GL229738   5.759  19.119   8.853
 7188POPC   C1A29739   5.898  19.065   8.553
 7188POPC   D2A29740   5.841  19.062   8.253
 7188POPC   C3A29741   5.838  19.105   7.953
 7188POPC   C4A29742   5.891  19.053   7.653
 7188POPC   C1B29743   5.727  19.241   8.553
 7188POPC   C2B29744   5.682  19.211   8.253
 7188POPC   C3B29745   5.742  19.277   7.953
 7188POPC   C4B29746   5.714  19.208   7.653
 7189POPC   NC329747  30.727  22.902   9.453
 7189POPC   PO429748  30.648  22.972   9.153
 7189POPC   GL129749  30.656  22.988   8.853
 7189POPC   GL229750  30.747  23.025   8.853
 7189POPC   C1A29751  30.728  22.889   8.553
 7189POPC   D2A29752  30.728  22.981   8.253
 7189POPC   C3A29753  30.734  22.959   7.953
 7189POPC   C4A29754  30.676  22.913   7.653
 7189POPC   C1B29755  30.778  23.190   8.553
 7189POPC   C2B29756  30.721  23.187   8.253
 7189POPC   C3B29757  30.783  23.213   7.953
 7189POPC   C4B29758  30.727  23.218   7.653
 7190POPC   NC329759   4.305  15.964   9.453
 7190POPC   PO429760   4.303  15.999   9.153
 7190POPC   GL129761   4.340  15.954   8.853
 7190POPC   GL229762   4.265  16.058   8.853
 7190POPC   C1A29763   4.345  15.943   8.553
 7190POPC   D2A29764   4.364  15.996   8.253
 7190POPC   C3A29765   4.319  15.990   7.953
 7190POPC   C4A29766   4.277  15.936   7.653
 7190POPC   C1B29767   4.163  16.139   8.553
 7190POPC   C2B29768   4.110  16.162   8.253
 7190POPC   C3B29769   4.170  16.155   7.953
 7190POPC   C4B29770   4.152  16.167   7.653
 7191POPC   NC329771  12.069  15.995   9.453
 7191POPC   PO429772  12.099  15.915   9.153
 7191POPC   GL129773  12.097  15.974   8.853
 7191POPC   GL229774  12.240  15.992   8.853
 7191POPC   C1A29775  12.126  15.950   8.553
 7191POPC   D2A29776  12.110  15.928   8.253
 7191POPC   C3A29777  12.125  15.960   7.953
 7191POPC   C4A29778  12.029  15.910   7.653
 7191POPC   C1B29779  12.331  16.004   8.553
 7191POPC   C2B29780  12.309  16.050   8.253
 7191POPC   C3B29781  12.361  16.061   7.953
 7191POPC   C4B29782  12.263  16.049   7.653
 7192POPC   NC329783  41.539   1.993   9.453
 7192POPC   PO429784  41.590   1.979   9.153
 7192POPC   GL129785  41.573   1.985   8.853
 7192POPC   GL229786  41.537   2.160   8.853
 7192POPC   C1A29787  41.590   2.023   8.553
 7192POPC   D2A29788  41.594   2.032   8.253
 7192POPC   C3A29789  41.554   2.016   7.953
 7192POPC   C4A29790  41.600   1.948   7.653
 7192POPC   C1B29791  41.466   2.256   8.553
 7192POPC   C2B29792  41.521   2.195   8.253
 7192POPC   C3B29793  41.527   2.267   7.953
 7192POPC   C4B29794  41.488   2.212   7.653
 7193POPC   NC329795   4.356  40.828   9.453
 7193POPC   PO429796   4.334  40.833   9.153
 7193POPC   GL129797   4.337  40.825   8.853
 7193POPC   GL229798   4.216  40.841   8.853
 7193POPC   C1A29799   4.342  40.780   8.553
 7193POPC   D2A29800   4.324  40.815   8.253
 7193POPC   C3A29801   4.363  40.735   7.953
 7193POPC   C4A29802   4.288  40.779   7.653
 7193POPC   C1B29803   4.056  40.903   8.553
 7193POPC   C2B29804   4.082  40.842   8.253
 7193POPC   C3B29805   4.131  40.879   7.953
 7193POPC   C4B29806   4.112  40.873   7.653
 7194POPC   NC329807  15.188   6.638   9.453
 7194POPC   PO429808  15.201   6.637   9.153
 7194POPC   GL129809  15.141   6.645   8.853
 7194POPC   GL229810  15.141   6.557   8.853
 7194POPC   C1A29811  15.198   6.602   8.553
 7194POPC   D2A29812  15.190   6.681   8.253
 7194POPC   C3A29813  15.148   6.604   7.953
 7194POPC   C4A29814  15.211   6.610   7.653
 7194POPC   C1B29815  15.043   6.495   8.553
 7194POPC   C2B29816  15.017   6.473   8.253
 7194POPC   C3B29817  14.992   6.493   7.953
 7194POPC   C4B29818  15.054   6.461   7.653
 7195POPC   NC329819  23.691  26.065   9.453
 7195POPC   PO429820  23.678  26.081   9.153
 7195POPC   GL129821  23.749  26.059   8.853
 7195POPC   GL229822  23.548  25.982   8.853
 7195POPC   C1A29823  23.682  26.032   8.553
 7195POPC   D2A29824  23.722  26.084   8.253
 7195POPC   C3A29825  23.720  26.007   7.953
 7195POPC   C4A29826  23.692  26.059   7.653
 7195POPC   C1B29827  23.500  26.038   8.553
 7195POPC   C2B29828  23.504  25.972   8.253
 7195POPC   C3B29829  23.505  25.994   7.953
 7195POPC   C4B29830  23.443  25.979   7.653
 7196POPC   NC329831  27.579  42.353   9.453
 7196POPC   PO429832  27.628  42.298   9.153
 7196POPC   GL129833  27.610  42.361   8.853
 7196POPC   GL229834  27.527  42.435   8.853
 7196POPC   C1A29835  27.561  42.296   8.553
 7196POPC   D2A29836  27.550  42.358   8.253
 7196POPC   C3A29837  27.586  42.345   7.953
 7196POPC   C4A29838  27.613  42.338   7.653
 7196POPC   C1B29839  27.437  42.503   8.553
 7196POPC   C2B29840  27.492  42.513   8.253
 7196POPC   C3B29841  27.437  42.581   7.953
 7196POPC   C4B29842  27.496  42.550   7.653
 7197POPC   NC329843  16.746  35.330   9.453
 7197POPC   PO429844  16.734  35.331   9.153
 7197POPC   GL129845  16.781  35.308   8.853
 7197POPC   GL229846  16.875  35.294   8.853
 7197POPC   C1A29847  16.777  35.357   8.553
 7197POPC   D2A29848  16.777  35.317   8.253
 7197POPC   C3A29849  16.682  35.366   7.953
 7197POPC   C4A29850  16.697  35.304   7.653
 7197POPC   C1B29851  16.946  35.228   8.553
 7197POPC   C2B29852  16.976  35.247   8.253
 7197POPC   C3B29853  16.938  35.307   7.953
 7197POPC   C4B29854  16.919  35.292   7.653
 7198POPC   NC329855  41.608  44.710   9.453
 7198POPC   PO429856  41.546  44.628   9.153
 7198POPC   GL129857  41.543  44.612   8.853
 7198POPC   GL229858  41.655  44.682   8.853
 7198POPC   C1A29859  41.604  44.621   8.553
 7198POPC   D2A29860  41.515  44.661   8.253
 7198POPC   C3A29861  41.600  44.648   7.953
 7198POPC   C4A29862  41.589  44.613   7.653
 7198POPC   C1B29863  41.853  44.636   8.553
 7198POPC   C2B29864  41.799  44.698   8.253
 7198POPC   C3B29865  41.771  44.687   7.953
 7198POPC   C4B29866  41.829  44.642   7.653
 7199POPC   NC329867   2.810  33.008   9.453
 7199POPC   PO429868   2.780  33.052   9.153
 7199POPC   GL129869   2.806  33.008   8.853
 7199POPC   GL229870   2.826  32.868   8.853
 7199POPC   C1A29871   2.777  33.056   8.553
 7199POPC   D2A29872   2.799  33.071   8.253
 7199POPC   C3A29873   2.751  33.033   7.953
 7199POPC   C4A29874   2.726  33.030   7.653
 7199POPC   C1B29875   2.882  32.810   8.553
 7199POPC   C2B29876   2.908  32.749   8.253
 7199POPC   C3B29877   2.911  32.766   7.953
 7199POPC   C4B29878   2.908  32.801   7.653
 7200POPC   NC329879  27.582  39.253   9.453
 7200POPC   PO429880  27.628  39.202   9.153
 7200POPC   GL129881  27.582  39.242   8.853
 7200POPC   GL229882  27.511  39.145   8.853
 7200POPC   C1A29883  27.597  39.261   8.553
 7200POPC   D2A29884  27.612  39.229   8.253
 7200POPC   C3A29885  27.578  39.196   7.953
 7200POPC   C4A29886  27.556  39.211   7.653
 7200POPC   C1B29887  27.413  39.085   8.553
 7200POPC   C2B29888  27.458  39.022   8.253
 7200POPC   C3B29889  27.407  39.012   7.953
 7200POPC   C4B29890  27.427  39.092   7.653
 7201POPC   NC329891  30.698  44.697   9.453
 7201POPC   PO429892  30.667  44.638   9.153
 7201POPC   GL129893  30.739  44.638   8.853
 7201POPC   GL229894  30.720  44.535   8.853
 7201POPC   C1A29895  30.718  44.629   8.553
 7201POPC   D2A29896  30.683  44.662   8.253
 7201POPC   C3A29897  30.691  44.660   7.953
 7201POPC   C4A29898  30.660  44.653   7.653
 7201POPC   C1B29899  30.699  44.440   8.553
 7201POPC   C2B29900  30.776  44.441   8.253
 7201POPC   C3B29901  30.745  44.438   7.953
 7201POPC   C4B29902  30.691  44.410   7.653
 7202POPC   NC329903  43.070  24.504   9.453
 7202POPC   PO429904  43.137  24.480   9.153
 7202POPC   GL129905  43.129  24.484   8.853
 7202POPC   GL229906  43.142  24.364   8.853
 7202POPC   C1A29907  43.126  24.494   8.553
 7202POPC   D2A29908  43.157  24.523   8.253
 7202POPC   C3A29909  43.130  24.440   7.953
 7202POPC   C4A29910  43.087  24.468   7.653
 7202POPC   C1B29911  43.205  24.283   8.553
 7202POPC   C2B29912  43.266  24.261   8.253
 7202POPC   C3B29913  43.178  24.294   7.953
 7202POPC   C4B29914  43.179  24.275   7.653
 7203POPC   NC329915  36.172  19.050   9.453
 7203POPC   PO429916  36.102  19.086   9.153
 7203POPC   GL129917  36.121  19.064   8.853
 7203POPC   GL229918  36.168  18.913   8.853
 7203POPC   C1A29919  36.118  19.024   8.553
 7203POPC   D2A29920  36.173  19.045   8.253
 7203POPC   C3A29921  36.095  19.024   7.953
 7203POPC   C4A29922  36.111  19.039   7.653
 7203POPC   C1B29923  36.184  18.856   8.553
 7203POPC   C2B29924  36.193  18.848   8.253
 7203POPC   C3B29925  36.160  18.833   7.953
 7203POPC   C4B29926  36.230  18.842   7.653
 7204POPC   NC329927  41.571  41.531   9.453
 7204POPC   PO429928  41.594  41.524   9.153
 7204POPC   GL129929  41.540  41.606   8.853
 7204POPC   GL229930  41.629  41.443   8.853
 7204POPC   C1A29931  41.590  41.573   8.553
 7204POPC   D2A29932  41.553  41.522   8.253
 7204POPC   C3A29933  41.563  41.585   7.953
 7204POPC   C4A29934  41.545  41.605   7.653
 7204POPC   C1B29935  41.703  41.360   8.553
 7204POPC   C2B29936  41.798  41.368   8.253
 7204POPC   C3B29937  41.768  41.432   7.953
 7204POPC   C4B29938  41.782  41.352   7.653
 7205POPC   NC329939  42.288  33.030   9.453
 7205POPC   PO429940  42.378  33.003   9.153
 7205POPC   GL129941  42.324  33.069   8.853
 7205POPC   GL229942  42.234  32.988   8.853
 7205POPC   C1A29943  42.365  33.027   8.553
 7205POPC   D2A29944  42.295  33.062   8.253
 7205POPC   C3A29945  42.355  33.035   7.953
 7205POPC   C4A29946  42.377  33.026   7.653
 7205POPC   C1B29947  42.126  32.924   8.553
 7205POPC   C2B29948  42.101  32.852   8.253
 7205POPC   C3B29949  42.159  32.863   7.953
 7205POPC   C4B29950  42.121  32.868   7.653
 7206POPC   NC329951  14.418  42.313   9.453
 7206POPC   PO429952  14.364  42.336   9.153
 7206POPC   GL129953  14.414  42.289   8.853
 7206POPC   GL229954  14.419  42.439   8.853
 7206POPC   C1A29955  14.450  42.345   8.553
 7206POPC   D2A29956  14.392  42.304   8.253
 7206POPC   C3A29957  14.431  42.355   7.953
 7206POPC   C4A29958  14.365  42.370   7.653
 7206POPC   C1B29959  14.347  42.546   8.553
 7206POPC   C2B29960  14.353  42.541   8.253
 7206POPC   C3B29961  14.390  42.601   7.953
 7206POPC   C4B29962  14.325  42.562   7.653
 7207POPC   NC329963  12.078  43.849   9.453
 7207POPC   PO429964  12.054  43.908   9.153
 7207POPC   GL129965  12.044  43.900   8.853
 7207POPC   GL229966  12.106  44.024   8.853
 7207POPC   C1A29967  12.065  43.898   8.553
 7207POPC   D2A29968  12.032  43.859   8.253
 7207POPC   C3A29969  12.068  43.920   7.953
 7207POPC   C4A29970  12.111  43.922   7.653
 7207POPC   C1B29971  12.020  44.155   8.553
 7207POPC   C2B29972  12.086  44.144   8.253
 7207POPC   C3B29973  12.044  44.163   7.953
 7207POPC   C4B29974  12.079  44.161   7.653
 7208POPC   NC329975  36.103   3.573   9.453
 7208POPC   PO429976  36.150   3.550   9.153
 7208POPC   GL129977  36.165   3.569   8.853
 7208POPC   GL229978  36.221   3.546   8.853
 7208POPC   C1A29979  36.098   3.522   8.553
 7208POPC   D2A29980  36.146   3.536   8.253
 7208POPC   C3A29981  36.165   3.560   7.953
 7208POPC   C4A29982  36.101   3.523   7.653
 7208POPC   C1B29983  36.400   3.477   8.553
 7208POPC   C2B29984  36.328   3.484   8.253
 7208POPC   C3B29985  36.363   3.494   7.953
 7208POPC   C4B29986  36.370   3.474   7.653
 7209POPC   NC329987   1.968  38.437   9.453
 7209POPC   PO429988   2.004  38.449   9.153
 7209POPC   GL129989   1.951  38.462   8.853
 7209POPC   GL229990   1.901  38.425   8.853
 7209POPC   C1A29991   2.037  38.500   8.553
 7209POPC   D2A29992   2.015  38.448   8.253
 7209POPC   C3A29993   1.967  38.466   7.953
 7209POPC   C4A29994   2.006  38.460   7.653
 7209POPC   C1B29995   1.720  38.478   8.553
 7209POPC   C2B29996   1.700  38.440   8.253
 7209POPC   C3B29997   1.717  38.465   7.953
 7209POPC   C4B29998   1.706  38.482   7.653
 7210POPC   NC329999   2.777   9.763   9.453
 7210POPC   PO430000   2.721   9.767   9.153
 7210POPC   GL130001   2.800   9.789   8.853
 7210POPC   GL230002   2.903   9.638   8.853
 7210POPC   C1A30003   2.751   9.763   8.553
 7210POPC   D2A30004   2.797   9.705   8.253
 7210POPC   C3A30005   2.812   9.785   7.953
 7210POPC   C4A30006   2.789   9.724   7.653
 7210POPC   C1B30007   3.024   9.622   8.553
 7210POPC   C2B30008   3.025   9.668   8.253
 7210POPC   C3B30009   2.945   9.595   7.953
 7210POPC   C4B30010   2.954   9.658   7.653
 7211POPC   NC330011  15.227   3.527   9.453
 7211POPC   PO430012  15.216   3.536   9.153
 7211POPC   GL130013  15.179   3.577   8.853
 7211POPC   GL230014  15.295   3.526   8.853
 7211POPC   C1A30015  15.142   3.568   8.553
 7211POPC   D2A30016  15.138   3.569   8.253
 7211POPC   C3A30017  15.153   3.523   7.953
 7211POPC   C4A30018  15.152   3.586   7.653
 7211POPC   C1B30019  15.440   3.610   8.553
 7211POPC   C2B30020  15.425   3.564   8.253
 7211POPC   C3B30021  15.451   3.567   7.953
 7211POPC   C4B30022  15.446   3.647   7.653
 7212POPC   NC330023  33.035  22.120   9.453
 7212POPC   PO430024  33.070  22.152   9.153
 7212POPC   GL130025  33.019  22.144   8.853
 7212POPC   GL230026  33.018  22.030   8.853
 7212POPC   C1A30027  32.985  22.198   8.553
 7212POPC   D2A30028  33.002  22.196   8.253
 7212POPC   C3A30029  33.040  22.130   7.953
 7212POPC   C4A30030  33.022  22.142   7.653
 7212POPC   C1B30031  32.889  21.935   8.553
 7212POPC   C2B30032  32.925  21.938   8.253
 7212POPC   C3B30033  32.963  21.925   7.953
 7212POPC   C4B30034  32.973  21.901   7.653
 7213POPC   NC330035  31.453   5.897   9.453
 7213POPC   PO430036  31.494   5.852   9.153
 7213POPC   GL130037  31.512   5.897   8.853
 7213POPC   GL230038  31.595   5.774   8.853
 7213POPC   C1A30039  31.442   5.846   8.553
 7213POPC   D2A30040  31.472   5.912   8.253
 7213POPC   C3A30041  31.517   5.884   7.953
 7213POPC   C4A30042  31.439   5.833   7.653
 7213POPC   C1B30043  31.612   5.733   8.553
 7213POPC   C2B30044  31.685   5.673   8.253
 7213POPC   C3B30045  31.654   5.653   7.953
 7213POPC   C4B30046  31.623   5.745   7.653
 7214POPC   NC330047  10.552  34.562   9.453
 7214POPC   PO430048  10.568  34.553   9.153
 7214POPC   GL130049  10.502  34.542   8.853
 7214POPC   GL230050  10.457  34.473   8.853
 7214POPC   C1A30051  10.560  34.624   8.553
 7214POPC   D2A30052  10.487  34.533   8.253
 7214POPC   C3A30053  10.515  34.546   7.953
 7214POPC   C4A30054  10.553  34.607   7.653
 7214POPC   C1B30055  10.330  34.392   8.553
 7214POPC   C2B30056  10.304  34.430   8.253
 7214POPC   C3B30057  10.392  34.362   7.953
 7214POPC   C4B30058  10.358  34.387   7.653
 7215POPC   NC330059  20.643  22.975   9.453
 7215POPC   PO430060  20.610  22.987   9.153
 7215POPC   GL130061  20.619  22.952   8.853
 7215POPC   GL230062  20.582  23.099   8.853
 7215POPC   C1A30063  20.616  22.987   8.553
 7215POPC   D2A30064  20.637  22.961   8.253
 7215POPC   C3A30065  20.590  22.952   7.953
 7215POPC   C4A30066  20.650  22.918   7.653
 7215POPC   C1B30067  20.564  23.176   8.553
 7215POPC   C2B30068  20.507  23.160   8.253
 7215POPC   C3B30069  20.504  23.181   7.953
 7215POPC   C4B30070  20.506  23.213   7.653
 7216POPC   NC330071  33.045  32.285   9.453
 7216POPC   PO430072  33.041  32.248   9.153
 7216POPC   GL130073  32.980  32.242   8.853
 7216POPC   GL230074  33.132  32.292   8.853
 7216POPC   C1A30075  33.043  32.206   8.553
 7216POPC   D2A30076  33.044  32.295   8.253
 7216POPC   C3A30077  33.055  32.214   7.953
 7216POPC   C4A30078  33.057  32.235   7.653
 7216POPC   C1B30079  33.227  32.358   8.553
 7216POPC   C2B30080  33.241  32.395   8.253
 7216POPC   C3B30081  33.196  32.359   7.953
 7216POPC   C4B30082  33.218  32.350   7.653
 7217POPC   NC330083   4.309  22.119   9.453
 7217POPC   PO430084   4.306  22.114   9.153
 7217POPC   GL130085   4.316  22.194   8.853
 7217POPC   GL230086   4.239  22.287   8.853
 7217POPC   C1A30087   4.342  22.206   8.553
 7217POPC   D2A30088   4.278  22.128   8.253
 7217POPC   C3A30089   4.275  22.158   7.953
 7217POPC   C4A30090   4.289  22.184   7.653
 7217POPC   C1B30091   4.142  22.359   8.553
 7217POPC   C2B30092   4.186  22.367   8.253
 7217POPC   C3B30093   4.235  22.413   7.953
 7217POPC   C4B30094   4.231  22.370   7.653
 7218POPC   NC330095  29.907  43.063   9.453
 7218POPC   PO430096  29.877  43.154   9.153
 7218POPC   GL130097  29.940  43.072   8.853
 7218POPC   GL230098  29.975  42.952   8.853
 7218POPC   C1A30099  29.951  43.069   8.553
 7218POPC   D2A30100  29.910  43.157   8.253
 7218POPC   C3A30101  29.941  43.143   7.953
 7218POPC   C4A30102  29.886  43.111   7.653
 7218POPC   C1B30103  30.056  42.856   8.553
 7218POPC   C2B30104  29.980  42.884   8.253
 7218POPC   C3B30105  30.047  42.856   7.953
 7218POPC   C4B30106  30.056  42.903   7.653
 7219POPC   NC330107  38.420  33.020   9.453
 7219POPC   PO430108  38.501  33.000   9.153
 7219POPC   GL130109  38.481  32.982   8.853
 7219POPC   GL230110  38.324  32.911   8.853
 7219POPC   C1A30111  38.466  32.998   8.553
 7219POPC   D2A30112  38.458  33.002   8.253
 7219POPC   C3A30113  38.461  33.062   7.953
 7219POPC   C4A30114  38.467  33.029   7.653
 7219POPC   C1B30115  38.228  32.856   8.553
 7219POPC   C2B30116  38.283  32.819   8.253
 7219POPC   C3B30117  38.269  32.859   7.953
 7219POPC   C4B30118  38.232  32.833   7.653
 7220POPC   NC330119  18.271   8.996   9.453
 7220POPC   PO430120  18.259   9.017   9.153
 7220POPC   GL130121  18.292   8.971   8.853
 7220POPC   GL230122  18.388   8.869   8.853
 7220POPC   C1A30123  18.260   8.979   8.553
 7220POPC   D2A30124  18.238   8.943   8.253
 7220POPC   C3A30125  18.289   9.001   7.953
 7220POPC   C4A30126  18.246   8.937   7.653
 7220POPC   C1B30127  18.435   8.758   8.553
 7220POPC   C2B30128  18.447   8.798   8.253
 7220POPC   C3B30129  18.450   8.796   7.953
 7220POPC   C4B30130  18.358   8.750   7.653
 7221POPC   NC330131   0.424  11.334   9.453
 7221POPC   PO430132   0.412  11.312   9.153
 7221POPC   GL130133   0.460  11.340   8.853
 7221POPC   GL230134   0.436  11.369   8.853
 7221POPC   C1A30135   0.474  11.319   8.553
 7221POPC   D2A30136   0.433  11.312   8.253
 7221POPC   C3A30137   0.426  11.342   7.953
 7221POPC   C4A30138   0.398  11.314   7.653
 7221POPC   C1B30139   0.574  11.569   8.553
 7221POPC   C2B30140   0.529  11.538   8.253
 7221POPC   C3B30141   0.484  11.550   7.953
 7221POPC   C4B30142   0.515  11.500   7.653
 7222POPC   NC330143  35.371  30.670   9.453
 7222POPC   PO430144  35.376  30.733   9.153
 7222POPC   GL130145  35.317  30.747   8.853
 7222POPC   GL230146  35.288  30.607   8.853
 7222POPC   C1A30147  35.307  30.722   8.553
 7222POPC   D2A30148  35.351  30.671   8.253
 7222POPC   C3A30149  35.394  30.721   7.953
 7222POPC   C4A30150  35.364  30.715   7.653
 7222POPC   C1B30151  35.313  30.496   8.553
 7222POPC   C2B30152  35.283  30.472   8.253
 7222POPC   C3B30153  35.283  30.408   7.953
 7222POPC   C4B30154  35.300  30.458   7.653
 7223POPC   NC330155  37.721  25.313   9.453
 7223POPC   PO430156  37.643  25.239   9.153
 7223POPC   GL130157  37.690  25.289   8.853
 7223POPC   GL230158  37.557  25.357   8.853
 7223POPC   C1A30159  37.693  25.302   8.553
 7223POPC   D2A30160  37.673  25.240   8.253
 7223POPC   C3A30161  37.707  25.242   7.953
 7223POPC   C4A30162  37.726  25.315   7.653
 7223POPC   C1B30163  37.428  25.352   8.553
 7223POPC   C2B30164  37.410  25.391   8.253
 7223POPC   C3B30165  37.490  25.391   7.953
 7223POPC   C4B30166  37.472  25.344   7.653
 7224POPC   NC330167  39.990  28.351   9.453
 7224POPC   PO430168  39.983  28.346   9.153
 7224POPC   GL130169  39.978  28.325   8.853
 7224POPC   GL230170  40.174  28.392   8.853
 7224POPC   C1A30171  39.974  28.330   8.553
 7224POPC   D2A30172  39.980  28.373   8.253
 7224POPC   C3A30173  39.995  28.337   7.953
 7224POPC   C4A30174  39.993  28.333   7.653
 7224POPC   C1B30175  40.287  28.324   8.553
 7224POPC   C2B30176  40.212  28.398   8.253
 7224POPC   C3B30177  40.214  28.333   7.953
 7224POPC   C4B30178  40.229  28.309   7.653
 7225POPC   NC330179  16.754   2.788   9.453
 7225POPC   PO430180  16.719   2.774   9.153
 7225POPC   GL130181  16.694   2.749   8.853
 7225POPC   GL230182  16.822   2.724   8.853
 7225POPC   C1A30183  16.747   2.759   8.553
 7225POPC   D2A30184  16.686   2.766   8.253
 7225POPC   C3A30185  16.702   2.718   7.953
 7225POPC   C4A30186  16.736   2.760   7.653
 7225POPC   C1B30187  17.007   2.776   8.553
 7225POPC   C2B30188  16.987   2.779   8.253
 7225POPC   C3B30189  17.011   2.781   7.953
 7225POPC   C4B30190  17.006   2.713   7.653
 7226POPC   NC330191  23.685  15.168   9.453
 7226POPC   PO430192  23.671  15.164   9.153
 7226POPC   GL130193  23.712  15.166   8.853
 7226POPC   GL230194  23.622  15.187   8.853
 7226POPC   C1A30195  23.721  15.157   8.553
 7226POPC   D2A30196  23.700  15.216   8.253
 7226POPC   C3A30197  23.720  15.227   7.953
 7226POPC   C4A30198  23.707  15.180   7.653
 7226POPC   C1B30199  23.468  15.257   8.553
 7226POPC   C2B30200  23.497  15.277   8.253
 7226POPC   C3B30201  23.511  15.269   7.953
 7226POPC   C4B30202  23.473  15.321   7.653
 7227POPC   NC330203  27.571  15.924   9.453
 7227POPC   PO430204  27.633  15.951   9.153
 7227POPC   GL130205  27.622  15.992   8.853
 7227POPC   GL230206  27.670  16.021   8.853
 7227POPC   C1A30207  27.611  15.968   8.553
 7227POPC   D2A30208  27.561  15.946   8.253
 7227POPC   C3A30209  27.636  15.986   7.953
 7227POPC   C4A30210  27.564  15.957   7.653
 7227POPC   C1B30211  27.807  16.087   8.553
 7227POPC   C2B30212  27.786  16.087   8.253
 7227POPC   C3B30213  27.814  16.013   7.953
 7227POPC   C4B30214  27.791  16.028   7.653
 7228POPC   NC330215  40.008   3.547   9.453
 7228POPC   PO430216  40.050   3.527   9.153
 7228POPC   GL130217  40.046   3.570   8.853
 7228POPC   GL230218  39.972   3.422   8.853
 7228POPC   C1A30219  40.002   3.553   8.553
 7228POPC   D2A30220  39.966   3.575   8.253
 7228POPC   C3A30221  40.025   3.531   7.953
 7228POPC   C4A30222  39.965   3.521   7.653
 7228POPC   C1B30223  39.863   3.300   8.553
 7228POPC   C2B30224  39.864   3.372   8.253
 7228POPC   C3B30225  39.831   3.317   7.953
 7228POPC   C4B30226  39.851   3.290   7.653
 7229POPC   NC330227  32.217   4.299   9.453
 7229POPC   PO430228  32.205   4.290   9.153
 7229POPC   GL130229  32.279   4.302   8.853
 7229POPC   GL230230  32.166   4.316   8.853
 7229POPC   C1A30231  32.217   4.274   8.553
 7229POPC   D2A30232  32.203   4.274   8.253
 7229POPC   C3A30233  32.257   4.273   7.953
 7229POPC   C4A30234  32.221   4.346   7.653
 7229POPC   C1B30235  31.997   4.352   8.553
 7229POPC   C2B30236  31.963   4.324   8.253
 7229POPC   C3B30237  32.027   4.372   7.953
 7229POPC   C4B30238  31.994   4.319   7.653
 7230POPC   NC330239  17.553   1.975   9.453
 7230POPC   PO430240  17.462   1.962   9.153
 7230POPC   GL130241  17.476   2.015   8.853
 7230POPC   GL230242  17.459   2.120   8.853
 7230POPC   C1A30243  17.553   1.990   8.553
 7230POPC   D2A30244  17.485   1.975   8.253
 7230POPC   C3A30245  17.549   2.007   7.953
 7230POPC   C4A30246  17.477   1.974   7.653
 7230POPC   C1B30247  17.382   2.207   8.553
 7230POPC   C2B30248  17.427   2.170   8.253
 7230POPC   C3B30249  17.374   2.248   7.953
 7230POPC   C4B30250  17.393   2.213   7.653
 7231POPC   NC330251  44.687  40.816   9.453
 7231POPC   PO430252  44.688  40.758   9.153
 7231POPC   GL130253  44.633  40.749   8.853
 7231POPC   GL230254  44.823  40.813   8.853
 7231POPC   C1A30255  44.709  40.734   8.553
 7231POPC   D2A30256  44.635  40.802   8.253
 7231POPC   C3A30257  44.653  40.822   7.953
 7231POPC   C4A30258  44.645  40.831   7.653
 7231POPC   C1B30259  44.899  40.754   8.553
 7231POPC   C2B30260  44.923  40.825   8.253
 7231POPC   C3B30261  44.892  40.743   7.953
 7231POPC   C4B30262  44.909  40.795   7.653
 7232POPC   NC330263  24.481  39.240   9.453
 7232POPC   PO430264  24.530  39.197   9.153
 7232POPC   GL130265  24.481  39.246   8.853
 7232POPC   GL230266  24.412  39.141   8.853
 7232POPC   C1A30267  24.457  39.182   8.553
 7232POPC   D2A30268  24.463  39.267   8.253
 7232POPC   C3A30269  24.531  39.260   7.953
 7232POPC   C4A30270  24.469  39.253   7.653
 7232POPC   C1B30271  24.365  38.986   8.553
 7232POPC   C2B30272  24.356  39.044   8.253
 7232POPC   C3B30273  24.378  38.969   7.953
 7232POPC   C4B30274  24.382  38.987   7.653
 7233POPC   NC330275  43.151  28.338   9.453
 7233POPC   PO430276  43.099  28.340   9.153
 7233POPC   GL130277  43.074  28.358   8.853
 7233POPC   GL230278  43.209  28.494   8.853
 7233POPC   C1A30279  43.090  28.398   8.553
 7233POPC   D2A30280  43.102  28.338   8.253
 7233POPC   C3A30281  43.157  28.348   7.953
 7233POPC   C4A30282  43.096  28.352   7.653
 7233POPC   C1B30283  43.285  28.517   8.553
 7233POPC   C2B30284  43.238  28.594   8.253
 7233POPC   C3B30285  43.303  28.578   7.953
 7233POPC   C4B30286  43.258  28.594   7.653
 7234POPC   NC330287   1.230  16.726   9.453
 7234POPC   PO430288   1.170  16.729   9.153
 7234POPC   GL130289   1.229  16.721   8.853
 7234POPC   GL230290   1.181  16.604   8.853
 7234POPC   C1A30291   1.180  16.778   8.553
 7234POPC   D2A30292   1.262  16.741   8.253
 7234POPC   C3A30293   1.193  16.695   7.953
 7234POPC   C4A30294   1.209  16.722   7.653
 7234POPC   C1B30295   1.269  16.455   8.553
 7234POPC   C2B30296   1.198  16.475   8.253
 7234POPC   C3B30297   1.224  16.477   7.953
 7234POPC   C4B30298   1.212  16.452   7.653
 7235POPC   NC330299  31.441   2.761   9.453
 7235POPC   PO430300  31.510   2.718   9.153
 7235POPC   GL130301  31.489   2.798   8.853
 7235POPC   GL230302  31.544   2.631   8.853
 7235POPC   C1A30303  31.459   2.781   8.553
 7235POPC   D2A30304  31.461   2.803   8.253
 7235POPC   C3A30305  31.500   2.720   7.953
 7235POPC   C4A30306  31.466   2.754   7.653
 7235POPC   C1B30307  31.622   2.523   8.553
 7235POPC   C2B30308  31.570   2.574   8.253
 7235POPC   C3B30309  31.540   2.563   7.953
 7235POPC   C4B30310  31.548   2.565   7.653
 7236POPC   NC330311  42.309  41.607   9.453
 7236POPC   PO430312  42.340  41.545   9.153
 7236POPC   GL130313  42.342  41.545   8.853
 7236POPC   GL230314  42.262  41.716   8.853
 7236POPC   C1A30315  42.316  41.541   8.553
 7236POPC   D2A30316  42.381  41.608   8.253
 7236POPC   C3A30317  42.381  41.579   7.953
 7236POPC   C4A30318  42.297  41.548   7.653
 7236POPC   C1B30319  42.240  41.819   8.553
 7236POPC   C2B30320  42.225  41.837   8.253
 7236POPC   C3B30321  42.279  41.780   7.953
 7236POPC   C4B30322  42.293  41.809   7.653
 7237POPC   NC330323   1.167   4.325   9.453
 7237POPC   PO430324   1.183   4.300   9.153
 7237POPC   GL130325   1.185   4.353   8.853
 7237POPC   GL230326   1.376   4.300   8.853
 7237POPC   C1A30327   1.235   4.281   8.553
 7237POPC   D2A30328   1.211   4.340   8.253
 7237POPC   C3A30329   1.169   4.355   7.953
 7237POPC   C4A30330   1.168   4.349   7.653
 7237POPC   C1B30331   1.490   4.334   8.553
 7237POPC   C2B30332   1.461   4.384   8.253
 7237POPC   C3B30333   1.490   4.372   7.953
 7237POPC   C4B30334   1.421   4.348   7.653
 7238POPC   NC330335  38.491  32.248   9.453
 7238POPC   PO430336  38.502  32.287   9.153
 7238POPC   GL130337  38.488  32.261   8.853
 7238POPC   GL230338  38.431  32.374   8.853
 7238POPC   C1A30339  38.501  32.234   8.553
 7238POPC   D2A30340  38.471  32.224   8.253
 7238POPC   C3A30341  38.478  32.215   7.953
 7238POPC   C4A30342  38.413  32.234   7.653
 7238POPC   C1B30343  38.412  32.534   8.553
 7238POPC   C2B30344  38.445  32.458   8.253
 7238POPC   C3B30345  38.449  32.520   7.953
 7238POPC   C4B30346  38.476  32.493   7.653
 7239POPC   NC330347  31.428  43.062   9.453
 7239POPC   PO430348  31.453  43.115   9.153
 7239POPC   GL130349  31.466  43.081   8.853
 7239POPC   GL230350  31.346  43.219   8.853
 7239POPC   C1A30351  31.490  43.120   8.553
 7239POPC   D2A30352  31.474  43.087   8.253
 7239POPC   C3A30353  31.482  43.104   7.953
 7239POPC   C4A30354  31.512  43.160   7.653
 7239POPC   C1B30355  31.244  43.199   8.553
 7239POPC   C2B30356  31.290  43.247   8.253
 7239POPC   C3B30357  31.219  43.269   7.953
 7239POPC   C4B30358  31.261  43.227   7.653
 7240POPC   NC330359  15.946  27.628   9.453
 7240POPC   PO430360  15.966  27.602   9.153
 7240POPC   GL130361  15.956  27.622   8.853
 7240POPC   GL230362  16.009  27.700   8.853
 7240POPC   C1A30363  15.949  27.626   8.553
 7240POPC   D2A30364  15.971  27.607   8.253
 7240POPC   C3A30365  15.998  27.638   7.953
 7240POPC   C4A30366  15.976  27.642   7.653
 7240POPC   C1B30367  16.020  27.833   8.553
 7240POPC   C2B30368  16.025  27.878   8.253
 7240POPC   C3B30369  15.951  27.804   7.953
 7240POPC   C4B30370  15.972  27.826   7.653
 7241POPC   NC330371  35.348  33.787   9.453
 7241POPC   PO430372  35.369  33.817   9.153
 7241POPC   GL130373  35.349  33.831   8.853
 7241POPC   GL230374  35.324  33.921   8.853
 7241POPC   C1A30375  35.366  33.805   8.553
 7241POPC   D2A30376  35.372  33.818   8.253
 7241POPC   C3A30377  35.367  33.798   7.953
 7241POPC   C4A30378  35.321  33.768   7.653
 7241POPC   C1B30379  35.360  34.070   8.553
 7241POPC   C2B30380  35.303  34.071   8.253
 7241POPC   C3B30381  35.374  34.007   7.953
 7241POPC   C4B30382  35.379  34.082   7.653
 7242POPC   NC330383  42.361   9.718   9.453
 7242POPC   PO430384  42.370   9.740   9.153
 7242POPC   GL130385  42.377   9.727   8.853
 7242POPC   GL230386  42.259   9.787   8.853
 7242POPC   C1A30387  42.297   9.725   8.553
 7242POPC   D2A30388  42.286   9.724   8.253
 7242POPC   C3A30389  42.369   9.754   7.953
 7242POPC   C4A30390  42.335   9.793   7.653
 7242POPC   C1B30391  42.155   9.968   8.553
 7242POPC   C2B30392  42.170   9.951   8.253
 7242POPC   C3B30393  42.198   9.944   7.953
 7242POPC   C4B30394  42.194   9.930   7.653
 7243POPC   NC330395  30.649  13.628   9.453
 7243POPC   PO430396  30.684  13.602   9.153
 7243POPC   GL130397  30.669  13.632   8.853
 7243POPC   GL230398  30.840  13.590   8.853
 7243POPC   C1A30399  30.688  13.606   8.553
 7243POPC   D2A30400  30.659  13.676   8.253
 7243POPC   C3A30401  30.701  13.599   7.953
 7243POPC   C4A30402  30.679  13.616   7.653
 7243POPC   C1B30403  30.932  13.468   8.553
 7243POPC   C2B30404  30.929  13.516   8.253
 7243POPC   C3B30405  30.921  13.519   7.953
 7243POPC   C4B30406  30.870  13.496   7.653
 7244POPC   NC330407  33.769  26.835   9.453
 7244POPC   PO430408  33.791  26.781   9.153
 7244POPC   GL130409  33.796  26.817   8.853
 7244POPC   GL230410  33.907  26.911   8.853
 7244POPC   C1A30411  33.839  26.790   8.553
 7244POPC   D2A30412  33.789  26.816   8.253
 7244POPC   C3A30413  33.842  26.848   7.953
 7244POPC   C4A30414  33.805  26.826   7.653
 7244POPC   C1B30415  34.006  26.973   8.553
 7244POPC   C2B30416  34.018  26.905   8.253
 7244POPC   C3B30417  33.999  26.932   7.953
 7244POPC   C4B30418  34.034  26.968   7.653
 7245POPC   NC330419  30.726  36.912   9.453
 7245POPC   PO430420  30.719  36.890   9.153
 7245POPC   GL130421  30.699  36.906   8.853
 7245POPC   GL230422  30.810  37.002   8.853
 7245POPC   C1A30423  30.655  36.869   8.553
 7245POPC   D2A30424  30.699  36.912   8.253
 7245POPC   C3A30425  30.663  36.913   7.953
 7245POPC   C4A30426  30.745  36.926   7.653
 7245POPC   C1B30427  30.861  37.040   8.553
 7245POPC   C2B30428  30.833  37.129   8.253
 7245POPC   C3B30429  30.824  37.114   7.953
 7245POPC   C4B30430  30.898  37.098   7.653
 7246POPC   NC330431   2.785  11.258   9.453
 7246POPC   PO430432   2.804  11.337   9.153
 7246POPC   GL130433   2.783  11.271   8.853
 7246POPC   GL230434   2.849  11.264   8.853
 7246POPC   C1A30435   2.746  11.334   8.553
 7246POPC   D2A30436   2.716  11.263   8.253
 7246POPC   C3A30437   2.727  11.303   7.953
 7246POPC   C4A30438   2.785  11.308   7.653
 7246POPC   C1B30439   2.975  11.193   8.553
 7246POPC   C2B30440   3.024  11.243   8.253
 7246POPC   C3B30441   2.953  11.245   7.953
 7246POPC   C4B30442   3.025  11.179   7.653
 7247POPC   NC330443  12.101  43.075   9.453
 7247POPC   PO430444  12.055  43.101   9.153
 7247POPC   GL130445  12.027  43.067   8.853
 7247POPC   GL230446  12.063  43.270   8.853
 7247POPC   C1A30447  12.064  43.100   8.553
 7247POPC   D2A30448  12.064  43.110   8.253
 7247POPC   C3A30449  12.075  43.127   7.953
 7247POPC   C4A30450  12.048  43.103   7.653
 7247POPC   C1B30451  12.065  43.407   8.553
 7247POPC   C2B30452  12.104  43.381   8.253
 7247POPC   C3B30453  12.141  43.326   7.953
 7247POPC   C4B30454  12.058  43.346   7.653
 7248POPC   NC330455  22.117   9.776   9.453
 7248POPC   PO430456  22.195   9.761   9.153
 7248POPC   GL130457  22.146   9.724   8.853
 7248POPC   GL230458  22.115   9.675   8.853
 7248POPC   C1A30459  22.117   9.705   8.553
 7248POPC   D2A30460  22.202   9.714   8.253
 7248POPC   C3A30461  22.168   9.736   7.953
 7248POPC   C4A30462  22.169   9.793   7.653
 7248POPC   C1B30463  22.007   9.528   8.553
 7248POPC   C2B30464  21.972   9.593   8.253
 7248POPC   C3B30465  22.015   9.532   7.953
 7248POPC   C4B30466  21.997   9.588   7.653
 7249POPC   NC330467   4.288  35.310   9.453
 7249POPC   PO430468   4.350  35.388   9.153
 7249POPC   GL130469   4.355  35.384   8.853
 7249POPC   GL230470   4.292  35.513   8.853
 7249POPC   C1A30471   4.298  35.352   8.553
 7249POPC   D2A30472   4.300  35.393   8.253
 7249POPC   C3A30473   4.331  35.355   7.953
 7249POPC   C4A30474   4.288  35.370   7.653
 7249POPC   C1B30475   4.321  35.551   8.553
 7249POPC   C2B30476   4.352  35.580   8.253
 7249POPC   C3B30477   4.342  35.643   7.953
 7249POPC   C4B30478   4.408  35.576   7.653
 7250POPC   NC330479  31.423  40.779   9.453
 7250POPC   PO430480  31.491  40.763   9.153
 7250POPC   GL130481  31.472  40.770   8.853
 7250POPC   GL230482  31.530  40.710   8.853
 7250POPC   C1A30483  31.423  40.808   8.553
 7250POPC   D2A30484  31.498  40.772   8.253
 7250POPC   C3A30485  31.515  40.804   7.953
 7250POPC   C4A30486  31.471  40.762   7.653
 7250POPC   C1B30487  31.606  40.572   8.553
 7250POPC   C2B30488  31.575  40.578   8.253
 7250POPC   C3B30489  31.550  40.564   7.953
 7250POPC   C4B30490  31.605  40.579   7.653
 7251POPC   NC330491  39.224  39.211   9.453
 7251POPC   PO430492  39.247  39.222   9.153
 7251POPC   GL130493  39.183  39.275   8.853
 7251POPC   GL230494  39.256  39.097   8.853
 7251POPC   C1A30495  39.272  39.203   8.553
 7251POPC   D2A30496  39.236  39.278   8.253
 7251POPC   C3A30497  39.252  39.245   7.953
 7251POPC   C4A30498  39.212  39.202   7.653
 7251POPC   C1B30499  39.407  39.006   8.553
 7251POPC   C2B30500  39.366  39.049   8.253
 7251POPC   C3B30501  39.409  39.062   7.953
 7251POPC   C4B30502  39.349  39.078   7.653
 7252POPC   NC330503  36.103   0.473   9.453
 7252POPC   PO430504  36.173   0.462   9.153
 7252POPC   GL130505  36.172   0.429   8.853
 7252POPC   GL230506  36.265   0.512   8.853
 7252POPC   C1A30507  36.093   0.443   8.553
 7252POPC   D2A30508  36.151   0.444   8.253
 7252POPC   C3A30509  36.120   0.419   7.953
 7252POPC   C4A30510  36.143   0.446   7.653
 7252POPC   C1B30511  36.317   0.587   8.553
 7252POPC   C2B30512  36.339   0.595   8.253
 7252POPC   C3B30513  36.355   0.619   7.953
 7252POPC   C4B30514  36.287   0.638   7.653
 7253POPC   NC330515  43.869  26.823   9.453
 7253POPC   PO430516  43.874  26.847   9.153
 7253POPC   GL130517  43.866  26.772   8.853
 7253POPC   GL230518  43.955  26.920   8.853
 7253POPC   C1A30519  43.848  26.824   8.553
 7253POPC   D2A30520  43.860  26.828   8.253
 7253POPC   C3A30521  43.916  26.823   7.953
 7253POPC   C4A30522  43.896  26.771   7.653
 7253POPC   C1B30523  43.886  27.091   8.553
 7253POPC   C2B30524  43.902  27.018   8.253
 7253POPC   C3B30525  43.914  27.067   7.953
 7253POPC   C4B30526  43.892  27.063   7.653
 7254POPC   NC330527  12.051  14.438   9.453
 7254POPC   PO430528  12.125  14.360   9.153
 7254POPC   GL130529  12.030  14.371   8.853
 7254POPC   GL230530  11.919  14.392   8.853
 7254POPC   C1A30531  12.125  14.417   8.553
 7254POPC   D2A30532  12.094  14.361   8.253
 7254POPC   C3A30533  12.110  14.358   7.953
 7254POPC   C4A30534  12.085  14.442   7.653
 7254POPC   C1B30535  11.877  14.268   8.553
 7254POPC   C2B30536  11.841  14.297   8.253
 7254POPC   C3B30537  11.834  14.318   7.953
 7254POPC   C4B30538  11.794  14.288   7.653
 7255POPC   NC330539   1.170  34.600   9.453
 7255POPC   PO430540   1.233  34.559   9.153
 7255POPC   GL130541   1.194  34.579   8.853
 7255POPC   GL230542   1.174  34.723   8.853
 7255POPC   C1A30543   1.238  34.542   8.553
 7255POPC   D2A30544   1.239  34.618   8.253
 7255POPC   C3A30545   1.210  34.625   7.953
 7255POPC   C4A30546   1.191  34.623   7.653
 7255POPC   C1B30547   1.123  34.866   8.553
 7255POPC   C2B30548   1.145  34.783   8.253
 7255POPC   C3B30549   1.120  34.776   7.953
 7255POPC   C4B30550   1.098  34.859   7.653
 7256POPC   NC330551  21.432  33.020   9.453
 7256POPC   PO430552  21.406  32.999   9.153
 7256POPC   GL130553  21.366  33.038   8.853
 7256POPC   GL230554  21.298  33.019   8.853
 7256POPC   C1A30555  21.383  32.984   8.553
 7256POPC   D2A30556  21.392  33.011   8.253
 7256POPC   C3A30557  21.343  33.003   7.953
 7256POPC   C4A30558  21.415  33.020   7.653
 7256POPC   C1B30559  21.126  32.935   8.553
 7256POPC   C2B30560  21.115  32.991   8.253
 7256POPC   C3B30561  21.120  32.933   7.953
 7256POPC   C4B30562  21.174  32.985   7.653
 7257POPC   NC330563  43.907  36.169   9.453
 7257POPC   PO430564  43.841  36.162   9.153
 7257POPC   GL130565  43.844  36.153   8.853
 7257POPC   GL230566  43.769  36.174   8.853
 7257POPC   C1A30567  43.927  36.084   8.553
 7257POPC   D2A30568  43.849  36.137   8.253
 7257POPC   C3A30569  43.915  36.178   7.953
 7257POPC   C4A30570  43.917  36.104   7.653
 7257POPC   C1B30571  43.635  36.166   8.553
 7257POPC   C2B30572  43.647  36.183   8.253
 7257POPC   C3B30573  43.616  36.213   7.953
 7257POPC   C4B30574  43.640  36.162   7.653
 7258POPC   NC330575  44.711  17.523   9.453
 7258POPC   PO430576  44.645  17.528   9.153
 7258POPC   GL130577  44.623  17.508   8.853
 7258POPC   GL230578  44.796  17.547   8.853
 7258POPC   C1A30579  44.640  17.514   8.553
 7258POPC   D2A30580  44.699  17.505   8.253
 7258POPC   C3A30581  44.676  17.483   7.953
 7258POPC   C4A30582  44.651  17.464   7.653
 7258POPC   C1B30583  44.931  17.634   8.553
 7258POPC   C2B30584  44.865  17.547   8.253
 7258POPC   C3B30585  44.873  17.581   7.953
 7258POPC   C4B30586  44.852  17.559   7.653
 7259POPC   NC330587   8.152  36.140   9.453
 7259POPC   PO430588   8.221  36.152   9.153
 7259POPC   GL130589   8.244  36.088   8.853
 7259POPC   GL230590   8.242  36.212   8.853
 7259POPC   C1A30591   8.222  36.078   8.553
 7259POPC   D2A30592   8.185  36.116   8.253
 7259POPC   C3A30593   8.159  36.093   7.953
 7259POPC   C4A30594   8.211  36.143   7.653
 7259POPC   C1B30595   8.372  36.327   8.553
 7259POPC   C2B30596   8.332  36.325   8.253
 7259POPC   C3B30597   8.414  36.320   7.953
 7259POPC   C4B30598   8.414  36.332   7.653
 7260POPC   NC330599  34.564  29.194   9.453
 7260POPC   PO430600  34.531  29.144   9.153
 7260POPC   GL130601  34.617  29.101   8.853
 7260POPC   GL230602  34.471  29.076   8.853
 7260POPC   C1A30603  34.572  29.127   8.553
 7260POPC   D2A30604  34.547  29.138   8.253
 7260POPC   C3A30605  34.584  29.170   7.953
 7260POPC   C4A30606  34.594  29.129   7.653
 7260POPC   C1B30607  34.397  28.942   8.553
 7260POPC   C2B30608  34.420  29.002   8.253
 7260POPC   C3B30609  34.397  28.917   7.953
 7260POPC   C4B30610  34.440  28.990   7.653
 7261POPC   NC330611  40.774  19.858   9.453
 7261POPC   PO430612  40.753  19.791   9.153
 7261POPC   GL130613  40.830  19.819   8.853
 7261POPC   GL230614  40.889  19.762   8.853
 7261POPC   C1A30615  40.818  19.884   8.553
 7261POPC   D2A30616  40.780  19.828   8.253
 7261POPC   C3A30617  40.829  19.803   7.953
 7261POPC   C4A30618  40.826  19.830   7.653
 7261POPC   C1B30619  40.973  19.784   8.553
 7261POPC   C2B30620  40.999  19.715   8.253
 7261POPC   C3B30621  41.054  19.713   7.953
 7261POPC   C4B30622  41.002  19.715   7.653
 7262POPC   NC330623  24.506  19.871   9.453
 7262POPC   PO430624  24.507  19.881   9.153
 7262POPC   GL130625  24.475  19.854   8.853
 7262POPC   GL230626  24.358  19.812   8.853
 7262POPC   C1A30627  24.488  19.807   8.553
 7262POPC   D2A30628  24.513  19.859   8.253
 7262POPC   C3A30629  24.510  19.853   7.953
 7262POPC   C4A30630  24.445  19.821   7.653
 7262POPC   C1B30631  24.302  19.741   8.553
 7262POPC   C2B30632  24.243  19.662   8.253
 7262POPC   C3B30633  24.264  19.666   7.953
 7262POPC   C4B30634  24.281  19.688   7.653
 7263POPC   NC330635  19.075   6.629   9.453
 7263POPC   PO430636  19.083   6.643   9.153
 7263POPC   GL130637  19.061   6.640   8.853
 7263POPC   GL230638  19.064   6.776   8.853
 7263POPC   C1A30639  19.020   6.642   8.553
 7263POPC   D2A30640  19.015   6.684   8.253
 7263POPC   C3A30641  19.009   6.618   7.953
 7263POPC   C4A30642  19.074   6.677   7.653
 7263POPC   C1B30643  19.175   6.835   8.553
 7263POPC   C2B30644  19.186   6.847   8.253
 7263POPC   C3B30645  19.159   6.907   7.953
 7263POPC   C4B30646  19.144   6.854   7.653
 7264POPC   NC330647   8.196  20.599   9.453
 7264POPC   PO430648   8.220  20.568   9.153
 7264POPC   GL130649   8.246  20.646   8.853
 7264POPC   GL230650   8.231  20.531   8.853
 7264POPC   C1A30651   8.149  20.616   8.553
 7264POPC   D2A30652   8.174  20.614   8.253
 7264POPC   C3A30653   8.150  20.580   7.953
 7264POPC   C4A30654   8.176  20.588   7.653
 7264POPC   C1B30655   8.209  20.331   8.553
 7264POPC   C2B30656   8.204  20.324   8.253
 7264POPC   C3B30657   8.279  20.340   7.953
 7264POPC   C4B30658   8.228  20.352   7.653
 7265POPC   NC330659   7.468   5.087   9.453
 7265POPC   PO430660   7.431   5.046   9.153
 7265POPC   GL130661   7.446   5.050   8.853
 7265POPC   GL230662   7.503   5.038   8.853
 7265POPC   C1A30663   7.470   5.058   8.553
 7265POPC   D2A30664   7.438   5.133   8.253
 7265POPC   C3A30665   7.378   5.141   7.953
 7265POPC   C4A30666   7.466   5.142   7.653
 7265POPC   C1B30667   7.642   4.949   8.553
 7265POPC   C2B30668   7.590   4.956   8.253
 7265POPC   C3B30669   7.582   4.941   7.953
 7265POPC   C4B30670   7.617   4.947   7.653
 7266POPC   NC330671  25.225  12.041   9.453
 7266POPC   PO430672  25.286  12.111   9.153
 7266POPC   GL130673  25.286  12.120   8.853
 7266POPC   GL230674  25.138  11.962   8.853
 7266POPC   C1A30675  25.287  12.125   8.553
 7266POPC   D2A30676  25.262  12.037   8.253
 7266POPC   C3A30677  25.244  12.113   7.953
 7266POPC   C4A30678  25.251  12.065   7.653
 7266POPC   C1B30679  25.101  11.890   8.553
 7266POPC   C2B30680  25.065  11.875   8.253
 7266POPC   C3B30681  25.072  11.934   7.953
 7266POPC   C4B30682  25.088  11.948   7.653
 7267POPC   NC330683  43.848   9.790   9.453
 7267POPC   PO430684  43.931   9.743   9.153
 7267POPC   GL130685  43.860   9.792   8.853
 7267POPC   GL230686  43.971   9.694   8.853
 7267POPC   C1A30687  43.888   9.788   8.553
 7267POPC   D2A30688  43.893   9.708   8.253
 7267POPC   C3A30689  43.863   9.702   7.953
 7267POPC   C4A30690  43.891   9.741   7.653
 7267POPC   C1B30691  44.061   9.568   8.553
 7267POPC   C2B30692  44.061   9.558   8.253
 7267POPC   C3B30693  44.128   9.561   7.953
 7267POPC   C4B30694  44.143   9.606   7.653
 7268POPC   NC330695  12.059  38.460   9.453
 7268POPC   PO430696  12.104  38.463   9.153
 7268POPC   GL130697  12.101  38.493   8.853
 7268POPC   GL230698  12.200  38.468   8.853
 7268POPC   C1A30699  12.061  38.492   8.553
 7268POPC   D2A30700  12.100  38.431   8.253
 7268POPC   C3A30701  12.049  38.503   7.953
 7268POPC   C4A30702  12.082  38.423   7.653
 7268POPC   C1B30703  12.350  38.347   8.553
 7268POPC   C2B30704  12.354  38.438   8.253
 7268POPC   C3B30705  12.280  38.376   7.953
 7268POPC   C4B30706  12.339  38.365   7.653
 7269POPC   NC330707  14.420  27.552   9.453
 7269POPC   PO430708  14.438  27.602   9.153
 7269POPC   GL130709  14.359  27.609   8.853
 7269POPC   GL230710  14.516  27.538   8.853
 7269POPC   C1A30711  14.361  27.620   8.553
 7269POPC   D2A30712  14.370  27.598   8.253
 7269POPC   C3A30713  14.446  27.572   7.953
 7269POPC   C4A30714  14.424  27.603   7.653
 7269POPC   C1B30715  14.628  27.403   8.553
 7269POPC   C2B30716  14.590  27.442   8.253
 7269POPC   C3B30717  14.659  27.415   7.953
 7269POPC   C4B30718  14.567  27.493   7.653
 7270POPC   NC330719  10.505  28.326   9.453
 7270POPC   PO430720  10.555  28.382   9.153
 7270POPC   GL130721  10.510  28.367   8.853
 7270POPC   GL230722  10.661  28.304   8.853
 7270POPC   C1A30723  10.506  28.342   8.553
 7270POPC   D2A30724  10.503  28.353   8.253
 7270POPC   C3A30725  10.490  28.323   7.953
 7270POPC   C4A30726  10.542  28.321   7.653
 7270POPC   C1B30727  10.678  28.244   8.553
 7270POPC   C2B30728  10.711  28.184   8.253
 7270POPC   C3B30729  10.677  28.183   7.953
 7270POPC   C4B30730  10.674  28.161   7.653
 7271POPC   NC330731  37.633  15.220   9.453
 7271POPC   PO430732  37.710  15.203   9.153
 7271POPC   GL130733  37.629  15.223   8.853
 7271POPC   GL230734  37.545  15.225   8.853
 7271POPC   C1A30735  37.662  15.172   8.553
 7271POPC   D2A30736  37.676  15.136   8.253
 7271POPC   C3A30737  37.636  15.193   7.953
 7271POPC   C4A30738  37.707  15.140   7.653
 7271POPC   C1B30739  37.440  15.254   8.553
 7271POPC   C2B30740  37.462  15.209   8.253
 7271POPC   C3B30741  37.482  15.213   7.953
 7271POPC   C4B30742  37.482  15.228   7.653
 7272POPC   NC330743  25.273   2.766   9.453
 7272POPC   PO430744  25.267   2.769   9.153
 7272POPC   GL130745  25.265   2.804   8.853
 7272POPC   GL230746  25.174   2.683   8.853
 7272POPC   C1A30747  25.220   2.720   8.553
 7272POPC   D2A30748  25.222   2.762   8.253
 7272POPC   C3A30749  25.250   2.719   7.953
 7272POPC   C4A30750  25.227   2.765   7.653
 7272POPC   C1B30751  25.025   2.700   8.553
 7272POPC   C2B30752  25.084   2.643   8.253
 7272POPC   C3B30753  25.053   2.642   7.953
 7272POPC   C4B30754  25.002   2.684   7.653
 7273POPC   NC330755   5.102  24.468   9.453
 7273POPC   PO430756   5.060  24.537   9.153
 7273POPC   GL130757   5.070  24.469   8.853
 7273POPC   GL230758   5.183  24.409   8.853
 7273POPC   C1A30759   5.064  24.466   8.553
 7273POPC   D2A30760   5.140  24.485   8.253
 7273POPC   C3A30761   5.140  24.450   7.953
 7273POPC   C4A30762   5.059  24.458   7.653
 7273POPC   C1B30763   5.293  24.403   8.553
 7273POPC   C2B30764   5.285  24.383   8.253
 7273POPC   C3B30765   5.356  24.371   7.953
 7273POPC   C4B30766   5.277  24.391   7.653
 7274POPC   NC330767  35.333  42.296   9.453
 7274POPC   PO430768  35.369  42.305   9.153
 7274POPC   GL130769  35.360  42.359   8.853
 7274POPC   GL230770  35.210  42.411   8.853
 7274POPC   C1A30771  35.310  42.351   8.553
 7274POPC   D2A30772  35.323  42.311   8.253
 7274POPC   C3A30773  35.337  42.288   7.953
 7274POPC   C4A30774  35.344  42.299   7.653
 7274POPC   C1B30775  35.112  42.463   8.553
 7274POPC   C2B30776  35.119  42.431   8.253
 7274POPC   C3B30777  35.102  42.435   7.953
 7274POPC   C4B30778  35.089  42.423   7.653
 7275POPC   NC330779  30.740   0.422   9.453
 7275POPC   PO430780  30.664   0.487   9.153
 7275POPC   GL130781  30.661   0.440   8.853
 7275POPC   GL230782  30.608   0.412   8.853
 7275POPC   C1A30783  30.734   0.436   8.553
 7275POPC   D2A30784  30.653   0.437   8.253
 7275POPC   C3A30785  30.711   0.463   7.953
 7275POPC   C4A30786  30.660   0.458   7.653
 7275POPC   C1B30787  30.471   0.292   8.553
 7275POPC   C2B30788  30.517   0.298   8.253
 7275POPC   C3B30789  30.448   0.368   7.953
 7275POPC   C4B30790  30.421   0.296   7.653
 7276POPC   NC330791  39.231  42.358   9.453
 7276POPC   PO430792  39.227  42.354   9.153
 7276POPC   GL130793  39.243  42.384   8.853
 7276POPC   GL230794  39.095  42.286   8.853
 7276POPC   C1A30795  39.237  42.366   8.553
 7276POPC   D2A30796  39.243  42.352   8.253
 7276POPC   C3A30797  39.219  42.359   7.953
 7276POPC   C4A30798  39.208  42.293   7.653
 7276POPC   C1B30799  39.047  42.153   8.553
 7276POPC   C2B30800  38.997  42.202   8.253
 7276POPC   C3B30801  38.993  42.213   7.953
 7276POPC   C4B30802  38.998  42.177   7.653
 7277POPC   NC330803  33.752  43.064   9.453
 7277POPC   PO430804  33.810  43.062   9.153
 7277POPC   GL130805  33.818  43.072   8.853
 7277POPC   GL230806  33.790  42.944   8.853
 7277POPC   C1A30807  33.799  43.084   8.553
 7277POPC   D2A30808  33.821  43.086   8.253
 7277POPC   C3A30809  33.844  43.113   7.953
 7277POPC   C4A30810  33.811  43.138   7.653
 7277POPC   C1B30811  33.852  42.885   8.553
 7277POPC   C2B30812  33.873  42.833   8.253
 7277POPC   C3B30813  33.856  42.841   7.953
 7277POPC   C4B30814  33.795  42.836   7.653
 7278POPC   NC330815   6.614  12.090   9.453
 7278POPC   PO430816   6.641  12.060   9.153
 7278POPC   GL130817   6.630  12.117   8.853
 7278POPC   GL230818   6.581  12.163   8.853
 7278POPC   C1A30819   6.617  12.114   8.553
 7278POPC   D2A30820   6.597  12.098   8.253
 7278POPC   C3A30821   6.676  12.035   7.953
 7278POPC   C4A30822   6.615  12.116   7.653
 7278POPC   C1B30823   6.486  12.208   8.553
 7278POPC   C2B30824   6.421  12.222   8.253
 7278POPC   C3B30825   6.432  12.205   7.953
 7278POPC   C4B30826   6.400  12.235   7.653
 7279POPC   NC330827  15.937  42.364   9.453
 7279POPC   PO430828  15.942  42.356   9.153
 7279POPC   GL130829  15.937  42.301   8.853
 7279POPC   GL230830  15.853  42.319   8.853
 7279POPC   C1A30831  15.931  42.383   8.553
 7279POPC   D2A30832  15.923  42.361   8.253
 7279POPC   C3A30833  15.950  42.308   7.953
 7279POPC   C4A30834  15.988  42.300   7.653
 7279POPC   C1B30835  15.745  42.228   8.553
 7279POPC   C2B30836  15.680  42.291   8.253
 7279POPC   C3B30837  15.696  42.298   7.953
 7279POPC   C4B30838  15.748  42.228   7.653
 7280POPC   NC330839  35.361  27.573   9.453
 7280POPC   PO430840  35.357  27.551   9.153
 7280POPC   GL130841  35.322  27.600   8.853
 7280POPC   GL230842  35.318  27.654   8.853
 7280POPC   C1A30843  35.325  27.566   8.553
 7280POPC   D2A30844  35.314  27.592   8.253
 7280POPC   C3A30845  35.319  27.628   7.953
 7280POPC   C4A30846  35.382  27.643   7.653
 7280POPC   C1B30847  35.173  27.783   8.553
 7280POPC   C2B30848  35.241  27.755   8.253
 7280POPC   C3B30849  35.190  27.814   7.953
 7280POPC   C4B30850  35.169  27.830   7.653
 7281POPC   NC330851  22.190  21.371   9.453
 7281POPC   PO430852  22.140  21.357   9.153
 7281POPC   GL130853  22.149  21.369   8.853
 7281POPC   GL230854  22.288  21.348   8.853
 7281POPC   C1A30855  22.181  21.378   8.553
 7281POPC   D2A30856  22.164  21.352   8.253
 7281POPC   C3A30857  22.150  21.382   7.953
 7281POPC   C4A30858  22.175  21.343   7.653
 7281POPC   C1B30859  22.422  21.343   8.553
 7281POPC   C2B30860  22.426  21.391   8.253
 7281POPC   C3B30861  22.418  21.332   7.953
 7281POPC   C4B30862  22.377  21.393   7.653
 7282POPC   NC330863  12.098   5.868   9.453
 7282POPC   PO430864  12.047   5.864   9.153
 7282POPC   GL130865  12.026   5.899   8.853
 7282POPC   GL230866  11.981   5.714   8.853
 7282POPC   C1A30867  12.113   5.894   8.553
 7282POPC   D2A30868  12.046   5.834   8.253
 7282POPC   C3A30869  12.088   5.887   7.953
 7282POPC   C4A30870  12.093   5.829   7.653
 7282POPC   C1B30871  11.920   5.594   8.553
 7282POPC   C2B30872  11.964   5.654   8.253
 7282POPC   C3B30873  12.002   5.609   7.953
 7282POPC   C4B30874  11.923   5.643   7.653
 7283POPC   NC330875   2.740   8.238   9.453
 7283POPC   PO430876   2.717   8.229   9.153
 7283POPC   GL130877   2.767   8.186   8.853
 7283POPC   GL230878   2.647   8.240   8.853
 7283POPC   C1A30879   2.734   8.203   8.553
 7283POPC   D2A30880   2.802   8.163   8.253
 7283POPC   C3A30881   2.806   8.243   7.953
 7283POPC   C4A30882   2.759   8.245   7.653
 7283POPC   C1B30883   2.476   8.201   8.553
 7283POPC   C2B30884   2.498   8.253   8.253
 7283POPC   C3B30885   2.512   8.173   7.953
 7283POPC   C4B30886   2.519   8.251   7.653
 7284POPC   NC330887   5.135  43.066   9.453
 7284POPC   PO430888   5.097  43.154   9.153
 7284POPC   GL130889   5.072  43.098   8.853
 7284POPC   GL230890   4.984  43.165   8.853
 7284POPC   C1A30891   5.108  43.154   8.553
 7284POPC   D2A30892   5.131  43.088   8.253
 7284POPC   C3A30893   5.082  43.072   7.953
 7284POPC   C4A30894   5.142  43.065   7.653
 7284POPC   C1B30895   4.875  43.222   8.553
 7284POPC   C2B30896   4.861  43.183   8.253
 7284POPC   C3B30897   4.870  43.230   7.953
 7284POPC   C4B30898   4.840  43.186   7.653
 7285POPC   NC330899   9.727   9.771   9.453
 7285POPC   PO430900   9.718   9.791   9.153
 7285POPC   GL130901   9.755   9.735   8.853
 7285POPC   GL230902   9.852   9.717   8.853
 7285POPC   C1A30903   9.768   9.796   8.553
 7285POPC   D2A30904   9.717   9.736   8.253
 7285POPC   C3A30905   9.748   9.716   7.953
 7285POPC   C4A30906   9.736   9.701   7.653
 7285POPC   C1B30907  10.031   9.684   8.553
 7285POPC   C2B30908  10.040   9.686   8.253
 7285POPC   C3B30909   9.967   9.699   7.953
 7285POPC   C4B30910  10.015   9.671   7.653
 7286POPC   NC330911  42.356  17.549   9.453
 7286POPC   PO430912  42.313  17.541   9.153
 7286POPC   GL130913  42.336  17.536   8.853
 7286POPC   GL230914  42.356  17.619   8.853
 7286POPC   C1A30915  42.359  17.544   8.553
 7286POPC   D2A30916  42.367  17.513   8.253
 7286POPC   C3A30917  42.350  17.473   7.953
 7286POPC   C4A30918  42.355  17.469   7.653
 7286POPC   C1B30919  42.412  17.697   8.553
 7286POPC   C2B30920  42.421  17.699   8.253
 7286POPC   C3B30921  42.440  17.769   7.953
 7286POPC   C4B30922  42.476  17.709   7.653
 7287POPC   NC330923   5.097   1.969   9.453
 7287POPC   PO430924   5.123   2.025   9.153
 7287POPC   GL130925   5.056   2.023   8.853
 7287POPC   GL230926   5.119   2.058   8.853
 7287POPC   C1A30927   5.049   2.009   8.553
 7287POPC   D2A30928   5.101   2.007   8.253
 7287POPC   C3A30929   5.064   1.995   7.953
 7287POPC   C4A30930   5.123   2.027   7.653
 7287POPC   C1B30931   5.236   2.225   8.553
 7287POPC   C2B30932   5.216   2.209   8.253
 7287POPC   C3B30933   5.187   2.203   7.953
 7287POPC   C4B30934   5.272   2.216   7.653
 7288POPC   NC330935   0.444  16.754   9.453
 7288POPC   PO430936   0.452  16.701   9.153
 7288POPC   GL130937   0.413  16.780   8.853
 7288POPC   GL230938   0.413  16.609   8.853
 7288POPC   C1A30939   0.400  16.687   8.553
 7288POPC   D2A30940   0.460  16.684   8.253
 7288POPC   C3A30941   0.464  16.725   7.953
 7288POPC   C4A30942   0.478  16.705   7.653
 7288POPC   C1B30943   0.415  16.438   8.553
 7288POPC   C2B30944   0.421  16.472   8.253
 7288POPC   C3B30945   0.416  16.507   7.953
 7288POPC   C4B30946   0.389  16.503   7.653
 7289POPC   NC330947   7.381  36.865   9.453
 7289POPC   PO430948   7.389  36.947   9.153
 7289POPC   GL130949   7.429  36.940   8.853
 7289POPC   GL230950   7.284  37.018   8.853
 7289POPC   C1A30951   7.371  36.949   8.553
 7289POPC   D2A30952   7.441  36.863   8.253
 7289POPC   C3A30953   7.436  36.908   7.953
 7289POPC   C4A30954   7.393  36.922   7.653
 7289POPC   C1B30955   7.213  37.021   8.553
 7289POPC   C2B30956   7.203  37.032   8.253
 7289POPC   C3B30957   7.245  37.052   7.953
 7289POPC   C4B30958   7.174  37.007   7.653
 7290POPC   NC330959   1.178  15.211   9.453
 7290POPC   PO430960   1.230  15.200   9.153
 7290POPC   GL130961   1.220  15.176   8.853
 7290POPC   GL230962   1.313  15.123   8.853
 7290POPC   C1A30963   1.188  15.210   8.553
 7290POPC   D2A30964   1.178  15.157   8.253
 7290POPC   C3A30965   1.242  15.149   7.953
 7290POPC   C4A30966   1.217  15.134   7.653
 7290POPC   C1B30967   1.488  15.090   8.553
 7290POPC   C2B30968   1.483  15.122   8.253
 7290POPC   C3B30969   1.441  15.073   7.953
 7290POPC   C4B30970   1.454  15.044   7.653
 7291POPC   NC330971  20.621  17.459   9.453
 7291POPC   PO430972  20.600  17.543   9.153
 7291POPC   GL130973  20.639  17.497   8.853
 7291POPC   GL230974  20.601  17.602   8.853
 7291POPC   C1A30975  20.648  17.500   8.553
 7291POPC   D2A30976  20.655  17.480   8.253
 7291POPC   C3A30977  20.619  17.487   7.953
 7291POPC   C4A30978  20.576  17.542   7.653
 7291POPC   C1B30979  20.547  17.789   8.553
 7291POPC   C2B30980  20.578  17.734   8.253
 7291POPC   C3B30981  20.536  17.720   7.953
 7291POPC   C4B30982  20.562  17.730   7.653
 7292POPC   NC330983   5.850  11.312   9.453
 7292POPC   PO430984   5.911  11.275   9.153
 7292POPC   GL130985   5.864  11.275   8.853
 7292POPC   GL230986   5.930  11.207   8.853
 7292POPC   C1A30987   5.881  11.343   8.553
 7292POPC   D2A30988   5.897  11.261   8.253
 7292POPC   C3A30989   5.890  11.263   7.953
 7292POPC   C4A30990   5.843  11.281   7.653
 7292POPC   C1B30991   5.922  11.077   8.553
 7292POPC   C2B30992   5.905  11.041   8.253
 7292POPC   C3B30993   5.903  11.025   7.953
 7292POPC   C4B30994   5.920  11.104   7.653
 7293POPC   NC330995  13.581  26.857   9.453
 7293POPC   PO430996  13.635  26.827   9.153
 7293POPC   GL130997  13.590  26.849   8.853
 7293POPC   GL230998  13.776  26.874   8.853
 7293POPC   C1A30999  13.640  26.784   8.553
 7293POPC   D2A31000  13.637  26.856   8.253
 7293POPC   C3A31001  13.580  26.850   7.953
 7293POPC   C4A31002  13.619  26.816   7.653
 7293POPC   C1B31003  13.899  26.807   8.553
 7293POPC   C2B31004  13.920  26.866   8.253
 7293POPC   C3B31005  13.914  26.821   7.953
 7293POPC   C4B31006  13.881  26.839   7.653
 7294POPC   NC331007  11.273  23.761   9.453
 7294POPC   PO431008  11.279  23.687   9.153
 7294POPC   GL131009  11.311  23.752   8.853
 7294POPC   GL231010  11.178  23.745   8.853
 7294POPC   C1A31011  11.338  23.693   8.553
 7294POPC   D2A31012  11.332  23.734   8.253
 7294POPC   C3A31013  11.322  23.721   7.953
 7294POPC   C4A31014  11.325  23.676   7.653
 7294POPC   C1B31015  11.052  23.770   8.553
 7294POPC   C2B31016  11.084  23.792   8.253
 7294POPC   C3B31017  11.029  23.788   7.953
 7294POPC   C4B31018  11.097  23.779   7.653
 7295POPC   NC331019  15.995  37.675   9.453
 7295POPC   PO431020  16.005  37.666   9.153
 7295POPC   GL131021  15.940  37.695   8.853
 7295POPC   GL231022  15.891  37.630   8.853
 7295POPC   C1A31023  15.918  37.658   8.553
 7295POPC   D2A31024  15.994  37.651   8.253
 7295POPC   C3A31025  15.957  37.677   7.953
 7295POPC   C4A31026  15.952  37.670   7.653
 7295POPC   C1B31027  15.689  37.536   8.553
 7295POPC   C2B31028  15.687  37.552   8.253
 7295POPC   C3B31029  15.752  37.621   7.953
 7295POPC   C4B31030  15.728  37.531   7.653
 7296POPC   NC331031  29.894   5.906   9.453
 7296POPC   PO431032  29.968   5.869   9.153
 7296POPC   GL131033  29.925   5.871   8.853
 7296POPC   GL231034  29.888   5.981   8.853
 7296POPC   C1A31035  29.890   5.918   8.553
 7296POPC   D2A31036  29.885   5.865   8.253
 7296POPC   C3A31037  29.932   5.823   7.953
 7296POPC   C4A31038  29.913   5.843   7.653
 7296POPC   C1B31039  29.809   6.085   8.553
 7296POPC   C2B31040  29.773   6.057   8.253
 7296POPC   C3B31041  29.757   6.095   7.953
 7296POPC   C4B31042  29.830   6.040   7.653
 7297POPC   NC331043   5.904   8.996   9.453
 7297POPC   PO431044   5.875   9.013   9.153
 7297POPC   GL131045   5.912   8.977   8.853
 7297POPC   GL231046   5.756   9.029   8.853
 7297POPC   C1A31047   5.828   8.943   8.553
 7297POPC   D2A31048   5.868   8.928   8.253
 7297POPC   C3A31049   5.833   8.965   7.953
 7297POPC   C4A31050   5.907   8.978   7.653
 7297POPC   C1B31051   5.611   9.030   8.553
 7297POPC   C2B31052   5.632   8.993   8.253
 7297POPC   C3B31053   5.629   8.982   7.953
 7297POPC   C4B31054   5.585   8.972   7.653
 7298POPC   NC331055  42.292   7.382   9.453
 7298POPC   PO431056  42.349   7.437   9.153
 7298POPC   GL131057  42.343   7.376   8.853
 7298POPC   GL231058  42.261   7.341   8.853
 7298POPC   C1A31059  42.341   7.405   8.553
 7298POPC   D2A31060  42.326   7.411   8.253
 7298POPC   C3A31061  42.287   7.371   7.953
 7298POPC   C4A31062  42.331   7.391   7.653
 7298POPC   C1B31063  42.157   7.242   8.553
 7298POPC   C2B31064  42.156   7.284   8.253
 7298POPC   C3B31065  42.134   7.293   7.953
 7298POPC   C4B31066  42.151   7.323   7.653
 7299POPC   NC331067   5.121  41.593   9.453
 7299POPC   PO431068   5.063  41.570   9.153
 7299POPC   GL131069   5.055  41.545   8.853
 7299POPC   GL231070   5.162  41.666   8.853
 7299POPC   C1A31071   5.124  41.548   8.553
 7299POPC   D2A31072   5.049  41.561   8.253
 7299POPC   C3A31073   5.136  41.547   7.953
 7299POPC   C4A31074   5.098  41.585   7.653
 7299POPC   C1B31075   5.282  41.794   8.553
 7299POPC   C2B31076   5.260  41.805   8.253
 7299POPC   C3B31077   5.210  41.746   7.953
 7299POPC   C4B31078   5.250  41.805   7.653
 7300POPC   NC331079   9.792  10.555   9.453
 7300POPC   PO431080   9.764  10.488   9.153
 7300POPC   GL131081   9.727  10.488   8.853
 7300POPC   GL231082   9.800  10.407   8.853
 7300POPC   C1A31083   9.729  10.552   8.553
 7300POPC   D2A31084   9.708  10.521   8.253
 7300POPC   C3A31085   9.724  10.531   7.953
 7300POPC   C4A31086   9.776  10.562   7.653
 7300POPC   C1B31087   9.914  10.372   8.553
 7300POPC   C2B31088   9.935  10.287   8.253
 7300POPC   C3B31089   9.952  10.355   7.953
 7300POPC   C4B31090   9.872  10.367   7.653
 7301POPC   NC331091   3.508  14.408   9.453
 7301POPC   PO431092   3.580  14.385   9.153
 7301POPC   GL131093   3.519  14.376   8.853
 7301POPC   GL231094   3.524  14.319   8.853
 7301POPC   C1A31095   3.512  14.355   8.553
 7301POPC   D2A31096   3.523  14.403   8.253
 7301POPC   C3A31097   3.533  14.354   7.953
 7301POPC   C4A31098   3.525  14.386   7.653
 7301POPC   C1B31099   3.403  14.133   8.553
 7301POPC   C2B31100   3.421  14.211   8.253
 7301POPC   C3B31101   3.398  14.127   7.953
 7301POPC   C4B31102   3.414  14.213   7.653
 7302POPC   NC331103  22.904  27.545   9.453
 7302POPC   PO431104  22.912  27.634   9.153
 7302POPC   GL131105  22.962  27.611   8.853
 7302POPC   GL231106  22.887  27.524   8.853
 7302POPC   C1A31107  22.946  27.629   8.553
 7302POPC   D2A31108  22.893  27.552   8.253
 7302POPC   C3A31109  22.957  27.643   7.953
 7302POPC   C4A31110  22.962  27.562   7.653
 7302POPC   C1B31111  22.824  27.401   8.553
 7302POPC   C2B31112  22.804  27.376   8.253
 7302POPC   C3B31113  22.806  27.386   7.953
 7302POPC   C4B31114  22.837  27.354   7.653
 7303POPC   NC331115  23.687  24.457   9.453
 7303POPC   PO431116  23.756  24.528   9.153
 7303POPC   GL131117  23.736  24.453   8.853
 7303POPC   GL231118  23.737  24.548   8.853
 7303POPC   C1A31119  23.751  24.447   8.553
 7303POPC   D2A31120  23.691  24.540   8.253
 7303POPC   C3A31121  23.695  24.503   7.953
 7303POPC   C4A31122  23.699  24.506   7.653
 7303POPC   C1B31123  23.859  24.679   8.553
 7303POPC   C2B31124  23.853  24.675   8.253
 7303POPC   C3B31125  23.859  24.719   7.953
 7303POPC   C4B31126  23.804  24.676   7.653
 7304POPC   NC331127  14.399   5.111   9.453
 7304POPC   PO431128  14.355   5.118   9.153
 7304POPC   GL131129  14.451   5.136   8.853
 7304POPC   GL231130  14.529   5.163   8.853
 7304POPC   C1A31131  14.387   5.083   8.553
 7304POPC   D2A31132  14.447   5.084   8.253
 7304POPC   C3A31133  14.448   5.136   7.953
 7304POPC   C4A31134  14.402   5.056   7.653
 7304POPC   C1B31135  14.609   5.242   8.553
 7304POPC   C2B31136  14.644   5.222   8.253
 7304POPC   C3B31137  14.640   5.255   7.953
 7304POPC   C4B31138  14.632   5.251   7.653
 7305POPC   NC331139   4.324   5.861   9.453
 7305POPC   PO431140   4.353   5.819   9.153
 7305POPC   GL131141   4.313   5.846   8.853
 7305POPC   GL231142   4.368   6.003   8.853
 7305POPC   C1A31143   4.320   5.878   8.553
 7305POPC   D2A31144   4.352   5.905   8.253
 7305POPC   C3A31145   4.307   5.886   7.953
 7305POPC   C4A31146   4.270   5.874   7.653
 7305POPC   C1B31147   4.460   6.106   8.553
 7305POPC   C2B31148   4.410   6.126   8.253
 7305POPC   C3B31149   4.389   6.056   7.953
 7305POPC   C4B31150   4.425   6.102   7.653
 7306POPC   NC331151  25.996  20.636   9.453
 7306POPC   PO431152  26.074  20.634   9.153
 7306POPC   GL131153  26.056  20.585   8.853
 7306POPC   GL231154  26.013  20.763   8.853
 7306POPC   C1A31155  26.066  20.578   8.553
 7306POPC   D2A31156  26.050  20.628   8.253
 7306POPC   C3A31157  26.078  20.595   7.953
 7306POPC   C4A31158  26.025  20.606   7.653
 7306POPC   C1B31159  26.016  20.902   8.553
 7306POPC   C2B31160  26.051  20.878   8.253
 7306POPC   C3B31161  26.029  20.852   7.953
 7306POPC   C4B31162  26.004  20.863   7.653
 7307POPC   NC331163  29.117  21.400   9.453
 7307POPC   PO431164  29.105  21.362   9.153
 7307POPC   GL131165  29.153  21.378   8.853
 7307POPC   GL231166  29.288  21.448   8.853
 7307POPC   C1A31167  29.161  21.385   8.553
 7307POPC   D2A31168  29.143  21.376   8.253
 7307POPC   C3A31169  29.127  21.361   7.953
 7307POPC   C4A31170  29.189  21.382   7.653
 7307POPC   C1B31171  29.423  21.463   8.553
 7307POPC   C2B31172  29.360  21.446   8.253
 7307POPC   C3B31173  29.392  21.459   7.953
 7307POPC   C4B31174  29.363  21.484   7.653
 7308POPC   NC331175  41.606   6.685   9.453
 7308POPC   PO431176  41.526   6.657   9.153
 7308POPC   GL131177  41.529   6.686   8.853
 7308POPC   GL231178  41.632   6.674   8.853
 7308POPC   C1A31179  41.553   6.682   8.553
 7308POPC   D2A31180  41.537   6.668   8.253
 7308POPC   C3A31181  41.608   6.611   7.953
 7308POPC   C4A31182  41.595   6.664   7.653
 7308POPC   C1B31183  41.814   6.661   8.553
 7308POPC   C2B31184  41.844   6.684   8.253
 7308POPC   C3B31185  41.787   6.650   7.953
 7308POPC   C4B31186  41.780   6.675   7.653
 7309POPC   NC331187  41.509  36.174   9.453
 7309POPC   PO431188  41.529  36.147   9.153
 7309POPC   GL131189  41.540  36.158   8.853
 7309POPC   GL231190  41.467  36.045   8.853
 7309POPC   C1A31191  41.560  36.145   8.553
 7309POPC   D2A31192  41.581  36.112   8.253
 7309POPC   C3A31193  41.532  36.101   7.953
 7309POPC   C4A31194  41.606  36.115   7.653
 7309POPC   C1B31195  41.490  35.941   8.553
 7309POPC   C2B31196  41.414  35.871   8.253
 7309POPC   C3B31197  41.508  35.916   7.953
 7309POPC   C4B31198  41.502  35.894   7.653
 7310POPC   NC331199  26.015  15.176   9.453
 7310POPC   PO431200  26.027  15.203   9.153
 7310POPC   GL131201  26.075  15.134   8.853
 7310POPC   GL231202  26.102  15.321   8.853
 7310POPC   C1A31203  26.049  15.139   8.553
 7310POPC   D2A31204  26.050  15.147   8.253
 7310POPC   C3A31205  26.056  15.176   7.953
 7310POPC   C4A31206  26.044  15.131   7.653
 7310POPC   C1B31207  26.124  15.454   8.553
 7310POPC   C2B31208  26.154  15.423   8.253
 7310POPC   C3B31209  26.132  15.392   7.953
 7310POPC   C4B31210  26.087  15.416   7.653
 7311POPC   NC331211   7.420  26.788   9.453
 7311POPC   PO431212   7.374  26.776   9.153
 7311POPC   GL131213   7.372  26.792   8.853
 7311POPC   GL231214   7.462  26.778   8.853
 7311POPC   C1A31215   7.416  26.772   8.553
 7311POPC   D2A31216   7.448  26.847   8.253
 7311POPC   C3A31217   7.460  26.811   7.953
 7311POPC   C4A31218   7.408  26.815   7.653
 7311POPC   C1B31219   7.586  26.618   8.553
 7311POPC   C2B31220   7.630  26.596   8.253
 7311POPC   C3B31221   7.641  26.631   7.953
 7311POPC   C4B31222   7.634  26.632   7.653
 7312POPC   NC331223  22.900  19.855   9.453
 7312POPC   PO431224  22.902  19.818   9.153
 7312POPC   GL131225  22.899  19.870   8.853
 7312POPC   GL231226  22.896  19.948   8.853
 7312POPC   C1A31227  22.936  19.824   8.553
 7312POPC   D2A31228  22.921  19.808   8.253
 7312POPC   C3A31229  22.904  19.841   7.953
 7312POPC   C4A31230  22.945  19.848   7.653
 7312POPC   C1B31231  22.771  20.004   8.553
 7312POPC   C2B31232  22.804  20.018   8.253
 7312POPC   C3B31233  22.747  20.032   7.953
 7312POPC   C4B31234  22.779  20.040   7.653
 7313POPC   NC331235  18.240  10.486   9.453
 7313POPC   PO431236  18.316  10.531   9.153
 7313POPC   GL131237  18.285  10.562   8.853
 7313POPC   GL231238  18.403  10.619   8.853
 7313POPC   C1A31239  18.247  10.502   8.553
 7313POPC   D2A31240  18.322  10.564   8.253
 7313POPC   C3A31241  18.293  10.479   7.953
 7313POPC   C4A31242  18.279  10.553   7.653
 7313POPC   C1B31243  18.497  10.720   8.553
 7313POPC   C2B31244  18.443  10.719   8.253
 7313POPC   C3B31245  18.424  10.692   7.953
 7313POPC   C4B31246  18.424  10.656   7.653
 7314POPC   NC331247  26.004  10.573   9.453
 7314POPC   PO431248  26.045  10.570   9.153
 7314POPC   GL131249  26.021  10.551   8.853
 7314POPC   GL231250  25.925  10.636   8.853
 7314POPC   C1A31251  26.042  10.533   8.553
 7314POPC   D2A31252  25.992  10.488   8.253
 7314POPC   C3A31253  26.009  10.481   7.953
 7314POPC   C4A31254  26.041  10.493   7.653
 7314POPC   C1B31255  25.857  10.743   8.553
 7314POPC   C2B31256  25.906  10.694   8.253
 7314POPC   C3B31257  25.858  10.728   7.953
 7314POPC   C4B31258  25.921  10.706   7.653
 7315POPC   NC331259  29.910  25.229   9.453
 7315POPC   PO431260  29.966  25.233   9.153
 7315POPC   GL131261  29.890  25.276   8.853
 7315POPC   GL231262  30.037  25.280   8.853
 7315POPC   C1A31263  29.945  25.273   8.553
 7315POPC   D2A31264  29.916  25.221   8.253
 7315POPC   C3A31265  29.932  25.221   7.953
 7315POPC   C4A31266  29.943  25.282   7.653
 7315POPC   C1B31267  30.184  25.316   8.553
 7315POPC   C2B31268  30.189  25.294   8.253
 7315POPC   C3B31269  30.189  25.264   7.953
 7315POPC   C4B31270  30.185  25.258   7.653
 7316POPC   NC331271  29.133  29.967   9.453
 7316POPC   PO431272  29.149  29.958   9.153
 7316POPC   GL131273  29.108  29.908   8.853
 7316POPC   GL231274  29.067  30.024   8.853
 7316POPC   C1A31275  29.184  29.895   8.553
 7316POPC   D2A31276  29.168  29.884   8.253
 7316POPC   C3A31277  29.149  29.914   7.953
 7316POPC   C4A31278  29.194  29.968   7.653
 7316POPC   C1B31279  29.018  30.176   8.553
 7316POPC   C2B31280  28.978  30.139   8.253
 7316POPC   C3B31281  29.007  30.145   7.953
 7316POPC   C4B31282  28.978  30.166   7.653
 7317POPC   NC331283   8.209   5.086   9.453
 7317POPC   PO431284   8.177   5.073   9.153
 7317POPC   GL131285   8.221   5.116   8.853
 7317POPC   GL231286   8.159   5.231   8.853
 7317POPC   C1A31287   8.186   5.098   8.553
 7317POPC   D2A31288   8.218   5.125   8.253
 7317POPC   C3A31289   8.234   5.130   7.953
 7317POPC   C4A31290   8.225   5.139   7.653
 7317POPC   C1B31291   8.216   5.300   8.553
 7317POPC   C2B31292   8.236   5.383   8.253
 7317POPC   C3B31293   8.224   5.375   7.953
 7317POPC   C4B31294   8.209   5.317   7.653
 7318POPC   NC331295  24.460  24.476   9.453
 7318POPC   PO431296  24.474  24.443   9.153
 7318POPC   GL131297  24.469  24.451   8.853
 7318POPC   GL231298  24.367  24.560   8.853
 7318POPC   C1A31299  24.514  24.464   8.553
 7318POPC   D2A31300  24.458  24.508   8.253
 7318POPC   C3A31301  24.528  24.491   7.953
 7318POPC   C4A31302  24.451  24.492   7.653
 7318POPC   C1B31303  24.296  24.682   8.553
 7318POPC   C2B31304  24.272  24.643   8.253
 7318POPC   C3B31305  24.305  24.595   7.953
 7318POPC   C4B31306  24.317  24.615   7.653
 7319POPC   NC331307  17.542   7.434   9.453
 7319POPC   PO431308  17.527   7.426   9.153
 7319POPC   GL131309  17.528   7.403   8.853
 7319POPC   GL231310  17.581   7.341   8.853
 7319POPC   C1A31311  17.539   7.444   8.553
 7319POPC   D2A31312  17.506   7.449   8.253
 7319POPC   C3A31313  17.524   7.373   7.953
 7319POPC   C4A31314  17.548   7.401   7.653
 7319POPC   C1B31315  17.635   7.163   8.553
 7319POPC   C2B31316  17.622   7.179   8.253
 7319POPC   C3B31317  17.575   7.189   7.953
 7319POPC   C4B31318  17.614   7.204   7.653
 7320POPC   NC331319  21.359   8.976   9.453
 7320POPC   PO431320  21.392   8.923   9.153
 7320POPC   GL131321  21.410   8.928   8.853
 7320POPC   GL231322  21.485   8.944   8.853
 7320POPC   C1A31323  21.369   8.997   8.553
 7320POPC   D2A31324  21.401   9.013   8.253
 7320POPC   C3A31325  21.426   8.957   7.953
 7320POPC   C4A31326  21.404   9.016   7.653
 7320POPC   C1B31327  21.546   8.814   8.553
 7320POPC   C2B31328  21.633   8.873   8.253
 7320POPC   C3B31329  21.611   8.813   7.953
 7320POPC   C4B31330  21.576   8.869   7.653
 7321POPC   NC331331  19.108   5.108   9.453
 7321POPC   PO431332  19.039   5.097   9.153
 7321POPC   GL131333  19.084   5.089   8.853
 7321POPC   GL231334  18.921   5.036   8.853
 7321POPC   C1A31335  19.098   5.104   8.553
 7321POPC   D2A31336  19.020   5.059   8.253
 7321POPC   C3A31337  19.091   5.132   7.953
 7321POPC   C4A31338  19.023   5.054   7.653
 7321POPC   C1B31339  18.787   5.056   8.553
 7321POPC   C2B31340  18.832   5.018   8.253
 7321POPC   C3B31341  18.785   5.056   7.953
 7321POPC   C4B31342  18.829   5.013   7.653
 7322POPC   NC331343   5.891  15.215   9.453
 7322POPC   PO431344   5.857  15.203   9.153
 7322POPC   GL131345   5.831  15.147   8.853
 7322POPC   GL231346   6.017  15.086   8.853
 7322POPC   C1A31347   5.855  15.216   8.553
 7322POPC   D2A31348   5.861  15.167   8.253
 7322POPC   C3A31349   5.861  15.134   7.953
 7322POPC   C4A31350   5.877  15.208   7.653
 7322POPC   C1B31351   6.042  15.057   8.553
 7322POPC   C2B31352   6.081  15.080   8.253
 7322POPC   C3B31353   6.120  14.993   7.953
 7322POPC   C4B31354   6.089  15.005   7.653
 7323POPC   NC331355   9.713  17.544   9.453
 7323POPC   PO431356   9.707  17.497   9.153
 7323POPC   GL131357   9.755  17.502   8.853
 7323POPC   GL231358   9.631  17.424   8.853
 7323POPC   C1A31359   9.725  17.504   8.553
 7323POPC   D2A31360   9.744  17.543   8.253
 7323POPC   C3A31361   9.717  17.461   7.953
 7323POPC   C4A31362   9.708  17.468   7.653
 7323POPC   C1B31363   9.546  17.359   8.553
 7323POPC   C2B31364   9.538  17.315   8.253
 7323POPC   C3B31365   9.557  17.339   7.953
 7323POPC   C4B31366   9.528  17.316   7.653
 7324POPC   NC331367  15.204  28.349   9.453
 7324POPC   PO431368  15.227  28.332   9.153
 7324POPC   GL131369  15.186  28.388   8.853
 7324POPC   GL231370  15.154  28.514   8.853
 7324POPC   C1A31371  15.228  28.356   8.553
 7324POPC   D2A31372  15.143  28.381   8.253
 7324POPC   C3A31373  15.186  28.383   7.953
 7324POPC   C4A31374  15.165  28.371   7.653
 7324POPC   C1B31375  15.172  28.582   8.553
 7324POPC   C2B31376  15.162  28.603   8.253
 7324POPC   C3B31377  15.157  28.599   7.953
 7324POPC   C4B31378  15.172  28.635   7.653
 7325POPC   NC331379  36.137  32.262   9.453
 7325POPC   PO431380  36.168  32.255   9.153
 7325POPC   GL131381  36.124  32.234   8.853
 7325POPC   GL231382  36.168  32.348   8.853
 7325POPC   C1A31383  36.173  32.203   8.553
 7325POPC   D2A31384  36.145  32.250   8.253
 7325POPC   C3A31385  36.116  32.221   7.953
 7325POPC   C4A31386  36.080  32.231   7.653
 7325POPC   C1B31387  36.228  32.457   8.553
 7325POPC   C2B31388  36.269  32.445   8.253
 7325POPC   C3B31389  36.307  32.486   7.953
 7325POPC   C4B31390  36.283  32.488   7.653
 7326POPC   NC331391   1.996   8.188   9.453
 7326POPC   PO431392   1.972   8.221   9.153
 7326POPC   GL131393   2.009   8.222   8.853
 7326POPC   GL231394   2.070   8.282   8.853
 7326POPC   C1A31395   2.004   8.151   8.553
 7326POPC   D2A31396   2.028   8.180   8.253
 7326POPC   C3A31397   2.008   8.173   7.953
 7326POPC   C4A31398   2.027   8.220   7.653
 7326POPC   C1B31399   2.183   8.322   8.553
 7326POPC   C2B31400   2.222   8.320   8.253
 7326POPC   C3B31401   2.181   8.326   7.953
 7326POPC   C4B31402   2.230   8.314   7.653
 7327POPC   NC331403  41.511  16.710   9.453
 7327POPC   PO431404  41.520  16.772   9.153
 7327POPC   GL131405  41.550  16.734   8.853
 7327POPC   GL231406  41.628  16.822   8.853
 7327POPC   C1A31407  41.575  16.685   8.553
 7327POPC   D2A31408  41.557  16.719   8.253
 7327POPC   C3A31409  41.591  16.708   7.953
 7327POPC   C4A31410  41.583  16.703   7.653
 7327POPC   C1B31411  41.649  16.950   8.553
 7327POPC   C2B31412  41.635  17.022   8.253
 7327POPC   C3B31413  41.582  17.003   7.953
 7327POPC   C4B31414  41.648  16.975   7.653
 7328POPC   NC331415  30.649  37.724   9.453
 7328POPC   PO431416  30.655  37.706   9.153
 7328POPC   GL131417  30.676  37.705   8.853
 7328POPC   GL231418  30.590  37.617   8.853
 7328POPC   C1A31419  30.733  37.700   8.553
 7328POPC   D2A31420  30.742  37.726   8.253
 7328POPC   C3A31421  30.741  37.664   7.953
 7328POPC   C4A31422  30.726  37.702   7.653
 7328POPC   C1B31423  30.446  37.612   8.553
 7328POPC   C2B31424  30.506  37.620   8.253
 7328POPC   C3B31425  30.466  37.610   7.953
 7328POPC   C4B31426  30.453  37.646   7.653
 7329POPC   NC331427  36.121  30.741   9.453
 7329POPC   PO431428  36.171  30.677   9.153
 7329POPC   GL131429  36.087  30.687   8.853
 7329POPC   GL231430  36.174  30.568   8.853
 7329POPC   C1A31431  36.173  30.675   8.553
 7329POPC   D2A31432  36.092  30.718   8.253
 7329POPC   C3A31433  36.139  30.712   7.953
 7329POPC   C4A31434  36.144  30.669   7.653
 7329POPC   C1B31435  36.217  30.427   8.553
 7329POPC   C2B31436  36.262  30.476   8.253
 7329POPC   C3B31437  36.296  30.468   7.953
 7329POPC   C4B31438  36.262  30.479   7.653
 7330POPC   NC331439  15.159  13.612   9.453
 7330POPC   PO431440  15.136  13.593   9.153
 7330POPC   GL131441  15.176  13.631   8.853
 7330POPC   GL231442  15.133  13.517   8.853
 7330POPC   C1A31443  15.225  13.598   8.553
 7330POPC   D2A31444  15.188  13.653   8.253
 7330POPC   C3A31445  15.146  13.599   7.953
 7330POPC   C4A31446  15.132  13.669   7.653
 7330POPC   C1B31447  15.115  13.420   8.553
 7330POPC   C2B31448  15.059  13.359   8.253
 7330POPC   C3B31449  15.080  13.423   7.953
 7330POPC   C4B31450  15.059  13.414   7.653
 7331POPC   NC331451  29.104  15.189   9.453
 7331POPC   PO431452  29.100  15.175   9.153
 7331POPC   GL131453  29.146  15.208   8.853
 7331POPC   GL231454  29.078  15.275   8.853
 7331POPC   C1A31455  29.174  15.168   8.553
 7331POPC   D2A31456  29.097  15.175   8.253
 7331POPC   C3A31457  29.170  15.166   7.953
 7331POPC   C4A31458  29.134  15.181   7.653
 7331POPC   C1B31459  29.115  15.383   8.553
 7331POPC   C2B31460  29.119  15.434   8.253
 7331POPC   C3B31461  29.098  15.453   7.953
 7331POPC   C4B31462  29.147  15.415   7.653
 7332POPC   NC331463  28.354  27.625   9.453
 7332POPC   PO431464  28.320  27.602   9.153
 7332POPC   GL131465  28.405  27.642   8.853
 7332POPC   GL231466  28.315  27.503   8.853
 7332POPC   C1A31467  28.360  27.582   8.553
 7332POPC   D2A31468  28.323  27.568   8.253
 7332POPC   C3A31469  28.322  27.570   7.953
 7332POPC   C4A31470  28.342  27.639   7.653
 7332POPC   C1B31471  28.287  27.341   8.553
 7332POPC   C2B31472  28.316  27.393   8.253
 7332POPC   C3B31473  28.335  27.332   7.953
 7332POPC   C4B31474  28.281  27.346   7.653
 7333POPC   NC331475   1.992  32.253   9.453
 7333POPC   PO431476   1.943  32.240   9.153
 7333POPC   GL131477   1.942  32.263   8.853
 7333POPC   GL231478   2.132  32.252   8.853
 7333POPC   C1A31479   1.970  32.250   8.553
 7333POPC   D2A31480   1.982  32.241   8.253
 7333POPC   C3A31481   1.959  32.215   7.953
 7333POPC   C4A31482   1.970  32.235   7.653
 7333POPC   C1B31483   2.203  32.209   8.553
 7333POPC   C2B31484   2.264  32.247   8.253
 7333POPC   C3B31485   2.219  32.261   7.953
 7333POPC   C4B31486   2.199  32.244   7.653
 7334POPC   NC331487   0.390   4.332   9.453
 7334POPC   PO431488   0.419   4.358   9.153
 7334POPC   GL131489   0.463   4.315   8.853
 7334POPC   GL231490   0.337   4.162   8.853
 7334POPC   C1A31491   0.443   4.326   8.553
 7334POPC   D2A31492   0.473   4.328   8.253
 7334POPC   C3A31493   0.417   4.339   7.953
 7334POPC   C4A31494   0.461   4.362   7.653
 7334POPC   C1B31495   0.305   4.109   8.553
 7334POPC   C2B31496   0.345   4.143   8.253
 7334POPC   C3B31497   0.294   4.056   7.953
 7334POPC   C4B31498   0.305   4.142   7.653
 7335POPC   NC331499  29.958   3.590   9.453
 7335POPC   PO431500  29.920   3.507   9.153
 7335POPC   GL131501  29.921   3.553   8.853
 7335POPC   GL231502  30.040   3.532   8.853
 7335POPC   C1A31503  29.889   3.511   8.553
 7335POPC   D2A31504  29.954   3.522   8.253
 7335POPC   C3A31505  29.947   3.577   7.953
 7335POPC   C4A31506  29.958   3.536   7.653
 7335POPC   C1B31507  30.164   3.504   8.553
 7335POPC   C2B31508  30.129   3.579   8.253
 7335POPC   C3B31509  30.135   3.543   7.953
 7335POPC   C4B31510  30.129   3.581   7.653
 7336POPC   NC331511  42.330  30.701   9.453
 7336POPC   PO431512  42.335  30.710   9.153
 7336POPC   GL131513  42.360  30.666   8.853
 7336POPC   GL231514  42.430  30.752   8.853
 7336POPC   C1A31515  42.384  30.685   8.553
 7336POPC   D2A31516  42.347  30.717   8.253
 7336POPC   C3A31517  42.310  30.683   7.953
 7336POPC   C4A31518  42.382  30.691   7.653
 7336POPC   C1B31519  42.572  30.795   8.553
 7336POPC   C2B31520  42.521  30.776   8.253
 7336POPC   C3B31521  42.544  30.777   7.953
 7336POPC   C4B31522  42.542  30.787   7.653
 7337POPC   NC331523  40.798  25.305   9.453
 7337POPC   PO431524  40.747  25.249   9.153
 7337POPC   GL131525  40.811  25.278   8.853
 7337POPC   GL231526  40.669  25.319   8.853
 7337POPC   C1A31527  40.819  25.315   8.553
 7337POPC   D2A31528  40.799  25.272   8.253
 7337POPC   C3A31529  40.779  25.294   7.953
 7337POPC   C4A31530  40.794  25.237   7.653
 7337POPC   C1B31531  40.552  25.337   8.553
 7337POPC   C2B31532  40.490  25.266   8.253
 7337POPC   C3B31533  40.541  25.270   7.953
 7337POPC   C4B31534  40.499  25.315   7.653
 7338POPC   NC331535  40.742  40.781   9.453
 7338POPC   PO431536  40.797  40.760   9.153
 7338POPC   GL131537  40.785  40.734   8.853
 7338POPC   GL231538  40.743  40.674   8.853
 7338POPC   C1A31539  40.794  40.802   8.553
 7338POPC   D2A31540  40.826  40.822   8.253
 7338POPC   C3A31541  40.766  40.741   7.953
 7338POPC   C4A31542  40.784  40.762   7.653
 7338POPC   C1B31543  40.701  40.578   8.553
 7338POPC   C2B31544  40.678  40.582   8.253
 7338POPC   C3B31545  40.671  40.511   7.953
 7338POPC   C4B31546  40.764  40.537   7.653
 7339POPC   NC331547  36.894   6.667   9.453
 7339POPC   PO431548  36.862   6.676   9.153
 7339POPC   GL131549  36.898   6.615   8.853
 7339POPC   GL231550  36.824   6.574   8.853
 7339POPC   C1A31551  36.875   6.606   8.553
 7339POPC   D2A31552  36.862   6.646   8.253
 7339POPC   C3A31553  36.897   6.686   7.953
 7339POPC   C4A31554  36.949   6.605   7.653
 7339POPC   C1B31555  36.649   6.595   8.553
 7339POPC   C2B31556  36.615   6.582   8.253
 7339POPC   C3B31557  36.624   6.557   7.953
 7339POPC   C4B31558  36.628   6.579   7.653
 7340POPC   NC331559  25.238   1.202   9.453
 7340POPC   PO431560  25.262   1.256   9.153
 7340POPC   GL131561  25.280   1.190   8.853
 7340POPC   GL231562  25.113   1.247   8.853
 7340POPC   C1A31563  25.263   1.212   8.553
 7340POPC   D2A31564  25.309   1.254   8.253
 7340POPC   C3A31565  25.232   1.180   7.953
 7340POPC   C4A31566  25.248   1.218   7.653
 7340POPC   C1B31567  24.998   1.146   8.553
 7340POPC   C2B31568  25.051   1.162   8.253
 7340POPC   C3B31569  25.007   1.185   7.953
 7340POPC   C4B31570  25.017   1.184   7.653
 7341POPC   NC331571  29.192   3.591   9.453
 7341POPC   PO431572  29.156   3.578   9.153
 7341POPC   GL131573  29.137   3.520   8.853
 7341POPC   GL231574  28.989   3.617   8.853
 7341POPC   C1A31575  29.122   3.511   8.553
 7341POPC   D2A31576  29.115   3.568   8.253
 7341POPC   C3A31577  29.145   3.543   7.953
 7341POPC   C4A31578  29.106   3.545   7.653
 7341POPC   C1B31579  28.903   3.666   8.553
 7341POPC   C2B31580  28.888   3.648   8.253
 7341POPC   C3B31581  28.964   3.671   7.953
 7341POPC   C4B31582  28.952   3.649   7.653
 7342POPC   NC331583  36.100   4.294   9.453
 7342POPC   PO431584  36.138   4.325   9.153
 7342POPC   GL131585  36.117   4.276   8.853
 7342POPC   GL231586  36.254   4.406   8.853
 7342POPC   C1A31587  36.093   4.272   8.553
 7342POPC   D2A31588  36.174   4.267   8.253
 7342POPC   C3A31589  36.094   4.321   7.953
 7342POPC   C4A31590  36.153   4.297   7.653
 7342POPC   C1B31591  36.316   4.491   8.553
 7342POPC   C2B31592  36.366   4.472   8.253
 7342POPC   C3B31593  36.358   4.501   7.953
 7342POPC   C4B31594  36.286   4.447   7.653
 7343POPC   NC331595  33.836  33.809   9.453
 7343POPC   PO431596  33.786  33.849   9.153
 7343POPC   GL131597  33.753  33.796   8.853
 7343POPC   GL231598  33.679  33.942   8.853
 7343POPC   C1A31599  33.821  33.759   8.553
 7343POPC   D2A31600  33.830  33.805   8.253
 7343POPC   C3A31601  33.751  33.818   7.953
 7343POPC   C4A31602  33.821  33.840   7.653
 7343POPC   C1B31603  33.653  34.037   8.553
 7343POPC   C2B31604  33.680  34.000   8.253
 7343POPC   C3B31605  33.602  34.029   7.953
 7343POPC   C4B31606  33.665  33.968   7.653
 7344POPC   NC331607  29.908  17.556   9.453
 7344POPC   PO431608  29.908  17.553   9.153
 7344POPC   GL131609  29.942  17.501   8.853
 7344POPC   GL231610  29.838  17.471   8.853
 7344POPC   C1A31611  29.938  17.477   8.553
 7344POPC   D2A31612  29.932  17.550   8.253
 7344POPC   C3A31613  29.964  17.497   7.953
 7344POPC   C4A31614  29.914  17.467   7.653
 7344POPC   C1B31615  29.763  17.316   8.553
 7344POPC   C2B31616  29.787  17.351   8.253
 7344POPC   C3B31617  29.692  17.303   7.953
 7344POPC   C4B31618  29.758  17.349   7.653
 7345POPC   NC331619  36.098  29.934   9.453
 7345POPC   PO431620  36.139  29.961   9.153
 7345POPC   GL131621  36.125  29.902   8.853
 7345POPC   GL231622  36.027  29.993   8.853
 7345POPC   C1A31623  36.133  29.895   8.553
 7345POPC   D2A31624  36.140  29.873   8.253
 7345POPC   C3A31625  36.110  29.931   7.953
 7345POPC   C4A31626  36.167  29.970   7.653
 7345POPC   C1B31627  35.946  30.120   8.553
 7345POPC   C2B31628  35.969  30.088   8.253
 7345POPC   C3B31629  35.980  30.079   7.953
 7345POPC   C4B31630  35.984  30.151   7.653
 7346POPC   NC331631  29.130  25.268   9.453
 7346POPC   PO431632  29.125  25.273   9.153
 7346POPC   GL131633  29.173  25.285   8.853
 7346POPC   GL231634  29.246  25.130   8.853
 7346POPC   C1A31635  29.163  25.231   8.553
 7346POPC   D2A31636  29.104  25.246   8.253
 7346POPC   C3A31637  29.177  25.293   7.953
 7346POPC   C4A31638  29.126  25.273   7.653
 7346POPC   C1B31639  29.281  25.009   8.553
 7346POPC   C2B31640  29.238  25.026   8.253
 7346POPC   C3B31641  29.281  25.021   7.953
 7346POPC   C4B31642  29.231  25.027   7.653
 7347POPC   NC331643   7.452  39.238   9.453
 7347POPC   PO431644   7.464  39.213   9.153
 7347POPC   GL131645   7.457  39.203   8.853
 7347POPC   GL231646   7.305  39.293   8.853
 7347POPC   C1A31647   7.424  39.207   8.553
 7347POPC   D2A31648   7.393  39.273   8.253
 7347POPC   C3A31649   7.393  39.207   7.953
 7347POPC   C4A31650   7.444  39.244   7.653
 7347POPC   C1B31651   7.161  39.345   8.553
 7347POPC   C2B31652   7.172  39.395   8.253
 7347POPC   C3B31653   7.227  39.384   7.953
 7347POPC   C4B31654   7.166  39.319   7.653
 7348POPC   NC331655   1.968  15.179   9.453
 7348POPC   PO431656   2.008  15.174   9.153
 7348POPC   GL131657   2.000  15.186   8.853
 7348POPC   GL231658   2.036  15.316   8.853
 7348POPC   C1A31659   1.972  15.220   8.553
 7348POPC   D2A31660   2.033  15.187   8.253
 7348POPC   C3A31661   1.967  15.153   7.953
 7348POPC   C4A31662   2.011  15.184   7.653
 7348POPC   C1B31663   2.125  15.411   8.553
 7348POPC   C2B31664   2.173  15.381   8.253
 7348POPC   C3B31665   2.165  15.383   7.953
 7348POPC   C4B31666   2.079  15.402   7.653
 7349POPC   NC331667   5.902  43.869   9.453
 7349POPC   PO431668   5.833  43.934   9.153
 7349POPC   GL131669   5.884  43.872   8.853
 7349POPC   GL231670   6.018  43.917   8.853
 7349POPC   C1A31671   5.825  43.871   8.553
 7349POPC   D2A31672   5.901  43.850   8.253
 7349POPC   C3A31673   5.831  43.933   7.953
 7349POPC   C4A31674   5.871  43.838   7.653
 7349POPC   C1B31675   6.137  44.053   8.553
 7349POPC   C2B31676   6.041  44.048   8.253
 7349POPC   C3B31677   6.039  43.990   7.953
 7349POPC   C4B31678   6.038  44.037   7.653
 7350POPC   NC331679  16.765   7.429   9.453
 7350POPC   PO431680  16.718   7.453   9.153
 7350POPC   GL131681  16.763   7.440   8.853
 7350POPC   GL231682  16.759   7.315   8.853
 7350POPC   C1A31683  16.711   7.407   8.553
 7350POPC   D2A31684  16.774   7.389   8.253
 7350POPC   C3A31685  16.684   7.441   7.953
 7350POPC   C4A31686  16.719   7.454   7.653
 7350POPC   C1B31687  16.748   7.167   8.553
 7350POPC   C2B31688  16.772   7.151   8.253
 7350POPC   C3B31689  16.780   7.175   7.953
 7350POPC   C4B31690  16.793   7.154   7.653
 7351POPC   NC331691   1.177  40.048   9.453
 7351POPC   PO431692   1.212  40.017   9.153
 7351POPC   GL131693   1.193  40.055   8.853
 7351POPC   GL231694   1.104  40.086   8.853
 7351POPC   C1A31695   1.227  39.998   8.553
 7351POPC   D2A31696   1.164  39.982   8.253
 7351POPC   C3A31697   1.252  39.959   7.953
 7351POPC   C4A31698   1.170  40.002   7.653
 7351POPC   C1B31699   1.032  40.191   8.553
 7351POPC   C2B31700   0.996  40.118   8.253
 7351POPC   C3B31701   1.035  40.213   7.953
 7351POPC   C4B31702   1.045  40.191   7.653
 7352POPC   NC331703   1.243  33.777   9.453
 7352POPC   PO431704   1.218  33.806   9.153
 7352POPC   GL131705   1.182  33.835   8.853
 7352POPC   GL231706   1.138  33.890   8.853
 7352POPC   C1A31707   1.248  33.753   8.553
 7352POPC   D2A31708   1.211  33.772   8.253
 7352POPC   C3A31709   1.177  33.832   7.953
 7352POPC   C4A31710   1.240  33.799   7.653
 7352POPC   C1B31711   1.104  34.052   8.553
 7352POPC   C2B31712   1.129  34.065   8.253
 7352POPC   C3B31713   1.141  34.017   7.953
 7352POPC   C4B31714   1.160  34.026   7.653
 7353POPC   NC331715  24.488  41.532   9.453
 7353POPC   PO431716  24.517  41.547   9.153
 7353POPC   GL131717  24.462  41.539   8.853
 7353POPC   GL231718  24.621  41.573   8.853
 7353POPC   C1A31719  24.444  41.583   8.553
 7353POPC   D2A31720  24.448  41.516   8.253
 7353POPC   C3A31721  24.531  41.524   7.953
 7353POPC   C4A31722  24.495  41.517   7.653
 7353POPC   C1B31723  24.762  41.635   8.553
 7353POPC   C2B31724  24.707  41.617   8.253
 7353POPC   C3B31725  24.753  41.629   7.953
 7353POPC   C4B31726  24.731  41.565   7.653
 7354POPC   NC331727   2.805  39.987   9.453
 7354POPC   PO431728   2.794  39.962   9.153
 7354POPC   GL131729   2.761  40.040   8.853
 7354POPC   GL231730   2.751  39.882   8.853
 7354POPC   C1A31731   2.794  40.000   8.553
 7354POPC   D2A31732   2.812  39.967   8.253
 7354POPC   C3A31733   2.810  40.018   7.953
 7354POPC   C4A31734   2.755  40.056   7.653
 7354POPC   C1B31735   2.694  39.768   8.553
 7354POPC   C2B31736   2.642  39.722   8.253
 7354POPC   C3B31737   2.638  39.788   7.953
 7354POPC   C4B31738   2.683  39.816   7.653
 7355POPC   NC331739  22.954   4.273   9.453
 7355POPC   PO431740  22.904   4.360   9.153
 7355POPC   GL131741  22.892   4.269   8.853
 7355POPC   GL231742  23.033   4.187   8.853
 7355POPC   C1A31743  22.933   4.316   8.553
 7355POPC   D2A31744  22.960   4.300   8.253
 7355POPC   C3A31745  22.891   4.277   7.953
 7355POPC   C4A31746  22.895   4.271   7.653
 7355POPC   C1B31747  23.074   4.176   8.553
 7355POPC   C2B31748  23.138   4.114   8.253
 7355POPC   C3B31749  23.156   4.160   7.953
 7355POPC   C4B31750  23.104   4.113   7.653
 7356POPC   NC331751   8.201  18.316   9.453
 7356POPC   PO431752   8.176  18.284   9.153
 7356POPC   GL131753   8.149  18.320   8.853
 7356POPC   GL231754   8.340  18.338   8.853
 7356POPC   C1A31755   8.170  18.325   8.553
 7356POPC   D2A31756   8.227  18.268   8.253
 7356POPC   C3A31757   8.173  18.307   7.953
 7356POPC   C4A31758   8.178  18.310   7.653
 7356POPC   C1B31759   8.399  18.275   8.553
 7356POPC   C2B31760   8.424  18.247   8.253
 7356POPC   C3B31761   8.449  18.340   7.953
 7356POPC   C4B31762   8.468  18.290   7.653
 7357POPC   NC331763  33.054  42.373   9.453
 7357POPC   PO431764  32.978  42.355   9.153
 7357POPC   GL131765  33.020  42.340   8.853
 7357POPC   GL231766  32.947  42.399   8.853
 7357POPC   C1A31767  33.074  42.360   8.553
 7357POPC   D2A31768  33.062  42.342   8.253
 7357POPC   C3A31769  33.015  42.339   7.953
 7357POPC   C4A31770  32.992  42.344   7.653
 7357POPC   C1B31771  32.905  42.564   8.553
 7357POPC   C2B31772  32.848  42.502   8.253
 7357POPC   C3B31773  32.885  42.502   7.953
 7357POPC   C4B31774  32.903  42.510   7.653
 7358POPC   NC331775  19.876   3.532   9.453
 7358POPC   PO431776  19.855   3.538   9.153
 7358POPC   GL131777  19.854   3.585   8.853
 7358POPC   GL231778  19.923   3.640   8.853
 7358POPC   C1A31779  19.823   3.548   8.553
 7358POPC   D2A31780  19.873   3.562   8.253
 7358POPC   C3A31781  19.792   3.560   7.953
 7358POPC   C4A31782  19.852   3.494   7.653
 7358POPC   C1B31783  20.030   3.670   8.553
 7358POPC   C2B31784  20.025   3.639   8.253
 7358POPC   C3B31785  20.078   3.684   7.953
 7358POPC   C4B31786  20.037   3.660   7.653
 7359POPC   NC331787  28.340   1.254   9.453
 7359POPC   PO431788  28.388   1.208   9.153
 7359POPC   GL131789  28.387   1.169   8.853
 7359POPC   GL231790  28.276   1.127   8.853
 7359POPC   C1A31791  28.357   1.196   8.553
 7359POPC   D2A31792  28.323   1.227   8.253
 7359POPC   C3A31793  28.363   1.171   7.953
 7359POPC   C4A31794  28.367   1.253   7.653
 7359POPC   C1B31795  28.245   1.074   8.553
 7359POPC   C2B31796  28.200   1.071   8.253
 7359POPC   C3B31797  28.181   0.995   7.953
 7359POPC   C4B31798  28.226   1.004   7.653
 7360POPC   NC331799  19.043  12.028   9.453
 7360POPC   PO431800  19.096  12.046   9.153
 7360POPC   GL131801  19.055  12.088   8.853
 7360POPC   GL231802  19.068  12.001   8.853
 7360POPC   C1A31803  19.084  12.048   8.553
 7360POPC   D2A31804  19.012  12.112   8.253
 7360POPC   C3A31805  19.055  12.071   7.953
 7360POPC   C4A31806  19.036  12.088   7.653
 7360POPC   C1B31807  19.066  11.835   8.553
 7360POPC   C2B31808  19.105  11.841   8.253
 7360POPC   C3B31809  19.055  11.858   7.953
 7360POPC   C4B31810  19.114  11.782   7.653
 7361POPC   NC331811  15.958  43.111   9.453
 7361POPC   PO431812  15.968  43.118   9.153
 7361POPC   GL131813  16.005  43.109   8.853
 7361POPC   GL231814  16.029  43.042   8.853
 7361POPC   C1A31815  15.979  43.157   8.553
 7361POPC   D2A31816  15.988  43.075   8.253
 7361POPC   C3A31817  15.914  43.117   7.953
 7361POPC   C4A31818  15.972  43.097   7.653
 7361POPC   C1B31819  16.216  43.057   8.553
 7361POPC   C2B31820  16.230  43.027   8.253
 7361POPC   C3B31821  16.204  43.071   7.953
 7361POPC   C4B31822  16.171  43.074   7.653
 7362POPC   NC331823  44.627   5.131   9.453
 7362POPC   PO431824  44.689   5.109   9.153
 7362POPC   GL131825  44.710   5.064   8.853
 7362POPC   GL231826  44.579   5.027   8.853
 7362POPC   C1A31827  44.667   5.074   8.553
 7362POPC   D2A31828  44.676   5.051   8.253
 7362POPC   C3A31829  44.639   5.076   7.953
 7362POPC   C4A31830  44.685   5.119   7.653
 7362POPC   C1B31831  44.483   4.880   8.553
 7362POPC   C2B31832  44.512   4.952   8.253
 7362POPC   C3B31833  44.518   4.939   7.953
 7362POPC   C4B31834  44.510   4.964   7.653
 7363POPC   NC331835  37.671   3.539   9.453
 7363POPC   PO431836  37.698   3.498   9.153
 7363POPC   GL131837  37.640   3.571   8.853
 7363POPC   GL231838  37.676   3.439   8.853
 7363POPC   C1A31839  37.656   3.577   8.553
 7363POPC   D2A31840  37.724   3.576   8.253
 7363POPC   C3A31841  37.715   3.540   7.953
 7363POPC   C4A31842  37.672   3.525   7.653
 7363POPC   C1B31843  37.713   3.247   8.553
 7363POPC   C2B31844  37.675   3.301   8.253
 7363POPC   C3B31845  37.674   3.280   7.953
 7363POPC   C4B31846  37.659   3.315   7.653
 7364POPC   NC331847  24.463  43.881   9.453
 7364POPC   PO431848  24.501  43.887   9.153
 7364POPC   GL131849  24.449  43.854   8.853
 7364POPC   GL231850  24.391  43.769   8.853
 7364POPC   C1A31851  24.446  43.838   8.553
 7364POPC   D2A31852  24.538  43.859   8.253
 7364POPC   C3A31853  24.493  43.840   7.953
 7364POPC   C4A31854  24.529  43.917   7.653
 7364POPC   C1B31855  24.374  43.671   8.553
 7364POPC   C2B31856  24.302  43.723   8.253
 7364POPC   C3B31857  24.303  43.665   7.953
 7364POPC   C4B31858  24.363  43.681   7.653
 7365POPC   NC331859  35.332  22.189   9.453
 7365POPC   PO431860  35.341  22.131   9.153
 7365POPC   GL131861  35.330  22.118   8.853
 7365POPC   GL231862  35.376  22.025   8.853
 7365POPC   C1A31863  35.321  22.175   8.553
 7365POPC   D2A31864  35.375  22.143   8.253
 7365POPC   C3A31865  35.337  22.125   7.953
 7365POPC   C4A31866  35.350  22.151   7.653
 7365POPC   C1B31867  35.454  21.925   8.553
 7365POPC   C2B31868  35.495  21.955   8.253
 7365POPC   C3B31869  35.443  21.925   7.953
 7365POPC   C4B31870  35.487  21.948   7.653
 7366POPC   NC331871  12.822  27.626   9.453
 7366POPC   PO431872  12.897  27.578   9.153
 7366POPC   GL131873  12.864  27.596   8.853
 7366POPC   GL231874  12.746  27.697   8.853
 7366POPC   C1A31875  12.813  27.606   8.553
 7366POPC   D2A31876  12.873  27.632   8.253
 7366POPC   C3A31877  12.818  27.592   7.953
 7366POPC   C4A31878  12.823  27.585   7.653
 7366POPC   C1B31879  12.665  27.816   8.553
 7366POPC   C2B31880  12.749  27.756   8.253
 7366POPC   C3B31881  12.745  27.830   7.953
 7366POPC   C4B31882  12.668  27.834   7.653
 7367POPC   NC331883   5.084  27.643   9.453
 7367POPC   PO431884   5.095  27.632   9.153
 7367POPC   GL131885   5.110  27.607   8.853
 7367POPC   GL231886   5.173  27.565   8.853
 7367POPC   C1A31887   5.056  27.590   8.553
 7367POPC   D2A31888   5.122  27.598   8.253
 7367POPC   C3A31889   5.142  27.593   7.953
 7367POPC   C4A31890   5.075  27.562   7.653
 7367POPC   C1B31891   5.341  27.442   8.553
 7367POPC   C2B31892   5.350  27.487   8.253
 7367POPC   C3B31893   5.328  27.500   7.953
 7367POPC   C4B31894   5.309  27.478   7.653
 7368POPC   NC331895   5.113  39.244   9.453
 7368POPC   PO431896   5.071  39.233   9.153
 7368POPC   GL131897   5.122  39.254   8.853
 7368POPC   GL231898   5.196  39.314   8.853
 7368POPC   C1A31899   5.051  39.275   8.553
 7368POPC   D2A31900   5.065  39.223   8.253
 7368POPC   C3A31901   5.139  39.279   7.953
 7368POPC   C4A31902   5.104  39.240   7.653
 7368POPC   C1B31903   5.271  39.417   8.553
 7368POPC   C2B31904   5.311  39.444   8.253
 7368POPC   C3B31905   5.266  39.410   7.953
 7368POPC   C4B31906   5.318  39.400   7.653
 7369POPC   NC331907  11.309  41.509   9.453
 7369POPC   PO431908  11.273  41.565   9.153
 7369POPC   GL131909  11.328  41.572   8.853
 7369POPC   GL231910  11.413  41.638   8.853
 7369POPC   C1A31911  11.337  41.584   8.553
 7369POPC   D2A31912  11.342  41.515   8.253
 7369POPC   C3A31913  11.294  41.571   7.953
 7369POPC   C4A31914  11.329  41.583   7.653
 7369POPC   C1B31915  11.568  41.664   8.553
 7369POPC   C2B31916  11.515  41.586   8.253
 7369POPC   C3B31917  11.540  41.637   7.953
 7369POPC   C4B31918  11.572  41.627   7.653
 7370POPC   NC331919  18.269  43.098   9.453
 7370POPC   PO431920  18.267  43.143   9.153
 7370POPC   GL131921  18.317  43.155   8.853
 7370POPC   GL231922  18.298  43.021   8.853
 7370POPC   C1A31923  18.236  43.071   8.553
 7370POPC   D2A31924  18.319  43.152   8.253
 7370POPC   C3A31925  18.299  43.125   7.953
 7370POPC   C4A31926  18.254  43.140   7.653
 7370POPC   C1B31927  18.400  42.885   8.553
 7370POPC   C2B31928  18.431  42.896   8.253
 7370POPC   C3B31929  18.367  42.837   7.953
 7370POPC   C4B31930  18.436  42.897   7.653
 7371POPC   NC331931  39.266  34.547   9.453
 7371POPC   PO431932  39.216  34.587   9.153
 7371POPC   GL131933  39.231  34.595   8.853
 7371POPC   GL231934  39.310  34.483   8.853
 7371POPC   C1A31935  39.275  34.626   8.553
 7371POPC   D2A31936  39.193  34.543   8.253
 7371POPC   C3A31937  39.216  34.542   7.953
 7371POPC   C4A31938  39.258  34.582   7.653
 7371POPC   C1B31939  39.484  34.440   8.553
 7371POPC   C2B31940  39.462  34.470   8.253
 7371POPC   C3B31941  39.444  34.520   7.953
 7371POPC   C4B31942  39.437  34.442   7.653
 7372POPC   NC331943  25.992  42.355   9.453
 7372POPC   PO431944  26.037  42.332   9.153
 7372POPC   GL131945  26.008  42.334   8.853
 7372POPC   GL231946  26.115  42.191   8.853
 7372POPC   C1A31947  26.013  42.291   8.553
 7372POPC   D2A31948  26.009  42.327   8.253
 7372POPC   C3A31949  26.021  42.331   7.953
 7372POPC   C4A31950  26.029  42.345   7.653
 7372POPC   C1B31951  26.160  42.170   8.553
 7372POPC   C2B31952  26.188  42.089   8.253
 7372POPC   C3B31953  26.155  42.083   7.953
 7372POPC   C4B31954  26.159  42.102   7.653
 7373POPC   NC331955  42.339  19.099   9.453
 7373POPC   PO431956  42.379  19.015   9.153
 7373POPC   GL131957  42.309  19.011   8.853
 7373POPC   GL231958  42.368  19.230   8.853
 7373POPC   C1A31959  42.307  19.076   8.553
 7373POPC   D2A31960  42.328  19.023   8.253
 7373POPC   C3A31961  42.326  19.107   7.953
 7373POPC   C4A31962  42.309  19.088   7.653
 7373POPC   C1B31963  42.419  19.351   8.553
 7373POPC   C2B31964  42.326  19.318   8.253
 7373POPC   C3B31965  42.419  19.274   7.953
 7373POPC   C4B31966  42.325  19.345   7.653
 7374POPC   NC331967  30.720   5.879   9.453
 7374POPC   PO431968  30.684   5.848   9.153
 7374POPC   GL131969  30.668   5.840   8.853
 7374POPC   GL231970  30.713   5.734   8.853
 7374POPC   C1A31971  30.722   5.906   8.553
 7374POPC   D2A31972  30.647   5.833   8.253
 7374POPC   C3A31973  30.718   5.903   7.953
 7374POPC   C4A31974  30.734   5.873   7.653
 7374POPC   C1B31975  30.627   5.648   8.553
 7374POPC   C2B31976  30.622   5.657   8.253
 7374POPC   C3B31977  30.586   5.596   7.953
 7374POPC   C4B31978  30.628   5.668   7.653
 7375POPC   NC331979  38.444   0.393   9.453
 7375POPC   PO431980  38.432   0.427   9.153
 7375POPC   GL131981  38.432   0.411   8.853
 7375POPC   GL231982  38.372   0.491   8.853
 7375POPC   C1A31983  38.474   0.397   8.553
 7375POPC   D2A31984  38.438   0.449   8.253
 7375POPC   C3A31985  38.493   0.436   7.953
 7375POPC   C4A31986  38.484   0.478   7.653
 7375POPC   C1B31987  38.183   0.409   8.553
 7375POPC   C2B31988  38.217   0.449   8.253
 7375POPC   C3B31989  38.165   0.483   7.953
 7375POPC   C4B31990  38.255   0.455   7.653
 7376POPC   NC331991  12.891  43.924   9.453
 7376POPC   PO431992  12.806  43.913   9.153
 7376POPC   GL131993  12.830  43.870   8.853
 7376POPC   GL231994  12.747  43.989   8.853
 7376POPC   C1A31995  12.837  43.915   8.553
 7376POPC   D2A31996  12.821  43.879   8.253
 7376POPC   C3A31997  12.874  43.838   7.953
 7376POPC   C4A31998  12.895  43.932   7.653
 7376POPC   C1B31999  12.696  44.030   8.553
 7376POPC   C2B32000  12.712  44.052   8.253
 7376POPC   C3B32001  12.657  44.067   7.953
 7376POPC   C4B32002  12.690  44.099   7.653
 7377POPC   NC332003  29.933  36.145   9.453
 7377POPC   PO432004  29.944  36.085   9.153
 7377POPC   GL132005  29.965  36.105   8.853
 7377POPC   GL232006  29.890  36.025   8.853
 7377POPC   C1A32007  29.890  36.174   8.553
 7377POPC   D2A32008  29.946  36.123   8.253
 7377POPC   C3A32009  29.942  36.114   7.953
 7377POPC   C4A32010  29.891  36.107   7.653
 7377POPC   C1B32011  29.812  35.865   8.553
 7377POPC   C2B32012  29.850  35.938   8.253
 7377POPC   C3B32013  29.823  35.889   7.953
 7377POPC   C4B32014  29.818  35.864   7.653
 7378POPC   NC332015  22.151  43.905   9.453
 7378POPC   PO432016  22.166  43.932   9.153
 7378POPC   GL132017  22.200  43.886   8.853
 7378POPC   GL232018  22.125  43.730   8.853
 7378POPC   C1A32019  22.161  43.928   8.553
 7378POPC   D2A32020  22.189  43.907   8.253
 7378POPC   C3A32021  22.128  43.931   7.953
 7378POPC   C4A32022  22.151  43.885   7.653
 7378POPC   C1B32023  22.142  43.628   8.553
 7378POPC   C2B32024  22.160  43.630   8.253
 7378POPC   C3B32025  22.186  43.656   7.953
 7378POPC   C4B32026  22.115  43.617   7.653
 7379POPC   NC332027  31.426  41.575   9.453
 7379POPC   PO432028  31.480  41.532   9.153
 7379POPC   GL132029  31.477  41.512   8.853
 7379POPC   GL232030  31.507  41.709   8.853
 7379POPC   C1A32031  31.504  41.585   8.553
 7379POPC   D2A32032  31.498  41.543   8.253
 7379POPC   C3A32033  31.486  41.602   7.953
 7379POPC   C4A32034  31.452  41.521   7.653
 7379POPC   C1B32035  31.553  41.781   8.553
 7379POPC   C2B32036  31.592  41.767   8.253
 7379POPC   C3B32037  31.599  41.762   7.953
 7379POPC   C4B32038  31.595  41.748   7.653
 7380POPC   NC332039   2.736   6.624   9.453
 7380POPC   PO432040   2.758   6.613   9.153
 7380POPC   GL132041   2.750   6.623   8.853
 7380POPC   GL232042   2.857   6.621   8.853
 7380POPC   C1A32043   2.723   6.596   8.553
 7380POPC   D2A32044   2.745   6.595   8.253
 7380POPC   C3A32045   2.764   6.623   7.953
 7380POPC   C4A32046   2.781   6.617   7.653
 7380POPC   C1B32047   2.981   6.561   8.553
 7380POPC   C2B32048   3.028   6.507   8.253
 7380POPC   C3B32049   2.984   6.549   7.953
 7380POPC   C4B32050   3.034   6.513   7.653
 7381POPC   NC332051  21.389  34.608   9.453
 7381POPC   PO432052  21.337  34.605   9.153
 7381POPC   GL132053  21.411  34.614   8.853
 7381POPC   GL232054  21.336  34.508   8.853
 7381POPC   C1A32055  21.369  34.577   8.553
 7381POPC   D2A32056  21.431  34.565   8.253
 7381POPC   C3A32057  21.384  34.559   7.953
 7381POPC   C4A32058  21.344  34.526   7.653
 7381POPC   C1B32059  21.147  34.430   8.553
 7381POPC   C2B32060  21.209  34.432   8.253
 7381POPC   C3B32061  21.215  34.460   7.953
 7381POPC   C4B32062  21.216  34.460   7.653
 7382POPC   NC332063   8.193  25.240   9.453
 7382POPC   PO432064   8.223  25.278   9.153
 7382POPC   GL132065   8.168  25.243   8.853
 7382POPC   GL232066   8.266  25.382   8.853
 7382POPC   C1A32067   8.219  25.313   8.553
 7382POPC   D2A32068   8.208  25.263   8.253
 7382POPC   C3A32069   8.234  25.218   7.953
 7382POPC   C4A32070   8.149  25.252   7.653
 7382POPC   C1B32071   8.252  25.471   8.553
 7382POPC   C2B32072   8.290  25.471   8.253
 7382POPC   C3B32073   8.298  25.551   7.953
 7382POPC   C4B32074   8.223  25.505   7.653
 7383POPC   NC332075   6.683  27.627   9.453
 7383POPC   PO432076   6.657  27.562   9.153
 7383POPC   GL132077   6.680  27.610   8.853
 7383POPC   GL232078   6.513  27.654   8.853
 7383POPC   C1A32079   6.693  27.579   8.553
 7383POPC   D2A32080   6.659  27.641   8.253
 7383POPC   C3A32081   6.637  27.607   7.953
 7383POPC   C4A32082   6.669  27.639   7.653
 7383POPC   C1B32083   6.399  27.678   8.553
 7383POPC   C2B32084   6.357  27.682   8.253
 7383POPC   C3B32085   6.354  27.665   7.953
 7383POPC   C4B32086   6.396  27.620   7.653
 7384POPC   NC332087  19.838  17.544   9.453
 7384POPC   PO432088  19.872  17.521   9.153
 7384POPC   GL132089  19.868  17.475   8.853
 7384POPC   GL232090  19.746  17.451   8.853
 7384POPC   C1A32091  19.881  17.505   8.553
 7384POPC   D2A32092  19.866  17.512   8.253
 7384POPC   C3A32093  19.872  17.501   7.953
 7384POPC   C4A32094  19.837  17.554   7.653
 7384POPC   C1B32095  19.643  17.307   8.553
 7384POPC   C2B32096  19.715  17.278   8.253
 7384POPC   C3B32097  19.674  17.317   7.953
 7384POPC   C4B32098  19.666  17.277   7.653
 7385POPC   NC332099  16.778  33.785   9.453
 7385POPC   PO432100  16.753  33.790   9.153
 7385POPC   GL132101  16.733  33.831   8.853
 7385POPC   GL232102  16.843  33.885   8.853
 7385POPC   C1A32103  16.731  33.792   8.553
 7385POPC   D2A32104  16.777  33.771   8.253
 7385POPC   C3A32105  16.702  33.758   7.953
 7385POPC   C4A32106  16.702  33.765   7.653
 7385POPC   C1B32107  16.980  33.900   8.553
 7385POPC   C2B32108  16.914  33.872   8.253
 7385POPC   C3B32109  16.956  33.877   7.953
 7385POPC   C4B32110  16.961  33.873   7.653
 7386POPC   NC332111   8.170  21.385   9.453
 7386POPC   PO432112   8.167  21.360   9.153
 7386POPC   GL132113   8.160  21.382   8.853
 7386POPC   GL232114   8.273  21.481   8.853
 7386POPC   C1A32115   8.148  21.353   8.553
 7386POPC   D2A32116   8.177  21.345   8.253
 7386POPC   C3A32117   8.151  21.407   7.953
 7386POPC   C4A32118   8.223  21.434   7.653
 7386POPC   C1B32119   8.397  21.573   8.553
 7386POPC   C2B32120   8.394  21.493   8.253
 7386POPC   C3B32121   8.397  21.530   7.953
 7386POPC   C4B32122   8.417  21.579   7.653
 7387POPC   NC332123  28.367  17.478   9.453
 7387POPC   PO432124  28.381  17.514   9.153
 7387POPC   GL132125  28.380  17.506   8.853
 7387POPC   GL232126  28.404  17.353   8.853
 7387POPC   C1A32127  28.389  17.522   8.553
 7387POPC   D2A32128  28.412  17.538   8.253
 7387POPC   C3A32129  28.384  17.502   7.953
 7387POPC   C4A32130  28.323  17.496   7.653
 7387POPC   C1B32131  28.489  17.256   8.553
 7387POPC   C2B32132  28.549  17.345   8.253
 7387POPC   C3B32133  28.499  17.264   7.953
 7387POPC   C4B32134  28.492  17.275   7.653
 7388POPC   NC332135  32.268  25.245   9.453
 7388POPC   PO432136  32.264  25.311   9.153
 7388POPC   GL132137  32.201  25.275   8.853
 7388POPC   GL232138  32.316  25.185   8.853
 7388POPC   C1A32139  32.269  25.270   8.553
 7388POPC   D2A32140  32.199  25.240   8.253
 7388POPC   C3A32141  32.295  25.279   7.953
 7388POPC   C4A32142  32.212  25.279   7.653
 7388POPC   C1B32143  32.359  25.042   8.553
 7388POPC   C2B32144  32.353  25.052   8.253
 7388POPC   C3B32145  32.379  25.056   7.953
 7388POPC   C4B32146  32.398  25.047   7.653
 7389POPC   NC332147  43.138  41.531   9.453
 7389POPC   PO432148  43.074  41.564   9.153
 7389POPC   GL132149  43.127  41.570   8.853
 7389POPC   GL232150  43.108  41.652   8.853
 7389POPC   C1A32151  43.148  41.556   8.553
 7389POPC   D2A32152  43.065  41.517   8.253
 7389POPC   C3A32153  43.099  41.541   7.953
 7389POPC   C4A32154  43.151  41.588   7.653
 7389POPC   C1B32155  43.037  41.825   8.553
 7389POPC   C2B32156  43.054  41.792   8.253
 7389POPC   C3B32157  42.976  41.835   7.953
 7389POPC   C4B32158  42.987  41.798   7.653
 7390POPC   NC332159   5.077  33.011   9.453
 7390POPC   PO432160   5.047  32.996   9.153
 7390POPC   GL132161   5.111  33.069   8.853
 7390POPC   GL232162   4.963  32.942   8.853
 7390POPC   C1A32163   5.142  32.998   8.553
 7390POPC   D2A32164   5.117  33.061   8.253
 7390POPC   C3A32165   5.129  33.054   7.953
 7390POPC   C4A32166   5.104  33.013   7.653
 7390POPC   C1B32167   4.882  32.922   8.553
 7390POPC   C2B32168   4.879  32.848   8.253
 7390POPC   C3B32169   4.894  32.931   7.953
 7390POPC   C4B32170   4.870  32.878   7.653
 7391POPC   NC332171  43.108   2.774   9.453
 7391POPC   PO432172  43.063   2.763   9.153
 7391POPC   GL132173  43.089   2.727   8.853
 7391POPC   GL232174  43.159   2.832   8.853
 7391POPC   C1A32175  43.080   2.723   8.553
 7391POPC   D2A32176  43.158   2.802   8.253
 7391POPC   C3A32177  43.122   2.771   7.953
 7391POPC   C4A32178  43.115   2.734   7.653
 7391POPC   C1B32179  43.334   2.911   8.553
 7391POPC   C2B32180  43.346   2.963   8.253
 7391POPC   C3B32181  43.281   2.939   7.953
 7391POPC   C4B32182  43.261   2.893   7.653
 7392POPC   NC332183  43.916  44.642   9.453
 7392POPC   PO432184  43.873  44.619   9.153
 7392POPC   GL132185  43.850  44.699   8.853
 7392POPC   GL232186  43.983  44.802   8.853
 7392POPC   C1A32187  43.888  44.631   8.553
 7392POPC   D2A32188  43.917  44.612   8.253
 7392POPC   C3A32189  43.841  44.621   7.953
 7392POPC   C4A32190  43.910  44.623   7.653
 7392POPC   C1B32191  44.069  44.832   8.553
 7392POPC   C2B32192  44.096  44.892   8.253
 7392POPC   C3B32193  44.017  44.886   7.953
 7392POPC   C4B32194  44.093  44.822   7.653
 7393POPC   NC332195  26.773   2.735   9.453
 7393POPC   PO432196  26.804   2.741   9.153
 7393POPC   GL132197  26.825   2.716   8.853
 7393POPC   GL232198  26.842   2.842   8.853
 7393POPC   C1A32199  26.773   2.799   8.553
 7393POPC   D2A32200  26.857   2.803   8.253
 7393POPC   C3A32201  26.832   2.805   7.953
 7393POPC   C4A32202  26.836   2.770   7.653
 7393POPC   C1B32203  26.802   2.982   8.553
 7393POPC   C2B32204  26.762   3.016   8.253
 7393POPC   C3B32205  26.742   3.058   7.953
 7393POPC   C4B32206  26.797   2.962   7.653
 7394POPC   NC332207   4.337   3.558   9.453
 7394POPC   PO432208   4.321   3.532   9.153
 7394POPC   GL132209   4.305   3.568   8.853
 7394POPC   GL232210   4.357   3.606   8.853
 7394POPC   C1A32211   4.306   3.528   8.553
 7394POPC   D2A32212   4.352   3.586   8.253
 7394POPC   C3A32213   4.327   3.585   7.953
 7394POPC   C4A32214   4.312   3.494   7.653
 7394POPC   C1B32215   4.503   3.736   8.553
 7394POPC   C2B32216   4.452   3.704   8.253
 7394POPC   C3B32217   4.432   3.760   7.953
 7394POPC   C4B32218   4.456   3.767   7.653
 7395POPC   NC332219  36.114  24.443   9.453
 7395POPC   PO432220  36.132  24.533   9.153
 7395POPC   GL132221  36.099  24.448   8.853
 7395POPC   GL232222  36.204  24.388   8.853
 7395POPC   C1A32223  36.152  24.461   8.553
 7395POPC   D2A32224  36.120  24.472   8.253
 7395POPC   C3A32225  36.102  24.492   7.953
 7395POPC   C4A32226  36.106  24.485   7.653
 7395POPC   C1B32227  36.269  24.321   8.553
 7395POPC   C2B32228  36.337  24.362   8.253
 7395POPC   C3B32229  36.305  24.364   7.953
 7395POPC   C4B32230  36.277  24.332   7.653
 7396POPC   NC332231   5.910  27.589   9.453
 7396POPC   PO432232   5.820  27.630   9.153
 7396POPC   GL132233   5.833  27.639   8.853
 7396POPC   GL232234   6.020  27.570   8.853
 7396POPC   C1A32235   5.900  27.561   8.553
 7396POPC   D2A32236   5.906  27.613   8.253
 7396POPC   C3A32237   5.873  27.582   7.953
 7396POPC   C4A32238   5.881  27.548   7.653
 7396POPC   C1B32239   6.110  27.633   8.553
 7396POPC   C2B32240   6.112  27.605   8.253
 7396POPC   C3B32241   6.114  27.607   7.953
 7396POPC   C4B32242   6.112  27.629   7.653
 7397POPC   NC332243  26.080  13.641   9.453
 7397POPC   PO432244  26.072  13.580   9.153
 7397POPC   GL132245  26.047  13.616   8.853
 7397POPC   GL232246  26.093  13.736   8.853
 7397POPC   C1A32247  25.999  13.588   8.553
 7397POPC   D2A32248  26.088  13.603   8.253
 7397POPC   C3A32249  26.030  13.660   7.953
 7397POPC   C4A32250  26.015  13.665   7.653
 7397POPC   C1B32251  26.060  13.853   8.553
 7397POPC   C2B32252  26.113  13.899   8.253
 7397POPC   C3B32253  26.050  13.843   7.953
 7397POPC   C4B32254  26.135  13.907   7.653
 7398POPC   NC332255  36.882   7.464   9.453
 7398POPC   PO432256  36.944   7.408   9.153
 7398POPC   GL132257  36.858   7.444   8.853
 7398POPC   GL232258  37.011   7.488   8.853
 7398POPC   C1A32259  36.947   7.450   8.553
 7398POPC   D2A32260  36.900   7.435   8.253
 7398POPC   C3A32261  36.937   7.420   7.953
 7398POPC   C4A32262  36.871   7.467   7.653
 7398POPC   C1B32263  37.069   7.636   8.553
 7398POPC   C2B32264  37.061   7.576   8.253
 7398POPC   C3B32265  37.046   7.567   7.953
 7398POPC   C4B32266  37.109   7.645   7.653
 7399POPC   NC332267  39.979  20.575   9.453
 7399POPC   PO432268  39.981  20.658   9.153
 7399POPC   GL132269  40.032  20.575   8.853
 7399POPC   GL232270  40.012  20.746   8.853
 7399POPC   C1A32271  39.963  20.576   8.553
 7399POPC   D2A32272  39.979  20.604   8.253
 7399POPC   C3A32273  39.977  20.658   7.953
 7399POPC   C4A32274  39.991  20.619   7.653
 7399POPC   C1B32275  40.008  20.890   8.553
 7399POPC   C2B32276  39.968  20.815   8.253
 7399POPC   C3B32277  40.039  20.871   7.953
 7399POPC   C4B32278  39.993  20.900   7.653
 7400POPC   NC332279  36.872  27.609   9.453
 7400POPC   PO432280  36.952  27.616   9.153
 7400POPC   GL132281  36.904  27.634   8.853
 7400POPC   GL232282  36.806  27.612   8.853
 7400POPC   C1A32283  36.887  27.571   8.553
 7400POPC   D2A32284  36.877  27.612   8.253
 7400POPC   C3A32285  36.910  27.550   7.953
 7400POPC   C4A32286  36.921  27.563   7.653
 7400POPC   C1B32287  36.668  27.698   8.553
 7400POPC   C2B32288  36.663  27.676   8.253
 7400POPC   C3B32289  36.658  27.629   7.953
 7400POPC   C4B32290  36.620  27.659   7.653
 7401POPC   NC332291   1.986   3.501   9.453
 7401POPC   PO432292   2.021   3.519   9.153
 7401POPC   GL132293   1.953   3.492   8.853
 7401POPC   GL232294   1.862   3.607   8.853
 7401POPC   C1A32295   2.008   3.508   8.553
 7401POPC   D2A32296   1.955   3.577   8.253
 7401POPC   C3A32297   2.022   3.530   7.953
 7401POPC   C4A32298   1.988   3.502   7.653
 7401POPC   C1B32299   1.817   3.762   8.553
 7401POPC   C2B32300   1.780   3.766   8.253
 7401POPC   C3B32301   1.784   3.765   7.953
 7401POPC   C4B32302   1.780   3.728   7.653
 7402POPC   NC332303  24.525  26.087   9.453
 7402POPC   PO432304  24.461  26.056   9.153
 7402POPC   GL132305  24.492  26.084   8.853
 7402POPC   GL232306  24.588  26.064   8.853
 7402POPC   C1A32307  24.465  26.073   8.553
 7402POPC   D2A32308  24.532  26.016   8.253
 7402POPC   C3A32309  24.473  26.070   7.953
 7402POPC   C4A32310  24.479  26.025   7.653
 7402POPC   C1B32311  24.764  26.113   8.553
 7402POPC   C2B32312  24.780  26.096   8.253
 7402POPC   C3B32313  24.764  26.107   7.953
 7402POPC   C4B32314  24.696  26.033   7.653
 7403POPC   NC332315  40.774  37.646   9.453
 7403POPC   PO432316  40.770  37.653   9.153
 7403POPC   GL132317  40.744  37.657   8.853
 7403POPC   GL232318  40.750  37.757   8.853
 7403POPC   C1A32319  40.742  37.681   8.553
 7403POPC   D2A32320  40.792  37.671   8.253
 7403POPC   C3A32321  40.738  37.689   7.953
 7403POPC   C4A32322  40.775  37.638   7.653
 7403POPC   C1B32323  40.717  37.911   8.553
 7403POPC   C2B32324  40.712  37.904   8.253
 7403POPC   C3B32325  40.683  37.889   7.953
 7403POPC   C4B32326  40.693  37.927   7.653
 7404POPC   NC332327  15.183   1.986   9.453
 7404POPC   PO432328  15.177   2.009   9.153
 7404POPC   GL132329  15.211   2.013   8.853
 7404POPC   GL232330  15.106   2.036   8.853
 7404POPC   C1A32331  15.140   2.008   8.553
 7404POPC   D2A32332  15.203   2.004   8.253
 7404POPC   C3A32333  15.181   1.943   7.953
 7404POPC   C4A32334  15.165   1.999   7.653
 7404POPC   C1B32335  15.013   2.201   8.553
 7404POPC   C2B32336  15.030   2.140   8.253
 7404POPC   C3B32337  15.025   2.226   7.953
 7404POPC   C4B32338  15.034   2.131   7.653
 7405POPC   NC332339  25.298   6.609   9.453
 7405POPC   PO432340  25.257   6.624   9.153
 7405POPC   GL132341  25.307   6.637   8.853
 7405POPC   GL232342  25.131   6.529   8.853
 7405POPC   C1A32343  25.242   6.609   8.553
 7405POPC   D2A32344  25.260   6.640   8.253
 7405POPC   C3A32345  25.287   6.625   7.953
 7405POPC   C4A32346  25.251   6.672   7.653
 7405POPC   C1B32347  25.060   6.499   8.553
 7405POPC   C2B32348  25.128   6.480   8.253
 7405POPC   C3B32349  25.101   6.423   7.953
 7405POPC   C4B32350  25.103   6.439   7.653
 7406POPC   NC332351  31.501  36.874   9.453
 7406POPC   PO432352  31.521  36.873   9.153
 7406POPC   GL132353  31.461  36.889   8.853
 7406POPC   GL232354  31.627  36.863   8.853
 7406POPC   C1A32355  31.493  36.897   8.553
 7406POPC   D2A32356  31.445  36.862   8.253
 7406POPC   C3A32357  31.519  36.937   7.953
 7406POPC   C4A32358  31.456  36.885   7.653
 7406POPC   C1B32359  31.751  36.837   8.553
 7406POPC   C2B32360  31.751  36.773   8.253
 7406POPC   C3B32361  31.660  36.772   7.953
 7406POPC   C4B32362  31.671  36.829   7.653
 7407POPC   NC332363  24.462  36.118   9.453
 7407POPC   PO432364  24.538  36.106   9.153
 7407POPC   GL132365  24.442  36.117   8.853
 7407POPC   GL232366  24.540  35.977   8.853
 7407POPC   C1A32367  24.504  36.094   8.553
 7407POPC   D2A32368  24.454  36.078   8.253
 7407POPC   C3A32369  24.501  36.155   7.953
 7407POPC   C4A32370  24.464  36.120   7.653
 7407POPC   C1B32371  24.557  35.855   8.553
 7407POPC   C2B32372  24.472  35.903   8.253
 7407POPC   C3B32373  24.528  35.916   7.953
 7407POPC   C4B32374  24.509  35.836   7.653
 7408POPC   NC332375  33.847  32.250   9.453
 7408POPC   PO432376  33.822  32.253   9.153
 7408POPC   GL132377  33.776  32.290   8.853
 7408POPC   GL232378  33.751  32.334   8.853
 7408POPC   C1A32379  33.751  32.271   8.553
 7408POPC   D2A32380  33.850  32.211   8.253
 7408POPC   C3A32381  33.804  32.264   7.953
 7408POPC   C4A32382  33.847  32.202   7.653
 7408POPC   C1B32383  33.664  32.435   8.553
 7408POPC   C2B32384  33.623  32.508   8.253
 7408POPC   C3B32385  33.677  32.426   7.953
 7408POPC   C4B32386  33.626  32.440   7.653
 7409POPC   NC332387   4.339  38.501   9.453
 7409POPC   PO432388   4.301  38.453   9.153
 7409POPC   GL132389   4.366  38.437   8.853
 7409POPC   GL232390   4.190  38.423   8.853
 7409POPC   C1A32391   4.337  38.476   8.553
 7409POPC   D2A32392   4.285  38.429   8.253
 7409POPC   C3A32393   4.334  38.415   7.953
 7409POPC   C4A32394   4.338  38.472   7.653
 7409POPC   C1B32395   4.070  38.449   8.553
 7409POPC   C2B32396   4.026  38.475   8.253
 7409POPC   C3B32397   4.116  38.487   7.953
 7409POPC   C4B32398   4.111  38.434   7.653
 7410POPC   NC332399  23.681   0.425   9.453
 7410POPC   PO432400  23.734   0.458   9.153
 7410POPC   GL132401  23.715   0.432   8.853
 7410POPC   GL232402  23.797   0.489   8.853
 7410POPC   C1A32403  23.664   0.485   8.553
 7410POPC   D2A32404  23.735   0.477   8.253
 7410POPC   C3A32405  23.750   0.427   7.953
 7410POPC   C4A32406  23.666   0.420   7.653
 7410POPC   C1B32407  23.955   0.522   8.553
 7410POPC   C2B32408  23.954   0.576   8.253
 7410POPC   C3B32409  23.897   0.511   7.953
 7410POPC   C4B32410  23.929   0.524   7.653
 7411POPC   NC332411  43.877  16.723   9.453
 7411POPC   PO432412  43.874  16.773   9.153
 7411POPC   GL132413  43.873  16.760   8.853
 7411POPC   GL232414  43.954  16.655   8.853
 7411POPC   C1A32415  43.858  16.740   8.553
 7411POPC   D2A32416  43.927  16.780   8.253
 7411POPC   C3A32417  43.842  16.710   7.953
 7411POPC   C4A32418  43.905  16.691   7.653
 7411POPC   C1B32419  44.063  16.616   8.553
 7411POPC   C2B32420  44.126  16.587   8.253
 7411POPC   C3B32421  44.156  16.580   7.953
 7411POPC   C4B32422  44.072  16.616   7.653
 7412POPC   NC332423  10.550  18.295   9.453
 7412POPC   PO432424  10.536  18.331   9.153
 7412POPC   GL132425  10.533  18.330   8.853
 7412POPC   GL232426  10.516  18.358   8.853
 7412POPC   C1A32427  10.526  18.328   8.553
 7412POPC   D2A32428  10.561  18.244   8.253
 7412POPC   C3A32429  10.487  18.308   7.953
 7412POPC   C4A32430  10.574  18.235   7.653
 7412POPC   C1B32431  10.411  18.554   8.553
 7412POPC   C2B32432  10.418  18.527   8.253
 7412POPC   C3B32433  10.437  18.535   7.953
 7412POPC   C4B32434  10.459  18.546   7.653
 7413POPC   NC332435  36.896  14.398   9.453
 7413POPC   PO432436  36.931  14.387   9.153
 7413POPC   GL132437  36.867  14.438   8.853
 7413POPC   GL232438  36.937  14.544   8.853
 7413POPC   C1A32439  36.868  14.382   8.553
 7413POPC   D2A32440  36.924  14.361   8.253
 7413POPC   C3A32441  36.877  14.382   7.953
 7413POPC   C4A32442  36.864  14.355   7.653
 7413POPC   C1B32443  36.961  14.645   8.553
 7413POPC   C2B32444  36.952  14.636   8.253
 7413POPC   C3B32445  36.995  14.696   7.953
 7413POPC   C4B32446  36.917  14.651   7.653
 7414POPC   NC332447  27.638  43.922   9.453
 7414POPC   PO432448  27.612  43.853   9.153
 7414POPC   GL132449  27.621  43.886   8.853
 7414POPC   GL232450  27.696  43.832   8.853
 7414POPC   C1A32451  27.621  43.909   8.553
 7414POPC   D2A32452  27.641  43.913   8.253
 7414POPC   C3A32453  27.600  43.863   7.953
 7414POPC   C4A32454  27.631  43.888   7.653
 7414POPC   C1B32455  27.856  43.805   8.553
 7414POPC   C2B32456  27.840  43.743   8.253
 7414POPC   C3B32457  27.868  43.816   7.953
 7414POPC   C4B32458  27.796  43.774   7.653
 7415POPC   NC332459  15.167  24.449   9.453
 7415POPC   PO432460  15.214  24.517   9.153
 7415POPC   GL132461  15.201  24.474   8.853
 7415POPC   GL232462  15.286  24.481   8.853
 7415POPC   C1A32463  15.200  24.526   8.553
 7415POPC   D2A32464  15.183  24.522   8.253
 7415POPC   C3A32465  15.199  24.509   7.953
 7415POPC   C4A32466  15.226  24.467   7.653
 7415POPC   C1B32467  15.446  24.432   8.553
 7415POPC   C2B32468  15.448  24.391   8.253
 7415POPC   C3B32469  15.420  24.357   7.953
 7415POPC   C4B32470  15.462  24.432   7.653
 7416POPC   NC332471  14.399  39.184   9.453
 7416POPC   PO432472  14.367  39.276   9.153
 7416POPC   GL132473  14.431  39.218   8.853
 7416POPC   GL232474  14.495  39.364   8.853
 7416POPC   C1A32475  14.413  39.212   8.553
 7416POPC   D2A32476  14.416  39.206   8.253
 7416POPC   C3A32477  14.362  39.247   7.953
 7416POPC   C4A32478  14.361  39.227   7.653
 7416POPC   C1B32479  14.601  39.439   8.553
 7416POPC   C2B32480  14.583  39.438   8.253
 7416POPC   C3B32481  14.602  39.449   7.953
 7416POPC   C4B32482  14.569  39.458   7.653
 7417POPC   NC332483  37.666  26.772   9.453
 7417POPC   PO432484  37.672  26.808   9.153
 7417POPC   GL132485  37.633  26.824   8.853
 7417POPC   GL232486  37.725  26.749   8.853
 7417POPC   C1A32487  37.655  26.840   8.553
 7417POPC   D2A32488  37.713  26.848   8.253
 7417POPC   C3A32489  37.677  26.839   7.953
 7417POPC   C4A32490  37.642  26.853   7.653
 7417POPC   C1B32491  37.795  26.589   8.553
 7417POPC   C2B32492  37.749  26.636   8.253
 7417POPC   C3B32493  37.815  26.545   7.953
 7417POPC   C4B32494  37.816  26.557   7.653
 7418POPC   NC332495  27.620  33.789   9.453
 7418POPC   PO432496  27.557  33.827   9.153
 7418POPC   GL132497  27.572  33.779   8.853
 7418POPC   GL232498  27.528  33.874   8.853
 7418POPC   C1A32499  27.624  33.759   8.553
 7418POPC   D2A32500  27.593  33.849   8.253
 7418POPC   C3A32501  27.617  33.786   7.953
 7418POPC   C4A32502  27.637  33.791   7.653
 7418POPC   C1B32503  27.398  33.929   8.553
 7418POPC   C2B32504  27.350  33.952   8.253
 7418POPC   C3B32505  27.411  33.926   7.953
 7418POPC   C4B32506  27.413  33.943   7.653
 7419POPC   NC332507  40.756  35.361   9.453
 7419POPC   PO432508  40.762  35.365   9.153
 7419POPC   GL132509  40.812  35.325   8.853
 7419POPC   GL232510  40.720  35.294   8.853
 7419POPC   C1A32511  40.785  35.366   8.553
 7419POPC   D2A32512  40.792  35.310   8.253
 7419POPC   C3A32513  40.737  35.330   7.953
 7419POPC   C4A32514  40.810  35.345   7.653
 7419POPC   C1B32515  40.581  35.230   8.553
 7419POPC   C2B32516  40.576  35.215   8.253
 7419POPC   C3B32517  40.596  35.264   7.953
 7419POPC   C4B32518  40.532  35.238   7.653
 7420POPC   NC332519   7.451  41.582   9.453
 7420POPC   PO432520   7.416  41.597   9.153
 7420POPC   GL132521   7.414  41.582   8.853
 7420POPC   GL232522   7.536  41.456   8.853
 7420POPC   C1A32523   7.443  41.559   8.553
 7420POPC   D2A32524   7.468  41.564   8.253
 7420POPC   C3A32525   7.386  41.566   7.953
 7420POPC   C4A32526   7.428  41.581   7.653
 7420POPC   C1B32527   7.522  41.358   8.553
 7420POPC   C2B32528   7.581  41.335   8.253
 7420POPC   C3B32529   7.553  41.395   7.953
 7420POPC   C4B32530   7.592  41.343   7.653
 7421POPC   NC332531  35.382  32.994   9.453
 7421POPC   PO432532  35.309  33.000   9.153
 7421POPC   GL132533  35.349  33.072   8.853
 7421POPC   GL232534  35.401  32.854   8.853
 7421POPC   C1A32535  35.316  33.047   8.553
 7421POPC   D2A32536  35.327  33.038   8.253
 7421POPC   C3A32537  35.330  33.008   7.953
 7421POPC   C4A32538  35.315  32.986   7.653
 7421POPC   C1B32539  35.416  32.752   8.553
 7421POPC   C2B32540  35.418  32.800   8.253
 7421POPC   C3B32541  35.399  32.794   7.953
 7421POPC   C4B32542  35.400  32.755   7.653
 7422POPC   NC332543  20.646  28.364   9.453
 7422POPC   PO432544  20.614  28.331   9.153
 7422POPC   GL132545  20.656  28.412   8.853
 7422POPC   GL232546  20.525  28.463   8.853
 7422POPC   C1A32547  20.633  28.327   8.553
 7422POPC   D2A32548  20.625  28.321   8.253
 7422POPC   C3A32549  20.630  28.360   7.953
 7422POPC   C4A32550  20.643  28.372   7.653
 7422POPC   C1B32551  20.359  28.470   8.553
 7422POPC   C2B32552  20.382  28.456   8.253
 7422POPC   C3B32553  20.412  28.520   7.953
 7422POPC   C4B32554  20.432  28.486   7.653
 7423POPC   NC332555  19.091   5.883   9.453
 7423POPC   PO432556  19.049   5.900   9.153
 7423POPC   GL132557  19.030   5.827   8.853
 7423POPC   GL232558  19.169   5.793   8.853
 7423POPC   C1A32559  19.067   5.855   8.553
 7423POPC   D2A32560  19.085   5.891   8.253
 7423POPC   C3A32561  19.029   5.882   7.953
 7423POPC   C4A32562  19.108   5.889   7.653
 7423POPC   C1B32563  19.306   5.852   8.553
 7423POPC   C2B32564  19.345   5.846   8.253
 7423POPC   C3B32565  19.337   5.805   7.953
 7423POPC   C4B32566  19.272   5.825   7.653
 7424POPC   NC332567  43.145  26.831   9.453
 7424POPC   PO432568  43.066  26.777   9.153
 7424POPC   GL132569  43.072  26.837   8.853
 7424POPC   GL232570  43.033  26.883   8.853
 7424POPC   C1A32571  43.150  26.850   8.553
 7424POPC   D2A32572  43.119  26.847   8.253
 7424POPC   C3A32573  43.096  26.810   7.953
 7424POPC   C4A32574  43.071  26.858   7.653
 7424POPC   C1B32575  42.900  26.970   8.553
 7424POPC   C2B32576  42.883  26.970   8.253
 7424POPC   C3B32577  42.928  26.920   7.953
 7424POPC   C4B32578  42.934  26.907   7.653
 7425POPC   NC332579  17.512  29.921   9.453
 7425POPC   PO432580  17.469  29.877   9.153
 7425POPC   GL132581  17.529  29.882   8.853
 7425POPC   GL232582  17.407  29.877   8.853
 7425POPC   C1A32583  17.543  29.875   8.553
 7425POPC   D2A32584  17.495  29.900   8.253
 7425POPC   C3A32585  17.519  29.889   7.953
 7425POPC   C4A32586  17.541  29.907   7.653
 7425POPC   C1B32587  17.313  29.904   8.553
 7425POPC   C2B32588  17.235  29.901   8.253
 7425POPC   C3B32589  17.238  29.820   7.953
 7425POPC   C4B32590  17.247  29.852   7.653
 7426POPC   NC332591  30.668  28.359   9.453
 7426POPC   PO432592  30.689  28.373   9.153
 7426POPC   GL132593  30.715  28.367   8.853
 7426POPC   GL232594  30.596  28.414   8.853
 7426POPC   C1A32595  30.683  28.402   8.553
 7426POPC   D2A32596  30.715  28.415   8.253
 7426POPC   C3A32597  30.665  28.398   7.953
 7426POPC   C4A32598  30.672  28.396   7.653
 7426POPC   C1B32599  30.495  28.434   8.553
 7426POPC   C2B32600  30.449  28.456   8.253
 7426POPC   C3B32601  30.430  28.443   7.953
 7426POPC   C4B32602  30.456  28.465   7.653
 7427POPC   NC332603  19.882  42.380   9.453
 7427POPC   PO432604  19.840  42.353   9.153
 7427POPC   GL132605  19.876  42.323   8.853
 7427POPC   GL232606  19.946  42.383   8.853
 7427POPC   C1A32607  19.872  42.370   8.553
 7427POPC   D2A32608  19.804  42.328   8.253
 7427POPC   C3A32609  19.800  42.301   7.953
 7427POPC   C4A32610  19.814  42.326   7.653
 7427POPC   C1B32611  20.052  42.480   8.553
 7427POPC   C2B32612  20.022  42.551   8.253
 7427POPC   C3B32613  20.053  42.526   7.953
 7427POPC   C4B32614  20.032  42.525   7.653
 7428POPC   NC332615  25.250  40.045   9.453
 7428POPC   PO432616  25.301  40.054   9.153
 7428POPC   GL132617  25.297  40.041   8.853
 7428POPC   GL232618  25.266  39.837   8.853
 7428POPC   C1A32619  25.287  39.972   8.553
 7428POPC   D2A32620  25.256  40.023   8.253
 7428POPC   C3A32621  25.294  40.009   7.953
 7428POPC   C4A32622  25.291  39.998   7.653
 7428POPC   C1B32623  25.176  39.721   8.553
 7428POPC   C2B32624  25.217  39.787   8.253
 7428POPC   C3B32625  25.187  39.760   7.953
 7428POPC   C4B32626  25.183  39.755   7.653
 7429POPC   NC332627   8.182   9.711   9.453
 7429POPC   PO432628   8.194   9.779   9.153
 7429POPC   GL132629   8.170   9.702   8.853
 7429POPC   GL232630   8.112   9.908   8.853
 7429POPC   C1A32631   8.172   9.778   8.553
 7429POPC   D2A32632   8.195   9.793   8.253
 7429POPC   C3A32633   8.227   9.728   7.953
 7429POPC   C4A32634   8.179   9.752   7.653
 7429POPC   C1B32635   8.093   9.972   8.553
 7429POPC   C2B32636   8.164   9.970   8.253
 7429POPC   C3B32637   8.113   9.965   7.953
 7429POPC   C4B32638   8.110   9.948   7.653
 7430POPC   NC332639  24.505   1.225   9.453
 7430POPC   PO432640  24.495   1.262   9.153
 7430POPC   GL132641  24.497   1.213   8.853
 7430POPC   GL232642  24.458   1.110   8.853
 7430POPC   C1A32643  24.444   1.232   8.553
 7430POPC   D2A32644  24.472   1.172   8.253
 7430POPC   C3A32645  24.506   1.182   7.953
 7430POPC   C4A32646  24.505   1.218   7.653
 7430POPC   C1B32647  24.509   0.931   8.553
 7430POPC   C2B32648  24.475   1.003   8.253
 7430POPC   C3B32649  24.451   0.991   7.953
 7430POPC   C4B32650  24.445   0.947   7.653
 7431POPC   NC332651   2.722  15.179   9.453
 7431POPC   PO432652   2.723  15.144   9.153
 7431POPC   GL132653   2.756  15.163   8.853
 7431POPC   GL232654   2.866  15.085   8.853
 7431POPC   C1A32655   2.785  15.197   8.553
 7431POPC   D2A32656   2.802  15.161   8.253
 7431POPC   C3A32657   2.717  15.197   7.953
 7431POPC   C4A32658   2.772  15.160   7.653
 7431POPC   C1B32659   2.971  15.025   8.553
 7431POPC   C2B32660   2.918  14.993   8.253
 7431POPC   C3B32661   2.970  15.005   7.953
 7431POPC   C4B32662   2.915  15.018   7.653
 7432POPC   NC332663   4.273  36.897   9.453
 7432POPC   PO432664   4.311  36.926   9.153
 7432POPC   GL132665   4.346  36.919   8.853
 7432POPC   GL232666   4.405  36.926   8.853
 7432POPC   C1A32667   4.287  36.924   8.553
 7432POPC   D2A32668   4.323  36.900   8.253
 7432POPC   C3A32669   4.324  36.879   7.953
 7432POPC   C4A32670   4.312  36.907   7.653
 7432POPC   C1B32671   4.588  36.874   8.553
 7432POPC   C2B32672   4.598  36.940   8.253
 7432POPC   C3B32673   4.569  36.866   7.953
 7432POPC   C4B32674   4.541  36.853   7.653
 7433POPC   NC332675  24.490   5.852   9.453
 7433POPC   PO432676  24.505   5.906   9.153
 7433POPC   GL132677  24.493   5.854   8.853
 7433POPC   GL232678  24.630   5.837   8.853
 7433POPC   C1A32679  24.530   5.842   8.553
 7433POPC   D2A32680  24.493   5.820   8.253
 7433POPC   C3A32681  24.464   5.855   7.953
 7433POPC   C4A32682  24.513   5.916   7.653
 7433POPC   C1B32683  24.735   5.776   8.553
 7433POPC   C2B32684  24.717   5.753   8.253
 7433POPC   C3B32685  24.762   5.805   7.953
 7433POPC   C4B32686  24.765   5.775   7.653
 7434POPC   NC332687   5.862   2.798   9.453
 7434POPC   PO432688   5.849   2.765   9.153
 7434POPC   GL132689   5.855   2.777   8.853
 7434POPC   GL232690   5.800   2.651   8.853
 7434POPC   C1A32691   5.910   2.751   8.553
 7434POPC   D2A32692   5.865   2.750   8.253
 7434POPC   C3A32693   5.820   2.781   7.953
 7434POPC   C4A32694   5.912   2.740   7.653
 7434POPC   C1B32695   5.666   2.591   8.553
 7434POPC   C2B32696   5.686   2.547   8.253
 7434POPC   C3B32697   5.749   2.542   7.953
 7434POPC   C4B32698   5.749   2.555   7.653
 7435POPC   NC332699  33.827  28.339   9.453
 7435POPC   PO432700  33.777  28.381   9.153
 7435POPC   GL132701  33.825  28.329   8.853
 7435POPC   GL232702  33.930  28.417   8.853
 7435POPC   C1A32703  33.768  28.323   8.553
 7435POPC   D2A32704  33.782  28.378   8.253
 7435POPC   C3A32705  33.787  28.385   7.953
 7435POPC   C4A32706  33.840  28.343   7.653
 7435POPC   C1B32707  34.042  28.513   8.553
 7435POPC   C2B32708  34.014  28.463   8.253
 7435POPC   C3B32709  33.987  28.440   7.953
 7435POPC   C4B32710  34.004  28.510   7.653
 7436POPC   NC332711  26.798  19.836   9.453
 7436POPC   PO432712  26.814  19.807   9.153
 7436POPC   GL132713  26.839  19.854   8.853
 7436POPC   GL232714  26.783  19.746   8.853
 7436POPC   C1A32715  26.812  19.883   8.553
 7436POPC   D2A32716  26.786  19.785   8.253
 7436POPC   C3A32717  26.785  19.845   7.953
 7436POPC   C4A32718  26.858  19.809   7.653
 7436POPC   C1B32719  26.630  19.591   8.553
 7436POPC   C2B32720  26.633  19.611   8.253
 7436POPC   C3B32721  26.653  19.674   7.953
 7436POPC   C4B32722  26.623  19.625   7.653
 7437POPC   NC332723  43.119   1.208   9.453
 7437POPC   PO432724  43.072   1.236   9.153
 7437POPC   GL132725  43.077   1.179   8.853
 7437POPC   GL232726  43.008   1.315   8.853
 7437POPC   C1A32727  43.115   1.248   8.553
 7437POPC   D2A32728  43.068   1.210   8.253
 7437POPC   C3A32729  43.089   1.211   7.953
 7437POPC   C4A32730  43.140   1.226   7.653
 7437POPC   C1B32731  43.013   1.439   8.553
 7437POPC   C2B32732  43.037   1.388   8.253
 7437POPC   C3B32733  43.021   1.463   7.953
 7437POPC   C4B32734  42.943   1.482   7.653
 7438POPC   NC332735   5.046  38.489   9.453
 7438POPC   PO432736   5.093  38.450   9.153
 7438POPC   GL132737   5.109  38.457   8.853
 7438POPC   GL232738   5.161  38.356   8.853
 7438POPC   C1A32739   5.077  38.428   8.553
 7438POPC   D2A32740   5.141  38.479   8.253
 7438POPC   C3A32741   5.079  38.491   7.953
 7438POPC   C4A32742   5.142  38.499   7.653
 7438POPC   C1B32743   5.327  38.371   8.553
 7438POPC   C2B32744   5.323  38.304   8.253
 7438POPC   C3B32745   5.277  38.369   7.953
 7438POPC   C4B32746   5.290  38.332   7.653
 7439POPC   NC332747   4.270  28.330   9.453
 7439POPC   PO432748   4.360  28.404   9.153
 7439POPC   GL132749   4.268  28.394   8.853
 7439POPC   GL232750   4.178  28.296   8.853
 7439POPC   C1A32751   4.324  28.361   8.553
 7439POPC   D2A32752   4.291  28.413   8.253
 7439POPC   C3A32753   4.367  28.330   7.953
 7439POPC   C4A32754   4.330  28.355   7.653
 7439POPC   C1B32755   4.078  28.190   8.553
 7439POPC   C2B32756   4.088  28.194   8.253
 7439POPC   C3B32757   4.079  28.179   7.953
 7439POPC   C4B32758   4.114  28.209   7.653
 7440POPC   NC332759  19.072  43.110   9.453
 7440POPC   PO432760  19.077  43.071   9.153
 7440POPC   GL132761  19.105  43.088   8.853
 7440POPC   GL232762  18.961  43.205   8.853
 7440POPC   C1A32763  19.041  43.159   8.553
 7440POPC   D2A32764  19.079  43.075   8.253
 7440POPC   C3A32765  19.085  43.122   7.953
 7440POPC   C4A32766  19.086  43.138   7.653
 7440POPC   C1B32767  18.824  43.261   8.553
 7440POPC   C2B32768  18.917  43.301   8.253
 7440POPC   C3B32769  18.838  43.317   7.953
 7440POPC   C4B32770  18.827  43.243   7.653
 7441POPC   NC332771  20.630  21.379   9.453
 7441POPC   PO432772  20.634  21.435   9.153
 7441POPC   GL132773  20.639  21.395   8.853
 7441POPC   GL232774  20.636  21.500   8.853
 7441POPC   C1A32775  20.649  21.339   8.553
 7441POPC   D2A32776  20.565  21.405   8.253
 7441POPC   C3A32777  20.607  21.368   7.953
 7441POPC   C4A32778  20.624  21.394   7.653
 7441POPC   C1B32779  20.636  21.629   8.553
 7441POPC   C2B32780  20.624  21.596   8.253
 7441POPC   C3B32781  20.608  21.594   7.953
 7441POPC   C4B32782  20.605  21.608   7.653
 7442POPC   NC332783  26.032  43.159   9.453
 7442POPC   PO432784  26.027  43.109   9.153
 7442POPC   GL132785  26.061  43.068   8.853
 7442POPC   GL232786  26.026  43.269   8.853
 7442POPC   C1A32787  26.017  43.122   8.553
 7442POPC   D2A32788  26.046  43.087   8.253
 7442POPC   C3A32789  26.078  43.127   7.953
 7442POPC   C4A32790  26.009  43.098   7.653
 7442POPC   C1B32791  25.938  43.332   8.553
 7442POPC   C2B32792  25.972  43.338   8.253
 7442POPC   C3B32793  25.918  43.358   7.953
 7442POPC   C4B32794  25.893  43.295   7.653
 7443POPC   NC332795  13.623  22.134   9.453
 7443POPC   PO432796  13.638  22.199   9.153
 7443POPC   GL132797  13.623  22.119   8.853
 7443POPC   GL232798  13.778  22.134   8.853
 7443POPC   C1A32799  13.632  22.156   8.553
 7443POPC   D2A32800  13.669  22.201   8.253
 7443POPC   C3A32801  13.611  22.141   7.953
 7443POPC   C4A32802  13.671  22.185   7.653
 7443POPC   C1B32803  13.842  22.125   8.553
 7443POPC   C2B32804  13.913  22.111   8.253
 7443POPC   C3B32805  13.877  22.144   7.953
 7443POPC   C4B32806  13.830  22.113   7.653
 7444POPC   NC332807   4.301   6.649   9.453
 7444POPC   PO432808   4.271   6.665   9.153
 7444POPC   GL132809   4.298   6.632   8.853
 7444POPC   GL232810   4.338   6.513   8.853
 7444POPC   C1A32811   4.296   6.682   8.553
 7444POPC   D2A32812   4.284   6.613   8.253
 7444POPC   C3A32813   4.360   6.681   7.953
 7444POPC   C4A32814   4.297   6.635   7.653
 7444POPC   C1B32815   4.382   6.360   8.553
 7444POPC   C2B32816   4.345   6.419   8.253
 7444POPC   C3B32817   4.341   6.359   7.953
 7444POPC   C4B32818   4.339   6.442   7.653
 7445POPC   NC332819   9.708  19.017   9.453
 7445POPC   PO432820   9.786  19.080   9.153
 7445POPC   GL132821   9.741  19.081   8.853
 7445POPC   GL232822   9.738  19.184   8.853
 7445POPC   C1A32823   9.789  19.064   8.553
 7445POPC   D2A32824   9.734  19.098   8.253
 7445POPC   C3A32825   9.702  19.047   7.953
 7445POPC   C4A32826   9.748  19.100   7.653
 7445POPC   C1B32827   9.834  19.329   8.553
 7445POPC   C2B32828   9.751  19.321   8.253
 7445POPC   C3B32829   9.782  19.327   7.953
 7445POPC   C4B32830   9.788  19.267   7.653
 7446POPC   NC332831  35.386   4.306   9.453
 7446POPC   PO432832  35.363   4.282   9.153
 7446POPC   GL132833  35.372   4.300   8.853
 7446POPC   GL232834  35.458   4.309   8.853
 7446POPC   C1A32835  35.393   4.295   8.553
 7446POPC   D2A32836  35.325   4.299   8.253
 7446POPC   C3A32837  35.370   4.358   7.953
 7446POPC   C4A32838  35.328   4.335   7.653
 7446POPC   C1B32839  35.547   4.249   8.553
 7446POPC   C2B32840  35.580   4.204   8.253
 7446POPC   C3B32841  35.554   4.216   7.953
 7446POPC   C4B32842  35.563   4.271   7.653
 7447POPC   NC332843  41.600  38.485   9.453
 7447POPC   PO432844  41.577  38.431   9.153
 7447POPC   GL132845  41.595  38.418   8.853
 7447POPC   GL232846  41.505  38.384   8.853
 7447POPC   C1A32847  41.592  38.502   8.553
 7447POPC   D2A32848  41.581  38.457   8.253
 7447POPC   C3A32849  41.573  38.447   7.953
 7447POPC   C4A32850  41.570  38.463   7.653
 7447POPC   C1B32851  41.413  38.253   8.553
 7447POPC   C2B32852  41.435  38.236   8.253
 7447POPC   C3B32853  41.473  38.223   7.953
 7447POPC   C4B32854  41.470  38.242   7.653
 7448POPC   NC332855  44.630   9.782   9.453
 7448POPC   PO432856  44.658   9.709   9.153
 7448POPC   GL132857  44.641   9.750   8.853
 7448POPC   GL232858  44.739   9.633   8.853
 7448POPC   C1A32859  44.642   9.711   8.553
 7448POPC   D2A32860  44.661   9.759   8.253
 7448POPC   C3A32861  44.646   9.738   7.953
 7448POPC   C4A32862  44.688   9.709   7.653
 7448POPC   C1B32863  44.835   9.607   8.553
 7448POPC   C2B32864  44.818   9.531   8.253
 7448POPC   C3B32865  44.843   9.563   7.953
 7448POPC   C4B32866  44.826   9.594   7.653
 7449POPC   NC332867   0.452   9.701   9.453
 7449POPC   PO432868   0.483   9.718   9.153
 7449POPC   GL132869   0.462   9.736   8.853
 7449POPC   GL232870   0.368   9.694   8.853
 7449POPC   C1A32871   0.422   9.701   8.553
 7449POPC   D2A32872   0.424   9.776   8.253
 7449POPC   C3A32873   0.422   9.725   7.953
 7449POPC   C4A32874   0.421   9.722   7.653
 7449POPC   C1B32875   0.242   9.606   8.553
 7449POPC   C2B32876   0.206   9.625   8.253
 7449POPC   C3B32877   0.277   9.575   7.953
 7449POPC   C4B32878   0.268   9.634   7.653
 7450POPC   NC332879  42.309  15.933   9.453
 7450POPC   PO432880  42.319  15.930   9.153
 7450POPC   GL132881  42.343  16.002   8.853
 7450POPC   GL232882  42.256  15.869   8.853
 7450POPC   C1A32883  42.322  15.947   8.553
 7450POPC   D2A32884  42.320  15.946   8.253
 7450POPC   C3A32885  42.317  15.920   7.953
 7450POPC   C4A32886  42.355  15.914   7.653
 7450POPC   C1B32887  42.106  15.885   8.553
 7450POPC   C2B32888  42.099  15.831   8.253
 7450POPC   C3B32889  42.087  15.852   7.953
 7450POPC   C4B32890  42.066  15.856   7.653
 7451POPC   NC332891  27.626   3.552   9.453
 7451POPC   PO432892  27.602   3.565   9.153
 7451POPC   GL132893  27.584   3.560   8.853
 7451POPC   GL232894  27.503   3.594   8.853
 7451POPC   C1A32895  27.600   3.574   8.553
 7451POPC   D2A32896  27.624   3.546   8.253
 7451POPC   C3A32897  27.577   3.567   7.953
 7451POPC   C4A32898  27.585   3.533   7.653
 7451POPC   C1B32899  27.424   3.695   8.553
 7451POPC   C2B32900  27.341   3.723   8.253
 7451POPC   C3B32901  27.405   3.677   7.953
 7451POPC   C4B32902  27.416   3.687   7.653
 7452POPC   NC332903  36.135   5.892   9.453
 7452POPC   PO432904  36.134   5.839   9.153
 7452POPC   GL132905  36.086   5.876   8.853
 7452POPC   GL232906  36.270   5.807   8.853
 7452POPC   C1A32907  36.120   5.881   8.553
 7452POPC   D2A32908  36.159   5.917   8.253
 7452POPC   C3A32909  36.099   5.887   7.953
 7452POPC   C4A32910  36.082   5.827   7.653
 7452POPC   C1B32911  36.320   5.817   8.553
 7452POPC   C2B32912  36.316   5.802   8.253
 7452POPC   C3B32913  36.343   5.807   7.953
 7452POPC   C4B32914  36.388   5.795   7.653
 7453POPC   NC332915  34.554  28.346   9.453
 7453POPC   PO432916  34.606  28.385   9.153
 7453POPC   GL132917  34.575  28.388   8.853
 7453POPC   GL232918  34.555  28.480   8.853
 7453POPC   C1A32919  34.529  28.411   8.553
 7453POPC   D2A32920  34.620  28.389   8.253
 7453POPC   C3A32921  34.558  28.366   7.953
 7453POPC   C4A32922  34.591  28.372   7.653
 7453POPC   C1B32923  34.461  28.652   8.553
 7453POPC   C2B32924  34.478  28.628   8.253
 7453POPC   C3B32925  34.540  28.607   7.953
 7453POPC   C4B32926  34.471  28.612   7.653
 7454POPC   NC332927   9.780  33.023   9.453
 7454POPC   PO432928   9.742  33.034   9.153
 7454POPC   GL132929   9.748  32.975   8.853
 7454POPC   GL232930   9.823  33.134   8.853
 7454POPC   C1A32931   9.699  33.004   8.553
 7454POPC   D2A32932   9.762  32.994   8.253
 7454POPC   C3A32933   9.745  32.993   7.953
 7454POPC   C4A32934   9.735  32.978   7.653
 7454POPC   C1B32935   9.901  33.180   8.553
 7454POPC   C2B32936   9.923  33.263   8.253
 7454POPC   C3B32937   9.868  33.192   7.953
 7454POPC   C4B32938   9.916  33.196   7.653
 7455POPC   NC332939  38.475  25.305   9.453
 7455POPC   PO432940  38.450  25.294   9.153
 7455POPC   GL132941  38.499  25.280   8.853
 7455POPC   GL232942  38.565  25.323   8.853
 7455POPC   C1A32943  38.488  25.300   8.553
 7455POPC   D2A32944  38.460  25.245   8.253
 7455POPC   C3A32945  38.429  25.276   7.953
 7455POPC   C4A32946  38.410  25.280   7.653
 7455POPC   C1B32947  38.552  25.490   8.553
 7455POPC   C2B32948  38.561  25.481   8.253
 7455POPC   C3B32949  38.538  25.457   7.953
 7455POPC   C4B32950  38.563  25.447   7.653
 7456POPC   NC332951  44.708  29.907   9.453
 7456POPC   PO432952  44.656  29.874   9.153
 7456POPC   GL132953  44.623  29.959   8.853
 7456POPC   GL232954  44.814  29.847   8.853
 7456POPC   C1A32955  44.708  29.898   8.553
 7456POPC   D2A32956  44.704  29.949   8.253
 7456POPC   C3A32957  44.627  29.958   7.953
 7456POPC   C4A32958  44.621  29.880   7.653
 7456POPC   C1B32959  44.888  29.783   8.553
 7456POPC   C2B32960  44.883  29.739   8.253
 7456POPC   C3B32961  44.878  29.799   7.953
 7456POPC   C4B32962  44.880  29.813   7.653
 7457POPC   NC332963  12.824   6.681   9.453
 7457POPC   PO432964  12.837   6.693   9.153
 7457POPC   GL132965  12.879   6.628   8.853
 7457POPC   GL232966  12.928   6.522   8.853
 7457POPC   C1A32967  12.882   6.657   8.553
 7457POPC   D2A32968  12.850   6.619   8.253
 7457POPC   C3A32969  12.816   6.614   7.953
 7457POPC   C4A32970  12.859   6.647   7.653
 7457POPC   C1B32971  13.007   6.485   8.553
 7457POPC   C2B32972  13.012   6.444   8.253
 7457POPC   C3B32973  13.039   6.486   7.953
 7457POPC   C4B32974  13.009   6.484   7.653
 7458POPC   NC332975  18.271   3.544   9.453
 7458POPC   PO432976  18.327   3.526   9.153
 7458POPC   GL132977  18.283   3.585   8.853
 7458POPC   GL232978  18.240   3.647   8.853
 7458POPC   C1A32979  18.271   3.540   8.553
 7458POPC   D2A32980  18.320   3.544   8.253
 7458POPC   C3A32981  18.285   3.516   7.953
 7458POPC   C4A32982  18.298   3.535   7.653
 7458POPC   C1B32983  18.124   3.665   8.553
 7458POPC   C2B32984  18.059   3.726   8.253
 7458POPC   C3B32985  18.120   3.683   7.953
 7458POPC   C4B32986  18.080   3.741   7.653
 7459POPC   NC332987  42.323  42.360   9.453
 7459POPC   PO432988  42.333  42.319   9.153
 7459POPC   GL132989  42.332  42.310   8.853
 7459POPC   GL232990  42.446  42.215   8.853
 7459POPC   C1A32991  42.357  42.346   8.553
 7459POPC   D2A32992  42.326  42.364   8.253
 7459POPC   C3A32993  42.370  42.333   7.953
 7459POPC   C4A32994  42.380  42.377   7.653
 7459POPC   C1B32995  42.516  42.141   8.553
 7459POPC   C2B32996  42.536  42.101   8.253
 7459POPC   C3B32997  42.449  42.109   7.953
 7459POPC   C4B32998  42.502  42.107   7.653
 7460POPC   NC332999  31.490  42.346   9.453
 7460POPC   PO433000  31.510  42.355   9.153
 7460POPC   GL133001  31.463  42.378   8.853
 7460POPC   GL233002  31.558  42.329   8.853
 7460POPC   C1A33003  31.513  42.320   8.553
 7460POPC   D2A33004  31.487  42.311   8.253
 7460POPC   C3A33005  31.429  42.337   7.953
 7460POPC   C4A33006  31.514  42.359   7.653
 7460POPC   C1B33007  31.697  42.407   8.553
 7460POPC   C2B33008  31.743  42.383   8.253
 7460POPC   C3B33009  31.674  42.398   7.953
 7460POPC   C4B33010  31.692  42.344   7.653
 7461POPC   NC333011  20.584   8.947   9.453
 7461POPC   PO433012  20.573   8.926   9.153
 7461POPC   GL133013  20.619   8.962   8.853
 7461POPC   GL233014  20.570   9.116   8.853
 7461POPC   C1A33015  20.571   8.951   8.553
 7461POPC   D2A33016  20.637   8.934   8.253
 7461POPC   C3A33017  20.623   8.977   7.953
 7461POPC   C4A33018  20.607   8.959   7.653
 7461POPC   C1B33019  20.471   9.167   8.553
 7461POPC   C2B33020  20.455   9.176   8.253
 7461POPC   C3B33021  20.491   9.184   7.953
 7461POPC   C4B33022  20.486   9.246   7.653
 7462POPC   NC333023  39.277  37.693   9.453
 7462POPC   PO433024  39.261  37.633   9.153
 7462POPC   GL133025  39.238  37.638   8.853
 7462POPC   GL233026  39.122  37.706   8.853
 7462POPC   C1A33027  39.215  37.704   8.553
 7462POPC   D2A33028  39.244  37.711   8.253
 7462POPC   C3A33029  39.246  37.678   7.953
 7462POPC   C4A33030  39.215  37.664   7.653
 7462POPC   C1B33031  38.998  37.645   8.553
 7462POPC   C2B33032  38.986  37.679   8.253
 7462POPC   C3B33033  39.015  37.675   7.953
 7462POPC   C4B33034  38.951  37.640   7.653
 7463POPC   NC333035  18.320   5.826   9.453
 7463POPC   PO433036  18.280   5.830   9.153
 7463POPC   GL133037  18.308   5.872   8.853
 7463POPC   GL233038  18.446   5.899   8.853
 7463POPC   C1A33039  18.252   5.884   8.553
 7463POPC   D2A33040  18.256   5.906   8.253
 7463POPC   C3A33041  18.270   5.871   7.953
 7463POPC   C4A33042  18.328   5.824   7.653
 7463POPC   C1B33043  18.578   5.931   8.553
 7463POPC   C2B33044  18.485   5.888   8.253
 7463POPC   C3B33045  18.579   5.881   7.953
 7463POPC   C4B33046  18.520   5.904   7.653
 7464POPC   NC333047  22.922  21.415   9.453
 7464POPC   PO433048  22.928  21.422   9.153
 7464POPC   GL133049  22.929  21.393   8.853
 7464POPC   GL233050  22.881  21.250   8.853
 7464POPC   C1A33051  22.900  21.354   8.553
 7464POPC   D2A33052  22.961  21.352   8.253
 7464POPC   C3A33053  22.987  21.421   7.953
 7464POPC   C4A33054  22.900  21.382   7.653
 7464POPC   C1B33055  22.853  21.124   8.553
 7464POPC   C2B33056  22.896  21.103   8.253
 7464POPC   C3B33057  22.902  21.195   7.953
 7464POPC   C4B33058  22.820  21.164   7.653
 7465POPC   NC333059   7.449  19.057   9.453
 7465POPC   PO433060   7.458  19.087   9.153
 7465POPC   GL133061   7.377  19.010   8.853
 7465POPC   GL233062   7.515  19.004   8.853
 7465POPC   C1A33063   7.377  19.088   8.553
 7465POPC   D2A33064   7.434  19.059   8.253
 7465POPC   C3A33065   7.407  19.108   7.953
 7465POPC   C4A33066   7.392  19.021   7.653
 7465POPC   C1B33067   7.647  18.903   8.553
 7465POPC   C2B33068   7.605  18.876   8.253
 7465POPC   C3B33069   7.584  18.914   7.953
 7465POPC   C4B33070   7.592  18.873   7.653
 7466POPC   NC333071  43.157  14.414   9.453
 7466POPC   PO433072  43.113  14.425   9.153
 7466POPC   GL133073  43.082  14.382   8.853
 7466POPC   GL233074  42.975  14.485   8.853
 7466POPC   C1A33075  43.158  14.439   8.553
 7466POPC   D2A33076  43.151  14.382   8.253
 7466POPC   C3A33077  43.131  14.405   7.953
 7466POPC   C4A33078  43.078  14.434   7.653
 7466POPC   C1B33079  42.923  14.503   8.553
 7466POPC   C2B33080  42.869  14.568   8.253
 7466POPC   C3B33081  42.926  14.587   7.953
 7466POPC   C4B33082  42.881  14.545   7.653
 7467POPC   NC333083  34.590  26.051   9.453
 7467POPC   PO433084  34.597  26.060   9.153
 7467POPC   GL133085  34.545  26.058   8.853
 7467POPC   GL233086  34.571  26.186   8.853
 7467POPC   C1A33087  34.589  26.073   8.553
 7467POPC   D2A33088  34.571  26.017   8.253
 7467POPC   C3A33089  34.581  26.013   7.953
 7467POPC   C4A33090  34.587  26.035   7.653
 7467POPC   C1B33091  34.477  26.252   8.553
 7467POPC   C2B33092  34.505  26.267   8.253
 7467POPC   C3B33093  34.517  26.248   7.953
 7467POPC   C4B33094  34.492  26.324   7.653
 7468POPC   NC333095  15.170  17.480   9.453
 7468POPC   PO433096  15.161  17.483   9.153
 7468POPC   GL133097  15.197  17.478   8.853
 7468POPC   GL233098  15.057  17.581   8.853
 7468POPC   C1A33099  15.222  17.459   8.553
 7468POPC   D2A33100  15.178  17.530   8.253
 7468POPC   C3A33101  15.218  17.461   7.953
 7468POPC   C4A33102  15.162  17.512   7.653
 7468POPC   C1B33103  14.955  17.680   8.553
 7468POPC   C2B33104  14.992  17.633   8.253
 7468POPC   C3B33105  14.992  17.622   7.953
 7468POPC   C4B33106  14.996  17.633   7.653
 7469POPC   NC333107  44.620   1.996   9.453
 7469POPC   PO433108  44.663   1.992   9.153
 7469POPC   GL133109  44.697   2.028   8.853
 7469POPC   GL233110  44.751   1.903   8.853
 7469POPC   C1A33111  44.678   1.988   8.553
 7469POPC   D2A33112  44.628   1.948   8.253
 7469POPC   C3A33113  44.658   1.995   7.953
 7469POPC   C4A33114  44.626   1.956   7.653
 7469POPC   C1B33115  44.823   1.823   8.553
 7469POPC   C2B33116  44.903   1.853   8.253
 7469POPC   C3B33117  44.889   1.800   7.953
 7469POPC   C4B33118  44.821   1.844   7.653
 7470POPC   NC333119  38.486  19.084   9.453
 7470POPC   PO433120  38.407  19.090   9.153
 7470POPC   GL133121  38.471  19.025   8.853
 7470POPC   GL233122  38.359  19.208   8.853
 7470POPC   C1A33123  38.505  19.041   8.553
 7470POPC   D2A33124  38.434  19.033   8.253
 7470POPC   C3A33125  38.477  19.065   7.953
 7470POPC   C4A33126  38.443  19.103   7.653
 7470POPC   C1B33127  38.354  19.263   8.553
 7470POPC   C2B33128  38.354  19.305   8.253
 7470POPC   C3B33129  38.304  19.255   7.953
 7470POPC   C4B33130  38.309  19.234   7.653
 7471POPC   NC333131  36.171  33.843   9.453
 7471POPC   PO433132  36.154  33.752   9.153
 7471POPC   GL133133  36.174  33.817   8.853
 7471POPC   GL233134  36.203  33.768   8.853
 7471POPC   C1A33135  36.097  33.824   8.553
 7471POPC   D2A33136  36.080  33.812   8.253
 7471POPC   C3A33137  36.174  33.768   7.953
 7471POPC   C4A33138  36.095  33.837   7.653
 7471POPC   C1B33139  36.344  33.739   8.553
 7471POPC   C2B33140  36.325  33.765   8.253
 7471POPC   C3B33141  36.355  33.682   7.953
 7471POPC   C4B33142  36.391  33.738   7.653
 7472POPC   NC333143  14.375  36.876   9.453
 7472POPC   PO433144  14.449  36.904   9.153
 7472POPC   GL133145  14.364  36.858   8.853
 7472POPC   GL233146  14.318  36.963   8.853
 7472POPC   C1A33147  14.388  36.912   8.553
 7472POPC   D2A33148  14.426  36.878   8.253
 7472POPC   C3A33149  14.420  36.855   7.953
 7472POPC   C4A33150  14.413  36.855   7.653
 7472POPC   C1B33151  14.161  36.976   8.553
 7472POPC   C2B33152  14.157  36.975   8.253
 7472POPC   C3B33153  14.162  36.947   7.953
 7472POPC   C4B33154  14.201  37.000   7.653
 7473POPC   NC333155  18.247  13.621   9.453
 7473POPC   PO433156  18.293  13.634   9.153
 7473POPC   GL133157  18.325  13.647   8.853
 7473POPC   GL233158  18.168  13.594   8.853
 7473POPC   C1A33159  18.241  13.660   8.553
 7473POPC   D2A33160  18.308  13.603   8.253
 7473POPC   C3A33161  18.322  13.673   7.953
 7473POPC   C4A33162  18.281  13.580   7.653
 7473POPC   C1B33163  18.062  13.553   8.553
 7473POPC   C2B33164  18.039  13.508   8.253
 7473POPC   C3B33165  18.052  13.559   7.953
 7473POPC   C4B33166  18.099  13.486   7.653
 7474POPC   NC333167   1.189   8.977   9.453
 7474POPC   PO433168   1.262   9.001   9.153
 7474POPC   GL133169   1.222   9.004   8.853
 7474POPC   GL233170   1.260   9.057   8.853
 7474POPC   C1A33171   1.214   8.988   8.553
 7474POPC   D2A33172   1.216   9.000   8.253
 7474POPC   C3A33173   1.172   8.975   7.953
 7474POPC   C4A33174   1.235   9.015   7.653
 7474POPC   C1B33175   1.269   9.180   8.553
 7474POPC   C2B33176   1.350   9.251   8.253
 7474POPC   C3B33177   1.274   9.194   7.953
 7474POPC   C4B33178   1.272   9.223   7.653
 7475POPC   NC333179  11.270   6.628   9.453
 7475POPC   PO433180  11.292   6.627   9.153
 7475POPC   GL133181  11.310   6.606   8.853
 7475POPC   GL233182  11.376   6.616   8.853
 7475POPC   C1A33183  11.315   6.667   8.553
 7475POPC   D2A33184  11.251   6.595   8.253
 7475POPC   C3A33185  11.340   6.608   7.953
 7475POPC   C4A33186  11.266   6.654   7.653
 7475POPC   C1B33187  11.596   6.606   8.553
 7475POPC   C2B33188  11.595   6.650   8.253
 7475POPC   C3B33189  11.507   6.626   7.953
 7475POPC   C4B33190  11.555   6.628   7.653
 7476POPC   NC333191  29.170  26.846   9.453
 7476POPC   PO433192  29.103  26.829   9.153
 7476POPC   GL133193  29.170  26.810   8.853
 7476POPC   GL233194  29.225  26.770   8.853
 7476POPC   C1A33195  29.160  26.793   8.553
 7476POPC   D2A33196  29.139  26.799   8.253
 7476POPC   C3A33197  29.109  26.782   7.953
 7476POPC   C4A33198  29.172  26.826   7.653
 7476POPC   C1B33199  29.391  26.641   8.553
 7476POPC   C2B33200  29.357  26.651   8.253
 7476POPC   C3B33201  29.389  26.680   7.953
 7476POPC   C4B33202  29.357  26.686   7.653
 7477POPC   NC333203  29.171  32.276   9.453
 7477POPC   PO433204  29.117  32.289   9.153
 7477POPC   GL133205  29.158  32.238   8.853
 7477POPC   GL233206  29.247  32.117   8.853
 7477POPC   C1A33207  29.150  32.209   8.553
 7477POPC   D2A33208  29.107  32.253   8.253
 7477POPC   C3A33209  29.112  32.210   7.953
 7477POPC   C4A33210  29.110  32.293   7.653
 7477POPC   C1B33211  29.297  32.073   8.553
 7477POPC   C2B33212  29.293  32.089   8.253
 7477POPC   C3B33213  29.322  32.093   7.953
 7477POPC   C4B33214  29.269  32.026   7.653
 7478POPC   NC333215   4.321   1.971   9.453
 7478POPC   PO433216   4.295   1.975   9.153
 7478POPC   GL133217   4.341   1.997   8.853
 7478POPC   GL233218   4.241   1.903   8.853
 7478POPC   C1A33219   4.321   1.968   8.553
 7478POPC   D2A33220   4.295   1.961   8.253
 7478POPC   C3A33221   4.352   1.996   7.953
 7478POPC   C4A33222   4.290   2.039   7.653
 7478POPC   C1B33223   4.087   1.926   8.553
 7478POPC   C2B33224   4.105   1.852   8.253
 7478POPC   C3B33225   4.100   1.871   7.953
 7478POPC   C4B33226   4.128   1.856   7.653
 7479POPC   NC333227  43.157   1.987   9.453
 7479POPC   PO433228  43.083   2.031   9.153
 7479POPC   GL133229  43.146   2.038   8.853
 7479POPC   GL233230  43.068   2.116   8.853
 7479POPC   C1A33231  43.158   2.002   8.553
 7479POPC   D2A33232  43.160   1.953   8.253
 7479POPC   C3A33233  43.070   1.980   7.953
 7479POPC   C4A33234  43.102   1.998   7.653
 7479POPC   C1B33235  43.051   2.262   8.553
 7479POPC   C2B33236  43.037   2.238   8.253
 7479POPC   C3B33237  43.091   2.233   7.953
 7479POPC   C4B33238  43.059   2.243   7.653
 7480POPC   NC333239  18.261  35.401   9.453
 7480POPC   PO433240  18.234  35.307   9.153
 7480POPC   GL133241  18.236  35.333   8.853
 7480POPC   GL233242  18.199  35.353   8.853
 7480POPC   C1A33243  18.265  35.376   8.553
 7480POPC   D2A33244  18.267  35.357   8.253
 7480POPC   C3A33245  18.234  35.361   7.953
 7480POPC   C4A33246  18.299  35.378   7.653
 7480POPC   C1B33247  18.081  35.242   8.553
 7480POPC   C2B33248  18.040  35.266   8.253
 7480POPC   C3B33249  18.043  35.246   7.953
 7480POPC   C4B33250  18.044  35.224   7.653
 7481POPC   NC333251  34.604  32.280   9.453
 7481POPC   PO433252  34.549  32.264   9.153
 7481POPC   GL133253  34.588  32.235   8.853
 7481POPC   GL233254  34.495  32.271   8.853
 7481POPC   C1A33255  34.565  32.267   8.553
 7481POPC   D2A33256  34.531  32.253   8.253
 7481POPC   C3A33257  34.564  32.291   7.953
 7481POPC   C4A33258  34.545  32.211   7.653
 7481POPC   C1B33259  34.297  32.342   8.553
 7481POPC   C2B33260  34.373  32.270   8.253
 7481POPC   C3B33261  34.286  32.338   7.953
 7481POPC   C4B33262  34.372  32.274   7.653
 7482POPC   NC333263  38.472   5.900   9.453
 7482POPC   PO433264  38.429   5.880   9.153
 7482POPC   GL133265  38.443   5.856   8.853
 7482POPC   GL233266  38.540   5.863   8.853
 7482POPC   C1A33267  38.479   5.916   8.553
 7482POPC   D2A33268  38.425   5.824   8.253
 7482POPC   C3A33269  38.449   5.916   7.953
 7482POPC   C4A33270  38.455   5.864   7.653
 7482POPC   C1B33271  38.708   5.815   8.553
 7482POPC   C2B33272  38.669   5.785   8.253
 7482POPC   C3B33273  38.665   5.815   7.953
 7482POPC   C4B33274  38.655   5.842   7.653
 7483POPC   NC333275  37.713   5.070   9.453
 7483POPC   PO433276  37.698   5.110   9.153
 7483POPC   GL133277  37.701   5.093   8.853
 7483POPC   GL233278  37.773   5.130   8.853
 7483POPC   C1A33279  37.647   5.123   8.553
 7483POPC   D2A33280  37.699   5.133   8.253
 7483POPC   C3A33281  37.689   5.133   7.953
 7483POPC   C4A33282  37.722   5.122   7.653
 7483POPC   C1B33283  37.918   5.146   8.553
 7483POPC   C2B33284  37.921   5.153   8.253
 7483POPC   C3B33285  37.957   5.219   7.953
 7483POPC   C4B33286  37.896   5.207   7.653
 7484POPC   NC333287  19.813  19.818   9.453
 7484POPC   PO433288  19.832  19.820   9.153
 7484POPC   GL133289  19.786  19.824   8.853
 7484POPC   GL233290  19.811  19.947   8.853
 7484POPC   C1A33291  19.792  19.870   8.553
 7484POPC   D2A33292  19.789  19.882   8.253
 7484POPC   C3A33293  19.842  19.809   7.953
 7484POPC   C4A33294  19.787  19.823   7.653
 7484POPC   C1B33295  19.728  20.038   8.553
 7484POPC   C2B33296  19.690  20.036   8.253
 7484POPC   C3B33297  19.721  20.093   7.953
 7484POPC   C4B33298  19.771  20.073   7.653
 7485POPC   NC333299  31.432  32.975   9.453
 7485POPC   PO433300  31.499  33.061   9.153
 7485POPC   GL133301  31.499  33.020   8.853
 7485POPC   GL233302  31.513  32.884   8.853
 7485POPC   C1A33303  31.516  33.058   8.553
 7485POPC   D2A33304  31.444  33.019   8.253
 7485POPC   C3A33305  31.442  32.985   7.953
 7485POPC   C4A33306  31.441  32.988   7.653
 7485POPC   C1B33307  31.541  32.769   8.553
 7485POPC   C2B33308  31.555  32.748   8.253
 7485POPC   C3B33309  31.539  32.733   7.953
 7485POPC   C4B33310  31.524  32.748   7.653
 7486POPC   NC333311  44.639  43.925   9.453
 7486POPC   PO433312  44.647  43.895   9.153
 7486POPC   GL133313  44.704  43.841   8.853
 7486POPC   GL233314  44.562  43.935   8.853
 7486POPC   C1A33315  44.628  43.890   8.553
 7486POPC   D2A33316  44.687  43.848   8.253
 7486POPC   C3A33317  44.699  43.890   7.953
 7486POPC   C4A33318  44.654  43.908   7.653
 7486POPC   C1B33319  44.481  44.007   8.553
 7486POPC   C2B33320  44.421  44.015   8.253
 7486POPC   C3B33321  44.467  44.022   7.953
 7486POPC   C4B33322  44.421  44.006   7.653
 7487POPC   NC333323  12.055  19.098   9.453
 7487POPC   PO433324  12.113  19.072   9.153
 7487POPC   GL133325  12.099  19.025   8.853
 7487POPC   GL233326  12.186  18.964   8.853
 7487POPC   C1A33327  12.043  19.036   8.553
 7487POPC   D2A33328  12.095  19.087   8.253
 7487POPC   C3A33329  12.051  19.026   7.953
 7487POPC   C4A33330  12.047  19.093   7.653
 7487POPC   C1B33331  12.230  18.882   8.553
 7487POPC   C2B33332  12.276  18.833   8.253
 7487POPC   C3B33333  12.288  18.915   7.953
 7487POPC   C4B33334  12.219  18.847   7.653
 7488POPC   NC333335  39.267   4.314   9.453
 7488POPC   PO433336  39.270   4.277   9.153
 7488POPC   GL133337  39.260   4.287   8.853
 7488POPC   GL233338  39.232   4.435   8.853
 7488POPC   C1A33339  39.239   4.364   8.553
 7488POPC   D2A33340  39.248   4.334   8.253
 7488POPC   C3A33341  39.280   4.290   7.953
 7488POPC   C4A33342  39.220   4.291   7.653
 7488POPC   C1B33343  39.211   4.519   8.553
 7488POPC   C2B33344  39.205   4.599   8.253
 7488POPC   C3B33345  39.188   4.515   7.953
 7488POPC   C4B33346  39.168   4.556   7.653
 7489POPC   NC333347  12.852  12.804   9.453
 7489POPC   PO433348  12.835  12.848   9.153
 7489POPC   GL133349  12.882  12.869   8.853
 7489POPC   GL233350  12.721  12.914   8.853
 7489POPC   C1A33351  12.878  12.866   8.553
 7489POPC   D2A33352  12.887  12.841   8.253
 7489POPC   C3A33353  12.848  12.868   7.953
 7489POPC   C4A33354  12.861  12.871   7.653
 7489POPC   C1B33355  12.650  12.908   8.553
 7489POPC   C2B33356  12.636  12.837   8.253
 7489POPC   C3B33357  12.635  12.929   7.953
 7489POPC   C4B33358  12.594  12.857   7.653
 7490POPC   NC333359  29.903  41.552   9.453
 7490POPC   PO433360  29.910  41.561   9.153
 7490POPC   GL133361  29.918  41.522   8.853
 7490POPC   GL233362  29.831  41.617   8.853
 7490POPC   C1A33363  29.945  41.559   8.553
 7490POPC   D2A33364  29.909  41.590   8.253
 7490POPC   C3A33365  29.872  41.564   7.953
 7490POPC   C4A33366  29.922  41.545   7.653
 7490POPC   C1B33367  29.787  41.740   8.553
 7490POPC   C2B33368  29.744  41.809   8.253
 7490POPC   C3B33369  29.831  41.767   7.953
 7490POPC   C4B33370  29.821  41.750   7.653
 7491POPC   NC333371  43.855  12.097   9.453
 7491POPC   PO433372  43.884  12.058   9.153
 7491POPC   GL133373  43.866  12.069   8.853
 7491POPC   GL233374  43.939  12.233   8.853
 7491POPC   C1A33375  43.929  12.054   8.553
 7491POPC   D2A33376  43.851  12.029   8.253
 7491POPC   C3A33377  43.877  12.087   7.953
 7491POPC   C4A33378  43.900  12.035   7.653
 7491POPC   C1B33379  43.985  12.255   8.553
 7491POPC   C2B33380  43.980  12.340   8.253
 7491POPC   C3B33381  44.026  12.284   7.953
 7491POPC   C4B33382  44.017  12.309   7.653
 7492POPC   NC333383  36.917  32.276   9.453
 7492POPC   PO433384  36.865  32.279   9.153
 7492POPC   GL133385  36.924  32.238   8.853
 7492POPC   GL233386  36.883  32.149   8.853
 7492POPC   C1A33387  36.888  32.231   8.553
 7492POPC   D2A33388  36.944  32.229   8.253
 7492POPC   C3A33389  36.889  32.242   7.953
 7492POPC   C4A33390  36.887  32.236   7.653
 7492POPC   C1B33391  36.862  31.999   8.553
 7492POPC   C2B33392  36.878  32.044   8.253
 7492POPC   C3B33393  36.874  31.959   7.953
 7492POPC   C4B33394  36.915  31.968   7.653
 7493POPC   NC333395  26.815  42.299   9.453
 7493POPC   PO433396  26.860  42.311   9.153
 7493POPC   GL133397  26.825  42.329   8.853
 7493POPC   GL233398  26.939  42.211   8.853
 7493POPC   C1A33399  26.776  42.293   8.553
 7493POPC   D2A33400  26.850  42.310   8.253
 7493POPC   C3A33401  26.866  42.356   7.953
 7493POPC   C4A33402  26.860  42.295   7.653
 7493POPC   C1B33403  27.028  42.214   8.553
 7493POPC   C2B33404  26.979  42.181   8.253
 7493POPC   C3B33405  27.042  42.141   7.953
 7493POPC   C4B33406  27.045  42.222   7.653
 7494POPC   NC333407  24.488   8.232   9.453
 7494POPC   PO433408  24.483   8.208   9.153
 7494POPC   GL133409  24.490   8.229   8.853
 7494POPC   GL233410  24.585   8.239   8.853
 7494POPC   C1A33411  24.472   8.232   8.553
 7494POPC   D2A33412  24.489   8.210   8.253
 7494POPC   C3A33413  24.507   8.238   7.953
 7494POPC   C4A33414  24.527   8.242   7.653
 7494POPC   C1B33415  24.737   8.350   8.553
 7494POPC   C2B33416  24.662   8.385   8.253
 7494POPC   C3B33417  24.643   8.348   7.953
 7494POPC   C4B33418  24.641   8.337   7.653
 7495POPC   NC333419  38.413  17.547   9.453
 7495POPC   PO433420  38.456  17.508   9.153
 7495POPC   GL133421  38.474  17.557   8.853
 7495POPC   GL233422  38.359  17.581   8.853
 7495POPC   C1A33423  38.464  17.493   8.553
 7495POPC   D2A33424  38.463  17.471   8.253
 7495POPC   C3A33425  38.463  17.505   7.953
 7495POPC   C4A33426  38.489  17.481   7.653
 7495POPC   C1B33427  38.274  17.643   8.553
 7495POPC   C2B33428  38.236  17.589   8.253
 7495POPC   C3B33429  38.195  17.583   7.953
 7495POPC   C4B33430  38.221  17.640   7.653
 7496POPC   NC333431  44.640  24.483   9.453
 7496POPC   PO433432  44.649  24.485   9.153
 7496POPC   GL133433  44.645  24.481   8.853
 7496POPC   GL233434  44.694  24.604   8.853
 7496POPC   C1A33435  44.635  24.472   8.553
 7496POPC   D2A33436  44.622  24.474   8.253
 7496POPC   C3A33437  44.655  24.512   7.953
 7496POPC   C4A33438  44.687  24.482   7.653
 7496POPC   C1B33439  44.782  24.666   8.553
 7496POPC   C2B33440  44.801  24.694   8.253
 7496POPC   C3B33441  44.754  24.693   7.953
 7496POPC   C4B33442  44.802  24.698   7.653
 7497POPC   NC333443  17.545  40.054   9.453
 7497POPC   PO433444  17.532  39.991   9.153
 7497POPC   GL133445  17.527  39.966   8.853
 7497POPC   GL233446  17.574  40.099   8.853
 7497POPC   C1A33447  17.469  39.988   8.553
 7497POPC   D2A33448  17.476  40.033   8.253
 7497POPC   C3A33449  17.516  39.980   7.953
 7497POPC   C4A33450  17.474  39.970   7.653
 7497POPC   C1B33451  17.601  40.283   8.553
 7497POPC   C2B33452  17.539  40.277   8.253
 7497POPC   C3B33453  17.559  40.256   7.953
 7497POPC   C4B33454  17.556  40.220   7.653
 7498POPC   NC333455  26.851   5.834   9.453
 7498POPC   PO433456  26.812   5.899   9.153
 7498POPC   GL133457  26.863   5.869   8.853
 7498POPC   GL233458  26.871   5.970   8.853
 7498POPC   C1A33459  26.803   5.918   8.553
 7498POPC   D2A33460  26.826   5.834   8.253
 7498POPC   C3A33461  26.856   5.868   7.953
 7498POPC   C4A33462  26.856   5.915   7.653
 7498POPC   C1B33463  26.918   6.075   8.553
 7498POPC   C2B33464  26.972   6.108   8.253
 7498POPC   C3B33465  26.885   6.097   7.953
 7498POPC   C4B33466  26.972   6.055   7.653
 7499POPC   NC333467   8.984  31.467   9.453
 7499POPC   PO433468   8.977  31.456   9.153
 7499POPC   GL133469   8.929  31.486   8.853
 7499POPC   GL233470   8.858  31.351   8.853
 7499POPC   C1A33471   8.995  31.437   8.553
 7499POPC   D2A33472   8.998  31.437   8.253
 7499POPC   C3A33473   8.933  31.455   7.953
 7499POPC   C4A33474   9.018  31.474   7.653
 7499POPC   C1B33475   8.787  31.312   8.553
 7499POPC   C2B33476   8.807  31.238   8.253
 7499POPC   C3B33477   8.817  31.258   7.953
 7499POPC   C4B33478   8.793  31.256   7.653
 7500POPC   NC333479   3.577   0.480   9.453
 7500POPC   PO433480   3.510   0.470   9.153
 7500POPC   GL133481   3.591   0.449   8.853
 7500POPC   GL233482   3.599   0.269   8.853
 7500POPC   C1A33483   3.501   0.436   8.553
 7500POPC   D2A33484   3.541   0.397   8.253
 7500POPC   C3A33485   3.497   0.426   7.953
 7500POPC   C4A33486   3.576   0.478   7.653
 7500POPC   C1B33487   3.583   0.147   8.553
 7500POPC   C2B33488   3.532   0.208   8.253
 7500POPC   C3B33489   3.577   0.159   7.953
 7500POPC   C4B33490   3.597   0.174   7.653
 7501POPC   NC333491   2.002  31.475   9.453
 7501POPC   PO433492   1.955  31.494   9.153
 7501POPC   GL133493   2.038  31.440   8.853
 7501POPC   GL233494   1.956  31.588   8.853
 7501POPC   C1A33495   2.004  31.462   8.553
 7501POPC   D2A33496   1.986  31.445   8.253
 7501POPC   C3A33497   1.970  31.452   7.953
 7501POPC   C4A33498   1.988  31.433   7.653
 7501POPC   C1B33499   1.994  31.705   8.553
 7501POPC   C2B33500   2.052  31.676   8.253
 7501POPC   C3B33501   1.964  31.738   7.953
 7501POPC   C4B33502   1.980  31.745   7.653
 7502POPC   NC333503  13.602  35.327   9.453
 7502POPC   PO433504  13.632  35.378   9.153
 7502POPC   GL133505  13.663  35.360   8.853
 7502POPC   GL233506  13.793  35.398   8.853
 7502POPC   C1A33507  13.654  35.340   8.553
 7502POPC   D2A33508  13.676  35.315   8.253
 7502POPC   C3A33509  13.666  35.350   7.953
 7502POPC   C4A33510  13.672  35.373   7.653
 7502POPC   C1B33511  13.871  35.430   8.553
 7502POPC   C2B33512  13.894  35.437   8.253
 7502POPC   C3B33513  13.891  35.361   7.953
 7502POPC   C4B33514  13.839  35.376   7.653
 7503POPC   NC333515  15.952  41.590   9.453
 7503POPC   PO433516  15.923  41.550   9.153
 7503POPC   GL133517  16.003  41.608   8.853
 7503POPC   GL233518  16.059  41.615   8.853
 7503POPC   C1A33519  15.932  41.516   8.553
 7503POPC   D2A33520  15.923  41.553   8.253
 7503POPC   C3A33521  15.955  41.543   7.953
 7503POPC   C4A33522  15.927  41.592   7.653
 7503POPC   C1B33523  16.248  41.621   8.553
 7503POPC   C2B33524  16.161  41.633   8.253
 7503POPC   C3B33525  16.228  41.578   7.953
 7503POPC   C4B33526  16.241  41.593   7.653
 7504POPC   NC333527  37.700  16.761   9.453
 7504POPC   PO433528  37.726  16.759   9.153
 7504POPC   GL133529  37.645  16.778   8.853
 7504POPC   GL233530  37.569  16.664   8.853
 7504POPC   C1A33531  37.718  16.763   8.553
 7504POPC   D2A33532  37.630  16.716   8.253
 7504POPC   C3A33533  37.658  16.716   7.953
 7504POPC   C4A33534  37.660  16.761   7.653
 7504POPC   C1B33535  37.447  16.575   8.553
 7504POPC   C2B33536  37.494  16.557   8.253
 7504POPC   C3B33537  37.450  16.519   7.953
 7504POPC   C4B33538  37.518  16.613   7.653
 7505POPC   NC333539  12.104  35.326   9.453
 7505POPC   PO433540  12.050  35.394   9.153
 7505POPC   GL133541  12.054  35.314   8.853
 7505POPC   GL233542  12.168  35.474   8.853
 7505POPC   C1A33543  12.084  35.339   8.553
 7505POPC   D2A33544  12.054  35.329   8.253
 7505POPC   C3A33545  12.105  35.316   7.953
 7505POPC   C4A33546  12.070  35.317   7.653
 7505POPC   C1B33547  12.302  35.493   8.553
 7505POPC   C2B33548  12.272  35.478   8.253
 7505POPC   C3B33549  12.245  35.463   7.953
 7505POPC   C4B33550  12.279  35.490   7.653
 7506POPC   NC333551  32.984  30.710   9.453
 7506POPC   PO433552  33.044  30.719   9.153
 7506POPC   GL133553  33.040  30.739   8.853
 7506POPC   GL233554  33.108  30.803   8.853
 7506POPC   C1A33555  33.020  30.715   8.553
 7506POPC   D2A33556  33.030  30.717   8.253
 7506POPC   C3A33557  33.006  30.706   7.953
 7506POPC   C4A33558  33.065  30.656   7.653
 7506POPC   C1B33559  33.253  30.819   8.553
 7506POPC   C2B33560  33.209  30.817   8.253
 7506POPC   C3B33561  33.195  30.887   7.953
 7506POPC   C4B33562  33.264  30.862   7.653
 7507POPC   NC333563  36.942  13.635   9.453
 7507POPC   PO433564  36.938  13.663   9.153
 7507POPC   GL133565  36.940  13.676   8.853
 7507POPC   GL233566  36.843  13.586   8.853
 7507POPC   C1A33567  36.887  13.632   8.553
 7507POPC   D2A33568  36.943  13.592   8.253
 7507POPC   C3A33569  36.916  13.631   7.953
 7507POPC   C4A33570  36.913  13.598   7.653
 7507POPC   C1B33571  36.693  13.442   8.553
 7507POPC   C2B33572  36.726  13.458   8.253
 7507POPC   C3B33573  36.706  13.430   7.953
 7507POPC   C4B33574  36.758  13.455   7.653
 7508POPC   NC333575  33.785  40.823   9.453
 7508POPC   PO433576  33.828  40.797   9.153
 7508POPC   GL133577  33.836  40.772   8.853
 7508POPC   GL233578  33.705  40.804   8.853
 7508POPC   C1A33579  33.771  40.757   8.553
 7508POPC   D2A33580  33.849  40.805   8.253
 7508POPC   C3A33581  33.806  40.777   7.953
 7508POPC   C4A33582  33.811  40.783   7.653
 7508POPC   C1B33583  33.535  40.851   8.553
 7508POPC   C2B33584  33.548  40.839   8.253
 7508POPC   C3B33585  33.521  40.901   7.953
 7508POPC   C4B33586  33.577  40.847   7.653
 7509POPC   NC333587   8.928  24.500   9.453
 7509POPC   PO433588   8.936  24.450   9.153
 7509POPC   GL133589   8.978  24.498   8.853
 7509POPC   GL233590   8.882  24.499   8.853
 7509POPC   C1A33591   8.981  24.457   8.553
 7509POPC   D2A33592   9.010  24.482   8.253
 7509POPC   C3A33593   8.984  24.483   7.953
 7509POPC   C4A33594   8.926  24.456   7.653
 7509POPC   C1B33595   8.754  24.626   8.553
 7509POPC   C2B33596   8.719  24.554   8.253
 7509POPC   C3B33597   8.792  24.637   7.953
 7509POPC   C4B33598   8.791  24.601   7.653
 7510POPC   NC333599  20.597  13.580   9.453
 7510POPC   PO433600  20.619  13.669   9.153
 7510POPC   GL133601  20.628  13.624   8.853
 7510POPC   GL233602  20.636  13.555   8.853
 7510POPC   C1A33603  20.586  13.594   8.553
 7510POPC   D2A33604  20.625  13.660   8.253
 7510POPC   C3A33605  20.583  13.602   7.953
 7510POPC   C4A33606  20.595  13.599   7.653
 7510POPC   C1B33607  20.727  13.412   8.553
 7510POPC   C2B33608  20.718  13.354   8.253
 7510POPC   C3B33609  20.688  13.381   7.953
 7510POPC   C4B33610  20.719  13.444   7.653
 7511POPC   NC333611  25.305  36.116   9.453
 7511POPC   PO433612  25.287  36.137   9.153
 7511POPC   GL133613  25.300  36.167   8.853
 7511POPC   GL233614  25.423  36.118   8.853
 7511POPC   C1A33615  25.278  36.091   8.553
 7511POPC   D2A33616  25.288  36.125   8.253
 7511POPC   C3A33617  25.246  36.171   7.953
 7511POPC   C4A33618  25.312  36.086   7.653
 7511POPC   C1B33619  25.508  36.240   8.553
 7511POPC   C2B33620  25.475  36.230   8.253
 7511POPC   C3B33621  25.491  36.235   7.953
 7511POPC   C4B33622  25.542  36.149   7.653
 7512POPC   NC333623  11.327  15.212   9.453
 7512POPC   PO433624  11.330  15.134   9.153
 7512POPC   GL133625  11.302  15.225   8.853
 7512POPC   GL233626  11.186  15.277   8.853
 7512POPC   C1A33627  11.326  15.194   8.553
 7512POPC   D2A33628  11.343  15.228   8.253
 7512POPC   C3A33629  11.345  15.143   7.953
 7512POPC   C4A33630  11.328  15.199   7.653
 7512POPC   C1B33631  11.119  15.341   8.553
 7512POPC   C2B33632  11.047  15.271   8.253
 7512POPC   C3B33633  11.104  15.299   7.953
 7512POPC   C4B33634  11.060  15.334   7.653
 7513POPC   NC333635  40.745  31.461   9.453
 7513POPC   PO433636  40.832  31.434   9.153
 7513POPC   GL133637  40.799  31.433   8.853
 7513POPC   GL233638  40.730  31.385   8.853
 7513POPC   C1A33639  40.753  31.447   8.553
 7513POPC   D2A33640  40.829  31.461   8.253
 7513POPC   C3A33641  40.781  31.496   7.953
 7513POPC   C4A33642  40.774  31.434   7.653
 7513POPC   C1B33643  40.644  31.195   8.553
 7513POPC   C2B33644  40.718  31.225   8.253
 7513POPC   C3B33645  40.639  31.245   7.953
 7513POPC   C4B33646  40.671  31.251   7.653
 7514POPC   NC333647  34.596  27.590   9.453
 7514POPC   PO433648  34.600  27.569   9.153
 7514POPC   GL133649  34.559  27.617   8.853
 7514POPC   GL233650  34.635  27.627   8.853
 7514POPC   C1A33651  34.616  27.607   8.553
 7514POPC   D2A33652  34.602  27.552   8.253
 7514POPC   C3A33653  34.537  27.617   7.953
 7514POPC   C4A33654  34.624  27.639   7.653
 7514POPC   C1B33655  34.810  27.763   8.553
 7514POPC   C2B33656  34.750  27.748   8.253
 7514POPC   C3B33657  34.758  27.751   7.953
 7514POPC   C4B33658  34.734  27.714   7.653
 7515POPC   NC333659  43.895  37.669   9.453
 7515POPC   PO433660  43.901  37.673   9.153
 7515POPC   GL133661  43.873  37.698   8.853
 7515POPC   GL233662  43.784  37.738   8.853
 7515POPC   C1A33663  43.869  37.688   8.553
 7515POPC   D2A33664  43.839  37.688   8.253
 7515POPC   C3A33665  43.855  37.690   7.953
 7515POPC   C4A33666  43.926  37.723   7.653
 7515POPC   C1B33667  43.755  37.852   8.553
 7515POPC   C2B33668  43.701  37.912   8.253
 7515POPC   C3B33669  43.724  37.867   7.953
 7515POPC   C4B33670  43.712  37.847   7.653
 7516POPC   NC333671  43.074  13.664   9.453
 7516POPC   PO433672  43.127  13.651   9.153
 7516POPC   GL133673  43.093  13.641   8.853
 7516POPC   GL233674  43.270  13.669   8.853
 7516POPC   C1A33675  43.150  13.614   8.553
 7516POPC   D2A33676  43.122  13.649   8.253
 7516POPC   C3A33677  43.105  13.608   7.953
 7516POPC   C4A33678  43.149  13.586   7.653
 7516POPC   C1B33679  43.319  13.706   8.553
 7516POPC   C2B33680  43.362  13.717   8.253
 7516POPC   C3B33681  43.393  13.646   7.953
 7516POPC   C4B33682  43.320  13.711   7.653
 7517POPC   NC333683  36.083  44.665   9.453
 7517POPC   PO433684  36.106  44.643   9.153
 7517POPC   GL133685  36.139  44.650   8.853
 7517POPC   GL233686  36.053  44.637   8.853
 7517POPC   C1A33687  36.143  44.691   8.553
 7517POPC   D2A33688  36.160  44.679   8.253
 7517POPC   C3A33689  36.081  44.631   7.953
 7517POPC   C4A33690  36.137  44.705   7.653
 7517POPC   C1B33691  35.925  44.515   8.553
 7517POPC   C2B33692  35.920  44.511   8.253
 7517POPC   C3B33693  35.875  44.518   7.953
 7517POPC   C4B33694  35.941  44.531   7.653
 7518POPC   NC333695   3.568   9.743   9.453
 7518POPC   PO433696   3.559   9.760   9.153
 7518POPC   GL133697   3.492   9.753   8.853
 7518POPC   GL233698   3.435   9.819   8.853
 7518POPC   C1A33699   3.554   9.714   8.553
 7518POPC   D2A33700   3.560   9.715   8.253
 7518POPC   C3A33701   3.529   9.715   7.953
 7518POPC   C4A33702   3.520   9.751   7.653
 7518POPC   C1B33703   3.434   9.929   8.553
 7518POPC   C2B33704   3.425   9.986   8.253
 7518POPC   C3B33705   3.378   9.924   7.953
 7518POPC   C4B33706   3.463   9.937   7.653
 7519POPC   NC333707  16.749  19.044   9.453
 7519POPC   PO433708  16.763  19.041   9.153
 7519POPC   GL133709  16.688  19.103   8.853
 7519POPC   GL233710  16.873  19.132   8.853
 7519POPC   C1A33711  16.748  19.013   8.553
 7519POPC   D2A33712  16.774  19.030   8.253
 7519POPC   C3A33713  16.697  19.054   7.953
 7519POPC   C4A33714  16.718  19.076   7.653
 7519POPC   C1B33715  16.908  19.213   8.553
 7519POPC   C2B33716  16.917  19.201   8.253
 7519POPC   C3B33717  16.964  19.250   7.953
 7519POPC   C4B33718  16.937  19.205   7.653
 7520POPC   NC333719  15.945  15.148   9.453
 7520POPC   PO433720  15.993  15.150   9.153
 7520POPC   GL133721  15.933  15.137   8.853
 7520POPC   GL233722  15.999  15.103   8.853
 7520POPC   C1A33723  15.978  15.181   8.553
 7520POPC   D2A33724  15.933  15.203   8.253
 7520POPC   C3A33725  16.000  15.204   7.953
 7520POPC   C4A33726  15.973  15.140   7.653
 7520POPC   C1B33727  16.059  14.987   8.553
 7520POPC   C2B33728  16.151  15.030   8.253
 7520POPC   C3B33729  16.149  14.937   7.953
 7520POPC   C4B33730  16.095  14.973   7.653
 7521POPC   NC333731  16.759  37.699   9.453
 7521POPC   PO433732  16.702  37.683   9.153
 7521POPC   GL133733  16.693  37.695   8.853
 7521POPC   GL233734  16.664  37.559   8.853
 7521POPC   C1A33735  16.738  37.708   8.553
 7521POPC   D2A33736  16.772  37.679   8.253
 7521POPC   C3A33737  16.695  37.721   7.953
 7521POPC   C4A33738  16.685  37.709   7.653
 7521POPC   C1B33739  16.603  37.452   8.553
 7521POPC   C2B33740  16.589  37.495   8.253
 7521POPC   C3B33741  16.625  37.442   7.953
 7521POPC   C4B33742  16.666  37.505   7.653
 7522POPC   NC333743   9.020  10.483   9.453
 7522POPC   PO433744   9.015  10.479   9.153
 7522POPC   GL133745   8.930  10.536   8.853
 7522POPC   GL233746   8.919  10.400   8.853
 7522POPC   C1A33747   8.950  10.530   8.553
 7522POPC   D2A33748   8.946  10.571   8.253
 7522POPC   C3A33749   9.003  10.543   7.953
 7522POPC   C4A33750   8.951  10.541   7.653
 7522POPC   C1B33751   8.763  10.330   8.553
 7522POPC   C2B33752   8.813  10.380   8.253
 7522POPC   C3B33753   8.747  10.368   7.953
 7522POPC   C4B33754   8.771  10.370   7.653
 7523POPC   NC333755   1.213   3.588   9.453
 7523POPC   PO433756   1.240   3.578   9.153
 7523POPC   GL133757   1.232   3.546   8.853
 7523POPC   GL233758   1.339   3.657   8.853
 7523POPC   C1A33759   1.212   3.576   8.553
 7523POPC   D2A33760   1.172   3.556   8.253
 7523POPC   C3A33761   1.184   3.519   7.953
 7523POPC   C4A33762   1.263   3.570   7.653
 7523POPC   C1B33763   1.471   3.716   8.553
 7523POPC   C2B33764   1.431   3.705   8.253
 7523POPC   C3B33765   1.378   3.670   7.953
 7523POPC   C4B33766   1.451   3.669   7.653
 7524POPC   NC333767  31.427  22.199   9.453
 7524POPC   PO433768  31.521  22.131   9.153
 7524POPC   GL133769  31.464  22.176   8.853
 7524POPC   GL233770  31.596  22.195   8.853
 7524POPC   C1A33771  31.466  22.173   8.553
 7524POPC   D2A33772  31.491  22.131   8.253
 7524POPC   C3A33773  31.439  22.190   7.953
 7524POPC   C4A33774  31.476  22.203   7.653
 7524POPC   C1B33775  31.673  22.164   8.553
 7524POPC   C2B33776  31.714  22.242   8.253
 7524POPC   C3B33777  31.730  22.235   7.953
 7524POPC   C4B33778  31.722  22.176   7.653
 7525POPC   NC333779  33.001  19.809   9.453
 7525POPC   PO433780  33.006  19.881   9.153
 7525POPC   GL133781  32.974  19.846   8.853
 7525POPC   GL233782  32.934  19.732   8.853
 7525POPC   C1A33783  33.050  19.838   8.553
 7525POPC   D2A33784  33.063  19.871   8.253
 7525POPC   C3A33785  33.015  19.859   7.953
 7525POPC   C4A33786  32.996  19.785   7.653
 7525POPC   C1B33787  32.925  19.627   8.553
 7525POPC   C2B33788  32.884  19.566   8.253
 7525POPC   C3B33789  32.939  19.624   7.953
 7525POPC   C4B33790  32.891  19.640   7.653
 7526POPC   NC333791  39.190  32.996   9.453
 7526POPC   PO433792  39.200  33.058   9.153
 7526POPC   GL133793  39.249  33.057   8.853
 7526POPC   GL233794  39.123  33.109   8.853
 7526POPC   C1A33795  39.229  33.061   8.553
 7526POPC   D2A33796  39.218  33.036   8.253
 7526POPC   C3A33797  39.276  32.983   7.953
 7526POPC   C4A33798  39.181  33.059   7.653
 7526POPC   C1B33799  39.052  33.162   8.553
 7526POPC   C2B33800  39.049  33.190   8.253
 7526POPC   C3B33801  38.981  33.104   7.953
 7526POPC   C4B33802  38.963  33.156   7.653
 7527POPC   NC333803  19.807   5.868   9.453
 7527POPC   PO433804  19.863   5.864   9.153
 7527POPC   GL133805  19.859   5.913   8.853
 7527POPC   GL233806  19.905   5.847   8.853
 7527POPC   C1A33807  19.808   5.918   8.553
 7527POPC   D2A33808  19.805   5.915   8.253
 7527POPC   C3A33809  19.847   5.912   7.953
 7527POPC   C4A33810  19.826   5.835   7.653
 7527POPC   C1B33811  20.107   5.756   8.553
 7527POPC   C2B33812  20.034   5.777   8.253
 7527POPC   C3B33813  20.053   5.817   7.953
 7527POPC   C4B33814  20.048   5.778   7.653
 7528POPC   NC333815  36.865  31.473   9.453
 7528POPC   PO433816  36.924  31.475   9.153
 7528POPC   GL133817  36.898  31.445   8.853
 7528POPC   GL233818  36.827  31.327   8.853
 7528POPC   C1A33819  36.911  31.469   8.553
 7528POPC   D2A33820  36.952  31.509   8.253
 7528POPC   C3A33821  36.866  31.496   7.953
 7528POPC   C4A33822  36.897  31.461   7.653
 7528POPC   C1B33823  36.826  31.279   8.553
 7528POPC   C2B33824  36.783  31.288   8.253
 7528POPC   C3B33825  36.852  31.269   7.953
 7528POPC   C4B33826  36.798  31.241   7.653
 7529POPC   NC333827  39.962   2.741   9.453
 7529POPC   PO433828  40.011   2.759   9.153
 7529POPC   GL133829  40.056   2.743   8.853
 7529POPC   GL233830  40.043   2.653   8.853
 7529POPC   C1A33831  40.056   2.740   8.553
 7529POPC   D2A33832  39.962   2.747   8.253
 7529POPC   C3A33833  39.991   2.807   7.953
 7529POPC   C4A33834  39.989   2.762   7.653
 7529POPC   C1B33835  40.103   2.489   8.553
 7529POPC   C2B33836  40.153   2.563   8.253
 7529POPC   C3B33837  40.133   2.570   7.953
 7529POPC   C4B33838  40.112   2.570   7.653
 7530POPC   NC333839   1.255  36.865   9.453
 7530POPC   PO433840   1.175  36.945   9.153
 7530POPC   GL133841   1.224  36.891   8.853
 7530POPC   GL233842   1.232  36.762   8.853
 7530POPC   C1A33843   1.171  36.888   8.553
 7530POPC   D2A33844   1.178  36.879   8.253
 7530POPC   C3A33845   1.209  36.923   7.953
 7530POPC   C4A33846   1.164  36.912   7.653
 7530POPC   C1B33847   1.276  36.683   8.553
 7530POPC   C2B33848   1.255  36.650   8.253
 7530POPC   C3B33849   1.305  36.679   7.953
 7530POPC   C4B33850   1.219  36.659   7.653
 7531POPC   NC333851  14.365  10.517   9.453
 7531POPC   PO433852  14.432  10.533   9.153
 7531POPC   GL133853  14.426  10.565   8.853
 7531POPC   GL233854  14.421  10.436   8.853
 7531POPC   C1A33855  14.417  10.481   8.553
 7531POPC   D2A33856  14.399  10.565   8.253
 7531POPC   C3A33857  14.378  10.506   7.953
 7531POPC   C4A33858  14.430  10.522   7.653
 7531POPC   C1B33859  14.458  10.256   8.553
 7531POPC   C2B33860  14.471  10.306   8.253
 7531POPC   C3B33861  14.509  10.309   7.953
 7531POPC   C4B33862  14.480  10.275   7.653
 7532POPC   NC333863  28.385   5.068   9.453
 7532POPC   PO433864  28.403   5.129   9.153
 7532POPC   GL133865  28.411   5.086   8.853
 7532POPC   GL233866  28.303   4.992   8.853
 7532POPC   C1A33867  28.406   5.047   8.553
 7532POPC   D2A33868  28.322   5.061   8.253
 7532POPC   C3A33869  28.400   5.075   7.953
 7532POPC   C4A33870  28.383   5.091   7.653
 7532POPC   C1B33871  28.236   4.890   8.553
 7532POPC   C2B33872  28.175   4.953   8.253
 7532POPC   C3B33873  28.205   4.893   7.953
 7532POPC   C4B33874  28.208   4.940   7.653
 7533POPC   NC333875   2.720  10.562   9.453
 7533POPC   PO433876   2.718  10.569   9.153
 7533POPC   GL133877   2.730  10.523   8.853
 7533POPC   GL233878   2.694  10.459   8.853
 7533POPC   C1A33879   2.730  10.518   8.553
 7533POPC   D2A33880   2.803  10.504   8.253
 7533POPC   C3A33881   2.806  10.553   7.953
 7533POPC   C4A33882   2.748  10.503   7.653
 7533POPC   C1B33883   2.585  10.411   8.553
 7533POPC   C2B33884   2.545  10.399   8.253
 7533POPC   C3B33885   2.580  10.448   7.953
 7533POPC   C4B33886   2.526  10.389   7.653
 7534POPC   NC333887  31.496  19.809   9.453
 7534POPC   PO433888  31.452  19.785   9.153
 7534POPC   GL133889  31.489  19.854   8.853
 7534POPC   GL233890  31.316  19.915   8.853
 7534POPC   C1A33891  31.479  19.842   8.553
 7534POPC   D2A33892  31.471  19.884   8.253
 7534POPC   C3A33893  31.451  19.872   7.953
 7534POPC   C4A33894  31.426  19.785   7.653
 7534POPC   C1B33895  31.185  19.878   8.553
 7534POPC   C2B33896  31.264  19.929   8.253
 7534POPC   C3B33897  31.267  19.926   7.953
 7534POPC   C4B33898  31.270  19.884   7.653
 7535POPC   NC333899  22.120  10.487   9.453
 7535POPC   PO433900  22.155  10.541   9.153
 7535POPC   GL133901  22.187  10.561   8.853
 7535POPC   GL233902  22.166  10.415   8.853
 7535POPC   C1A33903  22.118  10.571   8.553
 7535POPC   D2A33904  22.137  10.499   8.253
 7535POPC   C3A33905  22.152  10.571   7.953
 7535POPC   C4A33906  22.193  10.477   7.653
 7535POPC   C1B33907  22.136  10.280   8.553
 7535POPC   C2B33908  22.144  10.318   8.253
 7535POPC   C3B33909  22.164  10.309   7.953
 7535POPC   C4B33910  22.177  10.230   7.653
 7536POPC   NC333911  44.702  15.987   9.453
 7536POPC   PO433912  44.690  15.937   9.153
 7536POPC   GL133913  44.706  15.910   8.853
 7536POPC   GL233914  44.812  15.966   8.853
 7536POPC   C1A33915  44.703  15.975   8.553
 7536POPC   D2A33916  44.647  15.981   8.253
 7536POPC   C3A33917  44.661  15.988   7.953
 7536POPC   C4A33918  44.613  15.967   7.653
 7536POPC   C1B33919  44.949  15.991   8.553
 7536POPC   C2B33920  44.868  16.026   8.253
 7536POPC   C3B33921  44.905  16.063   7.953
 7536POPC   C4B33922  44.950  16.043   7.653
 7537POPC   NC333923  29.947  34.563   9.453
 7537POPC   PO433924  29.924  34.533   9.153
 7537POPC   GL133925  29.919  34.530   8.853
 7537POPC   GL233926  29.755  34.516   8.853
 7537POPC   C1A33927  29.948  34.615   8.553
 7537POPC   D2A33928  29.902  34.536   8.253
 7537POPC   C3A33929  29.898  34.567   7.953
 7537POPC   C4A33930  29.960  34.526   7.653
 7537POPC   C1B33931  29.632  34.482   8.553
 7537POPC   C2B33932  29.647  34.515   8.253
 7537POPC   C3B33933  29.634  34.472   7.953
 7537POPC   C4B33934  29.645  34.489   7.653
 7538POPC   NC333935  41.532   0.448   9.453
 7538POPC   PO433936  41.599   0.458   9.153
 7538POPC   GL133937  41.515   0.454   8.853
 7538POPC   GL233938  41.529   0.370   8.853
 7538POPC   C1A33939  41.547   0.422   8.553
 7538POPC   D2A33940  41.565   0.434   8.253
 7538POPC   C3A33941  41.580   0.444   7.953
 7538POPC   C4A33942  41.608   0.437   7.653
 7538POPC   C1B33943  41.425   0.209   8.553
 7538POPC   C2B33944  41.452   0.231   8.253
 7538POPC   C3B33945  41.462   0.241   7.953
 7538POPC   C4B33946  41.477   0.238   7.653
 7539POPC   NC333947   7.457  17.492   9.453
 7539POPC   PO433948   7.406  17.516   9.153
 7539POPC   GL133949   7.406  17.473   8.853
 7539POPC   GL233950   7.536  17.580   8.853
 7539POPC   C1A33951   7.434  17.531   8.553
 7539POPC   D2A33952   7.413  17.484   8.253
 7539POPC   C3A33953   7.406  17.514   7.953
 7539POPC   C4A33954   7.442  17.532   7.653
 7539POPC   C1B33955   7.636  17.634   8.553
 7539POPC   C2B33956   7.657  17.553   8.253
 7539POPC   C3B33957   7.687  17.551   7.953
 7539POPC   C4B33958   7.656  17.615   7.653
 7540POPC   NC333959  38.490   5.076   9.453
 7540POPC   PO433960  38.438   5.123   9.153
 7540POPC   GL133961  38.447   5.142   8.853
 7540POPC   GL233962  38.417   5.244   8.853
 7540POPC   C1A33963  38.478   5.070   8.553
 7540POPC   D2A33964  38.425   5.061   8.253
 7540POPC   C3A33965  38.458   5.107   7.953
 7540POPC   C4A33966  38.482   5.100   7.653
 7540POPC   C1B33967  38.477   5.378   8.553
 7540POPC   C2B33968  38.450   5.319   8.253
 7540POPC   C3B33969  38.492   5.316   7.953
 7540POPC   C4B33970  38.396   5.336   7.653
 7541POPC   NC333971  36.078   5.141   9.453
 7541POPC   PO433972  36.084   5.108   9.153
 7541POPC   GL133973  36.098   5.127   8.853
 7541POPC   GL233974  35.994   5.137   8.853
 7541POPC   C1A33975  36.159   5.045   8.553
 7541POPC   D2A33976  36.128   5.093   8.253
 7541POPC   C3A33977  36.174   5.075   7.953
 7541POPC   C4A33978  36.122   5.113   7.653
 7541POPC   C1B33979  35.966   5.278   8.553
 7541POPC   C2B33980  35.892   5.272   8.253
 7541POPC   C3B33981  35.881   5.202   7.953
 7541POPC   C4B33982  35.870   5.227   7.653
 7542POPC   NC333983  22.139  11.329   9.453
 7542POPC   PO433984  22.137  11.289   9.153
 7542POPC   GL133985  22.173  11.314   8.853
 7542POPC   GL233986  22.009  11.267   8.853
 7542POPC   C1A33987  22.192  11.267   8.553
 7542POPC   D2A33988  22.201  11.271   8.253
 7542POPC   C3A33989  22.126  11.251   7.953
 7542POPC   C4A33990  22.191  11.320   7.653
 7542POPC   C1B33991  21.971  11.228   8.553
 7542POPC   C2B33992  21.955  11.186   8.253
 7542POPC   C3B33993  21.892  11.200   7.953
 7542POPC   C4B33994  21.968  11.258   7.653
 7543POPC   NC333995  11.267  17.503   9.453
 7543POPC   PO433996  11.325  17.474   9.153
 7543POPC   GL133997  11.327  17.480   8.853
 7543POPC   GL233998  11.409  17.533   8.853
 7543POPC   C1A33999  11.273  17.532   8.553
 7543POPC   D2A34000  11.330  17.547   8.253
 7543POPC   C3A34001  11.326  17.531   7.953
 7543POPC   C4A34002  11.323  17.532   7.653
 7543POPC   C1B34003  11.566  17.440   8.553
 7543POPC   C2B34004  11.523  17.423   8.253
 7543POPC   C3B34005  11.498  17.521   7.953
 7543POPC   C4B34006  11.580  17.478   7.653
 7544POPC   NC334007  41.598  43.912   9.453
 7544POPC   PO434008  41.557  43.845   9.153
 7544POPC   GL134009  41.539  43.893   8.853
 7544POPC   GL234010  41.568  44.043   8.853
 7544POPC   C1A34011  41.513  43.885   8.553
 7544POPC   D2A34012  41.589  43.847   8.253
 7544POPC   C3A34013  41.560  43.880   7.953
 7544POPC   C4A34014  41.552  43.918   7.653
 7544POPC   C1B34015  41.560  44.131   8.553
 7544POPC   C2B34016  41.619  44.136   8.253
 7544POPC   C3B34017  41.636  44.149   7.953
 7544POPC   C4B34018  41.621  44.134   7.653
 7545POPC   NC334019  33.753   8.172   9.453
 7545POPC   PO434020  33.842   8.170   9.153
 7545POPC   GL134021  33.836   8.228   8.853
 7545POPC   GL234022  33.821   8.349   8.853
 7545POPC   C1A34023  33.775   8.233   8.553
 7545POPC   D2A34024  33.759   8.203   8.253
 7545POPC   C3A34025  33.829   8.190   7.953
 7545POPC   C4A34026  33.821   8.154   7.653
 7545POPC   C1B34027  33.883   8.458   8.553
 7545POPC   C2B34028  33.880   8.479   8.253
 7545POPC   C3B34029  33.876   8.431   7.953
 7545POPC   C4B34030  33.821   8.398   7.653
 7546POPC   NC334031  29.099  36.081   9.453
 7546POPC   PO434032  29.171  36.097   9.153
 7546POPC   GL134033  29.187  36.120   8.853
 7546POPC   GL234034  29.275  36.157   8.853
 7546POPC   C1A34035  29.175  36.147   8.553
 7546POPC   D2A34036  29.125  36.104   8.253
 7546POPC   C3A34037  29.168  36.094   7.953
 7546POPC   C4A34038  29.168  36.085   7.653
 7546POPC   C1B34039  29.424  36.165   8.553
 7546POPC   C2B34040  29.356  36.191   8.253
 7546POPC   C3B34041  29.406  36.226   7.953
 7546POPC   C4B34042  29.391  36.161   7.653
 7547POPC   NC334043  32.207   3.494   9.453
 7547POPC   PO434044  32.294   3.516   9.153
 7547POPC   GL134045  32.256   3.563   8.853
 7547POPC   GL234046  32.099   3.515   8.853
 7547POPC   C1A34047  32.214   3.558   8.553
 7547POPC   D2A34048  32.226   3.536   8.253
 7547POPC   C3A34049  32.199   3.585   7.953
 7547POPC   C4A34050  32.214   3.581   7.653
 7547POPC   C1B34051  31.964   3.551   8.553
 7547POPC   C2B34052  31.985   3.571   8.253
 7547POPC   C3B34053  31.982   3.473   7.953
 7547POPC   C4B34054  32.006   3.560   7.653
 7548POPC   NC334055   8.183   7.399   9.453
 7548POPC   PO434056   8.170   7.405   9.153
 7548POPC   GL134057   8.213   7.468   8.853
 7548POPC   GL234058   8.087   7.435   8.853
 7548POPC   C1A34059   8.240   7.377   8.553
 7548POPC   D2A34060   8.238   7.469   8.253
 7548POPC   C3A34061   8.156   7.425   7.953
 7548POPC   C4A34062   8.163   7.392   7.653
 7548POPC   C1B34063   7.903   7.424   8.553
 7548POPC   C2B34064   7.898   7.436   8.253
 7548POPC   C3B34065   7.942   7.355   7.953
 7548POPC   C4B34066   7.953   7.390   7.653
 7549POPC   NC334067  41.579  14.404   9.453
 7549POPC   PO434068  41.535  14.435   9.153
 7549POPC   GL134069  41.539  14.378   8.853
 7549POPC   GL234070  41.617  14.461   8.853
 7549POPC   C1A34071  41.590  14.392   8.553
 7549POPC   D2A34072  41.581  14.381   8.253
 7549POPC   C3A34073  41.604  14.383   7.953
 7549POPC   C4A34074  41.568  14.419   7.653
 7549POPC   C1B34075  41.712  14.648   8.553
 7549POPC   C2B34076  41.680  14.599   8.253
 7549POPC   C3B34077  41.704  14.621   7.953
 7549POPC   C4B34078  41.691  14.562   7.653
 7550POPC   NC334079  43.904  22.115   9.453
 7550POPC   PO434080  43.923  22.186   9.153
 7550POPC   GL134081  43.888  22.154   8.853
 7550POPC   GL234082  43.784  22.324   8.853
 7550POPC   C1A34083  43.864  22.193   8.553
 7550POPC   D2A34084  43.860  22.175   8.253
 7550POPC   C3A34085  43.883  22.211   7.953
 7550POPC   C4A34086  43.889  22.182   7.653
 7550POPC   C1B34087  43.750  22.341   8.553
 7550POPC   C2B34088  43.734  22.412   8.253
 7550POPC   C3B34089  43.760  22.427   7.953
 7550POPC   C4B34090  43.776  22.390   7.653
 7551POPC   NC334091   4.352  32.256   9.453
 7551POPC   PO434092   4.305  32.226   9.153
 7551POPC   GL134093   4.299  32.244   8.853
 7551POPC   GL234094   4.320  32.127   8.853
 7551POPC   C1A34095   4.340  32.257   8.553
 7551POPC   D2A34096   4.335  32.281   8.253
 7551POPC   C3A34097   4.345  32.272   7.953
 7551POPC   C4A34098   4.270  32.292   7.653
 7551POPC   C1B34099   4.276  31.992   8.553
 7551POPC   C2B34100   4.276  31.998   8.253
 7551POPC   C3B34101   4.282  31.973   7.953
 7551POPC   C4B34102   4.260  32.032   7.653
 7552POPC   NC334103   4.330  30.729   9.453
 7552POPC   PO434104   4.295  30.669   9.153
 7552POPC   GL134105   4.295  30.686   8.853
 7552POPC   GL234106   4.209  30.706   8.853
 7552POPC   C1A34107   4.296  30.707   8.553
 7552POPC   D2A34108   4.314  30.745   8.253
 7552POPC   C3A34109   4.321  30.726   7.953
 7552POPC   C4A34110   4.322  30.709   7.653
 7552POPC   C1B34111   4.019  30.694   8.553
 7552POPC   C2B34112   4.071  30.742   8.253
 7552POPC   C3B34113   4.027  30.734   7.953
 7552POPC   C4B34114   4.062  30.648   7.653
 7553POPC   NC334115  33.006  22.913   9.453
 7553POPC   PO434116  33.049  22.917   9.153
 7553POPC   GL134117  33.011  22.969   8.853
 7553POPC   GL234118  33.102  22.877   8.853
 7553POPC   C1A34119  33.006  22.953   8.553
 7553POPC   D2A34120  33.036  22.937   8.253
 7553POPC   C3A34121  33.034  22.930   7.953
 7553POPC   C4A34122  33.016  22.946   7.653
 7553POPC   C1B34123  33.148  22.708   8.553
 7553POPC   C2B34124  33.210  22.711   8.253
 7553POPC   C3B34125  33.172  22.712   7.953
 7553POPC   C4B34126  33.215  22.735   7.653
 7554POPC   NC334127  16.750  43.932   9.453
 7554POPC   PO434128  16.684  43.917   9.153
 7554POPC   GL134129  16.727  43.874   8.853
 7554POPC   GL234130  16.821  43.959   8.853
 7554POPC   C1A34131  16.742  43.837   8.553
 7554POPC   D2A34132  16.742  43.884   8.253
 7554POPC   C3A34133  16.708  43.904   7.953
 7554POPC   C4A34134  16.767  43.844   7.653
 7554POPC   C1B34135  16.899  44.002   8.553
 7554POPC   C2B34136  16.937  44.074   8.253
 7554POPC   C3B34137  16.894  44.079   7.953
 7554POPC   C4B34138  16.886  44.058   7.653
 7555POPC   NC334139  40.048  27.556   9.453
 7555POPC   PO434140  40.018  27.558   9.153
 7555POPC   GL134141  40.020  27.603   8.853
 7555POPC   GL234142  40.035  27.672   8.853
 7555POPC   C1A34143  40.008  27.585   8.553
 7555POPC   D2A34144  40.016  27.560   8.253
 7555POPC   C3A34145  39.992  27.564   7.953
 7555POPC   C4A34146  40.022  27.550   7.653
 7555POPC   C1B34147  40.173  27.787   8.553
 7555POPC   C2B34148  40.182  27.826   8.253
 7555POPC   C3B34149  40.170  27.784   7.953
 7555POPC   C4B34150  40.159  27.816   7.653
 7556POPC   NC334151   1.233  29.881   9.453
 7556POPC   PO434152   1.241  29.931   9.153
 7556POPC   GL134153   1.241  29.900   8.853
 7556POPC   GL234154   1.239  30.061   8.853
 7556POPC   C1A34155   1.191  29.963   8.553
 7556POPC   D2A34156   1.185  29.939   8.253
 7556POPC   C3A34157   1.192  29.952   7.953
 7556POPC   C4A34158   1.228  29.904   7.653
 7556POPC   C1B34159   1.218  30.181   8.553
 7556POPC   C2B34160   1.167  30.174   8.253
 7556POPC   C3B34161   1.180  30.180   7.953
 7556POPC   C4B34162   1.232  30.163   7.653
 7557POPC   NC334163   9.742  19.874   9.453
 7557POPC   PO434164   9.793  19.865   9.153
 7557POPC   GL134165   9.767  19.874   8.853
 7557POPC   GL234166   9.783  19.989   8.853
 7557POPC   C1A34167   9.786  19.815   8.553
 7557POPC   D2A34168   9.768  19.809   8.253
 7557POPC   C3A34169   9.740  19.832   7.953
 7557POPC   C4A34170   9.798  19.874   7.653
 7557POPC   C1B34171   9.721  20.134   8.553
 7557POPC   C2B34172   9.739  20.096   8.253
 7557POPC   C3B34173   9.705  20.060   7.953
 7557POPC   C4B34174   9.730  20.094   7.653
 7558POPC   NC334175   5.092  19.850   9.453
 7558POPC   PO434176   5.096  19.872   9.153
 7558POPC   GL134177   5.103  19.861   8.853
 7558POPC   GL234178   5.044  19.749   8.853
 7558POPC   C1A34179   5.097  19.840   8.553
 7558POPC   D2A34180   5.109  19.812   8.253
 7558POPC   C3A34181   5.138  19.827   7.953
 7558POPC   C4A34182   5.049  19.785   7.653
 7558POPC   C1B34183   4.997  19.614   8.553
 7558POPC   C2B34184   5.012  19.591   8.253
 7558POPC   C3B34185   4.930  19.620   7.953
 7558POPC   C4B34186   4.989  19.650   7.653
 7559POPC   NC334187   2.039  28.342   9.453
 7559POPC   PO434188   1.950  28.397   9.153
 7559POPC   GL134189   2.017  28.399   8.853
 7559POPC   GL234190   1.856  28.440   8.853
 7559POPC   C1A34191   2.033  28.364   8.553
 7559POPC   D2A34192   1.990  28.366   8.253
 7559POPC   C3A34193   2.005  28.368   7.953
 7559POPC   C4A34194   1.944  28.339   7.653
 7559POPC   C1B34195   1.796  28.457   8.553
 7559POPC   C2B34196   1.719  28.466   8.253
 7559POPC   C3B34197   1.790  28.492   7.953
 7559POPC   C4B34198   1.801  28.465   7.653
 7560POPC   NC334199  44.704  14.419   9.453
 7560POPC   PO434200  44.626  14.396   9.153
 7560POPC   GL134201  44.706  14.365   8.853
 7560POPC   GL234202  44.779  14.282   8.853
 7560POPC   C1A34203  44.647  14.425   8.553
 7560POPC   D2A34204  44.615  14.430   8.253
 7560POPC   C3A34205  44.636  14.424   7.953
 7560POPC   C4A34206  44.637  14.450   7.653
 7560POPC   C1B34207  44.883  14.231   8.553
 7560POPC   C2B34208  44.853  14.236   8.253
 7560POPC   C3B34209  44.896  14.230   7.953
 7560POPC   C4B34210  44.822  14.185   7.653
 7561POPC   NC334211  32.269  27.636   9.453
 7561POPC   PO434212  32.214  27.612   9.153
 7561POPC   GL134213  32.205  27.629   8.853
 7561POPC   GL234214  32.160  27.577   8.853
 7561POPC   C1A34215  32.251  27.634   8.553
 7561POPC   D2A34216  32.238  27.578   8.253
 7561POPC   C3A34217  32.205  27.632   7.953
 7561POPC   C4A34218  32.268  27.620   7.653
 7561POPC   C1B34219  31.971  27.528   8.553
 7561POPC   C2B34220  32.039  27.536   8.253
 7561POPC   C3B34221  31.982  27.464   7.953
 7561POPC   C4B34222  32.009  27.459   7.653
 7562POPC   NC334223  25.240  20.627   9.453
 7562POPC   PO434224  25.217  20.576   9.153
 7562POPC   GL134225  25.299  20.575   8.853
 7562POPC   GL234226  25.218  20.729   8.853
 7562POPC   C1A34227  25.287  20.564   8.553
 7562POPC   D2A34228  25.249  20.598   8.253
 7562POPC   C3A34229  25.222  20.584   7.953
 7562POPC   C4A34230  25.289  20.642   7.653
 7562POPC   C1B34231  25.115  20.860   8.553
 7562POPC   C2B34232  25.080  20.816   8.253
 7562POPC   C3B34233  25.157  20.836   7.953
 7562POPC   C4B34234  25.094  20.819   7.653
 7563POPC   NC334235  29.180  37.701   9.453
 7563POPC   PO434236  29.105  37.637   9.153
 7563POPC   GL134237  29.194  37.685   8.853
 7563POPC   GL234238  29.016  37.586   8.853
 7563POPC   C1A34239  29.190  37.678   8.553
 7563POPC   D2A34240  29.121  37.643   8.253
 7563POPC   C3A34241  29.110  37.712   7.953
 7563POPC   C4A34242  29.190  37.662   7.653
 7563POPC   C1B34243  28.867  37.620   8.553
 7563POPC   C2B34244  28.926  37.547   8.253
 7563POPC   C3B34245  28.947  37.544   7.953
 7563POPC   C4B34246  28.879  37.533   7.653
 7564POPC   NC334247  39.213  14.355   9.453
 7564POPC   PO434248  39.243  14.359   9.153
 7564POPC   GL134249  39.247  14.420   8.853
 7564POPC   GL234250  39.182  14.556   8.853
 7564POPC   C1A34251  39.181  14.425   8.553
 7564POPC   D2A34252  39.210  14.378   8.253
 7564POPC   C3A34253  39.211  14.386   7.953
 7564POPC   C4A34254  39.256  14.444   7.653
 7564POPC   C1B34255  39.127  14.597   8.553
 7564POPC   C2B34256  39.087  14.623   8.253
 7564POPC   C3B34257  39.119  14.649   7.953
 7564POPC   C4B34258  39.084  14.639   7.653
 7565POPC   NC334259   9.699  36.108   9.453
 7565POPC   PO434260   9.749  36.168   9.153
 7565POPC   GL134261   9.742  36.158   8.853
 7565POPC   GL234262   9.665  36.089   8.853
 7565POPC   C1A34263   9.739  36.110   8.553
 7565POPC   D2A34264   9.716  36.158   8.253
 7565POPC   C3A34265   9.755  36.125   7.953
 7565POPC   C4A34266   9.739  36.173   7.653
 7565POPC   C1B34267   9.478  36.093   8.553
 7565POPC   C2B34268   9.478  36.113   8.253
 7565POPC   C3B34269   9.476  36.039   7.953
 7565POPC   C4B34270   9.458  36.109   7.653
 7566POPC   NC334271  43.910  42.324   9.453
 7566POPC   PO434272  43.893  42.324   9.153
 7566POPC   GL134273  43.851  42.339   8.853
 7566POPC   GL234274  43.996  42.267   8.853
 7566POPC   C1A34275  43.849  42.317   8.553
 7566POPC   D2A34276  43.860  42.380   8.253
 7566POPC   C3A34277  43.922  42.362   7.953
 7566POPC   C4A34278  43.915  42.326   7.653
 7566POPC   C1B34279  44.084  42.201   8.553
 7566POPC   C2B34280  44.121  42.179   8.253
 7566POPC   C3B34281  44.086  42.218   7.953
 7566POPC   C4B34282  44.032  42.155   7.653
 7567POPC   NC334283  22.980  24.489   9.453
 7567POPC   PO434284  22.929  24.527   9.153
 7567POPC   GL134285  22.900  24.489   8.853
 7567POPC   GL234286  23.027  24.553   8.853
 7567POPC   C1A34287  22.985  24.487   8.553
 7567POPC   D2A34288  22.942  24.442   8.253
 7567POPC   C3A34289  22.910  24.459   7.953
 7567POPC   C4A34290  22.914  24.452   7.653
 7567POPC   C1B34291  23.135  24.722   8.553
 7567POPC   C2B34292  23.092  24.721   8.253
 7567POPC   C3B34293  23.120  24.720   7.953
 7567POPC   C4B34294  23.078  24.683   7.653
 7568POPC   NC334295  43.097  31.461   9.453
 7568POPC   PO434296  43.076  31.488   9.153
 7568POPC   GL134297  43.143  31.487   8.853
 7568POPC   GL234298  43.179  31.473   8.853
 7568POPC   C1A34299  43.084  31.425   8.553
 7568POPC   D2A34300  43.138  31.484   8.253
 7568POPC   C3A34301  43.075  31.461   7.953
 7568POPC   C4A34302  43.100  31.452   7.653
 7568POPC   C1B34303  43.391  31.503   8.553
 7568POPC   C2B34304  43.311  31.581   8.253
 7568POPC   C3B34305  43.319  31.511   7.953
 7568POPC   C4B34306  43.307  31.600   7.653
 7569POPC   NC334307   9.700  13.616   9.453
 7569POPC   PO434308   9.782  13.593   9.153
 7569POPC   GL134309   9.776  13.627   8.853
 7569POPC   GL234310   9.733  13.538   8.853
 7569POPC   C1A34311   9.778  13.664   8.553
 7569POPC   D2A34312   9.708  13.651   8.253
 7569POPC   C3A34313   9.755  13.606   7.953
 7569POPC   C4A34314   9.752  13.645   7.653
 7569POPC   C1B34315   9.728  13.418   8.553
 7569POPC   C2B34316   9.766  13.402   8.253
 7569POPC   C3B34317   9.700  13.426   7.953
 7569POPC   C4B34318   9.741  13.355   7.653
 7570POPC   NC334319  11.281  11.266   9.453
 7570POPC   PO434320  11.310  11.312   9.153
 7570POPC   GL134321  11.260  11.296   8.853
 7570POPC   GL234322  11.216  11.248   8.853
 7570POPC   C1A34323  11.335  11.322   8.553
 7570POPC   D2A34324  11.332  11.253   8.253
 7570POPC   C3A34325  11.348  11.303   7.953
 7570POPC   C4A34326  11.284  11.264   7.653
 7570POPC   C1B34327  11.045  11.219   8.553
 7570POPC   C2B34328  11.081  11.154   8.253
 7570POPC   C3B34329  11.047  11.166   7.953
 7570POPC   C4B34330  11.114  11.145   7.653
 7571POPC   NC334331  31.425  32.250   9.453
 7571POPC   PO434332  31.514  32.264   9.153
 7571POPC   GL134333  31.424  32.249   8.853
 7571POPC   GL234334  31.549  32.129   8.853
 7571POPC   C1A34335  31.493  32.230   8.553
 7571POPC   D2A34336  31.473  32.274   8.253
 7571POPC   C3A34337  31.512  32.288   7.953
 7571POPC   C4A34338  31.440  32.242   7.653
 7571POPC   C1B34339  31.643  32.074   8.553
 7571POPC   C2B34340  31.627  32.019   8.253
 7571POPC   C3B34341  31.658  32.022   7.953
 7571POPC   C4B34342  31.660  32.043   7.653
 7572POPC   NC334343  33.848  23.712   9.453
 7572POPC   PO434344  33.803  23.737   9.153
 7572POPC   GL134345  33.803  23.749   8.853
 7572POPC   GL234346  33.793  23.782   8.853
 7572POPC   C1A34347  33.820  23.680   8.553
 7572POPC   D2A34348  33.769  23.763   8.253
 7572POPC   C3A34349  33.832  23.712   7.953
 7572POPC   C4A34350  33.787  23.755   7.653
 7572POPC   C1B34351  33.710  23.927   8.553
 7572POPC   C2B34352  33.746  23.984   8.253
 7572POPC   C3B34353  33.677  23.912   7.953
 7572POPC   C4B34354  33.675  23.980   7.653
 7573POPC   NC334355   1.253  17.483   9.453
 7573POPC   PO434356   1.181  17.466   9.153
 7573POPC   GL134357   1.166  17.461   8.853
 7573POPC   GL234358   1.152  17.389   8.853
 7573POPC   C1A34359   1.255  17.496   8.553
 7573POPC   D2A34360   1.206  17.489   8.253
 7573POPC   C3A34361   1.185  17.517   7.953
 7573POPC   C4A34362   1.179  17.475   7.653
 7573POPC   C1B34363   1.075  17.349   8.553
 7573POPC   C2B34364   0.998  17.327   8.253
 7573POPC   C3B34365   1.003  17.366   7.953
 7573POPC   C4B34366   0.988  17.309   7.653
 7574POPC   NC334367  15.929  44.633   9.453
 7574POPC   PO434368  15.988  44.667   9.153
 7574POPC   GL134369  15.983  44.614   8.853
 7574POPC   GL234370  15.818  44.736   8.853
 7574POPC   C1A34371  15.919  44.645   8.553
 7574POPC   D2A34372  15.929  44.691   8.253
 7574POPC   C3A34373  15.932  44.687   7.953
 7574POPC   C4A34374  15.954  44.672   7.653
 7574POPC   C1B34375  15.763  44.722   8.553
 7574POPC   C2B34376  15.732  44.759   8.253
 7574POPC   C3B34377  15.768  44.755   7.953
 7574POPC   C4B34378  15.743  44.800   7.653
 7575POPC   NC334379  19.033  31.455   9.453
 7575POPC   PO434380  19.016  31.484   9.153
 7575POPC   GL134381  19.072  31.506   8.853
 7575POPC   GL234382  19.170  31.478   8.853
 7575POPC   C1A34383  19.093  31.468   8.553
 7575POPC   D2A34384  19.011  31.461   8.253
 7575POPC   C3A34385  19.090  31.485   7.953
 7575POPC   C4A34386  19.036  31.436   7.653
 7575POPC   C1B34387  19.357  31.520   8.553
 7575POPC   C2B34388  19.347  31.514   8.253
 7575POPC   C3B34389  19.275  31.511   7.953
 7575POPC   C4B34390  19.296  31.488   7.653
 7576POPC   NC334391   4.297  19.085   9.453
 7576POPC   PO434392   4.320  19.079   9.153
 7576POPC   GL134393   4.329  19.020   8.853
 7576POPC   GL234394   4.174  18.939   8.853
 7576POPC   C1A34395   4.309  19.057   8.553
 7576POPC   D2A34396   4.270  19.063   8.253
 7576POPC   C3A34397   4.356  19.085   7.953
 7576POPC   C4A34398   4.302  19.033   7.653
 7576POPC   C1B34399   4.106  18.907   8.553
 7576POPC   C2B34400   4.157  18.909   8.253
 7576POPC   C3B34401   4.154  18.928   7.953
 7576POPC   C4B34402   4.101  18.892   7.653
 7577POPC   NC334403  35.313  41.598   9.453
 7577POPC   PO434404  35.359  41.527   9.153
 7577POPC   GL134405  35.390  41.607   8.853
 7577POPC   GL234406  35.242  41.487   8.853
 7577POPC   C1A34407  35.349  41.564   8.553
 7577POPC   D2A34408  35.345  41.547   8.253
 7577POPC   C3A34409  35.380  41.574   7.953
 7577POPC   C4A34410  35.311  41.608   7.653
 7577POPC   C1B34411  35.101  41.488   8.553
 7577POPC   C2B34412  35.129  41.432   8.253
 7577POPC   C3B34413  35.096  41.512   7.953
 7577POPC   C4B34414  35.098  41.457   7.653
 7578POPC   NC334415  44.614  15.224   9.453
 7578POPC   PO434416  44.644  15.137   9.153
 7578POPC   GL134417  44.637  15.158   8.853
 7578POPC   GL234418  44.684  15.012   8.853
 7578POPC   C1A34419  44.679  15.155   8.553
 7578POPC   D2A34420  44.643  15.176   8.253
 7578POPC   C3A34421  44.685  15.207   7.953
 7578POPC   C4A34422  44.645  15.199   7.653
 7578POPC   C1B34423  44.675  14.972   8.553
 7578POPC   C2B34424  44.658  14.969   8.253
 7578POPC   C3B34425  44.648  14.918   7.953
 7578POPC   C4B34426  44.614  14.917   7.653
 7579POPC   NC334427  24.459   5.122   9.453
 7579POPC   PO434428  24.469   5.099   9.153
 7579POPC   GL134429  24.475   5.044   8.853
 7579POPC   GL234430  24.608   5.065   8.853
 7579POPC   C1A34431  24.452   5.090   8.553
 7579POPC   D2A34432  24.534   5.085   8.253
 7579POPC   C3A34433  24.534   5.093   7.953
 7579POPC   C4A34434  24.484   5.132   7.653
 7579POPC   C1B34435  24.771   5.080   8.553
 7579POPC   C2B34436  24.778   5.141   8.253
 7579POPC   C3B34437  24.760   5.123   7.953
 7579POPC   C4B34438  24.757   5.100   7.653
 7580POPC   NC334439  40.734  43.154   9.453
 7580POPC   PO434440  40.786  43.108   9.153
 7580POPC   GL134441  40.734  43.137   8.853
 7580POPC   GL234442  40.647  43.043   8.853
 7580POPC   C1A34443  40.830  43.107   8.553
 7580POPC   D2A34444  40.776  43.064   8.253
 7580POPC   C3A34445  40.763  43.109   7.953
 7580POPC   C4A34446  40.743  43.132   7.653
 7580POPC   C1B34447  40.572  43.032   8.553
 7580POPC   C2B34448  40.496  43.099   8.253
 7580POPC   C3B34449  40.585  43.054   7.953
 7580POPC   C4B34450  40.576  43.095   7.653
 7581POPC   NC334451  14.391  38.482   9.453
 7581POPC   PO434452  14.444  38.459   9.153
 7581POPC   GL134453  14.377  38.505   8.853
 7581POPC   GL234454  14.235  38.422   8.853
 7581POPC   C1A34455  14.354  38.411   8.553
 7581POPC   D2A34456  14.436  38.409   8.253
 7581POPC   C3A34457  14.443  38.421   7.953
 7581POPC   C4A34458  14.395  38.444   7.653
 7581POPC   C1B34459  14.155  38.415   8.553
 7581POPC   C2B34460  14.138  38.355   8.253
 7581POPC   C3B34461  14.147  38.404   7.953
 7581POPC   C4B34462  14.118  38.369   7.653
 7582POPC   NC334463  39.257  23.667   9.453
 7582POPC   PO434464  39.210  23.708   9.153
 7582POPC   GL134465  39.214  23.757   8.853
 7582POPC   GL234466  39.065  23.696   8.853
 7582POPC   C1A34467  39.216  23.755   8.553
 7582POPC   D2A34468  39.241  23.674   8.253
 7582POPC   C3A34469  39.226  23.669   7.953
 7582POPC   C4A34470  39.262  23.713   7.653
 7582POPC   C1B34471  39.030  23.622   8.553
 7582POPC   C2B34472  38.961  23.642   8.253
 7582POPC   C3B34473  38.971  23.672   7.953
 7582POPC   C4B34474  38.968  23.653   7.653
 7583POPC   NC334475   8.977  29.941   9.453
 7583POPC   PO434476   8.925  29.921   9.153
 7583POPC   GL134477   8.927  29.956   8.853
 7583POPC   GL234478   9.112  30.005   8.853
 7583POPC   C1A34479   8.942  29.896   8.553
 7583POPC   D2A34480   8.923  29.917   8.253
 7583POPC   C3A34481   8.960  29.943   7.953
 7583POPC   C4A34482   8.931  29.949   7.653
 7583POPC   C1B34483   9.225  30.029   8.553
 7583POPC   C2B34484   9.205  30.031   8.253
 7583POPC   C3B34485   9.171  30.007   7.953
 7583POPC   C4B34486   9.245  30.035   7.653
 7584POPC   NC334487  26.012  23.675   9.453
 7584POPC   PO434488  26.013  23.720   9.153
 7584POPC   GL134489  26.083  23.681   8.853
 7584POPC   GL234490  25.986  23.609   8.853
 7584POPC   C1A34491  26.027  23.705   8.553
 7584POPC   D2A34492  26.008  23.681   8.253
 7584POPC   C3A34493  26.048  23.691   7.953
 7584POPC   C4A34494  26.074  23.683   7.653
 7584POPC   C1B34495  25.816  23.608   8.553
 7584POPC   C2B34496  25.887  23.576   8.253
 7584POPC   C3B34497  25.853  23.613   7.953
 7584POPC   C4B34498  25.796  23.546   7.653
 7585POPC   NC334499   7.422  43.159   9.453
 7585POPC   PO434500   7.394  43.082   9.153
 7585POPC   GL134501   7.438  43.086   8.853
 7585POPC   GL234502   7.557  43.192   8.853
 7585POPC   C1A34503   7.469  43.109   8.553
 7585POPC   D2A34504   7.445  43.100   8.253
 7585POPC   C3A34505   7.410  43.071   7.953
 7585POPC   C4A34506   7.423  43.101   7.653
 7585POPC   C1B34507   7.661  43.290   8.553
 7585POPC   C2B34508   7.664  43.291   8.253
 7585POPC   C3B34509   7.625  43.240   7.953
 7585POPC   C4B34510   7.570  43.256   7.653
 7586POPC   NC334511   0.477   0.426   9.453
 7586POPC   PO434512   0.415   0.393   9.153
 7586POPC   GL134513   0.463   0.450   8.853
 7586POPC   GL234514   0.424   0.356   8.853
 7586POPC   C1A34515   0.443   0.428   8.553
 7586POPC   D2A34516   0.428   0.450   8.253
 7586POPC   C3A34517   0.447   0.470   7.953
 7586POPC   C4A34518   0.455   0.397   7.653
 7586POPC   C1B34519   0.475   0.171   8.553
 7586POPC   C2B34520   0.446   0.230   8.253
 7586POPC   C3B34521   0.480   0.142   7.953
 7586POPC   C4B34522   0.478   0.170   7.653
 7587POPC   NC334523  32.246  29.150   9.453
 7587POPC   PO434524  32.228  29.193   9.153
 7587POPC   GL134525  32.289  29.095   8.853
 7587POPC   GL234526  32.210  29.232   8.853
 7587POPC   C1A34527  32.229  29.131   8.553
 7587POPC   D2A34528  32.285  29.180   8.253
 7587POPC   C3A34529  32.292  29.174   7.953
 7587POPC   C4A34530  32.219  29.191   7.653
 7587POPC   C1B34531  32.243  29.420   8.553
 7587POPC   C2B34532  32.179  29.409   8.253
 7587POPC   C3B34533  32.194  29.399   7.953
 7587POPC   C4B34534  32.164  29.417   7.653
 7588POPC   NC334535  12.040  40.038   9.453
 7588POPC   PO434536  12.115  40.015   9.153
 7588POPC   GL134537  12.066  40.048   8.853
 7588POPC   GL234538  12.174  40.015   8.853
 7588POPC   C1A34539  12.090  40.009   8.553
 7588POPC   D2A34540  12.031  39.964   8.253
 7588POPC   C3A34541  12.119  39.990   7.953
 7588POPC   C4A34542  12.126  40.048   7.653
 7588POPC   C1B34543  12.345  40.115   8.553
 7588POPC   C2B34544  12.270  40.147   8.253
 7588POPC   C3B34545  12.292  40.167   7.953
 7588POPC   C4B34546  12.347  40.156   7.653
 7589POPC   NC334547  19.081  29.910   9.453
 7589POPC   PO434548  19.077  29.929   9.153
 7589POPC   GL134549  19.052  29.911   8.853
 7589POPC   GL234550  18.976  29.906   8.853
 7589POPC   C1A34551  19.066  29.948   8.553
 7589POPC   D2A34552  19.060  29.960   8.253
 7589POPC   C3A34553  19.016  29.890   7.953
 7589POPC   C4A34554  19.053  29.885   7.653
 7589POPC   C1B34555  18.841  29.810   8.553
 7589POPC   C2B34556  18.785  29.805   8.253
 7589POPC   C3B34557  18.841  29.831   7.953
 7589POPC   C4B34558  18.797  29.822   7.653
 7590POPC   NC334559  20.587   5.115   9.453
 7590POPC   PO434560  20.612   5.122   9.153
 7590POPC   GL134561  20.613   5.078   8.853
 7590POPC   GL234562  20.742   5.033   8.853
 7590POPC   C1A34563  20.568   5.064   8.553
 7590POPC   D2A34564  20.570   5.062   8.253
 7590POPC   C3A34565  20.587   5.068   7.953
 7590POPC   C4A34566  20.596   5.055   7.653
 7590POPC   C1B34567  20.817   4.931   8.553
 7590POPC   C2B34568  20.860   4.948   8.253
 7590POPC   C3B34569  20.794   4.932   7.953
 7590POPC   C4B34570  20.772   4.932   7.653
 7591POPC   NC334571  11.335  19.787   9.453
 7591POPC   PO434572  11.326  19.786   9.153
 7591POPC   GL134573  11.270  19.796   8.853
 7591POPC   GL234574  11.259  19.758   8.853
 7591POPC   C1A34575  11.299  19.815   8.553
 7591POPC   D2A34576  11.314  19.807   8.253
 7591POPC   C3A34577  11.286  19.846   7.953
 7591POPC   C4A34578  11.302  19.862   7.653
 7591POPC   C1B34579  11.159  19.562   8.553
 7591POPC   C2B34580  11.215  19.641   8.253
 7591POPC   C3B34581  11.165  19.648   7.953
 7591POPC   C4B34582  11.216  19.650   7.653
 7592POPC   NC334583  22.133  43.115   9.453
 7592POPC   PO434584  22.166  43.130   9.153
 7592POPC   GL134585  22.176  43.106   8.853
 7592POPC   GL234586  22.101  43.218   8.853
 7592POPC   C1A34587  22.191  43.074   8.553
 7592POPC   D2A34588  22.121  43.148   8.253
 7592POPC   C3A34589  22.112  43.114   7.953
 7592POPC   C4A34590  22.145  43.134   7.653
 7592POPC   C1B34591  22.023  43.372   8.553
 7592POPC   C2B34592  22.066  43.303   8.253
 7592POPC   C3B34593  22.080  43.375   7.953
 7592POPC   C4B34594  22.052  43.325   7.653
 7593POPC   NC334595  27.624  19.054   9.453
 7593POPC   PO434596  27.567  19.088   9.153
 7593POPC   GL134597  27.631  19.099   8.853
 7593POPC   GL234598  27.460  18.985   8.853
 7593POPC   C1A34599  27.571  19.082   8.553
 7593POPC   D2A34600  27.619  19.046   8.253
 7593POPC   C3A34601  27.579  19.102   7.953
 7593POPC   C4A34602  27.560  19.064   7.653
 7593POPC   C1B34603  27.395  18.939   8.553
 7593POPC   C2B34604  27.387  18.908   8.253
 7593POPC   C3B34605  27.352  18.907   7.953
 7593POPC   C4B34606  27.393  18.900   7.653
 7594POPC   NC334607  43.840  32.229   9.453
 7594POPC   PO434608  43.843  32.271   9.153
 7594POPC   GL134609  43.853  32.199   8.853
 7594POPC   GL234610  43.770  32.219   8.853
 7594POPC   C1A34611  43.866  32.264   8.553
 7594POPC   D2A34612  43.849  32.200   8.253
 7594POPC   C3A34613  43.865  32.238   7.953
 7594POPC   C4A34614  43.855  32.291   7.653
 7594POPC   C1B34615  43.700  32.160   8.553
 7594POPC   C2B34616  43.697  32.193   8.253
 7594POPC   C3B34617  43.678  32.113   7.953
 7594POPC   C4B34618  43.616  32.098   7.653
 7595POPC   NC334619  36.923  20.565   9.453
 7595POPC   PO434620  36.953  20.562   9.153
 7595POPC   GL134621  36.879  20.596   8.853
 7595POPC   GL234622  36.960  20.529   8.853
 7595POPC   C1A34623  36.917  20.652   8.553
 7595POPC   D2A34624  36.889  20.568   8.253
 7595POPC   C3A34625  36.876  20.610   7.953
 7595POPC   C4A34626  36.884  20.575   7.653
 7595POPC   C1B34627  37.100  20.459   8.553
 7595POPC   C2B34628  37.096  20.410   8.253
 7595POPC   C3B34629  37.032  20.474   7.953
 7595POPC   C4B34630  37.092  20.393   7.653
 7596POPC   NC334631  23.713   8.995   9.453
 7596POPC   PO434632  23.745   8.943   9.153
 7596POPC   GL134633  23.674   8.960   8.853
 7596POPC   GL234634  23.766   9.019   8.853
 7596POPC   C1A34635  23.712   8.977   8.553
 7596POPC   D2A34636  23.743   8.948   8.253
 7596POPC   C3A34637  23.677   8.924   7.953
 7596POPC   C4A34638  23.732   9.020   7.653
 7596POPC   C1B34639  23.929   9.112   8.553
 7596POPC   C2B34640  23.877   9.166   8.253
 7596POPC   C3B34641  23.910   9.106   7.953
 7596POPC   C4B34642  23.950   9.100   7.653
 7597POPC   NC334643  25.992  34.618   9.453
 7597POPC   PO434644  26.056  34.588   9.153
 7597POPC   GL134645  25.998  34.576   8.853
 7597POPC   GL234646  26.117  34.475   8.853
 7597POPC   C1A34647  26.072  34.572   8.553
 7597POPC   D2A34648  26.090  34.558   8.253
 7597POPC   C3A34649  25.993  34.564   7.953
 7597POPC   C4A34650  25.993  34.564   7.653
 7597POPC   C1B34651  26.138  34.373   8.553
 7597POPC   C2B34652  26.114  34.331   8.253
 7597POPC   C3B34653  26.117  34.388   7.953
 7597POPC   C4B34654  26.163  34.299   7.653
 7598POPC   NC334655  12.099  36.889   9.453
 7598POPC   PO434656  12.104  36.943   9.153
 7598POPC   GL134657  12.060  36.922   8.853
 7598POPC   GL234658  12.217  37.012   8.853
 7598POPC   C1A34659  12.124  36.923   8.553
 7598POPC   D2A34660  12.074  36.947   8.253
 7598POPC   C3A34661  12.063  36.868   7.953
 7598POPC   C4A34662  12.075  36.860   7.653
 7598POPC   C1B34663  12.241  37.073   8.553
 7598POPC   C2B34664  12.296  37.114   8.253
 7598POPC   C3B34665  12.267  37.034   7.953
 7598POPC   C4B34666  12.252  37.065   7.653
 7599POPC   NC334667  34.555  26.853   9.453
 7599POPC   PO434668  34.603  26.804   9.153
 7599POPC   GL134669  34.565  26.825   8.853
 7599POPC   GL234670  34.646  26.738   8.853
 7599POPC   C1A34671  34.557  26.842   8.553
 7599POPC   D2A34672  34.547  26.773   8.253
 7599POPC   C3A34673  34.528  26.841   7.953
 7599POPC   C4A34674  34.541  26.815   7.653
 7599POPC   C1B34675  34.743  26.617   8.553
 7599POPC   C2B34676  34.797  26.654   8.253
 7599POPC   C3B34677  34.757  26.642   7.953
 7599POPC   C4B34678  34.782  26.682   7.653
 7600POPC   NC334679  38.488   4.290   9.453
 7600POPC   PO434680  38.448   4.335   9.153
 7600POPC   GL134681  38.407   4.316   8.853
 7600POPC   GL234682  38.308   4.284   8.853
 7600POPC   C1A34683  38.496   4.302   8.553
 7600POPC   D2A34684  38.482   4.351   8.253
 7600POPC   C3A34685  38.453   4.299   7.953
 7600POPC   C4A34686  38.483   4.327   7.653
 7600POPC   C1B34687  38.236   4.230   8.553
 7600POPC   C2B34688  38.238   4.245   8.253
 7600POPC   C3B34689  38.196   4.309   7.953
 7600POPC   C4B34690  38.178   4.328   7.653
 7601POPC   NC334691   8.937  12.116   9.453
 7601POPC   PO434692   9.001  12.123   9.153
 7601POPC   GL134693   8.964  12.123   8.853
 7601POPC   GL234694   8.955  11.954   8.853
 7601POPC   C1A34695   8.961  12.074   8.553
 7601POPC   D2A34696   9.010  12.121   8.253
 7601POPC   C3A34697   9.006  12.073   7.953
 7601POPC   C4A34698   9.011  12.033   7.653
 7601POPC   C1B34699   8.844  11.789   8.553
 7601POPC   C2B34700   8.920  11.873   8.253
 7601POPC   C3B34701   8.848  11.798   7.953
 7601POPC   C4B34702   8.917  11.821   7.653
 7602POPC   NC334703  33.003  10.547   9.453
 7602POPC   PO434704  33.027  10.529   9.153
 7602POPC   GL134705  32.987  10.506   8.853
 7602POPC   GL234706  33.146  10.592   8.853
 7602POPC   C1A34707  33.007  10.492   8.553
 7602POPC   D2A34708  32.988  10.484   8.253
 7602POPC   C3A34709  33.008  10.548   7.953
 7602POPC   C4A34710  33.062  10.512   7.653
 7602POPC   C1B34711  33.245  10.610   8.553
 7602POPC   C2B34712  33.312  10.574   8.253
 7602POPC   C3B34713  33.218  10.615   7.953
 7602POPC   C4B34714  33.311  10.595   7.653
 7603POPC   NC334715  13.583  23.762   9.453
 7603POPC   PO434716  13.622  23.711   9.153
 7603POPC   GL134717  13.632  23.664   8.853
 7603POPC   GL234718  13.503  23.728   8.853
 7603POPC   C1A34719  13.579  23.747   8.553
 7603POPC   D2A34720  13.668  23.736   8.253
 7603POPC   C3A34721  13.593  23.724   7.953
 7603POPC   C4A34722  13.583  23.711   7.653
 7603POPC   C1B34723  13.419  23.812   8.553
 7603POPC   C2B34724  13.387  23.864   8.253
 7603POPC   C3B34725  13.415  23.862   7.953
 7603POPC   C4B34726  13.431  23.882   7.653
 7604POPC   NC334727   0.421  39.251   9.453
 7604POPC   PO434728   0.481  39.246   9.153
 7604POPC   GL134729   0.458  39.254   8.853
 7604POPC   GL234730   0.545  39.187   8.853
 7604POPC   C1A34731   0.389  39.244   8.553
 7604POPC   D2A34732   0.432  39.212   8.253
 7604POPC   C3A34733   0.417  39.242   7.953
 7604POPC   C4A34734   0.418  39.235   7.653
 7604POPC   C1B34735   0.656  39.133   8.553
 7604POPC   C2B34736   0.680  39.142   8.253
 7604POPC   C3B34737   0.665  39.107   7.953
 7604POPC   C4B34738   0.666  39.096   7.653
 7605POPC   NC334739  16.687  14.395   9.453
 7605POPC   PO434740  16.773  14.446   9.153
 7605POPC   GL134741  16.726  14.365   8.853
 7605POPC   GL234742  16.632  14.488   8.853
 7605POPC   C1A34743  16.757  14.422   8.553
 7605POPC   D2A34744  16.770  14.418   8.253
 7605POPC   C3A34745  16.762  14.403   7.953
 7605POPC   C4A34746  16.775  14.427   7.653
 7605POPC   C1B34747  16.566  14.645   8.553
 7605POPC   C2B34748  16.568  14.589   8.253
 7605POPC   C3B34749  16.624  14.671   7.953
 7605POPC   C4B34750  16.583  14.668   7.653
 7606POPC   NC334751  38.493  33.783   9.453
 7606POPC   PO434752  38.434  33.838   9.153
 7606POPC   GL134753  38.490  33.827   8.853
 7606POPC   GL234754  38.348  33.897   8.853
 7606POPC   C1A34755  38.461  33.788   8.553
 7606POPC   D2A34756  38.416  33.757   8.253
 7606POPC   C3A34757  38.410  33.822   7.953
 7606POPC   C4A34758  38.461  33.786   7.653
 7606POPC   C1B34759  38.219  33.994   8.553
 7606POPC   C2B34760  38.308  33.973   8.253
 7606POPC   C3B34761  38.249  33.941   7.953
 7606POPC   C4B34762  38.255  33.939   7.653
 7607POPC   NC334763  32.980   0.397   9.453
 7607POPC   PO434764  33.027   0.439   9.153
 7607POPC   GL134765  32.992   0.474   8.853
 7607POPC   GL234766  33.100   0.513   8.853
 7607POPC   C1A34767  33.047   0.449   8.553
 7607POPC   D2A34768  32.998   0.429   8.253
 7607POPC   C3A34769  32.977   0.437   7.953
 7607POPC   C4A34770  33.011   0.476   7.653
 7607POPC   C1B34771  33.121   0.664   8.553
 7607POPC   C2B34772  33.164   0.666   8.253
 7607POPC   C3B34773  33.120   0.681   7.953
 7607POPC   C4B34774  33.106   0.646   7.653
 7608POPC   NC334775   5.853  34.614   9.453
 7608POPC   PO434776   5.841  34.611   9.153
 7608POPC   GL134777   5.917  34.577   8.853
 7608POPC   GL234778   5.944  34.583   8.853
 7608POPC   C1A34779   5.890  34.545   8.553
 7608POPC   D2A34780   5.856  34.534   8.253
 7608POPC   C3A34781   5.910  34.617   7.953
 7608POPC   C4A34782   5.832  34.546   7.653
 7608POPC   C1B34783   6.123  34.687   8.553
 7608POPC   C2B34784   6.060  34.692   8.253
 7608POPC   C3B34785   6.130  34.712   7.953
 7608POPC   C4B34786   6.055  34.643   7.653
 7609POPC   NC334787   2.029   8.926   9.453
 7609POPC   PO434788   2.018   8.977   9.153
 7609POPC   GL134789   1.988   8.974   8.853
 7609POPC   GL234790   1.872   9.043   8.853
 7609POPC   C1A34791   1.946   8.984   8.553
 7609POPC   D2A34792   1.963   8.978   8.253
 7609POPC   C3A34793   1.946   8.941   7.953
 7609POPC   C4A34794   1.992   8.999   7.653
 7609POPC   C1B34795   1.815   9.181   8.553
 7609POPC   C2B34796   1.848   9.139   8.253
 7609POPC   C3B34797   1.809   9.192   7.953
 7609POPC   C4B34798   1.833   9.171   7.653
 7610POPC   NC334799  15.945  33.846   9.453
 7610POPC   PO434800  15.960  33.766   9.153
 7610POPC   GL134801  15.993  33.754   8.853
 7610POPC   GL234802  16.014  33.934   8.853
 7610POPC   C1A34803  15.918  33.751   8.553
 7610POPC   D2A34804  15.945  33.809   8.253
 7610POPC   C3A34805  15.953  33.777   7.953
 7610POPC   C4A34806  15.973  33.828   7.653
 7610POPC   C1B34807  16.085  34.004   8.553
 7610POPC   C2B34808  16.110  34.060   8.253
 7610POPC   C3B34809  16.043  33.997   7.953
 7610POPC   C4B34810  16.049  34.002   7.653
 7611POPC   NC334811   8.181  26.839   9.453
 7611POPC   PO434812   8.175  26.847   9.153
 7611POPC   GL134813   8.192  26.772   8.853
 7611POPC   GL234814   8.146  26.746   8.853
 7611POPC   C1A34815   8.166  26.768   8.553
 7611POPC   D2A34816   8.234  26.833   8.253
 7611POPC   C3A34817   8.182  26.768   7.953
 7611POPC   C4A34818   8.186  26.816   7.653
 7611POPC   C1B34819   8.008  26.604   8.553
 7611POPC   C2B34820   8.025  26.576   8.253
 7611POPC   C3B34821   8.027  26.621   7.953
 7611POPC   C4B34822   7.992  26.624   7.653
 7612POPC   NC334823  15.212  40.808   9.453
 7612POPC   PO434824  15.141  40.770   9.153
 7612POPC   GL134825  15.218  40.779   8.853
 7612POPC   GL234826  15.213  40.948   8.853
 7612POPC   C1A34827  15.193  40.803   8.553
 7612POPC   D2A34828  15.205  40.735   8.253
 7612POPC   C3A34829  15.206  40.811   7.953
 7612POPC   C4A34830  15.137  40.806   7.653
 7612POPC   C1B34831  15.235  40.994   8.553
 7612POPC   C2B34832  15.281  41.066   8.253
 7612POPC   C3B34833  15.241  41.029   7.953
 7612POPC   C4B34834  15.262  41.054   7.653
 7613POPC   NC334835   8.160  12.039   9.453
 7613POPC   PO434836   8.170  12.070   9.153
 7613POPC   GL134837   8.196  12.033   8.853
 7613POPC   GL234838   8.246  11.983   8.853
 7613POPC   C1A34839   8.150  12.041   8.553
 7613POPC   D2A34840   8.242  12.117   8.253
 7613POPC   C3A34841   8.222  12.095   7.953
 7613POPC   C4A34842   8.158  12.090   7.653
 7613POPC   C1B34843   8.344  11.943   8.553
 7613POPC   C2B34844   8.403  11.934   8.253
 7613POPC   C3B34845   8.388  11.883   7.953
 7613POPC   C4B34846   8.395  11.899   7.653
 7614POPC   NC334847  16.004   0.445   9.453
 7614POPC   PO434848  15.978   0.456   9.153
 7614POPC   GL134849  15.951   0.467   8.853
 7614POPC   GL234850  15.866   0.537   8.853
 7614POPC   C1A34851  15.975   0.478   8.553
 7614POPC   D2A34852  15.987   0.441   8.253
 7614POPC   C3A34853  15.931   0.460   7.953
 7614POPC   C4A34854  16.005   0.399   7.653
 7614POPC   C1B34855  15.765   0.624   8.553
 7614POPC   C2B34856  15.763   0.613   8.253
 7614POPC   C3B34857  15.719   0.624   7.953
 7614POPC   C4B34858  15.743   0.580   7.653
 7615POPC   NC334859  15.142  44.669   9.453
 7615POPC   PO434860  15.219  44.697   9.153
 7615POPC   GL134861  15.199  44.686   8.853
 7615POPC   GL234862  15.143  44.565   8.853
 7615POPC   C1A34863  15.162  44.635   8.553
 7615POPC   D2A34864  15.220  44.656   8.253
 7615POPC   C3A34865  15.173  44.666   7.953
 7615POPC   C4A34866  15.160  44.695   7.653
 7615POPC   C1B34867  15.015  44.432   8.553
 7615POPC   C2B34868  15.060  44.423   8.253
 7615POPC   C3B34869  14.983  44.512   7.953
 7615POPC   C4B34870  15.029  44.434   7.653
 7616POPC   NC334871  32.260  23.689   9.453
 7616POPC   PO434872  32.285  23.745   9.153
 7616POPC   GL134873  32.262  23.748   8.853
 7616POPC   GL234874  32.160  23.755   8.853
 7616POPC   C1A34875  32.246  23.700   8.553
 7616POPC   D2A34876  32.231  23.671   8.253
 7616POPC   C3A34877  32.259  23.746   7.953
 7616POPC   C4A34878  32.210  23.691   7.653
 7616POPC   C1B34879  31.993  23.741   8.553
 7616POPC   C2B34880  31.950  23.696   8.253
 7616POPC   C3B34881  32.008  23.711   7.953
 7616POPC   C4B34882  31.974  23.750   7.653
 7617POPC   NC334883  33.753   1.231   9.453
 7617POPC   PO434884  33.782   1.235   9.153
 7617POPC   GL134885  33.820   1.260   8.853
 7617POPC   GL234886  33.880   1.162   8.853
 7617POPC   C1A34887  33.775   1.253   8.553
 7617POPC   D2A34888  33.834   1.164   8.253
 7617POPC   C3A34889  33.805   1.201   7.953
 7617POPC   C4A34890  33.797   1.233   7.653
 7617POPC   C1B34891  34.039   1.076   8.553
 7617POPC   C2B34892  34.009   1.066   8.253
 7617POPC   C3B34893  34.041   1.047   7.953
 7617POPC   C4B34894  33.989   1.039   7.653
 7618POPC   NC334895   9.710  26.832   9.453
 7618POPC   PO434896   9.759  26.808   9.153
 7618POPC   GL134897   9.797  26.856   8.853
 7618POPC   GL234898   9.745  26.688   8.853
 7618POPC   C1A34899   9.750  26.818   8.553
 7618POPC   D2A34900   9.743  26.787   8.253
 7618POPC   C3A34901   9.722  26.840   7.953
 7618POPC   C4A34902   9.780  26.867   7.653
 7618POPC   C1B34903   9.840  26.574   8.553
 7618POPC   C2B34904   9.854  26.602   8.253
 7618POPC   C3B34905   9.855  26.607   7.953
 7618POPC   C4B34906   9.851  26.614   7.653
 7619POPC   NC334907   5.878  28.389   9.453
 7619POPC   PO434908   5.880  28.325   9.153
 7619POPC   GL134909   5.884  28.380   8.853
 7619POPC   GL234910   5.893  28.507   8.853
 7619POPC   C1A34911   5.899  28.369   8.553
 7619POPC   D2A34912   5.876  28.417   8.253
 7619POPC   C3A34913   5.876  28.338   7.953
 7619POPC   C4A34914   5.865  28.377   7.653
 7619POPC   C1B34915   5.972  28.608   8.553
 7619POPC   C2B34916   5.964  28.638   8.253
 7619POPC   C3B34917   5.931  28.647   7.953
 7619POPC   C4B34918   5.967  28.582   7.653
 7620POPC   NC334919  29.129  19.054   9.453
 7620POPC   PO434920  29.165  19.051   9.153
 7620POPC   GL134921  29.153  19.082   8.853
 7620POPC   GL234922  29.066  19.112   8.853
 7620POPC   C1A34923  29.152  19.017   8.553
 7620POPC   D2A34924  29.149  19.020   8.253
 7620POPC   C3A34925  29.097  19.083   7.953
 7620POPC   C4A34926  29.117  19.094   7.653
 7620POPC   C1B34927  28.886  19.042   8.553
 7620POPC   C2B34928  28.930  19.081   8.253
 7620POPC   C3B34929  28.858  19.128   7.953
 7620POPC   C4B34930  28.938  19.107   7.653
 7621POPC   NC334931  26.814  17.543   9.453
 7621POPC   PO434932  26.819  17.521   9.153
 7621POPC   GL134933  26.836  17.529   8.853
 7621POPC   GL234934  26.921  17.658   8.853
 7621POPC   C1A34935  26.847  17.469   8.553
 7621POPC   D2A34936  26.770  17.528   8.253
 7621POPC   C3A34937  26.834  17.487   7.953
 7621POPC   C4A34938  26.843  17.545   7.653
 7621POPC   C1B34939  26.970  17.697   8.553
 7621POPC   C2B34940  26.979  17.702   8.253
 7621POPC   C3B34941  26.961  17.715   7.953
 7621POPC   C4B34942  26.967  17.704   7.653
 7622POPC   NC334943  26.071  25.240   9.453
 7622POPC   PO434944  26.082  25.272   9.153
 7622POPC   GL134945  25.994  25.262   8.853
 7622POPC   GL234946  26.017  25.099   8.853
 7622POPC   C1A34947  26.044  25.251   8.553
 7622POPC   D2A34948  26.061  25.252   8.253
 7622POPC   C3A34949  26.010  25.246   7.953
 7622POPC   C4A34950  26.012  25.251   7.653
 7622POPC   C1B34951  26.073  24.988   8.553
 7622POPC   C2B34952  26.033  25.039   8.253
 7622POPC   C3B34953  26.104  24.991   7.953
 7622POPC   C4B34954  26.042  25.046   7.653
 7623POPC   NC334955  22.133   5.878   9.453
 7623POPC   PO434956  22.136   5.908   9.153
 7623POPC   GL134957  22.208   5.869   8.853
 7623POPC   GL234958  22.059   5.923   8.853
 7623POPC   C1A34959  22.210   5.835   8.553
 7623POPC   D2A34960  22.183   5.852   8.253
 7623POPC   C3A34961  22.127   5.829   7.953
 7623POPC   C4A34962  22.171   5.903   7.653
 7623POPC   C1B34963  21.881   5.913   8.553
 7623POPC   C2B34964  21.950   5.888   8.253
 7623POPC   C3B34965  21.938   5.834   7.953
 7623POPC   C4B34966  21.958   5.881   7.653
 7624POPC   NC334967  40.057   1.244   9.453
 7624POPC   PO434968  39.969   1.218   9.153
 7624POPC   GL134969  39.977   1.190   8.853
 7624POPC   GL234970  39.968   1.075   8.853
 7624POPC   C1A34971  39.958   1.221   8.553
 7624POPC   D2A34972  40.035   1.232   8.253
 7624POPC   C3A34973  40.040   1.251   7.953
 7624POPC   C4A34974  40.024   1.224   7.653
 7624POPC   C1B34975  39.860   1.020   8.553
 7624POPC   C2B34976  39.889   0.958   8.253
 7624POPC   C3B34977  39.910   1.045   7.953
 7624POPC   C4B34978  39.897   1.033   7.653
 7625POPC   NC334979  27.617  43.139   9.453
 7625POPC   PO434980  27.544  43.143   9.153
 7625POPC   GL134981  27.584  43.132   8.853
 7625POPC   GL234982  27.587  43.035   8.853
 7625POPC   C1A34983  27.624  43.137   8.553
 7625POPC   D2A34984  27.558  43.123   8.253
 7625POPC   C3A34985  27.594  43.074   7.953
 7625POPC   C4A34986  27.552  43.129   7.653
 7625POPC   C1B34987  27.554  42.866   8.553
 7625POPC   C2B34988  27.616  42.845   8.253
 7625POPC   C3B34989  27.612  42.822   7.953
 7625POPC   C4B34990  27.628  42.864   7.653
 7626POPC   NC334991  19.106  43.934   9.453
 7626POPC   PO434992  19.044  43.906   9.153
 7626POPC   GL134993  19.075  43.854   8.853
 7626POPC   GL234994  19.027  43.722   8.853
 7626POPC   C1A34995  19.047  43.914   8.553
 7626POPC   D2A34996  19.081  43.862   8.253
 7626POPC   C3A34997  19.107  43.878   7.953
 7626POPC   C4A34998  19.033  43.848   7.653
 7626POPC   C1B34999  18.939  43.658   8.553
 7626POPC   C2B35000  18.946  43.658   8.253
 7626POPC   C3B35001  18.922  43.680   7.953
 7626POPC   C4B35002  18.950  43.627   7.653
 7627POPC   NC335003  44.696   6.617   9.453
 7627POPC   PO435004  44.706   6.661   9.153
 7627POPC   GL135005  44.672   6.658   8.853
 7627POPC   GL235006  44.780   6.624   8.853
 7627POPC   C1A35007  44.651   6.643   8.553
 7627POPC   D2A35008  44.636   6.663   8.253
 7627POPC   C3A35009  44.634   6.601   7.953
 7627POPC   C4A35010  44.621   6.670   7.653
 7627POPC   C1B35011  44.873   6.710   8.553
 7627POPC   C2B35012  44.942   6.685   8.253
 7627POPC   C3B35013  44.872   6.680   7.953
 7627POPC   C4B35014  44.906   6.637   7.653
 7628POPC   NC335015  27.555   4.343   9.453
 7628POPC   PO435016  27.597   4.345   9.153
 7628POPC   GL135017  27.543   4.274   8.853
 7628POPC   GL235018  27.642   4.417   8.853
 7628POPC   C1A35019  27.550   4.268   8.553
 7628POPC   D2A35020  27.592   4.297   8.253
 7628POPC   C3A35021  27.591   4.298   7.953
 7628POPC   C4A35022  27.545   4.348   7.653
 7628POPC   C1B35023  27.781   4.455   8.553
 7628POPC   C2B35024  27.788   4.520   8.253
 7628POPC   C3B35025  27.800   4.518   7.953
 7628POPC   C4B35026  27.742   4.438   7.653
 7629POPC   NC335027   1.992  27.553   9.453
 7629POPC   PO435028   1.985  27.597   9.153
 7629POPC   GL135029   2.032  27.556   8.853
 7629POPC   GL235030   2.008  27.506   8.853
 7629POPC   C1A35031   1.951  27.607   8.553
 7629POPC   D2A35032   1.943  27.591   8.253
 7629POPC   C3A35033   1.997  27.640   7.953
 7629POPC   C4A35034   2.006  27.629   7.653
 7629POPC   C1B35035   2.041  27.383   8.553
 7629POPC   C2B35036   2.015  27.336   8.253
 7629POPC   C3B35037   1.959  27.387   7.953
 7629POPC   C4B35038   1.949  27.328   7.653
 7630POPC   NC335039  27.565  27.544   9.453
 7630POPC   PO435040  27.564  27.633   9.153
 7630POPC   GL135041  27.585  27.630   8.853
 7630POPC   GL235042  27.457  27.513   8.853
 7630POPC   C1A35043  27.547  27.569   8.553
 7630POPC   D2A35044  27.575  27.551   8.253
 7630POPC   C3A35045  27.599  27.572   7.953
 7630POPC   C4A35046  27.553  27.552   7.653
 7630POPC   C1B35047  27.332  27.449   8.553
 7630POPC   C2B35048  27.333  27.424   8.253
 7630POPC   C3B35049  27.345  27.493   7.953
 7630POPC   C4B35050  27.430  27.456   7.653
 7631POPC   NC335051  33.059  25.226   9.453
 7631POPC   PO435052  33.065  25.227   9.153
 7631POPC   GL135053  33.060  25.290   8.853
 7631POPC   GL235054  32.979  25.408   8.853
 7631POPC   C1A35055  32.996  25.293   8.553
 7631POPC   D2A35056  32.991  25.252   8.253
 7631POPC   C3A35057  32.991  25.257   7.953
 7631POPC   C4A35058  33.002  25.310   7.653
 7631POPC   C1B35059  32.898  25.528   8.553
 7631POPC   C2B35060  32.983  25.531   8.253
 7631POPC   C3B35061  32.946  25.516   7.953
 7631POPC   C4B35062  32.925  25.530   7.653
 7632POPC   NC335063  24.498  20.569   9.453
 7632POPC   PO435064  24.449  20.627   9.153
 7632POPC   GL135065  24.529  20.646   8.853
 7632POPC   GL235066  24.386  20.676   8.853
 7632POPC   C1A35067  24.535  20.612   8.553
 7632POPC   D2A35068  24.516  20.565   8.253
 7632POPC   C3A35069  24.448  20.627   7.953
 7632POPC   C4A35070  24.499  20.570   7.653
 7632POPC   C1B35071  24.281  20.804   8.553
 7632POPC   C2B35072  24.360  20.755   8.253
 7632POPC   C3B35073  24.344  20.840   7.953
 7632POPC   C4B35074  24.280  20.826   7.653
 7633POPC   NC335075  39.984  14.356   9.453
 7633POPC   PO435076  39.976  14.357   9.153
 7633POPC   GL135077  39.960  14.431   8.853
 7633POPC   GL235078  39.929  14.263   8.853
 7633POPC   C1A35079  40.000  14.425   8.553
 7633POPC   D2A35080  40.039  14.420   8.253
 7633POPC   C3A35081  39.958  14.368   7.953
 7633POPC   C4A35082  40.055  14.406   7.653
 7633POPC   C1B35083  39.948  14.171   8.553
 7633POPC   C2B35084  39.905  14.146   8.253
 7633POPC   C3B35085  39.906  14.177   7.953
 7633POPC   C4B35086  39.994  14.208   7.653
 7634POPC   NC335087  43.852  38.493   9.453
 7634POPC   PO435088  43.929  38.491   9.153
 7634POPC   GL135089  43.863  38.490   8.853
 7634POPC   GL235090  43.791  38.323   8.853
 7634POPC   C1A35091  43.849  38.424   8.553
 7634POPC   D2A35092  43.853  38.420   8.253
 7634POPC   C3A35093  43.892  38.440   7.953
 7634POPC   C4A35094  43.921  38.464   7.653
 7634POPC   C1B35095  43.718  38.290   8.553
 7634POPC   C2B35096  43.762  38.226   8.253
 7634POPC   C3B35097  43.752  38.320   7.953
 7634POPC   C4B35098  43.723  38.307   7.653
 7635POPC   NC335099  36.857  22.129   9.453
 7635POPC   PO435100  36.915  22.172   9.153
 7635POPC   GL135101  36.891  22.159   8.853
 7635POPC   GL235102  36.788  22.072   8.853
 7635POPC   C1A35103  36.854  22.187   8.553
 7635POPC   D2A35104  36.903  22.120   8.253
 7635POPC   C3A35105  36.914  22.191   7.953
 7635POPC   C4A35106  36.912  22.165   7.653
 7635POPC   C1B35107  36.643  22.039   8.553
 7635POPC   C2B35108  36.709  21.996   8.253
 7635POPC   C3B35109  36.706  22.002   7.953
 7635POPC   C4B35110  36.683  22.006   7.653
 7636POPC   NC335111   5.829   5.093   9.453
 7636POPC   PO435112   5.903   5.075   9.153
 7636POPC   GL135113   5.850   5.127   8.853
 7636POPC   GL235114   5.959   5.006   8.853
 7636POPC   C1A35115   5.825   5.079   8.553
 7636POPC   D2A35116   5.899   5.100   8.253
 7636POPC   C3A35117   5.915   5.089   7.953
 7636POPC   C4A35118   5.864   5.086   7.653
 7636POPC   C1B35119   6.144   4.978   8.553
 7636POPC   C2B35120   6.124   4.963   8.253
 7636POPC   C3B35121   6.089   4.952   7.953
 7636POPC   C4B35122   6.124   5.012   7.653
 7637POPC   NC335123   6.636  21.424   9.453
 7637POPC   PO435124   6.659  21.357   9.153
 7637POPC   GL135125   6.671  21.415   8.853
 7637POPC   GL235126   6.599  21.465   8.853
 7637POPC   C1A35127   6.682  21.356   8.553
 7637POPC   D2A35128   6.660  21.389   8.253
 7637POPC   C3A35129   6.680  21.364   7.953
 7637POPC   C4A35130   6.615  21.354   7.653
 7637POPC   C1B35131   6.608  21.638   8.553
 7637POPC   C2B35132   6.660  21.676   8.253
 7637POPC   C3B35133   6.681  21.592   7.953
 7637POPC   C4B35134   6.654  21.597   7.653
 7638POPC   NC335135  34.589  29.945   9.453
 7638POPC   PO435136  34.537  29.966   9.153
 7638POPC   GL135137  34.593  29.962   8.853
 7638POPC   GL235138  34.530  30.005   8.853
 7638POPC   C1A35139  34.579  29.970   8.553
 7638POPC   D2A35140  34.529  29.963   8.253
 7638POPC   C3A35141  34.623  29.919   7.953
 7638POPC   C4A35142  34.625  29.873   7.653
 7638POPC   C1B35143  34.368  30.137   8.553
 7638POPC   C2B35144  34.382  30.079   8.253
 7638POPC   C3B35145  34.455  30.072   7.953
 7638POPC   C4B35146  34.430  30.121   7.653
 7639POPC   NC335147  22.903  34.598   9.453
 7639POPC   PO435148  22.954  34.597   9.153
 7639POPC   GL135149  22.975  34.584   8.853
 7639POPC   GL235150  22.881  34.515   8.853
 7639POPC   C1A35151  22.916  34.531   8.553
 7639POPC   D2A35152  22.928  34.538   8.253
 7639POPC   C3A35153  22.979  34.601   7.953
 7639POPC   C4A35154  22.973  34.556   7.653
 7639POPC   C1B35155  22.745  34.398   8.553
 7639POPC   C2B35156  22.731  34.433   8.253
 7639POPC   C3B35157  22.768  34.349   7.953
 7639POPC   C4B35158  22.789  34.381   7.653
 7640POPC   NC335159  43.897  11.262   9.453
 7640POPC   PO435160  43.837  11.331   9.153
 7640POPC   GL135161  43.880  11.288   8.853
 7640POPC   GL235162  43.970  11.254   8.853
 7640POPC   C1A35163  43.896  11.321   8.553
 7640POPC   D2A35164  43.925  11.277   8.253
 7640POPC   C3A35165  43.903  11.320   7.953
 7640POPC   C4A35166  43.877  11.297   7.653
 7640POPC   C1B35167  44.094  11.145   8.553
 7640POPC   C2B35168  44.082  11.211   8.253
 7640POPC   C3B35169  44.134  11.171   7.953
 7640POPC   C4B35170  44.060  11.224   7.653
 7641POPC   NC335171  41.529  33.795   9.453
 7641POPC   PO435172  41.580  33.798   9.153
 7641POPC   GL135173  41.606  33.761   8.853
 7641POPC   GL235174  41.427  33.718   8.853
 7641POPC   C1A35175  41.582  33.819   8.553
 7641POPC   D2A35176  41.600  33.817   8.253
 7641POPC   C3A35177  41.568  33.763   7.953
 7641POPC   C4A35178  41.550  33.842   7.653
 7641POPC   C1B35179  41.402  33.669   8.553
 7641POPC   C2B35180  41.311  33.644   8.253
 7641POPC   C3B35181  41.363  33.624   7.953
 7641POPC   C4B35182  41.345  33.664   7.653
 7642POPC   NC335183   3.505  22.149   9.453
 7642POPC   PO435184   3.582  22.156   9.153
 7642POPC   GL135185   3.549  22.136   8.853
 7642POPC   GL235186   3.572  22.090   8.853
 7642POPC   C1A35187   3.533  22.192   8.553
 7642POPC   D2A35188   3.497  22.130   8.253
 7642POPC   C3A35189   3.508  22.205   7.953
 7642POPC   C4A35190   3.542  22.196   7.653
 7642POPC   C1B35191   3.630  21.896   8.553
 7642POPC   C2B35192   3.686  21.946   8.253
 7642POPC   C3B35193   3.680  21.903   7.953
 7642POPC   C4B35194   3.600  21.891   7.653
 7643POPC   NC335195  16.772  13.628   9.453
 7643POPC   PO435196  16.737  13.620   9.153
 7643POPC   GL135197  16.681  13.658   8.853
 7643POPC   GL235198  16.698  13.702   8.853
 7643POPC   C1A35199  16.699  13.586   8.553
 7643POPC   D2A35200  16.754  13.626   8.253
 7643POPC   C3A35201  16.740  13.648   7.953
 7643POPC   C4A35202  16.697  13.583   7.653
 7643POPC   C1B35203  16.736  13.833   8.553
 7643POPC   C2B35204  16.735  13.825   8.253
 7643POPC   C3B35205  16.660  13.865   7.953
 7643POPC   C4B35206  16.710  13.894   7.653
 7644POPC   NC335207  22.192   7.388   9.453
 7644POPC   PO435208  22.182   7.395   9.153
 7644POPC   GL135209  22.160   7.440   8.853
 7644POPC   GL235210  22.069   7.298   8.853
 7644POPC   C1A35211  22.161   7.395   8.553
 7644POPC   D2A35212  22.125   7.387   8.253
 7644POPC   C3A35213  22.187   7.406   7.953
 7644POPC   C4A35214  22.120   7.425   7.653
 7644POPC   C1B35215  22.036   7.241   8.553
 7644POPC   C2B35216  22.084   7.173   8.253
 7644POPC   C3B35217  22.082   7.169   7.953
 7644POPC   C4B35218  22.067   7.225   7.653
 7645POPC   NC335219  40.737  39.244   9.453
 7645POPC   PO435220  40.763  39.251   9.153
 7645POPC   GL135221  40.755  39.250   8.853
 7645POPC   GL235222  40.646  39.242   8.853
 7645POPC   C1A35223  40.776  39.191   8.553
 7645POPC   D2A35224  40.806  39.259   8.253
 7645POPC   C3A35225  40.788  39.238   7.953
 7645POPC   C4A35226  40.803  39.228   7.653
 7645POPC   C1B35227  40.549  39.195   8.553
 7645POPC   C2B35228  40.581  39.261   8.253
 7645POPC   C3B35229  40.505  39.212   7.953
 7645POPC   C4B35230  40.528  39.213   7.653
 7646POPC   NC335231  33.056  11.307   9.453
 7646POPC   PO435232  32.976  11.251   9.153
 7646POPC   GL135233  33.000  11.317   8.853
 7646POPC   GL235234  33.129  11.166   8.853
 7646POPC   C1A35235  33.006  11.332   8.553
 7646POPC   D2A35236  33.045  11.334   8.253
 7646POPC   C3A35237  32.981  11.347   7.953
 7646POPC   C4A35238  33.015  11.288   7.653
 7646POPC   C1B35239  33.132  11.098   8.553
 7646POPC   C2B35240  33.167  11.137   8.253
 7646POPC   C3B35241  33.193  11.085   7.953
 7646POPC   C4B35242  33.135  11.126   7.653
 7647POPC   NC335243  22.177  25.223   9.453
 7647POPC   PO435244  22.167  25.277   9.153
 7647POPC   GL135245  22.172  25.291   8.853
 7647POPC   GL235246  21.995  25.246   8.853
 7647POPC   C1A35247  22.204  25.296   8.553
 7647POPC   D2A35248  22.117  25.312   8.253
 7647POPC   C3A35249  22.183  25.235   7.953
 7647POPC   C4A35250  22.182  25.293   7.653
 7647POPC   C1B35251  21.862  25.218   8.553
 7647POPC   C2B35252  21.897  25.286   8.253
 7647POPC   C3B35253  21.864  25.263   7.953
 7647POPC   C4B35254  21.903  25.245   7.653
 7648POPC   NC335255   9.011   9.757   9.453
 7648POPC   PO435256   9.003   9.724   9.153
 7648POPC   GL135257   8.980   9.780   8.853
 7648POPC   GL235258   9.069   9.807   8.853
 7648POPC   C1A35259   8.990   9.766   8.553
 7648POPC   D2A35260   8.951   9.701   8.253
 7648POPC   C3A35261   8.966   9.770   7.953
 7648POPC   C4A35262   9.018   9.769   7.653
 7648POPC   C1B35263   9.248   9.826   8.553
 7648POPC   C2B35264   9.235   9.823   8.253
 7648POPC   C3B35265   9.188   9.820   7.953
 7648POPC   C4B35266   9.240   9.784   7.653
 7649POPC   NC335267   5.092   1.183   9.453
 7649POPC   PO435268   5.138   1.250   9.153
 7649POPC   GL135269   5.091   1.192   8.853
 7649POPC   GL235270   5.093   1.086   8.853
 7649POPC   C1A35271   5.052   1.241   8.553
 7649POPC   D2A35272   5.057   1.167   8.253
 7649POPC   C3A35273   5.119   1.214   7.953
 7649POPC   C4A35274   5.119   1.248   7.653
 7649POPC   C1B35275   5.092   1.014   8.553
 7649POPC   C2B35276   5.126   0.943   8.253
 7649POPC   C3B35277   5.111   0.984   7.953
 7649POPC   C4B35278   5.090   1.001   7.653
 7650POPC   NC335279  26.806  22.983   9.453
 7650POPC   PO435280  26.856  22.910   9.153
 7650POPC   GL135281  26.812  22.936   8.853
 7650POPC   GL235282  26.853  23.014   8.853
 7650POPC   C1A35283  26.803  22.928   8.553
 7650POPC   D2A35284  26.787  22.920   8.253
 7650POPC   C3A35285  26.773  22.921   7.953
 7650POPC   C4A35286  26.799  22.970   7.653
 7650POPC   C1B35287  26.891  23.201   8.553
 7650POPC   C2B35288  26.851  23.205   8.253
 7650POPC   C3B35289  26.920  23.175   7.953
 7650POPC   C4B35290  26.846  23.203   7.653
 7651POPC   NC335291  22.169   4.342   9.453
 7651POPC   PO435292  22.131   4.311   9.153
 7651POPC   GL135293  22.184   4.357   8.853
 7651POPC   GL235294  22.195   4.414   8.853
 7651POPC   C1A35295  22.158   4.315   8.553
 7651POPC   D2A35296  22.155   4.282   8.253
 7651POPC   C3A35297  22.119   4.288   7.953
 7651POPC   C4A35298  22.183   4.287   7.653
 7651POPC   C1B35299  22.192   4.580   8.553
 7651POPC   C2B35300  22.205   4.547   8.253
 7651POPC   C3B35301  22.189   4.529   7.953
 7651POPC   C4B35302  22.210   4.602   7.653
 7652POPC   NC335303   8.925  22.159   9.453
 7652POPC   PO435304   8.978  22.162   9.153
 7652POPC   GL135305   8.982  22.167   8.853
 7652POPC   GL235306   9.051  22.262   8.853
 7652POPC   C1A35307   9.019  22.158   8.553
 7652POPC   D2A35308   8.958  22.210   8.253
 7652POPC   C3A35309   8.973  22.167   7.953
 7652POPC   C4A35310   8.959  22.204   7.653
 7652POPC   C1B35311   9.144  22.311   8.553
 7652POPC   C2B35312   9.117  22.369   8.253
 7652POPC   C3B35313   9.128  22.378   7.953
 7652POPC   C4B35314   9.147  22.310   7.653
 7653POPC   NC335315  40.799   9.770   9.453
 7653POPC   PO435316  40.745   9.726   9.153
 7653POPC   GL135317  40.752   9.712   8.853
 7653POPC   GL235318  40.856   9.724   8.853
 7653POPC   C1A35319  40.741   9.729   8.553
 7653POPC   D2A35320  40.734   9.773   8.253
 7653POPC   C3A35321  40.742   9.798   7.953
 7653POPC   C4A35322  40.750   9.705   7.653
 7653POPC   C1B35323  41.026   9.733   8.553
 7653POPC   C2B35324  41.052   9.648   8.253
 7653POPC   C3B35325  41.001   9.690   7.953
 7653POPC   C4B35326  40.981   9.680   7.653
 7654POPC   NC335327   9.757  37.677   9.453
 7654POPC   PO435328   9.730  37.693   9.153
 7654POPC   GL135329   9.749  37.632   8.853
 7654POPC   GL235330   9.684  37.805   8.853
 7654POPC   C1A35331   9.780  37.630   8.553
 7654POPC   D2A35332   9.758  37.681   8.253
 7654POPC   C3A35333   9.703  37.631   7.953
 7654POPC   C4A35334   9.769  37.725   7.653
 7654POPC   C1B35335   9.663  37.910   8.553
 7654POPC   C2B35336   9.674  37.926   8.253
 7654POPC   C3B35337   9.710  37.928   7.953
 7654POPC   C4B35338   9.699  37.955   7.653
 7655POPC   NC335339   2.802  38.471   9.453
 7655POPC   PO435340   2.756  38.449   9.153
 7655POPC   GL135341   2.814  38.501   8.853
 7655POPC   GL235342   2.894  38.363   8.853
 7655POPC   C1A35343   2.761  38.500   8.553
 7655POPC   D2A35344   2.807  38.425   8.253
 7655POPC   C3A35345   2.723  38.438   7.953
 7655POPC   C4A35346   2.800  38.447   7.653
 7655POPC   C1B35347   2.991  38.307   8.553
 7655POPC   C2B35348   2.995  38.278   8.253
 7655POPC   C3B35349   2.994  38.313   7.953
 7655POPC   C4B35350   2.982  38.333   7.653
 7656POPC   NC335351  42.372  32.245   9.453
 7656POPC   PO435352  42.355  32.253   9.153
 7656POPC   GL135353  42.365  32.210   8.853
 7656POPC   GL235354  42.207  32.160   8.853
 7656POPC   C1A35355  42.318  32.211   8.553
 7656POPC   D2A35356  42.300  32.249   8.253
 7656POPC   C3A35357  42.311  32.230   7.953
 7656POPC   C4A35358  42.297  32.295   7.653
 7656POPC   C1B35359  42.195  32.105   8.553
 7656POPC   C2B35360  42.136  32.078   8.253
 7656POPC   C3B35361  42.166  32.086   7.953
 7656POPC   C4B35362  42.126  32.096   7.653
 7657POPC   NC335363  30.652  29.890   9.453
 7657POPC   PO435364  30.671  29.952   9.153
 7657POPC   GL135365  30.713  29.908   8.853
 7657POPC   GL235366  30.844  29.972   8.853
 7657POPC   C1A35367  30.733  29.878   8.553
 7657POPC   D2A35368  30.729  29.925   8.253
 7657POPC   C3A35369  30.734  29.963   7.953
 7657POPC   C4A35370  30.661  29.886   7.653
 7657POPC   C1B35371  30.880  30.062   8.553
 7657POPC   C2B35372  30.906  30.003   8.253
 7657POPC   C3B35373  30.926  30.036   7.953
 7657POPC   C4B35374  30.944  30.032   7.653
 7658POPC   NC335375   9.751  22.143   9.453
 7658POPC   PO435376   9.707  22.117   9.153
 7658POPC   GL135377   9.780  22.169   8.853
 7658POPC   GL235378   9.917  22.222   8.853
 7658POPC   C1A35379   9.780  22.134   8.553
 7658POPC   D2A35380   9.762  22.178   8.253
 7658POPC   C3A35381   9.774  22.135   7.953
 7658POPC   C4A35382   9.792  22.123   7.653
 7658POPC   C1B35383   9.959  22.202   8.553
 7658POPC   C2B35384   9.969  22.224   8.253
 7658POPC   C3B35385  10.026  22.203   7.953
 7658POPC   C4B35386  10.019  22.226   7.653
 7659POPC   NC335387  36.157  21.388   9.453
 7659POPC   PO435388  36.087  21.349   9.153
 7659POPC   GL135389  36.171  21.359   8.853
 7659POPC   GL235390  36.134  21.473   8.853
 7659POPC   C1A35391  36.126  21.345   8.553
 7659POPC   D2A35392  36.141  21.417   8.253
 7659POPC   C3A35393  36.158  21.365   7.953
 7659POPC   C4A35394  36.102  21.372   7.653
 7659POPC   C1B35395  36.031  21.585   8.553
 7659POPC   C2B35396  36.029  21.609   8.253
 7659POPC   C3B35397  36.075  21.660   7.953
 7659POPC   C4B35398  36.054  21.668   7.653
 7660POPC   NC335399   0.396  31.476   9.453
 7660POPC   PO435400   0.388  31.494   9.153
 7660POPC   GL135401   0.406  31.486   8.853
 7660POPC   GL235402   0.490  31.607   8.853
 7660POPC   C1A35403   0.466  31.426   8.553
 7660POPC   D2A35404   0.483  31.472   8.253
 7660POPC   C3A35405   0.399  31.438   7.953
 7660POPC   C4A35406   0.472  31.492   7.653
 7660POPC   C1B35407   0.616  31.648   8.553
 7660POPC   C2B35408   0.571  31.622   8.253
 7660POPC   C3B35409   0.642  31.624   7.953
 7660POPC   C4B35410   0.609  31.635   7.653
 7661POPC   NC335411  13.656   5.083   9.453
 7661POPC   PO435412  13.613   5.142   9.153
 7661POPC   GL135413  13.639   5.139   8.853
 7661POPC   GL235414  13.489   5.069   8.853
 7661POPC   C1A35415  13.648   5.086   8.553
 7661POPC   D2A35416  13.580   5.104   8.253
 7661POPC   C3A35417  13.677   5.063   7.953
 7661POPC   C4A35418  13.582   5.069   7.653
 7661POPC   C1B35419  13.374   5.074   8.553
 7661POPC   C2B35420  13.349   5.099   8.253
 7661POPC   C3B35421  13.356   5.047   7.953
 7661POPC   C4B35422  13.357   5.079   7.653
 7662POPC   NC335423  23.697   6.674   9.453
 7662POPC   PO435424  23.700   6.600   9.153
 7662POPC   GL135425  23.665   6.609   8.853
 7662POPC   GL235426  23.817   6.606   8.853
 7662POPC   C1A35427  23.692   6.671   8.553
 7662POPC   D2A35428  23.693   6.648   8.253
 7662POPC   C3A35429  23.694   6.638   7.953
 7662POPC   C4A35430  23.749   6.643   7.653
 7662POPC   C1B35431  23.934   6.473   8.553
 7662POPC   C2B35432  23.881   6.451   8.253
 7662POPC   C3B35433  23.912   6.541   7.953
 7662POPC   C4B35434  23.958   6.534   7.653
 7663POPC   NC335435  37.698  14.398   9.453
 7663POPC   PO435436  37.633  14.446   9.153
 7663POPC   GL135437  37.699  14.356   8.853
 7663POPC   GL235438  37.778  14.298   8.853
 7663POPC   C1A35439  37.678  14.425   8.553
 7663POPC   D2A35440  37.655  14.443   8.253
 7663POPC   C3A35441  37.690  14.429   7.953
 7663POPC   C4A35442  37.711  14.429   7.653
 7663POPC   C1B35443  37.782  14.195   8.553
 7663POPC   C2B35444  37.788  14.188   8.253
 7663POPC   C3B35445  37.810  14.207   7.953
 7663POPC   C4B35446  37.846  14.203   7.653
 7664POPC   NC335447  37.688  22.912   9.453
 7664POPC   PO435448  37.683  22.965   9.153
 7664POPC   GL135449  37.702  22.940   8.853
 7664POPC   GL235450  37.700  23.093   8.853
 7664POPC   C1A35451  37.698  22.939   8.553
 7664POPC   D2A35452  37.674  22.897   8.253
 7664POPC   C3A35453  37.650  22.959   7.953
 7664POPC   C4A35454  37.633  22.894   7.653
 7664POPC   C1B35455  37.719  23.208   8.553
 7664POPC   C2B35456  37.725  23.205   8.253
 7664POPC   C3B35457  37.781  23.143   7.953
 7664POPC   C4B35458  37.725  23.196   7.653
 7665POPC   NC335459   0.432  43.118   9.453
 7665POPC   PO435460   0.453  43.088   9.153
 7665POPC   GL135461   0.452  43.061   8.853
 7665POPC   GL235462   0.296  43.023   8.853
 7665POPC   C1A35463   0.433  43.117   8.553
 7665POPC   D2A35464   0.463  43.137   8.253
 7665POPC   C3A35465   0.458  43.125   7.953
 7665POPC   C4A35466   0.478  43.064   7.653
 7665POPC   C1B35467   0.232  43.030   8.553
 7665POPC   C2B35468   0.185  43.027   8.253
 7665POPC   C3B35469   0.227  42.978   7.953
 7665POPC   C4B35470   0.258  43.000   7.653
 7666POPC   NC335471   1.204  36.120   9.453
 7666POPC   PO435472   1.250  36.160   9.153
 7666POPC   GL135473   1.233  36.080   8.853
 7666POPC   GL235474   1.292  36.177   8.853
 7666POPC   C1A35475   1.205  36.150   8.553
 7666POPC   D2A35476   1.215  36.098   8.253
 7666POPC   C3A35477   1.222  36.103   7.953
 7666POPC   C4A35478   1.231  36.172   7.653
 7666POPC   C1B35479   1.407  36.339   8.553
 7666POPC   C2B35480   1.411  36.326   8.253
 7666POPC   C3B35481   1.325  36.327   7.953
 7666POPC   C4B35482   1.410  36.361   7.653
 7667POPC   NC335483  33.011   9.011   9.453
 7667POPC   PO435484  33.035   8.999   9.153
 7667POPC   GL135485  33.019   9.003   8.853
 7667POPC   GL235486  33.068   8.882   8.853
 7667POPC   C1A35487  33.045   8.972   8.553
 7667POPC   D2A35488  32.980   9.020   8.253
 7667POPC   C3A35489  32.974   9.017   7.953
 7667POPC   C4A35490  33.059   8.971   7.653
 7667POPC   C1B35491  33.019   8.673   8.553
 7667POPC   C2B35492  32.986   8.694   8.253
 7667POPC   C3B35493  33.027   8.752   7.953
 7667POPC   C4B35494  33.043   8.737   7.653
 7668POPC   NC335495  29.146   1.943   9.453
 7668POPC   PO435496  29.175   2.027   9.153
 7668POPC   GL135497  29.127   1.959   8.853
 7668POPC   GL235498  29.100   1.925   8.853
 7668POPC   C1A35499  29.137   1.961   8.553
 7668POPC   D2A35500  29.142   1.964   8.253
 7668POPC   C3A35501  29.188   2.004   7.953
 7668POPC   C4A35502  29.184   1.959   7.653
 7668POPC   C1B35503  29.072   1.757   8.553
 7668POPC   C2B35504  29.010   1.788   8.253
 7668POPC   C3B35505  29.026   1.765   7.953
 7668POPC   C4B35506  29.051   1.746   7.653
 7669POPC   NC335507  29.886   2.011   9.453
 7669POPC   PO435508  29.885   1.978   9.153
 7669POPC   GL135509  29.941   1.966   8.853
 7669POPC   GL235510  29.987   2.119   8.853
 7669POPC   C1A35511  29.901   2.017   8.553
 7669POPC   D2A35512  29.934   1.953   8.253
 7669POPC   C3A35513  29.937   1.972   7.953
 7669POPC   C4A35514  29.913   1.976   7.653
 7669POPC   C1B35515  30.107   2.217   8.553
 7669POPC   C2B35516  30.133   2.143   8.253
 7669POPC   C3B35517  30.100   2.148   7.953
 7669POPC   C4B35518  30.112   2.215   7.653
 7670POPC   NC335519   9.716  40.768   9.453
 7670POPC   PO435520   9.711  40.745   9.153
 7670POPC   GL135521   9.738  40.740   8.853
 7670POPC   GL235522   9.873  40.887   8.853
 7670POPC   C1A35523   9.788  40.735   8.553
 7670POPC   D2A35524   9.782  40.776   8.253
 7670POPC   C3A35525   9.754  40.820   7.953
 7670POPC   C4A35526   9.723  40.796   7.653
 7670POPC   C1B35527   9.890  40.925   8.553
 7670POPC   C2B35528   9.928  41.003   8.253
 7670POPC   C3B35529   9.944  40.952   7.953
 7670POPC   C4B35530   9.950  40.913   7.653
 7671POPC   NC335531  18.251  20.654   9.453
 7671POPC   PO435532  18.234  20.622   9.153
 7671POPC   GL135533  18.273  20.634   8.853
 7671POPC   GL235534  18.217  20.679   8.853
 7671POPC   C1A35535  18.305  20.655   8.553
 7671POPC   D2A35536  18.326  20.602   8.253
 7671POPC   C3A35537  18.311  20.613   7.953
 7671POPC   C4A35538  18.307  20.589   7.653
 7671POPC   C1B35539  18.206  20.823   8.553
 7671POPC   C2B35540  18.231  20.800   8.253
 7671POPC   C3B35541  18.172  20.885   7.953
 7671POPC   C4B35542  18.210  20.866   7.653
 7672POPC   NC335543   6.603  19.849   9.453
 7672POPC   PO435544   6.634  19.845   9.153
 7672POPC   GL135545   6.688  19.869   8.853
 7672POPC   GL235546   6.526  19.803   8.853
 7672POPC   C1A35547   6.685  19.847   8.553
 7672POPC   D2A35548   6.686  19.810   8.253
 7672POPC   C3A35549   6.671  19.816   7.953
 7672POPC   C4A35550   6.652  19.823   7.653
 7672POPC   C1B35551   6.412  19.814   8.553
 7672POPC   C2B35552   6.409  19.773   8.253
 7672POPC   C3B35553   6.397  19.813   7.953
 7672POPC   C4B35554   6.353  19.800   7.653
 7673POPC   NC335555   4.362  13.613   9.453
 7673POPC   PO435556   4.335  13.592   9.153
 7673POPC   GL135557   4.277  13.658   8.853
 7673POPC   GL235558   4.337  13.472   8.853
 7673POPC   C1A35559   4.276  13.677   8.553
 7673POPC   D2A35560   4.317  13.582   8.253
 7673POPC   C3A35561   4.342  13.675   7.953
 7673POPC   C4A35562   4.317  13.654   7.653
 7673POPC   C1B35563   4.274  13.335   8.553
 7673POPC   C2B35564   4.352  13.334   8.253
 7673POPC   C3B35565   4.346  13.414   7.953
 7673POPC   C4B35566   4.360  13.425   7.653
 7674POPC   NC335567  44.702  35.386   9.453
 7674POPC   PO435568  44.634  35.359   9.153
 7674POPC   GL135569  44.649  35.302   8.853
 7674POPC   GL235570  44.769  35.303   8.853
 7674POPC   C1A35571  44.663  35.385   8.553
 7674POPC   D2A35572  44.618  35.358   8.253
 7674POPC   C3A35573  44.650  35.315   7.953
 7674POPC   C4A35574  44.697  35.377   7.653
 7674POPC   C1B35575  44.838  35.182   8.553
 7674POPC   C2B35576  44.828  35.135   8.253
 7674POPC   C3B35577  44.878  35.153   7.953
 7674POPC   C4B35578  44.879  35.116   7.653
 7675POPC   NC335579  41.565   3.504   9.453
 7675POPC   PO435580  41.524   3.583   9.153
 7675POPC   GL135581  41.527   3.496   8.853
 7675POPC   GL235582  41.566   3.678   8.853
 7675POPC   C1A35583  41.598   3.542   8.553
 7675POPC   D2A35584  41.596   3.549   8.253
 7675POPC   C3A35585  41.567   3.494   7.953
 7675POPC   C4A35586  41.563   3.534   7.653
 7675POPC   C1B35587  41.597   3.791   8.553
 7675POPC   C2B35588  41.549   3.778   8.253
 7675POPC   C3B35589  41.642   3.747   7.953
 7675POPC   C4B35590  41.568   3.780   7.653
 7676POPC   NC335591  28.362  13.619   9.453
 7676POPC   PO435592  28.366  13.594   9.153
 7676POPC   GL135593  28.322  13.600   8.853
 7676POPC   GL235594  28.241  13.572   8.853
 7676POPC   C1A35595  28.390  13.621   8.553
 7676POPC   D2A35596  28.382  13.609   8.253
 7676POPC   C3A35597  28.405  13.613   7.953
 7676POPC   C4A35598  28.337  13.624   7.653
 7676POPC   C1B35599  28.188  13.469   8.553
 7676POPC   C2B35600  28.141  13.538   8.253
 7676POPC   C3B35601  28.147  13.475   7.953
 7676POPC   C4B35602  28.104  13.470   7.653
 7677POPC   NC335603   5.893  14.400   9.453
 7677POPC   PO435604   5.857  14.385   9.153
 7677POPC   GL135605   5.908  14.368   8.853
 7677POPC   GL235606   5.936  14.303   8.853
 7677POPC   C1A35607   5.898  14.419   8.553
 7677POPC   D2A35608   5.830  14.394   8.253
 7677POPC   C3A35609   5.897  14.441   7.953
 7677POPC   C4A35610   5.836  14.394   7.653
 7677POPC   C1B35611   5.915  14.187   8.553
 7677POPC   C2B35612   5.943  14.132   8.253
 7677POPC   C3B35613   5.875  14.120   7.953
 7677POPC   C4B35614   5.889  14.184   7.653
 7678POPC   NC335615  14.394  15.991   9.453
 7678POPC   PO435616  14.434  15.912   9.153
 7678POPC   GL135617  14.357  15.961   8.853
 7678POPC   GL235618  14.289  15.896   8.853
 7678POPC   C1A35619  14.453  15.965   8.553
 7678POPC   D2A35620  14.371  15.972   8.253
 7678POPC   C3A35621  14.422  16.003   7.953
 7678POPC   C4A35622  14.453  15.940   7.653
 7678POPC   C1B35623  14.222  15.786   8.553
 7678POPC   C2B35624  14.276  15.733   8.253
 7678POPC   C3B35625  14.296  15.762   7.953
 7678POPC   C4B35626  14.213  15.748   7.653
 7679POPC   NC335627  38.502  22.127   9.453
 7679POPC   PO435628  38.444  22.192   9.153
 7679POPC   GL135629  38.414  22.181   8.853
 7679POPC   GL235630  38.552  22.142   8.853
 7679POPC   C1A35631  38.445  22.171   8.553
 7679POPC   D2A35632  38.497  22.129   8.253
 7679POPC   C3A35633  38.468  22.147   7.953
 7679POPC   C4A35634  38.457  22.187   7.653
 7679POPC   C1B35635  38.737  22.185   8.553
 7679POPC   C2B35636  38.716  22.192   8.253
 7679POPC   C3B35637  38.730  22.164   7.953
 7679POPC   C4B35638  38.742  22.181   7.653
 7680POPC   NC335639  32.999   1.996   9.453
 7680POPC   PO435640  33.036   1.975   9.153
 7680POPC   GL135641  33.031   2.024   8.853
 7680POPC   GL235642  33.050   2.099   8.853
 7680POPC   C1A35643  32.990   1.999   8.553
 7680POPC   D2A35644  33.072   1.988   8.253
 7680POPC   C3A35645  32.987   1.944   7.953
 7680POPC   C4A35646  33.016   1.988   7.653
 7680POPC   C1B35647  33.064   2.223   8.553
 7680POPC   C2B35648  33.111   2.236   8.253
 7680POPC   C3B35649  33.073   2.271   7.953
 7680POPC   C4B35650  33.084   2.220   7.653
 7681POPC   NC335651  27.575  15.148   9.453
 7681POPC   PO435652  27.625  15.206   9.153
 7681POPC   GL135653  27.547  15.215   8.853
 7681POPC   GL235654  27.530  15.251   8.853
 7681POPC   C1A35655  27.598  15.178   8.553
 7681POPC   D2A35656  27.632  15.159   8.253
 7681POPC   C3A35657  27.594  15.217   7.953
 7681POPC   C4A35658  27.622  15.170   7.653
 7681POPC   C1B35659  27.511  15.424   8.553
 7681POPC   C2B35660  27.518  15.373   8.253
 7681POPC   C3B35661  27.546  15.424   7.953
 7681POPC   C4B35662  27.483  15.400   7.653
 7682POPC   NC335663   5.851   9.708   9.453
 7682POPC   PO435664   5.909   9.701   9.153
 7682POPC   GL135665   5.891   9.740   8.853
 7682POPC   GL235666   5.827   9.601   8.853
 7682POPC   C1A35667   5.910   9.773   8.553
 7682POPC   D2A35668   5.912   9.710   8.253
 7682POPC   C3A35669   5.852   9.701   7.953
 7682POPC   C4A35670   5.846   9.757   7.653
 7682POPC   C1B35671   5.769   9.519   8.553
 7682POPC   C2B35672   5.729   9.502   8.253
 7682POPC   C3B35673   5.682   9.570   7.953
 7682POPC   C4B35674   5.738   9.510   7.653
 7683POPC   NC335675   2.023  20.639   9.453
 7683POPC   PO435676   2.028  20.561   9.153
 7683POPC   GL135677   1.978  20.564   8.853
 7683POPC   GL235678   1.871  20.591   8.853
 7683POPC   C1A35679   1.942  20.653   8.553
 7683POPC   D2A35680   1.983  20.592   8.253
 7683POPC   C3A35681   1.960  20.598   7.953
 7683POPC   C4A35682   2.015  20.580   7.653
 7683POPC   C1B35683   1.752  20.586   8.553
 7683POPC   C2B35684   1.726  20.635   8.253
 7683POPC   C3B35685   1.703  20.653   7.953
 7683POPC   C4B35686   1.774  20.614   7.653
 7684POPC   NC335687  19.800  15.195   9.453
 7684POPC   PO435688  19.872  15.180   9.153
 7684POPC   GL135689  19.797  15.207   8.853
 7684POPC   GL235690  19.899  15.137   8.853
 7684POPC   C1A35691  19.821  15.176   8.553
 7684POPC   D2A35692  19.803  15.145   8.253
 7684POPC   C3A35693  19.865  15.198   7.953
 7684POPC   C4A35694  19.857  15.150   7.653
 7684POPC   C1B35695  20.013  15.069   8.553
 7684POPC   C2B35696  20.009  15.075   8.253
 7684POPC   C3B35697  20.081  15.046   7.953
 7684POPC   C4B35698  20.021  15.066   7.653
 7685POPC   NC335699  14.438  17.472   9.453
 7685POPC   PO435700  14.452  17.510   9.153
 7685POPC   GL135701  14.358  17.466   8.853
 7685POPC   GL235702  14.370  17.349   8.853
 7685POPC   C1A35703  14.400  17.526   8.553
 7685POPC   D2A35704  14.428  17.499   8.253
 7685POPC   C3A35705  14.411  17.537   7.953
 7685POPC   C4A35706  14.450  17.541   7.653
 7685POPC   C1B35707  14.279  17.230   8.553
 7685POPC   C2B35708  14.346  17.289   8.253
 7685POPC   C3B35709  14.349  17.277   7.953
 7685POPC   C4B35710  14.321  17.318   7.653
 7686POPC   NC335711  10.552  10.498   9.453
 7686POPC   PO435712  10.550  10.479   9.153
 7686POPC   GL135713  10.541  10.515   8.853
 7686POPC   GL235714  10.504  10.679   8.853
 7686POPC   C1A35715  10.504  10.542   8.553
 7686POPC   D2A35716  10.483  10.535   8.253
 7686POPC   C3A35717  10.475  10.518   7.953
 7686POPC   C4A35718  10.524  10.501   7.653
 7686POPC   C1B35719  10.526  10.818   8.553
 7686POPC   C2B35720  10.578  10.798   8.253
 7686POPC   C3B35721  10.533  10.747   7.953
 7686POPC   C4B35722  10.561  10.784   7.653
 7687POPC   NC335723  14.422  41.595   9.453
 7687POPC   PO435724  14.410  41.606   9.153
 7687POPC   GL135725  14.369  41.591   8.853
 7687POPC   GL235726  14.251  41.624   8.853
 7687POPC   C1A35727  14.427  41.563   8.553
 7687POPC   D2A35728  14.378  41.570   8.253
 7687POPC   C3A35729  14.393  41.517   7.953
 7687POPC   C4A35730  14.398  41.603   7.653
 7687POPC   C1B35731  14.229  41.697   8.553
 7687POPC   C2B35732  14.175  41.692   8.253
 7687POPC   C3B35733  14.218  41.709   7.953
 7687POPC   C4B35734  14.236  41.685   7.653
 7688POPC   NC335735   4.359  21.424   9.453
 7688POPC   PO435736   4.268  21.359   9.153
 7688POPC   GL135737   4.317  21.354   8.853
 7688POPC   GL235738   4.368  21.246   8.853
 7688POPC   C1A35739   4.312  21.359   8.553
 7688POPC   D2A35740   4.285  21.429   8.253
 7688POPC   C3A35741   4.305  21.412   7.953
 7688POPC   C4A35742   4.356  21.368   7.653
 7688POPC   C1B35743   4.379  21.153   8.553
 7688POPC   C2B35744   4.372  21.138   8.253
 7688POPC   C3B35745   4.373  21.131   7.953
 7688POPC   C4B35746   4.397  21.174   7.653
 7689POPC   NC335747  41.545  35.368   9.453
 7689POPC   PO435748  41.578  35.368   9.153
 7689POPC   GL135749  41.515  35.312   8.853
 7689POPC   GL235750  41.497  35.212   8.853
 7689POPC   C1A35751  41.542  35.340   8.553
 7689POPC   D2A35752  41.575  35.305   8.253
 7689POPC   C3A35753  41.604  35.328   7.953
 7689POPC   C4A35754  41.578  35.374   7.653
 7689POPC   C1B35755  41.422  35.116   8.553
 7689POPC   C2B35756  41.423  35.179   8.253
 7689POPC   C3B35757  41.440  35.150   7.953
 7689POPC   C4B35758  41.446  35.177   7.653
 7690POPC   NC335759   6.598   1.954   9.453
 7690POPC   PO435760   6.665   1.977   9.153
 7690POPC   GL135761   6.679   1.966   8.853
 7690POPC   GL235762   6.600   1.894   8.853
 7690POPC   C1A35763   6.683   2.027   8.553
 7690POPC   D2A35764   6.656   1.992   8.253
 7690POPC   C3A35765   6.630   1.963   7.953
 7690POPC   C4A35766   6.636   2.021   7.653
 7690POPC   C1B35767   6.457   1.803   8.553
 7690POPC   C2B35768   6.480   1.825   8.253
 7690POPC   C3B35769   6.544   1.823   7.953
 7690POPC   C4B35770   6.497   1.835   7.653
 7691POPC   NC335771  16.760  39.222   9.453
 7691POPC   PO435772  16.752  39.243   9.153
 7691POPC   GL135773  16.718  39.248   8.853
 7691POPC   GL235774  16.658  39.099   8.853
 7691POPC   C1A35775  16.759  39.273   8.553
 7691POPC   D2A35776  16.713  39.189   8.253
 7691POPC   C3A35777  16.725  39.270   7.953
 7691POPC   C4A35778  16.758  39.259   7.653
 7691POPC   C1B35779  16.629  39.041   8.553
 7691POPC   C2B35780  16.593  38.968   8.253
 7691POPC   C3B35781  16.658  38.975   7.953
 7691POPC   C4B35782  16.611  39.011   7.653
 7692POPC   NC335783   4.309  29.124   9.453
 7692POPC   PO435784   4.346  29.112   9.153
 7692POPC   GL135785   4.289  29.181   8.853
 7692POPC   GL235786   4.268  29.191   8.853
 7692POPC   C1A35787   4.357  29.186   8.553
 7692POPC   D2A35788   4.308  29.123   8.253
 7692POPC   C3A35789   4.356  29.173   7.953
 7692POPC   C4A35790   4.345  29.103   7.653
 7692POPC   C1B35791   4.165  29.321   8.553
 7692POPC   C2B35792   4.135  29.353   8.253
 7692POPC   C3B35793   4.180  29.336   7.953
 7692POPC   C4B35794   4.086  29.312   7.653
 7693POPC   NC335795  39.247  40.029   9.453
 7693POPC   PO435796  39.273  40.028   9.153
 7693POPC   GL135797  39.241  40.010   8.853
 7693POPC   GL235798  39.276  40.086   8.853
 7693POPC   C1A35799  39.273  40.029   8.553
 7693POPC   D2A35800  39.186  40.007   8.253
 7693POPC   C3A35801  39.205  39.989   7.953
 7693POPC   C4A35802  39.244  39.975   7.653
 7693POPC   C1B35803  39.404  40.162   8.553
 7693POPC   C2B35804  39.376  40.203   8.253
 7693POPC   C3B35805  39.377  40.169   7.953
 7693POPC   C4B35806  39.413  40.214   7.653
 7694POPC   NC335807  40.750  18.333   9.453
 7694POPC   PO435808  40.772  18.296   9.153
 7694POPC   GL135809  40.833  18.281   8.853
 7694POPC   GL235810  40.726  18.372   8.853
 7694POPC   C1A35811  40.832  18.314   8.553
 7694POPC   D2A35812  40.761  18.276   8.253
 7694POPC   C3A35813  40.784  18.320   7.953
 7694POPC   C4A35814  40.766  18.265   7.653
 7694POPC   C1B35815  40.655  18.453   8.553
 7694POPC   C2B35816  40.614  18.481   8.253
 7694POPC   C3B35817  40.664  18.467   7.953
 7694POPC   C4B35818  40.617  18.426   7.653
 7695POPC   NC335819   7.416  12.841   9.453
 7695POPC   PO435820   7.405  12.862   9.153
 7695POPC   GL135821   7.415  12.868   8.853
 7695POPC   GL235822   7.383  12.746   8.853
 7695POPC   C1A35823   7.393  12.820   8.553
 7695POPC   D2A35824   7.451  12.872   8.253
 7695POPC   C3A35825   7.416  12.900   7.953
 7695POPC   C4A35826   7.434  12.863   7.653
 7695POPC   C1B35827   7.384  12.563   8.553
 7695POPC   C2B35828   7.367  12.620   8.253
 7695POPC   C3B35829   7.404  12.640   7.953
 7695POPC   C4B35830   7.392  12.630   7.653
 7696POPC   NC335831  37.692  41.599   9.453
 7696POPC   PO435832  37.713  41.555   9.153
 7696POPC   GL135833  37.717  41.536   8.853
 7696POPC   GL235834  37.634  41.633   8.853
 7696POPC   C1A35835  37.659  41.525   8.553
 7696POPC   D2A35836  37.697  41.578   8.253
 7696POPC   C3A35837  37.701  41.582   7.953
 7696POPC   C4A35838  37.636  41.510   7.653
 7696POPC   C1B35839  37.620  41.809   8.553
 7696POPC   C2B35840  37.567  41.790   8.253
 7696POPC   C3B35841  37.549  41.799   7.953
 7696POPC   C4B35842  37.630  41.784   7.653
 7697POPC   NC335843  26.023  40.790   9.453
 7697POPC   PO435844  26.076  40.822   9.153
 7697POPC   GL135845  26.069  40.761   8.853
 7697POPC   GL235846  26.049  40.945   8.853
 7697POPC   C1A35847  26.053  40.736   8.553
 7697POPC   D2A35848  25.998  40.795   8.253
 7697POPC   C3A35849  26.004  40.750   7.953
 7697POPC   C4A35850  26.042  40.813   7.653
 7697POPC   C1B35851  25.944  41.006   8.553
 7697POPC   C2B35852  25.981  41.063   8.253
 7697POPC   C3B35853  25.941  41.060   7.953
 7697POPC   C4B35854  25.939  41.034   7.653
 7698POPC   NC335855   9.730  33.788   9.453
 7698POPC   PO435856   9.789  33.817   9.153
 7698POPC   GL135857   9.793  33.818   8.853
 7698POPC   GL235858   9.874  33.749   8.853
 7698POPC   C1A35859   9.708  33.821   8.553
 7698POPC   D2A35860   9.731  33.833   8.253
 7698POPC   C3A35861   9.703  33.837   7.953
 7698POPC   C4A35862   9.779  33.758   7.653
 7698POPC   C1B35863   9.897  33.599   8.553
 7698POPC   C2B35864   9.976  33.630   8.253
 7698POPC   C3B35865   9.941  33.630   7.953
 7698POPC   C4B35866   9.885  33.626   7.653
 7699POPC   NC335867  40.025  40.035   9.453
 7699POPC   PO435868  39.971  40.034   9.153
 7699POPC   GL135869  39.995  40.029   8.853
 7699POPC   GL235870  39.833  39.969   8.853
 7699POPC   C1A35871  40.022  40.007   8.553
 7699POPC   D2A35872  39.996  40.025   8.253
 7699POPC   C3A35873  40.007  39.958   7.953
 7699POPC   C4A35874  40.030  40.019   7.653
 7699POPC   C1B35875  39.747  39.983   8.553
 7699POPC   C2B35876  39.743  40.034   8.253
 7699POPC   C3B35877  39.750  40.003   7.953
 7699POPC   C4B35878  39.735  40.047   7.653
 7700POPC   NC335879  40.744  40.016   9.453
 7700POPC   PO435880  40.755  39.977   9.153
 7700POPC   GL135881  40.793  40.015   8.853
 7700POPC   GL235882  40.888  40.063   8.853
 7700POPC   C1A35883  40.807  39.983   8.553
 7700POPC   D2A35884  40.753  39.984   8.253
 7700POPC   C3A35885  40.818  40.023   7.953
 7700POPC   C4A35886  40.740  40.055   7.653
 7700POPC   C1B35887  41.030  39.976   8.553
 7700POPC   C2B35888  41.076  39.974   8.253
 7700POPC   C3B35889  41.020  40.031   7.953
 7700POPC   C4B35890  41.025  40.066   7.653
 7701POPC   NC335891  42.344  36.873   9.453
 7701POPC   PO435892  42.383  36.904   9.153
 7701POPC   GL135893  42.351  36.913   8.853
 7701POPC   GL235894  42.442  36.871   8.853
 7701POPC   C1A35895  42.378  36.897   8.553
 7701POPC   D2A35896  42.361  36.887   8.253
 7701POPC   C3A35897  42.322  36.892   7.953
 7701POPC   C4A35898  42.303  36.938   7.653
 7701POPC   C1B35899  42.527  36.741   8.553
 7701POPC   C2B35900  42.590  36.803   8.253
 7701POPC   C3B35901  42.562  36.750   7.953
 7701POPC   C4B35902  42.567  36.729   7.653
 7702POPC   NC335903   8.151  14.366   9.453
 7702POPC   PO435904   8.211  14.390   9.153
 7702POPC   GL135905   8.157  14.445   8.853
 7702POPC   GL235906   8.351  14.450   8.853
 7702POPC   C1A35907   8.222  14.374   8.553
 7702POPC   D2A35908   8.175  14.380   8.253
 7702POPC   C3A35909   8.228  14.378   7.953
 7702POPC   C4A35910   8.212  14.358   7.653
 7702POPC   C1B35911   8.413  14.523   8.553
 7702POPC   C2B35912   8.451  14.486   8.253
 7702POPC   C3B35913   8.414  14.485   7.953
 7702POPC   C4B35914   8.450  14.519   7.653
 7703POPC   NC335915  39.222  31.424   9.453
 7703POPC   PO435916  39.274  31.425   9.153
 7703POPC   GL135917  39.239  31.491   8.853
 7703POPC   GL235918  39.109  31.404   8.853
 7703POPC   C1A35919  39.207  31.484   8.553
 7703POPC   D2A35920  39.183  31.429   8.253
 7703POPC   C3A35921  39.277  31.476   7.953
 7703POPC   C4A35922  39.232  31.434   7.653
 7703POPC   C1B35923  38.983  31.413   8.553
 7703POPC   C2B35924  38.993  31.365   8.253
 7703POPC   C3B35925  39.037  31.401   7.953
 7703POPC   C4B35926  39.009  31.431   7.653
 7704POPC   NC335927  12.829  42.382   9.453
 7704POPC   PO435928  12.886  42.308   9.153
 7704POPC   GL135929  12.809  42.311   8.853
 7704POPC   GL235930  12.975  42.246   8.853
 7704POPC   C1A35931  12.826  42.325   8.553
 7704POPC   D2A35932  12.864  42.334   8.253
 7704POPC   C3A35933  12.814  42.292   7.953
 7704POPC   C4A35934  12.877  42.314   7.653
 7704POPC   C1B35935  13.004  42.132   8.553
 7704POPC   C2B35936  13.038  42.183   8.253
 7704POPC   C3B35937  13.039  42.182   7.953
 7704POPC   C4B35938  13.094  42.142   7.653
 7705POPC   NC335939  22.922  43.145   9.453
 7705POPC   PO435940  22.911  43.156   9.153
 7705POPC   GL135941  22.957  43.078   8.853
 7705POPC   GL235942  22.937  42.960   8.853
 7705POPC   C1A35943  22.909  43.087   8.553
 7705POPC   D2A35944  22.935  43.070   8.253
 7705POPC   C3A35945  22.890  43.096   7.953
 7705POPC   C4A35946  22.940  43.139   7.653
 7705POPC   C1B35947  22.854  42.837   8.553
 7705POPC   C2B35948  22.870  42.891   8.253
 7705POPC   C3B35949  22.906  42.824   7.953
 7705POPC   C4B35950  22.858  42.898   7.653
 7706POPC   NC335951  14.420  36.078   9.453
 7706POPC   PO435952  14.395  36.102   9.153
 7706POPC   GL135953  14.449  36.089   8.853
 7706POPC   GL235954  14.326  36.229   8.853
 7706POPC   C1A35955  14.359  36.131   8.553
 7706POPC   D2A35956  14.436  36.151   8.253
 7706POPC   C3A35957  14.422  36.162   7.953
 7706POPC   C4A35958  14.372  36.146   7.653
 7706POPC   C1B35959  14.318  36.347   8.553
 7706POPC   C2B35960  14.334  36.394   8.253
 7706POPC   C3B35961  14.272  36.373   7.953
 7706POPC   C4B35962  14.276  36.327   7.653
 7707POPC   NC335963   6.608  38.412   9.453
 7707POPC   PO435964   6.672  38.459   9.153
 7707POPC   GL135965   6.641  38.478   8.853
 7707POPC   GL235966   6.615  38.551   8.853
 7707POPC   C1A35967   6.678  38.415   8.553
 7707POPC   D2A35968   6.608  38.470   8.253
 7707POPC   C3A35969   6.670  38.433   7.953
 7707POPC   C4A35970   6.615  38.444   7.653
 7707POPC   C1B35971   6.697  38.691   8.553
 7707POPC   C2B35972   6.685  38.743   8.253
 7707POPC   C3B35973   6.676  38.744   7.953
 7707POPC   C4B35974   6.691  38.734   7.653
 7708POPC   NC335975   0.486   5.136   9.453
 7708POPC   PO435976   0.467   5.071   9.153
 7708POPC   GL135977   0.390   5.101   8.853
 7708POPC   GL235978   0.503   4.937   8.853
 7708POPC   C1A35979   0.417   5.091   8.553
 7708POPC   D2A35980   0.415   5.126   8.253
 7708POPC   C3A35981   0.448   5.109   7.953
 7708POPC   C4A35982   0.415   5.106   7.653
 7708POPC   C1B35983   0.504   4.907   8.553
 7708POPC   C2B35984   0.577   4.832   8.253
 7708POPC   C3B35985   0.575   4.858   7.953
 7708POPC   C4B35986   0.547   4.861   7.653
 7709POPC   NC335987   8.245  32.215   9.453
 7709POPC   PO435988   8.214  32.266   9.153
 7709POPC   GL135989   8.224  32.231   8.853
 7709POPC   GL235990   8.315  32.196   8.853
 7709POPC   C1A35991   8.164  32.296   8.553
 7709POPC   D2A35992   8.196  32.201   8.253
 7709POPC   C3A35993   8.181  32.262   7.953
 7709POPC   C4A35994   8.156  32.210   7.653
 7709POPC   C1B35995   8.347  32.056   8.553
 7709POPC   C2B35996   8.356  32.102   8.253
 7709POPC   C3B35997   8.409  32.060   7.953
 7709POPC   C4B35998   8.390  32.053   7.653
 7710POPC   NC335999  27.579  22.205   9.453
 7710POPC   PO436000  27.598  22.180   9.153
 7710POPC   GL136001  27.553  22.127   8.853
 7710POPC   GL236002  27.546  22.022   8.853
 7710POPC   C1A36003  27.627  22.190   8.553
 7710POPC   D2A36004  27.635  22.158   8.253
 7710POPC   C3A36005  27.620  22.173   7.953
 7710POPC   C4A36006  27.572  22.187   7.653
 7710POPC   C1B36007  27.440  21.953   8.553
 7710POPC   C2B36008  27.468  21.962   8.253
 7710POPC   C3B36009  27.444  21.989   7.953
 7710POPC   C4B36010  27.433  21.914   7.653
 7711POPC   NC336011   2.783   5.137   9.453
 7711POPC   PO436012   2.789   5.112   9.153
 7711POPC   GL136013   2.797   5.055   8.853
 7711POPC   GL236014   2.750   5.200   8.853
 7711POPC   C1A36015   2.804   5.069   8.553
 7711POPC   D2A36016   2.815   5.139   8.253
 7711POPC   C3A36017   2.812   5.125   7.953
 7711POPC   C4A36018   2.743   5.117   7.653
 7711POPC   C1B36019   2.701   5.334   8.553
 7711POPC   C2B36020   2.701   5.344   8.253
 7711POPC   C3B36021   2.748   5.375   7.953
 7711POPC   C4B36022   2.692   5.384   7.653
 7712POPC   NC336023  42.379  40.808   9.453
 7712POPC   PO436024  42.352  40.763   9.153
 7712POPC   GL136025  42.368  40.753   8.853
 7712POPC   GL236026  42.275  40.743   8.853
 7712POPC   C1A36027  42.363  40.742   8.553
 7712POPC   D2A36028  42.365  40.783   8.253
 7712POPC   C3A36029  42.338  40.818   7.953
 7712POPC   C4A36030  42.294  40.772   7.653
 7712POPC   C1B36031  42.168  40.630   8.553
 7712POPC   C2B36032  42.141  40.608   8.253
 7712POPC   C3B36033  42.107  40.638   7.953
 7712POPC   C4B36034  42.134  40.653   7.653
 7713POPC   NC336035  26.859  12.034   9.453
 7713POPC   PO436036  26.816  12.094   9.153
 7713POPC   GL136037  26.840  12.107   8.853
 7713POPC   GL236038  26.763  12.202   8.853
 7713POPC   C1A36039  26.849  12.090   8.553
 7713POPC   D2A36040  26.812  12.124   8.253
 7713POPC   C3A36041  26.788  12.111   7.953
 7713POPC   C4A36042  26.817  12.037   7.653
 7713POPC   C1B36043  26.822  12.366   8.553
 7713POPC   C2B36044  26.750  12.336   8.253
 7713POPC   C3B36045  26.816  12.350   7.953
 7713POPC   C4B36046  26.773  12.285   7.653
 7714POPC   NC336047   1.971  15.967   9.453
 7714POPC   PO436048   2.017  15.947   9.153
 7714POPC   GL136049   2.032  15.926   8.853
 7714POPC   GL236050   2.038  15.888   8.853
 7714POPC   C1A36051   2.012  15.977   8.553
 7714POPC   D2A36052   1.961  15.984   8.253
 7714POPC   C3A36053   1.999  15.958   7.953
 7714POPC   C4A36054   1.944  15.940   7.653
 7714POPC   C1B36055   2.138  15.706   8.553
 7714POPC   C2B36056   2.097  15.715   8.253
 7714POPC   C3B36057   2.112  15.711   7.953
 7714POPC   C4B36058   2.097  15.772   7.653
 7715POPC   NC336059   0.429   2.746   9.453
 7715POPC   PO436060   0.475   2.744   9.153
 7715POPC   GL136061   0.391   2.779   8.853
 7715POPC   GL236062   0.570   2.736   8.853
 7715POPC   C1A36063   0.474   2.762   8.553
 7715POPC   D2A36064   0.448   2.790   8.253
 7715POPC   C3A36065   0.434   2.811   7.953
 7715POPC   C4A36066   0.480   2.774   7.653
 7715POPC   C1B36067   0.675   2.833   8.553
 7715POPC   C2B36068   0.640   2.835   8.253
 7715POPC   C3B36069   0.640   2.759   7.953
 7715POPC   C4B36070   0.718   2.801   7.653
 7716POPC   NC336071   9.775  43.880   9.453
 7716POPC   PO436072   9.746  43.935   9.153
 7716POPC   GL136073   9.707  43.908   8.853
 7716POPC   GL236074   9.687  43.778   8.853
 7716POPC   C1A36075   9.706  43.930   8.553
 7716POPC   D2A36076   9.747  43.856   8.253
 7716POPC   C3A36077   9.735  43.894   7.953
 7716POPC   C4A36078   9.738  43.920   7.653
 7716POPC   C1B36079   9.539  43.701   8.553
 7716POPC   C2B36080   9.541  43.790   8.253
 7716POPC   C3B36081   9.499  43.727   7.953
 7716POPC   C4B36082   9.513  43.762   7.653
 7717POPC   NC336083   3.517   6.679   9.453
 7717POPC   PO436084   3.511   6.689   9.153
 7717POPC   GL136085   3.556   6.656   8.853
 7717POPC   GL236086   3.614   6.575   8.853
 7717POPC   C1A36087   3.516   6.693   8.553
 7717POPC   D2A36088   3.582   6.657   8.253
 7717POPC   C3A36089   3.522   6.683   7.953
 7717POPC   C4A36090   3.537   6.675   7.653
 7717POPC   C1B36091   3.714   6.465   8.553
 7717POPC   C2B36092   3.671   6.430   8.253
 7717POPC   C3B36093   3.688   6.463   7.953
 7717POPC   C4B36094   3.700   6.488   7.653
 7718POPC   NC336095  16.711  27.619   9.453
 7718POPC   PO436096  16.717  27.562   9.153
 7718POPC   GL136097  16.774  27.611   8.853
 7718POPC   GL236098  16.826  27.657   8.853
 7718POPC   C1A36099  16.760  27.609   8.553
 7718POPC   D2A36100  16.733  27.555   8.253
 7718POPC   C3A36101  16.766  27.578   7.953
 7718POPC   C4A36102  16.781  27.621   7.653
 7718POPC   C1B36103  16.946  27.597   8.553
 7718POPC   C2B36104  17.017  27.588   8.253
 7718POPC   C3B36105  17.009  27.636   7.953
 7718POPC   C4B36106  16.970  27.586   7.653
 7719POPC   NC336107  32.234  34.616   9.453
 7719POPC   PO436108  32.297  34.544   9.153
 7719POPC   GL136109  32.213  34.612   8.853
 7719POPC   GL236110  32.171  34.452   8.853
 7719POPC   C1A36111  32.278  34.618   8.553
 7719POPC   D2A36112  32.223  34.621   8.253
 7719POPC   C3A36113  32.248  34.571   7.953
 7719POPC   C4A36114  32.282  34.539   7.653
 7719POPC   C1B36115  32.061  34.393   8.553
 7719POPC   C2B36116  32.056  34.400   8.253
 7719POPC   C3B36117  32.050  34.437   7.953
 7719POPC   C4B36118  32.066  34.393   7.653
 7720POPC   NC336119   1.206  15.925   9.453
 7720POPC   PO436120   1.244  15.985   9.153
 7720POPC   GL136121   1.222  15.985   8.853
 7720POPC   GL236122   1.319  15.942   8.853
 7720POPC   C1A36123   1.223  15.973   8.553
 7720POPC   D2A36124   1.244  15.988   8.253
 7720POPC   C3A36125   1.175  15.946   7.953
 7720POPC   C4A36126   1.255  15.980   7.653
 7720POPC   C1B36127   1.476  15.902   8.553
 7720POPC   C2B36128   1.448  15.911   8.253
 7720POPC   C3B36129   1.500  15.893   7.953
 7720POPC   C4B36130   1.417  15.941   7.653
 7721POPC   NC336131   8.181  35.346   9.453
 7721POPC   PO436132   8.150  35.313   9.153
 7721POPC   GL136133   8.148  35.304   8.853
 7721POPC   GL236134   8.182  35.259   8.853
 7721POPC   C1A36135   8.211  35.370   8.553
 7721POPC   D2A36136   8.163  35.392   8.253
 7721POPC   C3A36137   8.178  35.375   7.953
 7721POPC   C4A36138   8.173  35.341   7.653
 7721POPC   C1B36139   8.182  35.061   8.553
 7721POPC   C2B36140   8.155  35.115   8.253
 7721POPC   C3B36141   8.183  35.085   7.953
 7721POPC   C4B36142   8.129  35.120   7.653
 7722POPC   NC336143   8.151  33.822   9.453
 7722POPC   PO436144   8.200  33.846   9.153
 7722POPC   GL136145   8.190  33.844   8.853
 7722POPC   GL236146   8.213  33.657   8.853
 7722POPC   C1A36147   8.177  33.838   8.553
 7722POPC   D2A36148   8.180  33.811   8.253
 7722POPC   C3A36149   8.189  33.795   7.953
 7722POPC   C4A36150   8.183  33.803   7.653
 7722POPC   C1B36151   8.319  33.574   8.553
 7722POPC   C2B36152   8.284  33.605   8.253
 7722POPC   C3B36153   8.343  33.564   7.953
 7722POPC   C4B36154   8.333  33.553   7.653
 7723POPC   NC336155  43.913  14.412   9.453
 7723POPC   PO436156  43.918  14.430   9.153
 7723POPC   GL136157  43.911  14.436   8.853
 7723POPC   GL236158  43.897  14.518   8.853
 7723POPC   C1A36159  43.925  14.387   8.553
 7723POPC   D2A36160  43.873  14.448   8.253
 7723POPC   C3A36161  43.851  14.381   7.953
 7723POPC   C4A36162  43.899  14.376   7.653
 7723POPC   C1B36163  43.933  14.674   8.553
 7723POPC   C2B36164  43.937  14.622   8.253
 7723POPC   C3B36165  43.967  14.659   7.953
 7723POPC   C4B36166  44.000  14.663   7.653
 7724POPC   NC336167  31.432  19.049   9.453
 7724POPC   PO436168  31.431  19.042   9.153
 7724POPC   GL136169  31.460  19.100   8.853
 7724POPC   GL236170  31.478  18.899   8.853
 7724POPC   C1A36171  31.522  19.023   8.553
 7724POPC   D2A36172  31.492  19.035   8.253
 7724POPC   C3A36173  31.459  19.073   7.953
 7724POPC   C4A36174  31.500  19.081   7.653
 7724POPC   C1B36175  31.409  18.787   8.553
 7724POPC   C2B36176  31.465  18.811   8.253
 7724POPC   C3B36177  31.482  18.844   7.953
 7724POPC   C4B36178  31.446  18.771   7.653
 7725POPC   NC336179  10.572  36.108   9.453
 7725POPC   PO436180  10.480  36.088   9.153
 7725POPC   GL136181  10.493  36.177   8.853
 7725POPC   GL236182  10.550  36.048   8.853
 7725POPC   C1A36183  10.498  36.125   8.553
 7725POPC   D2A36184  10.566  36.108   8.253
 7725POPC   C3A36185  10.496  36.127   7.953
 7725POPC   C4A36186  10.480  36.116   7.653
 7725POPC   C1B36187  10.606  35.903   8.553
 7725POPC   C2B36188  10.549  35.878   8.253
 7725POPC   C3B36189  10.634  35.848   7.953
 7725POPC   C4B36190  10.624  35.912   7.653
 7726POPC   NC336191  42.301  37.690   9.453
 7726POPC   PO436192  42.297  37.654   9.153
 7726POPC   GL136193  42.380  37.641   8.853
 7726POPC   GL236194  42.198  37.711   8.853
 7726POPC   C1A36195  42.363  37.703   8.553
 7726POPC   D2A36196  42.350  37.683   8.253
 7726POPC   C3A36197  42.290  37.694   7.953
 7726POPC   C4A36198  42.355  37.649   7.653
 7726POPC   C1B36199  42.099  37.802   8.553
 7726POPC   C2B36200  42.184  37.836   8.253
 7726POPC   C3B36201  42.185  37.843   7.953
 7726POPC   C4B36202  42.104  37.798   7.653
 7727POPC   NC336203  42.347  29.877   9.453
 7727POPC   PO436204  42.340  29.915   9.153
 7727POPC   GL136205  42.319  29.952   8.853
 7727POPC   GL236206  42.425  29.967   8.853
 7727POPC   C1A36207  42.291  29.910   8.553
 7727POPC   D2A36208  42.342  29.918   8.253
 7727POPC   C3A36209  42.312  29.899   7.953
 7727POPC   C4A36210  42.346  29.963   7.653
 7727POPC   C1B36211  42.496  30.073   8.553
 7727POPC   C2B36212  42.491  30.057   8.253
 7727POPC   C3B36213  42.559  30.025   7.953
 7727POPC   C4B36214  42.567  30.092   7.653
 7728POPC   NC336215   1.956  36.096   9.453
 7728POPC   PO436216   2.015  36.098   9.153
 7728POPC   GL136217   2.015  36.169   8.853
 7728POPC   GL236218   1.916  36.041   8.853
 7728POPC   C1A36219   2.034  36.131   8.553
 7728POPC   D2A36220   2.015  36.104   8.253
 7728POPC   C3A36221   1.950  36.144   7.953
 7728POPC   C4A36222   2.005  36.156   7.653
 7728POPC   C1B36223   1.806  35.913   8.553
 7728POPC   C2B36224   1.812  35.898   8.253
 7728POPC   C3B36225   1.857  35.916   7.953
 7728POPC   C4B36226   1.833  35.903   7.653
 7729POPC   NC336227  29.925  33.061   9.453
 7729POPC   PO436228  29.882  33.039   9.153
 7729POPC   GL136229  29.919  33.018   8.853
 7729POPC   GL236230  29.891  32.935   8.853
 7729POPC   C1A36231  29.931  32.989   8.553
 7729POPC   D2A36232  29.941  33.071   8.253
 7729POPC   C3A36233  29.923  33.005   7.953
 7729POPC   C4A36234  29.893  33.013   7.653
 7729POPC   C1B36235  29.855  32.757   8.553
 7729POPC   C2B36236  29.936  32.771   8.253
 7729POPC   C3B36237  29.873  32.808   7.953
 7729POPC   C4B36238  29.845  32.790   7.653
 7730POPC   NC336239  16.772  19.836   9.453
 7730POPC   PO436240  16.715  19.838   9.153
 7730POPC   GL136241  16.767  19.794   8.853
 7730POPC   GL236242  16.776  19.915   8.853
 7730POPC   C1A36243  16.687  19.793   8.553
 7730POPC   D2A36244  16.727  19.842   8.253
 7730POPC   C3A36245  16.698  19.801   7.953
 7730POPC   C4A36246  16.771  19.790   7.653
 7730POPC   C1B36247  16.855  20.055   8.553
 7730POPC   C2B36248  16.792  20.103   8.253
 7730POPC   C3B36249  16.836  20.045   7.953
 7730POPC   C4B36250  16.762  20.051   7.653
 7731POPC   NC336251  39.219  15.957   9.453
 7731POPC   PO436252  39.242  16.004   9.153
 7731POPC   GL136253  39.191  15.996   8.853
 7731POPC   GL236254  39.124  16.011   8.853
 7731POPC   C1A36255  39.202  15.913   8.553
 7731POPC   D2A36256  39.236  15.995   8.253
 7731POPC   C3A36257  39.254  15.982   7.953
 7731POPC   C4A36258  39.247  15.910   7.653
 7731POPC   C1B36259  39.047  16.036   8.553
 7731POPC   C2B36260  38.956  16.053   8.253
 7731POPC   C3B36261  38.987  16.008   7.953
 7731POPC   C4B36262  38.953  16.075   7.653
 7732POPC   NC336263  32.208   0.440   9.453
 7732POPC   PO436264  32.260   0.472   9.153
 7732POPC   GL136265  32.277   0.442   8.853
 7732POPC   GL236266  32.199   0.294   8.853
 7732POPC   C1A36267  32.271   0.418   8.553
 7732POPC   D2A36268  32.233   0.461   8.253
 7732POPC   C3A36269  32.272   0.426   7.953
 7732POPC   C4A36270  32.235   0.440   7.653
 7732POPC   C1B36271  32.259   0.206   8.553
 7732POPC   C2B36272  32.234   0.229   8.253
 7732POPC   C3B36273  32.273   0.217   7.953
 7732POPC   C4B36274  32.214   0.217   7.653
 7733POPC   NC336275  25.253  12.880   9.453
 7733POPC   PO436276  25.313  12.888   9.153
 7733POPC   GL136277  25.263  12.883   8.853
 7733POPC   GL236278  25.382  12.949   8.853
 7733POPC   C1A36279  25.268  12.853   8.553
 7733POPC   D2A36280  25.263  12.815   8.253
 7733POPC   C3A36281  25.285  12.818   7.953
 7733POPC   C4A36282  25.294  12.875   7.653
 7733POPC   C1B36283  25.444  12.981   8.553
 7733POPC   C2B36284  25.457  13.012   8.253
 7733POPC   C3B36285  25.448  12.990   7.953
 7733POPC   C4B36286  25.409  13.036   7.653
 7734POPC   NC336287  20.650  27.629   9.453
 7734POPC   PO436288  20.592  27.630   9.153
 7734POPC   GL136289  20.597  27.579   8.853
 7734POPC   GL236290  20.749  27.574   8.853
 7734POPC   C1A36291  20.639  27.564   8.553
 7734POPC   D2A36292  20.622  27.558   8.253
 7734POPC   C3A36293  20.631  27.626   7.953
 7734POPC   C4A36294  20.599  27.624   7.653
 7734POPC   C1B36295  20.857  27.611   8.553
 7734POPC   C2B36296  20.901  27.605   8.253
 7734POPC   C3B36297  20.833  27.657   7.953
 7734POPC   C4B36298  20.848  27.699   7.653
 7735POPC   NC336299  20.590  43.116   9.453
 7735POPC   PO436300  20.608  43.084   9.153
 7735POPC   GL136301  20.613  43.090   8.853
 7735POPC   GL236302  20.709  43.211   8.853
 7735POPC   C1A36303  20.562  43.081   8.553
 7735POPC   D2A36304  20.618  43.103   8.253
 7735POPC   C3A36305  20.620  43.077   7.953
 7735POPC   C4A36306  20.641  43.084   7.653
 7735POPC   C1B36307  20.803  43.272   8.553
 7735POPC   C2B36308  20.769  43.312   8.253
 7735POPC   C3B36309  20.711  43.311   7.953
 7735POPC   C4B36310  20.803  43.323   7.653
 7736POPC   NC336311  17.471  41.607   9.453
 7736POPC   PO436312  17.540  41.515   9.153
 7736POPC   GL136313  17.502  41.595   8.853
 7736POPC   GL236314  17.641  41.498   8.853
 7736POPC   C1A36315  17.457  41.584   8.553
 7736POPC   D2A36316  17.500  41.521   8.253
 7736POPC   C3A36317  17.474  41.546   7.953
 7736POPC   C4A36318  17.492  41.550   7.653
 7736POPC   C1B36319  17.782  41.483   8.553
 7736POPC   C2B36320  17.787  41.487   8.253
 7736POPC   C3B36321  17.768  41.532   7.953
 7736POPC   C4B36322  17.753  41.564   7.653
 7737POPC   NC336323  15.950  18.286   9.453
 7737POPC   PO436324  15.968  18.316   9.153
 7737POPC   GL136325  15.971  18.234   8.853
 7737POPC   GL236326  15.860  18.211   8.853
 7737POPC   C1A36327  15.988  18.272   8.553
 7737POPC   D2A36328  16.005  18.238   8.253
 7737POPC   C3A36329  15.917  18.254   7.953
 7737POPC   C4A36330  15.907  18.291   7.653
 7737POPC   C1B36331  15.727  18.234   8.553
 7737POPC   C2B36332  15.733  18.195   8.253
 7737POPC   C3B36333  15.670  18.198   7.953
 7737POPC   C4B36334  15.703  18.221   7.653
 7738POPC   NC336335  29.939  30.674   9.453
 7738POPC   PO436336  29.878  30.681   9.153
 7738POPC   GL136337  29.877  30.662   8.853
 7738POPC   GL236338  29.845  30.607   8.853
 7738POPC   C1A36339  29.943  30.701   8.553
 7738POPC   D2A36340  29.949  30.679   8.253
 7738POPC   C3A36341  29.898  30.681   7.953
 7738POPC   C4A36342  29.948  30.711   7.653
 7738POPC   C1B36343  29.826  30.473   8.553
 7738POPC   C2B36344  29.775  30.470   8.253
 7738POPC   C3B36345  29.747  30.488   7.953
 7738POPC   C4B36346  29.791  30.435   7.653
 7739POPC   NC336347  34.619  12.092   9.453
 7739POPC   PO436348  34.595  12.077   9.153
 7739POPC   GL136349  34.572  12.087   8.853
 7739POPC   GL236350  34.714  12.123   8.853
 7739POPC   C1A36351  34.601  12.048   8.553
 7739POPC   D2A36352  34.597  12.037   8.253
 7739POPC   C3A36353  34.555  12.035   7.953
 7739POPC   C4A36354  34.583  12.064   7.653
 7739POPC   C1B36355  34.845  12.152   8.553
 7739POPC   C2B36356  34.784  12.194   8.253
 7739POPC   C3B36357  34.794  12.202   7.953
 7739POPC   C4B36358  34.809  12.177   7.653
 7740POPC   NC336359  37.707   6.625   9.453
 7740POPC   PO436360  37.690   6.598   9.153
 7740POPC   GL136361  37.722   6.601   8.853
 7740POPC   GL236362  37.607   6.517   8.853
 7740POPC   C1A36363  37.728   6.617   8.553
 7740POPC   D2A36364  37.653   6.625   8.253
 7740POPC   C3A36365  37.711   6.611   7.953
 7740POPC   C4A36366  37.666   6.601   7.653
 7740POPC   C1B36367  37.591   6.358   8.553
 7740POPC   C2B36368  37.587   6.401   8.253
 7740POPC   C3B36369  37.601   6.372   7.953
 7740POPC   C4B36370  37.602   6.378   7.653
 7741POPC   NC336371   5.118  37.638   9.453
 7741POPC   PO436372   5.088  37.667   9.153
 7741POPC   GL136373   5.071  37.706   8.853
 7741POPC   GL236374   5.020  37.628   8.853
 7741POPC   C1A36375   5.120  37.693   8.553
 7741POPC   D2A36376   5.054  37.709   8.253
 7741POPC   C3A36377   5.129  37.682   7.953
 7741POPC   C4A36378   5.086  37.701   7.653
 7741POPC   C1B36379   4.799  37.667   8.553
 7741POPC   C2B36380   4.858  37.644   8.253
 7741POPC   C3B36381   4.897  37.663   7.953
 7741POPC   C4B36382   4.840  37.618   7.653
 7742POPC   NC336383   2.718  13.675   9.453
 7742POPC   PO436384   2.767  13.649   9.153
 7742POPC   GL136385   2.797  13.622   8.853
 7742POPC   GL236386   2.781  13.733   8.853
 7742POPC   C1A36387   2.759  13.663   8.553
 7742POPC   D2A36388   2.738  13.578   8.253
 7742POPC   C3A36389   2.765  13.659   7.953
 7742POPC   C4A36390   2.807  13.673   7.653
 7742POPC   C1B36391   2.812  13.820   8.553
 7742POPC   C2B36392   2.842  13.905   8.253
 7742POPC   C3B36393   2.890  13.866   7.953
 7742POPC   C4B36394   2.815  13.818   7.653
 7743POPC   NC336395  44.672  20.645   9.453
 7743POPC   PO436396  44.673  20.605   9.153
 7743POPC   GL136397  44.648  20.582   8.853
 7743POPC   GL236398  44.675  20.447   8.853
 7743POPC   C1A36399  44.623  20.566   8.553
 7743POPC   D2A36400  44.666  20.595   8.253
 7743POPC   C3A36401  44.674  20.588   7.953
 7743POPC   C4A36402  44.654  20.622   7.653
 7743POPC   C1B36403  44.653  20.352   8.553
 7743POPC   C2B36404  44.646  20.316   8.253
 7743POPC   C3B36405  44.664  20.408   7.953
 7743POPC   C4B36406  44.649  20.341   7.653
 7744POPC   NC336407  30.695  24.469   9.453
 7744POPC   PO436408  30.719  24.451   9.153
 7744POPC   GL136409  30.729  24.482   8.853
 7744POPC   GL236410  30.693  24.401   8.853
 7744POPC   C1A36411  30.682  24.491   8.553
 7744POPC   D2A36412  30.703  24.443   8.253
 7744POPC   C3A36413  30.661  24.512   7.953
 7744POPC   C4A36414  30.733  24.467   7.653
 7744POPC   C1B36415  30.748  24.222   8.553
 7744POPC   C2B36416  30.781  24.266   8.253
 7744POPC   C3B36417  30.779  24.265   7.953
 7744POPC   C4B36418  30.754  24.287   7.653
 7745POPC   NC336419  16.740  43.069   9.453
 7745POPC   PO436420  16.685  43.106   9.153
 7745POPC   GL136421  16.711  43.120   8.853
 7745POPC   GL236422  16.685  43.224   8.853
 7745POPC   C1A36423  16.781  43.061   8.553
 7745POPC   D2A36424  16.773  43.065   8.253
 7745POPC   C3A36425  16.702  43.090   7.953
 7745POPC   C4A36426  16.689  43.111   7.653
 7745POPC   C1B36427  16.675  43.344   8.553
 7745POPC   C2B36428  16.723  43.338   8.253
 7745POPC   C3B36429  16.721  43.395   7.953
 7745POPC   C4B36430  16.652  43.333   7.653
 7746POPC   NC336431   6.638  39.240   9.453
 7746POPC   PO436432   6.596  39.251   9.153
 7746POPC   GL136433   6.658  39.268   8.853
 7746POPC   GL236434   6.520  39.264   8.853
 7746POPC   C1A36435   6.674  39.228   8.553
 7746POPC   D2A36436   6.607  39.225   8.253
 7746POPC   C3A36437   6.613  39.191   7.953
 7746POPC   C4A36438   6.600  39.183   7.653
 7746POPC   C1B36439   6.461  39.355   8.553
 7746POPC   C2B36440   6.462  39.345   8.253
 7746POPC   C3B36441   6.396  39.309   7.953
 7746POPC   C4B36442   6.397  39.367   7.653
 7747POPC   NC336443  43.890  28.371   9.453
 7747POPC   PO436444  43.876  28.371   9.153
 7747POPC   GL136445  43.873  28.403   8.853
 7747POPC   GL236446  43.780  28.271   8.853
 7747POPC   C1A36447  43.851  28.390   8.553
 7747POPC   D2A36448  43.900  28.321   8.253
 7747POPC   C3A36449  43.907  28.386   7.953
 7747POPC   C4A36450  43.865  28.365   7.653
 7747POPC   C1B36451  43.735  28.214   8.553
 7747POPC   C2B36452  43.667  28.238   8.253
 7747POPC   C3B36453  43.703  28.185   7.953
 7747POPC   C4B36454  43.659  28.212   7.653
 7748POPC   NC336455  41.593  40.832   9.453
 7748POPC   PO436456  41.575  40.820   9.153
 7748POPC   GL136457  41.583  40.823   8.853
 7748POPC   GL236458  41.634  40.758   8.853
 7748POPC   C1A36459  41.563  40.829   8.553
 7748POPC   D2A36460  41.538  40.799   8.253
 7748POPC   C3A36461  41.559  40.797   7.953
 7748POPC   C4A36462  41.579  40.828   7.653
 7748POPC   C1B36463  41.830  40.663   8.553
 7748POPC   C2B36464  41.796  40.675   8.253
 7748POPC   C3B36465  41.770  40.719   7.953
 7748POPC   C4B36466  41.754  40.687   7.653
 7749POPC   NC336467   5.887  19.831   9.453
 7749POPC   PO436468   5.904  19.872   9.153
 7749POPC   GL136469   5.902  19.832   8.853
 7749POPC   GL236470   5.910  19.745   8.853
 7749POPC   C1A36471   5.859  19.823   8.553
 7749POPC   D2A36472   5.858  19.825   8.253
 7749POPC   C3A36473   5.887  19.865   7.953
 7749POPC   C4A36474   5.821  19.857   7.653
 7749POPC   C1B36475   5.947  19.563   8.553
 7749POPC   C2B36476   5.957  19.606   8.253
 7749POPC   C3B36477   5.930  19.576   7.953
 7749POPC   C4B36478   5.913  19.597   7.653
 7750POPC   NC336479  19.836  20.610   9.453
 7750POPC   PO436480  19.834  20.610   9.153
 7750POPC   GL136481  19.793  20.594   8.853
 7750POPC   GL236482  19.914  20.549   8.853
 7750POPC   C1A36483  19.884  20.631   8.553
 7750POPC   D2A36484  19.813  20.614   8.253
 7750POPC   C3A36485  19.878  20.594   7.953
 7750POPC   C4A36486  19.859  20.591   7.653
 7750POPC   C1B36487  20.089  20.531   8.553
 7750POPC   C2B36488  20.086  20.549   8.253
 7750POPC   C3B36489  20.120  20.513   7.953
 7750POPC   C4B36490  20.093  20.568   7.653
 7751POPC   NC336491  17.471  38.498   9.453
 7751POPC   PO436492  17.546  38.412   9.153
 7751POPC   GL136493  17.476  38.432   8.853
 7751POPC   GL236494  17.541  38.610   8.853
 7751POPC   C1A36495  17.549  38.486   8.553
 7751POPC   D2A36496  17.472  38.482   8.253
 7751POPC   C3A36497  17.497  38.479   7.953
 7751POPC   C4A36498  17.467  38.494   7.653
 7751POPC   C1B36499  17.632  38.721   8.553
 7751POPC   C2B36500  17.614  38.661   8.253
 7751POPC   C3B36501  17.598  38.721   7.953
 7751POPC   C4B36502  17.628  38.722   7.653
 7752POPC   NC336503  33.072  23.668   9.453
 7752POPC   PO436504  33.063  23.703   9.153
 7752POPC   GL136505  33.043  23.674   8.853
 7752POPC   GL236506  32.928  23.748   8.853
 7752POPC   C1A36507  33.040  23.755   8.553
 7752POPC   D2A36508  33.007  23.671   8.253
 7752POPC   C3A36509  33.021  23.720   7.953
 7752POPC   C4A36510  33.055  23.716   7.653
 7752POPC   C1B36511  32.801  23.638   8.553
 7752POPC   C2B36512  32.821  23.698   8.253
 7752POPC   C3B36513  32.744  23.685   7.953
 7752POPC   C4B36514  32.776  23.691   7.653
 7753POPC   NC336515  38.434  26.798   9.453
 7753POPC   PO436516  38.480  26.852   9.153
 7753POPC   GL136517  38.406  26.856   8.853
 7753POPC   GL236518  38.414  26.990   8.853
 7753POPC   C1A36519  38.500  26.811   8.553
 7753POPC   D2A36520  38.489  26.866   8.253
 7753POPC   C3A36521  38.505  26.860   7.953
 7753POPC   C4A36522  38.406  26.855   7.653
 7753POPC   C1B36523  38.426  27.106   8.553
 7753POPC   C2B36524  38.480  27.023   8.253
 7753POPC   C3B36525  38.418  27.039   7.953
 7753POPC   C4B36526  38.398  27.116   7.653
 7754POPC   NC336527  16.696  28.405   9.453
 7754POPC   PO436528  16.725  28.418   9.153
 7754POPC   GL136529  16.718  28.374   8.853
 7754POPC   GL236530  16.697  28.513   8.853
 7754POPC   C1A36531  16.720  28.328   8.553
 7754POPC   D2A36532  16.724  28.333   8.253
 7754POPC   C3A36533  16.726  28.366   7.953
 7754POPC   C4A36534  16.710  28.416   7.653
 7754POPC   C1B36535  16.593  28.589   8.553
 7754POPC   C2B36536  16.609  28.644   8.253
 7754POPC   C3B36537  16.617  28.574   7.953
 7754POPC   C4B36538  16.652  28.557   7.653
 7755POPC   NC336539   4.288   9.699   9.453
 7755POPC   PO436540   4.301   9.731   9.153
 7755POPC   GL136541   4.292   9.757   8.853
 7755POPC   GL236542   4.232   9.874   8.853
 7755POPC   C1A36543   4.271   9.747   8.553
 7755POPC   D2A36544   4.292   9.737   8.253
 7755POPC   C3A36545   4.314   9.797   7.953
 7755POPC   C4A36546   4.333   9.721   7.653
 7755POPC   C1B36547   4.090   9.876   8.553
 7755POPC   C2B36548   4.129   9.954   8.253
 7755POPC   C3B36549   4.108   9.890   7.953
 7755POPC   C4B36550   4.091   9.923   7.653
 7756POPC   NC336551  22.178  15.179   9.453
 7756POPC   PO436552  22.181  15.185   9.153
 7756POPC   GL136553  22.170  15.220   8.853
 7756POPC   GL236554  22.208  15.053   8.853
 7756POPC   C1A36555  22.162  15.142   8.553
 7756POPC   D2A36556  22.145  15.168   8.253
 7756POPC   C3A36557  22.203  15.155   7.953
 7756POPC   C4A36558  22.206  15.171   7.653
 7756POPC   C1B36559  22.160  14.959   8.553
 7756POPC   C2B36560  22.197  14.973   8.253
 7756POPC   C3B36561  22.208  14.942   7.953
 7756POPC   C4B36562  22.131  14.919   7.653
 7757POPC   NC336563  26.009  15.912   9.453
 7757POPC   PO436564  26.057  15.973   9.153
 7757POPC   GL136565  26.079  15.952   8.853
 7757POPC   GL236566  26.161  15.980   8.853
 7757POPC   C1A36567  26.016  16.001   8.553
 7757POPC   D2A36568  26.008  15.911   8.253
 7757POPC   C3A36569  26.045  15.943   7.953
 7757POPC   C4A36570  26.059  15.923   7.653
 7757POPC   C1B36571  26.263  15.942   8.553
 7757POPC   C2B36572  26.316  15.939   8.253
 7757POPC   C3B36573  26.262  15.937   7.953
 7757POPC   C4B36574  26.332  15.980   7.653
 7758POPC   NC336575  28.326  22.889   9.453
 7758POPC   PO436576  28.349  22.910   9.153
 7758POPC   GL136577  28.344  22.955   8.853
 7758POPC   GL236578  28.366  22.787   8.853
 7758POPC   C1A36579  28.327  22.905   8.553
 7758POPC   D2A36580  28.320  22.952   8.253
 7758POPC   C3A36581  28.379  22.936   7.953
 7758POPC   C4A36582  28.403  22.931   7.653
 7758POPC   C1B36583  28.409  22.690   8.553
 7758POPC   C2B36584  28.436  22.718   8.253
 7758POPC   C3B36585  28.376  22.673   7.953
 7758POPC   C4B36586  28.415  22.679   7.653
 7759POPC   NC336587  39.183  15.185   9.453
 7759POPC   PO436588  39.244  15.210   9.153
 7759POPC   GL136589  39.237  15.160   8.853
 7759POPC   GL236590  39.164  15.122   8.853
 7759POPC   C1A36591  39.232  15.217   8.553
 7759POPC   D2A36592  39.276  15.206   8.253
 7759POPC   C3A36593  39.247  15.143   7.953
 7759POPC   C4A36594  39.185  15.169   7.653
 7759POPC   C1B36595  39.041  15.002   8.553
 7759POPC   C2B36596  39.064  15.030   8.253
 7759POPC   C3B36597  38.999  14.994   7.953
 7759POPC   C4B36598  39.049  15.035   7.653
 7760POPC   NC336599  14.410  15.154   9.453
 7760POPC   PO436600  14.442  15.215   9.153
 7760POPC   GL136601  14.378  15.185   8.853
 7760POPC   GL236602  14.463  15.279   8.853
 7760POPC   C1A36603  14.431  15.143   8.553
 7760POPC   D2A36604  14.449  15.170   8.253
 7760POPC   C3A36605  14.444  15.148   7.953
 7760POPC   C4A36606  14.432  15.142   7.653
 7760POPC   C1B36607  14.557  15.350   8.553
 7760POPC   C2B36608  14.559  15.337   8.253
 7760POPC   C3B36609  14.551  15.325   7.953
 7760POPC   C4B36610  14.619  15.351   7.653
 7761POPC   NC336611  43.111  36.932   9.453
 7761POPC   PO436612  43.110  36.935   9.153
 7761POPC   GL136613  43.106  36.905   8.853
 7761POPC   GL236614  43.221  36.825   8.853
 7761POPC   C1A36615  43.095  36.883   8.553
 7761POPC   D2A36616  43.082  36.953   8.253
 7761POPC   C3A36617  43.076  36.907   7.953
 7761POPC   C4A36618  43.147  36.931   7.653
 7761POPC   C1B36619  43.254  36.731   8.553
 7761POPC   C2B36620  43.306  36.747   8.253
 7761POPC   C3B36621  43.272  36.671   7.953
 7761POPC   C4B36622  43.316  36.712   7.653
 7762POPC   NC336623  24.496  18.308   9.453
 7762POPC   PO436624  24.514  18.250   9.153
 7762POPC   GL136625  24.522  18.236   8.853
 7762POPC   GL236626  24.414  18.267   8.853
 7762POPC   C1A36627  24.537  18.277   8.553
 7762POPC   D2A36628  24.468  18.249   8.253
 7762POPC   C3A36629  24.496  18.272   7.953
 7762POPC   C4A36630  24.470  18.251   7.653
 7762POPC   C1B36631  24.248  18.285   8.553
 7762POPC   C2B36632  24.236  18.236   8.253
 7762POPC   C3B36633  24.194  18.231   7.953
 7762POPC   C4B36634  24.264  18.267   7.653
 7763POPC   NC336635   1.971  18.331   9.453
 7763POPC   PO436636   1.979  18.325   9.153
 7763POPC   GL136637   1.971  18.315   8.853
 7763POPC   GL236638   1.975  18.199   8.853
 7763POPC   C1A36639   1.941  18.306   8.553
 7763POPC   D2A36640   1.972  18.243   8.253
 7763POPC   C3A36641   1.944  18.276   7.953
 7763POPC   C4A36642   2.004  18.241   7.653
 7763POPC   C1B36643   2.008  18.024   8.553
 7763POPC   C2B36644   1.984  17.987   8.253
 7763POPC   C3B36645   2.029  18.010   7.953
 7763POPC   C4B36646   1.993  18.054   7.653
 7764POPC   NC336647  40.041  44.672   9.453
 7764POPC   PO436648  39.972  44.703   9.153
 7764POPC   GL136649  40.026  44.641   8.853
 7764POPC   GL236650  40.069  44.536   8.853
 7764POPC   C1A36651  40.034  44.629   8.553
 7764POPC   D2A36652  39.962  44.633   8.253
 7764POPC   C3A36653  39.984  44.622   7.953
 7764POPC   C4A36654  39.998  44.636   7.653
 7764POPC   C1B36655  40.161  44.508   8.553
 7764POPC   C2B36656  40.129  44.453   8.253
 7764POPC   C3B36657  40.181  44.486   7.953
 7764POPC   C4B36658  40.168  44.461   7.653
 7765POPC   NC336659  21.406   5.906   9.453
 7765POPC   PO436660  21.352   5.837   9.153
 7765POPC   GL136661  21.347   5.857   8.853
 7765POPC   GL236662  21.323   5.980   8.853
 7765POPC   C1A36663  21.434   5.828   8.553
 7765POPC   D2A36664  21.399   5.825   8.253
 7765POPC   C3A36665  21.338   5.870   7.953
 7765POPC   C4A36666  21.386   5.908   7.653
 7765POPC   C1B36667  21.283   6.076   8.553
 7765POPC   C2B36668  21.290   6.120   8.253
 7765POPC   C3B36669  21.323   6.119   7.953
 7765POPC   C4B36670  21.279   6.130   7.653
 7766POPC   NC336671   9.732  28.327   9.453
 7766POPC   PO436672   9.773  28.364   9.153
 7766POPC   GL136673   9.772  28.348   8.853
 7766POPC   GL236674   9.906  28.370   8.853
 7766POPC   C1A36675   9.788  28.401   8.553
 7766POPC   D2A36676   9.742  28.415   8.253
 7766POPC   C3A36677   9.701  28.353   7.953
 7766POPC   C4A36678   9.779  28.415   7.653
 7766POPC   C1B36679  10.010  28.406   8.553
 7766POPC   C2B36680   9.994  28.464   8.253
 7766POPC   C3B36681   9.966  28.438   7.953
 7766POPC   C4B36682   9.966  28.473   7.653
 7767POPC   NC336683  24.451  37.706   9.453
 7767POPC   PO436684  24.504  37.671   9.153
 7767POPC   GL136685  24.514  37.720   8.853
 7767POPC   GL236686  24.491  37.789   8.853
 7767POPC   C1A36687  24.515  37.670   8.553
 7767POPC   D2A36688  24.537  37.659   8.253
 7767POPC   C3A36689  24.474  37.694   7.953
 7767POPC   C4A36690  24.459  37.712   7.653
 7767POPC   C1B36691  24.577  37.945   8.553
 7767POPC   C2B36692  24.562  37.909   8.253
 7767POPC   C3B36693  24.558  37.930   7.953
 7767POPC   C4B36694  24.576  37.960   7.653
 7768POPC   NC336695  39.198  17.495   9.453
 7768POPC   PO436696  39.220  17.523   9.153
 7768POPC   GL136697  39.227  17.542   8.853
 7768POPC   GL236698  39.317  17.592   8.853
 7768POPC   C1A36699  39.240  17.503   8.553
 7768POPC   D2A36700  39.192  17.481   8.253
 7768POPC   C3A36701  39.188  17.536   7.953
 7768POPC   C4A36702  39.277  17.471   7.653
 7768POPC   C1B36703  39.359  17.689   8.553
 7768POPC   C2B36704  39.368  17.686   8.253
 7768POPC   C3B36705  39.301  17.684   7.953
 7768POPC   C4B36706  39.345  17.701   7.653
 7769POPC   NC336707  33.781   4.311   9.453
 7769POPC   PO436708  33.810   4.317   9.153
 7769POPC   GL136709  33.758   4.272   8.853
 7769POPC   GL236710  33.683   4.366   8.853
 7769POPC   C1A36711  33.782   4.298   8.553
 7769POPC   D2A36712  33.848   4.360   8.253
 7769POPC   C3A36713  33.778   4.279   7.953
 7769POPC   C4A36714  33.772   4.341   7.653
 7769POPC   C1B36715  33.631   4.489   8.553
 7769POPC   C2B36716  33.598   4.453   8.253
 7769POPC   C3B36717  33.655   4.509   7.953
 7769POPC   C4B36718  33.648   4.463   7.653
 7770POPC   NC336719  29.926  19.788   9.453
 7770POPC   PO436720  29.958  19.826   9.153
 7770POPC   GL136721  29.957  19.850   8.853
 7770POPC   GL236722  29.781  19.840   8.853
 7770POPC   C1A36723  29.916  19.848   8.553
 7770POPC   D2A36724  29.931  19.806   8.253
 7770POPC   C3A36725  29.878  19.791   7.953
 7770POPC   C4A36726  29.908  19.852   7.653
 7770POPC   C1B36727  29.666  19.933   8.553
 7770POPC   C2B36728  29.648  19.907   8.253
 7770POPC   C3B36729  29.665  19.892   7.953
 7770POPC   C4B36730  29.702  19.971   7.653
 7771POPC   NC336731  39.186  44.685   9.453
 7771POPC   PO436732  39.264  44.682   9.153
 7771POPC   GL136733  39.227  44.659   8.853
 7771POPC   GL236734  39.061  44.677   8.853
 7771POPC   C1A36735  39.224  44.659   8.553
 7771POPC   D2A36736  39.203  44.712   8.253
 7771POPC   C3A36737  39.195  44.672   7.953
 7771POPC   C4A36738  39.239  44.627   7.653
 7771POPC   C1B36739  38.965  44.725   8.553
 7771POPC   C2B36740  39.013  44.765   8.253
 7771POPC   C3B36741  38.960  44.706   7.953
 7771POPC   C4B36742  38.966  44.725   7.653
 7772POPC   NC336743   3.569  36.882   9.453
 7772POPC   PO436744   3.576  36.908   9.153
 7772POPC   GL136745   3.527  36.918   8.853
 7772POPC   GL236746   3.644  36.959   8.853
 7772POPC   C1A36747   3.514  36.887   8.553
 7772POPC   D2A36748   3.535  36.912   8.253
 7772POPC   C3A36749   3.555  36.892   7.953
 7772POPC   C4A36750   3.506  36.948   7.653
 7772POPC   C1B36751   3.753  37.061   8.553
 7772POPC   C2B36752   3.721  37.076   8.253
 7772POPC   C3B36753   3.754  37.083   7.953
 7772POPC   C4B36754   3.706  37.103   7.653
 7773POPC   NC336755  19.011   8.203   9.453
 7773POPC   PO436756  19.015   8.218   9.153
 7773POPC   GL136757  19.069   8.202   8.853
 7773POPC   GL236758  18.984   8.148   8.853
 7773POPC   C1A36759  19.099   8.190   8.553
 7773POPC   D2A36760  19.022   8.147   8.253
 7773POPC   C3A36761  19.076   8.166   7.953
 7773POPC   C4A36762  19.017   8.196   7.653
 7773POPC   C1B36763  18.783   8.083   8.553
 7773POPC   C2B36764  18.829   8.120   8.253
 7773POPC   C3B36765  18.824   8.138   7.953
 7773POPC   C4B36766  18.770   8.164   7.653
 7774POPC   NC336767  18.316  16.695   9.453
 7774POPC   PO436768  18.305  16.780   9.153
 7774POPC   GL136769  18.285  16.704   8.853
 7774POPC   GL236770  18.242  16.646   8.853
 7774POPC   C1A36771  18.308  16.721   8.553
 7774POPC   D2A36772  18.268  16.740   8.253
 7774POPC   C3A36773  18.309  16.707   7.953
 7774POPC   C4A36774  18.233  16.721   7.653
 7774POPC   C1B36775  18.204  16.529   8.553
 7774POPC   C2B36776  18.215  16.505   8.253
 7774POPC   C3B36777  18.151  16.538   7.953
 7774POPC   C4B36778  18.158  16.475   7.653
 7775POPC   NC336779  37.670   4.302   9.453
 7775POPC   PO436780  37.663   4.336   9.153
 7775POPC   GL136781  37.727   4.315   8.853
 7775POPC   GL236782  37.705   4.434   8.853
 7775POPC   C1A36783  37.667   4.324   8.553
 7775POPC   D2A36784  37.701   4.300   8.253
 7775POPC   C3A36785  37.636   4.345   7.953
 7775POPC   C4A36786  37.716   4.333   7.653
 7775POPC   C1B36787  37.692   4.577   8.553
 7775POPC   C2B36788  37.698   4.563   8.253
 7775POPC   C3B36789  37.741   4.542   7.953
 7775POPC   C4B36790  37.775   4.554   7.653
 7776POPC   NC336791   5.068  29.897   9.453
 7776POPC   PO436792   5.054  29.943   9.153
 7776POPC   GL136793   5.099  29.934   8.853
 7776POPC   GL236794   5.194  29.928   8.853
 7776POPC   C1A36795   5.102  29.883   8.553
 7776POPC   D2A36796   5.131  29.903   8.253
 7776POPC   C3A36797   5.045  29.887   7.953
 7776POPC   C4A36798   5.127  29.961   7.653
 7776POPC   C1B36799   5.357  29.906   8.553
 7776POPC   C2B36800   5.323  29.843   8.253
 7776POPC   C3B36801   5.293  29.899   7.953
 7776POPC   C4B36802   5.360  29.839   7.653
 7777POPC   NC336803  20.629  20.582   9.453
 7777POPC   PO436804  20.656  20.639   9.153
 7777POPC   GL136805  20.574  20.646   8.853
 7777POPC   GL236806  20.687  20.742   8.853
 7777POPC   C1A36807  20.571  20.582   8.553
 7777POPC   D2A36808  20.595  20.596   8.253
 7777POPC   C3A36809  20.564  20.645   7.953
 7777POPC   C4A36810  20.630  20.624   7.653
 7777POPC   C1B36811  20.628  20.836   8.553
 7777POPC   C2B36812  20.643  20.829   8.253
 7777POPC   C3B36813  20.662  20.813   7.953
 7777POPC   C4B36814  20.688  20.807   7.653
 7778POPC   NC336815  11.330  44.674   9.453
 7778POPC   PO436816  11.321  44.682   9.153
 7778POPC   GL136817  11.350  44.698   8.853
 7778POPC   GL236818  11.316  44.534   8.853
 7778POPC   C1A36819  11.347  44.676   8.553
 7778POPC   D2A36820  11.341  44.659   8.253
 7778POPC   C3A36821  11.318  44.652   7.953
 7778POPC   C4A36822  11.278  44.614   7.653
 7778POPC   C1B36823  11.265  44.461   8.553
 7778POPC   C2B36824  11.341  44.367   8.253
 7778POPC   C3B36825  11.256  44.404   7.953
 7778POPC   C4B36826  11.343  44.436   7.653
 7779POPC   NC336827  40.743  17.503   9.453
 7779POPC   PO436828  40.739  17.507   9.153
 7779POPC   GL136829  40.786  17.474   8.853
 7779POPC   GL236830  40.869  17.556   8.853
 7779POPC   C1A36831  40.783  17.485   8.553
 7779POPC   D2A36832  40.736  17.461   8.253
 7779POPC   C3A36833  40.810  17.489   7.953
 7779POPC   C4A36834  40.812  17.466   7.653
 7779POPC   C1B36835  40.989  17.594   8.553
 7779POPC   C2B36836  41.071  17.530   8.253
 7779POPC   C3B36837  41.039  17.579   7.953
 7779POPC   C4B36838  41.051  17.532   7.653
 7780POPC   NC336839  35.376   3.522   9.453
 7780POPC   PO436840  35.377   3.555   9.153
 7780POPC   GL136841  35.304   3.570   8.853
 7780POPC   GL236842  35.490   3.605   8.853
 7780POPC   C1A36843  35.373   3.495   8.553
 7780POPC   D2A36844  35.380   3.567   8.253
 7780POPC   C3A36845  35.335   3.579   7.953
 7780POPC   C4A36846  35.382   3.534   7.653
 7780POPC   C1B36847  35.560   3.715   8.553
 7780POPC   C2B36848  35.563   3.653   8.253
 7780POPC   C3B36849  35.584   3.677   7.953
 7780POPC   C4B36850  35.601   3.715   7.653
 7781POPC   NC336851   1.181  41.542   9.453
 7781POPC   PO436852   1.183  41.542   9.153
 7781POPC   GL136853   1.191  41.581   8.853
 7781POPC   GL236854   1.112  41.701   8.853
 7781POPC   C1A36855   1.223  41.523   8.553
 7781POPC   D2A36856   1.203  41.529   8.253
 7781POPC   C3A36857   1.186  41.592   7.953
 7781POPC   C4A36858   1.210  41.568   7.653
 7781POPC   C1B36859   1.086  41.737   8.553
 7781POPC   C2B36860   1.025  41.795   8.253
 7781POPC   C3B36861   1.024  41.780   7.953
 7781POPC   C4B36862   1.081  41.737   7.653
 7782POPC   NC336863  32.255   5.882   9.453
 7782POPC   PO436864  32.277   5.916   9.153
 7782POPC   GL136865  32.205   5.911   8.853
 7782POPC   GL236866  32.264   6.026   8.853
 7782POPC   C1A36867  32.219   5.907   8.553
 7782POPC   D2A36868  32.255   5.908   8.253
 7782POPC   C3A36869  32.234   5.824   7.953
 7782POPC   C4A36870  32.251   5.888   7.653
 7782POPC   C1B36871  32.263   6.072   8.553
 7782POPC   C2B36872  32.331   6.110   8.253
 7782POPC   C3B36873  32.299   6.074   7.953
 7782POPC   C4B36874  32.251   6.086   7.653
 7783POPC   NC336875  42.332   2.029   9.453
 7783POPC   PO436876  42.370   2.014   9.153
 7783POPC   GL136877  42.332   1.952   8.853
 7783POPC   GL236878  42.260   2.087   8.853
 7783POPC   C1A36879  42.322   1.995   8.553
 7783POPC   D2A36880  42.347   1.991   8.253
 7783POPC   C3A36881  42.310   1.997   7.953
 7783POPC   C4A36882  42.330   1.955   7.653
 7783POPC   C1B36883  42.141   2.156   8.553
 7783POPC   C2B36884  42.092   2.160   8.253
 7783POPC   C3B36885  42.163   2.068   7.953
 7783POPC   C4B36886  42.088   2.097   7.653
 7784POPC   NC336887  29.159   1.245   9.453
 7784POPC   PO436888  29.166   1.254   9.153
 7784POPC   GL136889  29.148   1.254   8.853
 7784POPC   GL236890  29.024   1.121   8.853
 7784POPC   C1A36891  29.147   1.236   8.553
 7784POPC   D2A36892  29.175   1.244   8.253
 7784POPC   C3A36893  29.134   1.255   7.953
 7784POPC   C4A36894  29.150   1.246   7.653
 7784POPC   C1B36895  28.940   1.052   8.553
 7784POPC   C2B36896  28.928   1.107   8.253
 7784POPC   C3B36897  28.938   1.061   7.953
 7784POPC   C4B36898  28.939   1.050   7.653
 7785POPC   NC336899  11.285   9.016   9.453
 7785POPC   PO436900  11.327   9.020   9.153
 7785POPC   GL136901  11.334   8.942   8.853
 7785POPC   GL236902  11.253   8.841   8.853
 7785POPC   C1A36903  11.315   9.004   8.553
 7785POPC   D2A36904  11.288   8.981   8.253
 7785POPC   C3A36905  11.266   8.940   7.953
 7785POPC   C4A36906  11.268   8.947   7.653
 7785POPC   C1B36907  11.195   8.798   8.553
 7785POPC   C2B36908  11.193   8.731   8.253
 7785POPC   C3B36909  11.203   8.752   7.953
 7785POPC   C4B36910  11.139   8.803   7.653
 7786POPC   NC336911  37.682  37.663   9.453
 7786POPC   PO436912  37.678  37.646   9.153
 7786POPC   GL136913  37.661  37.679   8.853
 7786POPC   GL236914  37.804  37.743   8.853
 7786POPC   C1A36915  37.705  37.701   8.553
 7786POPC   D2A36916  37.658  37.657   8.253
 7786POPC   C3A36917  37.684  37.712   7.953
 7786POPC   C4A36918  37.718  37.725   7.653
 7786POPC   C1B36919  37.859  37.767   8.553
 7786POPC   C2B36920  37.921  37.762   8.253
 7786POPC   C3B36921  37.926  37.760   7.953
 7786POPC   C4B36922  37.866  37.763   7.653
 7787POPC   NC336923   1.996  16.749   9.453
 7787POPC   PO436924   2.019  16.734   9.153
 7787POPC   GL136925   1.953  16.755   8.853
 7787POPC   GL236926   1.892  16.724   8.853
 7787POPC   C1A36927   2.013  16.720   8.553
 7787POPC   D2A36928   1.994  16.761   8.253
 7787POPC   C3A36929   2.021  16.774   7.953
 7787POPC   C4A36930   1.947  16.704   7.653
 7787POPC   C1B36931   1.696  16.779   8.553
 7787POPC   C2B36932   1.765  16.708   8.253
 7787POPC   C3B36933   1.722  16.779   7.953
 7787POPC   C4B36934   1.773  16.790   7.653
 7788POPC   NC336935  39.191  29.905   9.453
 7788POPC   PO436936  39.200  29.904   9.153
 7788POPC   GL136937  39.209  29.969   8.853
 7788POPC   GL236938  39.314  29.956   8.853
 7788POPC   C1A36939  39.267  29.881   8.553
 7788POPC   D2A36940  39.267  29.913   8.253
 7788POPC   C3A36941  39.276  29.947   7.953
 7788POPC   C4A36942  39.214  29.950   7.653
 7788POPC   C1B36943  39.519  29.880   8.553
 7788POPC   C2B36944  39.468  29.942   8.253
 7788POPC   C3B36945  39.448  29.949   7.953
 7788POPC   C4B36946  39.511  29.879   7.653
 7789POPC   NC336947  22.123  35.330   9.453
 7789POPC   PO436948  22.146  35.358   9.153
 7789POPC   GL136949  22.126  35.343   8.853
 7789POPC   GL236950  22.039  35.388   8.853
 7789POPC   C1A36951  22.189  35.382   8.553
 7789POPC   D2A36952  22.186  35.346   8.253
 7789POPC   C3A36953  22.183  35.356   7.953
 7789POPC   C4A36954  22.189  35.332   7.653
 7789POPC   C1B36955  21.894  35.321   8.553
 7789POPC   C2B36956  21.877  35.333   8.253
 7789POPC   C3B36957  21.955  35.395   7.953
 7789POPC   C4B36958  21.876  35.302   7.653
 7790POPC   NC336959  21.381  33.840   9.453
 7790POPC   PO436960  21.434  33.784   9.153
 7790POPC   GL136961  21.405  33.765   8.853
 7790POPC   GL236962  21.472  33.885   8.853
 7790POPC   C1A36963  21.415  33.776   8.553
 7790POPC   D2A36964  21.387  33.812   8.253
 7790POPC   C3A36965  21.430  33.833   7.953
 7790POPC   C4A36966  21.359  33.790   7.653
 7790POPC   C1B36967  21.593  33.982   8.553
 7790POPC   C2B36968  21.599  33.942   8.253
 7790POPC   C3B36969  21.628  33.923   7.953
 7790POPC   C4B36970  21.600  33.912   7.653
 7791POPC   NC336971   3.493   5.884   9.453
 7791POPC   PO436972   3.556   5.901   9.153
 7791POPC   GL136973   3.522   5.904   8.853
 7791POPC   GL236974   3.381   5.827   8.853
 7791POPC   C1A36975   3.585   5.911   8.553
 7791POPC   D2A36976   3.575   5.863   8.253
 7791POPC   C3A36977   3.587   5.902   7.953
 7791POPC   C4A36978   3.545   5.884   7.653
 7791POPC   C1B36979   3.287   5.812   8.553
 7791POPC   C2B36980   3.314   5.845   8.253
 7791POPC   C3B36981   3.287   5.782   7.953
 7791POPC   C4B36982   3.337   5.812   7.653
 7792POPC   NC336983  38.463  44.701   9.453
 7792POPC   PO436984  38.500  44.624   9.153
 7792POPC   GL136985  38.473  44.677   8.853
 7792POPC   GL236986  38.550  44.555   8.853
 7792POPC   C1A36987  38.428  44.613   8.553
 7792POPC   D2A36988  38.494  44.649   8.253
 7792POPC   C3A36989  38.490  44.663   7.953
 7792POPC   C4A36990  38.492  44.635   7.653
 7792POPC   C1B36991  38.673  44.475   8.553
 7792POPC   C2B36992  38.600  44.517   8.253
 7792POPC   C3B36993  38.669  44.464   7.953
 7792POPC   C4B36994  38.645  44.476   7.653
 7793POPC   NC336995   8.218  11.345   9.453
 7793POPC   PO436996   8.160  11.344   9.153
 7793POPC   GL136997   8.192  11.291   8.853
 7793POPC   GL236998   8.234  11.437   8.853
 7793POPC   C1A36999   8.234  11.276   8.553
 7793POPC   D2A37000   8.244  11.279   8.253
 7793POPC   C3A37001   8.167  11.337   7.953
 7793POPC   C4A37002   8.199  11.271   7.653
 7793POPC   C1B37003   8.273  11.544   8.553
 7793POPC   C2B37004   8.333  11.535   8.253
 7793POPC   C3B37005   8.317  11.484   7.953
 7793POPC   C4B37006   8.352  11.556   7.653
 7794POPC   NC337007  19.071   7.373   9.453
 7794POPC   PO437008  19.041   7.418   9.153
 7794POPC   GL137009  19.049   7.462   8.853
 7794POPC   GL237010  19.150   7.460   8.853
 7794POPC   C1A37011  19.047   7.390   8.553
 7794POPC   D2A37012  19.078   7.431   8.253
 7794POPC   C3A37013  19.052   7.445   7.953
 7794POPC   C4A37014  19.095   7.378   7.653
 7794POPC   C1B37015  19.193   7.602   8.553
 7794POPC   C2B37016  19.204   7.602   8.253
 7794POPC   C3B37017  19.258   7.596   7.953
 7794POPC   C4B37018  19.203   7.564   7.653
 7795POPC   NC337019  20.597  30.699   9.453
 7795POPC   PO437020  20.606  30.659   9.153
 7795POPC   GL137021  20.647  30.684   8.853
 7795POPC   GL237022  20.499  30.734   8.853
 7795POPC   C1A37023  20.647  30.732   8.553
 7795POPC   D2A37024  20.589  30.649   8.253
 7795POPC   C3A37025  20.599  30.725   7.953
 7795POPC   C4A37026  20.628  30.674   7.653
 7795POPC   C1B37027  20.368  30.786   8.553
 7795POPC   C2B37028  20.335  30.817   8.253
 7795POPC   C3B37029  20.422  30.798   7.953
 7795POPC   C4B37030  20.343  30.752   7.653
 7796POPC   NC337031  33.008  28.411   9.453
 7796POPC   PO437032  33.035  28.370   9.153
 7796POPC   GL137033  32.993  28.380   8.853
 7796POPC   GL237034  33.104  28.265   8.853
 7796POPC   C1A37035  33.026  28.371   8.553
 7796POPC   D2A37036  33.065  28.370   8.253
 7796POPC   C3A37037  32.981  28.407   7.953
 7796POPC   C4A37038  33.032  28.327   7.653
 7796POPC   C1B37039  33.115  28.138   8.553
 7796POPC   C2B37040  33.087  28.123   8.253
 7796POPC   C3B37041  33.087  28.104   7.953
 7796POPC   C4B37042  33.151  28.104   7.653
 7797POPC   NC337043  43.896  29.149   9.453
 7797POPC   PO437044  43.841  29.189   9.153
 7797POPC   GL137045  43.906  29.096   8.853
 7797POPC   GL237046  44.047  29.141   8.853
 7797POPC   C1A37047  43.921  29.156   8.553
 7797POPC   D2A37048  43.849  29.139   8.253
 7797POPC   C3A37049  43.841  29.167   7.953
 7797POPC   C4A37050  43.877  29.098   7.653
 7797POPC   C1B37051  44.088  29.160   8.553
 7797POPC   C2B37052  44.132  29.207   8.253
 7797POPC   C3B37053  44.154  29.132   7.953
 7797POPC   C4B37054  44.159  29.222   7.653
 7798POPC   NC337055  31.510  39.259   9.453
 7798POPC   PO437056  31.432  39.213   9.153
 7798POPC   GL137057  31.446  39.203   8.853
 7798POPC   GL237058  31.451  39.379   8.853
 7798POPC   C1A37059  31.481  39.234   8.553
 7798POPC   D2A37060  31.499  39.204   8.253
 7798POPC   C3A37061  31.513  39.195   7.953
 7798POPC   C4A37062  31.452  39.256   7.653
 7798POPC   C1B37063  31.399  39.417   8.553
 7798POPC   C2B37064  31.363  39.433   8.253
 7798POPC   C3B37065  31.366  39.464   7.953
 7798POPC   C4B37066  31.338  39.403   7.653
 7799POPC   NC337067  29.113  39.970   9.453
 7799POPC   PO437068  29.140  40.047   9.153
 7799POPC   GL137069  29.112  40.016   8.853
 7799POPC   GL237070  28.995  40.018   8.853
 7799POPC   C1A37071  29.134  39.957   8.553
 7799POPC   D2A37072  29.118  40.044   8.253
 7799POPC   C3A37073  29.161  40.034   7.953
 7799POPC   C4A37074  29.173  39.959   7.653
 7799POPC   C1B37075  28.917  40.032   8.553
 7799POPC   C2B37076  28.943  40.035   8.253
 7799POPC   C3B37077  28.904  40.084   7.953
 7799POPC   C4B37078  28.930  40.078   7.653
 7800POPC   NC337079  18.326  19.791   9.453
 7800POPC   PO437080  18.296  19.866   9.153
 7800POPC   GL137081  18.304  19.810   8.853
 7800POPC   GL237082  18.155  19.930   8.853
 7800POPC   C1A37083  18.310  19.840   8.553
 7800POPC   D2A37084  18.327  19.878   8.253
 7800POPC   C3A37085  18.262  19.798   7.953
 7800POPC   C4A37086  18.296  19.874   7.653
 7800POPC   C1B37087  18.089  19.898   8.553
 7800POPC   C2B37088  18.015  19.906   8.253
 7800POPC   C3B37089  18.022  19.896   7.953
 7800POPC   C4B37090  18.070  19.972   7.653
 7801POPC   NC337091   1.193  33.024   9.453
 7801POPC   PO437092   1.193  33.001   9.153
 7801POPC   GL137093   1.198  33.025   8.853
 7801POPC   GL237094   1.177  33.155   8.853
 7801POPC   C1A37095   1.249  33.065   8.553
 7801POPC   D2A37096   1.168  33.035   8.253
 7801POPC   C3A37097   1.202  33.065   7.953
 7801POPC   C4A37098   1.181  33.039   7.653
 7801POPC   C1B37099   1.162  33.295   8.553
 7801POPC   C2B37100   1.231  33.310   8.253
 7801POPC   C3B37101   1.213  33.234   7.953
 7801POPC   C4B37102   1.195  33.280   7.653
 7802POPC   NC337103  21.422  15.147   9.453
 7802POPC   PO437104  21.420  15.227   9.153
 7802POPC   GL137105  21.402  15.214   8.853
 7802POPC   GL237106  21.248  15.220   8.853
 7802POPC   C1A37107  21.339  15.221   8.553
 7802POPC   D2A37108  21.359  15.151   8.253
 7802POPC   C3A37109  21.349  15.138   7.953
 7802POPC   C4A37110  21.342  15.153   7.653
 7802POPC   C1B37111  21.205  15.321   8.553
 7802POPC   C2B37112  21.243  15.364   8.253
 7802POPC   C3B37113  21.191  15.355   7.953
 7802POPC   C4B37114  21.225  15.391   7.653
 7803POPC   NC337115  12.804  15.191   9.453
 7803POPC   PO437116  12.890  15.214   9.153
 7803POPC   GL137117  12.852  15.223   8.853
 7803POPC   GL237118  12.950  15.303   8.853
 7803POPC   C1A37119  12.896  15.193   8.553
 7803POPC   D2A37120  12.859  15.138   8.253
 7803POPC   C3A37121  12.833  15.214   7.953
 7803POPC   C4A37122  12.832  15.173   7.653
 7803POPC   C1B37123  13.003  15.414   8.553
 7803POPC   C2B37124  13.012  15.438   8.253
 7803POPC   C3B37125  13.007  15.353   7.953
 7803POPC   C4B37126  12.927  15.355   7.653
 7804POPC   NC337127   2.765  39.205   9.453
 7804POPC   PO437128   2.755  39.245   9.153
 7804POPC   GL137129   2.741  39.250   8.853
 7804POPC   GL237130   2.797  39.357   8.853
 7804POPC   C1A37131   2.811  39.229   8.553
 7804POPC   D2A37132   2.718  39.211   8.253
 7804POPC   C3A37133   2.740  39.205   7.953
 7804POPC   C4A37134   2.775  39.190   7.653
 7804POPC   C1B37135   2.839  39.508   8.553
 7804POPC   C2B37136   2.779  39.480   8.253
 7804POPC   C3B37137   2.826  39.522   7.953
 7804POPC   C4B37138   2.819  39.512   7.653
 7805POPC   NC337139  44.645  39.970   9.453
 7805POPC   PO437140  44.699  40.012   9.153
 7805POPC   GL137141  44.710  39.959   8.853
 7805POPC   GL237142  44.744  39.915   8.853
 7805POPC   C1A37143  44.697  40.017   8.553
 7805POPC   D2A37144  44.698  40.008   8.253
 7805POPC   C3A37145  44.645  40.026   7.953
 7805POPC   C4A37146  44.627  40.010   7.653
 7805POPC   C1B37147  44.885  39.898   8.553
 7805POPC   C2B37148  44.908  39.870   8.253
 7805POPC   C3B37149  44.848  39.890   7.953
 7805POPC   C4B37150  44.887  39.931   7.653
 7806POPC   NC337151  21.400  16.781   9.453
 7806POPC   PO437152  21.358  16.767   9.153
 7806POPC   GL137153  21.423  16.742   8.853
 7806POPC   GL237154  21.367  16.612   8.853
 7806POPC   C1A37155  21.367  16.737   8.553
 7806POPC   D2A37156  21.358  16.749   8.253
 7806POPC   C3A37157  21.431  16.735   7.953
 7806POPC   C4A37158  21.413  16.760   7.653
 7806POPC   C1B37159  21.308  16.438   8.553
 7806POPC   C2B37160  21.340  16.513   8.253
 7806POPC   C3B37161  21.346  16.475   7.953
 7806POPC   C4B37162  21.304  16.485   7.653
 7807POPC   NC337163  23.703  18.249   9.453
 7807POPC   PO437164  23.747  18.242   9.153
 7807POPC   GL137165  23.683  18.249   8.853
 7807POPC   GL237166  23.686  18.379   8.853
 7807POPC   C1A37167  23.695  18.316   8.553
 7807POPC   D2A37168  23.731  18.267   8.253
 7807POPC   C3A37169  23.761  18.248   7.953
 7807POPC   C4A37170  23.725  18.282   7.653
 7807POPC   C1B37171  23.580  18.463   8.553
 7807POPC   C2B37172  23.593  18.525   8.253
 7807POPC   C3B37173  23.573  18.494   7.953
 7807POPC   C4B37174  23.563  18.503   7.653
 7808POPC   NC337175  26.769  34.607   9.453
 7808POPC   PO437176  26.779  34.556   9.153
 7808POPC   GL137177  26.793  34.534   8.853
 7808POPC   GL237178  26.740  34.507   8.853
 7808POPC   C1A37179  26.769  34.570   8.553
 7808POPC   D2A37180  26.836  34.543   8.253
 7808POPC   C3A37181  26.857  34.580   7.953
 7808POPC   C4A37182  26.864  34.604   7.653
 7808POPC   C1B37183  26.543  34.552   8.553
 7808POPC   C2B37184  26.585  34.520   8.253
 7808POPC   C3B37185  26.541  34.474   7.953
 7808POPC   C4B37186  26.599  34.479   7.653
 7809POPC   NC337187  33.017  29.949   9.453
 7809POPC   PO437188  33.032  29.960   9.153
 7809POPC   GL137189  33.023  29.936   8.853
 7809POPC   GL237190  32.892  30.051   8.853
 7809POPC   C1A37191  32.987  29.872   8.553
 7809POPC   D2A37192  33.044  29.886   8.253
 7809POPC   C3A37193  33.005  29.956   7.953
 7809POPC   C4A37194  33.061  29.908   7.653
 7809POPC   C1B37195  32.868  30.084   8.553
 7809POPC   C2B37196  32.815  30.102   8.253
 7809POPC   C3B37197  32.823  30.111   7.953
 7809POPC   C4B37198  32.833  30.041   7.653
 7810POPC   NC337199  39.998  34.600   9.453
 7810POPC   PO437200  40.033  34.597   9.153
 7810POPC   GL137201  40.049  34.567   8.853
 7810POPC   GL237202  40.008  34.695   8.853
 7810POPC   C1A37203  40.004  34.605   8.553
 7810POPC   D2A37204  39.992  34.553   8.253
 7810POPC   C3A37205  40.001  34.579   7.953
 7810POPC   C4A37206  40.012  34.557   7.653
 7810POPC   C1B37207  40.039  34.850   8.553
 7810POPC   C2B37208  40.069  34.810   8.253
 7810POPC   C3B37209  40.094  34.781   7.953
 7810POPC   C4B37210  40.062  34.793   7.653
 7811POPC   NC337211  29.174  28.390   9.453
 7811POPC   PO437212  29.173  28.325   9.153
 7811POPC   GL137213  29.168  28.380   8.853
 7811POPC   GL237214  29.058  28.461   8.853
 7811POPC   C1A37215  29.144  28.359   8.553
 7811POPC   D2A37216  29.130  28.342   8.253
 7811POPC   C3A37217  29.174  28.376   7.953
 7811POPC   C4A37218  29.110  28.409   7.653
 7811POPC   C1B37219  29.034  28.612   8.553
 7811POPC   C2B37220  29.079  28.581   8.253
 7811POPC   C3B37221  29.118  28.624   7.953
 7811POPC   C4B37222  29.080  28.594   7.653
 7812POPC   NC337223   8.200  29.925   9.453
 7812POPC   PO437224   8.207  29.897   9.153
 7812POPC   GL137225   8.170  29.939   8.853
 7812POPC   GL237226   8.149  29.801   8.853
 7812POPC   C1A37227   8.190  29.961   8.553
 7812POPC   D2A37228   8.152  29.900   8.253
 7812POPC   C3A37229   8.245  29.942   7.953
 7812POPC   C4A37230   8.151  29.905   7.653
 7812POPC   C1B37231   8.057  29.657   8.553
 7812POPC   C2B37232   8.067  29.700   8.253
 7812POPC   C3B37233   8.054  29.665   7.953
 7812POPC   C4B37234   8.080  29.749   7.653
 7813POPC   NC337235  12.048   8.224   9.453
 7813POPC   PO437236  12.056   8.200   9.153
 7813POPC   GL137237  12.101   8.163   8.853
 7813POPC   GL237238  12.157   8.170   8.853
 7813POPC   C1A37239  12.049   8.180   8.553
 7813POPC   D2A37240  12.125   8.149   8.253
 7813POPC   C3A37241  12.104   8.237   7.953
 7813POPC   C4A37242  12.041   8.190   7.653
 7813POPC   C1B37243  12.284   8.112   8.553
 7813POPC   C2B37244  12.328   8.066   8.253
 7813POPC   C3B37245  12.321   8.043   7.953
 7813POPC   C4B37246  12.282   8.134   7.653
 7814POPC   NC337247  26.054   5.063   9.453
 7814POPC   PO437248  26.011   5.072   9.153
 7814POPC   GL137249  26.038   5.132   8.853
 7814POPC   GL237250  26.063   5.256   8.853
 7814POPC   C1A37251  26.065   5.049   8.553
 7814POPC   D2A37252  26.063   5.063   8.253
 7814POPC   C3A37253  26.006   5.123   7.953
 7814POPC   C4A37254  26.027   5.102   7.653
 7814POPC   C1B37255  26.056   5.379   8.553
 7814POPC   C2B37256  26.018   5.339   8.253
 7814POPC   C3B37257  26.040   5.366   7.953
 7814POPC   C4B37258  26.017   5.309   7.653
 7815POPC   NC337259  38.489  26.069   9.453
 7815POPC   PO437260  38.482  26.071   9.153
 7815POPC   GL137261  38.426  26.080   8.853
 7815POPC   GL237262  38.325  25.961   8.853
 7815POPC   C1A37263  38.423  26.081   8.553
 7815POPC   D2A37264  38.488  26.007   8.253
 7815POPC   C3A37265  38.468  26.005   7.953
 7815POPC   C4A37266  38.451  26.020   7.653
 7815POPC   C1B37267  38.323  25.890   8.553
 7815POPC   C2B37268  38.279  25.851   8.253
 7815POPC   C3B37269  38.265  25.862   7.953
 7815POPC   C4B37270  38.256  25.821   7.653
 7816POPC   NC337271  14.366  28.399   9.453
 7816POPC   PO437272  14.404  28.409   9.153
 7816POPC   GL137273  14.375  28.376   8.853
 7816POPC   GL237274  14.475  28.261   8.853
 7816POPC   C1A37275  14.385  28.373   8.553
 7816POPC   D2A37276  14.415  28.337   8.253
 7816POPC   C3A37277  14.372  28.407   7.953
 7816POPC   C4A37278  14.367  28.373   7.653
 7816POPC   C1B37279  14.483  28.189   8.553
 7816POPC   C2B37280  14.530  28.150   8.253
 7816POPC   C3B37281  14.573  28.135   7.953
 7816POPC   C4B37282  14.521  28.107   7.653
 7817POPC   NC337283   8.211  39.973   9.453
 7817POPC   PO437284   8.149  40.012   9.153
 7817POPC   GL137285   8.201  39.980   8.853
 7817POPC   GL237286   8.144  39.857   8.853
 7817POPC   C1A37287   8.235  40.041   8.553
 7817POPC   D2A37288   8.177  39.973   8.253
 7817POPC   C3A37289   8.200  39.963   7.953
 7817POPC   C4A37290   8.193  40.042   7.653
 7817POPC   C1B37291   8.046  39.772   8.553
 7817POPC   C2B37292   8.067  39.816   8.253
 7817POPC   C3B37293   8.097  39.769   7.953
 7817POPC   C4B37294   8.016  39.774   7.653
 7818POPC   NC337295  22.904  15.201   9.453
 7818POPC   PO437296  22.959  15.218   9.153
 7818POPC   GL137297  22.915  15.152   8.853
 7818POPC   GL237298  22.992  15.051   8.853
 7818POPC   C1A37299  22.952  15.179   8.553
 7818POPC   D2A37300  22.914  15.180   8.253
 7818POPC   C3A37301  22.976  15.164   7.953
 7818POPC   C4A37302  22.927  15.190   7.653
 7818POPC   C1B37303  22.950  14.901   8.553
 7818POPC   C2B37304  22.965  14.973   8.253
 7818POPC   C3B37305  22.978  14.956   7.953
 7818POPC   C4B37306  22.925  14.898   7.653
 7819POPC   NC337307  17.499  19.069   9.453
 7819POPC   PO437308  17.524  19.037   9.153
 7819POPC   GL137309  17.506  19.088   8.853
 7819POPC   GL237310  17.371  18.977   8.853
 7819POPC   C1A37311  17.496  19.018   8.553
 7819POPC   D2A37312  17.492  19.095   8.253
 7819POPC   C3A37313  17.543  19.096   7.953
 7819POPC   C4A37314  17.511  19.015   7.653
 7819POPC   C1B37315  17.267  18.962   8.553
 7819POPC   C2B37316  17.249  18.931   8.253
 7819POPC   C3B37317  17.287  18.947   7.953
 7819POPC   C4B37318  17.321  18.905   7.653
 7820POPC   NC337319   5.128  15.191   9.453
 7820POPC   PO437320   5.078  15.184   9.153
 7820POPC   GL137321   5.113  15.226   8.853
 7820POPC   GL237322   5.209  15.205   8.853
 7820POPC   C1A37323   5.140  15.167   8.553
 7820POPC   D2A37324   5.132  15.175   8.253
 7820POPC   C3A37325   5.142  15.198   7.953
 7820POPC   C4A37326   5.106  15.144   7.653
 7820POPC   C1B37327   5.372  15.124   8.553
 7820POPC   C2B37328   5.364  15.123   8.253
 7820POPC   C3B37329   5.360  15.122   7.953
 7820POPC   C4B37330   5.383  15.167   7.653
 7821POPC   NC337331   3.590  13.646   9.453
 7821POPC   PO437332   3.536  13.644   9.153
 7821POPC   GL137333   3.516  13.578   8.853
 7821POPC   GL237334   3.604  13.502   8.853
 7821POPC   C1A37335   3.537  13.579   8.553
 7821POPC   D2A37336   3.506  13.657   8.253
 7821POPC   C3A37337   3.565  13.657   7.953
 7821POPC   C4A37338   3.497  13.651   7.653
 7821POPC   C1B37339   3.645  13.393   8.553
 7821POPC   C2B37340   3.601  13.416   8.253
 7821POPC   C3B37341   3.614  13.403   7.953
 7821POPC   C4B37342   3.663  13.385   7.653
 7822POPC   NC337343   0.461  38.478   9.453
 7822POPC   PO437344   0.458  38.493   9.153
 7822POPC   GL137345   0.476  38.431   8.853
 7822POPC   GL237346   0.469  38.554   8.853
 7822POPC   C1A37347   0.420  38.439   8.553
 7822POPC   D2A37348   0.465  38.454   8.253
 7822POPC   C3A37349   0.431  38.406   7.953
 7822POPC   C4A37350   0.462  38.488   7.653
 7822POPC   C1B37351   0.587  38.614   8.553
 7822POPC   C2B37352   0.544  38.704   8.253
 7822POPC   C3B37353   0.615  38.658   7.953
 7822POPC   C4B37354   0.602  38.700   7.653
 7823POPC   NC337355   9.770  12.855   9.453
 7823POPC   PO437356   9.724  12.811   9.153
 7823POPC   GL137357   9.735  12.853   8.853
 7823POPC   GL237358   9.590  12.867   8.853
 7823POPC   C1A37359   9.775  12.818   8.553
 7823POPC   D2A37360   9.712  12.879   8.253
 7823POPC   C3A37361   9.784  12.861   7.953
 7823POPC   C4A37362   9.703  12.843   7.653
 7823POPC   C1B37363   9.536  12.806   8.553
 7823POPC   C2B37364   9.535  12.837   8.253
 7823POPC   C3B37365   9.502  12.850   7.953
 7823POPC   C4B37366   9.499  12.759   7.653
 7824POPC   NC337367  24.525   4.366   9.453
 7824POPC   PO437368  24.484   4.273   9.153
 7824POPC   GL137369  24.523   4.317   8.853
 7824POPC   GL237370  24.535   4.451   8.853
 7824POPC   C1A37371  24.456   4.272   8.553
 7824POPC   D2A37372  24.525   4.300   8.253
 7824POPC   C3A37373  24.509   4.297   7.953
 7824POPC   C4A37374  24.454   4.333   7.653
 7824POPC   C1B37375  24.603   4.509   8.553
 7824POPC   C2B37376  24.579   4.538   8.253
 7824POPC   C3B37377  24.614   4.545   7.953
 7824POPC   C4B37378  24.577   4.519   7.653
 7825POPC   NC337379   7.455  18.256   9.453
 7825POPC   PO437380   7.423  18.287   9.153
 7825POPC   GL137381   7.422  18.274   8.853
 7825POPC   GL237382   7.384  18.444   8.853
 7825POPC   C1A37383   7.408  18.318   8.553
 7825POPC   D2A37384   7.425  18.313   8.253
 7825POPC   C3A37385   7.380  18.254   7.953
 7825POPC   C4A37386   7.445  18.234   7.653
 7825POPC   C1B37387   7.387  18.486   8.553
 7825POPC   C2B37388   7.397  18.497   8.253
 7825POPC   C3B37389   7.407  18.506   7.953
 7825POPC   C4B37390   7.355  18.497   7.653
 7826POPC   NC337391  36.904  28.343   9.453
 7826POPC   PO437392  36.946  28.417   9.153
 7826POPC   GL137393  36.860  28.415   8.853
 7826POPC   GL237394  37.055  28.411   8.853
 7826POPC   C1A37395  36.898  28.412   8.553
 7826POPC   D2A37396  36.888  28.323   8.253
 7826POPC   C3A37397  36.943  28.398   7.953
 7826POPC   C4A37398  36.902  28.320   7.653
 7826POPC   C1B37399  37.176  28.485   8.553
 7826POPC   C2B37400  37.158  28.498   8.253
 7826POPC   C3B37401  37.090  28.496   7.953
 7826POPC   C4B37402  37.169  28.421   7.653
 7827POPC   NC337403   8.233  34.529   9.453
 7827POPC   PO437404   8.241  34.553   9.153
 7827POPC   GL137405   8.224  34.604   8.853
 7827POPC   GL237406   8.151  34.700   8.853
 7827POPC   C1A37407   8.240  34.534   8.553
 7827POPC   D2A37408   8.247  34.567   8.253
 7827POPC   C3A37409   8.245  34.566   7.953
 7827POPC   C4A37410   8.218  34.600   7.653
 7827POPC   C1B37411   8.246  34.856   8.553
 7827POPC   C2B37412   8.212  34.854   8.253
 7827POPC   C3B37413   8.169  34.852   7.953
 7827POPC   C4B37414   8.234  34.788   7.653
 7828POPC   NC337415  12.042  41.577   9.453
 7828POPC   PO437416  12.029  41.568   9.153
 7828POPC   GL137417  12.037  41.605   8.853
 7828POPC   GL237418  12.149  41.636   8.853
 7828POPC   C1A37419  12.087  41.597   8.553
 7828POPC   D2A37420  12.105  41.579   8.253
 7828POPC   C3A37421  12.086  41.597   7.953
 7828POPC   C4A37422  12.080  41.558   7.653
 7828POPC   C1B37423  12.225  41.717   8.553
 7828POPC   C2B37424  12.232  41.719   8.253
 7828POPC   C3B37425  12.251  41.676   7.953
 7828POPC   C4B37426  12.255  41.735   7.653
 7829POPC   NC337427  16.726   3.532   9.453
 7829POPC   PO437428  16.729   3.546   9.153
 7829POPC   GL137429  16.748   3.504   8.853
 7829POPC   GL237430  16.626   3.485   8.853
 7829POPC   C1A37431  16.774   3.511   8.553
 7829POPC   D2A37432  16.711   3.558   8.253
 7829POPC   C3A37433  16.720   3.513   7.953
 7829POPC   C4A37434  16.695   3.564   7.653
 7829POPC   C1B37435  16.510   3.354   8.553
 7829POPC   C2B37436  16.572   3.408   8.253
 7829POPC   C3B37437  16.533   3.420   7.953
 7829POPC   C4B37438  16.526   3.408   7.653
 7830POPC   NC337439  22.962   1.250   9.453
 7830POPC   PO437440  22.926   1.165   9.153
 7830POPC   GL137441  22.904   1.235   8.853
 7830POPC   GL237442  22.877   1.114   8.853
 7830POPC   C1A37443  22.938   1.198   8.553
 7830POPC   D2A37444  22.945   1.231   8.253
 7830POPC   C3A37445  22.973   1.247   7.953
 7830POPC   C4A37446  22.920   1.213   7.653
 7830POPC   C1B37447  22.744   1.008   8.553
 7830POPC   C2B37448  22.791   0.995   8.253
 7830POPC   C3B37449  22.833   1.043   7.953
 7830POPC   C4B37450  22.777   1.058   7.653
 7831POPC   NC337451   8.207  22.142   9.453
 7831POPC   PO437452   8.221  22.150   9.153
 7831POPC   GL137453   8.207  22.151   8.853
 7831POPC   GL237454   8.074  22.175   8.853
 7831POPC   C1A37455   8.192  22.119   8.553
 7831POPC   D2A37456   8.161  22.170   8.253
 7831POPC   C3A37457   8.187  22.134   7.953
 7831POPC   C4A37458   8.179  22.160   7.653
 7831POPC   C1B37459   7.949  22.320   8.553
 7831POPC   C2B37460   7.944  22.264   8.253
 7831POPC   C3B37461   7.976  22.244   7.953
 7831POPC   C4B37462   7.955  22.264   7.653
 7832POPC   NC337463  30.711  36.166   9.453
 7832POPC   PO437464  30.672  36.137   9.153
 7832POPC   GL137465  30.707  36.113   8.853
 7832POPC   GL237466  30.697  36.055   8.853
 7832POPC   C1A37467  30.701  36.090   8.553
 7832POPC   D2A37468  30.647  36.159   8.253
 7832POPC   C3A37469  30.712  36.155   7.953
 7832POPC   C4A37470  30.722  36.111   7.653
 7832POPC   C1B37471  30.812  35.938   8.553
 7832POPC   C2B37472  30.737  35.849   8.253
 7832POPC   C3B37473  30.765  35.850   7.953
 7832POPC   C4B37474  30.757  35.887   7.653
 7833POPC   NC337475  26.770  15.141   9.453
 7833POPC   PO437476  26.790  15.226   9.153
 7833POPC   GL137477  26.803  15.179   8.853
 7833POPC   GL237478  26.671  15.216   8.853
 7833POPC   C1A37479  26.864  15.159   8.553
 7833POPC   D2A37480  26.791  15.187   8.253
 7833POPC   C3A37481  26.838  15.208   7.953
 7833POPC   C4A37482  26.834  15.193   7.653
 7833POPC   C1B37483  26.624  15.270   8.553
 7833POPC   C2B37484  26.613  15.238   8.253
 7833POPC   C3B37485  26.543  15.273   7.953
 7833POPC   C4B37486  26.546  15.315   7.653
 7834POPC   NC337487  15.219  19.809   9.453
 7834POPC   PO437488  15.208  19.877   9.153
 7834POPC   GL137489  15.173  19.861   8.853
 7834POPC   GL237490  15.191  19.955   8.853
 7834POPC   C1A37491  15.199  19.872   8.553
 7834POPC   D2A37492  15.184  19.872   8.253
 7834POPC   C3A37493  15.200  19.841   7.953
 7834POPC   C4A37494  15.198  19.870   7.653
 7834POPC   C1B37495  15.224  20.091   8.553
 7834POPC   C2B37496  15.189  20.046   8.253
 7834POPC   C3B37497  15.262  20.126   7.953
 7834POPC   C4B37498  15.185  20.039   7.653
 7835POPC   NC337499  27.595  40.057   9.453
 7835POPC   PO437500  27.628  40.055   9.153
 7835POPC   GL137501  27.608  40.004   8.853
 7835POPC   GL237502  27.433  39.974   8.853
 7835POPC   C1A37503  27.554  40.025   8.553
 7835POPC   D2A37504  27.601  39.982   8.253
 7835POPC   C3A37505  27.589  39.984   7.953
 7835POPC   C4A37506  27.603  39.980   7.653
 7835POPC   C1B37507  27.355  39.959   8.553
 7835POPC   C2B37508  27.335  39.934   8.253
 7835POPC   C3B37509  27.408  39.917   7.953
 7835POPC   C4B37510  27.349  39.883   7.653
 7836POPC   NC337511  41.541  37.648   9.453
 7836POPC   PO437512  41.555  37.653   9.153
 7836POPC   GL137513  41.570  37.638   8.853
 7836POPC   GL237514  41.415  37.690   8.853
 7836POPC   C1A37515  41.510  37.636   8.553
 7836POPC   D2A37516  41.590  37.667   8.253
 7836POPC   C3A37517  41.564  37.703   7.953
 7836POPC   C4A37518  41.526  37.647   7.653
 7836POPC   C1B37519  41.289  37.778   8.553
 7836POPC   C2B37520  41.322  37.773   8.253
 7836POPC   C3B37521  41.364  37.729   7.953
 7836POPC   C4B37522  41.338  37.787   7.653
 7837POPC   NC337523   5.063  34.597   9.453
 7837POPC   PO437524   5.091  34.608   9.153
 7837POPC   GL137525   5.055  34.555   8.853
 7837POPC   GL237526   5.166  34.697   8.853
 7837POPC   C1A37527   5.052  34.556   8.553
 7837POPC   D2A37528   5.073  34.547   8.253
 7837POPC   C3A37529   5.099  34.596   7.953
 7837POPC   C4A37530   5.048  34.613   7.653
 7837POPC   C1B37531   5.181  34.781   8.553
 7837POPC   C2B37532   5.242  34.851   8.253
 7837POPC   C3B37533   5.169  34.808   7.953
 7837POPC   C4B37534   5.208  34.770   7.653
 7838POPC   NC337535  15.132  35.343   9.453
 7838POPC   PO437536  15.183  35.333   9.153
 7838POPC   GL137537  15.159  35.387   8.853
 7838POPC   GL237538  15.245  35.254   8.853
 7838POPC   C1A37539  15.213  35.304   8.553
 7838POPC   D2A37540  15.160  35.345   8.253
 7838POPC   C3A37541  15.130  35.312   7.953
 7838POPC   C4A37542  15.188  35.378   7.653
 7838POPC   C1B37543  15.292  35.127   8.553
 7838POPC   C2B37544  15.333  35.159   8.253
 7838POPC   C3B37545  15.313  35.138   7.953
 7838POPC   C4B37546  15.296  35.142   7.653
 7839POPC   NC337547   5.871  24.470   9.453
 7839POPC   PO437548   5.889  24.456   9.153
 7839POPC   GL137549   5.834  24.527   8.853
 7839POPC   GL237550   5.718  24.548   8.853
 7839POPC   C1A37551   5.890  24.461   8.553
 7839POPC   D2A37552   5.917  24.500   8.253
 7839POPC   C3A37553   5.822  24.478   7.953
 7839POPC   C4A37554   5.828  24.521   7.653
 7839POPC   C1B37555   5.578  24.478   8.553
 7839POPC   C2B37556   5.648  24.462   8.253
 7839POPC   C3B37557   5.576  24.469   7.953
 7839POPC   C4B37558   5.644  24.477   7.653
 7840POPC   NC337559  32.278  24.484   9.453
 7840POPC   PO437560  32.238  24.475   9.153
 7840POPC   GL137561  32.278  24.502   8.853
 7840POPC   GL237562  32.178  24.531   8.853
 7840POPC   C1A37563  32.257  24.537   8.553
 7840POPC   D2A37564  32.233  24.521   8.253
 7840POPC   C3A37565  32.203  24.506   7.953
 7840POPC   C4A37566  32.294  24.458   7.653
 7840POPC   C1B37567  32.012  24.534   8.553
 7840POPC   C2B37568  31.964  24.553   8.253
 7840POPC   C3B37569  31.989  24.532   7.953
 7840POPC   C4B37570  32.000  24.556   7.653
 7841POPC   NC337571  43.896  22.977   9.453
 7841POPC   PO437572  43.872  22.962   9.153
 7841POPC   GL137573  43.844  22.986   8.853
 7841POPC   GL237574  43.827  22.907   8.853
 7841POPC   C1A37575  43.886  22.904   8.553
 7841POPC   D2A37576  43.843  22.969   8.253
 7841POPC   C3A37577  43.838  22.966   7.953
 7841POPC   C4A37578  43.891  22.890   7.653
 7841POPC   C1B37579  43.725  22.777   8.553
 7841POPC   C2B37580  43.659  22.779   8.253
 7841POPC   C3B37581  43.730  22.750   7.953
 7841POPC   C4B37582  43.681  22.765   7.653
 7842POPC   NC337583  15.947  12.858   9.453
 7842POPC   PO437584  15.996  12.849   9.153
 7842POPC   GL137585  15.983  12.846   8.853
 7842POPC   GL237586  15.949  12.949   8.853
 7842POPC   C1A37587  15.979  12.847   8.553
 7842POPC   D2A37588  15.975  12.867   8.253
 7842POPC   C3A37589  15.940  12.860   7.953
 7842POPC   C4A37590  15.952  12.834   7.653
 7842POPC   C1B37591  16.013  13.046   8.553
 7842POPC   C2B37592  16.002  13.088   8.253
 7842POPC   C3B37593  16.010  13.053   7.953
 7842POPC   C4B37594  16.055  13.099   7.653
 7843POPC   NC337595  17.482  15.176   9.453
 7843POPC   PO437596  17.487  15.135   9.153
 7843POPC   GL137597  17.536  15.210   8.853
 7843POPC   GL237598  17.665  15.142   8.853
 7843POPC   C1A37599  17.531  15.162   8.553
 7843POPC   D2A37600  17.519  15.163   8.253
 7843POPC   C3A37601  17.481  15.179   7.953
 7843POPC   C4A37602  17.538  15.144   7.653
 7843POPC   C1B37603  17.752  15.208   8.553
 7843POPC   C2B37604  17.779  15.156   8.253
 7843POPC   C3B37605  17.707  15.178   7.953
 7843POPC   C4B37606  17.796  15.182   7.653
 7844POPC   NC337607  43.863  25.272   9.453
 7844POPC   PO437608  43.927  25.231   9.153
 7844POPC   GL137609  43.885  25.297   8.853
 7844POPC   GL237610  43.757  25.241   8.853
 7844POPC   C1A37611  43.841  25.237   8.553
 7844POPC   D2A37612  43.933  25.295   8.253
 7844POPC   C3A37613  43.849  25.288   7.953
 7844POPC   C4A37614  43.888  25.267   7.653
 7844POPC   C1B37615  43.664  25.163   8.553
 7844POPC   C2B37616  43.663  25.124   8.253
 7844POPC   C3B37617  43.711  25.110   7.953
 7844POPC   C4B37618  43.702  25.150   7.653
 7845POPC   NC337619   8.241  28.337   9.453
 7845POPC   PO437620   8.178  28.379   9.153
 7845POPC   GL137621   8.191  28.333   8.853
 7845POPC   GL237622   8.069  28.423   8.853
 7845POPC   C1A37623   8.166  28.380   8.553
 7845POPC   D2A37624   8.226  28.372   8.253
 7845POPC   C3A37625   8.178  28.352   7.953
 7845POPC   C4A37626   8.157  28.374   7.653
 7845POPC   C1B37627   8.061  28.554   8.553
 7845POPC   C2B37628   8.019  28.543   8.253
 7845POPC   C3B37629   7.988  28.520   7.953
 7845POPC   C4B37630   7.986  28.557   7.653
 7846POPC   NC337631  35.355   5.908   9.453
 7846POPC   PO437632  35.302   5.821   9.153
 7846POPC   GL137633  35.385   5.859   8.853
 7846POPC   GL237634  35.369   5.705   8.853
 7846POPC   C1A37635  35.316   5.872   8.553
 7846POPC   D2A37636  35.330   5.830   8.253
 7846POPC   C3A37637  35.378   5.868   7.953
 7846POPC   C4A37638  35.328   5.866   7.653
 7846POPC   C1B37639  35.410   5.594   8.553
 7846POPC   C2B37640  35.415   5.612   8.253
 7846POPC   C3B37641  35.380   5.581   7.953
 7846POPC   C4B37642  35.412   5.661   7.653
 7847POPC   NC337643  33.771  22.119   9.453
 7847POPC   PO437644  33.760  22.140   9.153
 7847POPC   GL137645  33.834  22.141   8.853
 7847POPC   GL237646  33.670  22.171   8.853
 7847POPC   C1A37647  33.781  22.174   8.553
 7847POPC   D2A37648  33.850  22.188   8.253
 7847POPC   C3A37649  33.778  22.141   7.953
 7847POPC   C4A37650  33.832  22.185   7.653
 7847POPC   C1B37651  33.573  22.094   8.553
 7847POPC   C2B37652  33.523  22.161   8.253
 7847POPC   C3B37653  33.553  22.140   7.953
 7847POPC   C4B37654  33.510  22.103   7.653
 7848POPC   NC337655  13.654  16.751   9.453
 7848POPC   PO437656  13.610  16.767   9.153
 7848POPC   GL137657  13.594  16.755   8.853
 7848POPC   GL237658  13.740  16.867   8.853
 7848POPC   C1A37659  13.594  16.711   8.553
 7848POPC   D2A37660  13.599  16.708   8.253
 7848POPC   C3A37661  13.597  16.726   7.953
 7848POPC   C4A37662  13.598  16.728   7.653
 7848POPC   C1B37663  13.805  16.954   8.553
 7848POPC   C2B37664  13.768  16.899   8.253
 7848POPC   C3B37665  13.814  16.909   7.953
 7848POPC   C4B37666  13.778  16.896   7.653
 7849POPC   NC337667  40.054  26.086   9.453
 7849POPC   PO437668  39.990  25.998   9.153
 7849POPC   GL137669  39.988  26.009   8.853
 7849POPC   GL237670  40.080  25.986   8.853
 7849POPC   C1A37671  39.996  26.061   8.553
 7849POPC   D2A37672  40.012  26.056   8.253
 7849POPC   C3A37673  39.968  26.085   7.953
 7849POPC   C4A37674  40.029  26.065   7.653
 7849POPC   C1B37675  40.204  25.957   8.553
 7849POPC   C2B37676  40.236  25.890   8.253
 7849POPC   C3B37677  40.220  25.892   7.953
 7849POPC   C4B37678  40.181  25.909   7.653
 7850POPC   NC337679  23.692   5.835   9.453
 7850POPC   PO437680  23.741   5.878   9.153
 7850POPC   GL137681  23.673   5.829   8.853
 7850POPC   GL237682  23.836   5.888   8.853
 7850POPC   C1A37683  23.738   5.888   8.553
 7850POPC   D2A37684  23.723   5.821   8.253
 7850POPC   C3A37685  23.711   5.912   7.953
 7850POPC   C4A37686  23.671   5.858   7.653
 7850POPC   C1B37687  23.987   5.988   8.553
 7850POPC   C2B37688  23.964   5.972   8.253
 7850POPC   C3B37689  23.925   5.974   7.953
 7850POPC   C4B37690  23.903   6.005   7.653
 7851POPC   NC337691  33.837   0.466   9.453
 7851POPC   PO437692  33.752   0.447   9.153
 7851POPC   GL137693  33.831   0.431   8.853
 7851POPC   GL237694  33.877   0.330   8.853
 7851POPC   C1A37695  33.767   0.472   8.553
 7851POPC   D2A37696  33.831   0.438   8.253
 7851POPC   C3A37697  33.769   0.430   7.953
 7851POPC   C4A37698  33.764   0.458   7.653
 7851POPC   C1B37699  33.940   0.209   8.553
 7851POPC   C2B37700  33.941   0.298   8.253
 7851POPC   C3B37701  33.959   0.226   7.953
 7851POPC   C4B37702  33.954   0.217   7.653
 7852POPC   NC337703  25.286  25.308   9.453
 7852POPC   PO437704  25.309  25.237   9.153
 7852POPC   GL137705  25.260  25.244   8.853
 7852POPC   GL237706  25.349  25.377   8.853
 7852POPC   C1A37707  25.314  25.269   8.553
 7852POPC   D2A37708  25.248  25.274   8.253
 7852POPC   C3A37709  25.260  25.301   7.953
 7852POPC   C4A37710  25.229  25.276   7.653
 7852POPC   C1B37711  25.451  25.416   8.553
 7852POPC   C2B37712  25.480  25.484   8.253
 7852POPC   C3B37713  25.421  25.473   7.953
 7852POPC   C4B37714  25.483  25.458   7.653
 7853POPC   NC337715  16.729  16.750   9.453
 7853POPC   PO437716  16.777  16.683   9.153
 7853POPC   GL137717  16.713  16.705   8.853
 7853POPC   GL237718  16.691  16.588   8.853
 7853POPC   C1A37719  16.774  16.758   8.553
 7853POPC   D2A37720  16.689  16.720   8.253
 7853POPC   C3A37721  16.730  16.685   7.953
 7853POPC   C4A37722  16.735  16.701   7.653
 7853POPC   C1B37723  16.652  16.522   8.553
 7853POPC   C2B37724  16.605  16.537   8.253
 7853POPC   C3B37725  16.649  16.484   7.953
 7853POPC   C4B37726  16.587  16.524   7.653
 7854POPC   NC337727  37.729  23.701   9.453
 7854POPC   PO437728  37.670  23.763   9.153
 7854POPC   GL137729  37.714  23.701   8.853
 7854POPC   GL237730  37.722  23.610   8.853
 7854POPC   C1A37731  37.672  23.753   8.553
 7854POPC   D2A37732  37.638  23.757   8.253
 7854POPC   C3A37733  37.635  23.755   7.953
 7854POPC   C4A37734  37.647  23.741   7.653
 7854POPC   C1B37735  37.830  23.501   8.553
 7854POPC   C2B37736  37.815  23.486   8.253
 7854POPC   C3B37737  37.845  23.487   7.953
 7854POPC   C4B37738  37.799  23.482   7.653
 7855POPC   NC337739  28.323   2.009   9.453
 7855POPC   PO437740  28.378   2.034   9.153
 7855POPC   GL137741  28.365   1.970   8.853
 7855POPC   GL237742  28.504   2.075   8.853
 7855POPC   C1A37743  28.399   2.026   8.553
 7855POPC   D2A37744  28.378   1.962   8.253
 7855POPC   C3A37745  28.402   1.950   7.953
 7855POPC   C4A37746  28.338   1.979   7.653
 7855POPC   C1B37747  28.593   2.170   8.553
 7855POPC   C2B37748  28.602   2.104   8.253
 7855POPC   C3B37749  28.591   2.188   7.953
 7855POPC   C4B37750  28.607   2.129   7.653
 7856POPC   NC337751   3.513  15.939   9.453
 7856POPC   PO437752   3.555  15.913   9.153
 7856POPC   GL137753   3.497  15.921   8.853
 7856POPC   GL237754   3.522  16.117   8.853
 7856POPC   C1A37755   3.540  15.917   8.553
 7856POPC   D2A37756   3.550  15.959   8.253
 7856POPC   C3A37757   3.538  15.994   7.953
 7856POPC   C4A37758   3.545  15.927   7.653
 7856POPC   C1B37759   3.393  16.171   8.553
 7856POPC   C2B37760   3.393  16.181   8.253
 7856POPC   C3B37761   3.447  16.153   7.953
 7856POPC   C4B37762   3.410  16.168   7.653
 7857POPC   NC337763  30.679   1.994   9.453
 7857POPC   PO437764  30.686   1.990   9.153
 7857POPC   GL137765  30.741   1.954   8.853
 7857POPC   GL237766  30.561   2.048   8.853
 7857POPC   C1A37767  30.724   2.016   8.553
 7857POPC   D2A37768  30.702   1.947   8.253
 7857POPC   C3A37769  30.744   1.969   7.953
 7857POPC   C4A37770  30.690   1.983   7.653
 7857POPC   C1B37771  30.464   2.062   8.553
 7857POPC   C2B37772  30.508   2.074   8.253
 7857POPC   C3B37773  30.439   2.113   7.953
 7857POPC   C4B37774  30.435   2.075   7.653
 7858POPC   NC337775   4.335  14.448   9.453
 7858POPC   PO437776   4.323  14.408   9.153
 7858POPC   GL137777   4.286  14.357   8.853
 7858POPC   GL237778   4.193  14.366   8.853
 7858POPC   C1A37779   4.354  14.384   8.553
 7858POPC   D2A37780   4.304  14.430   8.253
 7858POPC   C3A37781   4.349  14.387   7.953
 7858POPC   C4A37782   4.320  14.436   7.653
 7858POPC   C1B37783   4.047  14.395   8.553
 7858POPC   C2B37784   4.087  14.460   8.253
 7858POPC   C3B37785   4.047  14.403   7.953
 7858POPC   C4B37786   4.021  14.407   7.653
 7859POPC   NC337787  10.565  41.605   9.453
 7859POPC   PO437788  10.567  41.514   9.153
 7859POPC   GL137789  10.567  41.517   8.853
 7859POPC   GL237790  10.426  41.654   8.853
 7859POPC   C1A37791  10.540  41.595   8.553
 7859POPC   D2A37792  10.491  41.561   8.253
 7859POPC   C3A37793  10.502  41.529   7.953
 7859POPC   C4A37794  10.476  41.549   7.653
 7859POPC   C1B37795  10.299  41.738   8.553
 7859POPC   C2B37796  10.313  41.735   8.253
 7859POPC   C3B37797  10.349  41.665   7.953
 7859POPC   C4B37798  10.271  41.718   7.653
 7860POPC   NC337799  17.542  17.549   9.453
 7860POPC   PO437800  17.465  17.463   9.153
 7860POPC   GL137801  17.545  17.491   8.853
 7860POPC   GL237802  17.430  17.419   8.853
 7860POPC   C1A37803  17.499  17.487   8.553
 7860POPC   D2A37804  17.519  17.508   8.253
 7860POPC   C3A37805  17.518  17.553   7.953
 7860POPC   C4A37806  17.485  17.460   7.653
 7860POPC   C1B37807  17.328  17.376   8.553
 7860POPC   C2B37808  17.289  17.371   8.253
 7860POPC   C3B37809  17.281  17.350   7.953
 7860POPC   C4B37810  17.361  17.349   7.653
 7861POPC   NC337811  37.683  19.108   9.453
 7861POPC   PO437812  37.720  19.100   9.153
 7861POPC   GL137813  37.631  19.107   8.853
 7861POPC   GL237814  37.799  19.145   8.853
 7861POPC   C1A37815  37.682  19.095   8.553
 7861POPC   D2A37816  37.712  19.062   8.253
 7861POPC   C3A37817  37.687  19.085   7.953
 7861POPC   C4A37818  37.661  19.096   7.653
 7861POPC   C1B37819  37.888  19.206   8.553
 7861POPC   C2B37820  37.836  19.273   8.253
 7861POPC   C3B37821  37.811  19.271   7.953
 7861POPC   C4B37822  37.898  19.255   7.653
 7862POPC   NC337823  13.643  36.157   9.453
 7862POPC   PO437824  13.675  36.122   9.153
 7862POPC   GL137825  13.665  36.122   8.853
 7862POPC   GL237826  13.731  36.135   8.853
 7862POPC   C1A37827  13.593  36.125   8.553
 7862POPC   D2A37828  13.582  36.175   8.253
 7862POPC   C3A37829  13.588  36.165   7.953
 7862POPC   C4A37830  13.587  36.126   7.653
 7862POPC   C1B37831  13.842  36.170   8.553
 7862POPC   C2B37832  13.823  36.249   8.253
 7862POPC   C3B37833  13.875  36.201   7.953
 7862POPC   C4B37834  13.813  36.199   7.653
 7863POPC   NC337835  28.353  36.156   9.453
 7863POPC   PO437836  28.406  36.157   9.153
 7863POPC   GL137837  28.353  36.111   8.853
 7863POPC   GL237838  28.247  36.020   8.853
 7863POPC   C1A37839  28.329  36.157   8.553
 7863POPC   D2A37840  28.344  36.160   8.253
 7863POPC   C3A37841  28.375  36.154   7.953
 7863POPC   C4A37842  28.353  36.130   7.653
 7863POPC   C1B37843  28.234  35.958   8.553
 7863POPC   C2B37844  28.270  35.929   8.253
 7863POPC   C3B37845  28.253  35.881   7.953
 7863POPC   C4B37846  28.243  35.912   7.653
 7864POPC   NC337847  26.824  40.821   9.453
 7864POPC   PO437848  26.776  40.793   9.153
 7864POPC   GL137849  26.835  40.743   8.853
 7864POPC   GL237850  26.678  40.775   8.853
 7864POPC   C1A37851  26.810  40.812   8.553
 7864POPC   D2A37852  26.774  40.744   8.253
 7864POPC   C3A37853  26.841  40.778   7.953
 7864POPC   C4A37854  26.781  40.764   7.653
 7864POPC   C1B37855  26.534  40.862   8.553
 7864POPC   C2B37856  26.553  40.863   8.253
 7864POPC   C3B37857  26.538  40.853   7.953
 7864POPC   C4B37858  26.563  40.821   7.653
 7865POPC   NC337859   9.713  29.108   9.453
 7865POPC   PO437860   9.769  29.104   9.153
 7865POPC   GL137861   9.748  29.181   8.853
 7865POPC   GL237862   9.857  29.194   8.853
 7865POPC   C1A37863   9.713  29.194   8.553
 7865POPC   D2A37864   9.723  29.134   8.253
 7865POPC   C3A37865   9.759  29.108   7.953
 7865POPC   C4A37866   9.727  29.137   7.653
 7865POPC   C1B37867   9.966  29.147   8.553
 7865POPC   C2B37868  10.034  29.117   8.253
 7865POPC   C3B37869   9.952  29.196   7.953
 7865POPC   C4B37870   9.980  29.135   7.653
 7866POPC   NC337871  13.673  41.526   9.453
 7866POPC   PO437872  13.660  41.576   9.153
 7866POPC   GL137873  13.585  41.593   8.853
 7866POPC   GL237874  13.527  41.480   8.853
 7866POPC   C1A37875  13.629  41.526   8.553
 7866POPC   D2A37876  13.667  41.573   8.253
 7866POPC   C3A37877  13.594  41.541   7.953
 7866POPC   C4A37878  13.670  41.538   7.653
 7866POPC   C1B37879  13.396  41.501   8.553
 7866POPC   C2B37880  13.406  41.509   8.253
 7866POPC   C3B37881  13.351  41.484   7.953
 7866POPC   C4B37882  13.422  41.514   7.653
 7867POPC   NC337883  28.358  35.388   9.453
 7867POPC   PO437884  28.337  35.374   9.153
 7867POPC   GL137885  28.367  35.311   8.853
 7867POPC   GL237886  28.507  35.429   8.853
 7867POPC   C1A37887  28.402  35.312   8.553
 7867POPC   D2A37888  28.413  35.375   8.253
 7867POPC   C3A37889  28.323  35.344   7.953
 7867POPC   C4A37890  28.367  35.356   7.653
 7867POPC   C1B37891  28.588  35.472   8.553
 7867POPC   C2B37892  28.599  35.503   8.253
 7867POPC   C3B37893  28.564  35.507   7.953
 7867POPC   C4B37894  28.552  35.534   7.653
 7868POPC   NC337895   6.642  36.141   9.453
 7868POPC   PO437896   6.690  36.134   9.153
 7868POPC   GL137897   6.632  36.110   8.853
 7868POPC   GL237898   6.624  36.027   8.853
 7868POPC   C1A37899   6.597  36.122   8.553
 7868POPC   D2A37900   6.676  36.108   8.253
 7868POPC   C3A37901   6.597  36.084   7.953
 7868POPC   C4A37902   6.676  36.120   7.653
 7868POPC   C1B37903   6.692  35.889   8.553
 7868POPC   C2B37904   6.726  35.884   8.253
 7868POPC   C3B37905   6.733  35.924   7.953
 7868POPC   C4B37906   6.727  35.892   7.653
 7869POPC   NC337907  33.803   7.424   9.453
 7869POPC   PO437908  33.786   7.389   9.153
 7869POPC   GL137909  33.830   7.444   8.853
 7869POPC   GL237910  33.651   7.354   8.853
 7869POPC   C1A37911  33.766   7.405   8.553
 7869POPC   D2A37912  33.775   7.383   8.253
 7869POPC   C3A37913  33.828   7.417   7.953
 7869POPC   C4A37914  33.802   7.389   7.653
 7869POPC   C1B37915  33.593   7.238   8.553
 7869POPC   C2B37916  33.594   7.298   8.253
 7869POPC   C3B37917  33.643   7.315   7.953
 7869POPC   C4B37918  33.564   7.232   7.653
 7870POPC   NC337919  13.608  26.085   9.453
 7870POPC   PO437920  13.641  26.066   9.153
 7870POPC   GL137921  13.660  26.066   8.853
 7870POPC   GL237922  13.613  25.883   8.853
 7870POPC   C1A37923  13.671  25.993   8.553
 7870POPC   D2A37924  13.646  26.076   8.253
 7870POPC   C3A37925  13.659  26.071   7.953
 7870POPC   C4A37926  13.665  26.003   7.653
 7870POPC   C1B37927  13.640  25.806   8.553
 7870POPC   C2B37928  13.680  25.828   8.253
 7870POPC   C3B37929  13.639  25.774   7.953
 7870POPC   C4B37930  13.682  25.834   7.653
 7871POPC   NC337931   9.728  39.229   9.453
 7871POPC   PO437932   9.765  39.261   9.153
 7871POPC   GL137933   9.727  39.268   8.853
 7871POPC   GL237934   9.719  39.097   8.853
 7871POPC   C1A37935   9.732  39.211   8.553
 7871POPC   D2A37936   9.702  39.244   8.253
 7871POPC   C3A37937   9.777  39.234   7.953
 7871POPC   C4A37938   9.739  39.253   7.653
 7871POPC   C1B37939   9.739  38.984   8.553
 7871POPC   C2B37940   9.656  39.010   8.253
 7871POPC   C3B37941   9.703  38.984   7.953
 7871POPC   C4B37942   9.682  38.987   7.653
 7872POPC   NC337943  16.707   0.425   9.453
 7872POPC   PO437944  16.704   0.403   9.153
 7872POPC   GL137945  16.765   0.485   8.853
 7872POPC   GL237946  16.764   0.569   8.853
 7872POPC   C1A37947  16.698   0.462   8.553
 7872POPC   D2A37948  16.692   0.416   8.253
 7872POPC   C3A37949  16.776   0.405   7.953
 7872POPC   C4A37950  16.688   0.394   7.653
 7872POPC   C1B37951  16.689   0.701   8.553
 7872POPC   C2B37952  16.733   0.650   8.253
 7872POPC   C3B37953  16.705   0.670   7.953
 7872POPC   C4B37954  16.699   0.679   7.653
 7873POPC   NC337955   8.955  12.851   9.453
 7873POPC   PO437956   9.015  12.847   9.153
 7873POPC   GL137957   8.982  12.816   8.853
 7873POPC   GL237958   9.085  12.776   8.853
 7873POPC   C1A37959   8.977  12.855   8.553
 7873POPC   D2A37960   8.983  12.854   8.253
 7873POPC   C3A37961   9.001  12.862   7.953
 7873POPC   C4A37962   8.997  12.854   7.653
 7873POPC   C1B37963   9.117  12.695   8.553
 7873POPC   C2B37964   9.211  12.713   8.253
 7873POPC   C3B37965   9.122  12.695   7.953
 7873POPC   C4B37966   9.164  12.699   7.653
 7874POPC   NC337967  14.413  14.423   9.453
 7874POPC   PO437968  14.402  14.414   9.153
 7874POPC   GL137969  14.368  14.404   8.853
 7874POPC   GL237970  14.298  14.350   8.853
 7874POPC   C1A37971  14.445  14.399   8.553
 7874POPC   D2A37972  14.394  14.411   8.253
 7874POPC   C3A37973  14.390  14.364   7.953
 7874POPC   C4A37974  14.403  14.432   7.653
 7874POPC   C1B37975  14.235  14.314   8.553
 7874POPC   C2B37976  14.189  14.245   8.253
 7874POPC   C3B37977  14.181  14.317   7.953
 7874POPC   C4B37978  14.206  14.231   7.653
 7875POPC   NC337979   6.683  16.727   9.453
 7875POPC   PO437980   6.677  16.727   9.153
 7875POPC   GL137981   6.684  16.766   8.853
 7875POPC   GL237982   6.692  16.570   8.853
 7875POPC   C1A37983   6.598  16.760   8.553
 7875POPC   D2A37984   6.627  16.773   8.253
 7875POPC   C3A37985   6.655  16.685   7.953
 7875POPC   C4A37986   6.617  16.698   7.653
 7875POPC   C1B37987   6.680  16.473   8.553
 7875POPC   C2B37988   6.655  16.491   8.253
 7875POPC   C3B37989   6.644  16.516   7.953
 7875POPC   C4B37990   6.629  16.475   7.653
 7876POPC   NC337991   7.468  42.368   9.453
 7876POPC   PO437992   7.461  42.304   9.153
 7876POPC   GL137993   7.463  42.312   8.853
 7876POPC   GL237994   7.489  42.237   8.853
 7876POPC   C1A37995   7.396  42.368   8.553
 7876POPC   D2A37996   7.454  42.298   8.253
 7876POPC   C3A37997   7.422  42.326   7.953
 7876POPC   C4A37998   7.407  42.333   7.653
 7876POPC   C1B37999   7.557  42.134   8.553
 7876POPC   C2B38000   7.513  42.128   8.253
 7876POPC   C3B38001   7.591  42.158   7.953
 7876POPC   C4B38002   7.515  42.091   7.653
 7877POPC   NC338003  44.646  43.117   9.453
 7877POPC   PO438004  44.710  43.094   9.153
 7877POPC   GL138005  44.646  43.080   8.853
 7877POPC   GL238006  44.605  43.282   8.853
 7877POPC   C1A38007  44.669  43.142   8.553
 7877POPC   D2A38008  44.706  43.067   8.253
 7877POPC   C3A38009  44.685  43.085   7.953
 7877POPC   C4A38010  44.703  43.073   7.653
 7877POPC   C1B38011  44.588  43.325   8.553
 7877POPC   C2B38012  44.626  43.353   8.253
 7877POPC   C3B38013  44.617  43.360   7.953
 7877POPC   C4B38014  44.616  43.338   7.653
 7878POPC   NC338015  36.925   5.820   9.453
 7878POPC   PO438016  36.890   5.913   9.153
 7878POPC   GL138017  36.880   5.917   8.853
 7878POPC   GL238018  36.752   5.866   8.853
 7878POPC   C1A38019  36.911   5.823   8.553
 7878POPC   D2A38020  36.901   5.832   8.253
 7878POPC   C3A38021  36.943   5.833   7.953
 7878POPC   C4A38022  36.897   5.859   7.653
 7878POPC   C1B38023  36.679   5.823   8.553
 7878POPC   C2B38024  36.625   5.790   8.253
 7878POPC   C3B38025  36.698   5.744   7.953
 7878POPC   C4B38026  36.636   5.788   7.653
 7879POPC   NC338027  15.995   6.649   9.453
 7879POPC   PO438028  15.955   6.618   9.153
 7879POPC   GL138029  15.969   6.692   8.853
 7879POPC   GL238030  15.980   6.758   8.853
 7879POPC   C1A38031  15.934   6.674   8.553
 7879POPC   D2A38032  15.966   6.636   8.253
 7879POPC   C3A38033  15.972   6.614   7.953
 7879POPC   C4A38034  15.939   6.613   7.653
 7879POPC   C1B38035  15.952   6.855   8.553
 7879POPC   C2B38036  16.040   6.877   8.253
 7879POPC   C3B38037  15.958   6.913   7.953
 7879POPC   C4B38038  16.024   6.880   7.653
 7880POPC   NC338039   6.619  43.149   9.453
 7880POPC   PO438040   6.636  43.155   9.153
 7880POPC   GL138041   6.612  43.070   8.853
 7880POPC   GL238042   6.554  43.199   8.853
 7880POPC   C1A38043   6.675  43.143   8.553
 7880POPC   D2A38044   6.658  43.122   8.253
 7880POPC   C3A38045   6.627  43.103   7.953
 7880POPC   C4A38046   6.690  43.067   7.653
 7880POPC   C1B38047   6.534  43.326   8.553
 7880POPC   C2B38048   6.491  43.356   8.253
 7880POPC   C3B38049   6.567  43.315   7.953
 7880POPC   C4B38050   6.523  43.333   7.653
 7881POPC   NC338051  19.079  27.555   9.453
 7881POPC   PO438052  19.035  27.625   9.153
 7881POPC   GL138053  19.019  27.588   8.853
 7881POPC   GL238054  19.068  27.488   8.853
 7881POPC   C1A38055  19.013  27.574   8.553
 7881POPC   D2A38056  19.070  27.554   8.253
 7881POPC   C3A38057  19.070  27.603   7.953
 7881POPC   C4A38058  19.067  27.550   7.653
 7881POPC   C1B38059  19.035  27.366   8.553
 7881POPC   C2B38060  19.047  27.390   8.253
 7881POPC   C3B38061  19.011  27.304   7.953
 7881POPC   C4B38062  19.019  27.343   7.653
 7882POPC   NC338063  39.193  16.716   9.453
 7882POPC   PO438064  39.217  16.721   9.153
 7882POPC   GL138065  39.243  16.699   8.853
 7882POPC   GL238066  39.363  16.725   8.853
 7882POPC   C1A38067  39.186  16.712   8.553
 7882POPC   D2A38068  39.242  16.707   8.253
 7882POPC   C3A38069  39.281  16.746   7.953
 7882POPC   C4A38070  39.195  16.747   7.653
 7882POPC   C1B38071  39.466  16.729   8.553
 7882POPC   C2B38072  39.504  16.718   8.253
 7882POPC   C3B38073  39.460  16.727   7.953
 7882POPC   C4B38074  39.496  16.709   7.653
 7883POPC   NC338075   4.342   0.432   9.453
 7883POPC   PO438076   4.303   0.471   9.153
 7883POPC   GL138077   4.271   0.464   8.853
 7883POPC   GL238078   4.282   0.513   8.853
 7883POPC   C1A38079   4.364   0.416   8.553
 7883POPC   D2A38080   4.355   0.416   8.253
 7883POPC   C3A38081   4.283   0.417   7.953
 7883POPC   C4A38082   4.283   0.394   7.653
 7883POPC   C1B38083   4.203   0.619   8.553
 7883POPC   C2B38084   4.165   0.660   8.253
 7883POPC   C3B38085   4.189   0.689   7.953
 7883POPC   C4B38086   4.236   0.636   7.653
 7884POPC   NC338087  22.208  30.724   9.453
 7884POPC   PO438088  22.133  30.745   9.153
 7884POPC   GL138089  22.199  30.694   8.853
 7884POPC   GL238090  22.155  30.531   8.853
 7884POPC   C1A38091  22.147  30.725   8.553
 7884POPC   D2A38092  22.199  30.710   8.253
 7884POPC   C3A38093  22.209  30.665   7.953
 7884POPC   C4A38094  22.144  30.743   7.653
 7884POPC   C1B38095  22.270  30.420   8.553
 7884POPC   C2B38096  22.231  30.410   8.253
 7884POPC   C3B38097  22.194  30.419   7.953
 7884POPC   C4B38098  22.208  30.429   7.653
 7885POPC   NC338099  31.488  22.975   9.453
 7885POPC   PO438100  31.476  22.951   9.153
 7885POPC   GL138101  31.442  22.983   8.853
 7885POPC   GL238102  31.553  23.039   8.853
 7885POPC   C1A38103  31.485  22.945   8.553
 7885POPC   D2A38104  31.511  22.922   8.253
 7885POPC   C3A38105  31.443  22.976   7.953
 7885POPC   C4A38106  31.434  22.969   7.653
 7885POPC   C1B38107  31.592  23.130   8.553
 7885POPC   C2B38108  31.654  23.140   8.253
 7885POPC   C3B38109  31.654  23.157   7.953
 7885POPC   C4B38110  31.603  23.128   7.653
 7886POPC   NC338111  33.004   4.340   9.453
 7886POPC   PO438112  33.043   4.341   9.153
 7886POPC   GL138113  32.988   4.281   8.853
 7886POPC   GL238114  32.965   4.392   8.853
 7886POPC   C1A38115  33.062   4.311   8.553
 7886POPC   D2A38116  33.026   4.306   8.253
 7886POPC   C3A38117  33.046   4.291   7.953
 7886POPC   C4A38118  33.054   4.320   7.653
 7886POPC   C1B38119  32.896   4.506   8.553
 7886POPC   C2B38120  32.965   4.498   8.253
 7886POPC   C3B38121  32.908   4.544   7.953
 7886POPC   C4B38122  32.897   4.559   7.653
 7887POPC   NC338123  31.489  33.825   9.453
 7887POPC   PO438124  31.468  33.805   9.153
 7887POPC   GL138125  31.438  33.784   8.853
 7887POPC   GL238126  31.610  33.804   8.853
 7887POPC   C1A38127  31.469  33.768   8.553
 7887POPC   D2A38128  31.436  33.838   8.253
 7887POPC   C3A38129  31.490  33.756   7.953
 7887POPC   C4A38130  31.502  33.799   7.653
 7887POPC   C1B38131  31.759  33.778   8.553
 7887POPC   C2B38132  31.679  33.790   8.253
 7887POPC   C3B38133  31.680  33.781   7.953
 7887POPC   C4B38134  31.737  33.835   7.653
 7888POPC   NC338135   1.947  13.588   9.453
 7888POPC   PO438136   2.036  13.626   9.153
 7888POPC   GL138137   2.014  13.600   8.853
 7888POPC   GL238138   2.088  13.644   8.853
 7888POPC   C1A38139   1.977  13.628   8.553
 7888POPC   D2A38140   1.990  13.670   8.253
 7888POPC   C3A38141   1.999  13.661   7.953
 7888POPC   C4A38142   2.010  13.633   7.653
 7888POPC   C1B38143   2.235  13.660   8.553
 7888POPC   C2B38144   2.244  13.727   8.253
 7888POPC   C3B38145   2.226  13.631   7.953
 7888POPC   C4B38146   2.267  13.693   7.653
 7889POPC   NC338147  12.820  37.664   9.453
 7889POPC   PO438148  12.844  37.716   9.153
 7889POPC   GL138149  12.861  37.682   8.853
 7889POPC   GL238150  12.888  37.560   8.853
 7889POPC   C1A38151  12.864  37.727   8.553
 7889POPC   D2A38152  12.843  37.636   8.253
 7889POPC   C3A38153  12.834  37.670   7.953
 7889POPC   C4A38154  12.841  37.651   7.653
 7889POPC   C1B38155  12.933  37.430   8.553
 7889POPC   C2B38156  12.911  37.481   8.253
 7889POPC   C3B38157  12.908  37.439   7.953
 7889POPC   C4B38158  13.000  37.464   7.653
 7890POPC   NC338159   2.813  42.307   9.453
 7890POPC   PO438160   2.807  42.312   9.153
 7890POPC   GL138161   2.770  42.359   8.853
 7890POPC   GL238162   2.673  42.326   8.853
 7890POPC   C1A38163   2.783  42.316   8.553
 7890POPC   D2A38164   2.763  42.300   8.253
 7890POPC   C3A38165   2.813  42.306   7.953
 7890POPC   C4A38166   2.726  42.375   7.653
 7890POPC   C1B38167   2.476  42.332   8.553
 7890POPC   C2B38168   2.469  42.287   8.253
 7890POPC   C3B38169   2.525  42.336   7.953
 7890POPC   C4B38170   2.549  42.309   7.653
 7891POPC   NC338171  27.544  40.823   9.453
 7891POPC   PO438172  27.551  40.817   9.153
 7891POPC   GL138173  27.578  40.792   8.853
 7891POPC   GL238174  27.461  40.862   8.853
 7891POPC   C1A38175  27.576  40.776   8.553
 7891POPC   D2A38176  27.598  40.796   8.253
 7891POPC   C3A38177  27.580  40.753   7.953
 7891POPC   C4A38178  27.634  40.766   7.653
 7891POPC   C1B38179  27.427  40.914   8.553
 7891POPC   C2B38180  27.379  40.948   8.253
 7891POPC   C3B38181  27.421  40.883   7.953
 7891POPC   C4B38182  27.429  40.912   7.653
 7892POPC   NC338183  20.604  35.321   9.453
 7892POPC   PO438184  20.607  35.384   9.153
 7892POPC   GL138185  20.601  35.371   8.853
 7892POPC   GL238186  20.547  35.485   8.853
 7892POPC   C1A38187  20.588  35.331   8.553
 7892POPC   D2A38188  20.582  35.364   8.253
 7892POPC   C3A38189  20.642  35.351   7.953
 7892POPC   C4A38190  20.645  35.351   7.653
 7892POPC   C1B38191  20.430  35.582   8.553
 7892POPC   C2B38192  20.456  35.558   8.253
 7892POPC   C3B38193  20.439  35.527   7.953
 7892POPC   C4B38194  20.446  35.542   7.653
 7893POPC   NC338195  13.632   4.348   9.453
 7893POPC   PO438196  13.611   4.365   9.153
 7893POPC   GL138197  13.672   4.301   8.853
 7893POPC   GL238198  13.622   4.187   8.853
 7893POPC   C1A38199  13.616   4.309   8.553
 7893POPC   D2A38200  13.599   4.274   8.253
 7893POPC   C3A38201  13.621   4.293   7.953
 7893POPC   C4A38202  13.670   4.343   7.653
 7893POPC   C1B38203  13.632   4.022   8.553
 7893POPC   C2B38204  13.604   4.069   8.253
 7893POPC   C3B38205  13.614   4.083   7.953
 7893POPC   C4B38206  13.666   4.038   7.653
 7894POPC   NC338207   6.622  13.667   9.453
 7894POPC   PO438208   6.658  13.662   9.153
 7894POPC   GL138209   6.624  13.673   8.853
 7894POPC   GL238210   6.605  13.739   8.853
 7894POPC   C1A38211   6.672  13.596   8.553
 7894POPC   D2A38212   6.617  13.615   8.253
 7894POPC   C3A38213   6.675  13.589   7.953
 7894POPC   C4A38214   6.620  13.634   7.653
 7894POPC   C1B38215   6.503  13.857   8.553
 7894POPC   C2B38216   6.584  13.838   8.253
 7894POPC   C3B38217   6.501  13.866   7.953
 7894POPC   C4B38218   6.540  13.876   7.653
 7895POPC   NC338219   4.270  37.676   9.453
 7895POPC   PO438220   4.312  37.706   9.153
 7895POPC   GL138221   4.354  37.713   8.853
 7895POPC   GL238222   4.341  37.596   8.853
 7895POPC   C1A38223   4.340  37.675   8.553
 7895POPC   D2A38224   4.268  37.717   8.253
 7895POPC   C3A38225   4.345  37.720   7.953
 7895POPC   C4A38226   4.293  37.709   7.653
 7895POPC   C1B38227   4.330  37.419   8.553
 7895POPC   C2B38228   4.330  37.468   8.253
 7895POPC   C3B38229   4.304  37.456   7.953
 7895POPC   C4B38230   4.320  37.450   7.653
 7896POPC   NC338231  13.581  43.906   9.453
 7896POPC   PO438232  13.653  43.924   9.153
 7896POPC   GL138233  13.656  43.909   8.853
 7896POPC   GL238234  13.667  44.036   8.853
 7896POPC   C1A38235  13.592  43.927   8.553
 7896POPC   D2A38236  13.648  43.903   8.253
 7896POPC   C3A38237  13.643  43.861   7.953
 7896POPC   C4A38238  13.661  43.885   7.653
 7896POPC   C1B38239  13.701  44.129   8.553
 7896POPC   C2B38240  13.674  44.112   8.253
 7896POPC   C3B38241  13.655  44.169   7.953
 7896POPC   C4B38242  13.691  44.125   7.653
 7897POPC   NC338243  15.132   5.862   9.453
 7897POPC   PO438244  15.223   5.886   9.153
 7897POPC   GL138245  15.165   5.834   8.853
 7897POPC   GL238246  15.268   5.856   8.853
 7897POPC   C1A38247  15.219   5.867   8.553
 7897POPC   D2A38248  15.211   5.851   8.253
 7897POPC   C3A38249  15.202   5.830   7.953
 7897POPC   C4A38250  15.178   5.883   7.653
 7897POPC   C1B38251  15.407   5.883   8.553
 7897POPC   C2B38252  15.447   5.855   8.253
 7897POPC   C3B38253  15.425   5.926   7.953
 7897POPC   C4B38254  15.474   5.849   7.653
 7898POPC   NC338255  29.908  18.251   9.453
 7898POPC   PO438256  29.911  18.276   9.153
 7898POPC   GL138257  29.913  18.304   8.853
 7898POPC   GL238258  29.965  18.387   8.853
 7898POPC   C1A38259  29.936  18.327   8.553
 7898POPC   D2A38260  29.913  18.329   8.253
 7898POPC   C3A38261  29.933  18.247   7.953
 7898POPC   C4A38262  29.908  18.332   7.653
 7898POPC   C1B38263  29.938  18.576   8.553
 7898POPC   C2B38264  29.961  18.518   8.253
 7898POPC   C3B38265  29.993  18.500   7.953
 7898POPC   C4B38266  30.002  18.531   7.653
 7899POPC   NC338267  18.315   7.390   9.453
 7899POPC   PO438268  18.257   7.407   9.153
 7899POPC   GL138269  18.235   7.447   8.853
 7899POPC   GL238270  18.325   7.350   8.853
 7899POPC   C1A38271  18.265   7.372   8.553
 7899POPC   D2A38272  18.249   7.451   8.253
 7899POPC   C3A38273  18.290   7.416   7.953
 7899POPC   C4A38274  18.239   7.455   7.653
 7899POPC   C1B38275  18.491   7.243   8.553
 7899POPC   C2B38276  18.496   7.260   8.253
 7899POPC   C3B38277  18.493   7.264   7.953
 7899POPC   C4B38278  18.422   7.221   7.653
 7900POPC   NC338279   3.540  18.275   9.453
 7900POPC   PO438280   3.502  18.284   9.153
 7900POPC   GL138281   3.502  18.288   8.853
 7900POPC   GL238282   3.577  18.170   8.853
 7900POPC   C1A38283   3.545  18.326   8.553
 7900POPC   D2A38284   3.548  18.274   8.253
 7900POPC   C3A38285   3.590  18.295   7.953
 7900POPC   C4A38286   3.543  18.258   7.653
 7900POPC   C1B38287   3.694  18.028   8.553
 7900POPC   C2B38288   3.676  18.113   8.253
 7900POPC   C3B38289   3.652  18.042   7.953
 7900POPC   C4B38290   3.698  18.111   7.653
 7901POPC   NC338291  14.433   8.220   9.453
 7901POPC   PO438292  14.446   8.201   9.153
 7901POPC   GL138293  14.377   8.181   8.853
 7901POPC   GL238294  14.258   8.238   8.853
 7901POPC   C1A38295  14.453   8.192   8.553
 7901POPC   D2A38296  14.373   8.217   8.253
 7901POPC   C3A38297  14.360   8.196   7.953
 7901POPC   C4A38298  14.448   8.202   7.653
 7901POPC   C1B38299  14.113   8.180   8.553
 7901POPC   C2B38300  14.118   8.266   8.253
 7901POPC   C3B38301  14.138   8.221   7.953
 7901POPC   C4B38302  14.184   8.258   7.653
 7902POPC   NC338303  12.808   4.348   9.453
 7902POPC   PO438304  12.888   4.310   9.153
 7902POPC   GL138305  12.859   4.366   8.853
 7902POPC   GL238306  12.774   4.242   8.853
 7902POPC   C1A38307  12.827   4.290   8.553
 7902POPC   D2A38308  12.884   4.305   8.253
 7902POPC   C3A38309  12.855   4.321   7.953
 7902POPC   C4A38310  12.853   4.324   7.653
 7902POPC   C1B38311  12.668   4.151   8.553
 7902POPC   C2B38312  12.659   4.200   8.253
 7902POPC   C3B38313  12.669   4.188   7.953
 7902POPC   C4B38314  12.667   4.212   7.653
 7903POPC   NC338315   2.776  19.817   9.453
 7903POPC   PO438316   2.781  19.855   9.153
 7903POPC   GL138317   2.766  19.870   8.853
 7903POPC   GL238318   2.831  19.909   8.853
 7903POPC   C1A38319   2.740  19.821   8.553
 7903POPC   D2A38320   2.719  19.849   8.253
 7903POPC   C3A38321   2.767  19.882   7.953
 7903POPC   C4A38322   2.781  19.793   7.653
 7903POPC   C1B38323   2.797  20.070   8.553
 7903POPC   C2B38324   2.783  20.071   8.253
 7903POPC   C3B38325   2.844  20.092   7.953
 7903POPC   C4B38326   2.830  20.082   7.653
 7904POPC   NC338327  22.942   5.843   9.453
 7904POPC   PO438328  22.907   5.891   9.153
 7904POPC   GL138329  22.932   5.877   8.853
 7904POPC   GL238330  22.985   5.752   8.853
 7904POPC   C1A38331  22.911   5.830   8.553
 7904POPC   D2A38332  22.921   5.833   8.253
 7904POPC   C3A38333  22.950   5.862   7.953
 7904POPC   C4A38334  22.937   5.867   7.653
 7904POPC   C1B38335  22.997   5.653   8.553
 7904POPC   C2B38336  22.978   5.599   8.253
 7904POPC   C3B38337  22.978   5.670   7.953
 7904POPC   C4B38338  23.036   5.667   7.653
 7905POPC   NC338339  30.724  39.182   9.453
 7905POPC   PO438340  30.691  39.274   9.153
 7905POPC   GL138341  30.672  39.224   8.853
 7905POPC   GL238342  30.784  39.290   8.853
 7905POPC   C1A38343  30.693  39.221   8.553
 7905POPC   D2A38344  30.685  39.263   8.253
 7905POPC   C3A38345  30.745  39.188   7.953
 7905POPC   C4A38346  30.670  39.237   7.653
 7905POPC   C1B38347  30.857  39.414   8.553
 7905POPC   C2B38348  30.824  39.416   8.253
 7905POPC   C3B38349  30.831  39.438   7.953
 7905POPC   C4B38350  30.866  39.435   7.653
 7906POPC   NC338351  27.552  23.709   9.453
 7906POPC   PO438352  27.606  23.756   9.153
 7906POPC   GL138353  27.634  23.706   8.853
 7906POPC   GL238354  27.700  23.714   8.853
 7906POPC   C1A38355  27.546  23.680   8.553
 7906POPC   D2A38356  27.597  23.759   8.253
 7906POPC   C3A38357  27.554  23.748   7.953
 7906POPC   C4A38358  27.561  23.672   7.653
 7906POPC   C1B38359  27.821  23.617   8.553
 7906POPC   C2B38360  27.864  23.634   8.253
 7906POPC   C3B38361  27.881  23.631   7.953
 7906POPC   C4B38362  27.879  23.642   7.653
 7907POPC   NC338363   9.006  40.750   9.453
 7907POPC   PO438364   9.010  40.797   9.153
 7907POPC   GL138365   8.933  40.755   8.853
 7907POPC   GL238366   9.084  40.766   8.853
 7907POPC   C1A38367   8.966  40.733   8.553
 7907POPC   D2A38368   8.994  40.822   8.253
 7907POPC   C3A38369   9.011  40.770   7.953
 7907POPC   C4A38370   8.965  40.734   7.653
 7907POPC   C1B38371   9.200  40.824   8.553
 7907POPC   C2B38372   9.174  40.792   8.253
 7907POPC   C3B38373   9.248  40.870   7.953
 7907POPC   C4B38374   9.253  40.858   7.653
 7908POPC   NC338375  22.906  44.668   9.453
 7908POPC   PO438376  22.928  44.705   9.153
 7908POPC   GL138377  22.984  44.626   8.853
 7908POPC   GL238378  23.039  44.650   8.853
 7908POPC   C1A38379  22.982  44.644   8.553
 7908POPC   D2A38380  22.962  44.679   8.253
 7908POPC   C3A38381  22.971  44.646   7.953
 7908POPC   C4A38382  22.973  44.664   7.653
 7908POPC   C1B38383  23.184  44.717   8.553
 7908POPC   C2B38384  23.137  44.735   8.253
 7908POPC   C3B38385  23.151  44.731   7.953
 7908POPC   C4B38386  23.155  44.700   7.653
 7909POPC   NC338387  29.936  23.688   9.453
 7909POPC   PO438388  29.931  23.740   9.153
 7909POPC   GL138389  29.954  23.753   8.853
 7909POPC   GL238390  30.047  23.692   8.853
 7909POPC   C1A38391  29.937  23.671   8.553
 7909POPC   D2A38392  29.952  23.699   8.253
 7909POPC   C3A38393  29.889  23.700   7.953
 7909POPC   C4A38394  29.957  23.720   7.653
 7909POPC   C1B38395  30.125  23.671   8.553
 7909POPC   C2B38396  30.125  23.670   8.253
 7909POPC   C3B38397  30.149  23.686   7.953
 7909POPC   C4B38398  30.170  23.690   7.653
 7910POPC   NC338399  23.699  14.384   9.453
 7910POPC   PO438400  23.679  14.362   9.153
 7910POPC   GL138401  23.705  14.447   8.853
 7910POPC   GL238402  23.614  14.452   8.853
 7910POPC   C1A38403  23.742  14.357   8.553
 7910POPC   D2A38404  23.704  14.365   8.253
 7910POPC   C3A38405  23.671  14.408   7.953
 7910POPC   C4A38406  23.712  14.445   7.653
 7910POPC   C1B38407  23.463  14.520   8.553
 7910POPC   C2B38408  23.524  14.514   8.253
 7910POPC   C3B38409  23.506  14.528   7.953
 7910POPC   C4B38410  23.502  14.470   7.653
 7911POPC   NC338411   1.209  42.375   5.553
 7911POPC   PO438412   1.170  42.356   5.853
 7911POPC   GL138413   1.200  42.317   6.153
 7911POPC   GL238414   1.056  42.398   6.153
 7911POPC   C1A38415   1.175  42.323   6.453
 7911POPC   D2A38416   1.201  42.302   6.753
 7911POPC   C3A38417   1.192  42.289   7.053
 7911POPC   C4A38418   1.180  42.319   7.353
 7911POPC   C1B38419   0.928  42.424   6.453
 7911POPC   C2B38420   0.988  42.369   6.753
 7911POPC   C3B38421   0.974  42.435   7.053
 7911POPC   C4B38422   0.935  42.440   7.353
 7912POPC   NC338423  22.889  26.867   5.553
 7912POPC   PO438424  22.972  26.867   5.853
 7912POPC   GL138425  22.984  26.781   6.153
 7912POPC   GL238426  22.809  26.890   6.153
 7912POPC   C1A38427  22.979  26.831   6.453
 7912POPC   D2A38428  22.979  26.796   6.753
 7912POPC   C3A38429  22.923  26.793   7.053
 7912POPC   C4A38430  22.934  26.795   7.353
 7912POPC   C1B38431  22.686  26.946   6.453
 7912POPC   C2B38432  22.767  26.903   6.753
 7912POPC   C3B38433  22.693  26.956   7.053
 7912POPC   C4B38434  22.685  26.899   7.353
 7913POPC   NC338435   1.231  40.819   5.553
 7913POPC   PO438436   1.219  40.829   5.853
 7913POPC   GL138437   1.195  40.828   6.153
 7913POPC   GL238438   1.195  40.616   6.153
 7913POPC   C1A38439   1.262  40.752   6.453
 7913POPC   D2A38440   1.195  40.759   6.753
 7913POPC   C3A38441   1.211  40.737   7.053
 7913POPC   C4A38442   1.193  40.777   7.353
 7913POPC   C1B38443   1.284  40.525   6.453
 7913POPC   C2B38444   1.226  40.504   6.753
 7913POPC   C3B38445   1.215  40.496   7.053
 7913POPC   C4B38446   1.246  40.540   7.353
 7914POPC   NC338447  39.250  26.028   5.553
 7914POPC   PO438448  39.251  26.028   5.853
 7914POPC   GL138449  39.209  26.082   6.153
 7914POPC   GL238450  39.305  26.127   6.153
 7914POPC   C1A38451  39.202  26.072   6.453
 7914POPC   D2A38452  39.266  26.049   6.753
 7914POPC   C3A38453  39.185  26.000   7.053
 7914POPC   C4A38454  39.232  26.001   7.353
 7914POPC   C1B38455  39.312  26.269   6.453
 7914POPC   C2B38456  39.387  26.246   6.753
 7914POPC   C3B38457  39.334  26.228   7.053
 7914POPC   C4B38458  39.296  26.228   7.353
 7915POPC   NC338459  44.684  36.894   5.553
 7915POPC   PO438460  44.647  36.867   5.853
 7915POPC   GL138461  44.708  36.946   6.153
 7915POPC   GL238462  44.532  36.932   6.153
 7915POPC   C1A38463  44.647  36.876   6.453
 7915POPC   D2A38464  44.680  36.918   6.753
 7915POPC   C3A38465  44.704  36.930   7.053
 7915POPC   C4A38466  44.657  36.922   7.353
 7915POPC   C1B38467  44.416  36.934   6.453
 7915POPC   C2B38468  44.453  36.966   6.753
 7915POPC   C3B38469  44.458  36.891   7.053
 7915POPC   C4B38470  44.461  36.927   7.353
 7916POPC   NC338471  35.358  19.876   5.553
 7916POPC   PO438472  35.375  19.805   5.853
 7916POPC   GL138473  35.372  19.820   6.153
 7916POPC   GL238474  35.474  19.810   6.153
 7916POPC   C1A38475  35.318  19.801   6.453
 7916POPC   D2A38476  35.389  19.841   6.753
 7916POPC   C3A38477  35.396  19.809   7.053
 7916POPC   C4A38478  35.387  19.797   7.353
 7916POPC   C1B38479  35.599  19.849   6.453
 7916POPC   C2B38480  35.642  19.875   6.753
 7916POPC   C3B38481  35.648  19.848   7.053
 7916POPC   C4B38482  35.643  19.832   7.353
 7917POPC   NC338483  43.860  42.346   5.553
 7917POPC   PO438484  43.916  42.332   5.853
 7917POPC   GL138485  43.904  42.363   6.153
 7917POPC   GL238486  43.742  42.271   6.153
 7917POPC   C1A38487  43.893  42.376   6.453
 7917POPC   D2A38488  43.881  42.317   6.753
 7917POPC   C3A38489  43.912  42.341   7.053
 7917POPC   C4A38490  43.930  42.339   7.353
 7917POPC   C1B38491  43.652  42.207   6.453
 7917POPC   C2B38492  43.692  42.175   6.753
 7917POPC   C3B38493  43.658  42.171   7.053
 7917POPC   C4B38494  43.694  42.216   7.353
 7918POPC   NC338495  39.986  18.248   5.553
 7918POPC   PO438496  40.036  18.324   5.853
 7918POPC   GL138497  40.005  18.241   6.153
 7918POPC   GL238498  39.912  18.366   6.153
 7918POPC   C1A38499  39.981  18.289   6.453
 7918POPC   D2A38500  40.047  18.283   6.753
 7918POPC   C3A38501  40.026  18.303   7.053
 7918POPC   C4A38502  40.023  18.278   7.353
 7918POPC   C1B38503  39.783  18.452   6.453
 7918POPC   C2B38504  39.751  18.385   6.753
 7918POPC   C3B38505  39.775  18.466   7.053
 7918POPC   C4B38506  39.780  18.398   7.353
 7919POPC   NC338507  43.123   4.297   5.553
 7919POPC   PO438508  43.135   4.313   5.853
 7919POPC   GL138509  43.103   4.356   6.153
 7919POPC   GL238510  43.038   4.397   6.153
 7919POPC   C1A38511  43.108   4.292   6.453
 7919POPC   D2A38512  43.069   4.328   6.753
 7919POPC   C3A38513  43.098   4.331   7.053
 7919POPC   C4A38514  43.135   4.287   7.353
 7919POPC   C1B38515  42.877   4.457   6.453
 7919POPC   C2B38516  42.953   4.496   6.753
 7919POPC   C3B38517  42.905   4.527   7.053
 7919POPC   C4B38518  42.932   4.530   7.353
 7920POPC   NC338519   1.985  10.565   5.553
 7920POPC   PO438520   1.977  10.556   5.853
 7920POPC   GL138521   2.031  10.550   6.153
 7920POPC   GL238522   1.989  10.596   6.153
 7920POPC   C1A38523   1.982  10.532   6.453
 7920POPC   D2A38524   2.017  10.553   6.753
 7920POPC   C3A38525   1.951  10.519   7.053
 7920POPC   C4A38526   1.989  10.501   7.353
 7920POPC   C1B38527   1.889  10.780   6.453
 7920POPC   C2B38528   1.952  10.723   6.753
 7920POPC   C3B38529   1.879  10.736   7.053
 7920POPC   C4B38530   1.903  10.736   7.353
 7921POPC   NC338531  44.642  39.966   5.553
 7921POPC   PO438532  44.661  40.006   5.853
 7921POPC   GL138533  44.704  40.012   6.153
 7921POPC   GL238534  44.729  39.870   6.153
 7921POPC   C1A38535  44.666  39.959   6.453
 7921POPC   D2A38536  44.642  40.024   6.753
 7921POPC   C3A38537  44.627  40.011   7.053
 7921POPC   C4A38538  44.627  40.041   7.353
 7921POPC   C1B38539  44.822  39.776   6.453
 7921POPC   C2B38540  44.766  39.744   6.753
 7921POPC   C3B38541  44.841  39.799   7.053
 7921POPC   C4B38542  44.798  39.759   7.353
 7922POPC   NC338543  43.133  38.431   5.553
 7922POPC   PO438544  43.062  38.429   5.853
 7922POPC   GL138545  43.153  38.438   6.153
 7922POPC   GL238546  43.172  38.504   6.153
 7922POPC   C1A38547  43.125  38.457   6.453
 7922POPC   D2A38548  43.084  38.480   6.753
 7922POPC   C3A38549  43.103  38.496   7.053
 7922POPC   C4A38550  43.156  38.405   7.353
 7922POPC   C1B38551  43.325  38.602   6.453
 7922POPC   C2B38552  43.245  38.640   6.753
 7922POPC   C3B38553  43.247  38.632   7.053
 7922POPC   C4B38554  43.267  38.685   7.353
 7923POPC   NC338555  18.268  31.500   5.553
 7923POPC   PO438556  18.283  31.464   5.853
 7923POPC   GL138557  18.289  31.455   6.153
 7923POPC   GL238558  18.225  31.597   6.153
 7923POPC   C1A38559  18.285  31.517   6.453
 7923POPC   D2A38560  18.293  31.511   6.753
 7923POPC   C3A38561  18.329  31.453   7.053
 7923POPC   C4A38562  18.250  31.457   7.353
 7923POPC   C1B38563  18.163  31.642   6.453
 7923POPC   C2B38564  18.134  31.644   6.753
 7923POPC   C3B38565  18.094  31.676   7.053
 7923POPC   C4B38566  18.105  31.648   7.353
 7924POPC   NC338567   5.918  39.998   5.553
 7924POPC   PO438568   5.848  39.960   5.853
 7924POPC   GL138569   5.877  40.000   6.153
 7924POPC   GL238570   6.033  39.999   6.153
 7924POPC   C1A38571   5.872  40.027   6.453
 7924POPC   D2A38572   5.891  40.007   6.753
 7924POPC   C3A38573   5.866  40.054   7.053
 7924POPC   C4A38574   5.862  40.027   7.353
 7924POPC   C1B38575   6.112  39.999   6.453
 7924POPC   C2B38576   6.090  39.937   6.753
 7924POPC   C3B38577   6.084  39.958   7.053
 7924POPC   C4B38578   6.105  39.982   7.353
 7925POPC   NC338579   4.319  20.569   5.553
 7925POPC   PO438580   4.350  20.660   5.853
 7925POPC   GL138581   4.353  20.654   6.153
 7925POPC   GL238582   4.326  20.721   6.153
 7925POPC   C1A38583   4.292  20.645   6.453
 7925POPC   D2A38584   4.309  20.585   6.753
 7925POPC   C3A38585   4.334  20.623   7.053
 7925POPC   C4A38586   4.282  20.567   7.353
 7925POPC   C1B38587   4.349  20.813   6.453
 7925POPC   C2B38588   4.283  20.891   6.753
 7925POPC   C3B38589   4.278  20.815   7.053
 7925POPC   C4B38590   4.346  20.889   7.353
 7926POPC   NC338591  22.173   2.720   5.553
 7926POPC   PO438592  22.152   2.755   5.853
 7926POPC   GL138593  22.192   2.732   6.153
 7926POPC   GL238594  22.265   2.823   6.153
 7926POPC   C1A38595  22.165   2.770   6.453
 7926POPC   D2A38596  22.141   2.739   6.753
 7926POPC   C3A38597  22.137   2.720   7.053
 7926POPC   C4A38598  22.125   2.773   7.353
 7926POPC   C1B38599  22.408   2.889   6.453
 7926POPC   C2B38600  22.365   2.825   6.753
 7926POPC   C3B38601  22.410   2.870   7.053
 7926POPC   C4B38602  22.395   2.817   7.353
 7927POPC   NC338603   4.312   8.965   5.553
 7927POPC   PO438604   4.331   8.926   5.853
 7927POPC   GL138605   4.323   9.011   6.153
 7927POPC   GL238606   4.378   8.826   6.153
 7927POPC   C1A38607   4.287   8.942   6.453
 7927POPC   D2A38608   4.322   8.996   6.753
 7927POPC   C3A38609   4.335   8.926   7.053
 7927POPC   C4A38610   4.356   8.989   7.353
 7927POPC   C1B38611   4.414   8.753   6.453
 7927POPC   C2B38612   4.395   8.761   6.753
 7927POPC   C3B38613   4.431   8.715   7.053
 7927POPC   C4B38614   4.416   8.736   7.353
 7928POPC   NC338615   1.204   4.321   5.553
 7928POPC   PO438616   1.201   4.302   5.853
 7928POPC   GL138617   1.169   4.339   6.153
 7928POPC   GL238618   1.155   4.401   6.153
 7928POPC   C1A38619   1.220   4.362   6.453
 7928POPC   D2A38620   1.224   4.333   6.753
 7928POPC   C3A38621   1.190   4.293   7.053
 7928POPC   C4A38622   1.192   4.330   7.353
 7928POPC   C1B38623   0.983   4.470   6.453
 7928POPC   C2B38624   0.984   4.501   6.753
 7928POPC   C3B38625   1.002   4.452   7.053
 7928POPC   C4B38626   1.042   4.442   7.353
 7929POPC   NC338627  40.811  39.192   5.553
 7929POPC   PO438628  40.816  39.227   5.853
 7929POPC   GL138629  40.747  39.205   6.153
 7929POPC   GL238630  40.842  39.121   6.153
 7929POPC   C1A38631  40.792  39.265   6.453
 7929POPC   D2A38632  40.754  39.206   6.753
 7929POPC   C3A38633  40.821  39.225   7.053
 7929POPC   C4A38634  40.766  39.211   7.353
 7929POPC   C1B38635  40.774  39.021   6.453
 7929POPC   C2B38636  40.866  38.974   6.753
 7929POPC   C3B38637  40.830  39.027   7.053
 7929POPC   C4B38638  40.811  39.004   7.353
 7930POPC   NC338639  17.526  36.900   5.553
 7930POPC   PO438640  17.546  36.870   5.853
 7930POPC   GL138641  17.537  36.857   6.153
 7930POPC   GL238642  17.470  36.758   6.153
 7930POPC   C1A38643  17.517  36.916   6.453
 7930POPC   D2A38644  17.480  36.928   6.753
 7930POPC   C3A38645  17.471  36.858   7.053
 7930POPC   C4A38646  17.513  36.873   7.353
 7930POPC   C1B38647  17.407  36.665   6.453
 7930POPC   C2B38648  17.398  36.677   6.753
 7930POPC   C3B38649  17.449  36.652   7.053
 7930POPC   C4B38650  17.440  36.707   7.353
 7931POPC   NC338651  19.030   6.657   5.553
 7931POPC   PO438652  19.088   6.610   5.853
 7931POPC   GL138653  19.045   6.614   6.153
 7931POPC   GL238654  19.127   6.699   6.153
 7931POPC   C1A38655  19.062   6.629   6.453
 7931POPC   D2A38656  19.021   6.680   6.753
 7931POPC   C3A38657  19.068   6.646   7.053
 7931POPC   C4A38658  19.031   6.660   7.353
 7931POPC   C1B38659  19.295   6.738   6.453
 7931POPC   C2B38660  19.315   6.726   6.753
 7931POPC   C3B38661  19.322   6.755   7.053
 7931POPC   C4B38662  19.256   6.726   7.353
 7932POPC   NC338663  42.340  36.866   5.553
 7932POPC   PO438664  42.354  36.892   5.853
 7932POPC   GL138665  42.341  36.863   6.153
 7932POPC   GL238666  42.480  36.836   6.153
 7932POPC   C1A38667  42.338  36.911   6.453
 7932POPC   D2A38668  42.355  36.875   6.753
 7932POPC   C3A38669  42.346  36.868   7.053
 7932POPC   C4A38670  42.378  36.908   7.353
 7932POPC   C1B38671  42.530  36.841   6.453
 7932POPC   C2B38672  42.604  36.763   6.753
 7932POPC   C3B38673  42.592  36.777   7.053
 7932POPC   C4B38674  42.605  36.844   7.353
 7933POPC   NC338675  32.995  35.311   5.553
 7933POPC   PO438676  33.013  35.312   5.853
 7933POPC   GL138677  33.061  35.367   6.153
 7933POPC   GL238678  33.056  35.487   6.153
 7933POPC   C1A38679  33.073  35.380   6.453
 7933POPC   D2A38680  33.018  35.365   6.753
 7933POPC   C3A38681  33.013  35.305   7.053
 7933POPC   C4A38682  32.983  35.347   7.353
 7933POPC   C1B38683  33.129  35.559   6.453
 7933POPC   C2B38684  33.075  35.563   6.753
 7933POPC   C3B38685  33.053  35.625   7.053
 7933POPC   C4B38686  33.071  35.622   7.353
 7934POPC   NC338687  32.207  22.890   5.553
 7934POPC   PO438688  32.241  22.967   5.853
 7934POPC   GL138689  32.251  22.924   6.153
 7934POPC   GL238690  32.141  22.993   6.153
 7934POPC   C1A38691  32.288  22.952   6.453
 7934POPC   D2A38692  32.290  22.981   6.753
 7934POPC   C3A38693  32.231  22.977   7.053
 7934POPC   C4A38694  32.287  22.972   7.353
 7934POPC   C1B38695  31.981  23.052   6.453
 7934POPC   C2B38696  31.996  22.982   6.753
 7934POPC   C3B38697  31.974  23.011   7.053
 7934POPC   C4B38698  32.010  23.011   7.353
 7935POPC   NC338699  43.923  17.536   5.553
 7935POPC   PO438700  43.871  17.526   5.853
 7935POPC   GL138701  43.925  17.533   6.153
 7935POPC   GL238702  43.977  17.616   6.153
 7935POPC   C1A38703  43.870  17.534   6.453
 7935POPC   D2A38704  43.889  17.553   6.753
 7935POPC   C3A38705  43.841  17.542   7.053
 7935POPC   C4A38706  43.842  17.480   7.353
 7935POPC   C1B38707  44.093  17.738   6.453
 7935POPC   C2B38708  44.083  17.717   6.753
 7935POPC   C3B38709  44.098  17.699   7.053
 7935POPC   C4B38710  44.072  17.646   7.353
 7936POPC   NC338711  41.593  27.607   5.553
 7936POPC   PO438712  41.581  27.615   5.853
 7936POPC   GL138713  41.600  27.608   6.153
 7936POPC   GL238714  41.716  27.648   6.153
 7936POPC   C1A38715  41.592  27.640   6.453
 7936POPC   D2A38716  41.521  27.571   6.753
 7936POPC   C3A38717  41.526  27.585   7.053
 7936POPC   C4A38718  41.603  27.564   7.353
 7936POPC   C1B38719  41.785  27.657   6.453
 7936POPC   C2B38720  41.780  27.712   6.753
 7936POPC   C3B38721  41.832  27.725   7.053
 7936POPC   C4B38722  41.817  27.711   7.353
 7937POPC   NC338723  39.268   2.750   5.553
 7937POPC   PO438724  39.247   2.770   5.853
 7937POPC   GL138725  39.189   2.783   6.153
 7937POPC   GL238726  39.307   2.806   6.153
 7937POPC   C1A38727  39.211   2.728   6.453
 7937POPC   D2A38728  39.245   2.808   6.753
 7937POPC   C3A38729  39.185   2.776   7.053
 7937POPC   C4A38730  39.216   2.814   7.353
 7937POPC   C1B38731  39.500   2.856   6.453
 7937POPC   C2B38732  39.462   2.791   6.753
 7937POPC   C3B38733  39.507   2.866   7.053
 7937POPC   C4B38734  39.507   2.853   7.353
 7938POPC   NC338735   9.748   5.854   5.553
 7938POPC   PO438736   9.700   5.829   5.853
 7938POPC   GL138737   9.758   5.862   6.153
 7938POPC   GL238738   9.656   5.709   6.153
 7938POPC   C1A38739   9.768   5.903   6.453
 7938POPC   D2A38740   9.795   5.851   6.753
 7938POPC   C3A38741   9.702   5.897   7.053
 7938POPC   C4A38742   9.771   5.841   7.353
 7938POPC   C1B38743   9.690   5.680   6.453
 7938POPC   C2B38744   9.600   5.672   6.753
 7938POPC   C3B38745   9.649   5.676   7.053
 7938POPC   C4B38746   9.659   5.651   7.353
 7939POPC   NC338747   3.531  36.864   5.553
 7939POPC   PO438748   3.500  36.891   5.853
 7939POPC   GL138749   3.493  36.878   6.153
 7939POPC   GL238750   3.504  37.011   6.153
 7939POPC   C1A38751   3.551  36.864   6.453
 7939POPC   D2A38752   3.570  36.949   6.753
 7939POPC   C3A38753   3.511  36.886   7.053
 7939POPC   C4A38754   3.517  36.915   7.353
 7939POPC   C1B38755   3.487  37.173   6.453
 7939POPC   C2B38756   3.419  37.171   6.753
 7939POPC   C3B38757   3.462  37.186   7.053
 7939POPC   C4B38758   3.436  37.136   7.353
 7940POPC   NC338759  35.321  20.656   5.553
 7940POPC   PO438760  35.384  20.599   5.853
 7940POPC   GL138761  35.389  20.596   6.153
 7940POPC   GL238762  35.321  20.490   6.153
 7940POPC   C1A38763  35.305  20.639   6.453
 7940POPC   D2A38764  35.330  20.597   6.753
 7940POPC   C3A38765  35.327  20.573   7.053
 7940POPC   C4A38766  35.324  20.633   7.353
 7940POPC   C1B38767  35.327  20.366   6.453
 7940POPC   C2B38768  35.282  20.360   6.753
 7940POPC   C3B38769  35.341  20.326   7.053
 7940POPC   C4B38770  35.287  20.408   7.353
 7941POPC   NC338771  15.997  27.636   5.553
 7941POPC   PO438772  15.910  27.572   5.853
 7941POPC   GL138773  15.906  27.576   6.153
 7941POPC   GL238774  16.060  27.616   6.153
 7941POPC   C1A38775  15.964  27.623   6.453
 7941POPC   D2A38776  15.998  27.574   6.753
 7941POPC   C3A38777  16.003  27.618   7.053
 7941POPC   C4A38778  15.962  27.585   7.353
 7941POPC   C1B38779  16.217  27.557   6.453
 7941POPC   C2B38780  16.195  27.557   6.753
 7941POPC   C3B38781  16.248  27.528   7.053
 7941POPC   C4B38782  16.238  27.586   7.353
 7942POPC   NC338783  28.350  15.978   5.553
 7942POPC   PO438784  28.411  15.972   5.853
 7942POPC   GL138785  28.391  15.952   6.153
 7942POPC   GL238786  28.256  15.968   6.153
 7942POPC   C1A38787  28.349  15.940   6.453
 7942POPC   D2A38788  28.365  15.951   6.753
 7942POPC   C3A38789  28.355  15.929   7.053
 7942POPC   C4A38790  28.321  15.998   7.353
 7942POPC   C1B38791  28.084  15.917   6.453
 7942POPC   C2B38792  28.090  15.879   6.753
 7942POPC   C3B38793  28.109  15.883   7.053
 7942POPC   C4B38794  28.087  15.923   7.353
 7943POPC   NC338795  34.606  40.052   5.553
 7943POPC   PO438796  34.601  40.054   5.853
 7943POPC   GL138797  34.623  40.035   6.153
 7943POPC   GL238798  34.730  40.010   6.153
 7943POPC   C1A38799  34.584  40.032   6.453
 7943POPC   D2A38800  34.565  40.041   6.753
 7943POPC   C3A38801  34.605  40.035   7.053
 7943POPC   C4A38802  34.550  40.048   7.353
 7943POPC   C1B38803  34.848  40.067   6.453
 7943POPC   C2B38804  34.830  40.067   6.753
 7943POPC   C3B38805  34.844  40.041   7.053
 7943POPC   C4B38806  34.775  40.058   7.353
 7944POPC   NC338807   8.978  22.204   5.553
 7944POPC   PO438808   8.970  22.135   5.853
 7944POPC   GL138809   8.964  22.176   6.153
 7944POPC   GL238810   9.053  22.197   6.153
 7944POPC   C1A38811   9.019  22.132   6.453
 7944POPC   D2A38812   8.980  22.199   6.753
 7944POPC   C3A38813   8.970  22.176   7.053
 7944POPC   C4A38814   9.015  22.198   7.353
 7944POPC   C1B38815   9.128  22.280   6.453
 7944POPC   C2B38816   9.154  22.318   6.753
 7944POPC   C3B38817   9.135  22.344   7.053
 7944POPC   C4B38818   9.126  22.288   7.353
 7945POPC   NC338819  24.538   4.313   5.553
 7945POPC   PO438820  24.490   4.342   5.853
 7945POPC   GL138821  24.531   4.271   6.153
 7945POPC   GL238822  24.450   4.403   6.153
 7945POPC   C1A38823  24.488   4.353   6.453
 7945POPC   D2A38824  24.446   4.338   6.753
 7945POPC   C3A38825  24.447   4.284   7.053
 7945POPC   C4A38826  24.498   4.274   7.353
 7945POPC   C1B38827  24.470   4.533   6.453
 7945POPC   C2B38828  24.474   4.581   6.753
 7945POPC   C3B38829  24.445   4.559   7.053
 7945POPC   C4B38830  24.386   4.566   7.353
 7946POPC   NC338831  24.440  12.055   5.553
 7946POPC   PO438832  24.461  12.123   5.853
 7946POPC   GL138833  24.504  12.071   6.153
 7946POPC   GL238834  24.410  11.937   6.153
 7946POPC   C1A38835  24.482  12.061   6.453
 7946POPC   D2A38836  24.446  12.083   6.753
 7946POPC   C3A38837  24.515  12.048   7.053
 7946POPC   C4A38838  24.497  12.037   7.353
 7946POPC   C1B38839  24.364  11.876   6.453
 7946POPC   C2B38840  24.388  11.911   6.753
 7946POPC   C3B38841  24.389  11.905   7.053
 7946POPC   C4B38842  24.317  11.836   7.353
 7947POPC   NC338843  36.883  33.750   5.553
 7947POPC   PO438844  36.880  33.783   5.853
 7947POPC   GL138845  36.943  33.839   6.153
 7947POPC   GL238846  36.734  33.742   6.153
 7947POPC   C1A38847  36.927  33.824   6.453
 7947POPC   D2A38848  36.926  33.768   6.753
 7947POPC   C3A38849  36.896  33.774   7.053
 7947POPC   C4A38850  36.946  33.817   7.353
 7947POPC   C1B38851  36.648  33.733   6.453
 7947POPC   C2B38852  36.636  33.722   6.753
 7947POPC   C3B38853  36.690  33.729   7.053
 7947POPC   C4B38854  36.673  33.802   7.353
 7948POPC   NC338855  22.894  25.221   5.553
 7948POPC   PO438856  22.914  25.260   5.853
 7948POPC   GL138857  22.934  25.281   6.153
 7948POPC   GL238858  22.824  25.210   6.153
 7948POPC   C1A38859  22.962  25.225   6.453
 7948POPC   D2A38860  22.976  25.304   6.753
 7948POPC   C3A38861  22.962  25.248   7.053
 7948POPC   C4A38862  22.960  25.216   7.353
 7948POPC   C1B38863  22.793  25.139   6.453
 7948POPC   C2B38864  22.753  25.137   6.753
 7948POPC   C3B38865  22.763  25.049   7.053
 7948POPC   C4B38866  22.772  25.094   7.353
 7949POPC   NC338867  40.780   8.192   5.553
 7949POPC   PO438868  40.794   8.243   5.853
 7949POPC   GL138869  40.746   8.156   6.153
 7949POPC   GL238870  40.872   8.362   6.153
 7949POPC   C1A38871  40.781   8.201   6.453
 7949POPC   D2A38872  40.750   8.239   6.753
 7949POPC   C3A38873  40.811   8.188   7.053
 7949POPC   C4A38874  40.789   8.169   7.353
 7949POPC   C1B38875  40.897   8.450   6.453
 7949POPC   C2B38876  40.873   8.437   6.753
 7949POPC   C3B38877  40.928   8.439   7.053
 7949POPC   C4B38878  40.854   8.383   7.353
 7950POPC   NC338879   7.433  16.686   5.553
 7950POPC   PO438880   7.399  16.740   5.853
 7950POPC   GL138881   7.406  16.769   6.153
 7950POPC   GL238882   7.460  16.602   6.153
 7950POPC   C1A38883   7.466  16.722   6.453
 7950POPC   D2A38884   7.426  16.731   6.753
 7950POPC   C3A38885   7.390  16.743   7.053
 7950POPC   C4A38886   7.417  16.700   7.353
 7950POPC   C1B38887   7.580  16.517   6.453
 7950POPC   C2B38888   7.598  16.507   6.753
 7950POPC   C3B38889   7.579  16.599   7.053
 7950POPC   C4B38890   7.609  16.570   7.353
 7951POPC   NC338891  40.760  19.066   5.553
 7951POPC   PO438892  40.737  19.010   5.853
 7951POPC   GL138893  40.752  19.065   6.153
 7951POPC   GL238894  40.888  19.086   6.153
 7951POPC   C1A38895  40.781  19.080   6.453
 7951POPC   D2A38896  40.744  19.028   6.753
 7951POPC   C3A38897  40.761  19.046   7.053
 7951POPC   C4A38898  40.803  19.039   7.353
 7951POPC   C1B38899  41.042  19.026   6.453
 7951POPC   C2B38900  41.024  19.054   6.753
 7951POPC   C3B38901  41.059  19.063   7.053
 7951POPC   C4B38902  40.987  19.009   7.353
 7952POPC   NC338903  43.934  43.082   5.553
 7952POPC   PO438904  43.923  43.064   5.853
 7952POPC   GL138905  43.872  43.158   6.153
 7952POPC   GL238906  43.822  42.979   6.153
 7952POPC   C1A38907  43.844  43.113   6.453
 7952POPC   D2A38908  43.886  43.150   6.753
 7952POPC   C3A38909  43.931  43.149   7.053
 7952POPC   C4A38910  43.926  43.155   7.353
 7952POPC   C1B38911  43.770  42.925   6.453
 7952POPC   C2B38912  43.825  42.867   6.753
 7952POPC   C3B38913  43.838  42.893   7.053
 7952POPC   C4B38914  43.846  42.899   7.353
 7953POPC   NC338915   2.798   5.095   5.553
 7953POPC   PO438916   2.756   5.131   5.853
 7953POPC   GL138917   2.734   5.094   6.153
 7953POPC   GL238918   2.646   5.129   6.153
 7953POPC   C1A38919   2.784   5.104   6.453
 7953POPC   D2A38920   2.782   5.087   6.753
 7953POPC   C3A38921   2.765   5.077   7.053
 7953POPC   C4A38922   2.718   5.049   7.353
 7953POPC   C1B38923   2.547   5.095   6.453
 7953POPC   C2B38924   2.548   5.122   6.753
 7953POPC   C3B38925   2.496   5.131   7.053
 7953POPC   C4B38926   2.492   5.171   7.353
 7954POPC   NC338927  34.607  24.522   5.553
 7954POPC   PO438928  34.611  24.444   5.853
 7954POPC   GL138929  34.527  24.530   6.153
 7954POPC   GL238930  34.525  24.396   6.153
 7954POPC   C1A38931  34.558  24.532   6.453
 7954POPC   D2A38932  34.579  24.494   6.753
 7954POPC   C3A38933  34.575  24.476   7.053
 7954POPC   C4A38934  34.620  24.457   7.353
 7954POPC   C1B38935  34.377  24.283   6.453
 7954POPC   C2B38936  34.417  24.342   6.753
 7954POPC   C3B38937  34.441  24.336   7.053
 7954POPC   C4B38938  34.426  24.303   7.353
 7955POPC   NC338939  27.641  39.181   5.553
 7955POPC   PO438940  27.615  39.186   5.853
 7955POPC   GL138941  27.593  39.225   6.153
 7955POPC   GL238942  27.437  39.293   6.153
 7955POPC   C1A38943  27.602  39.223   6.453
 7955POPC   D2A38944  27.577  39.226   6.753
 7955POPC   C3A38945  27.605  39.258   7.053
 7955POPC   C4A38946  27.602  39.224   7.353
 7955POPC   C1B38947  27.411  39.394   6.453
 7955POPC   C2B38948  27.402  39.398   6.753
 7955POPC   C3B38949  27.348  39.400   7.053
 7955POPC   C4B38950  27.367  39.384   7.353
 7956POPC   NC338951  25.255   3.520   5.553
 7956POPC   PO438952  25.274   3.549   5.853
 7956POPC   GL138953  25.229   3.509   6.153
 7956POPC   GL238954  25.241   3.656   6.153
 7956POPC   C1A38955  25.307   3.589   6.453
 7956POPC   D2A38956  25.314   3.546   6.753
 7956POPC   C3A38957  25.260   3.582   7.053
 7956POPC   C4A38958  25.269   3.546   7.353
 7956POPC   C1B38959  25.220   3.810   6.453
 7956POPC   C2B38960  25.208   3.822   6.753
 7956POPC   C3B38961  25.192   3.771   7.053
 7956POPC   C4B38962  25.287   3.743   7.353
 7957POPC   NC338963  36.137   3.507   5.553
 7957POPC   PO438964  36.151   3.514   5.853
 7957POPC   GL138965  36.132   3.511   6.153
 7957POPC   GL238966  36.037   3.536   6.153
 7957POPC   C1A38967  36.096   3.505   6.453
 7957POPC   D2A38968  36.108   3.561   6.753
 7957POPC   C3A38969  36.156   3.554   7.053
 7957POPC   C4A38970  36.148   3.531   7.353
 7957POPC   C1B38971  35.896   3.428   6.453
 7957POPC   C2B38972  35.932   3.415   6.753
 7957POPC   C3B38973  35.893   3.442   7.053
 7957POPC   C4B38974  35.922   3.476   7.353
 7958POPC   NC338975  35.319   4.280   5.553
 7958POPC   PO438976  35.316   4.297   5.853
 7958POPC   GL138977  35.345   4.344   6.153
 7958POPC   GL238978  35.212   4.275   6.153
 7958POPC   C1A38979  35.348   4.338   6.453
 7958POPC   D2A38980  35.349   4.330   6.753
 7958POPC   C3A38981  35.392   4.292   7.053
 7958POPC   C4A38982  35.382   4.322   7.353
 7958POPC   C1B38983  35.142   4.215   6.453
 7958POPC   C2B38984  35.148   4.225   6.753
 7958POPC   C3B38985  35.066   4.230   7.053
 7958POPC   C4B38986  35.069   4.230   7.353
 7959POPC   NC338987   0.434  26.780   5.553
 7959POPC   PO438988   0.410  26.776   5.853
 7959POPC   GL138989   0.393  26.830   6.153
 7959POPC   GL238990   0.494  26.668   6.153
 7959POPC   C1A38991   0.437  26.772   6.453
 7959POPC   D2A38992   0.391  26.834   6.753
 7959POPC   C3A38993   0.409  26.829   7.053
 7959POPC   C4A38994   0.393  26.866   7.353
 7959POPC   C1B38995   0.461  26.596   6.453
 7959POPC   C2B38996   0.425  26.595   6.753
 7959POPC   C3B38997   0.488  26.521   7.053
 7959POPC   C4B38998   0.504  26.558   7.353
 7960POPC   NC338999   5.098   9.699   5.553
 7960POPC   PO439000   5.075   9.759   5.853
 7960POPC   GL139001   5.132   9.781   6.153
 7960POPC   GL239002   5.093   9.857   6.153
 7960POPC   C1A39003   5.076   9.738   6.453
 7960POPC   D2A39004   5.132   9.776   6.753
 7960POPC   C3A39005   5.071   9.760   7.053
 7960POPC   C4A39006   5.073   9.748   7.353
 7960POPC   C1B39007   5.043   9.964   6.453
 7960POPC   C2B39008   5.058  10.035   6.753
 7960POPC   C3B39009   5.070   9.993   7.053
 7960POPC   C4B39010   4.999  10.023   7.353
 7961POPC   NC339011  12.886  27.623   5.553
 7961POPC   PO439012  12.865  27.586   5.853
 7961POPC   GL139013  12.835  27.576   6.153
 7961POPC   GL239014  12.712  27.552   6.153
 7961POPC   C1A39015  12.839  27.611   6.453
 7961POPC   D2A39016  12.887  27.583   6.753
 7961POPC   C3A39017  12.868  27.630   7.053
 7961POPC   C4A39018  12.865  27.552   7.353
 7961POPC   C1B39019  12.628  27.617   6.453
 7961POPC   C2B39020  12.574  27.551   6.753
 7961POPC   C3B39021  12.598  27.577   7.053
 7961POPC   C4B39022  12.597  27.561   7.353
 7962POPC   NC339023  38.469  34.554   5.553
 7962POPC   PO439024  38.412  34.575   5.853
 7962POPC   GL139025  38.460  34.570   6.153
 7962POPC   GL239026  38.421  34.429   6.153
 7962POPC   C1A39027  38.434  34.544   6.453
 7962POPC   D2A39028  38.440  34.573   6.753
 7962POPC   C3A39029  38.412  34.592   7.053
 7962POPC   C4A39030  38.434  34.527   7.353
 7962POPC   C1B39031  38.419  34.328   6.453
 7962POPC   C2B39032  38.447  34.303   6.753
 7962POPC   C3B39033  38.459  34.373   7.053
 7962POPC   C4B39034  38.431  34.358   7.353
 7963POPC   NC339035   0.449   2.023   5.553
 7963POPC   PO439036   0.476   1.961   5.853
 7963POPC   GL139037   0.471   2.015   6.153
 7963POPC   GL239038   0.545   2.040   6.153
 7963POPC   C1A39039   0.485   1.961   6.453
 7963POPC   D2A39040   0.457   2.024   6.753
 7963POPC   C3A39041   0.452   2.028   7.053
 7963POPC   C4A39042   0.460   1.974   7.353
 7963POPC   C1B39043   0.692   2.046   6.453
 7963POPC   C2B39044   0.693   2.084   6.753
 7963POPC   C3B39045   0.660   2.067   7.053
 7963POPC   C4B39046   0.629   2.115   7.353
 7964POPC   NC339047  14.416  24.461   5.553
 7964POPC   PO439048  14.381  24.477   5.853
 7964POPC   GL139049  14.381  24.501   6.153
 7964POPC   GL239050  14.372  24.381   6.153
 7964POPC   C1A39051  14.384  24.528   6.453
 7964POPC   D2A39052  14.385  24.511   6.753
 7964POPC   C3A39053  14.409  24.501   7.053
 7964POPC   C4A39054  14.447  24.471   7.353
 7964POPC   C1B39055  14.400  24.284   6.453
 7964POPC   C2B39056  14.403  24.195   6.753
 7964POPC   C3B39057  14.456  24.275   7.053
 7964POPC   C4B39058  14.479  24.273   7.353
 7965POPC   NC339059  13.606   4.342   5.553
 7965POPC   PO439060  13.590   4.359   5.853
 7965POPC   GL139061  13.671   4.363   6.153
 7965POPC   GL239062  13.657   4.248   6.153
 7965POPC   C1A39063  13.597   4.349   6.453
 7965POPC   D2A39064  13.639   4.298   6.753
 7965POPC   C3A39065  13.621   4.307   7.053
 7965POPC   C4A39066  13.606   4.287   7.353
 7965POPC   C1B39067  13.734   4.104   6.453
 7965POPC   C2B39068  13.737   4.105   6.753
 7965POPC   C3B39069  13.750   4.110   7.053
 7965POPC   C4B39070  13.803   4.139   7.353
 7966POPC   NC339071  42.332  15.134   5.553
 7966POPC   PO439072  42.293  15.181   5.853
 7966POPC   GL139073  42.380  15.179   6.153
 7966POPC   GL239074  42.430  15.077   6.153
 7966POPC   C1A39075  42.377  15.204   6.453
 7966POPC   D2A39076  42.372  15.223   6.753
 7966POPC   C3A39077  42.368  15.225   7.053
 7966POPC   C4A39078  42.292  15.170   7.353
 7966POPC   C1B39079  42.557  15.094   6.453
 7966POPC   C2B39080  42.528  15.033   6.753
 7966POPC   C3B39081  42.503  15.091   7.053
 7966POPC   C4B39082  42.531  15.011   7.353
 7967POPC   NC339083  41.536  19.040   5.553
 7967POPC   PO439084  41.586  19.094   5.853
 7967POPC   GL139085  41.558  19.059   6.153
 7967POPC   GL239086  41.714  19.133   6.153
 7967POPC   C1A39087  41.515  19.078   6.453
 7967POPC   D2A39088  41.561  19.032   6.753
 7967POPC   C3A39089  41.531  19.106   7.053
 7967POPC   C4A39090  41.558  19.055   7.353
 7967POPC   C1B39091  41.785  19.161   6.453
 7967POPC   C2B39092  41.770  19.108   6.753
 7967POPC   C3B39093  41.772  19.120   7.053
 7967POPC   C4B39094  41.837  19.178   7.353
 7968POPC   NC339095   7.379  24.485   5.553
 7968POPC   PO439096   7.464  24.507   5.853
 7968POPC   GL139097   7.419  24.503   6.153
 7968POPC   GL239098   7.321  24.558   6.153
 7968POPC   C1A39099   7.420  24.444   6.453
 7968POPC   D2A39100   7.408  24.523   6.753
 7968POPC   C3A39101   7.469  24.501   7.053
 7968POPC   C4A39102   7.461  24.522   7.353
 7968POPC   C1B39103   7.269  24.644   6.453
 7968POPC   C2B39104   7.269  24.670   6.753
 7968POPC   C3B39105   7.227  24.675   7.053
 7968POPC   C4B39106   7.243  24.652   7.353
 7969POPC   NC339107  44.690  31.454   5.553
 7969POPC   PO439108  44.683  31.485   5.853
 7969POPC   GL139109  44.673  31.479   6.153
 7969POPC   GL239110  44.582  31.536   6.153
 7969POPC   C1A39111  44.681  31.484   6.453
 7969POPC   D2A39112  44.644  31.476   6.753
 7969POPC   C3A39113  44.620  31.436   7.053
 7969POPC   C4A39114  44.676  31.511   7.353
 7969POPC   C1B39115  44.500  31.600   6.453
 7969POPC   C2B39116  44.476  31.625   6.753
 7969POPC   C3B39117  44.434  31.607   7.053
 7969POPC   C4B39118  44.434  31.596   7.353
 7970POPC   NC339119  41.543  32.983   5.553
 7970POPC   PO439120  41.538  33.005   5.853
 7970POPC   GL139121  41.574  32.986   6.153
 7970POPC   GL239122  41.625  33.106   6.153
 7970POPC   C1A39123  41.550  33.048   6.453
 7970POPC   D2A39124  41.584  33.001   6.753
 7970POPC   C3A39125  41.587  33.018   7.053
 7970POPC   C4A39126  41.538  33.043   7.353
 7970POPC   C1B39127  41.812  33.163   6.453
 7970POPC   C2B39128  41.800  33.135   6.753
 7970POPC   C3B39129  41.820  33.132   7.053
 7970POPC   C4B39130  41.785  33.127   7.353
 7971POPC   NC339131  21.337  44.650   5.553
 7971POPC   PO439132  21.362  44.621   5.853
 7971POPC   GL139133  21.434  44.635   6.153
 7971POPC   GL239134  21.511  44.641   6.153
 7971POPC   C1A39135  21.436  44.709   6.453
 7971POPC   D2A39136  21.389  44.682   6.753
 7971POPC   C3A39137  21.373  44.695   7.053
 7971POPC   C4A39138  21.379  44.707   7.353
 7971POPC   C1B39139  21.658  44.670   6.453
 7971POPC   C2B39140  21.646  44.660   6.753
 7971POPC   C3B39141  21.669  44.688   7.053
 7971POPC   C4B39142  21.606  44.704   7.353
 7972POPC   NC339143   7.405  23.676   5.553
 7972POPC   PO439144   7.452  23.736   5.853
 7972POPC   GL139145   7.404  23.692   6.153
 7972POPC   GL239146   7.473  23.854   6.153
 7972POPC   C1A39147   7.397  23.690   6.453
 7972POPC   D2A39148   7.392  23.683   6.753
 7972POPC   C3A39149   7.396  23.710   7.053
 7972POPC   C4A39150   7.440  23.728   7.353
 7972POPC   C1B39151   7.425  23.983   6.453
 7972POPC   C2B39152   7.483  23.997   6.753
 7972POPC   C3B39153   7.430  23.944   7.053
 7972POPC   C4B39154   7.487  23.997   7.353
 7973POPC   NC339155   2.001   5.884   5.553
 7973POPC   PO439156   1.947   5.908   5.853
 7973POPC   GL139157   2.012   5.851   6.153
 7973POPC   GL239158   1.914   5.763   6.153
 7973POPC   C1A39159   1.943   5.850   6.453
 7973POPC   D2A39160   1.985   5.915   6.753
 7973POPC   C3A39161   1.970   5.917   7.053
 7973POPC   C4A39162   2.021   5.918   7.353
 7973POPC   C1B39163   1.809   5.749   6.453
 7973POPC   C2B39164   1.760   5.691   6.753
 7973POPC   C3B39165   1.793   5.696   7.053
 7973POPC   C4B39166   1.847   5.703   7.353
 7974POPC   NC339167  22.132  35.337   5.553
 7974POPC   PO439168  22.137  35.366   5.853
 7974POPC   GL139169  22.186  35.309   6.153
 7974POPC   GL239170  22.046  35.314   6.153
 7974POPC   C1A39171  22.117  35.384   6.453
 7974POPC   D2A39172  22.138  35.316   6.753
 7974POPC   C3A39173  22.156  35.369   7.053
 7974POPC   C4A39174  22.189  35.318   7.353
 7974POPC   C1B39175  22.001  35.163   6.453
 7974POPC   C2B39176  22.006  35.158   6.753
 7974POPC   C3B39177  21.943  35.219   7.053
 7974POPC   C4B39178  22.006  35.181   7.353
 7975POPC   NC339179  15.209  38.470   5.553
 7975POPC   PO439180  15.227  38.418   5.853
 7975POPC   GL139181  15.197  38.467   6.153
 7975POPC   GL239182  15.188  38.321   6.153
 7975POPC   C1A39183  15.158  38.474   6.453
 7975POPC   D2A39184  15.185  38.492   6.753
 7975POPC   C3A39185  15.168  38.422   7.053
 7975POPC   C4A39186  15.177  38.446   7.353
 7975POPC   C1B39187  15.230  38.213   6.453
 7975POPC   C2B39188  15.289  38.226   6.753
 7975POPC   C3B39189  15.298  38.225   7.053
 7975POPC   C4B39190  15.285  38.201   7.353
 7976POPC   NC339191  19.821   7.470   5.553
 7976POPC   PO439192  19.806   7.400   5.853
 7976POPC   GL139193  19.871   7.443   6.153
 7976POPC   GL239194  19.911   7.523   6.153
 7976POPC   C1A39195  19.871   7.425   6.453
 7976POPC   D2A39196  19.847   7.404   6.753
 7976POPC   C3A39197  19.862   7.432   7.053
 7976POPC   C4A39198  19.787   7.458   7.353
 7976POPC   C1B39199  19.958   7.589   6.453
 7976POPC   C2B39200  20.001   7.581   6.753
 7976POPC   C3B39201  20.024   7.593   7.053
 7976POPC   C4B39202  19.997   7.618   7.353
 7977POPC   NC339203   3.513  19.079   5.553
 7977POPC   PO439204   3.556  19.092   5.853
 7977POPC   GL139205   3.574  19.060   6.153
 7977POPC   GL239206   3.582  18.961   6.153
 7977POPC   C1A39207   3.563  19.046   6.453
 7977POPC   D2A39208   3.500  19.062   6.753
 7977POPC   C3A39209   3.510  19.084   7.053
 7977POPC   C4A39210   3.518  19.093   7.353
 7977POPC   C1B39211   3.651  18.866   6.453
 7977POPC   C2B39212   3.617  18.831   6.753
 7977POPC   C3B39213   3.633  18.828   7.053
 7977POPC   C4B39214   3.624  18.860   7.353
 7978POPC   NC339215   8.938  38.406   5.553
 7978POPC   PO439216   8.964  38.498   5.853
 7978POPC   GL139217   9.001  38.417   6.153
 7978POPC   GL239218   8.892  38.535   6.153
 7978POPC   C1A39219   8.955  38.409   6.453
 7978POPC   D2A39220   9.018  38.487   6.753
 7978POPC   C3A39221   8.936  38.494   7.053
 7978POPC   C4A39222   8.928  38.439   7.353
 7978POPC   C1B39223   8.841  38.619   6.453
 7978POPC   C2B39224   8.778  38.656   6.753
 7978POPC   C3B39225   8.841  38.610   7.053
 7978POPC   C4B39226   8.798  38.676   7.353
 7979POPC   NC339227   3.564  40.040   5.553
 7979POPC   PO439228   3.557  40.056   5.853
 7979POPC   GL139229   3.556  39.975   6.153
 7979POPC   GL239230   3.622  39.890   6.153
 7979POPC   C1A39231   3.580  40.023   6.453
 7979POPC   D2A39232   3.501  39.960   6.753
 7979POPC   C3A39233   3.531  39.962   7.053
 7979POPC   C4A39234   3.586  40.013   7.353
 7979POPC   C1B39235   3.707  39.839   6.453
 7979POPC   C2B39236   3.704  39.852   6.753
 7979POPC   C3B39237   3.773  39.921   7.053
 7979POPC   C4B39238   3.722  39.908   7.353
 7980POPC   NC339239   4.270  27.547   5.553
 7980POPC   PO439240   4.291  27.639   5.853
 7980POPC   GL139241   4.367  27.614   6.153
 7980POPC   GL239242   4.208  27.634   6.153
 7980POPC   C1A39243   4.344  27.629   6.453
 7980POPC   D2A39244   4.328  27.575   6.753
 7980POPC   C3A39245   4.307  27.584   7.053
 7980POPC   C4A39246   4.319  27.554   7.353
 7980POPC   C1B39247   4.091  27.679   6.453
 7980POPC   C2B39248   4.106  27.718   6.753
 7980POPC   C3B39249   4.116  27.741   7.053
 7980POPC   C4B39250   4.082  27.733   7.353
 7981POPC   NC339251  32.206   6.635   5.553
 7981POPC   PO439252  32.223   6.655   5.853
 7981POPC   GL139253  32.285   6.630   6.153
 7981POPC   GL239254  32.160   6.617   6.153
 7981POPC   C1A39255  32.294   6.627   6.453
 7981POPC   D2A39256  32.202   6.608   6.753
 7981POPC   C3A39257  32.245   6.615   7.053
 7981POPC   C4A39258  32.226   6.609   7.353
 7981POPC   C1B39259  31.980   6.690   6.453
 7981POPC   C2B39260  31.969   6.716   6.753
 7981POPC   C3B39261  31.975   6.678   7.053
 7981POPC   C4B39262  32.051   6.653   7.353
 7982POPC   NC339263  32.249   0.472   5.553
 7982POPC   PO439264  32.253   0.437   5.853
 7982POPC   GL139265  32.272   0.429   6.153
 7982POPC   GL239266  32.152   0.448   6.153
 7982POPC   C1A39267  32.293   0.483   6.453
 7982POPC   D2A39268  32.218   0.463   6.753
 7982POPC   C3A39269  32.266   0.454   7.053
 7982POPC   C4A39270  32.221   0.434   7.353
 7982POPC   C1B39271  32.012   0.514   6.453
 7982POPC   C2B39272  32.037   0.483   6.753
 7982POPC   C3B39273  31.971   0.489   7.053
 7982POPC   C4B39274  31.993   0.455   7.353
 7983POPC   NC339275  21.418  43.134   5.553
 7983POPC   PO439276  21.336  43.118   5.853
 7983POPC   GL139277  21.379  43.126   6.153
 7983POPC   GL239278  21.392  43.238   6.153
 7983POPC   C1A39279  21.416  43.078   6.453
 7983POPC   D2A39280  21.374  43.085   6.753
 7983POPC   C3A39281  21.381  43.119   7.053
 7983POPC   C4A39282  21.376  43.070   7.353
 7983POPC   C1B39283  21.512  43.320   6.453
 7983POPC   C2B39284  21.471  43.318   6.753
 7983POPC   C3B39285  21.443  43.326   7.053
 7983POPC   C4B39286  21.426  43.372   7.353
 7984POPC   NC339287  20.613  44.662   5.553
 7984POPC   PO439288  20.633  44.634   5.853
 7984POPC   GL139289  20.586  44.614   6.153
 7984POPC   GL239290  20.468  44.635   6.153
 7984POPC   C1A39291  20.623  44.614   6.453
 7984POPC   D2A39292  20.639  44.650   6.753
 7984POPC   C3A39293  20.592  44.706   7.053
 7984POPC   C4A39294  20.654  44.619   7.353
 7984POPC   C1B39295  20.366  44.505   6.453
 7984POPC   C2B39296  20.398  44.470   6.753
 7984POPC   C3B39297  20.388  44.534   7.053
 7984POPC   C4B39298  20.397  44.548   7.353
 7985POPC   NC339299  40.752   1.211   5.553
 7985POPC   PO439300  40.741   1.263   5.853
 7985POPC   GL139301  40.743   1.237   6.153
 7985POPC   GL239302  40.807   1.127   6.153
 7985POPC   C1A39303  40.787   1.165   6.453
 7985POPC   D2A39304  40.817   1.210   6.753
 7985POPC   C3A39305  40.744   1.192   7.053
 7985POPC   C4A39306  40.782   1.178   7.353
 7985POPC   C1B39307  40.852   0.950   6.453
 7985POPC   C2B39308  40.863   0.927   6.753
 7985POPC   C3B39309  40.818   0.923   7.053
 7985POPC   C4B39310  40.833   0.952   7.353
 7986POPC   NC339311  24.517   8.992   5.553
 7986POPC   PO439312  24.445   9.015   5.853
 7986POPC   GL139313  24.538   8.975   6.153
 7986POPC   GL239314  24.592   9.115   6.153
 7986POPC   C1A39315  24.501   8.994   6.453
 7986POPC   D2A39316  24.506   8.985   6.753
 7986POPC   C3A39317  24.538   8.946   7.053
 7986POPC   C4A39318  24.475   8.960   7.353
 7986POPC   C1B39319  24.687   9.143   6.453
 7986POPC   C2B39320  24.693   9.212   6.753
 7986POPC   C3B39321  24.648   9.198   7.053
 7986POPC   C4B39322  24.607   9.177   7.353
 7987POPC   NC339323   5.054  31.426   5.553
 7987POPC   PO439324   5.118  31.507   5.853
 7987POPC   GL139325   5.119  31.502   6.153
 7987POPC   GL239326   5.201  31.522   6.153
 7987POPC   C1A39327   5.104  31.510   6.453
 7987POPC   D2A39328   5.129  31.430   6.753
 7987POPC   C3A39329   5.104  31.519   7.053
 7987POPC   C4A39330   5.089  31.446   7.353
 7987POPC   C1B39331   5.306  31.635   6.453
 7987POPC   C2B39332   5.298  31.641   6.753
 7987POPC   C3B39333   5.335  31.568   7.053
 7987POPC   C4B39334   5.346  31.566   7.353
 7988POPC   NC339335  26.081   1.993   5.553
 7988POPC   PO439336  26.054   2.018   5.853
 7988POPC   GL139337  26.022   1.949   6.153
 7988POPC   GL239338  26.075   2.093   6.153
 7988POPC   C1A39339  26.006   2.026   6.453
 7988POPC   D2A39340  26.010   1.980   6.753
 7988POPC   C3A39341  26.014   2.022   7.053
 7988POPC   C4A39342  26.078   2.001   7.353
 7988POPC   C1B39343  26.039   2.198   6.453
 7988POPC   C2B39344  26.001   2.216   6.753
 7988POPC   C3B39345  26.033   2.248   7.053
 7988POPC   C4B39346  26.027   2.266   7.353
 7989POPC   NC339347  26.808   5.910   5.553
 7989POPC   PO439348  26.791   5.855   5.853
 7989POPC   GL139349  26.795   5.850   6.153
 7989POPC   GL239350  26.928   5.839   6.153
 7989POPC   C1A39351  26.798   5.835   6.453
 7989POPC   D2A39352  26.783   5.886   6.753
 7989POPC   C3A39353  26.796   5.878   7.053
 7989POPC   C4A39354  26.818   5.908   7.353
 7989POPC   C1B39355  27.057   5.871   6.453
 7989POPC   C2B39356  27.079   5.922   6.753
 7989POPC   C3B39357  27.061   5.893   7.053
 7989POPC   C4B39358  27.035   5.915   7.353
 7990POPC   NC339359  10.557   6.692   5.553
 7990POPC   PO439360  10.476   6.667   5.853
 7990POPC   GL139361  10.569   6.664   6.153
 7990POPC   GL239362  10.565   6.729   6.153
 7990POPC   C1A39363  10.562   6.660   6.453
 7990POPC   D2A39364  10.505   6.621   6.753
 7990POPC   C3A39365  10.516   6.657   7.053
 7990POPC   C4A39366  10.538   6.688   7.353
 7990POPC   C1B39367  10.581   6.939   6.453
 7990POPC   C2B39368  10.619   6.938   6.753
 7990POPC   C3B39369  10.546   6.919   7.053
 7990POPC   C4B39370  10.555   6.921   7.353
 7991POPC   NC339371   9.740  36.866   5.553
 7991POPC   PO439372   9.796  36.936   5.853
 7991POPC   GL139373   9.750  36.881   6.153
 7991POPC   GL239374   9.749  36.992   6.153
 7991POPC   C1A39375   9.718  36.900   6.453
 7991POPC   D2A39376   9.709  36.940   6.753
 7991POPC   C3A39377   9.795  36.918   7.053
 7991POPC   C4A39378   9.714  36.900   7.353
 7991POPC   C1B39379   9.799  37.100   6.453
 7991POPC   C2B39380   9.836  37.164   6.753
 7991POPC   C3B39381   9.838  37.150   7.053
 7991POPC   C4B39382   9.812  37.108   7.353
 7992POPC   NC339383  22.168  15.224   5.553
 7992POPC   PO439384  22.152  15.199   5.853
 7992POPC   GL139385  22.147  15.182   6.153
 7992POPC   GL239386  22.031  15.190   6.153
 7992POPC   C1A39387  22.140  15.135   6.453
 7992POPC   D2A39388  22.194  15.216   6.753
 7992POPC   C3A39389  22.123  15.224   7.053
 7992POPC   C4A39390  22.204  15.227   7.353
 7992POPC   C1B39391  21.941  15.224   6.453
 7992POPC   C2B39392  21.928  15.174   6.753
 7992POPC   C3B39393  21.962  15.253   7.053
 7992POPC   C4B39394  21.891  15.225   7.353
 7993POPC   NC339395  15.960   8.186   5.553
 7993POPC   PO439396  15.973   8.212   5.853
 7993POPC   GL139397  15.928   8.220   6.153
 7993POPC   GL239398  15.918   8.326   6.153
 7993POPC   C1A39399  15.951   8.227   6.453
 7993POPC   D2A39400  15.997   8.183   6.753
 7993POPC   C3A39401  15.955   8.220   7.053
 7993POPC   C4A39402  15.933   8.194   7.353
 7993POPC   C1B39403  15.944   8.463   6.453
 7993POPC   C2B39404  15.887   8.413   6.753
 7993POPC   C3B39405  15.878   8.488   7.053
 7993POPC   C4B39406  15.889   8.469   7.353
 7994POPC   NC339407  26.058   6.634   5.553
 7994POPC   PO439408  26.072   6.607   5.853
 7994POPC   GL139409  26.076   6.623   6.153
 7994POPC   GL239410  26.164   6.713   6.153
 7994POPC   C1A39411  26.019   6.673   6.453
 7994POPC   D2A39412  26.053   6.626   6.753
 7994POPC   C3A39413  26.054   6.645   7.053
 7994POPC   C4A39414  25.993   6.670   7.353
 7994POPC   C1B39415  26.217   6.842   6.453
 7994POPC   C2B39416  26.283   6.833   6.753
 7994POPC   C3B39417  26.254   6.839   7.053
 7994POPC   C4B39418  26.256   6.786   7.353
 7995POPC   NC339419  15.932  33.823   5.553
 7995POPC   PO439420  15.927  33.769   5.853
 7995POPC   GL139421  15.927  33.767   6.153
 7995POPC   GL239422  15.865  33.841   6.153
 7995POPC   C1A39423  15.930  33.764   6.453
 7995POPC   D2A39424  15.912  33.754   6.753
 7995POPC   C3A39425  15.992  33.774   7.053
 7995POPC   C4A39426  16.001  33.773   7.353
 7995POPC   C1B39427  15.743  33.935   6.453
 7995POPC   C2B39428  15.732  33.902   6.753
 7995POPC   C3B39429  15.707  33.906   7.053
 7995POPC   C4B39430  15.770  33.931   7.353
 7996POPC   NC339431  34.612  26.025   5.553
 7996POPC   PO439432  34.543  26.004   5.853
 7996POPC   GL139433  34.556  26.058   6.153
 7996POPC   GL239434  34.544  25.941   6.153
 7996POPC   C1A39435  34.550  26.053   6.453
 7996POPC   D2A39436  34.600  26.005   6.753
 7996POPC   C3A39437  34.568  26.081   7.053
 7996POPC   C4A39438  34.608  26.089   7.353
 7996POPC   C1B39439  34.611  25.799   6.453
 7996POPC   C2B39440  34.601  25.803   6.753
 7996POPC   C3B39441  34.641  25.784   7.053
 7996POPC   C4B39442  34.561  25.835   7.353
 7997POPC   NC339443  39.976   2.032   5.553
 7997POPC   PO439444  40.040   1.941   5.853
 7997POPC   GL139445  39.973   2.006   6.153
 7997POPC   GL239446  40.019   2.071   6.153
 7997POPC   C1A39447  40.008   1.986   6.453
 7997POPC   D2A39448  39.979   1.954   6.753
 7997POPC   C3A39449  40.056   2.028   7.053
 7997POPC   C4A39450  40.025   2.035   7.353
 7997POPC   C1B39451  39.968   2.264   6.453
 7997POPC   C2B39452  39.912   2.225   6.753
 7997POPC   C3B39453  39.983   2.241   7.053
 7997POPC   C4B39454  39.904   2.264   7.353
 7998POPC   NC339455  25.242  43.933   5.553
 7998POPC   PO439456  25.309  43.933   5.853
 7998POPC   GL139457  25.280  43.860   6.153
 7998POPC   GL239458  25.206  43.861   6.153
 7998POPC   C1A39459  25.306  43.886   6.453
 7998POPC   D2A39460  25.236  43.886   6.753
 7998POPC   C3A39461  25.299  43.838   7.053
 7998POPC   C4A39462  25.272  43.921   7.353
 7998POPC   C1B39463  25.089  43.748   6.453
 7998POPC   C2B39464  25.013  43.738   6.753
 7998POPC   C3B39465  25.021  43.748   7.053
 7998POPC   C4B39466  25.015  43.759   7.353
 7999POPC   NC339467  41.553  43.863   5.553
 7999POPC   PO439468  41.596  43.925   5.853
 7999POPC   GL139469  41.582  43.874   6.153
 7999POPC   GL239470  41.678  43.922   6.153
 7999POPC   C1A39471  41.579  43.892   6.453
 7999POPC   D2A39472  41.586  43.911   6.753
 7999POPC   C3A39473  41.517  43.879   7.053
 7999POPC   C4A39474  41.602  43.860   7.353
 7999POPC   C1B39475  41.797  43.931   6.453
 7999POPC   C2B39476  41.758  43.906   6.753
 7999POPC   C3B39477  41.839  43.978   7.053
 7999POPC   C4B39478  41.757  43.944   7.353
 8000POPC   NC339479  25.309  36.905   5.553
 8000POPC   PO439480  25.266  36.912   5.853
 8000POPC   GL139481  25.265  36.914   6.153
 8000POPC   GL239482  25.184  36.927   6.153
 8000POPC   C1A39483  25.231  36.862   6.453
 8000POPC   D2A39484  25.253  36.868   6.753
 8000POPC   C3A39485  25.302  36.939   7.053
 8000POPC   C4A39486  25.240  36.931   7.353
 8000POPC   C1B39487  25.075  36.951   6.453
 8000POPC   C2B39488  25.041  36.938   6.753
 8000POPC   C3B39489  24.999  36.983   7.053
 8000POPC   C4B39490  24.999  36.965   7.353
 8001POPC   NC339491  11.314   9.772   5.553
 8001POPC   PO439492  11.314   9.705   5.853
 8001POPC   GL139493  11.293   9.755   6.153
 8001POPC   GL239494  11.276   9.839   6.153
 8001POPC   C1A39495  11.316   9.797   6.453
 8001POPC   D2A39496  11.325   9.773   6.753
 8001POPC   C3A39497  11.347   9.788   7.053
 8001POPC   C4A39498  11.253   9.763   7.353
 8001POPC   C1B39499  11.221   9.965   6.453
 8001POPC   C2B39500  11.196  10.003   6.753
 8001POPC   C3B39501  11.222   9.936   7.053
 8001POPC   C4B39502  11.160   9.939   7.353
 8002POPC   NC339503  43.936   8.924   5.553
 8002POPC   PO439504  43.853   8.952   5.853
 8002POPC   GL139505  43.911   8.962   6.153
 8002POPC   GL239506  43.971   8.886   6.153
 8002POPC   C1A39507  43.861   8.992   6.453
 8002POPC   D2A39508  43.916   8.991   6.753
 8002POPC   C3A39509  43.869   8.984   7.053
 8002POPC   C4A39510  43.893   8.998   7.353
 8002POPC   C1B39511  43.986   8.735   6.453
 8002POPC   C2B39512  43.983   8.735   6.753
 8002POPC   C3B39513  43.948   8.691   7.053
 8002POPC   C4B39514  43.989   8.784   7.353
 8003POPC   NC339515  23.686   2.804   5.553
 8003POPC   PO439516  23.664   2.740   5.853
 8003POPC   GL139517  23.749   2.756   6.153
 8003POPC   GL239518  23.636   2.726   6.153
 8003POPC   C1A39519  23.673   2.789   6.453
 8003POPC   D2A39520  23.698   2.723   6.753
 8003POPC   C3A39521  23.666   2.814   7.053
 8003POPC   C4A39522  23.681   2.716   7.353
 8003POPC   C1B39523  23.471   2.826   6.453
 8003POPC   C2B39524  23.440   2.761   6.753
 8003POPC   C3B39525  23.434   2.756   7.053
 8003POPC   C4B39526  23.509   2.793   7.353
 8004POPC   NC339527  33.757  40.774   5.553
 8004POPC   PO439528  33.843  40.784   5.853
 8004POPC   GL139529  33.805  40.739   6.153
 8004POPC   GL239530  33.663  40.727   6.153
 8004POPC   C1A39531  33.767  40.789   6.453
 8004POPC   D2A39532  33.772  40.822   6.753
 8004POPC   C3A39533  33.827  40.793   7.053
 8004POPC   C4A39534  33.802  40.782   7.353
 8004POPC   C1B39535  33.629  40.630   6.453
 8004POPC   C2B39536  33.593  40.604   6.753
 8004POPC   C3B39537  33.621  40.654   7.053
 8004POPC   C4B39538  33.597  40.637   7.353
 8005POPC   NC339539  42.307  21.402   5.553
 8005POPC   PO439540  42.303  21.402   5.853
 8005POPC   GL139541  42.355  21.341   6.153
 8005POPC   GL239542  42.446  21.330   6.153
 8005POPC   C1A39543  42.370  21.387   6.453
 8005POPC   D2A39544  42.309  21.426   6.753
 8005POPC   C3A39545  42.379  21.381   7.053
 8005POPC   C4A39546  42.318  21.373   7.353
 8005POPC   C1B39547  42.569  21.336   6.453
 8005POPC   C2B39548  42.577  21.303   6.753
 8005POPC   C3B39549  42.537  21.355   7.053
 8005POPC   C4B39550  42.593  21.388   7.353
 8006POPC   NC339551  16.740  31.499   5.553
 8006POPC   PO439552  16.704  31.436   5.853
 8006POPC   GL139553  16.726  31.478   6.153
 8006POPC   GL239554  16.879  31.522   6.153
 8006POPC   C1A39555  16.717  31.434   6.453
 8006POPC   D2A39556  16.723  31.436   6.753
 8006POPC   C3A39557  16.698  31.496   7.053
 8006POPC   C4A39558  16.742  31.449   7.353
 8006POPC   C1B39559  16.935  31.544   6.453
 8006POPC   C2B39560  16.928  31.609   6.753
 8006POPC   C3B39561  16.959  31.586   7.053
 8006POPC   C4B39562  17.002  31.525   7.353
 8007POPC   NC339563  13.638  21.391   5.553
 8007POPC   PO439564  13.628  21.390   5.853
 8007POPC   GL139565  13.583  21.359   6.153
 8007POPC   GL239566  13.520  21.281   6.153
 8007POPC   C1A39567  13.668  21.369   6.453
 8007POPC   D2A39568  13.598  21.358   6.753
 8007POPC   C3A39569  13.643  21.339   7.053
 8007POPC   C4A39570  13.640  21.436   7.353
 8007POPC   C1B39571  13.406  21.189   6.453
 8007POPC   C2B39572  13.437  21.198   6.753
 8007POPC   C3B39573  13.455  21.220   7.053
 8007POPC   C4B39574  13.494  21.193   7.353
 8008POPC   NC339575   8.220  42.316   5.553
 8008POPC   PO439576   8.176  42.310   5.853
 8008POPC   GL139577   8.193  42.331   6.153
 8008POPC   GL239578   8.151  42.460   6.153
 8008POPC   C1A39579   8.195  42.308   6.453
 8008POPC   D2A39580   8.152  42.381   6.753
 8008POPC   C3A39581   8.184  42.375   7.053
 8008POPC   C4A39582   8.181  42.291   7.353
 8008POPC   C1B39583   8.082  42.483   6.453
 8008POPC   C2B39584   8.083  42.540   6.753
 8008POPC   C3B39585   8.079  42.569   7.053
 8008POPC   C4B39586   8.043  42.576   7.353
 8009POPC   NC339587  12.092  23.694   5.553
 8009POPC   PO439588  12.073  23.688   5.853
 8009POPC   GL139589  12.122  23.746   6.153
 8009POPC   GL239590  12.154  23.783   6.153
 8009POPC   C1A39591  12.120  23.666   6.453
 8009POPC   D2A39592  12.072  23.683   6.753
 8009POPC   C3A39593  12.116  23.742   7.053
 8009POPC   C4A39594  12.124  23.681   7.353
 8009POPC   C1B39595  12.180  23.955   6.453
 8009POPC   C2B39596  12.258  23.942   6.753
 8009POPC   C3B39597  12.195  23.950   7.053
 8009POPC   C4B39598  12.252  23.907   7.353
 8010POPC   NC339599  20.640  33.028   5.553
 8010POPC   PO439600  20.562  33.021   5.853
 8010POPC   GL139601  20.600  33.044   6.153
 8010POPC   GL239602  20.520  32.948   6.153
 8010POPC   C1A39603  20.563  33.035   6.453
 8010POPC   D2A39604  20.605  33.040   6.753
 8010POPC   C3A39605  20.593  33.068   7.053
 8010POPC   C4A39606  20.565  33.063   7.353
 8010POPC   C1B39607  20.455  32.854   6.453
 8010POPC   C2B39608  20.499  32.830   6.753
 8010POPC   C3B39609  20.533  32.799   7.053
 8010POPC   C4B39610  20.466  32.766   7.353
 8011POPC   NC339611  15.179  18.252   5.553
 8011POPC   PO439612  15.156  18.254   5.853
 8011POPC   GL139613  15.161  18.283   6.153
 8011POPC   GL239614  15.049  18.267   6.153
 8011POPC   C1A39615  15.191  18.244   6.453
 8011POPC   D2A39616  15.195  18.330   6.753
 8011POPC   C3A39617  15.192  18.326   7.053
 8011POPC   C4A39618  15.165  18.244   7.353
 8011POPC   C1B39619  14.912  18.273   6.453
 8011POPC   C2B39620  14.934  18.296   6.753
 8011POPC   C3B39621  14.961  18.319   7.053
 8011POPC   C4B39622  14.965  18.346   7.353
 8012POPC   NC339623   2.737  15.208   5.553
 8012POPC   PO439624   2.761  15.161   5.853
 8012POPC   GL139625   2.716  15.172   6.153
 8012POPC   GL239626   2.896  15.224   6.153
 8012POPC   C1A39627   2.811  15.219   6.453
 8012POPC   D2A39628   2.753  15.139   6.753
 8012POPC   C3A39629   2.728  15.182   7.053
 8012POPC   C4A39630   2.765  15.143   7.353
 8012POPC   C1B39631   3.019  15.288   6.453
 8012POPC   C2B39632   2.999  15.286   6.753
 8012POPC   C3B39633   2.963  15.296   7.053
 8012POPC   C4B39634   3.024  15.259   7.353
 8013POPC   NC339635  14.452  39.995   5.553
 8013POPC   PO439636  14.370  39.998   5.853
 8013POPC   GL139637  14.393  40.001   6.153
 8013POPC   GL239638  14.267  39.946   6.153
 8013POPC   C1A39639  14.412  39.961   6.453
 8013POPC   D2A39640  14.388  40.041   6.753
 8013POPC   C3A39641  14.408  39.969   7.053
 8013POPC   C4A39642  14.417  39.971   7.353
 8013POPC   C1B39643  14.178  39.882   6.453
 8013POPC   C2B39644  14.144  39.952   6.753
 8013POPC   C3B39645  14.192  39.926   7.053
 8013POPC   C4B39646  14.133  39.930   7.353
 8014POPC   NC339647   6.685  39.185   5.553
 8014POPC   PO439648   6.632  39.249   5.853
 8014POPC   GL139649   6.641  39.199   6.153
 8014POPC   GL239650   6.778  39.173   6.153
 8014POPC   C1A39651   6.603  39.241   6.453
 8014POPC   D2A39652   6.663  39.242   6.753
 8014POPC   C3A39653   6.629  39.228   7.053
 8014POPC   C4A39654   6.631  39.270   7.353
 8014POPC   C1B39655   6.907  39.179   6.453
 8014POPC   C2B39656   6.851  39.202   6.753
 8014POPC   C3B39657   6.874  39.158   7.053
 8014POPC   C4B39658   6.892  39.202   7.353
 8015POPC   NC339659  36.137  19.810   5.553
 8015POPC   PO439660  36.097  19.860   5.853
 8015POPC   GL139661  36.169  19.792   6.153
 8015POPC   GL239662  36.212  19.981   6.153
 8015POPC   C1A39663  36.122  19.811   6.453
 8015POPC   D2A39664  36.115  19.841   6.753
 8015POPC   C3A39665  36.100  19.840   7.053
 8015POPC   C4A39666  36.142  19.847   7.353
 8015POPC   C1B39667  36.158  20.082   6.453
 8015POPC   C2B39668  36.151  20.056   6.753
 8015POPC   C3B39669  36.221  20.100   7.053
 8015POPC   C4B39670  36.179  20.079   7.353
 8016POPC   NC339671  16.687   9.762   5.553
 8016POPC   PO439672  16.746   9.730   5.853
 8016POPC   GL139673  16.714   9.787   6.153
 8016POPC   GL239674  16.887   9.790   6.153
 8016POPC   C1A39675  16.732   9.721   6.453
 8016POPC   D2A39676  16.736   9.755   6.753
 8016POPC   C3A39677  16.747   9.701   7.053
 8016POPC   C4A39678  16.720   9.730   7.353
 8016POPC   C1B39679  17.015   9.741   6.453
 8016POPC   C2B39680  16.956   9.736   6.753
 8016POPC   C3B39681  16.987   9.717   7.053
 8016POPC   C4B39682  17.015   9.753   7.353
 8017POPC   NC339683  22.955  26.019   5.553
 8017POPC   PO439684  22.987  26.091   5.853
 8017POPC   GL139685  22.924  26.000   6.153
 8017POPC   GL239686  23.025  25.979   6.153
 8017POPC   C1A39687  22.895  25.997   6.453
 8017POPC   D2A39688  22.962  26.002   6.753
 8017POPC   C3A39689  22.959  26.086   7.053
 8017POPC   C4A39690  22.957  26.029   7.353
 8017POPC   C1B39691  23.157  25.836   6.453
 8017POPC   C2B39692  23.145  25.907   6.753
 8017POPC   C3B39693  23.138  25.870   7.053
 8017POPC   C4B39694  23.158  25.906   7.353
 8018POPC   NC339695   1.952  42.341   5.553
 8018POPC   PO439696   2.001  42.369   5.853
 8018POPC   GL139697   1.941  42.286   6.153
 8018POPC   GL239698   1.938  42.268   6.153
 8018POPC   C1A39699   1.948  42.297   6.453
 8018POPC   D2A39700   1.977  42.340   6.753
 8018POPC   C3A39701   2.036  42.312   7.053
 8018POPC   C4A39702   1.940  42.331   7.353
 8018POPC   C1B39703   1.833  42.078   6.453
 8018POPC   C2B39704   1.848  42.099   6.753
 8018POPC   C3B39705   1.902  42.156   7.053
 8018POPC   C4B39706   1.860  42.087   7.353
 8019POPC   NC339707  26.025  37.663   5.553
 8019POPC   PO439708  26.014  37.661   5.853
 8019POPC   GL139709  26.056  37.657   6.153
 8019POPC   GL239710  25.893  37.681   6.153
 8019POPC   C1A39711  26.071  37.649   6.453
 8019POPC   D2A39712  25.999  37.684   6.753
 8019POPC   C3A39713  26.050  37.670   7.053
 8019POPC   C4A39714  26.079  37.683   7.353
 8019POPC   C1B39715  25.760  37.723   6.453
 8019POPC   C2B39716  25.851  37.754   6.753
 8019POPC   C3B39717  25.789  37.743   7.053
 8019POPC   C4B39718  25.788  37.773   7.353
 8020POPC   NC339719  41.584   9.744   5.553
 8020POPC   PO439720  41.574   9.785   5.853
 8020POPC   GL139721  41.593   9.767   6.153
 8020POPC   GL239722  41.693   9.853   6.153
 8020POPC   C1A39723  41.571   9.779   6.453
 8020POPC   D2A39724  41.517   9.731   6.753
 8020POPC   C3A39725  41.558   9.774   7.053
 8020POPC   C4A39726  41.552   9.701   7.353
 8020POPC   C1B39727  41.731   9.903   6.453
 8020POPC   C2B39728  41.739   9.926   6.753
 8020POPC   C3B39729  41.714   9.960   7.053
 8020POPC   C4B39730  41.706   9.902   7.353
 8021POPC   NC339731  19.101  15.226   5.553
 8021POPC   PO439732  19.102  15.208   5.853
 8021POPC   GL139733  19.089  15.210   6.153
 8021POPC   GL239734  19.024  15.303   6.153
 8021POPC   C1A39735  19.081  15.188   6.453
 8021POPC   D2A39736  19.088  15.199   6.753
 8021POPC   C3A39737  19.098  15.208   7.053
 8021POPC   C4A39738  19.039  15.168   7.353
 8021POPC   C1B39739  18.933  15.390   6.453
 8021POPC   C2B39740  18.934  15.459   6.753
 8021POPC   C3B39741  18.963  15.410   7.053
 8021POPC   C4B39742  18.993  15.465   7.353
 8022POPC   NC339743  40.815  41.564   5.553
 8022POPC   PO439744  40.743  41.590   5.853
 8022POPC   GL139745  40.822  41.524   6.153
 8022POPC   GL239746  40.924  41.555   6.153
 8022POPC   C1A39747  40.775  41.602   6.453
 8022POPC   D2A39748  40.833  41.548   6.753
 8022POPC   C3A39749  40.795  41.532   7.053
 8022POPC   C4A39750  40.815  41.509   7.353
 8022POPC   C1B39751  41.046  41.512   6.453
 8022POPC   C2B39752  41.003  41.452   6.753
 8022POPC   C3B39753  41.008  41.493   7.053
 8022POPC   C4B39754  40.983  41.460   7.353
 8023POPC   NC339755  24.453  14.428   5.553
 8023POPC   PO439756  24.460  14.426   5.853
 8023POPC   GL139757  24.461  14.356   6.153
 8023POPC   GL239758  24.597  14.483   6.153
 8023POPC   C1A39759  24.490  14.376   6.453
 8023POPC   D2A39760  24.464  14.444   6.753
 8023POPC   C3A39761  24.447  14.384   7.053
 8023POPC   C4A39762  24.504  14.423   7.353
 8023POPC   C1B39763  24.685  14.489   6.453
 8023POPC   C2B39764  24.759  14.479   6.753
 8023POPC   C3B39765  24.774  14.458   7.053
 8023POPC   C4B39766  24.683  14.439   7.353
 8024POPC   NC339767   3.529  29.189   5.553
 8024POPC   PO439768   3.535  29.125   5.853
 8024POPC   GL139769   3.537  29.185   6.153
 8024POPC   GL239770   3.402  29.112   6.153
 8024POPC   C1A39771   3.580  29.147   6.453
 8024POPC   D2A39772   3.559  29.183   6.753
 8024POPC   C3A39773   3.516  29.190   7.053
 8024POPC   C4A39774   3.576  29.190   7.353
 8024POPC   C1B39775   3.303  29.119   6.453
 8024POPC   C2B39776   3.252  29.091   6.753
 8024POPC   C3B39777   3.289  29.164   7.053
 8024POPC   C4B39778   3.311  29.117   7.353
 8025POPC   NC339779  19.017  36.089   5.553
 8025POPC   PO439780  19.031  36.149   5.853
 8025POPC   GL139781  19.086  36.168   6.153
 8025POPC   GL239782  19.148  36.155   6.153
 8025POPC   C1A39783  19.056  36.150   6.453
 8025POPC   D2A39784  19.031  36.177   6.753
 8025POPC   C3A39785  19.022  36.150   7.053
 8025POPC   C4A39786  19.086  36.084   7.353
 8025POPC   C1B39787  19.299  36.210   6.453
 8025POPC   C2B39788  19.299  36.202   6.753
 8025POPC   C3B39789  19.234  36.250   7.053
 8025POPC   C4B39790  19.293  36.224   7.353
 8026POPC   NC339791  17.555  29.156   5.553
 8026POPC   PO439792  17.536  29.131   5.853
 8026POPC   GL139793  17.523  29.142   6.153
 8026POPC   GL239794  17.641  29.058   6.153
 8026POPC   C1A39795  17.493  29.189   6.453
 8026POPC   D2A39796  17.553  29.124   6.753
 8026POPC   C3A39797  17.496  29.168   7.053
 8026POPC   C4A39798  17.507  29.145   7.353
 8026POPC   C1B39799  17.766  29.003   6.453
 8026POPC   C2B39800  17.696  29.037   6.753
 8026POPC   C3B39801  17.742  29.048   7.053
 8026POPC   C4B39802  17.699  28.994   7.353
 8027POPC   NC339803  13.651  14.442   5.553
 8027POPC   PO439804  13.615  14.407   5.853
 8027POPC   GL139805  13.647  14.447   6.153
 8027POPC   GL239806  13.636  14.561   6.153
 8027POPC   C1A39807  13.653  14.410   6.453
 8027POPC   D2A39808  13.585  14.381   6.753
 8027POPC   C3A39809  13.642  14.388   7.053
 8027POPC   C4A39810  13.645  14.354   7.353
 8027POPC   C1B39811  13.686  14.655   6.453
 8027POPC   C2B39812  13.663  14.642   6.753
 8027POPC   C3B39813  13.709  14.639   7.053
 8027POPC   C4B39814  13.638  14.612   7.353
 8028POPC   NC339815   9.783  27.626   5.553
 8028POPC   PO439816   9.766  27.560   5.853
 8028POPC   GL139817   9.774  27.612   6.153
 8028POPC   GL239818   9.668  27.524   6.153
 8028POPC   C1A39819   9.772  27.636   6.453
 8028POPC   D2A39820   9.752  27.641   6.753
 8028POPC   C3A39821   9.768  27.552   7.053
 8028POPC   C4A39822   9.723  27.601   7.353
 8028POPC   C1B39823   9.712  27.376   6.453
 8028POPC   C2B39824   9.621  27.336   6.753
 8028POPC   C3B39825   9.691  27.380   7.053
 8028POPC   C4B39826   9.681  27.331   7.353
 8029POPC   NC339827  26.008  27.568   5.553
 8029POPC   PO439828  26.037  27.610   5.853
 8029POPC   GL139829  26.019  27.550   6.153
 8029POPC   GL239830  25.898  27.652   6.153
 8029POPC   C1A39831  26.006  27.569   6.453
 8029POPC   D2A39832  26.084  27.628   6.753
 8029POPC   C3A39833  26.061  27.572   7.053
 8029POPC   C4A39834  26.040  27.626   7.353
 8029POPC   C1B39835  25.771  27.745   6.453
 8029POPC   C2B39836  25.863  27.680   6.753
 8029POPC   C3B39837  25.811  27.673   7.053
 8029POPC   C4B39838  25.857  27.666   7.353
 8030POPC   NC339839   9.715  43.915   5.553
 8030POPC   PO439840   9.793  43.906   5.853
 8030POPC   GL139841   9.736  43.909   6.153
 8030POPC   GL239842   9.790  43.781   6.153
 8030POPC   C1A39843   9.797  43.923   6.453
 8030POPC   D2A39844   9.727  43.881   6.753
 8030POPC   C3A39845   9.749  43.892   7.053
 8030POPC   C4A39846   9.725  43.861   7.353
 8030POPC   C1B39847   9.872  43.645   6.453
 8030POPC   C2B39848   9.874  43.697   6.753
 8030POPC   C3B39849   9.880  43.645   7.053
 8030POPC   C4B39850   9.819  43.677   7.353
 8031POPC   NC339851   2.753  18.252   5.553
 8031POPC   PO439852   2.747  18.248   5.853
 8031POPC   GL139853   2.771  18.314   6.153
 8031POPC   GL239854   2.766  18.411   6.153
 8031POPC   C1A39855   2.781  18.277   6.453
 8031POPC   D2A39856   2.743  18.298   6.753
 8031POPC   C3A39857   2.752  18.256   7.053
 8031POPC   C4A39858   2.813  18.254   7.353
 8031POPC   C1B39859   2.872  18.469   6.453
 8031POPC   C2B39860   2.830  18.488   6.753
 8031POPC   C3B39861   2.870  18.506   7.053
 8031POPC   C4B39862   2.859  18.517   7.353
 8032POPC   NC339863   2.000  29.962   5.553
 8032POPC   PO439864   2.010  29.915   5.853
 8032POPC   GL139865   1.993  29.939   6.153
 8032POPC   GL239866   2.083  29.836   6.153
 8032POPC   C1A39867   1.995  29.901   6.453
 8032POPC   D2A39868   2.028  29.884   6.753
 8032POPC   C3A39869   1.987  29.935   7.053
 8032POPC   C4A39870   1.976  29.922   7.353
 8032POPC   C1B39871   2.278  29.813   6.453
 8032POPC   C2B39872   2.216  29.858   6.753
 8032POPC   C3B39873   2.220  29.892   7.053
 8032POPC   C4B39874   2.218  29.872   7.353
 8033POPC   NC339875  12.030   5.106   5.553
 8033POPC   PO439876  12.114   5.087   5.853
 8033POPC   GL139877  12.088   5.045   6.153
 8033POPC   GL239878  12.090   5.008   6.153
 8033POPC   C1A39879  12.106   5.055   6.453
 8033POPC   D2A39880  12.058   5.058   6.753
 8033POPC   C3A39881  12.081   5.064   7.053
 8033POPC   C4A39882  12.124   5.133   7.353
 8033POPC   C1B39883  12.122   4.903   6.453
 8033POPC   C2B39884  12.113   4.807   6.753
 8033POPC   C3B39885  12.187   4.813   7.053
 8033POPC   C4B39886  12.181   4.899   7.353
 8034POPC   NC339887  27.585  26.830   5.553
 8034POPC   PO439888  27.577  26.798   5.853
 8034POPC   GL139889  27.564  26.792   6.153
 8034POPC   GL239890  27.595  26.933   6.153
 8034POPC   C1A39891  27.619  26.795   6.453
 8034POPC   D2A39892  27.608  26.842   6.753
 8034POPC   C3A39893  27.584  26.838   7.053
 8034POPC   C4A39894  27.613  26.781   7.353
 8034POPC   C1B39895  27.553  27.114   6.453
 8034POPC   C2B39896  27.547  27.068   6.753
 8034POPC   C3B39897  27.585  27.038   7.053
 8034POPC   C4B39898  27.619  27.069   7.353
 8035POPC   NC339899  38.448  15.966   5.553
 8035POPC   PO439900  38.456  15.924   5.853
 8035POPC   GL139901  38.421  15.972   6.153
 8035POPC   GL239902  38.513  16.084   6.153
 8035POPC   C1A39903  38.473  15.959   6.453
 8035POPC   D2A39904  38.463  15.911   6.753
 8035POPC   C3A39905  38.450  15.914   7.053
 8035POPC   C4A39906  38.491  15.976   7.353
 8035POPC   C1B39907  38.551  16.140   6.453
 8035POPC   C2B39908  38.570  16.165   6.753
 8035POPC   C3B39909  38.583  16.181   7.053
 8035POPC   C4B39910  38.616  16.158   7.353
 8036POPC   NC339911  42.345  19.851   5.553
 8036POPC   PO439912  42.305  19.857   5.853
 8036POPC   GL139913  42.336  19.861   6.153
 8036POPC   GL239914  42.478  19.848   6.153
 8036POPC   C1A39915  42.285  19.827   6.453
 8036POPC   D2A39916  42.368  19.839   6.753
 8036POPC   C3A39917  42.355  19.816   7.053
 8036POPC   C4A39918  42.325  19.824   7.353
 8036POPC   C1B39919  42.590  19.933   6.453
 8036POPC   C2B39920  42.525  19.914   6.753
 8036POPC   C3B39921  42.543  19.894   7.053
 8036POPC   C4B39922  42.523  19.945   7.353
 8037POPC   NC339923  18.251  33.790   5.553
 8037POPC   PO439924  18.307  33.774   5.853
 8037POPC   GL139925  18.291  33.751   6.153
 8037POPC   GL239926  18.447  33.774   6.153
 8037POPC   C1A39927  18.252  33.807   6.453
 8037POPC   D2A39928  18.233  33.783   6.753
 8037POPC   C3A39929  18.293  33.775   7.053
 8037POPC   C4A39930  18.248  33.802   7.353
 8037POPC   C1B39931  18.522  33.768   6.453
 8037POPC   C2B39932  18.498  33.827   6.753
 8037POPC   C3B39933  18.535  33.821   7.053
 8037POPC   C4B39934  18.573  33.827   7.353
 8038POPC   NC339935  42.343  16.706   5.553
 8038POPC   PO439936  42.341  16.732   5.853
 8038POPC   GL139937  42.318  16.707   6.153
 8038POPC   GL239938  42.348  16.793   6.153
 8038POPC   C1A39939  42.302  16.690   6.453
 8038POPC   D2A39940  42.309  16.729   6.753
 8038POPC   C3A39941  42.305  16.712   7.053
 8038POPC   C4A39942  42.339  16.748   7.353
 8038POPC   C1B39943  42.460  16.918   6.453
 8038POPC   C2B39944  42.459  16.954   6.753
 8038POPC   C3B39945  42.413  16.986   7.053
 8038POPC   C4B39946  42.428  16.985   7.353
 8039POPC   NC339947  27.641  19.868   5.553
 8039POPC   PO439948  27.611  19.794   5.853
 8039POPC   GL139949  27.624  19.791   6.153
 8039POPC   GL239950  27.667  19.848   6.153
 8039POPC   C1A39951  27.604  19.819   6.453
 8039POPC   D2A39952  27.598  19.863   6.753
 8039POPC   C3A39953  27.561  19.880   7.053
 8039POPC   C4A39954  27.570  19.860   7.353
 8039POPC   C1B39955  27.818  19.866   6.453
 8039POPC   C2B39956  27.863  19.911   6.753
 8039POPC   C3B39957  27.817  19.896   7.053
 8039POPC   C4B39958  27.880  19.835   7.353
 8040POPC   NC339959  36.900  19.088   5.553
 8040POPC   PO439960  36.924  19.049   5.853
 8040POPC   GL139961  36.855  19.066   6.153
 8040POPC   GL239962  36.840  18.971   6.153
 8040POPC   C1A39963  36.935  19.030   6.453
 8040POPC   D2A39964  36.904  19.069   6.753
 8040POPC   C3A39965  36.902  19.059   7.053
 8040POPC   C4A39966  36.855  19.102   7.353
 8040POPC   C1B39967  36.656  18.891   6.453
 8040POPC   C2B39968  36.686  18.931   6.753
 8040POPC   C3B39969  36.674  18.945   7.053
 8040POPC   C4B39970  36.693  18.877   7.353
 8041POPC   NC339971  12.807   6.677   5.553
 8041POPC   PO439972  12.847   6.616   5.853
 8041POPC   GL139973  12.879   6.604   6.153
 8041POPC   GL239974  12.911   6.719   6.153
 8041POPC   C1A39975  12.894   6.685   6.453
 8041POPC   D2A39976  12.825   6.629   6.753
 8041POPC   C3A39977  12.862   6.601   7.053
 8041POPC   C4A39978  12.890   6.663   7.353
 8041POPC   C1B39979  13.014   6.766   6.453
 8041POPC   C2B39980  13.072   6.762   6.753
 8041POPC   C3B39981  13.074   6.802   7.053
 8041POPC   C4B39982  13.085   6.773   7.353
 8042POPC   NC339983  36.143   7.421   5.553
 8042POPC   PO439984  36.153   7.391   5.853
 8042POPC   GL139985  36.122   7.410   6.153
 8042POPC   GL239986  36.204   7.372   6.153
 8042POPC   C1A39987  36.133   7.421   6.453
 8042POPC   D2A39988  36.139   7.434   6.753
 8042POPC   C3A39989  36.080   7.386   7.053
 8042POPC   C4A39990  36.168   7.438   7.353
 8042POPC   C1B39991  36.375   7.331   6.453
 8042POPC   C2B39992  36.416   7.377   6.753
 8042POPC   C3B39993  36.382   7.368   7.053
 8042POPC   C4B39994  36.360   7.377   7.353
 8043POPC   NC339995  19.015  16.694   5.553
 8043POPC   PO439996  19.107  16.774   5.853
 8043POPC   GL139997  19.010  16.700   6.153
 8043POPC   GL239998  18.960  16.656   6.153
 8043POPC   C1A39999  19.039  16.775   6.453
 8043POPC   D2A40000  19.049  16.731   6.753
 8043POPC   C3A40001  19.050  16.719   7.053
 8043POPC   C4A40002  19.059  16.762   7.353
 8043POPC   C1B40003  18.863  16.579   6.453
 8043POPC   C2B40004  18.871  16.566   6.753
 8043POPC   C3B40005  18.887  16.550   7.053
 8043POPC   C4B40006  18.898  16.541   7.353
 8044POPC   NC340007   0.411  22.138   5.553
 8044POPC   PO440008   0.420  22.209   5.853
 8044POPC   GL140009   0.449  22.142   6.153
 8044POPC   GL240010   0.503  22.058   6.153
 8044POPC   C1A40011   0.468  22.143   6.453
 8044POPC   D2A40012   0.448  22.146   6.753
 8044POPC   C3A40013   0.393  22.156   7.053
 8044POPC   C4A40014   0.431  22.177   7.353
 8044POPC   C1B40015   0.664  22.008   6.453
 8044POPC   C2B40016   0.628  22.016   6.753
 8044POPC   C3B40017   0.620  22.017   7.053
 8044POPC   C4B40018   0.579  22.000   7.353
 8045POPC   NC340019  33.757  29.116   5.553
 8045POPC   PO440020  33.801  29.161   5.853
 8045POPC   GL140021  33.787  29.161   6.153
 8045POPC   GL240022  33.807  29.274   6.153
 8045POPC   C1A40023  33.800  29.172   6.453
 8045POPC   D2A40024  33.782  29.193   6.753
 8045POPC   C3A40025  33.830  29.167   7.053
 8045POPC   C4A40026  33.780  29.095   7.353
 8045POPC   C1B40027  33.751  29.351   6.453
 8045POPC   C2B40028  33.746  29.427   6.753
 8045POPC   C3B40029  33.767  29.418   7.053
 8045POPC   C4B40030  33.711  29.362   7.353
 8046POPC   NC340031  42.358   6.649   5.553
 8046POPC   PO440032  42.302   6.642   5.853
 8046POPC   GL140033  42.295   6.653   6.153
 8046POPC   GL240034  42.424   6.566   6.153
 8046POPC   C1A40035  42.290   6.608   6.453
 8046POPC   D2A40036  42.287   6.681   6.753
 8046POPC   C3A40037  42.326   6.682   7.053
 8046POPC   C4A40038  42.371   6.617   7.353
 8046POPC   C1B40039  42.587   6.513   6.453
 8046POPC   C2B40040  42.521   6.516   6.753
 8046POPC   C3B40041  42.535   6.470   7.053
 8046POPC   C4B40042  42.581   6.484   7.353
 8047POPC   NC340043  42.293  33.777   5.553
 8047POPC   PO440044  42.310  33.828   5.853
 8047POPC   GL140045  42.311  33.846   6.153
 8047POPC   GL240046  42.331  33.899   6.153
 8047POPC   C1A40047  42.373  33.846   6.453
 8047POPC   D2A40048  42.302  33.808   6.753
 8047POPC   C3A40049  42.350  33.809   7.053
 8047POPC   C4A40050  42.379  33.770   7.353
 8047POPC   C1B40051  42.413  34.073   6.453
 8047POPC   C2B40052  42.430  34.094   6.753
 8047POPC   C3B40053  42.343  33.999   7.053
 8047POPC   C4B40054  42.349  34.037   7.353
 8048POPC   NC340055   0.480   4.312   5.553
 8048POPC   PO440056   0.398   4.318   5.853
 8048POPC   GL140057   0.391   4.285   6.153
 8048POPC   GL240058   0.328   4.283   6.153
 8048POPC   C1A40059   0.445   4.344   6.453
 8048POPC   D2A40060   0.422   4.298   6.753
 8048POPC   C3A40061   0.455   4.353   7.053
 8048POPC   C4A40062   0.395   4.347   7.353
 8048POPC   C1B40063   0.159   4.368   6.453
 8048POPC   C2B40064   0.218   4.297   6.753
 8048POPC   C3B40065   0.166   4.308   7.053
 8048POPC   C4B40066   0.220   4.368   7.353
 8049POPC   NC340067  38.408  23.759   5.553
 8049POPC   PO440068  38.432  23.736   5.853
 8049POPC   GL140069  38.461  23.756   6.153
 8049POPC   GL240070  38.577  23.727   6.153
 8049POPC   C1A40071  38.488  23.720   6.453
 8049POPC   D2A40072  38.473  23.690   6.753
 8049POPC   C3A40073  38.490  23.671   7.053
 8049POPC   C4A40074  38.461  23.747   7.353
 8049POPC   C1B40075  38.706  23.806   6.453
 8049POPC   C2B40076  38.727  23.854   6.753
 8049POPC   C3B40077  38.645  23.856   7.053
 8049POPC   C4B40078  38.673  23.779   7.353
 8050POPC   NC340079  12.106  40.036   5.553
 8050POPC   PO440080  12.081  40.026   5.853
 8050POPC   GL140081  12.107  40.021   6.153
 8050POPC   GL240082  12.147  40.091   6.153
 8050POPC   C1A40083  12.031  40.017   6.453
 8050POPC   D2A40084  12.098  39.980   6.753
 8050POPC   C3A40085  12.103  40.019   7.053
 8050POPC   C4A40086  12.125  40.032   7.353
 8050POPC   C1B40087  12.284  40.161   6.453
 8050POPC   C2B40088  12.226  40.162   6.753
 8050POPC   C3B40089  12.260  40.198   7.053
 8050POPC   C4B40090  12.308  40.204   7.353
 8051POPC   NC340091  33.019  19.866   5.553
 8051POPC   PO440092  33.000  19.795   5.853
 8051POPC   GL140093  33.048  19.824   6.153
 8051POPC   GL240094  33.123  19.906   6.153
 8051POPC   C1A40095  32.975  19.847   6.453
 8051POPC   D2A40096  33.064  19.854   6.753
 8051POPC   C3A40097  33.037  19.856   7.053
 8051POPC   C4A40098  32.992  19.805   7.353
 8051POPC   C1B40099  33.175  20.051   6.453
 8051POPC   C2B40100  33.220  20.010   6.753
 8051POPC   C3B40101  33.153  20.018   7.053
 8051POPC   C4B40102  33.165  19.964   7.353
 8052POPC   NC340103  18.302  19.859   5.553
 8052POPC   PO440104  18.284  19.829   5.853
 8052POPC   GL140105  18.276  19.860   6.153
 8052POPC   GL240106  18.275  19.686   6.153
 8052POPC   C1A40107  18.257  19.802   6.453
 8052POPC   D2A40108  18.282  19.823   6.753
 8052POPC   C3A40109  18.305  19.802   7.053
 8052POPC   C4A40110  18.323  19.791   7.353
 8052POPC   C1B40111  18.334  19.551   6.453
 8052POPC   C2B40112  18.339  19.608   6.753
 8052POPC   C3B40113  18.285  19.584   7.053
 8052POPC   C4B40114  18.291  19.622   7.353
 8053POPC   NC340115  38.488   1.237   5.553
 8053POPC   PO440116  38.455   1.235   5.853
 8053POPC   GL140117  38.422   1.202   6.153
 8053POPC   GL240118  38.319   1.268   6.153
 8053POPC   C1A40119  38.499   1.260   6.453
 8053POPC   D2A40120  38.458   1.252   6.753
 8053POPC   C3A40121  38.464   1.238   7.053
 8053POPC   C4A40122  38.497   1.204   7.353
 8053POPC   C1B40123  38.167   1.277   6.453
 8053POPC   C2B40124  38.182   1.288   6.753
 8053POPC   C3B40125  38.188   1.202   7.053
 8053POPC   C4B40126  38.202   1.215   7.353
 8054POPC   NC340127  35.338  30.655   5.553
 8054POPC   PO440128  35.392  30.681   5.853
 8054POPC   GL140129  35.376  30.713   6.153
 8054POPC   GL240130  35.471  30.764   6.153
 8054POPC   C1A40131  35.344  30.656   6.453
 8054POPC   D2A40132  35.347  30.688   6.753
 8054POPC   C3A40133  35.315  30.736   7.053
 8054POPC   C4A40134  35.345  30.733   7.353
 8054POPC   C1B40135  35.500  30.914   6.453
 8054POPC   C2B40136  35.525  30.867   6.753
 8054POPC   C3B40137  35.542  30.920   7.053
 8054POPC   C4B40138  35.490  30.849   7.353
 8055POPC   NC340139  11.313  40.816   5.553
 8055POPC   PO440140  11.315  40.747   5.853
 8055POPC   GL140141  11.299  40.813   6.153
 8055POPC   GL240142  11.370  40.889   6.153
 8055POPC   C1A40143  11.292  40.775   6.453
 8055POPC   D2A40144  11.327  40.815   6.753
 8055POPC   C3A40145  11.310  40.790   7.053
 8055POPC   C4A40146  11.254  40.736   7.353
 8055POPC   C1B40147  11.511  40.962   6.453
 8055POPC   C2B40148  11.497  40.956   6.753
 8055POPC   C3B40149  11.430  40.970   7.053
 8055POPC   C4B40150  11.470  40.936   7.353
 8056POPC   NC340151  13.654  17.503   5.553
 8056POPC   PO440152  13.596  17.524   5.853
 8056POPC   GL140153  13.624  17.534   6.153
 8056POPC   GL240154  13.619  17.611   6.153
 8056POPC   C1A40155  13.593  17.508   6.453
 8056POPC   D2A40156  13.655  17.530   6.753
 8056POPC   C3A40157  13.582  17.518   7.053
 8056POPC   C4A40158  13.619  17.459   7.353
 8056POPC   C1B40159  13.580  17.703   6.453
 8056POPC   C2B40160  13.595  17.759   6.753
 8056POPC   C3B40161  13.582  17.714   7.053
 8056POPC   C4B40162  13.604  17.762   7.353
 8057POPC   NC340163  13.634   0.414   5.553
 8057POPC   PO440164  13.598   0.413   5.853
 8057POPC   GL140165  13.608   0.434   6.153
 8057POPC   GL240166  13.776   0.523   6.153
 8057POPC   C1A40167  13.667   0.456   6.453
 8057POPC   D2A40168  13.611   0.465   6.753
 8057POPC   C3A40169  13.647   0.407   7.053
 8057POPC   C4A40170  13.637   0.448   7.353
 8057POPC   C1B40171  13.913   0.493   6.453
 8057POPC   C2B40172  13.899   0.563   6.753
 8057POPC   C3B40173  13.885   0.481   7.053
 8057POPC   C4B40174  13.826   0.535   7.353
 8058POPC   NC340175   4.289   4.314   5.553
 8058POPC   PO440176   4.293   4.327   5.853
 8058POPC   GL140177   4.350   4.326   6.153
 8058POPC   GL240178   4.488   4.270   6.153
 8058POPC   C1A40179   4.275   4.268   6.453
 8058POPC   D2A40180   4.305   4.329   6.753
 8058POPC   C3A40181   4.367   4.308   7.053
 8058POPC   C4A40182   4.305   4.297   7.353
 8058POPC   C1B40183   4.611   4.295   6.453
 8058POPC   C2B40184   4.539   4.314   6.753
 8058POPC   C3B40185   4.612   4.309   7.053
 8058POPC   C4B40186   4.563   4.282   7.353
 8059POPC   NC340187  39.280  40.747   5.553
 8059POPC   PO440188  39.274  40.762   5.853
 8059POPC   GL140189  39.232  40.776   6.153
 8059POPC   GL240190  39.305  40.847   6.153
 8059POPC   C1A40191  39.201  40.795   6.453
 8059POPC   D2A40192  39.237  40.784   6.753
 8059POPC   C3A40193  39.235  40.810   7.053
 8059POPC   C4A40194  39.188  40.818   7.353
 8059POPC   C1B40195  39.381  40.971   6.453
 8059POPC   C2B40196  39.364  40.970   6.753
 8059POPC   C3B40197  39.399  40.974   7.053
 8059POPC   C4B40198  39.380  40.983   7.353
 8060POPC   NC340199  27.627   2.778   5.553
 8060POPC   PO440200  27.635   2.758   5.853
 8060POPC   GL140201  27.632   2.745   6.153
 8060POPC   GL240202  27.692   2.778   6.153
 8060POPC   C1A40203  27.556   2.748   6.453
 8060POPC   D2A40204  27.543   2.814   6.753
 8060POPC   C3A40205  27.634   2.808   7.053
 8060POPC   C4A40206  27.553   2.723   7.353
 8060POPC   C1B40207  27.831   2.717   6.453
 8060POPC   C2B40208  27.848   2.764   6.753
 8060POPC   C3B40209  27.848   2.716   7.053
 8060POPC   C4B40210  27.839   2.773   7.353
 8061POPC   NC340211   5.900  33.047   5.553
 8061POPC   PO440212   5.858  33.026   5.853
 8061POPC   GL140213   5.855  33.026   6.153
 8061POPC   GL240214   5.749  33.016   6.153
 8061POPC   C1A40215   5.858  33.067   6.453
 8061POPC   D2A40216   5.879  33.044   6.753
 8061POPC   C3A40217   5.898  33.013   7.053
 8061POPC   C4A40218   5.897  33.074   7.353
 8061POPC   C1B40219   5.575  32.976   6.453
 8061POPC   C2B40220   5.583  33.044   6.753
 8061POPC   C3B40221   5.597  32.960   7.053
 8061POPC   C4B40222   5.576  32.979   7.353
 8062POPC   NC340223   5.886  15.145   5.553
 8062POPC   PO440224   5.874  15.194   5.853
 8062POPC   GL140225   5.914  15.225   6.153
 8062POPC   GL240226   5.758  15.068   6.153
 8062POPC   C1A40227   5.871  15.133   6.453
 8062POPC   D2A40228   5.869  15.169   6.753
 8062POPC   C3A40229   5.900  15.192   7.053
 8062POPC   C4A40230   5.902  15.131   7.353
 8062POPC   C1B40231   5.695  15.024   6.453
 8062POPC   C2B40232   5.694  14.970   6.753
 8062POPC   C3B40233   5.715  15.000   7.053
 8062POPC   C4B40234   5.680  14.973   7.353
 8063POPC   NC340235  33.830   6.648   5.553
 8063POPC   PO440236  33.773   6.682   5.853
 8063POPC   GL140237  33.811   6.646   6.153
 8063POPC   GL240238  33.953   6.650   6.153
 8063POPC   C1A40239  33.804   6.622   6.453
 8063POPC   D2A40240  33.810   6.628   6.753
 8063POPC   C3A40241  33.758   6.637   7.053
 8063POPC   C4A40242  33.834   6.677   7.353
 8063POPC   C1B40243  34.044   6.756   6.453
 8063POPC   C2B40244  33.981   6.789   6.753
 8063POPC   C3B40245  34.043   6.762   7.053
 8063POPC   C4B40246  34.037   6.794   7.353
 8064POPC   NC340247  29.961  44.679   5.553
 8064POPC   PO440248  29.911  44.702   5.853
 8064POPC   GL140249  29.948  44.705   6.153
 8064POPC   GL240250  29.839  44.724   6.153
 8064POPC   C1A40251  29.970  44.655   6.453
 8064POPC   D2A40252  29.905  44.684   6.753
 8064POPC   C3A40253  29.913  44.640   7.053
 8064POPC   C4A40254  29.941  44.672   7.353
 8064POPC   C1B40255  29.772  44.803   6.453
 8064POPC   C2B40256  29.800  44.899   6.753
 8064POPC   C3B40257  29.792  44.886   7.053
 8064POPC   C4B40258  29.771  44.886   7.353
 8065POPC   NC340259   1.185  12.863   5.553
 8065POPC   PO440260   1.226  12.820   5.853
 8065POPC   GL140261   1.177  12.894   6.153
 8065POPC   GL240262   1.195  12.997   6.153
 8065POPC   C1A40263   1.228  12.883   6.453
 8065POPC   D2A40264   1.168  12.820   6.753
 8065POPC   C3A40265   1.263  12.887   7.053
 8065POPC   C4A40266   1.236  12.885   7.353
 8065POPC   C1B40267   1.054  13.111   6.453
 8065POPC   C2B40268   1.044  13.043   6.753
 8065POPC   C3B40269   1.077  13.077   7.053
 8065POPC   C4B40270   1.103  13.097   7.353
 8066POPC   NC340271  14.430  22.907   5.553
 8066POPC   PO440272  14.452  22.915   5.853
 8066POPC   GL140273  14.394  22.975   6.153
 8066POPC   GL240274  14.282  22.934   6.153
 8066POPC   C1A40275  14.437  22.946   6.453
 8066POPC   D2A40276  14.403  22.931   6.753
 8066POPC   C3A40277  14.396  22.930   7.053
 8066POPC   C4A40278  14.432  22.984   7.353
 8066POPC   C1B40279  14.130  22.977   6.453
 8066POPC   C2B40280  14.147  22.974   6.753
 8066POPC   C3B40281  14.190  23.033   7.053
 8066POPC   C4B40282  14.157  22.976   7.353
 8067POPC   NC340283  43.919  27.620   5.553
 8067POPC   PO440284  43.851  27.544   5.853
 8067POPC   GL140285  43.885  27.596   6.153
 8067POPC   GL240286  43.777  27.638   6.153
 8067POPC   C1A40287  43.894  27.547   6.453
 8067POPC   D2A40288  43.898  27.616   6.753
 8067POPC   C3A40289  43.842  27.588   7.053
 8067POPC   C4A40290  43.881  27.611   7.353
 8067POPC   C1B40291  43.679  27.752   6.453
 8067POPC   C2B40292  43.659  27.773   6.753
 8067POPC   C3B40293  43.682  27.721   7.053
 8067POPC   C4B40294  43.653  27.718   7.353
 8068POPC   NC340295  27.559  17.544   5.553
 8068POPC   PO440296  27.583  17.531   5.853
 8068POPC   GL140297  27.625  17.514   6.153
 8068POPC   GL240298  27.573  17.339   6.153
 8068POPC   C1A40299  27.553  17.494   6.453
 8068POPC   D2A40300  27.608  17.520   6.753
 8068POPC   C3A40301  27.630  17.465   7.053
 8068POPC   C4A40302  27.613  17.463   7.353
 8068POPC   C1B40303  27.537  17.222   6.453
 8068POPC   C2B40304  27.567  17.289   6.753
 8068POPC   C3B40305  27.551  17.235   7.053
 8068POPC   C4B40306  27.573  17.300   7.353
 8069POPC   NC340307  15.157   8.202   5.553
 8069POPC   PO440308  15.194   8.176   5.853
 8069POPC   GL140309  15.169   8.244   6.153
 8069POPC   GL240310  15.230   8.080   6.153
 8069POPC   C1A40311  15.191   8.174   6.453
 8069POPC   D2A40312  15.148   8.202   6.753
 8069POPC   C3A40313  15.187   8.187   7.053
 8069POPC   C4A40314  15.176   8.166   7.353
 8069POPC   C1B40315  15.253   7.982   6.453
 8069POPC   C2B40316  15.188   7.940   6.753
 8069POPC   C3B40317  15.272   7.990   7.053
 8069POPC   C4B40318  15.266   7.953   7.353
 8070POPC   NC340319   5.904   7.454   5.553
 8070POPC   PO440320   5.841   7.380   5.853
 8070POPC   GL140321   5.889   7.399   6.153
 8070POPC   GL240322   5.981   7.343   6.153
 8070POPC   C1A40323   5.870   7.391   6.453
 8070POPC   D2A40324   5.845   7.447   6.753
 8070POPC   C3A40325   5.860   7.429   7.053
 8070POPC   C4A40326   5.858   7.431   7.353
 8070POPC   C1B40327   6.087   7.299   6.453
 8070POPC   C2B40328   6.081   7.299   6.753
 8070POPC   C3B40329   6.138   7.296   7.053
 8070POPC   C4B40330   6.153   7.353   7.353
 8071POPC   NC340331  29.112  22.169   5.553
 8071POPC   PO440332  29.148  22.120   5.853
 8071POPC   GL140333  29.114  22.122   6.153
 8071POPC   GL240334  29.146  22.306   6.153
 8071POPC   C1A40335  29.181  22.130   6.453
 8071POPC   D2A40336  29.120  22.132   6.753
 8071POPC   C3A40337  29.156  22.154   7.053
 8071POPC   C4A40338  29.122  22.128   7.353
 8071POPC   C1B40339  29.047  22.365   6.453
 8071POPC   C2B40340  29.093  22.398   6.753
 8071POPC   C3B40341  29.113  22.381   7.053
 8071POPC   C4B40342  29.124  22.424   7.353
 8072POPC   NC340343  32.264  12.890   5.553
 8072POPC   PO440344  32.214  12.885   5.853
 8072POPC   GL140345  32.230  12.896   6.153
 8072POPC   GL240346  32.131  12.935   6.153
 8072POPC   C1A40347  32.296  12.826   6.453
 8072POPC   D2A40348  32.282  12.889   6.753
 8072POPC   C3A40349  32.268  12.824   7.053
 8072POPC   C4A40350  32.285  12.883   7.353
 8072POPC   C1B40351  32.047  13.062   6.453
 8072POPC   C2B40352  32.087  13.064   6.753
 8072POPC   C3B40353  32.078  13.036   7.053
 8072POPC   C4B40354  32.083  13.034   7.353
 8073POPC   NC340355  14.368  43.142   5.553
 8073POPC   PO440356  14.359  43.133   5.853
 8073POPC   GL140357  14.396  43.140   6.153
 8073POPC   GL240358  14.261  43.135   6.153
 8073POPC   C1A40359  14.420  43.079   6.453
 8073POPC   D2A40360  14.425  43.061   6.753
 8073POPC   C3A40361  14.397  43.089   7.053
 8073POPC   C4A40362  14.423  43.134   7.353
 8073POPC   C1B40363  14.165  43.131   6.453
 8073POPC   C2B40364  14.156  43.100   6.753
 8073POPC   C3B40365  14.141  43.148   7.053
 8073POPC   C4B40366  14.124  43.158   7.353
 8074POPC   NC340367  13.650  11.305   5.553
 8074POPC   PO440368  13.648  11.340   5.853
 8074POPC   GL140369  13.635  11.303   6.153
 8074POPC   GL240370  13.643  11.363   6.153
 8074POPC   C1A40371  13.624  11.331   6.453
 8074POPC   D2A40372  13.612  11.250   6.753
 8074POPC   C3A40373  13.589  11.283   7.053
 8074POPC   C4A40374  13.620  11.338   7.353
 8074POPC   C1B40375  13.772  11.502   6.453
 8074POPC   C2B40376  13.718  11.482   6.753
 8074POPC   C3B40377  13.710  11.474   7.053
 8074POPC   C4B40378  13.722  11.532   7.353
 8075POPC   NC340379  43.136  32.297   5.553
 8075POPC   PO440380  43.093  32.266   5.853
 8075POPC   GL140381  43.083  32.231   6.153
 8075POPC   GL240382  42.981  32.193   6.153
 8075POPC   C1A40383  43.115  32.218   6.453
 8075POPC   D2A40384  43.065  32.201   6.753
 8075POPC   C3A40385  43.131  32.207   7.053
 8075POPC   C4A40386  43.126  32.256   7.353
 8075POPC   C1B40387  42.916  32.163   6.453
 8075POPC   C2B40388  42.897  32.128   6.753
 8075POPC   C3B40389  42.833  32.182   7.053
 8075POPC   C4B40390  42.885  32.124   7.353
 8076POPC   NC340391   4.309  12.815   5.553
 8076POPC   PO440392   4.356  12.836   5.853
 8076POPC   GL140393   4.331  12.886   6.153
 8076POPC   GL240394   4.256  12.760   6.153
 8076POPC   C1A40395   4.300  12.850   6.453
 8076POPC   D2A40396   4.275  12.887   6.753
 8076POPC   C3A40397   4.318  12.811   7.053
 8076POPC   C4A40398   4.354  12.839   7.353
 8076POPC   C1B40399   4.102  12.718   6.453
 8076POPC   C2B40400   4.106  12.669   6.753
 8076POPC   C3B40401   4.115  12.728   7.053
 8076POPC   C4B40402   4.162  12.680   7.353
 8077POPC   NC340403   6.661  26.073   5.553
 8077POPC   PO440404   6.635  26.001   5.853
 8077POPC   GL140405   6.643  26.048   6.153
 8077POPC   GL240406   6.687  25.948   6.153
 8077POPC   C1A40407   6.662  26.018   6.453
 8077POPC   D2A40408   6.635  26.072   6.753
 8077POPC   C3A40409   6.650  26.030   7.053
 8077POPC   C4A40410   6.661  25.992   7.353
 8077POPC   C1B40411   6.767  25.861   6.453
 8077POPC   C2B40412   6.741  25.787   6.753
 8077POPC   C3B40413   6.742  25.832   7.053
 8077POPC   C4B40414   6.712  25.779   7.353
 8078POPC   NC340415  35.345  33.805   5.553
 8078POPC   PO440416  35.339  33.778   5.853
 8078POPC   GL140417  35.337  33.841   6.153
 8078POPC   GL240418  35.262  33.822   6.153
 8078POPC   C1A40419  35.309  33.837   6.453
 8078POPC   D2A40420  35.373  33.794   6.753
 8078POPC   C3A40421  35.313  33.800   7.053
 8078POPC   C4A40422  35.334  33.844   7.353
 8078POPC   C1B40423  35.062  33.752   6.453
 8078POPC   C2B40424  35.082  33.817   6.753
 8078POPC   C3B40425  35.060  33.742   7.053
 8078POPC   C4B40426  35.117  33.784   7.353
 8079POPC   NC340427   5.833  11.327   5.553
 8079POPC   PO440428   5.901  11.279   5.853
 8079POPC   GL140429   5.906  11.339   6.153
 8079POPC   GL240430   5.794  11.178   6.153
 8079POPC   C1A40431   5.889  11.317   6.453
 8079POPC   D2A40432   5.827  11.264   6.753
 8079POPC   C3A40433   5.891  11.331   7.053
 8079POPC   C4A40434   5.907  11.271   7.353
 8079POPC   C1B40435   5.663  11.104   6.453
 8079POPC   C2B40436   5.668  11.150   6.753
 8079POPC   C3B40437   5.670  11.182   7.053
 8079POPC   C4B40438   5.688  11.171   7.353
 8080POPC   NC340439  33.812  44.672   5.553
 8080POPC   PO440440  33.775  44.616   5.853
 8080POPC   GL140441  33.785  44.690   6.153
 8080POPC   GL240442  33.948  44.583   6.153
 8080POPC   C1A40443  33.769  44.647   6.453
 8080POPC   D2A40444  33.799  44.657   6.753
 8080POPC   C3A40445  33.800  44.636   7.053
 8080POPC   C4A40446  33.776  44.697   7.353
 8080POPC   C1B40447  34.071  44.538   6.453
 8080POPC   C2B40448  33.983  44.605   6.753
 8080POPC   C3B40449  33.990  44.524   7.053
 8080POPC   C4B40450  34.029  44.557   7.353
 8081POPC   NC340451  12.872  16.710   5.553
 8081POPC   PO440452  12.843  16.689   5.853
 8081POPC   GL140453  12.828  16.764   6.153
 8081POPC   GL240454  12.904  16.640   6.153
 8081POPC   C1A40455  12.831  16.774   6.453
 8081POPC   D2A40456  12.840  16.692   6.753
 8081POPC   C3A40457  12.825  16.770   7.053
 8081POPC   C4A40458  12.899  16.739   7.353
 8081POPC   C1B40459  12.925  16.526   6.453
 8081POPC   C2B40460  12.961  16.466   6.753
 8081POPC   C3B40461  12.937  16.482   7.053
 8081POPC   C4B40462  12.931  16.505   7.353
 8082POPC   NC340463  19.825  27.625   5.553
 8082POPC   PO440464  19.831  27.569   5.853
 8082POPC   GL140465  19.820  27.627   6.153
 8082POPC   GL240466  19.861  27.450   6.153
 8082POPC   C1A40467  19.830  27.613   6.453
 8082POPC   D2A40468  19.862  27.584   6.753
 8082POPC   C3A40469  19.838  27.586   7.053
 8082POPC   C4A40470  19.863  27.549   7.353
 8082POPC   C1B40471  19.903  27.405   6.453
 8082POPC   C2B40472  19.979  27.370   6.753
 8082POPC   C3B40473  19.966  27.394   7.053
 8082POPC   C4B40474  19.955  27.415   7.353
 8083POPC   NC340475  17.467  34.620   5.553
 8083POPC   PO440476  17.489  34.555   5.853
 8083POPC   GL140477  17.549  34.531   6.153
 8083POPC   GL240478  17.375  34.561   6.153
 8083POPC   C1A40479  17.463  34.622   6.453
 8083POPC   D2A40480  17.457  34.612   6.753
 8083POPC   C3A40481  17.493  34.608   7.053
 8083POPC   C4A40482  17.501  34.614   7.353
 8083POPC   C1B40483  17.226  34.518   6.453
 8083POPC   C2B40484  17.239  34.575   6.753
 8083POPC   C3B40485  17.277  34.580   7.053
 8083POPC   C4B40486  17.229  34.585   7.353
 8084POPC   NC340487  31.463  40.739   5.553
 8084POPC   PO440488  31.497  40.734   5.853
 8084POPC   GL140489  31.494  40.808   6.153
 8084POPC   GL240490  31.607  40.759   6.153
 8084POPC   C1A40491  31.441  40.816   6.453
 8084POPC   D2A40492  31.491  40.798   6.753
 8084POPC   C3A40493  31.458  40.772   7.053
 8084POPC   C4A40494  31.510  40.822   7.353
 8084POPC   C1B40495  31.737  40.793   6.453
 8084POPC   C2B40496  31.744  40.840   6.753
 8084POPC   C3B40497  31.703  40.807   7.053
 8084POPC   C4B40498  31.692  40.768   7.353
 8085POPC   NC340499   2.794  43.073   5.553
 8085POPC   PO440500   2.777  43.095   5.853
 8085POPC   GL140501   2.735  43.072   6.153
 8085POPC   GL240502   2.706  42.937   6.153
 8085POPC   C1A40503   2.814  43.116   6.453
 8085POPC   D2A40504   2.781  43.146   6.753
 8085POPC   C3A40505   2.735  43.116   7.053
 8085POPC   C4A40506   2.751  43.158   7.353
 8085POPC   C1B40507   2.778  42.862   6.453
 8085POPC   C2B40508   2.693  42.827   6.753
 8085POPC   C3B40509   2.791  42.891   7.053
 8085POPC   C4B40510   2.756  42.899   7.353
 8086POPC   NC340511  26.034  15.168   5.553
 8086POPC   PO440512  26.003  15.211   5.853
 8086POPC   GL140513  26.008  15.188   6.153
 8086POPC   GL240514  25.971  15.199   6.153
 8086POPC   C1A40515  26.066  15.200   6.453
 8086POPC   D2A40516  26.028  15.204   6.753
 8086POPC   C3A40517  26.061  15.132   7.053
 8086POPC   C4A40518  26.050  15.182   7.353
 8086POPC   C1B40519  25.847  15.299   6.453
 8086POPC   C2B40520  25.846  15.276   6.753
 8086POPC   C3B40521  25.814  15.275   7.053
 8086POPC   C4B40522  25.768  15.321   7.353
 8087POPC   NC340523  42.377  25.299   5.553
 8087POPC   PO440524  42.326  25.266   5.853
 8087POPC   GL140525  42.343  25.243   6.153
 8087POPC   GL240526  42.466  25.259   6.153
 8087POPC   C1A40527  42.356  25.262   6.453
 8087POPC   D2A40528  42.360  25.248   6.753
 8087POPC   C3A40529  42.382  25.278   7.053
 8087POPC   C4A40530  42.362  25.222   7.353
 8087POPC   C1B40531  42.594  25.145   6.453
 8087POPC   C2B40532  42.565  25.121   6.753
 8087POPC   C3B40533  42.533  25.111   7.053
 8087POPC   C4B40534  42.558  25.175   7.353
 8088POPC   NC340535   3.552  17.555   5.553
 8088POPC   PO440536   3.525  17.474   5.853
 8088POPC   GL140537   3.571  17.488   6.153
 8088POPC   GL240538   3.504  17.400   6.153
 8088POPC   C1A40539   3.502  17.494   6.453
 8088POPC   D2A40540   3.520  17.537   6.753
 8088POPC   C3A40541   3.510  17.554   7.053
 8088POPC   C4A40542   3.539  17.523   7.353
 8088POPC   C1B40543   3.475  17.313   6.453
 8088POPC   C2B40544   3.461  17.319   6.753
 8088POPC   C3B40545   3.486  17.243   7.053
 8088POPC   C4B40546   3.408  17.247   7.353
 8089POPC   NC340547  26.077  34.608   5.553
 8089POPC   PO440548  26.032  34.599   5.853
 8089POPC   GL140549  26.043  34.565   6.153
 8089POPC   GL240550  25.946  34.418   6.153
 8089POPC   C1A40551  26.024  34.567   6.453
 8089POPC   D2A40552  26.036  34.567   6.753
 8089POPC   C3A40553  26.028  34.582   7.053
 8089POPC   C4A40554  26.054  34.610   7.353
 8089POPC   C1B40555  25.952  34.307   6.453
 8089POPC   C2B40556  25.960  34.314   6.753
 8089POPC   C3B40557  25.889  34.310   7.053
 8089POPC   C4B40558  25.946  34.358   7.353
 8090POPC   NC340559  20.632  14.392   5.553
 8090POPC   PO440560  20.624  14.405   5.853
 8090POPC   GL140561  20.589  14.434   6.153
 8090POPC   GL240562  20.749  14.342   6.153
 8090POPC   C1A40563  20.605  14.432   6.453
 8090POPC   D2A40564  20.611  14.445   6.753
 8090POPC   C3A40565  20.584  14.440   7.053
 8090POPC   C4A40566  20.564  14.433   7.353
 8090POPC   C1B40567  20.856  14.344   6.453
 8090POPC   C2B40568  20.841  14.347   6.753
 8090POPC   C3B40569  20.844  14.356   7.053
 8090POPC   C4B40570  20.899  14.399   7.353
 8091POPC   NC340571  26.024  19.074   5.553
 8091POPC   PO440572  26.037  19.076   5.853
 8091POPC   GL140573  26.081  19.016   6.153
 8091POPC   GL240574  25.891  18.991   6.153
 8091POPC   C1A40575  26.055  19.102   6.453
 8091POPC   D2A40576  25.996  19.053   6.753
 8091POPC   C3A40577  26.053  19.053   7.053
 8091POPC   C4A40578  26.041  19.096   7.353
 8091POPC   C1B40579  25.858  18.923   6.453
 8091POPC   C2B40580  25.855  18.949   6.753
 8091POPC   C3B40581  25.814  18.988   7.053
 8091POPC   C4B40582  25.861  18.951   7.353
 8092POPC   NC340583  20.587  11.257   5.553
 8092POPC   PO440584  20.590  11.336   5.853
 8092POPC   GL140585  20.588  11.301   6.153
 8092POPC   GL240586  20.571  11.211   6.153
 8092POPC   C1A40587  20.622  11.311   6.453
 8092POPC   D2A40588  20.650  11.329   6.753
 8092POPC   C3A40589  20.605  11.302   7.053
 8092POPC   C4A40590  20.659  11.282   7.353
 8092POPC   C1B40591  20.530  11.030   6.453
 8092POPC   C2B40592  20.518  11.090   6.753
 8092POPC   C3B40593  20.495  11.099   7.053
 8092POPC   C4B40594  20.515  11.096   7.353
 8093POPC   NC340595  27.605  29.967   5.553
 8093POPC   PO440596  27.597  29.936   5.853
 8093POPC   GL140597  27.636  29.929   6.153
 8093POPC   GL240598  27.727  29.973   6.153
 8093POPC   C1A40599  27.578  29.890   6.453
 8093POPC   D2A40600  27.582  29.954   6.753
 8093POPC   C3A40601  27.606  29.942   7.053
 8093POPC   C4A40602  27.620  29.891   7.353
 8093POPC   C1B40603  27.760  30.113   6.453
 8093POPC   C2B40604  27.732  30.091   6.753
 8093POPC   C3B40605  27.801  30.139   7.053
 8093POPC   C4B40606  27.805  30.056   7.353
 8094POPC   NC340607   1.942  32.218   5.553
 8094POPC   PO440608   2.007  32.274   5.853
 8094POPC   GL140609   2.025  32.275   6.153
 8094POPC   GL240610   2.076  32.210   6.153
 8094POPC   C1A40611   2.023  32.292   6.453
 8094POPC   D2A40612   2.010  32.231   6.753
 8094POPC   C3A40613   2.004  32.222   7.053
 8094POPC   C4A40614   1.997  32.212   7.353
 8094POPC   C1B40615   2.252  32.232   6.453
 8094POPC   C2B40616   2.210  32.175   6.753
 8094POPC   C3B40617   2.225  32.187   7.053
 8094POPC   C4B40618   2.283  32.221   7.353
 8095POPC   NC340619  39.199   0.479   5.553
 8095POPC   PO440620  39.255   0.415   5.853
 8095POPC   GL140621  39.281   0.397   6.153
 8095POPC   GL240622  39.338   0.289   6.153
 8095POPC   C1A40623  39.280   0.438   6.453
 8095POPC   D2A40624  39.257   0.473   6.753
 8095POPC   C3A40625  39.270   0.404   7.053
 8095POPC   C4A40626  39.221   0.451   7.353
 8095POPC   C1B40627  39.354   0.270   6.453
 8095POPC   C2B40628  39.349   0.269   6.753
 8095POPC   C3B40629  39.343   0.198   7.053
 8095POPC   C4B40630  39.340   0.240   7.353
 8096POPC   NC340631   2.760  15.978   5.553
 8096POPC   PO440632   2.775  15.951   5.853
 8096POPC   GL140633   2.787  15.961   6.153
 8096POPC   GL240634   2.748  15.870   6.153
 8096POPC   C1A40635   2.751  15.909   6.453
 8096POPC   D2A40636   2.744  15.985   6.753
 8096POPC   C3A40637   2.782  15.929   7.053
 8096POPC   C4A40638   2.778  16.003   7.353
 8096POPC   C1B40639   2.796  15.697   6.453
 8096POPC   C2B40640   2.824  15.674   6.753
 8096POPC   C3B40641   2.813  15.729   7.053
 8096POPC   C4B40642   2.848  15.750   7.353
 8097POPC   NC340643  41.593  40.770   5.553
 8097POPC   PO440644  41.600  40.780   5.853
 8097POPC   GL140645  41.511  40.822   6.153
 8097POPC   GL240646  41.460  40.875   6.153
 8097POPC   C1A40647  41.549  40.737   6.453
 8097POPC   D2A40648  41.538  40.785   6.753
 8097POPC   C3A40649  41.550  40.827   7.053
 8097POPC   C4A40650  41.592  40.782   7.353
 8097POPC   C1B40651  41.292  40.925   6.453
 8097POPC   C2B40652  41.315  40.904   6.753
 8097POPC   C3B40653  41.338  40.864   7.053
 8097POPC   C4B40654  41.320  40.921   7.353
 8098POPC   NC340655  40.810  22.128   5.553
 8098POPC   PO440656  40.788  22.150   5.853
 8098POPC   GL140657  40.764  22.117   6.153
 8098POPC   GL240658  40.903  22.069   6.153
 8098POPC   C1A40659  40.773  22.181   6.453
 8098POPC   D2A40660  40.829  22.128   6.753
 8098POPC   C3A40661  40.747  22.114   7.053
 8098POPC   C4A40662  40.802  22.202   7.353
 8098POPC   C1B40663  40.940  21.944   6.453
 8098POPC   C2B40664  40.898  22.012   6.753
 8098POPC   C3B40665  40.941  21.955   7.053
 8098POPC   C4B40666  40.978  21.994   7.353
 8099POPC   NC340667  33.009  18.287   5.553
 8099POPC   PO440668  33.046  18.275   5.853
 8099POPC   GL140669  32.974  18.315   6.153
 8099POPC   GL240670  32.968  18.438   6.153
 8099POPC   C1A40671  32.983  18.283   6.453
 8099POPC   D2A40672  33.032  18.250   6.753
 8099POPC   C3A40673  33.071  18.286   7.053
 8099POPC   C4A40674  33.044  18.295   7.353
 8099POPC   C1B40675  32.902  18.503   6.453
 8099POPC   C2B40676  32.946  18.495   6.753
 8099POPC   C3B40677  32.865  18.543   7.053
 8099POPC   C4B40678  32.921  18.481   7.353
 8100POPC   NC340679   9.009  41.605   5.553
 8100POPC   PO440680   9.002  41.571   5.853
 8100POPC   GL140681   8.999  41.556   6.153
 8100POPC   GL240682   8.960  41.667   6.153
 8100POPC   C1A40683   8.944  41.559   6.453
 8100POPC   D2A40684   8.974  41.608   6.753
 8100POPC   C3A40685   9.009  41.523   7.053
 8100POPC   C4A40686   8.994  41.576   7.353
 8100POPC   C1B40687   8.987  41.852   6.453
 8100POPC   C2B40688   8.892  41.793   6.753
 8100POPC   C3B40689   8.969  41.833   7.053
 8100POPC   C4B40690   8.899  41.844   7.353
 8101POPC   NC340691  26.063  43.076   5.553
 8101POPC   PO440692  26.082  43.108   5.853
 8101POPC   GL140693  26.008  43.072   6.153
 8101POPC   GL240694  26.062  43.262   6.153
 8101POPC   C1A40695  26.059  43.087   6.453
 8101POPC   D2A40696  26.087  43.080   6.753
 8101POPC   C3A40697  26.051  43.099   7.053
 8101POPC   C4A40698  26.038  43.124   7.353
 8101POPC   C1B40699  26.169  43.302   6.453
 8101POPC   C2B40700  26.132  43.291   6.753
 8101POPC   C3B40701  26.195  43.374   7.053
 8101POPC   C4B40702  26.197  43.304   7.353
 8102POPC   NC340703  23.678  26.003   5.553
 8102POPC   PO440704  23.734  26.030   5.853
 8102POPC   GL140705  23.749  26.039   6.153
 8102POPC   GL240706  23.594  25.988   6.153
 8102POPC   C1A40707  23.676  26.035   6.453
 8102POPC   D2A40708  23.705  26.028   6.753
 8102POPC   C3A40709  23.682  26.080   7.053
 8102POPC   C4A40710  23.761  26.087   7.353
 8102POPC   C1B40711  23.493  25.987   6.453
 8102POPC   C2B40712  23.477  26.065   6.753
 8102POPC   C3B40713  23.442  26.073   7.053
 8102POPC   C4B40714  23.418  25.985   7.353
 8103POPC   NC340715   6.601  32.213   5.553
 8103POPC   PO440716   6.685  32.201   5.853
 8103POPC   GL140717   6.689  32.246   6.153
 8103POPC   GL240718   6.583  32.318   6.153
 8103POPC   C1A40719   6.605  32.235   6.453
 8103POPC   D2A40720   6.675  32.228   6.753
 8103POPC   C3A40721   6.660  32.231   7.053
 8103POPC   C4A40722   6.606  32.283   7.353
 8103POPC   C1B40723   6.506  32.440   6.453
 8103POPC   C2B40724   6.585  32.440   6.753
 8103POPC   C3B40725   6.511  32.510   7.053
 8103POPC   C4B40726   6.517  32.506   7.353
 8104POPC   NC340727   1.253  33.847   5.553
 8104POPC   PO440728   1.196  33.811   5.853
 8104POPC   GL140729   1.230  33.769   6.153
 8104POPC   GL240730   1.064  33.772   6.153
 8104POPC   C1A40731   1.195  33.834   6.453
 8104POPC   D2A40732   1.188  33.779   6.753
 8104POPC   C3A40733   1.255  33.802   7.053
 8104POPC   C4A40734   1.188  33.778   7.353
 8104POPC   C1B40735   0.926  33.792   6.453
 8104POPC   C2B40736   0.991  33.797   6.753
 8104POPC   C3B40737   0.941  33.771   7.053
 8104POPC   C4B40738   0.989  33.730   7.353
 8105POPC   NC340739  14.425  20.617   5.553
 8105POPC   PO440740  14.390  20.595   5.853
 8105POPC   GL140741  14.369  20.634   6.153
 8105POPC   GL240742  14.365  20.710   6.153
 8105POPC   C1A40743  14.436  20.644   6.453
 8105POPC   D2A40744  14.392  20.614   6.753
 8105POPC   C3A40745  14.414  20.573   7.053
 8105POPC   C4A40746  14.389  20.640   7.353
 8105POPC   C1B40747  14.456  20.861   6.453
 8105POPC   C2B40748  14.473  20.902   6.753
 8105POPC   C3B40749  14.387  20.821   7.053
 8105POPC   C4B40750  14.423  20.886   7.353
 8106POPC   NC340751  38.444   5.838   5.553
 8106POPC   PO440752  38.424   5.900   5.853
 8106POPC   GL140753  38.501   5.851   6.153
 8106POPC   GL240754  38.362   5.926   6.153
 8106POPC   C1A40755  38.422   5.819   6.453
 8106POPC   D2A40756  38.497   5.861   6.753
 8106POPC   C3A40757  38.461   5.885   7.053
 8106POPC   C4A40758  38.476   5.851   7.353
 8106POPC   C1B40759  38.255   5.941   6.453
 8106POPC   C2B40760  38.187   5.883   6.753
 8106POPC   C3B40761  38.196   5.855   7.053
 8106POPC   C4B40762  38.223   5.940   7.353
 8107POPC   NC340763   8.173  23.755   5.553
 8107POPC   PO440764   8.158  23.719   5.853
 8107POPC   GL140765   8.217  23.704   6.153
 8107POPC   GL240766   8.290  23.838   6.153
 8107POPC   C1A40767   8.228  23.735   6.453
 8107POPC   D2A40768   8.187  23.704   6.753
 8107POPC   C3A40769   8.202  23.688   7.053
 8107POPC   C4A40770   8.215  23.757   7.353
 8107POPC   C1B40771   8.370  23.914   6.453
 8107POPC   C2B40772   8.347  23.907   6.753
 8107POPC   C3B40773   8.319  23.886   7.053
 8107POPC   C4B40774   8.363  23.949   7.353
 8108POPC   NC340775   9.778  41.533   5.553
 8108POPC   PO440776   9.732  41.525   5.853
 8108POPC   GL140777   9.727  41.534   6.153
 8108POPC   GL240778   9.644  41.486   6.153
 8108POPC   C1A40779   9.723  41.608   6.453
 8108POPC   D2A40780   9.765  41.596   6.753
 8108POPC   C3A40781   9.739  41.591   7.053
 8108POPC   C4A40782   9.775  41.546   7.353
 8108POPC   C1B40783   9.569  41.384   6.453
 8108POPC   C2B40784   9.531  41.380   6.753
 8108POPC   C3B40785   9.516  41.369   7.053
 8108POPC   C4B40786   9.522  41.389   7.353
 8109POPC   NC340787  26.792  33.798   5.553
 8109POPC   PO440788  26.864  33.779   5.853
 8109POPC   GL140789  26.810  33.837   6.153
 8109POPC   GL240790  26.681  33.868   6.153
 8109POPC   C1A40791  26.819  33.802   6.453
 8109POPC   D2A40792  26.794  33.799   6.753
 8109POPC   C3A40793  26.843  33.776   7.053
 8109POPC   C4A40794  26.815  33.794   7.353
 8109POPC   C1B40795  26.584  33.956   6.453
 8109POPC   C2B40796  26.588  33.937   6.753
 8109POPC   C3B40797  26.675  34.000   7.053
 8109POPC   C4B40798  26.648  33.998   7.353
 8110POPC   NC340799  42.336  11.279   5.553
 8110POPC   PO440800  42.311  11.293   5.853
 8110POPC   GL140801  42.372  11.300   6.153
 8110POPC   GL240802  42.410  11.236   6.153
 8110POPC   C1A40803  42.376  11.268   6.453
 8110POPC   D2A40804  42.371  11.348   6.753
 8110POPC   C3A40805  42.302  11.308   7.053
 8110POPC   C4A40806  42.318  11.273   7.353
 8110POPC   C1B40807  42.570  11.178   6.453
 8110POPC   C2B40808  42.607  11.157   6.753
 8110POPC   C3B40809  42.531  11.177   7.053
 8110POPC   C4B40810  42.566  11.213   7.353
 8111POPC   NC340811  30.680  23.759   5.553
 8111POPC   PO440812  30.664  23.761   5.853
 8111POPC   GL140813  30.717  23.683   6.153
 8111POPC   GL240814  30.761  23.773   6.153
 8111POPC   C1A40815  30.655  23.751   6.453
 8111POPC   D2A40816  30.678  23.714   6.753
 8111POPC   C3A40817  30.697  23.747   7.053
 8111POPC   C4A40818  30.670  23.706   7.353
 8111POPC   C1B40819  30.826  23.918   6.453
 8111POPC   C2B40820  30.890  23.929   6.753
 8111POPC   C3B40821  30.910  23.932   7.053
 8111POPC   C4B40822  30.849  23.856   7.353
 8112POPC   NC340823  38.417  19.833   5.553
 8112POPC   PO440824  38.427  19.837   5.853
 8112POPC   GL140825  38.495  19.880   6.153
 8112POPC   GL240826  38.475  19.925   6.153
 8112POPC   C1A40827  38.423  19.833   6.453
 8112POPC   D2A40828  38.464  19.834   6.753
 8112POPC   C3A40829  38.408  19.805   7.053
 8112POPC   C4A40830  38.500  19.808   7.353
 8112POPC   C1B40831  38.498  20.073   6.453
 8112POPC   C2B40832  38.482  20.068   6.753
 8112POPC   C3B40833  38.502  20.125   7.053
 8112POPC   C4B40834  38.512  20.107   7.353
 8113POPC   NC340835  15.927  13.643   5.553
 8113POPC   PO440836  15.928  13.621   5.853
 8113POPC   GL140837  15.959  13.590   6.153
 8113POPC   GL240838  15.864  13.714   6.153
 8113POPC   C1A40839  15.937  13.676   6.453
 8113POPC   D2A40840  15.933  13.637   6.753
 8113POPC   C3A40841  15.968  13.580   7.053
 8113POPC   C4A40842  15.915  13.613   7.353
 8113POPC   C1B40843  15.835  13.780   6.453
 8113POPC   C2B40844  15.832  13.803   6.753
 8113POPC   C3B40845  15.834  13.781   7.053
 8113POPC   C4B40846  15.750  13.829   7.353
 8114POPC   NC340847   5.058  16.005   5.553
 8114POPC   PO440848   5.068  15.980   5.853
 8114POPC   GL140849   5.126  15.987   6.153
 8114POPC   GL240850   5.075  15.806   6.153
 8114POPC   C1A40851   5.088  15.944   6.453
 8114POPC   D2A40852   5.113  15.913   6.753
 8114POPC   C3A40853   5.068  15.979   7.053
 8114POPC   C4A40854   5.087  15.917   7.353
 8114POPC   C1B40855   5.015  15.748   6.453
 8114POPC   C2B40856   5.017  15.772   6.753
 8114POPC   C3B40857   4.938  15.754   7.053
 8114POPC   C4B40858   4.984  15.719   7.353
 8115POPC   NC340859  22.145  16.716   5.553
 8115POPC   PO440860  22.211  16.701   5.853
 8115POPC   GL140861  22.132  16.730   6.153
 8115POPC   GL240862  22.219  16.814   6.153
 8115POPC   C1A40863  22.203  16.727   6.453
 8115POPC   D2A40864  22.116  16.737   6.753
 8115POPC   C3A40865  22.152  16.704   7.053
 8115POPC   C4A40866  22.167  16.725   7.353
 8115POPC   C1B40867  22.297  16.868   6.453
 8115POPC   C2B40868  22.332  16.878   6.753
 8115POPC   C3B40869  22.347  16.904   7.053
 8115POPC   C4B40870  22.359  16.875   7.353
 8116POPC   NC340871  15.147  17.500   5.553
 8116POPC   PO440872  15.160  17.470   5.853
 8116POPC   GL140873  15.157  17.520   6.153
 8116POPC   GL240874  15.077  17.493   6.153
 8116POPC   C1A40875  15.139  17.481   6.453
 8116POPC   D2A40876  15.214  17.486   6.753
 8116POPC   C3A40877  15.139  17.457   7.053
 8116POPC   C4A40878  15.169  17.500   7.353
 8116POPC   C1B40879  14.985  17.351   6.453
 8116POPC   C2B40880  14.999  17.392   6.753
 8116POPC   C3B40881  14.939  17.400   7.053
 8116POPC   C4B40882  14.934  17.420   7.353
 8117POPC   NC340883   3.584   9.745   5.553
 8117POPC   PO440884   3.506   9.775   5.853
 8117POPC   GL140885   3.568   9.737   6.153
 8117POPC   GL240886   3.492   9.667   6.153
 8117POPC   C1A40887   3.563   9.797   6.453
 8117POPC   D2A40888   3.580   9.730   6.753
 8117POPC   C3A40889   3.500   9.716   7.053
 8117POPC   C4A40890   3.527   9.781   7.353
 8117POPC   C1B40891   3.385   9.575   6.453
 8117POPC   C2B40892   3.335   9.555   6.753
 8117POPC   C3B40893   3.337   9.582   7.053
 8117POPC   C4B40894   3.368   9.530   7.353
 8118POPC   NC340895  24.465  36.900   5.553
 8118POPC   PO440896  24.512  36.939   5.853
 8118POPC   GL140897  24.511  36.860   6.153
 8118POPC   GL240898  24.526  36.977   6.153
 8118POPC   C1A40899  24.514  36.919   6.453
 8118POPC   D2A40900  24.454  36.928   6.753
 8118POPC   C3A40901  24.459  36.885   7.053
 8118POPC   C4A40902  24.513  36.929   7.353
 8118POPC   C1B40903  24.681  37.154   6.453
 8118POPC   C2B40904  24.595  37.071   6.753
 8118POPC   C3B40905  24.630  37.114   7.053
 8118POPC   C4B40906  24.663  37.147   7.353
 8119POPC   NC340907  27.596  42.290   5.553
 8119POPC   PO440908  27.596  42.298   5.853
 8119POPC   GL140909  27.639  42.288   6.153
 8119POPC   GL240910  27.619  42.168   6.153
 8119POPC   C1A40911  27.564  42.288   6.453
 8119POPC   D2A40912  27.612  42.303   6.753
 8119POPC   C3A40913  27.620  42.303   7.053
 8119POPC   C4A40914  27.604  42.378   7.353
 8119POPC   C1B40915  27.549  42.042   6.453
 8119POPC   C2B40916  27.581  42.063   6.753
 8119POPC   C3B40917  27.593  42.039   7.053
 8119POPC   C4B40918  27.601  42.051   7.353
 8120POPC   NC340919  25.217   9.011   5.553
 8120POPC   PO440920  25.259   8.931   5.853
 8120POPC   GL140921  25.298   8.959   6.153
 8120POPC   GL240922  25.352   9.064   6.153
 8120POPC   C1A40923  25.291   8.944   6.453
 8120POPC   D2A40924  25.313   8.954   6.753
 8120POPC   C3A40925  25.224   8.964   7.053
 8120POPC   C4A40926  25.236   8.953   7.353
 8120POPC   C1B40927  25.392   9.254   6.453
 8120POPC   C2B40928  25.344   9.244   6.753
 8120POPC   C3B40929  25.400   9.192   7.053
 8120POPC   C4B40930  25.402   9.228   7.353
 8121POPC   NC340931  38.423  31.452   5.553
 8121POPC   PO440932  38.451  31.464   5.853
 8121POPC   GL140933  38.490  31.456   6.153
 8121POPC   GL240934  38.414  31.352   6.153
 8121POPC   C1A40935  38.407  31.454   6.453
 8121POPC   D2A40936  38.479  31.471   6.753
 8121POPC   C3A40937  38.435  31.478   7.053
 8121POPC   C4A40938  38.453  31.502   7.353
 8121POPC   C1B40939  38.303  31.218   6.453
 8121POPC   C2B40940  38.396  31.290   6.753
 8121POPC   C3B40941  38.394  31.224   7.053
 8121POPC   C4B40942  38.393  31.251   7.353
 8122POPC   NC340943  42.383   8.986   5.553
 8122POPC   PO440944  42.285   9.022   5.853
 8122POPC   GL140945  42.361   8.997   6.153
 8122POPC   GL240946  42.304   9.067   6.153
 8122POPC   C1A40947  42.311   8.995   6.453
 8122POPC   D2A40948  42.377   8.948   6.753
 8122POPC   C3A40949  42.296   8.996   7.053
 8122POPC   C4A40950  42.347   8.985   7.353
 8122POPC   C1B40951  42.226   9.185   6.453
 8122POPC   C2B40952  42.229   9.168   6.753
 8122POPC   C3B40953  42.223   9.233   7.053
 8122POPC   C4B40954  42.243   9.262   7.353
 8123POPC   NC340955  22.947  14.420   5.553
 8123POPC   PO440956  22.988  14.421   5.853
 8123POPC   GL140957  22.936  14.362   6.153
 8123POPC   GL240958  22.825  14.442   6.153
 8123POPC   C1A40959  22.895  14.372   6.453
 8123POPC   D2A40960  22.982  14.426   6.753
 8123POPC   C3A40961  22.922  14.387   7.053
 8123POPC   C4A40962  22.950  14.387   7.353
 8123POPC   C1B40963  22.757  14.519   6.453
 8123POPC   C2B40964  22.767  14.504   6.753
 8123POPC   C3B40965  22.758  14.544   7.053
 8123POPC   C4B40966  22.718  14.548   7.353
 8124POPC   NC340967  29.142  14.431   5.553
 8124POPC   PO440968  29.183  14.425   5.853
 8124POPC   GL140969  29.109  14.369   6.153
 8124POPC   GL240970  29.007  14.355   6.153
 8124POPC   C1A40971  29.186  14.390   6.453
 8124POPC   D2A40972  29.126  14.410   6.753
 8124POPC   C3A40973  29.184  14.368   7.053
 8124POPC   C4A40974  29.138  14.393   7.353
 8124POPC   C1B40975  28.879  14.321   6.453
 8124POPC   C2B40976  28.942  14.312   6.753
 8124POPC   C3B40977  28.882  14.331   7.053
 8124POPC   C4B40978  28.862  14.391   7.353
 8125POPC   NC340979  38.437  24.485   5.553
 8125POPC   PO440980  38.470  24.532   5.853
 8125POPC   GL140981  38.439  24.458   6.153
 8125POPC   GL240982  38.375  24.366   6.153
 8125POPC   C1A40983  38.425  24.476   6.453
 8125POPC   D2A40984  38.492  24.535   6.753
 8125POPC   C3A40985  38.445  24.443   7.053
 8125POPC   C4A40986  38.460  24.441   7.353
 8125POPC   C1B40987  38.383  24.249   6.453
 8125POPC   C2B40988  38.336  24.268   6.753
 8125POPC   C3B40989  38.319  24.276   7.053
 8125POPC   C4B40990  38.302  24.247   7.353
 8126POPC   NC340991   1.970  36.169   5.553
 8126POPC   PO440992   2.035  36.122   5.853
 8126POPC   GL140993   1.980  36.090   6.153
 8126POPC   GL240994   1.925  36.283   6.153
 8126POPC   C1A40995   2.036  36.160   6.453
 8126POPC   D2A40996   1.969  36.086   6.753
 8126POPC   C3A40997   1.977  36.114   7.053
 8126POPC   C4A40998   1.963  36.136   7.353
 8126POPC   C1B40999   1.862  36.381   6.453
 8126POPC   C2B41000   1.921  36.305   6.753
 8126POPC   C3B41001   1.920  36.327   7.053
 8126POPC   C4B41002   1.878  36.384   7.353
 8127POPC   NC341003   3.491  33.070   5.553
 8127POPC   PO441004   3.496  33.056   5.853
 8127POPC   GL141005   3.577  33.052   6.153
 8127POPC   GL241006   3.679  33.056   6.153
 8127POPC   C1A41007   3.551  33.065   6.453
 8127POPC   D2A41008   3.546  33.014   6.753
 8127POPC   C3A41009   3.494  33.063   7.053
 8127POPC   C4A41010   3.571  32.998   7.353
 8127POPC   C1B41011   3.773  32.960   6.453
 8127POPC   C2B41012   3.754  33.001   6.753
 8127POPC   C3B41013   3.752  32.965   7.053
 8127POPC   C4B41014   3.741  33.031   7.353
 8128POPC   NC341015  12.866   4.323   5.553
 8128POPC   PO441016  12.897   4.306   5.853
 8128POPC   GL141017  12.833   4.362   6.153
 8128POPC   GL241018  12.960   4.362   6.153
 8128POPC   C1A41019  12.852   4.287   6.453
 8128POPC   D2A41020  12.872   4.293   6.753
 8128POPC   C3A41021  12.838   4.327   7.053
 8128POPC   C4A41022  12.802   4.350   7.353
 8128POPC   C1B41023  13.096   4.411   6.453
 8128POPC   C2B41024  13.040   4.381   6.753
 8128POPC   C3B41025  13.121   4.411   7.053
 8128POPC   C4B41026  13.055   4.394   7.353
 8129POPC   NC341027   2.002  18.269   5.553
 8129POPC   PO441028   1.981  18.288   5.853
 8129POPC   GL141029   1.978  18.307   6.153
 8129POPC   GL241030   2.098  18.279   6.153
 8129POPC   C1A41031   1.992  18.325   6.453
 8129POPC   D2A41032   2.031  18.255   6.753
 8129POPC   C3A41033   2.002  18.271   7.053
 8129POPC   C4A41034   2.007  18.269   7.353
 8129POPC   C1B41035   2.193  18.269   6.453
 8129POPC   C2B41036   2.187  18.180   6.753
 8129POPC   C3B41037   2.201  18.207   7.053
 8129POPC   C4B41038   2.205  18.267   7.353
 8130POPC   NC341039  44.647  29.957   5.553
 8130POPC   PO441040  44.662  29.899   5.853
 8130POPC   GL141041  44.635  29.899   6.153
 8130POPC   GL241042  44.642  30.062   6.153
 8130POPC   C1A41043  44.621  29.883   6.453
 8130POPC   D2A41044  44.684  29.877   6.753
 8130POPC   C3A41045  44.624  29.946   7.053
 8130POPC   C4A41046  44.636  29.908   7.353
 8130POPC   C1B41047  44.666  30.220   6.453
 8130POPC   C2B41048  44.665  30.161   6.753
 8130POPC   C3B41049  44.645  30.209   7.053
 8130POPC   C4B41050  44.705  30.139   7.353
 8131POPC   NC341051  10.557  24.502   5.553
 8131POPC   PO441052  10.490  24.479   5.853
 8131POPC   GL141053  10.523  24.506   6.153
 8131POPC   GL241054  10.583  24.574   6.153
 8131POPC   C1A41055  10.479  24.506   6.453
 8131POPC   D2A41056  10.487  24.489   6.753
 8131POPC   C3A41057  10.574  24.463   7.053
 8131POPC   C4A41058  10.493  24.488   7.353
 8131POPC   C1B41059  10.671  24.684   6.453
 8131POPC   C2B41060  10.673  24.655   6.753
 8131POPC   C3B41061  10.676  24.690   7.053
 8131POPC   C4B41062  10.698  24.715   7.353
 8132POPC   NC341063  12.102  15.229   5.553
 8132POPC   PO441064  12.031  15.174   5.853
 8132POPC   GL141065  12.034  15.175   6.153
 8132POPC   GL241066  12.247  15.164   6.153
 8132POPC   C1A41067  12.085  15.181   6.453
 8132POPC   D2A41068  12.053  15.219   6.753
 8132POPC   C3A41069  12.098  15.148   7.053
 8132POPC   C4A41070  12.114  15.224   7.353
 8132POPC   C1B41071  12.289  15.103   6.453
 8132POPC   C2B41072  12.321  15.116   6.753
 8132POPC   C3B41073  12.324  15.118   7.053
 8132POPC   C4B41074  12.339  15.165   7.353
 8133POPC   NC341075  35.323  26.791   5.553
 8133POPC   PO441076  35.374  26.791   5.853
 8133POPC   GL141077  35.341  26.849   6.153
 8133POPC   GL241078  35.328  26.675   6.153
 8133POPC   C1A41079  35.351  26.864   6.453
 8133POPC   D2A41080  35.359  26.858   6.753
 8133POPC   C3A41081  35.323  26.781   7.053
 8133POPC   C4A41082  35.342  26.845   7.353
 8133POPC   C1B41083  35.334  26.613   6.453
 8133POPC   C2B41084  35.301  26.584   6.753
 8133POPC   C3B41085  35.270  26.583   7.053
 8133POPC   C4B41086  35.350  26.587   7.353
 8134POPC   NC341087  21.406   1.195   5.553
 8134POPC   PO441088  21.397   1.221   5.853
 8134POPC   GL141089  21.436   1.171   6.153
 8134POPC   GL241090  21.305   1.265   6.153
 8134POPC   C1A41091  21.359   1.191   6.453
 8134POPC   D2A41092  21.338   1.231   6.753
 8134POPC   C3A41093  21.404   1.251   7.053
 8134POPC   C4A41094  21.379   1.185   7.353
 8134POPC   C1B41095  21.184   1.340   6.453
 8134POPC   C2B41096  21.187   1.414   6.753
 8134POPC   C3B41097  21.182   1.422   7.053
 8134POPC   C4B41098  21.250   1.340   7.353
 8135POPC   NC341099  30.674  41.577   5.553
 8135POPC   PO441100  30.742  41.562   5.853
 8135POPC   GL141101  30.741  41.578   6.153
 8135POPC   GL241102  30.637  41.496   6.153
 8135POPC   C1A41103  30.660  41.556   6.453
 8135POPC   D2A41104  30.705  41.562   6.753
 8135POPC   C3A41105  30.668  41.593   7.053
 8135POPC   C4A41106  30.716  41.537   7.353
 8135POPC   C1B41107  30.573  41.313   6.453
 8135POPC   C2B41108  30.587  41.390   6.753
 8135POPC   C3B41109  30.590  41.394   7.053
 8135POPC   C4B41110  30.515  41.338   7.353
 8136POPC   NC341111   5.065  35.325   5.553
 8136POPC   PO441112   5.127  35.376   5.853
 8136POPC   GL141113   5.138  35.378   6.153
 8136POPC   GL241114   4.993  35.284   6.153
 8136POPC   C1A41115   5.101  35.311   6.453
 8136POPC   D2A41116   5.084  35.380   6.753
 8136POPC   C3A41117   5.121  35.345   7.053
 8136POPC   C4A41118   5.082  35.332   7.353
 8136POPC   C1B41119   5.023  35.152   6.453
 8136POPC   C2B41120   4.964  35.146   6.753
 8136POPC   C3B41121   4.936  35.131   7.053
 8136POPC   C4B41122   4.943  35.131   7.353
 8137POPC   NC341123  32.291   3.544   5.553
 8137POPC   PO441124  32.291   3.515   5.853
 8137POPC   GL141125  32.233   3.561   6.153
 8137POPC   GL241126  32.245   3.406   6.153
 8137POPC   C1A41127  32.264   3.584   6.453
 8137POPC   D2A41128  32.210   3.521   6.753
 8137POPC   C3A41129  32.233   3.501   7.053
 8137POPC   C4A41130  32.221   3.570   7.353
 8137POPC   C1B41131  32.151   3.265   6.453
 8137POPC   C2B41132  32.188   3.299   6.753
 8137POPC   C3B41133  32.111   3.289   7.053
 8137POPC   C4B41134  32.149   3.275   7.353
 8138POPC   NC341135  25.245   7.463   5.553
 8138POPC   PO441136  25.302   7.423   5.853
 8138POPC   GL141137  25.259   7.464   6.153
 8138POPC   GL241138  25.232   7.349   6.153
 8138POPC   C1A41139  25.246   7.403   6.453
 8138POPC   D2A41140  25.262   7.467   6.753
 8138POPC   C3A41141  25.313   7.452   7.053
 8138POPC   C4A41142  25.266   7.431   7.353
 8138POPC   C1B41143  25.211   7.160   6.453
 8138POPC   C2B41144  25.151   7.220   6.753
 8138POPC   C3B41145  25.204   7.231   7.053
 8138POPC   C4B41146  25.137   7.202   7.353
 8139POPC   NC341147  22.124  11.316   5.553
 8139POPC   PO441148  22.131  11.292   5.853
 8139POPC   GL141149  22.161  11.306   6.153
 8139POPC   GL241150  22.254  11.349   6.153
 8139POPC   C1A41151  22.167  11.284   6.453
 8139POPC   D2A41152  22.150  11.300   6.753
 8139POPC   C3A41153  22.129  11.285   7.053
 8139POPC   C4A41154  22.175  11.305   7.353
 8139POPC   C1B41155  22.381  11.411   6.453
 8139POPC   C2B41156  22.352  11.464   6.753
 8139POPC   C3B41157  22.385  11.467   7.053
 8139POPC   C4B41158  22.326  11.431   7.353
 8140POPC   NC341159   6.689  20.600   5.553
 8140POPC   PO441160   6.688  20.658   5.853
 8140POPC   GL141161   6.641  20.561   6.153
 8140POPC   GL241162   6.624  20.705   6.153
 8140POPC   C1A41163   6.623  20.609   6.453
 8140POPC   D2A41164   6.608  20.654   6.753
 8140POPC   C3A41165   6.646  20.650   7.053
 8140POPC   C4A41166   6.623  20.631   7.353
 8140POPC   C1B41167   6.506  20.798   6.453
 8140POPC   C2B41168   6.532  20.808   6.753
 8140POPC   C3B41169   6.536  20.785   7.053
 8140POPC   C4B41170   6.581  20.823   7.353
 8141POPC   NC341171  19.058   8.169   5.553
 8141POPC   PO441172  19.015   8.235   5.853
 8141POPC   GL141173  19.098   8.182   6.153
 8141POPC   GL241174  18.921   8.292   6.153
 8141POPC   C1A41175  19.050   8.150   6.453
 8141POPC   D2A41176  19.108   8.162   6.753
 8141POPC   C3A41177  19.028   8.161   7.053
 8141POPC   C4A41178  19.085   8.194   7.353
 8141POPC   C1B41179  18.830   8.389   6.453
 8141POPC   C2B41180  18.848   8.327   6.753
 8141POPC   C3B41181  18.821   8.391   7.053
 8141POPC   C4B41182  18.853   8.299   7.353
 8142POPC   NC341183  19.022  29.939   5.553
 8142POPC   PO441184  19.071  29.914   5.853
 8142POPC   GL141185  19.039  29.944   6.153
 8142POPC   GL241186  19.167  29.889   6.153
 8142POPC   C1A41187  19.040  29.901   6.453
 8142POPC   D2A41188  19.011  29.872   6.753
 8142POPC   C3A41189  19.022  29.940   7.053
 8142POPC   C4A41190  19.093  29.918   7.353
 8142POPC   C1B41191  19.290  29.890   6.453
 8142POPC   C2B41192  19.314  29.848   6.753
 8142POPC   C3B41193  19.320  29.901   7.053
 8142POPC   C4B41194  19.277  29.922   7.353
 8143POPC   NC341195   5.847   2.018   5.553
 8143POPC   PO441196   5.844   1.985   5.853
 8143POPC   GL141197   5.913   1.962   6.153
 8143POPC   GL241198   5.730   2.093   6.153
 8143POPC   C1A41199   5.881   2.006   6.453
 8143POPC   D2A41200   5.918   1.972   6.753
 8143POPC   C3A41201   5.891   2.035   7.053
 8143POPC   C4A41202   5.849   1.997   7.353
 8143POPC   C1B41203   5.710   2.131   6.453
 8143POPC   C2B41204   5.633   2.160   6.753
 8143POPC   C3B41205   5.645   2.105   7.053
 8143POPC   C4B41206   5.684   2.201   7.353
 8144POPC   NC341207  16.697   1.985   5.553
 8144POPC   PO441208  16.779   2.036   5.853
 8144POPC   GL141209  16.689   1.940   6.153
 8144POPC   GL241210  16.845   2.076   6.153
 8144POPC   C1A41211  16.729   1.968   6.453
 8144POPC   D2A41212  16.722   1.959   6.753
 8144POPC   C3A41213  16.687   1.955   7.053
 8144POPC   C4A41214  16.688   1.964   7.353
 8144POPC   C1B41215  16.845   2.197   6.453
 8144POPC   C2B41216  16.874   2.194   6.753
 8144POPC   C3B41217  16.899   2.176   7.053
 8144POPC   C4B41218  16.869   2.188   7.353
 8145POPC   NC341219  12.044  40.734   5.553
 8145POPC   PO441220  12.054  40.764   5.853
 8145POPC   GL141221  12.045  40.743   6.153
 8145POPC   GL241222  12.097  40.644   6.153
 8145POPC   C1A41223  12.104  40.812   6.453
 8145POPC   D2A41224  12.042  40.811   6.753
 8145POPC   C3A41225  12.037  40.823   7.053
 8145POPC   C4A41226  12.100  40.763   7.353
 8145POPC   C1B41227  12.044  40.490   6.453
 8145POPC   C2B41228  12.050  40.541   6.753
 8145POPC   C3B41229  12.116  40.567   7.053
 8145POPC   C4B41230  12.118  40.568   7.353
 8146POPC   NC341231  20.616  41.559   5.553
 8146POPC   PO441232  20.585  41.600   5.853
 8146POPC   GL141233  20.599  41.538   6.153
 8146POPC   GL241234  20.726  41.621   6.153
 8146POPC   C1A41235  20.605  41.514   6.453
 8146POPC   D2A41236  20.598  41.532   6.753
 8146POPC   C3A41237  20.605  41.552   7.053
 8146POPC   C4A41238  20.578  41.510   7.353
 8146POPC   C1B41239  20.794  41.746   6.453
 8146POPC   C2B41240  20.799  41.707   6.753
 8146POPC   C3B41241  20.802  41.683   7.053
 8146POPC   C4B41242  20.790  41.675   7.353
 8147POPC   NC341243  23.743   3.561   5.553
 8147POPC   PO441244  23.690   3.569   5.853
 8147POPC   GL141245  23.689   3.525   6.153
 8147POPC   GL241246  23.608   3.440   6.153
 8147POPC   C1A41247  23.740   3.515   6.453
 8147POPC   D2A41248  23.737   3.525   6.753
 8147POPC   C3A41249  23.676   3.577   7.053
 8147POPC   C4A41250  23.749   3.574   7.353
 8147POPC   C1B41251  23.553   3.388   6.453
 8147POPC   C2B41252  23.555   3.434   6.753
 8147POPC   C3B41253  23.513   3.385   7.053
 8147POPC   C4B41254  23.490   3.376   7.353
 8148POPC   NC341255   9.716  19.055   5.553
 8148POPC   PO441256   9.708  19.084   5.853
 8148POPC   GL141257   9.767  19.019   6.153
 8148POPC   GL241258   9.785  18.972   6.153
 8148POPC   C1A41259   9.764  19.071   6.453
 8148POPC   D2A41260   9.747  19.011   6.753
 8148POPC   C3A41261   9.778  19.053   7.053
 8148POPC   C4A41262   9.708  19.107   7.353
 8148POPC   C1B41263   9.846  18.833   6.453
 8148POPC   C2B41264   9.831  18.838   6.753
 8148POPC   C3B41265   9.805  18.785   7.053
 8148POPC   C4B41266   9.815  18.816   7.353
 8149POPC   NC341267   5.126  10.492   5.553
 8149POPC   PO441268   5.051  10.567   5.853
 8149POPC   GL141269   5.108  10.520   6.153
 8149POPC   GL241270   5.065  10.693   6.153
 8149POPC   C1A41271   5.077  10.475   6.453
 8149POPC   D2A41272   5.067  10.528   6.753
 8149POPC   C3A41273   5.117  10.512   7.053
 8149POPC   C4A41274   5.109  10.508   7.353
 8149POPC   C1B41275   5.101  10.740   6.453
 8149POPC   C2B41276   5.048  10.788   6.753
 8149POPC   C3B41277   5.051  10.782   7.053
 8149POPC   C4B41278   5.063  10.737   7.353
 8150POPC   NC341279  12.116   6.693   5.553
 8150POPC   PO441280  12.083   6.598   5.853
 8150POPC   GL141281  12.058   6.664   6.153
 8150POPC   GL241282  12.097   6.516   6.153
 8150POPC   C1A41283  12.125   6.613   6.453
 8150POPC   D2A41284  12.097   6.690   6.753
 8150POPC   C3A41285  12.049   6.602   7.053
 8150POPC   C4A41286  12.103   6.685   7.353
 8150POPC   C1B41287  12.118   6.377   6.453
 8150POPC   C2B41288  12.123   6.406   6.753
 8150POPC   C3B41289  12.040   6.443   7.053
 8150POPC   C4B41290  12.107   6.397   7.353
 8151POPC   NC341291  39.967  36.867   5.553
 8151POPC   PO441292  40.049  36.907   5.853
 8151POPC   GL141293  39.957  36.928   6.153
 8151POPC   GL241294  40.116  36.846   6.153
 8151POPC   C1A41295  40.013  36.952   6.453
 8151POPC   D2A41296  40.001  36.884   6.753
 8151POPC   C3A41297  39.960  36.911   7.053
 8151POPC   C4A41298  40.041  36.874   7.353
 8151POPC   C1B41299  40.203  36.863   6.453
 8151POPC   C2B41300  40.213  36.867   6.753
 8151POPC   C3B41301  40.209  36.853   7.053
 8151POPC   C4B41302  40.213  36.866   7.353
 8152POPC   NC341303   2.775  11.336   5.553
 8152POPC   PO441304   2.727  11.345   5.853
 8152POPC   GL141305   2.755  11.312   6.153
 8152POPC   GL241306   2.711  11.142   6.153
 8152POPC   C1A41307   2.807  11.336   6.453
 8152POPC   D2A41308   2.768  11.271   6.753
 8152POPC   C3A41309   2.783  11.335   7.053
 8152POPC   C4A41310   2.782  11.312   7.353
 8152POPC   C1B41311   2.697  11.059   6.453
 8152POPC   C2B41312   2.668  11.043   6.753
 8152POPC   C3B41313   2.674  11.025   7.053
 8152POPC   C4B41314   2.651  11.020   7.353
 8153POPC   NC341315  27.629  15.177   5.553
 8153POPC   PO441316  27.632  15.219   5.853
 8153POPC   GL141317  27.579  15.146   6.153
 8153POPC   GL241318  27.758  15.198   6.153
 8153POPC   C1A41319  27.598  15.200   6.453
 8153POPC   D2A41320  27.567  15.207   6.753
 8153POPC   C3A41321  27.590  15.153   7.053
 8153POPC   C4A41322  27.619  15.135   7.353
 8153POPC   C1B41323  27.842  15.223   6.453
 8153POPC   C2B41324  27.835  15.179   6.753
 8153POPC   C3B41325  27.792  15.196   7.053
 8153POPC   C4B41326  27.873  15.167   7.353
 8154POPC   NC341327  29.129  19.010   5.553
 8154POPC   PO441328  29.168  19.014   5.853
 8154POPC   GL141329  29.147  19.032   6.153
 8154POPC   GL241330  29.285  19.077   6.153
 8154POPC   C1A41331  29.131  19.098   6.453
 8154POPC   D2A41332  29.105  19.031   6.753
 8154POPC   C3A41333  29.121  19.013   7.053
 8154POPC   C4A41334  29.190  19.027   7.353
 8154POPC   C1B41335  29.408  19.118   6.453
 8154POPC   C2B41336  29.414  19.102   6.753
 8154POPC   C3B41337  29.413  19.089   7.053
 8154POPC   C4B41338  29.443  19.036   7.353
 8155POPC   NC341339  22.973  16.003   5.553
 8155POPC   PO441340  22.931  16.001   5.853
 8155POPC   GL141341  22.894  15.936   6.153
 8155POPC   GL241342  23.019  15.992   6.153
 8155POPC   C1A41343  22.950  15.977   6.453
 8155POPC   D2A41344  22.967  15.962   6.753
 8155POPC   C3A41345  22.900  15.916   7.053
 8155POPC   C4A41346  22.934  15.924   7.353
 8155POPC   C1B41347  23.210  15.957   6.453
 8155POPC   C2B41348  23.221  15.980   6.753
 8155POPC   C3B41349  23.228  16.012   7.053
 8155POPC   C4B41350  23.152  15.946   7.353
 8156POPC   NC341351  35.327  23.699   5.553
 8156POPC   PO441352  35.322  23.747   5.853
 8156POPC   GL141353  35.378  23.728   6.153
 8156POPC   GL241354  35.409  23.625   6.153
 8156POPC   C1A41355  35.345  23.738   6.453
 8156POPC   D2A41356  35.334  23.682   6.753
 8156POPC   C3A41357  35.395  23.698   7.053
 8156POPC   C4A41358  35.360  23.682   7.353
 8156POPC   C1B41359  35.467  23.485   6.453
 8156POPC   C2B41360  35.442  23.472   6.753
 8156POPC   C3B41361  35.409  23.472   7.053
 8156POPC   C4B41362  35.442  23.520   7.353
 8157POPC   NC341363   8.924  34.592   5.553
 8157POPC   PO441364   8.995  34.579   5.853
 8157POPC   GL141365   8.954  34.556   6.153
 8157POPC   GL241366   9.087  34.653   6.153
 8157POPC   C1A41367   9.021  34.617   6.453
 8157POPC   D2A41368   8.990  34.535   6.753
 8157POPC   C3A41369   8.941  34.573   7.053
 8157POPC   C4A41370   9.011  34.594   7.353
 8157POPC   C1B41371   9.143  34.786   6.453
 8157POPC   C2B41372   9.186  34.809   6.753
 8157POPC   C3B41373   9.155  34.770   7.053
 8157POPC   C4B41374   9.142  34.802   7.353
 8158POPC   NC341375  28.325  34.581   5.553
 8158POPC   PO441376  28.366  34.529   5.853
 8158POPC   GL141377  28.404  34.573   6.153
 8158POPC   GL241378  28.424  34.495   6.153
 8158POPC   C1A41379  28.401  34.591   6.453
 8158POPC   D2A41380  28.417  34.607   6.753
 8158POPC   C3A41381  28.392  34.618   7.053
 8158POPC   C4A41382  28.379  34.578   7.353
 8158POPC   C1B41383  28.403  34.341   6.453
 8158POPC   C2B41384  28.473  34.291   6.753
 8158POPC   C3B41385  28.478  34.286   7.053
 8158POPC   C4B41386  28.479  34.293   7.353
 8159POPC   NC341387  38.412  27.613   5.553
 8159POPC   PO441388  38.482  27.564   5.853
 8159POPC   GL141389  38.415  27.586   6.153
 8159POPC   GL241390  38.536  27.593   6.153
 8159POPC   C1A41391  38.496  27.622   6.453
 8159POPC   D2A41392  38.473  27.565   6.753
 8159POPC   C3A41393  38.464  27.603   7.053
 8159POPC   C4A41394  38.461  27.575   7.353
 8159POPC   C1B41395  38.678  27.628   6.453
 8159POPC   C2B41396  38.701  27.618   6.753
 8159POPC   C3B41397  38.704  27.616   7.053
 8159POPC   C4B41398  38.679  27.628   7.353
 8160POPC   NC341399   7.435  38.463   5.553
 8160POPC   PO441400   7.373  38.483   5.853
 8160POPC   GL141401   7.445  38.456   6.153
 8160POPC   GL241402   7.500  38.542   6.153
 8160POPC   C1A41403   7.455  38.452   6.453
 8160POPC   D2A41404   7.378  38.479   6.753
 8160POPC   C3A41405   7.415  38.450   7.053
 8160POPC   C4A41406   7.469  38.477   7.353
 8160POPC   C1B41407   7.693  38.573   6.453
 8160POPC   C2B41408   7.635  38.516   6.753
 8160POPC   C3B41409   7.604  38.545   7.053
 8160POPC   C4B41410   7.656  38.539   7.353
 8161POPC   NC341411  29.880  24.486   5.553
 8161POPC   PO441412  29.877  24.510   5.853
 8161POPC   GL141413  29.915  24.490   6.153
 8161POPC   GL241414  29.963  24.386   6.153
 8161POPC   C1A41415  29.938  24.504   6.453
 8161POPC   D2A41416  29.883  24.447   6.753
 8161POPC   C3A41417  29.904  24.496   7.053
 8161POPC   C4A41418  29.939  24.467   7.353
 8161POPC   C1B41419  30.057  24.264   6.453
 8161POPC   C2B41420  30.056  24.264   6.753
 8161POPC   C3B41421  30.067  24.278   7.053
 8161POPC   C4B41422  30.041  24.285   7.353
 8162POPC   NC341423  39.976  34.592   5.553
 8162POPC   PO441424  40.052  34.562   5.853
 8162POPC   GL141425  40.028  34.568   6.153
 8162POPC   GL241426  39.881  34.552   6.153
 8162POPC   C1A41427  39.976  34.588   6.453
 8162POPC   D2A41428  40.030  34.603   6.753
 8162POPC   C3A41429  40.036  34.603   7.053
 8162POPC   C4A41430  39.990  34.567   7.353
 8162POPC   C1B41431  39.743  34.648   6.453
 8162POPC   C2B41432  39.807  34.658   6.753
 8162POPC   C3B41433  39.768  34.642   7.053
 8162POPC   C4B41434  39.727  34.645   7.353
 8163POPC   NC341435  40.801  25.224   5.553
 8163POPC   PO441436  40.800  25.300   5.853
 8163POPC   GL141437  40.832  25.303   6.153
 8163POPC   GL241438  40.778  25.439   6.153
 8163POPC   C1A41439  40.746  25.261   6.453
 8163POPC   D2A41440  40.826  25.222   6.753
 8163POPC   C3A41441  40.755  25.291   7.053
 8163POPC   C4A41442  40.734  25.261   7.353
 8163POPC   C1B41443  40.813  25.485   6.453
 8163POPC   C2B41444  40.753  25.528   6.753
 8163POPC   C3B41445  40.755  25.536   7.053
 8163POPC   C4B41446  40.756  25.514   7.353
 8164POPC   NC341447  44.635   8.940   5.553
 8164POPC   PO441448  44.654   8.979   5.853
 8164POPC   GL141449  44.653   8.963   6.153
 8164POPC   GL241450  44.631   8.894   6.153
 8164POPC   C1A41451  44.628   8.989   6.453
 8164POPC   D2A41452  44.695   8.989   6.753
 8164POPC   C3A41453  44.675   8.944   7.053
 8164POPC   C4A41454  44.703   8.928   7.353
 8164POPC   C1B41455  44.673   8.719   6.453
 8164POPC   C2B41456  44.669   8.755   6.753
 8164POPC   C3B41457  44.637   8.769   7.053
 8164POPC   C4B41458  44.642   8.772   7.353
 8165POPC   NC341459  32.974  20.609   5.553
 8165POPC   PO441460  33.032  20.570   5.853
 8165POPC   GL141461  33.067  20.655   6.153
 8165POPC   GL241462  33.016  20.690   6.153
 8165POPC   C1A41463  32.982  20.655   6.453
 8165POPC   D2A41464  32.990  20.652   6.753
 8165POPC   C3A41465  33.052  20.641   7.053
 8165POPC   C4A41466  32.983  20.585   7.353
 8165POPC   C1B41467  33.058  20.888   6.453
 8165POPC   C2B41468  33.094  20.869   6.753
 8165POPC   C3B41469  33.119  20.875   7.053
 8165POPC   C4B41470  33.136  20.840   7.353
 8166POPC   NC341471   1.948  33.820   5.553
 8166POPC   PO441472   1.952  33.777   5.853
 8166POPC   GL141473   2.026  33.810   6.153
 8166POPC   GL241474   2.070  33.764   6.153
 8166POPC   C1A41475   2.026  33.790   6.453
 8166POPC   D2A41476   1.958  33.764   6.753
 8166POPC   C3A41477   1.990  33.769   7.053
 8166POPC   C4A41478   2.022  33.786   7.353
 8166POPC   C1B41479   2.208  33.610   6.453
 8166POPC   C2B41480   2.224  33.626   6.753
 8166POPC   C3B41481   2.221  33.657   7.053
 8166POPC   C4B41482   2.190  33.676   7.353
 8167POPC   NC341483  27.617  19.049   5.553
 8167POPC   PO441484  27.634  19.071   5.853
 8167POPC   GL141485  27.585  19.105   6.153
 8167POPC   GL241486  27.485  18.938   6.153
 8167POPC   C1A41487  27.613  19.074   6.453
 8167POPC   D2A41488  27.583  19.106   6.753
 8167POPC   C3A41489  27.592  19.077   7.053
 8167POPC   C4A41490  27.614  19.067   7.353
 8167POPC   C1B41491  27.460  18.893   6.453
 8167POPC   C2B41492  27.446  18.817   6.753
 8167POPC   C3B41493  27.444  18.818   7.053
 8167POPC   C4B41494  27.419  18.811   7.353
 8168POPC   NC341495  40.022  29.188   5.553
 8168POPC   PO441496  39.996  29.147   5.853
 8168POPC   GL141497  40.048  29.185   6.153
 8168POPC   GL241498  39.869  29.133   6.153
 8168POPC   C1A41499  39.993  29.138   6.453
 8168POPC   D2A41500  39.960  29.174   6.753
 8168POPC   C3A41501  40.056  29.168   7.053
 8168POPC   C4A41502  40.050  29.161   7.353
 8168POPC   C1B41503  39.752  29.143   6.453
 8168POPC   C2B41504  39.746  29.169   6.753
 8168POPC   C3B41505  39.767  29.206   7.053
 8168POPC   C4B41506  39.803  29.191   7.353
 8169POPC   NC341507  20.571  15.172   5.553
 8169POPC   PO441508  20.573  15.151   5.853
 8169POPC   GL141509  20.655  15.200   6.153
 8169POPC   GL241510  20.527  15.213   6.153
 8169POPC   C1A41511  20.603  15.133   6.453
 8169POPC   D2A41512  20.594  15.152   6.753
 8169POPC   C3A41513  20.563  15.195   7.053
 8169POPC   C4A41514  20.625  15.180   7.353
 8169POPC   C1B41515  20.403  15.191   6.453
 8169POPC   C2B41516  20.395  15.246   6.753
 8169POPC   C3B41517  20.376  15.238   7.053
 8169POPC   C4B41518  20.405  15.190   7.353
 8170POPC   NC341519  20.622   3.551   5.553
 8170POPC   PO441520  20.594   3.520   5.853
 8170POPC   GL141521  20.582   3.556   6.153
 8170POPC   GL241522  20.680   3.663   6.153
 8170POPC   C1A41523  20.605   3.582   6.453
 8170POPC   D2A41524  20.575   3.566   6.753
 8170POPC   C3A41525  20.640   3.526   7.053
 8170POPC   C4A41526  20.627   3.564   7.353
 8170POPC   C1B41527  20.765   3.728   6.453
 8170POPC   C2B41528  20.712   3.741   6.753
 8170POPC   C3B41529  20.764   3.745   7.053
 8170POPC   C4B41530  20.720   3.712   7.353
 8171POPC   NC341531  36.930  41.589   5.553
 8171POPC   PO441532  36.933  41.517   5.853
 8171POPC   GL141533  36.947  41.526   6.153
 8171POPC   GL241534  36.852  41.462   6.153
 8171POPC   C1A41535  36.903  41.544   6.453
 8171POPC   D2A41536  36.874  41.510   6.753
 8171POPC   C3A41537  36.882  41.588   7.053
 8171POPC   C4A41538  36.916  41.589   7.353
 8171POPC   C1B41539  36.770  41.283   6.453
 8171POPC   C2B41540  36.828  41.281   6.753
 8171POPC   C3B41541  36.793  41.371   7.053
 8171POPC   C4B41542  36.796  41.308   7.353
 8172POPC   NC341543  29.157  38.422   5.553
 8172POPC   PO441544  29.111  38.442   5.853
 8172POPC   GL141545  29.096  38.449   6.153
 8172POPC   GL241546  29.079  38.363   6.153
 8172POPC   C1A41547  29.109  38.406   6.453
 8172POPC   D2A41548  29.185  38.429   6.753
 8172POPC   C3A41549  29.145  38.457   7.053
 8172POPC   C4A41550  29.144  38.422   7.353
 8172POPC   C1B41551  29.025  38.281   6.453
 8172POPC   C2B41552  29.015  38.213   6.753
 8172POPC   C3B41553  28.971  38.191   7.053
 8172POPC   C4B41554  29.070  38.282   7.353
 8173POPC   NC341555  28.354  21.352   5.553
 8173POPC   PO441556  28.328  21.424   5.853
 8173POPC   GL141557  28.391  21.354   6.153
 8173POPC   GL241558  28.363  21.313   6.153
 8173POPC   C1A41559  28.335  21.429   6.453
 8173POPC   D2A41560  28.348  21.371   6.753
 8173POPC   C3A41561  28.332  21.407   7.053
 8173POPC   C4A41562  28.389  21.411   7.353
 8173POPC   C1B41563  28.405  21.148   6.453
 8173POPC   C2B41564  28.467  21.128   6.753
 8173POPC   C3B41565  28.410  21.159   7.053
 8173POPC   C4B41566  28.480  21.111   7.353
 8174POPC   NC341567  29.886  42.340   5.553
 8174POPC   PO441568  29.918  42.305   5.853
 8174POPC   GL141569  29.916  42.289   6.153
 8174POPC   GL241570  29.900  42.416   6.153
 8174POPC   C1A41571  29.924  42.334   6.453
 8174POPC   D2A41572  29.901  42.351   6.753
 8174POPC   C3A41573  29.884  42.297   7.053
 8174POPC   C4A41574  29.954  42.368   7.353
 8174POPC   C1B41575  29.849  42.544   6.453
 8174POPC   C2B41576  29.851  42.621   6.753
 8174POPC   C3B41577  29.824  42.550   7.053
 8174POPC   C4B41578  29.848  42.576   7.353
 8175POPC   NC341579  44.628  33.816   5.553
 8175POPC   PO441580  44.614  33.829   5.853
 8175POPC   GL141581  44.629  33.789   6.153
 8175POPC   GL241582  44.508  33.794   6.153
 8175POPC   C1A41583  44.639  33.823   6.453
 8175POPC   D2A41584  44.647  33.835   6.753
 8175POPC   C3A41585  44.671  33.798   7.053
 8175POPC   C4A41586  44.649  33.802   7.353
 8175POPC   C1B41587  44.445  33.830   6.453
 8175POPC   C2B41588  44.423  33.872   6.753
 8175POPC   C3B41589  44.381  33.889   7.053
 8175POPC   C4B41590  44.415  33.891   7.353
 8176POPC   NC341591  38.448   3.498   5.553
 8176POPC   PO441592  38.441   3.505   5.853
 8176POPC   GL141593  38.432   3.555   6.153
 8176POPC   GL241594  38.598   3.598   6.153
 8176POPC   C1A41595  38.478   3.572   6.453
 8176POPC   D2A41596  38.492   3.492   6.753
 8176POPC   C3A41597  38.423   3.492   7.053
 8176POPC   C4A41598  38.494   3.542   7.353
 8176POPC   C1B41599  38.740   3.579   6.453
 8176POPC   C2B41600  38.749   3.587   6.753
 8176POPC   C3B41601  38.684   3.542   7.053
 8176POPC   C4B41602  38.715   3.537   7.353
 8177POPC   NC341603  16.777  36.926   5.553
 8177POPC   PO441604  16.770  36.881   5.853
 8177POPC   GL141605  16.699  36.948   6.153
 8177POPC   GL241606  16.579  36.918   6.153
 8177POPC   C1A41607  16.765  36.913   6.453
 8177POPC   D2A41608  16.761  36.878   6.753
 8177POPC   C3A41609  16.775  36.909   7.053
 8177POPC   C4A41610  16.718  36.856   7.353
 8177POPC   C1B41611  16.442  36.934   6.453
 8177POPC   C2B41612  16.481  36.914   6.753
 8177POPC   C3B41613  16.477  36.931   7.053
 8177POPC   C4B41614  16.460  36.941   7.353
 8178POPC   NC341615  34.578  25.218   5.553
 8178POPC   PO441616  34.584  25.233   5.853
 8178POPC   GL141617  34.580  25.233   6.153
 8178POPC   GL241618  34.487  25.303   6.153
 8178POPC   C1A41619  34.570  25.296   6.453
 8178POPC   D2A41620  34.564  25.267   6.753
 8178POPC   C3A41621  34.622  25.239   7.053
 8178POPC   C4A41622  34.576  25.240   7.353
 8178POPC   C1B41623  34.380  25.305   6.453
 8178POPC   C2B41624  34.332  25.306   6.753
 8178POPC   C3B41625  34.371  25.300   7.053
 8178POPC   C4B41626  34.368  25.320   7.353
 8179POPC   NC341627   8.940  36.131   5.553
 8179POPC   PO441628   8.957  36.172   5.853
 8179POPC   GL141629   8.972  36.110   6.153
 8179POPC   GL241630   8.844  36.252   6.153
 8179POPC   C1A41631   8.941  36.098   6.453
 8179POPC   D2A41632   8.999  36.174   6.753
 8179POPC   C3A41633   9.015  36.149   7.053
 8179POPC   C4A41634   9.016  36.148   7.353
 8179POPC   C1B41635   8.818  36.293   6.453
 8179POPC   C2B41636   8.757  36.334   6.753
 8179POPC   C3B41637   8.831  36.337   7.053
 8179POPC   C4B41638   8.831  36.281   7.353
 8180POPC   NC341639  40.026  31.490   5.553
 8180POPC   PO441640  39.976  31.456   5.853
 8180POPC   GL141641  40.056  31.492   6.153
 8180POPC   GL241642  39.900  31.346   6.153
 8180POPC   C1A41643  39.973  31.462   6.453
 8180POPC   D2A41644  40.024  31.478   6.753
 8180POPC   C3A41645  40.032  31.520   7.053
 8180POPC   C4A41646  39.982  31.515   7.353
 8180POPC   C1B41647  39.828  31.237   6.453
 8180POPC   C2B41648  39.887  31.248   6.753
 8180POPC   C3B41649  39.836  31.223   7.053
 8180POPC   C4B41650  39.826  31.230   7.353
 8181POPC   NC341651   2.756  44.706   5.553
 8181POPC   PO441652   2.741  44.678   5.853
 8181POPC   GL141653   2.720  44.663   6.153
 8181POPC   GL241654   2.771  44.785   6.153
 8181POPC   C1A41655   2.771  44.711   6.453
 8181POPC   D2A41656   2.717  44.648   6.753
 8181POPC   C3A41657   2.716  44.630   7.053
 8181POPC   C4A41658   2.782  44.632   7.353
 8181POPC   C1B41659   2.669  44.937   6.453
 8181POPC   C2B41660   2.666  44.890   6.753
 8181POPC   C3B41661   2.673  44.947   7.053
 8181POPC   C4B41662   2.672  44.878   7.353
 8182POPC   NC341663  40.021  40.782   5.553
 8182POPC   PO441664  40.025  40.739   5.853
 8182POPC   GL141665  39.964  40.750   6.153
 8182POPC   GL241666  40.117  40.798   6.153
 8182POPC   C1A41667  40.032  40.810   6.453
 8182POPC   D2A41668  40.042  40.775   6.753
 8182POPC   C3A41669  39.963  40.740   7.053
 8182POPC   C4A41670  40.004  40.751   7.353
 8182POPC   C1B41671  40.231  40.851   6.453
 8182POPC   C2B41672  40.247  40.913   6.753
 8182POPC   C3B41673  40.239  40.934   7.053
 8182POPC   C4B41674  40.214  40.936   7.353
 8183POPC   NC341675  33.768  23.711   5.553
 8183POPC   PO441676  33.763  23.759   5.853
 8183POPC   GL141677  33.845  23.665   6.153
 8183POPC   GL241678  33.798  23.620   6.153
 8183POPC   C1A41679  33.751  23.696   6.453
 8183POPC   D2A41680  33.765  23.730   6.753
 8183POPC   C3A41681  33.843  23.763   7.053
 8183POPC   C4A41682  33.846  23.725   7.353
 8183POPC   C1B41683  33.783  23.435   6.453
 8183POPC   C2B41684  33.856  23.478   6.753
 8183POPC   C3B41685  33.774  23.456   7.053
 8183POPC   C4B41686  33.847  23.507   7.353
 8184POPC   NC341687  31.500  22.903   5.553
 8184POPC   PO441688  31.501  22.933   5.853
 8184POPC   GL141689  31.487  22.946   6.153
 8184POPC   GL241690  31.507  22.812   6.153
 8184POPC   C1A41691  31.444  22.955   6.453
 8184POPC   D2A41692  31.494  22.916   6.753
 8184POPC   C3A41693  31.489  22.979   7.053
 8184POPC   C4A41694  31.500  22.916   7.353
 8184POPC   C1B41695  31.556  22.732   6.453
 8184POPC   C2B41696  31.536  22.724   6.753
 8184POPC   C3B41697  31.484  22.715   7.053
 8184POPC   C4B41698  31.553  22.646   7.353
 8185POPC   NC341699  13.667  40.013   5.553
 8185POPC   PO441700  13.668  40.015   5.853
 8185POPC   GL141701  13.673  39.965   6.153
 8185POPC   GL241702  13.503  39.930   6.153
 8185POPC   C1A41703  13.652  40.040   6.453
 8185POPC   D2A41704  13.620  39.977   6.753
 8185POPC   C3A41705  13.631  40.051   7.053
 8185POPC   C4A41706  13.629  39.962   7.353
 8185POPC   C1B41707  13.396  39.894   6.453
 8185POPC   C2B41708  13.412  39.861   6.753
 8185POPC   C3B41709  13.428  39.902   7.053
 8185POPC   C4B41710  13.410  39.891   7.353
 8186POPC   NC341711  40.773  15.150   5.553
 8186POPC   PO441712  40.740  15.132   5.853
 8186POPC   GL141713  40.745  15.218   6.153
 8186POPC   GL241714  40.722  15.103   6.153
 8186POPC   C1A41715  40.828  15.209   6.453
 8186POPC   D2A41716  40.753  15.177   6.753
 8186POPC   C3A41717  40.752  15.201   7.053
 8186POPC   C4A41718  40.801  15.228   7.353
 8186POPC   C1B41719  40.686  14.991   6.453
 8186POPC   C2B41720  40.616  14.998   6.753
 8186POPC   C3B41721  40.676  15.005   7.053
 8186POPC   C4B41722  40.616  14.954   7.353
 8187POPC   NC341723  29.871   5.901   5.553
 8187POPC   PO441724  29.926   5.849   5.853
 8187POPC   GL141725  29.930   5.835   6.153
 8187POPC   GL241726  29.764   5.816   6.153
 8187POPC   C1A41727  29.895   5.876   6.453
 8187POPC   D2A41728  29.927   5.885   6.753
 8187POPC   C3A41729  29.908   5.902   7.053
 8187POPC   C4A41730  29.936   5.900   7.353
 8187POPC   C1B41731  29.695   5.767   6.453
 8187POPC   C2B41732  29.730   5.744   6.753
 8187POPC   C3B41733  29.739   5.779   7.053
 8187POPC   C4B41734  29.732   5.726   7.353
 8188POPC   NC341735   5.875  14.438   5.553
 8188POPC   PO441736   5.889  14.452   5.853
 8188POPC   GL141737   5.887  14.371   6.153
 8188POPC   GL241738   5.923  14.345   6.153
 8188POPC   C1A41739   5.911  14.436   6.453
 8188POPC   D2A41740   5.842  14.362   6.753
 8188POPC   C3A41741   5.878  14.370   7.053
 8188POPC   C4A41742   5.871  14.437   7.353
 8188POPC   C1B41743   6.038  14.196   6.453
 8188POPC   C2B41744   6.087  14.220   6.753
 8188POPC   C3B41745   6.034  14.224   7.053
 8188POPC   C4B41746   6.029  14.226   7.353
 8189POPC   NC341747   0.472  29.878   5.553
 8189POPC   PO441748   0.469  29.961   5.853
 8189POPC   GL141749   0.442  29.947   6.153
 8189POPC   GL241750   0.570  30.002   6.153
 8189POPC   C1A41751   0.469  29.935   6.453
 8189POPC   D2A41752   0.407  29.948   6.753
 8189POPC   C3A41753   0.416  29.940   7.053
 8189POPC   C4A41754   0.418  29.953   7.353
 8189POPC   C1B41755   0.605  30.040   6.453
 8189POPC   C2B41756   0.646  30.118   6.753
 8189POPC   C3B41757   0.612  30.053   7.053
 8189POPC   C4B41758   0.629  30.105   7.353
 8190POPC   NC341759   9.700  11.283   5.553
 8190POPC   PO441760   9.704  11.310   5.853
 8190POPC   GL141761   9.753  11.346   6.153
 8190POPC   GL241762   9.816  11.203   6.153
 8190POPC   C1A41763   9.794  11.293   6.453
 8190POPC   D2A41764   9.712  11.271   6.753
 8190POPC   C3A41765   9.756  11.313   7.053
 8190POPC   C4A41766   9.791  11.295   7.353
 8190POPC   C1B41767   9.861  11.156   6.453
 8190POPC   C2B41768   9.869  11.149   6.753
 8190POPC   C3B41769   9.863  11.117   7.053
 8190POPC   C4B41770   9.892  11.121   7.353
 8191POPC   NC341771  11.330  20.627   5.553
 8191POPC   PO441772  11.284  20.631   5.853
 8191POPC   GL141773  11.342  20.562   6.153
 8191POPC   GL241774  11.413  20.510   6.153
 8191POPC   C1A41775  11.277  20.623   6.453
 8191POPC   D2A41776  11.293  20.652   6.753
 8191POPC   C3A41777  11.265  20.648   7.053
 8191POPC   C4A41778  11.323  20.656   7.353
 8191POPC   C1B41779  11.455  20.362   6.453
 8191POPC   C2B41780  11.470  20.410   6.753
 8191POPC   C3B41781  11.420  20.356   7.053
 8191POPC   C4B41782  11.433  20.401   7.353
 8192POPC   NC341783  43.869  36.895   5.553
 8192POPC   PO441784  43.913  36.868   5.853
 8192POPC   GL141785  43.892  36.897   6.153
 8192POPC   GL241786  43.775  36.854   6.153
 8192POPC   C1A41787  43.865  36.917   6.453
 8192POPC   D2A41788  43.877  36.876   6.753
 8192POPC   C3A41789  43.906  36.947   7.053
 8192POPC   C4A41790  43.853  36.937   7.353
 8192POPC   C1B41791  43.715  36.769   6.453
 8192POPC   C2B41792  43.658  36.735   6.753
 8192POPC   C3B41793  43.733  36.687   7.053
 8192POPC   C4B41794  43.707  36.710   7.353
 8193POPC   NC341795  23.729   7.460   5.553
 8193POPC   PO441796  23.729   7.406   5.853
 8193POPC   GL141797  23.700   7.382   6.153
 8193POPC   GL241798  23.622   7.462   6.153
 8193POPC   C1A41799  23.693   7.465   6.453
 8193POPC   D2A41800  23.674   7.378   6.753
 8193POPC   C3A41801  23.737   7.410   7.053
 8193POPC   C4A41802  23.679   7.377   7.353
 8193POPC   C1B41803  23.494   7.385   6.453
 8193POPC   C2B41804  23.446   7.463   6.753
 8193POPC   C3B41805  23.489   7.438   7.053
 8193POPC   C4B41806  23.513   7.447   7.353
 8194POPC   NC341807  36.897  34.548   5.553
 8194POPC   PO441808  36.940  34.591   5.853
 8194POPC   GL141809  36.940  34.562   6.153
 8194POPC   GL241810  37.015  34.658   6.153
 8194POPC   C1A41811  36.875  34.558   6.453
 8194POPC   D2A41812  36.854  34.547   6.753
 8194POPC   C3A41813  36.904  34.531   7.053
 8194POPC   C4A41814  36.913  34.580   7.353
 8194POPC   C1B41815  37.125  34.683   6.453
 8194POPC   C2B41816  37.184  34.674   6.753
 8194POPC   C3B41817  37.132  34.664   7.053
 8194POPC   C4B41818  37.178  34.656   7.353
 8195POPC   NC341819   8.153  31.509   5.553
 8195POPC   PO441820   8.155  31.487   5.853
 8195POPC   GL141821   8.190  31.436   6.153
 8195POPC   GL241822   8.283  31.470   6.153
 8195POPC   C1A41823   8.147  31.515   6.453
 8195POPC   D2A41824   8.192  31.453   6.753
 8195POPC   C3A41825   8.166  31.493   7.053
 8195POPC   C4A41826   8.232  31.449   7.353
 8195POPC   C1B41827   8.443  31.590   6.453
 8195POPC   C2B41828   8.418  31.593   6.753
 8195POPC   C3B41829   8.422  31.561   7.053
 8195POPC   C4B41830   8.461  31.574   7.353
 8196POPC   NC341831   9.779  31.520   5.553
 8196POPC   PO441832   9.719  31.493   5.853
 8196POPC   GL141833   9.747  31.477   6.153
 8196POPC   GL241834   9.856  31.374   6.153
 8196POPC   C1A41835   9.712  31.436   6.453
 8196POPC   D2A41836   9.752  31.499   6.753
 8196POPC   C3A41837   9.709  31.444   7.053
 8196POPC   C4A41838   9.709  31.435   7.353
 8196POPC   C1B41839   9.943  31.267   6.453
 8196POPC   C2B41840   9.990  31.292   6.753
 8196POPC   C3B41841   9.899  31.353   7.053
 8196POPC   C4B41842   9.958  31.353   7.353
 8197POPC   NC341843  43.836   7.437   5.553
 8197POPC   PO441844  43.875   7.423   5.853
 8197POPC   GL141845  43.905   7.396   6.153
 8197POPC   GL241846  43.932   7.556   6.153
 8197POPC   C1A41847  43.845   7.418   6.453
 8197POPC   D2A41848  43.860   7.402   6.753
 8197POPC   C3A41849  43.889   7.410   7.053
 8197POPC   C4A41850  43.862   7.375   7.353
 8197POPC   C1B41851  43.971   7.703   6.453
 8197POPC   C2B41852  43.971   7.660   6.753
 8197POPC   C3B41853  43.975   7.646   7.053
 8197POPC   C4B41854  43.963   7.648   7.353
 8198POPC   NC341855  36.087  34.569   5.553
 8198POPC   PO441856  36.124  34.591   5.853
 8198POPC   GL141857  36.160  34.536   6.153
 8198POPC   GL241858  36.040  34.659   6.153
 8198POPC   C1A41859  36.102  34.607   6.453
 8198POPC   D2A41860  36.155  34.554   6.753
 8198POPC   C3A41861  36.174  34.613   7.053
 8198POPC   C4A41862  36.144  34.566   7.353
 8198POPC   C1B41863  35.915  34.654   6.453
 8198POPC   C2B41864  35.928  34.651   6.753
 8198POPC   C3B41865  35.909  34.698   7.053
 8198POPC   C4B41866  35.885  34.647   7.353
 8199POPC   NC341867  12.852   5.831   5.553
 8199POPC   PO441868  12.874   5.890   5.853
 8199POPC   GL141869  12.847   5.885   6.153
 8199POPC   GL241870  12.956   5.755   6.153
 8199POPC   C1A41871  12.809   5.892   6.453
 8199POPC   D2A41872  12.869   5.895   6.753
 8199POPC   C3A41873  12.864   5.895   7.053
 8199POPC   C4A41874  12.872   5.879   7.353
 8199POPC   C1B41875  13.042   5.724   6.453
 8199POPC   C2B41876  13.072   5.717   6.753
 8199POPC   C3B41877  13.077   5.740   7.053
 8199POPC   C4B41878  13.079   5.777   7.353
 8200POPC   NC341879  21.352  11.319   5.553
 8200POPC   PO441880  21.349  11.258   5.853
 8200POPC   GL141881  21.374  11.273   6.153
 8200POPC   GL241882  21.401  11.415   6.153
 8200POPC   C1A41883  21.383  11.267   6.453
 8200POPC   D2A41884  21.340  11.319   6.753
 8200POPC   C3A41885  21.377  11.261   7.053
 8200POPC   C4A41886  21.344  11.317   7.353
 8200POPC   C1B41887  21.326  11.517   6.453
 8200POPC   C2B41888  21.385  11.516   6.753
 8200POPC   C3B41889  21.322  11.585   7.053
 8200POPC   C4B41890  21.334  11.546   7.353
 8201POPC   NC341891   7.418  15.221   5.553
 8201POPC   PO441892   7.403  15.216   5.853
 8201POPC   GL141893   7.384  15.208   6.153
 8201POPC   GL241894   7.293  15.246   6.153
 8201POPC   C1A41895   7.411  15.146   6.453
 8201POPC   D2A41896   7.413  15.217   6.753
 8201POPC   C3A41897   7.432  15.221   7.053
 8201POPC   C4A41898   7.379  15.168   7.353
 8201POPC   C1B41899   7.236  15.360   6.453
 8201POPC   C2B41900   7.220  15.370   6.753
 8201POPC   C3B41901   7.225  15.332   7.053
 8201POPC   C4B41902   7.279  15.400   7.353
 8202POPC   NC341903  39.268  21.342   5.553
 8202POPC   PO441904  39.232  21.375   5.853
 8202POPC   GL141905  39.269  21.394   6.153
 8202POPC   GL241906  39.162  21.472   6.153
 8202POPC   C1A41907  39.250  21.357   6.453
 8202POPC   D2A41908  39.237  21.420   6.753
 8202POPC   C3A41909  39.206  21.362   7.053
 8202POPC   C4A41910  39.185  21.388   7.353
 8202POPC   C1B41911  38.995  21.438   6.453
 8202POPC   C2B41912  38.952  21.497   6.753
 8202POPC   C3B41913  38.981  21.449   7.053
 8202POPC   C4B41914  38.948  21.445   7.353
 8203POPC   NC341915  26.774   1.187   5.553
 8203POPC   PO441916  26.808   1.211   5.853
 8203POPC   GL141917  26.817   1.202   6.153
 8203POPC   GL241918  26.960   1.289   6.153
 8203POPC   C1A41919  26.855   1.194   6.453
 8203POPC   D2A41920  26.844   1.253   6.753
 8203POPC   C3A41921  26.805   1.216   7.053
 8203POPC   C4A41922  26.782   1.176   7.353
 8203POPC   C1B41923  27.081   1.339   6.453
 8203POPC   C2B41924  27.011   1.286   6.753
 8203POPC   C3B41925  27.037   1.285   7.053
 8203POPC   C4B41926  27.080   1.309   7.353
 8204POPC   NC341927   1.986  15.216   5.553
 8204POPC   PO441928   2.023  15.173   5.853
 8204POPC   GL141929   2.008  15.214   6.153
 8204POPC   GL241930   2.051  15.093   6.153
 8204POPC   C1A41931   2.012  15.177   6.453
 8204POPC   D2A41932   1.956  15.218   6.753
 8204POPC   C3A41933   1.956  15.150   7.053
 8204POPC   C4A41934   2.016  15.133   7.353
 8204POPC   C1B41935   2.087  14.918   6.453
 8204POPC   C2B41936   2.074  14.968   6.753
 8204POPC   C3B41937   2.036  14.970   7.053
 8204POPC   C4B41938   2.109  14.943   7.353
 8205POPC   NC341939   2.783   3.505   5.553
 8205POPC   PO441940   2.759   3.515   5.853
 8205POPC   GL141941   2.726   3.538   6.153
 8205POPC   GL241942   2.602   3.596   6.153
 8205POPC   C1A41943   2.739   3.571   6.453
 8205POPC   D2A41944   2.769   3.521   6.753
 8205POPC   C3A41945   2.784   3.501   7.053
 8205POPC   C4A41946   2.761   3.536   7.353
 8205POPC   C1B41947   2.566   3.557   6.453
 8205POPC   C2B41948   2.491   3.531   6.753
 8205POPC   C3B41949   2.502   3.607   7.053
 8205POPC   C4B41950   2.483   3.583   7.353
 8206POPC   NC341951   1.229  10.481   5.553
 8206POPC   PO441952   1.242  10.537   5.853
 8206POPC   GL141953   1.200  10.529   6.153
 8206POPC   GL241954   1.324  10.440   6.153
 8206POPC   C1A41955   1.194  10.571   6.453
 8206POPC   D2A41956   1.261  10.486   6.753
 8206POPC   C3A41957   1.184  10.476   7.053
 8206POPC   C4A41958   1.231  10.503   7.353
 8206POPC   C1B41959   1.376  10.412   6.453
 8206POPC   C2B41960   1.380  10.346   6.753
 8206POPC   C3B41961   1.462  10.344   7.053
 8206POPC   C4B41962   1.422  10.402   7.353
 8207POPC   NC341963  38.496   5.109   5.553
 8207POPC   PO441964  38.409   5.062   5.853
 8207POPC   GL141965  38.494   5.081   6.153
 8207POPC   GL241966  38.571   5.005   6.153
 8207POPC   C1A41967  38.431   5.063   6.453
 8207POPC   D2A41968  38.493   5.071   6.753
 8207POPC   C3A41969  38.437   5.086   7.053
 8207POPC   C4A41970  38.423   5.130   7.353
 8207POPC   C1B41971  38.645   4.937   6.453
 8207POPC   C2B41972  38.645   4.849   6.753
 8207POPC   C3B41973  38.572   4.839   7.053
 8207POPC   C4B41974  38.619   4.929   7.353
 8208POPC   NC341975  21.357  14.378   5.553
 8208POPC   PO441976  21.360  14.430   5.853
 8208POPC   GL141977  21.393  14.361   6.153
 8208POPC   GL241978  21.420  14.545   6.153
 8208POPC   C1A41979  21.358  14.451   6.453
 8208POPC   D2A41980  21.401  14.405   6.753
 8208POPC   C3A41981  21.343  14.418   7.053
 8208POPC   C4A41982  21.430  14.363   7.353
 8208POPC   C1B41983  21.365  14.606   6.453
 8208POPC   C2B41984  21.385  14.667   6.753
 8208POPC   C3B41985  21.412  14.630   7.053
 8208POPC   C4B41986  21.383  14.696   7.353
 8209POPC   NC341987  19.013   5.136   5.553
 8209POPC   PO441988  19.065   5.077   5.853
 8209POPC   GL141989  19.048   5.087   6.153
 8209POPC   GL241990  18.929   5.168   6.153
 8209POPC   C1A41991  19.078   5.055   6.453
 8209POPC   D2A41992  19.050   5.078   6.753
 8209POPC   C3A41993  19.095   5.068   7.053
 8209POPC   C4A41994  19.020   5.090   7.353
 8209POPC   C1B41995  18.836   5.195   6.453
 8209POPC   C2B41996  18.789   5.231   6.753
 8209POPC   C3B41997  18.790   5.194   7.053
 8209POPC   C4B41998  18.866   5.177   7.353
 8210POPC   NC341999  26.832  35.379   5.553
 8210POPC   PO442000  26.782  35.332   5.853
 8210POPC   GL142001  26.825  35.322   6.153
 8210POPC   GL242002  26.840  35.256   6.153
 8210POPC   C1A42003  26.842  35.387   6.453
 8210POPC   D2A42004  26.770  35.394   6.753
 8210POPC   C3A42005  26.806  35.313   7.053
 8210POPC   C4A42006  26.794  35.358   7.353
 8210POPC   C1B42007  26.915  35.142   6.453
 8210POPC   C2B42008  26.893  35.143   6.753
 8210POPC   C3B42009  26.865  35.123   7.053
 8210POPC   C4B42010  26.916  35.094   7.353
 8211POPC   NC342011  25.292   0.410   5.553
 8211POPC   PO442012  25.293   0.414   5.853
 8211POPC   GL142013  25.256   0.391   6.153
 8211POPC   GL242014  25.357   0.382   6.153
 8211POPC   C1A42015  25.300   0.445   6.453
 8211POPC   D2A42016  25.273   0.393   6.753
 8211POPC   C3A42017  25.236   0.408   7.053
 8211POPC   C4A42018  25.241   0.426   7.353
 8211POPC   C1B42019  25.476   0.313   6.453
 8211POPC   C2B42020  25.501   0.371   6.753
 8211POPC   C3B42021  25.493   0.337   7.053
 8211POPC   C4B42022  25.505   0.366   7.353
 8212POPC   NC342023  12.815  20.632   5.553
 8212POPC   PO442024  12.890  20.657   5.853
 8212POPC   GL142025  12.803  20.577   6.153
 8212POPC   GL242026  12.736  20.680   6.153
 8212POPC   C1A42027  12.883  20.592   6.453
 8212POPC   D2A42028  12.810  20.569   6.753
 8212POPC   C3A42029  12.852  20.633   7.053
 8212POPC   C4A42030  12.838  20.651   7.353
 8212POPC   C1B42031  12.655  20.789   6.453
 8212POPC   C2B42032  12.706  20.796   6.753
 8212POPC   C3B42033  12.714  20.817   7.053
 8212POPC   C4B42034  12.628  20.736   7.353
 8213POPC   NC342035   2.812  17.497   5.553
 8213POPC   PO442036   2.787  17.476   5.853
 8213POPC   GL142037   2.767  17.510   6.153
 8213POPC   GL242038   2.935  17.529   6.153
 8213POPC   C1A42039   2.801  17.539   6.453
 8213POPC   D2A42040   2.791  17.520   6.753
 8213POPC   C3A42041   2.775  17.517   7.053
 8213POPC   C4A42042   2.725  17.523   7.353
 8213POPC   C1B42043   3.052  17.555   6.453
 8213POPC   C2B42044   2.992  17.501   6.753
 8213POPC   C3B42045   3.057  17.499   7.053
 8213POPC   C4B42046   3.027  17.490   7.353
 8214POPC   NC342047  17.486  41.576   5.553
 8214POPC   PO442048  17.464  41.576   5.853
 8214POPC   GL142049  17.478  41.555   6.153
 8214POPC   GL242050  17.556  41.463   6.153
 8214POPC   C1A42051  17.503  41.577   6.453
 8214POPC   D2A42052  17.502  41.545   6.753
 8214POPC   C3A42053  17.483  41.526   7.053
 8214POPC   C4A42054  17.509  41.544   7.353
 8214POPC   C1B42055  17.671  41.316   6.453
 8214POPC   C2B42056  17.700  41.337   6.753
 8214POPC   C3B42057  17.653  41.341   7.053
 8214POPC   C4B42058  17.675  41.346   7.353
 8215POPC   NC342059  26.015  40.758   5.553
 8215POPC   PO442060  25.992  40.788   5.853
 8215POPC   GL142061  26.046  40.765   6.153
 8215POPC   GL242062  25.957  40.913   6.153
 8215POPC   C1A42063  26.064  40.829   6.453
 8215POPC   D2A42064  26.034  40.829   6.753
 8215POPC   C3A42065  26.014  40.763   7.053
 8215POPC   C4A42066  26.027  40.755   7.353
 8215POPC   C1B42067  25.945  40.973   6.453
 8215POPC   C2B42068  25.941  40.983   6.753
 8215POPC   C3B42069  25.966  41.029   7.053
 8215POPC   C4B42070  25.944  40.992   7.353
 8216POPC   NC342071  19.794   5.044   5.553
 8216POPC   PO442072  19.868   5.060   5.853
 8216POPC   GL142073  19.861   5.053   6.153
 8216POPC   GL242074  19.808   5.218   6.153
 8216POPC   C1A42075  19.859   5.111   6.453
 8216POPC   D2A42076  19.882   5.109   6.753
 8216POPC   C3A42077  19.841   5.100   7.053
 8216POPC   C4A42078  19.860   5.139   7.353
 8216POPC   C1B42079  19.747   5.299   6.453
 8216POPC   C2B42080  19.709   5.288   6.753
 8216POPC   C3B42081  19.736   5.344   7.053
 8216POPC   C4B42082  19.662   5.311   7.353
 8217POPC   NC342083   3.540   5.054   5.553
 8217POPC   PO442084   3.557   5.120   5.853
 8217POPC   GL142085   3.588   5.093   6.153
 8217POPC   GL242086   3.545   5.206   6.153
 8217POPC   C1A42087   3.535   5.053   6.453
 8217POPC   D2A42088   3.556   5.059   6.753
 8217POPC   C3A42089   3.573   5.047   7.053
 8217POPC   C4A42090   3.513   5.053   7.353
 8217POPC   C1B42091   3.644   5.348   6.453
 8217POPC   C2B42092   3.633   5.332   6.753
 8217POPC   C3B42093   3.617   5.295   7.053
 8217POPC   C4B42094   3.552   5.327   7.353
 8218POPC   NC342095  20.578   5.126   5.553
 8218POPC   PO442096  20.617   5.100   5.853
 8218POPC   GL142097  20.650   5.125   6.153
 8218POPC   GL242098  20.686   5.254   6.153
 8218POPC   C1A42099  20.567   5.130   6.453
 8218POPC   D2A42100  20.640   5.138   6.753
 8218POPC   C3A42101  20.638   5.105   7.053
 8218POPC   C4A42102  20.604   5.050   7.353
 8218POPC   C1B42103  20.670   5.311   6.453
 8218POPC   C2B42104  20.641   5.354   6.753
 8218POPC   C3B42105  20.688   5.344   7.053
 8218POPC   C4B42106  20.651   5.309   7.353
 8219POPC   NC342107  32.975  10.534   5.553
 8219POPC   PO442108  33.033  10.513   5.853
 8219POPC   GL142109  33.006  10.538   6.153
 8219POPC   GL242110  33.163  10.574   6.153
 8219POPC   C1A42111  33.021  10.500   6.453
 8219POPC   D2A42112  33.070  10.567   6.753
 8219POPC   C3A42113  32.981  10.504   7.053
 8219POPC   C4A42114  33.011  10.563   7.353
 8219POPC   C1B42115  33.319  10.547   6.453
 8219POPC   C2B42116  33.263  10.527   6.753
 8219POPC   C3B42117  33.317  10.534   7.053
 8219POPC   C4B42118  33.253  10.517   7.353
 8220POPC   NC342119  19.846  33.034   5.553
 8220POPC   PO442120  19.881  32.978   5.853
 8220POPC   GL142121  19.846  33.037   6.153
 8220POPC   GL242122  19.696  33.088   6.153
 8220POPC   C1A42123  19.819  33.029   6.453
 8220POPC   D2A42124  19.861  33.046   6.753
 8220POPC   C3A42125  19.853  33.001   7.053
 8220POPC   C4A42126  19.817  33.036   7.353
 8220POPC   C1B42127  19.611  33.108   6.453
 8220POPC   C2B42128  19.618  33.040   6.753
 8220POPC   C3B42129  19.622  33.018   7.053
 8220POPC   C4B42130  19.546  33.066   7.353
 8221POPC   NC342131  19.816  28.382   5.553
 8221POPC   PO442132  19.854  28.415   5.853
 8221POPC   GL142133  19.844  28.370   6.153
 8221POPC   GL242134  19.899  28.279   6.153
 8221POPC   C1A42135  19.824  28.356   6.453
 8221POPC   D2A42136  19.802  28.383   6.753
 8221POPC   C3A42137  19.831  28.340   7.053
 8221POPC   C4A42138  19.868  28.334   7.353
 8221POPC   C1B42139  19.986  28.175   6.453
 8221POPC   C2B42140  19.970  28.192   6.753
 8221POPC   C3B42141  19.974  28.186   7.053
 8221POPC   C4B42142  20.057  28.185   7.353
 8222POPC   NC342143  22.928  21.376   5.553
 8222POPC   PO442144  22.964  21.385   5.853
 8222POPC   GL142145  22.938  21.376   6.153
 8222POPC   GL242146  22.868  21.382   6.153
 8222POPC   C1A42147  22.957  21.402   6.453
 8222POPC   D2A42148  22.897  21.361   6.753
 8222POPC   C3A42149  22.961  21.364   7.053
 8222POPC   C4A42150  22.923  21.340   7.353
 8222POPC   C1B42151  22.663  21.426   6.453
 8222POPC   C2B42152  22.667  21.502   6.753
 8222POPC   C3B42153  22.744  21.466   7.053
 8222POPC   C4B42154  22.669  21.503   7.353
 8223POPC   NC342155  31.508  43.150   5.553
 8223POPC   PO442156  31.522  43.126   5.853
 8223POPC   GL142157  31.516  43.126   6.153
 8223POPC   GL242158  31.416  43.218   6.153
 8223POPC   C1A42159  31.446  43.102   6.453
 8223POPC   D2A42160  31.518  43.157   6.753
 8223POPC   C3A42161  31.522  43.106   7.053
 8223POPC   C4A42162  31.511  43.107   7.353
 8223POPC   C1B42163  31.430  43.346   6.453
 8223POPC   C2B42164  31.441  43.340   6.753
 8223POPC   C3B42165  31.447  43.368   7.053
 8223POPC   C4B42166  31.449  43.317   7.353
 8224POPC   NC342167  40.796  17.508   5.553
 8224POPC   PO442168  40.757  17.550   5.853
 8224POPC   GL142169  40.830  17.511   6.153
 8224POPC   GL242170  40.913  17.474   6.153
 8224POPC   C1A42171  40.827  17.523   6.453
 8224POPC   D2A42172  40.792  17.496   6.753
 8224POPC   C3A42173  40.766  17.521   7.053
 8224POPC   C4A42174  40.821  17.548   7.353
 8224POPC   C1B42175  41.021  17.500   6.453
 8224POPC   C2B42176  41.056  17.503   6.753
 8224POPC   C3B42177  40.983  17.460   7.053
 8224POPC   C4B42178  41.073  17.470   7.353
 8225POPC   NC342179  29.186  29.108   5.553
 8225POPC   PO442180  29.141  29.148   5.853
 8225POPC   GL142181  29.194  29.173   6.153
 8225POPC   GL242182  29.198  29.069   6.153
 8225POPC   C1A42183  29.142  29.151   6.453
 8225POPC   D2A42184  29.106  29.193   6.753
 8225POPC   C3A42185  29.164  29.162   7.053
 8225POPC   C4A42186  29.188  29.183   7.353
 8225POPC   C1B42187  29.369  28.981   6.453
 8225POPC   C2B42188  29.360  28.976   6.753
 8225POPC   C3B42189  29.366  28.995   7.053
 8225POPC   C4B42190  29.389  29.007   7.353
 8226POPC   NC342191   4.327  30.719   5.553
 8226POPC   PO442192   4.350  30.690   5.853
 8226POPC   GL142193   4.303  30.674   6.153
 8226POPC   GL242194   4.248  30.608   6.153
 8226POPC   C1A42195   4.293  30.704   6.453
 8226POPC   D2A42196   4.307  30.684   6.753
 8226POPC   C3A42197   4.331  30.699   7.053
 8226POPC   C4A42198   4.287  30.664   7.353
 8226POPC   C1B42199   4.156  30.523   6.453
 8226POPC   C2B42200   4.132  30.523   6.753
 8226POPC   C3B42201   4.126  30.525   7.053
 8226POPC   C4B42202   4.184  30.516   7.353
 8227POPC   NC342203  35.373  43.121   5.553
 8227POPC   PO442204  35.376  43.107   5.853
 8227POPC   GL142205  35.365  43.133   6.153
 8227POPC   GL242206  35.238  43.020   6.153
 8227POPC   C1A42207  35.332  43.071   6.453
 8227POPC   D2A42208  35.354  43.094   6.753
 8227POPC   C3A42209  35.361  43.098   7.053
 8227POPC   C4A42210  35.399  43.123   7.353
 8227POPC   C1B42211  35.122  42.922   6.453
 8227POPC   C2B42212  35.139  42.992   6.753
 8227POPC   C3B42213  35.189  42.962   7.053
 8227POPC   C4B42214  35.140  42.916   7.353
 8228POPC   NC342215  40.787  24.466   5.553
 8228POPC   PO442216  40.753  24.459   5.853
 8228POPC   GL142217  40.806  24.448   6.153
 8228POPC   GL242218  40.707  24.516   6.153
 8228POPC   C1A42219  40.739  24.457   6.453
 8228POPC   D2A42220  40.779  24.520   6.753
 8228POPC   C3A42221  40.830  24.488   7.053
 8228POPC   C4A42222  40.811  24.440   7.353
 8228POPC   C1B42223  40.508  24.543   6.453
 8228POPC   C2B42224  40.499  24.514   6.753
 8228POPC   C3B42225  40.535  24.476   7.053
 8228POPC   C4B42226  40.565  24.489   7.353
 8229POPC   NC342227  24.517   2.767   5.553
 8229POPC   PO442228  24.464   2.747   5.853
 8229POPC   GL142229  24.442   2.771   6.153
 8229POPC   GL242230  24.389   2.749   6.153
 8229POPC   C1A42231  24.532   2.791   6.453
 8229POPC   D2A42232  24.490   2.785   6.753
 8229POPC   C3A42233  24.518   2.735   7.053
 8229POPC   C4A42234  24.528   2.765   7.353
 8229POPC   C1B42235  24.287   2.700   6.453
 8229POPC   C2B42236  24.294   2.679   6.753
 8229POPC   C3B42237  24.212   2.760   7.053
 8229POPC   C4B42238  24.289   2.731   7.353
 8230POPC   NC342239   6.644  42.365   5.553
 8230POPC   PO442240   6.661  42.351   5.853
 8230POPC   GL142241   6.674  42.360   6.153
 8230POPC   GL242242   6.742  42.328   6.153
 8230POPC   C1A42243   6.617  42.329   6.453
 8230POPC   D2A42244   6.602  42.312   6.753
 8230POPC   C3A42245   6.611  42.363   7.053
 8230POPC   C4A42246   6.672  42.361   7.353
 8230POPC   C1B42247   6.859  42.293   6.453
 8230POPC   C2B42248   6.875  42.198   6.753
 8230POPC   C3B42249   6.831  42.254   7.053
 8230POPC   C4B42250   6.869  42.252   7.353
 8231POPC   NC342251  20.576   8.164   5.553
 8231POPC   PO442252  20.578   8.197   5.853
 8231POPC   GL142253  20.641   8.172   6.153
 8231POPC   GL242254  20.592   8.104   6.153
 8231POPC   C1A42255  20.601   8.221   6.453
 8231POPC   D2A42256  20.604   8.189   6.753
 8231POPC   C3A42257  20.563   8.199   7.053
 8231POPC   C4A42258  20.563   8.149   7.353
 8231POPC   C1B42259  20.584   7.911   6.453
 8231POPC   C2B42260  20.631   7.919   6.753
 8231POPC   C3B42261  20.592   7.920   7.053
 8231POPC   C4B42262  20.624   7.976   7.353
 8232POPC   NC342263  43.105   2.764   5.553
 8232POPC   PO442264  43.143   2.778   5.853
 8232POPC   GL142265  43.089   2.810   6.153
 8232POPC   GL242266  42.957   2.689   6.153
 8232POPC   C1A42267  43.146   2.789   6.453
 8232POPC   D2A42268  43.061   2.739   6.753
 8232POPC   C3A42269  43.094   2.807   7.053
 8232POPC   C4A42270  43.096   2.806   7.353
 8232POPC   C1B42271  42.920   2.743   6.453
 8232POPC   C2B42272  42.864   2.650   6.753
 8232POPC   C3B42273  42.892   2.668   7.053
 8232POPC   C4B42274  42.904   2.742   7.353
 8233POPC   NC342275   0.413  13.588   5.553
 8233POPC   PO442276   0.429  13.638   5.853
 8233POPC   GL142277   0.437  13.651   6.153
 8233POPC   GL242278   0.416  13.736   6.153
 8233POPC   C1A42279   0.457  13.656   6.453
 8233POPC   D2A42280   0.468  13.657   6.753
 8233POPC   C3A42281   0.406  13.662   7.053
 8233POPC   C4A42282   0.405  13.593   7.353
 8233POPC   C1B42283   0.331  13.806   6.453
 8233POPC   C2B42284   0.322  13.892   6.753
 8233POPC   C3B42285   0.304  13.815   7.053
 8233POPC   C4B42286   0.369  13.883   7.353
 8234POPC   NC342287  22.194  33.779   5.553
 8234POPC   PO442288  22.121  33.782   5.853
 8234POPC   GL142289  22.187  33.845   6.153
 8234POPC   GL242290  22.229  33.935   6.153
 8234POPC   C1A42291  22.125  33.814   6.453
 8234POPC   D2A42292  22.115  33.772   6.753
 8234POPC   C3A42293  22.161  33.820   7.053
 8234POPC   C4A42294  22.189  33.778   7.353
 8234POPC   C1B42295  22.278  34.048   6.453
 8234POPC   C2B42296  22.280  34.060   6.753
 8234POPC   C3B42297  22.300  34.000   7.053
 8234POPC   C4B42298  22.246  34.049   7.353
 8235POPC   NC342299  39.247   5.896   5.553
 8235POPC   PO442300  39.270   5.827   5.853
 8235POPC   GL142301  39.213   5.877   6.153
 8235POPC   GL242302  39.211   5.747   6.153
 8235POPC   C1A42303  39.273   5.893   6.453
 8235POPC   D2A42304  39.246   5.879   6.753
 8235POPC   C3A42305  39.257   5.881   7.053
 8235POPC   C4A42306  39.211   5.846   7.353
 8235POPC   C1B42307  39.259   5.595   6.453
 8235POPC   C2B42308  39.213   5.577   6.753
 8235POPC   C3B42309  39.222   5.660   7.053
 8235POPC   C4B42310  39.187   5.583   7.353
 8236POPC   NC342311  33.838   9.787   5.553
 8236POPC   PO442312  33.803   9.725   5.853
 8236POPC   GL142313  33.841   9.744   6.153
 8236POPC   GL242314  33.827   9.578   6.153
 8236POPC   C1A42315  33.781   9.719   6.453
 8236POPC   D2A42316  33.788   9.705   6.753
 8236POPC   C3A42317  33.776   9.756   7.053
 8236POPC   C4A42318  33.759   9.789   7.353
 8236POPC   C1B42319  33.878   9.529   6.453
 8236POPC   C2B42320  33.910   9.534   6.753
 8236POPC   C3B42321  33.899   9.497   7.053
 8236POPC   C4B42322  33.840   9.506   7.353
 8237POPC   NC342323  30.667  24.508   5.553
 8237POPC   PO442324  30.741  24.506   5.853
 8237POPC   GL142325  30.736  24.510   6.153
 8237POPC   GL242326  30.591  24.462   6.153
 8237POPC   C1A42327  30.648  24.468   6.453
 8237POPC   D2A42328  30.732  24.472   6.753
 8237POPC   C3A42329  30.671  24.495   7.053
 8237POPC   C4A42330  30.693  24.496   7.353
 8237POPC   C1B42331  30.474  24.362   6.453
 8237POPC   C2B42332  30.512  24.311   6.753
 8237POPC   C3B42333  30.527  24.361   7.053
 8237POPC   C4B42334  30.531  24.361   7.353
 8238POPC   NC342335  39.271  15.983   5.553
 8238POPC   PO442336  39.248  16.001   5.853
 8238POPC   GL142337  39.277  15.968   6.153
 8238POPC   GL242338  39.197  16.121   6.153
 8238POPC   C1A42339  39.246  15.915   6.453
 8238POPC   D2A42340  39.195  15.916   6.753
 8238POPC   C3A42341  39.257  15.959   7.053
 8238POPC   C4A42342  39.209  15.923   7.353
 8238POPC   C1B42343  39.209  16.247   6.453
 8238POPC   C2B42344  39.283  16.165   6.753
 8238POPC   C3B42345  39.294  16.194   7.053
 8238POPC   C4B42346  39.208  16.238   7.353
 8239POPC   NC342347  29.881  40.805   5.553
 8239POPC   PO442348  29.927  40.742   5.853
 8239POPC   GL142349  29.938  40.760   6.153
 8239POPC   GL242350  30.003  40.881   6.153
 8239POPC   C1A42351  29.958  40.822   6.453
 8239POPC   D2A42352  29.966  40.799   6.753
 8239POPC   C3A42353  29.882  40.795   7.053
 8239POPC   C4A42354  29.925  40.784   7.353
 8239POPC   C1B42355  30.005  41.001   6.453
 8239POPC   C2B42356  30.012  40.984   6.753
 8239POPC   C3B42357  30.067  40.956   7.053
 8239POPC   C4B42358  30.017  40.954   7.353
 8240POPC   NC342359   5.848  22.145   5.553
 8240POPC   PO442360   5.912  22.182   5.853
 8240POPC   GL142361   5.855  22.165   6.153
 8240POPC   GL242362   5.934  22.304   6.153
 8240POPC   C1A42363   5.898  22.183   6.453
 8240POPC   D2A42364   5.844  22.190   6.753
 8240POPC   C3A42365   5.861  22.184   7.053
 8240POPC   C4A42366   5.864  22.154   7.353
 8240POPC   C1B42367   6.075  22.345   6.453
 8240POPC   C2B42368   5.993  22.319   6.753
 8240POPC   C3B42369   6.001  22.327   7.053
 8240POPC   C4B42370   6.020  22.323   7.353
 8241POPC   NC342371  27.606  34.538   5.553
 8241POPC   PO442372  27.607  34.589   5.853
 8241POPC   GL142373  27.577  34.535   6.153
 8241POPC   GL242374  27.515  34.589   6.153
 8241POPC   C1A42375  27.546  34.538   6.453
 8241POPC   D2A42376  27.608  34.534   6.753
 8241POPC   C3A42377  27.604  34.618   7.053
 8241POPC   C4A42378  27.568  34.604   7.353
 8241POPC   C1B42379  27.393  34.639   6.453
 8241POPC   C2B42380  27.374  34.653   6.753
 8241POPC   C3B42381  27.375  34.659   7.053
 8241POPC   C4B42382  27.306  34.656   7.353
 8242POPC   NC342383  16.005   1.982   5.553
 8242POPC   PO442384  15.917   1.953   5.853
 8242POPC   GL142385  15.943   2.028   6.153
 8242POPC   GL242386  15.973   2.066   6.153
 8242POPC   C1A42387  15.996   2.009   6.453
 8242POPC   D2A42388  15.922   1.949   6.753
 8242POPC   C3A42389  15.980   2.022   7.053
 8242POPC   C4A42390  15.916   1.954   7.353
 8242POPC   C1B42391  15.990   2.206   6.453
 8242POPC   C2B42392  16.033   2.193   6.753
 8242POPC   C3B42393  15.984   2.234   7.053
 8242POPC   C4B42394  16.043   2.261   7.353
 8243POPC   NC342395  41.558  13.599   5.553
 8243POPC   PO442396  41.549  13.614   5.853
 8243POPC   GL142397  41.549  13.581   6.153
 8243POPC   GL242398  41.628  13.534   6.153
 8243POPC   C1A42399  41.560  13.618   6.453
 8243POPC   D2A42400  41.595  13.615   6.753
 8243POPC   C3A42401  41.570  13.604   7.053
 8243POPC   C4A42402  41.545  13.615   7.353
 8243POPC   C1B42403  41.740  13.385   6.453
 8243POPC   C2B42404  41.678  13.462   6.753
 8243POPC   C3B42405  41.698  13.444   7.053
 8243POPC   C4B42406  41.725  13.432   7.353
 8244POPC   NC342407  21.435  32.296   5.553
 8244POPC   PO442408  21.381  32.292   5.853
 8244POPC   GL142409  21.422  32.243   6.153
 8244POPC   GL242410  21.331  32.082   6.153
 8244POPC   C1A42411  21.357  32.284   6.453
 8244POPC   D2A42412  21.394  32.294   6.753
 8244POPC   C3A42413  21.402  32.260   7.053
 8244POPC   C4A42414  21.420  32.244   7.353
 8244POPC   C1B42415  21.268  32.009   6.453
 8244POPC   C2B42416  21.301  31.971   6.753
 8244POPC   C3B42417  21.299  32.014   7.053
 8244POPC   C4B42418  21.354  31.986   7.353
 8245POPC   NC342419  31.439  43.900   5.553
 8245POPC   PO442420  31.521  43.846   5.853
 8245POPC   GL142421  31.442  43.873   6.153
 8245POPC   GL242422  31.367  43.984   6.153
 8245POPC   C1A42423  31.505  43.929   6.453
 8245POPC   D2A42424  31.518  43.890   6.753
 8245POPC   C3A42425  31.453  43.882   7.053
 8245POPC   C4A42426  31.466  43.891   7.353
 8245POPC   C1B42427  31.282  43.984   6.453
 8245POPC   C2B42428  31.196  44.008   6.753
 8245POPC   C3B42429  31.292  43.946   7.053
 8245POPC   C4B42430  31.293  44.033   7.353
 8246POPC   NC342431  18.297  28.369   5.553
 8246POPC   PO442432  18.320  28.332   5.853
 8246POPC   GL142433  18.299  28.349   6.153
 8246POPC   GL242434  18.330  28.243   6.153
 8246POPC   C1A42435  18.246  28.319   6.453
 8246POPC   D2A42436  18.325  28.387   6.753
 8246POPC   C3A42437  18.321  28.320   7.053
 8246POPC   C4A42438  18.333  28.412   7.353
 8246POPC   C1B42439  18.377  28.142   6.453
 8246POPC   C2B42440  18.361  28.094   6.753
 8246POPC   C3B42441  18.337  28.150   7.053
 8246POPC   C4B42442  18.416  28.182   7.353
 8247POPC   NC342443  43.922  31.500   5.553
 8247POPC   PO442444  43.881  31.440   5.853
 8247POPC   GL142445  43.845  31.506   6.153
 8247POPC   GL242446  44.023  31.535   6.153
 8247POPC   C1A42447  43.852  31.516   6.453
 8247POPC   D2A42448  43.901  31.522   6.753
 8247POPC   C3A42449  43.873  31.521   7.053
 8247POPC   C4A42450  43.914  31.501   7.353
 8247POPC   C1B42451  44.123  31.560   6.453
 8247POPC   C2B42452  44.135  31.560   6.753
 8247POPC   C3B42453  44.128  31.543   7.053
 8247POPC   C4B42454  44.096  31.556   7.353
 8248POPC   NC342455   2.751  41.555   5.553
 8248POPC   PO442456   2.738  41.534   5.853
 8248POPC   GL142457   2.765  41.602   6.153
 8248POPC   GL242458   2.835  41.462   6.153
 8248POPC   C1A42459   2.717  41.532   6.453
 8248POPC   D2A42460   2.729  41.518   6.753
 8248POPC   C3A42461   2.737  41.601   7.053
 8248POPC   C4A42462   2.729  41.538   7.353
 8248POPC   C1B42463   3.037  41.402   6.453
 8248POPC   C2B42464   3.038  41.422   6.753
 8248POPC   C3B42465   2.987  41.483   7.053
 8248POPC   C4B42466   2.953  41.455   7.353
 8249POPC   NC342467  21.418  34.623   5.553
 8249POPC   PO442468  21.392  34.555   5.853
 8249POPC   GL142469  21.383  34.543   6.153
 8249POPC   GL242470  21.442  34.418   6.153
 8249POPC   C1A42471  21.404  34.583   6.453
 8249POPC   D2A42472  21.388  34.551   6.753
 8249POPC   C3A42473  21.415  34.562   7.053
 8249POPC   C4A42474  21.389  34.579   7.353
 8249POPC   C1B42475  21.446  34.375   6.453
 8249POPC   C2B42476  21.449  34.373   6.753
 8249POPC   C3B42477  21.432  34.346   7.053
 8249POPC   C4B42478  21.445  34.378   7.353
 8250POPC   NC342479   7.404  26.798   5.553
 8250POPC   PO442480   7.434  26.774   5.853
 8250POPC   GL142481   7.376  26.847   6.153
 8250POPC   GL242482   7.302  26.666   6.153
 8250POPC   C1A42483   7.437  26.824   6.453
 8250POPC   D2A42484   7.396  26.832   6.753
 8250POPC   C3A42485   7.468  26.837   7.053
 8250POPC   C4A42486   7.374  26.775   7.353
 8250POPC   C1B42487   7.291  26.583   6.453
 8250POPC   C2B42488   7.320  26.644   6.753
 8250POPC   C3B42489   7.285  26.659   7.053
 8250POPC   C4B42490   7.264  26.609   7.353
 8251POPC   NC342491   7.432   8.958   5.553
 8251POPC   PO442492   7.423   8.927   5.853
 8251POPC   GL142493   7.402   9.004   6.153
 8251POPC   GL242494   7.408   9.091   6.153
 8251POPC   C1A42495   7.431   8.931   6.453
 8251POPC   D2A42496   7.445   8.950   6.753
 8251POPC   C3A42497   7.404   8.957   7.053
 8251POPC   C4A42498   7.402   9.006   7.353
 8251POPC   C1B42499   7.450   9.238   6.453
 8251POPC   C2B42500   7.447   9.244   6.753
 8251POPC   C3B42501   7.461   9.226   7.053
 8251POPC   C4B42502   7.496   9.253   7.353
 8252POPC   NC342503  15.922   4.338   5.553
 8252POPC   PO442504  15.964   4.325   5.853
 8252POPC   GL142505  15.991   4.277   6.153
 8252POPC   GL242506  15.971   4.401   6.153
 8252POPC   C1A42507  15.920   4.303   6.453
 8252POPC   D2A42508  15.951   4.366   6.753
 8252POPC   C3A42509  15.970   4.367   7.053
 8252POPC   C4A42510  15.943   4.344   7.353
 8252POPC   C1B42511  15.995   4.604   6.453
 8252POPC   C2B42512  15.946   4.571   6.753
 8252POPC   C3B42513  16.011   4.568   7.053
 8252POPC   C4B42514  15.949   4.585   7.353
 8253POPC   NC342515   5.868   5.863   5.553
 8253POPC   PO442516   5.895   5.854   5.853
 8253POPC   GL142517   5.851   5.898   6.153
 8253POPC   GL242518   5.882   6.036   6.153
 8253POPC   C1A42519   5.851   5.866   6.453
 8253POPC   D2A42520   5.903   5.904   6.753
 8253POPC   C3A42521   5.846   5.914   7.053
 8253POPC   C4A42522   5.914   5.886   7.353
 8253POPC   C1B42523   5.902   6.075   6.453
 8253POPC   C2B42524   5.877   6.116   6.753
 8253POPC   C3B42525   5.822   6.149   7.053
 8253POPC   C4B42526   5.880   6.159   7.353
 8254POPC   NC342527  18.326   5.855   5.553
 8254POPC   PO442528  18.239   5.890   5.853
 8254POPC   GL142529  18.265   5.909   6.153
 8254POPC   GL242530  18.254   5.745   6.153
 8254POPC   C1A42531  18.312   5.827   6.453
 8254POPC   D2A42532  18.256   5.914   6.753
 8254POPC   C3A42533  18.289   5.900   7.053
 8254POPC   C4A42534  18.323   5.829   7.353
 8254POPC   C1B42535  18.180   5.682   6.453
 8254POPC   C2B42536  18.133   5.679   6.753
 8254POPC   C3B42537  18.109   5.701   7.053
 8254POPC   C4B42538  18.114   5.693   7.353
 8255POPC   NC342539  18.320  13.658   5.553
 8255POPC   PO442540  18.300  13.643   5.853
 8255POPC   GL142541  18.237  13.652   6.153
 8255POPC   GL242542  18.180  13.544   6.153
 8255POPC   C1A42543  18.293  13.652   6.453
 8255POPC   D2A42544  18.247  13.643   6.753
 8255POPC   C3A42545  18.239  13.653   7.053
 8255POPC   C4A42546  18.316  13.614   7.353
 8255POPC   C1B42547  18.142  13.481   6.453
 8255POPC   C2B42548  18.148  13.417   6.753
 8255POPC   C3B42549  18.102  13.449   7.053
 8255POPC   C4B42550  18.092  13.401   7.353
 8256POPC   NC342551  19.067  21.397   5.553
 8256POPC   PO442552  19.047  21.417   5.853
 8256POPC   GL142553  19.014  21.352   6.153
 8256POPC   GL242554  19.024  21.488   6.153
 8256POPC   C1A42555  19.050  21.358   6.453
 8256POPC   D2A42556  19.090  21.355   6.753
 8256POPC   C3A42557  19.076  21.366   7.053
 8256POPC   C4A42558  19.076  21.396   7.353
 8256POPC   C1B42559  18.922  21.619   6.453
 8256POPC   C2B42560  18.850  21.604   6.753
 8256POPC   C3B42561  18.887  21.540   7.053
 8256POPC   C4B42562  18.890  21.568   7.353
 8257POPC   NC342563  40.017  32.988   5.553
 8257POPC   PO442564  39.979  32.983   5.853
 8257POPC   GL142565  39.964  33.033   6.153
 8257POPC   GL242566  40.101  33.137   6.153
 8257POPC   C1A42567  40.031  32.991   6.453
 8257POPC   D2A42568  40.057  32.979   6.753
 8257POPC   C3A42569  40.018  33.031   7.053
 8257POPC   C4A42570  40.018  32.998   7.353
 8257POPC   C1B42571  40.185  33.158   6.453
 8257POPC   C2B42572  40.191  33.214   6.753
 8257POPC   C3B42573  40.198  33.243   7.053
 8257POPC   C4B42574  40.161  33.242   7.353
 8258POPC   NC342575  44.666  12.124   5.553
 8258POPC   PO442576  44.689  12.078   5.853
 8258POPC   GL142577  44.677  12.080   6.153
 8258POPC   GL242578  44.772  12.127   6.153
 8258POPC   C1A42579  44.670  12.028   6.453
 8258POPC   D2A42580  44.630  12.030   6.753
 8258POPC   C3A42581  44.661  12.063   7.053
 8258POPC   C4A42582  44.686  12.028   7.353
 8258POPC   C1B42583  44.850  12.108   6.453
 8258POPC   C2B42584  44.935  12.160   6.753
 8258POPC   C3B42585  44.897  12.174   7.053
 8258POPC   C4B42586  44.894  12.133   7.353
 8259POPC   NC342587   1.209  41.518   5.553
 8259POPC   PO442588   1.227  41.574   5.853
 8259POPC   GL142589   1.252  41.553   6.153
 8259POPC   GL242590   1.197  41.440   6.153
 8259POPC   C1A42591   1.236  41.546   6.453
 8259POPC   D2A42592   1.213  41.514   6.753
 8259POPC   C3A42593   1.177  41.515   7.053
 8259POPC   C4A42594   1.211  41.605   7.353
 8259POPC   C1B42595   1.151  41.290   6.453
 8259POPC   C2B42596   1.176  41.307   6.753
 8259POPC   C3B42597   1.127  41.300   7.053
 8259POPC   C4B42598   1.096  41.352   7.353
 8260POPC   NC342599   5.100   5.118   5.553
 8260POPC   PO442600   5.112   5.121   5.853
 8260POPC   GL142601   5.086   5.133   6.153
 8260POPC   GL242602   5.035   5.116   6.153
 8260POPC   C1A42603   5.050   5.048   6.453
 8260POPC   D2A42604   5.128   5.135   6.753
 8260POPC   C3A42605   5.088   5.074   7.053
 8260POPC   C4A42606   5.122   5.064   7.353
 8260POPC   C1B42607   4.854   5.203   6.453
 8260POPC   C2B42608   4.855   5.273   6.753
 8260POPC   C3B42609   4.918   5.259   7.053
 8260POPC   C4B42610   4.889   5.190   7.353
 8261POPC   NC342611  11.296  24.525   5.553
 8261POPC   PO442612  11.267  24.525   5.853
 8261POPC   GL142613  11.321  24.514   6.153
 8261POPC   GL242614  11.271  24.360   6.153
 8261POPC   C1A42615  11.311  24.479   6.453
 8261POPC   D2A42616  11.308  24.492   6.753
 8261POPC   C3A42617  11.268  24.527   7.053
 8261POPC   C4A42618  11.294  24.452   7.353
 8261POPC   C1B42619  11.218  24.286   6.453
 8261POPC   C2B42620  11.229  24.237   6.753
 8261POPC   C3B42621  11.278  24.244   7.053
 8261POPC   C4B42622  11.222  24.265   7.353
 8262POPC   NC342623  32.290   9.018   5.553
 8262POPC   PO442624  32.294   9.022   5.853
 8262POPC   GL142625  32.216   8.966   6.153
 8262POPC   GL242626  32.295   8.821   6.153
 8262POPC   C1A42627  32.271   8.982   6.453
 8262POPC   D2A42628  32.209   8.935   6.753
 8262POPC   C3A42629  32.286   8.994   7.053
 8262POPC   C4A42630  32.242   8.982   7.353
 8262POPC   C1B42631  32.304   8.724   6.453
 8262POPC   C2B42632  32.304   8.716   6.753
 8262POPC   C3B42633  32.350   8.739   7.053
 8262POPC   C4B42634  32.338   8.729   7.353
 8263POPC   NC342635  18.235  43.891   5.553
 8263POPC   PO442636  18.302  43.930   5.853
 8263POPC   GL142637  18.280  43.868   6.153
 8263POPC   GL242638  18.354  43.781   6.153
 8263POPC   C1A42639  18.269  43.889   6.453
 8263POPC   D2A42640  18.304  43.868   6.753
 8263POPC   C3A42641  18.290  43.901   7.053
 8263POPC   C4A42642  18.267  43.912   7.353
 8263POPC   C1B42643  18.463  43.743   6.453
 8263POPC   C2B42644  18.408  43.671   6.753
 8263POPC   C3B42645  18.421  43.738   7.053
 8263POPC   C4B42646  18.408  43.719   7.353
 8264POPC   NC342647  32.296  28.387   5.553
 8264POPC   PO442648  32.234  28.330   5.853
 8264POPC   GL142649  32.279  28.357   6.153
 8264POPC   GL242650  32.168  28.394   6.153
 8264POPC   C1A42651  32.251  28.350   6.453
 8264POPC   D2A42652  32.290  28.389   6.753
 8264POPC   C3A42653  32.260  28.361   7.053
 8264POPC   C4A42654  32.275  28.380   7.353
 8264POPC   C1B42655  32.041  28.511   6.453
 8264POPC   C2B42656  31.998  28.499   6.753
 8264POPC   C3B42657  32.031  28.548   7.053
 8264POPC   C4B42658  32.087  28.532   7.353
 8265POPC   NC342659  19.049   4.326   5.553
 8265POPC   PO442660  19.051   4.346   5.853
 8265POPC   GL142661  19.025   4.367   6.153
 8265POPC   GL242662  19.079   4.464   6.153
 8265POPC   C1A42663  19.045   4.303   6.453
 8265POPC   D2A42664  19.086   4.274   6.753
 8265POPC   C3A42665  19.038   4.291   7.053
 8265POPC   C4A42666  19.043   4.336   7.353
 8265POPC   C1B42667  18.994   4.571   6.453
 8265POPC   C2B42668  18.991   4.547   6.753
 8265POPC   C3B42669  19.011   4.520   7.053
 8265POPC   C4B42670  19.004   4.543   7.353
 8266POPC   NC342671  22.134   9.701   5.553
 8266POPC   PO442672  22.126   9.737   5.853
 8266POPC   GL142673  22.168   9.725   6.153
 8266POPC   GL242674  22.087   9.659   6.153
 8266POPC   C1A42675  22.117   9.709   6.453
 8266POPC   D2A42676  22.141   9.795   6.753
 8266POPC   C3A42677  22.205   9.760   7.053
 8266POPC   C4A42678  22.121   9.789   7.353
 8266POPC   C1B42679  21.895   9.643   6.453
 8266POPC   C2B42680  21.940   9.671   6.753
 8266POPC   C3B42681  21.924   9.713   7.053
 8266POPC   C4B42682  21.880   9.681   7.353
 8267POPC   NC342683   8.198  44.649   5.553
 8267POPC   PO442684   8.233  44.673   5.853
 8267POPC   GL142685   8.174  44.698   6.153
 8267POPC   GL242686   8.069  44.788   6.153
 8267POPC   C1A42687   8.207  44.656   6.453
 8267POPC   D2A42688   8.234  44.673   6.753
 8267POPC   C3A42689   8.207  44.665   7.053
 8267POPC   C4A42690   8.158  44.642   7.353
 8267POPC   C1B42691   8.033  44.882   6.453
 8267POPC   C2B42692   8.053  44.852   6.753
 8267POPC   C3B42693   7.990  44.804   7.053
 8267POPC   C4B42694   8.028  44.842   7.353
 8268POPC   NC342695  37.707  41.550   5.553
 8268POPC   PO442696  37.687  41.540   5.853
 8268POPC   GL142697  37.660  41.552   6.153
 8268POPC   GL242698  37.599  41.631   6.153
 8268POPC   C1A42699  37.706  41.515   6.453
 8268POPC   D2A42700  37.650  41.573   6.753
 8268POPC   C3A42701  37.693  41.595   7.053
 8268POPC   C4A42702  37.706  41.585   7.353
 8268POPC   C1B42703  37.520  41.731   6.453
 8268POPC   C2B42704  37.483  41.750   6.753
 8268POPC   C3B42705  37.478  41.739   7.053
 8268POPC   C4B42706  37.475  41.780   7.353
 8269POPC   NC342707  38.419  35.372   5.553
 8269POPC   PO442708  38.415  35.374   5.853
 8269POPC   GL142709  38.433  35.372   6.153
 8269POPC   GL242710  38.549  35.209   6.153
 8269POPC   C1A42711  38.492  35.314   6.453
 8269POPC   D2A42712  38.418  35.307   6.753
 8269POPC   C3A42713  38.485  35.362   7.053
 8269POPC   C4A42714  38.408  35.377   7.353
 8269POPC   C1B42715  38.539  35.110   6.453
 8269POPC   C2B42716  38.579  35.082   6.753
 8269POPC   C3B42717  38.581  35.170   7.053
 8269POPC   C4B42718  38.605  35.124   7.353
 8270POPC   NC342719   4.324  42.322   5.553
 8270POPC   PO442720   4.330  42.358   5.853
 8270POPC   GL142721   4.365  42.330   6.153
 8270POPC   GL242722   4.442  42.403   6.153
 8270POPC   C1A42723   4.353  42.373   6.453
 8270POPC   D2A42724   4.355  42.380   6.753
 8270POPC   C3A42725   4.320  42.331   7.053
 8270POPC   C4A42726   4.338  42.358   7.353
 8270POPC   C1B42727   4.505  42.519   6.453
 8270POPC   C2B42728   4.454  42.534   6.753
 8270POPC   C3B42729   4.540  42.471   7.053
 8270POPC   C4B42730   4.456  42.517   7.353
 8271POPC   NC342731  11.312  27.597   5.553
 8271POPC   PO442732  11.252  27.589   5.853
 8271POPC   GL142733  11.280  27.576   6.153
 8271POPC   GL242734  11.378  27.542   6.153
 8271POPC   C1A42735  11.304  27.583   6.453
 8271POPC   D2A42736  11.291  27.620   6.753
 8271POPC   C3A42737  11.315  27.633   7.053
 8271POPC   C4A42738  11.350  27.578   7.353
 8271POPC   C1B42739  11.521  27.505   6.453
 8271POPC   C2B42740  11.556  27.600   6.753
 8271POPC   C3B42741  11.552  27.531   7.053
 8271POPC   C4B42742  11.572  27.522   7.353
 8272POPC   NC342743  33.065  21.406   5.553
 8272POPC   PO442744  33.020  21.403   5.853
 8272POPC   GL142745  33.071  21.396   6.153
 8272POPC   GL242746  32.971  21.505   6.153
 8272POPC   C1A42747  33.027  21.337   6.453
 8272POPC   D2A42748  33.009  21.417   6.753
 8272POPC   C3A42749  33.036  21.402   7.053
 8272POPC   C4A42750  33.022  21.436   7.353
 8272POPC   C1B42751  32.939  21.612   6.453
 8272POPC   C2B42752  33.000  21.578   6.753
 8272POPC   C3B42753  32.990  21.612   7.053
 8272POPC   C4B42754  32.916  21.668   7.353
 8273POPC   NC342755  26.811   3.495   5.553
 8273POPC   PO442756  26.854   3.501   5.853
 8273POPC   GL142757  26.808   3.512   6.153
 8273POPC   GL242758  26.762   3.667   6.153
 8273POPC   C1A42759  26.772   3.554   6.453
 8273POPC   D2A42760  26.777   3.549   6.753
 8273POPC   C3A42761  26.800   3.515   7.053
 8273POPC   C4A42762  26.784   3.566   7.353
 8273POPC   C1B42763  26.765   3.791   6.453
 8273POPC   C2B42764  26.772   3.752   6.753
 8273POPC   C3B42765  26.774   3.822   7.053
 8273POPC   C4B42766  26.752   3.813   7.353
 8274POPC   NC342767  37.724   3.544   5.553
 8274POPC   PO442768  37.690   3.557   5.853
 8274POPC   GL142769  37.674   3.559   6.153
 8274POPC   GL242770  37.693   3.392   6.153
 8274POPC   C1A42771  37.633   3.576   6.453
 8274POPC   D2A42772  37.644   3.527   6.753
 8274POPC   C3A42773  37.678   3.580   7.053
 8274POPC   C4A42774  37.701   3.539   7.353
 8274POPC   C1B42775  37.736   3.249   6.453
 8274POPC   C2B42776  37.642   3.268   6.753
 8274POPC   C3B42777  37.698   3.280   7.053
 8274POPC   C4B42778  37.655   3.293   7.353
 8275POPC   NC342779  29.944  43.846   5.553
 8275POPC   PO442780  29.963  43.857   5.853
 8275POPC   GL142781  29.920  43.855   6.153
 8275POPC   GL242782  29.795  43.793   6.153
 8275POPC   C1A42783  29.958  43.874   6.453
 8275POPC   D2A42784  29.899  43.928   6.753
 8275POPC   C3A42785  29.923  43.859   7.053
 8275POPC   C4A42786  29.960  43.895   7.353
 8275POPC   C1B42787  29.753  43.676   6.453
 8275POPC   C2B42788  29.731  43.710   6.753
 8275POPC   C3B42789  29.725  43.773   7.053
 8275POPC   C4B42790  29.741  43.734   7.353
 8276POPC   NC342791  21.370  12.879   5.553
 8276POPC   PO442792  21.425  12.898   5.853
 8276POPC   GL142793  21.386  12.867   6.153
 8276POPC   GL242794  21.353  12.691   6.153
 8276POPC   C1A42795  21.405  12.817   6.453
 8276POPC   D2A42796  21.413  12.900   6.753
 8276POPC   C3A42797  21.352  12.866   7.053
 8276POPC   C4A42798  21.397  12.821   7.353
 8276POPC   C1B42799  21.347  12.562   6.453
 8276POPC   C2B42800  21.310  12.633   6.753
 8276POPC   C3B42801  21.355  12.561   7.053
 8276POPC   C4B42802  21.302  12.612   7.353
 8277POPC   NC342803  42.335  31.505   5.553
 8277POPC   PO442804  42.326  31.519   5.853
 8277POPC   GL142805  42.346  31.471   6.153
 8277POPC   GL242806  42.288  31.531   6.153
 8277POPC   C1A42807  42.330  31.500   6.453
 8277POPC   D2A42808  42.368  31.435   6.753
 8277POPC   C3A42809  42.344  31.447   7.053
 8277POPC   C4A42810  42.353  31.480   7.353
 8277POPC   C1B42811  42.204  31.639   6.453
 8277POPC   C2B42812  42.207  31.709   6.753
 8277POPC   C3B42813  42.222  31.728   7.053
 8277POPC   C4B42814  42.235  31.647   7.353
 8278POPC   NC342815  18.248  37.658   5.553
 8278POPC   PO442816  18.254  37.691   5.853
 8278POPC   GL142817  18.293  37.718   6.153
 8278POPC   GL242818  18.144  37.588   6.153
 8278POPC   C1A42819  18.281  37.690   6.453
 8278POPC   D2A42820  18.314  37.660   6.753
 8278POPC   C3A42821  18.323  37.700   7.053
 8278POPC   C4A42822  18.235  37.678   7.353
 8278POPC   C1B42823  18.091  37.531   6.453
 8278POPC   C2B42824  18.028  37.571   6.753
 8278POPC   C3B42825  18.077  37.540   7.053
 8278POPC   C4B42826  18.090  37.563   7.353
 8279POPC   NC342827  12.116  39.191   5.553
 8279POPC   PO442828  12.058  39.268   5.853
 8279POPC   GL142829  12.122  39.197   6.153
 8279POPC   GL242830  12.130  39.098   6.153
 8279POPC   C1A42831  12.049  39.248   6.453
 8279POPC   D2A42832  12.113  39.278   6.753
 8279POPC   C3A42833  12.050  39.272   7.053
 8279POPC   C4A42834  12.057  39.227   7.353
 8279POPC   C1B42835  12.144  38.984   6.453
 8279POPC   C2B42836  12.181  38.974   6.753
 8279POPC   C3B42837  12.232  39.055   7.053
 8279POPC   C4B42838  12.181  38.985   7.353
 8280POPC   NC342839   0.422   5.889   5.553
 8280POPC   PO442840   0.389   5.896   5.853
 8280POPC   GL142841   0.390   5.849   6.153
 8280POPC   GL242842   0.516   5.808   6.153
 8280POPC   C1A42843   0.402   5.901   6.453
 8280POPC   D2A42844   0.418   5.859   6.753
 8280POPC   C3A42845   0.470   5.889   7.053
 8280POPC   C4A42846   0.468   5.824   7.353
 8280POPC   C1B42847   0.594   5.776   6.453
 8280POPC   C2B42848   0.648   5.695   6.753
 8280POPC   C3B42849   0.644   5.727   7.053
 8280POPC   C4B42850   0.623   5.709   7.353
 8281POPC   NC342851  22.958  24.492   5.553
 8281POPC   PO442852  22.965  24.443   5.853
 8281POPC   GL142853  22.956  24.537   6.153
 8281POPC   GL242854  22.988  24.658   6.153
 8281POPC   C1A42855  22.956  24.446   6.453
 8281POPC   D2A42856  22.898  24.490   6.753
 8281POPC   C3A42857  22.901  24.452   7.053
 8281POPC   C4A42858  22.896  24.522   7.353
 8281POPC   C1B42859  22.967  24.735   6.453
 8281POPC   C2B42860  22.962  24.738   6.753
 8281POPC   C3B42861  23.014  24.704   7.053
 8281POPC   C4B42862  22.984  24.688   7.353
 8282POPC   NC342863  42.286  34.536   5.553
 8282POPC   PO442864  42.336  34.562   5.853
 8282POPC   GL142865  42.326  34.543   6.153
 8282POPC   GL242866  42.381  34.730   6.153
 8282POPC   C1A42867  42.313  34.561   6.453
 8282POPC   D2A42868  42.296  34.556   6.753
 8282POPC   C3A42869  42.302  34.591   7.053
 8282POPC   C4A42870  42.344  34.585   7.353
 8282POPC   C1B42871  42.379  34.787   6.453
 8282POPC   C2B42872  42.385  34.778   6.753
 8282POPC   C3B42873  42.405  34.788   7.053
 8282POPC   C4B42874  42.368  34.801   7.353
 8283POPC   NC342875  10.490  34.617   5.553
 8283POPC   PO442876  10.535  34.528   5.853
 8283POPC   GL142877  10.482  34.533   6.153
 8283POPC   GL242878  10.545  34.492   6.153
 8283POPC   C1A42879  10.561  34.569   6.453
 8283POPC   D2A42880  10.567  34.587   6.753
 8283POPC   C3A42881  10.538  34.527   7.053
 8283POPC   C4A42882  10.484  34.535   7.353
 8283POPC   C1B42883  10.517  34.303   6.453
 8283POPC   C2B42884  10.456  34.376   6.753
 8283POPC   C3B42885  10.511  34.285   7.053
 8283POPC   C4B42886  10.485  34.370   7.353
 8284POPC   NC342887  34.574   8.177   5.553
 8284POPC   PO442888  34.547   8.186   5.853
 8284POPC   GL142889  34.552   8.178   6.153
 8284POPC   GL242890  34.665   8.133   6.153
 8284POPC   C1A42891  34.621   8.199   6.453
 8284POPC   D2A42892  34.557   8.166   6.753
 8284POPC   C3A42893  34.530   8.160   7.053
 8284POPC   C4A42894  34.606   8.153   7.353
 8284POPC   C1B42895  34.744   8.068   6.453
 8284POPC   C2B42896  34.744   8.028   6.753
 8284POPC   C3B42897  34.750   8.041   7.053
 8284POPC   C4B42898  34.713   8.026   7.353
 8285POPC   NC342899  19.077  19.076   5.553
 8285POPC   PO442900  19.028  19.031   5.853
 8285POPC   GL142901  19.013  19.079   6.153
 8285POPC   GL242902  19.008  19.107   6.153
 8285POPC   C1A42903  19.040  19.036   6.453
 8285POPC   D2A42904  19.071  19.065   6.753
 8285POPC   C3A42905  19.010  19.039   7.053
 8285POPC   C4A42906  19.076  19.070   7.353
 8285POPC   C1B42907  18.837  19.204   6.453
 8285POPC   C2B42908  18.897  19.197   6.753
 8285POPC   C3B42909  18.877  19.229   7.053
 8285POPC   C4B42910  18.888  19.203   7.353
 8286POPC   NC342911  38.480  22.123   5.553
 8286POPC   PO442912  38.430  22.199   5.853
 8286POPC   GL142913  38.470  22.173   6.153
 8286POPC   GL242914  38.557  22.303   6.153
 8286POPC   C1A42915  38.474  22.171   6.453
 8286POPC   D2A42916  38.438  22.119   6.753
 8286POPC   C3A42917  38.483  22.181   7.053
 8286POPC   C4A42918  38.486  22.143   7.353
 8286POPC   C1B42919  38.574  22.348   6.453
 8286POPC   C2B42920  38.602  22.338   6.753
 8286POPC   C3B42921  38.543  22.409   7.053
 8286POPC   C4B42922  38.583  22.384   7.353
 8287POPC   NC342923   4.285  37.664   5.553
 8287POPC   PO442924   4.338  37.719   5.853
 8287POPC   GL142925   4.315  37.693   6.153
 8287POPC   GL242926   4.293  37.525   6.153
 8287POPC   C1A42927   4.364  37.715   6.453
 8287POPC   D2A42928   4.326  37.723   6.753
 8287POPC   C3A42929   4.289  37.676   7.053
 8287POPC   C4A42930   4.326  37.648   7.353
 8287POPC   C1B42931   4.341  37.426   6.453
 8287POPC   C2B42932   4.341  37.474   6.753
 8287POPC   C3B42933   4.337  37.448   7.053
 8287POPC   C4B42934   4.333  37.460   7.353
 8288POPC   NC342935  43.074  23.670   5.553
 8288POPC   PO442936  43.072  23.696   5.853
 8288POPC   GL142937  43.107  23.759   6.153
 8288POPC   GL242938  43.143  23.858   6.153
 8288POPC   C1A42939  43.151  23.677   6.453
 8288POPC   D2A42940  43.143  23.716   6.753
 8288POPC   C3A42941  43.061  23.741   7.053
 8288POPC   C4A42942  43.133  23.736   7.353
 8288POPC   C1B42943  43.070  23.990   6.453
 8288POPC   C2B42944  43.065  23.926   6.753
 8288POPC   C3B42945  43.085  23.978   7.053
 8288POPC   C4B42946  43.098  23.978   7.353
 8289POPC   NC342947  22.908   4.346   5.553
 8289POPC   PO442948  22.900   4.348   5.853
 8289POPC   GL142949  22.945   4.340   6.153
 8289POPC   GL242950  23.080   4.306   6.153
 8289POPC   C1A42951  22.945   4.302   6.453
 8289POPC   D2A42952  22.985   4.318   6.753
 8289POPC   C3A42953  22.910   4.362   7.053
 8289POPC   C4A42954  22.987   4.328   7.353
 8289POPC   C1B42955  23.231   4.394   6.453
 8289POPC   C2B42956  23.170   4.388   6.753
 8289POPC   C3B42957  23.230   4.304   7.053
 8289POPC   C4B42958  23.206   4.340   7.353
 8290POPC   NC342959  36.171  22.115   5.553
 8290POPC   PO442960  36.167  22.175   5.853
 8290POPC   GL142961  36.137  22.165   6.153
 8290POPC   GL242962  36.092  22.256   6.153
 8290POPC   C1A42963  36.102  22.195   6.453
 8290POPC   D2A42964  36.116  22.162   6.753
 8290POPC   C3A42965  36.087  22.171   7.053
 8290POPC   C4A42966  36.087  22.170   7.353
 8290POPC   C1B42967  36.132  22.391   6.453
 8290POPC   C2B42968  36.068  22.376   6.753
 8290POPC   C3B42969  36.069  22.431   7.053
 8290POPC   C4B42970  36.091  22.386   7.353
 8291POPC   NC342971  19.059  12.854   5.553
 8291POPC   PO442972  19.034  12.885   5.853
 8291POPC   GL142973  19.092  12.839   6.153
 8291POPC   GL242974  19.116  12.918   6.153
 8291POPC   C1A42975  19.011  12.887   6.453
 8291POPC   D2A42976  19.082  12.832   6.753
 8291POPC   C3A42977  19.081  12.860   7.053
 8291POPC   C4A42978  19.081  12.823   7.353
 8291POPC   C1B42979  19.265  13.000   6.453
 8291POPC   C2B42980  19.264  13.002   6.753
 8291POPC   C3B42981  19.254  13.080   7.053
 8291POPC   C4B42982  19.239  13.055   7.353
 8292POPC   NC342983  15.998  43.080   5.553
 8292POPC   PO442984  15.959  43.134   5.853
 8292POPC   GL142985  15.962  43.155   6.153
 8292POPC   GL242986  15.908  43.220   6.153
 8292POPC   C1A42987  15.914  43.157   6.453
 8292POPC   D2A42988  15.918  43.106   6.753
 8292POPC   C3A42989  15.907  43.126   7.053
 8292POPC   C4A42990  15.915  43.063   7.353
 8292POPC   C1B42991  15.798  43.288   6.453
 8292POPC   C2B42992  15.814  43.367   6.753
 8292POPC   C3B42993  15.843  43.352   7.053
 8292POPC   C4B42994  15.827  43.305   7.353
 8293POPC   NC342995   1.248   2.002   5.553
 8293POPC   PO442996   1.202   2.038   5.853
 8293POPC   GL142997   1.176   1.946   6.153
 8293POPC   GL242998   1.252   1.885   6.153
 8293POPC   C1A42999   1.229   2.005   6.453
 8293POPC   D2A43000   1.263   1.945   6.753
 8293POPC   C3A43001   1.199   1.967   7.053
 8293POPC   C4A43002   1.168   1.974   7.353
 8293POPC   C1B43003   1.243   1.697   6.453
 8293POPC   C2B43004   1.244   1.720   6.753
 8293POPC   C3B43005   1.229   1.775   7.053
 8293POPC   C4B43006   1.195   1.696   7.353
 8294POPC   NC343007   4.329  15.170   5.553
 8294POPC   PO443008   4.340  15.134   5.853
 8294POPC   GL143009   4.339  15.215   6.153
 8294POPC   GL243010   4.280  15.291   6.153
 8294POPC   C1A43011   4.283  15.198   6.453
 8294POPC   D2A43012   4.340  15.136   6.753
 8294POPC   C3A43013   4.364  15.227   7.053
 8294POPC   C4A43014   4.338  15.151   7.353
 8294POPC   C1B43015   4.227  15.431   6.453
 8294POPC   C2B43016   4.216  15.442   6.753
 8294POPC   C3B43017   4.203  15.411   7.053
 8294POPC   C4B43018   4.184  15.371   7.353
 8295POPC   NC343019  30.680  35.397   5.553
 8295POPC   PO443020  30.743  35.321   5.853
 8295POPC   GL143021  30.701  35.388   6.153
 8295POPC   GL243022  30.691  35.514   6.153
 8295POPC   C1A43023  30.671  35.397   6.453
 8295POPC   D2A43024  30.692  35.386   6.753
 8295POPC   C3A43025  30.702  35.332   7.053
 8295POPC   C4A43026  30.740  35.348   7.353
 8295POPC   C1B43027  30.684  35.567   6.453
 8295POPC   C2B43028  30.640  35.602   6.753
 8295POPC   C3B43029  30.652  35.598   7.053
 8295POPC   C4B43030  30.687  35.611   7.353
 8296POPC   NC343031  14.432  19.874   5.553
 8296POPC   PO443032  14.413  19.788   5.853
 8296POPC   GL143033  14.451  19.881   6.153
 8296POPC   GL243034  14.297  19.765   6.153
 8296POPC   C1A43035  14.354  19.852   6.453
 8296POPC   D2A43036  14.431  19.862   6.753
 8296POPC   C3A43037  14.380  19.873   7.053
 8296POPC   C4A43038  14.400  19.853   7.353
 8296POPC   C1B43039  14.275  19.684   6.453
 8296POPC   C2B43040  14.219  19.658   6.753
 8296POPC   C3B43041  14.278  19.591   7.053
 8296POPC   C4B43042  14.266  19.664   7.353
 8297POPC   NC343043   2.719  19.085   5.553
 8297POPC   PO443044   2.729  19.082   5.853
 8297POPC   GL143045   2.765  19.090   6.153
 8297POPC   GL243046   2.842  18.962   6.153
 8297POPC   C1A43047   2.806  19.088   6.453
 8297POPC   D2A43048   2.775  19.071   6.753
 8297POPC   C3A43049   2.740  19.010   7.053
 8297POPC   C4A43050   2.749  19.057   7.353
 8297POPC   C1B43051   2.980  18.948   6.453
 8297POPC   C2B43052   2.992  18.875   6.753
 8297POPC   C3B43053   3.006  18.877   7.053
 8297POPC   C4B43054   2.992  18.877   7.353
 8298POPC   NC343055  22.154  19.846   5.553
 8298POPC   PO443056  22.116  19.786   5.853
 8298POPC   GL143057  22.116  19.862   6.153
 8298POPC   GL243058  22.088  19.885   6.153
 8298POPC   C1A43059  22.138  19.816   6.453
 8298POPC   D2A43060  22.199  19.830   6.753
 8298POPC   C3A43061  22.129  19.821   7.053
 8298POPC   C4A43062  22.196  19.811   7.353
 8298POPC   C1B43063  21.985  19.950   6.453
 8298POPC   C2B43064  21.950  19.976   6.753
 8298POPC   C3B43065  21.916  19.990   7.053
 8298POPC   C4B43066  21.933  19.962   7.353
 8299POPC   NC343067  17.518  13.580   5.553
 8299POPC   PO443068  17.530  13.581   5.853
 8299POPC   GL143069  17.506  13.667   6.153
 8299POPC   GL243070  17.606  13.566   6.153
 8299POPC   C1A43071  17.540  13.618   6.453
 8299POPC   D2A43072  17.462  13.595   6.753
 8299POPC   C3A43073  17.508  13.620   7.053
 8299POPC   C4A43074  17.524  13.590   7.353
 8299POPC   C1B43075  17.705  13.439   6.453
 8299POPC   C2B43076  17.639  13.420   6.753
 8299POPC   C3B43077  17.717  13.441   7.053
 8299POPC   C4B43078  17.677  13.430   7.353
 8300POPC   NC343079  11.313  38.471   5.553
 8300POPC   PO443080  11.333  38.433   5.853
 8300POPC   GL143081  11.253  38.456   6.153
 8300POPC   GL243082  11.398  38.536   6.153
 8300POPC   C1A43083  11.346  38.430   6.453
 8300POPC   D2A43084  11.302  38.505   6.753
 8300POPC   C3A43085  11.302  38.412   7.053
 8300POPC   C4A43086  11.301  38.474   7.353
 8300POPC   C1B43087  11.544  38.603   6.453
 8300POPC   C2B43088  11.504  38.551   6.753
 8300POPC   C3B43089  11.554  38.574   7.053
 8300POPC   C4B43090  11.523  38.622   7.353
 8301POPC   NC343091  43.151  21.340   5.553
 8301POPC   PO443092  43.108  21.430   5.853
 8301POPC   GL143093  43.123  21.372   6.153
 8301POPC   GL243094  43.116  21.320   6.153
 8301POPC   C1A43095  43.128  21.386   6.453
 8301POPC   D2A43096  43.065  21.404   6.753
 8301POPC   C3A43097  43.114  21.419   7.053
 8301POPC   C4A43098  43.125  21.389   7.353
 8301POPC   C1B43099  43.174  21.202   6.453
 8301POPC   C2B43100  43.251  21.180   6.753
 8301POPC   C3B43101  43.187  21.188   7.053
 8301POPC   C4B43102  43.247  21.124   7.353
 8302POPC   NC343103   2.808   2.801   5.553
 8302POPC   PO443104   2.809   2.812   5.853
 8302POPC   GL143105   2.759   2.815   6.153
 8302POPC   GL243106   2.846   2.686   6.153
 8302POPC   C1A43107   2.790   2.752   6.453
 8302POPC   D2A43108   2.754   2.807   6.753
 8302POPC   C3A43109   2.739   2.781   7.053
 8302POPC   C4A43110   2.815   2.718   7.353
 8302POPC   C1B43111   2.821   2.535   6.453
 8302POPC   C2B43112   2.845   2.484   6.753
 8302POPC   C3B43113   2.809   2.546   7.053
 8302POPC   C4B43114   2.845   2.561   7.353
 8303POPC   NC343115  24.496  24.480   5.553
 8303POPC   PO443116  24.453  24.514   5.853
 8303POPC   GL143117  24.443  24.501   6.153
 8303POPC   GL243118  24.367  24.477   6.153
 8303POPC   C1A43119  24.445  24.486   6.453
 8303POPC   D2A43120  24.524  24.522   6.753
 8303POPC   C3A43121  24.501  24.446   7.053
 8303POPC   C4A43122  24.453  24.519   7.353
 8303POPC   C1B43123  24.267  24.409   6.453
 8303POPC   C2B43124  24.272  24.407   6.753
 8303POPC   C3B43125  24.280  24.459   7.053
 8303POPC   C4B43126  24.198  24.454   7.353
 8304POPC   NC343127  43.072  11.311   5.553
 8304POPC   PO443128  43.089  11.280   5.853
 8304POPC   GL143129  43.103  11.252   6.153
 8304POPC   GL243130  43.069  11.402   6.153
 8304POPC   C1A43131  43.113  11.263   6.453
 8304POPC   D2A43132  43.095  11.303   6.753
 8304POPC   C3A43133  43.085  11.301   7.053
 8304POPC   C4A43134  43.091  11.333   7.353
 8304POPC   C1B43135  42.964  11.453   6.453
 8304POPC   C2B43136  42.935  11.479   6.753
 8304POPC   C3B43137  42.914  11.453   7.053
 8304POPC   C4B43138  42.976  11.502   7.353
 8305POPC   NC343139  43.107   5.058   5.553
 8305POPC   PO443140  43.118   5.061   5.853
 8305POPC   GL143141  43.135   5.045   6.153
 8305POPC   GL243142  43.240   5.163   6.153
 8305POPC   C1A43143  43.086   5.058   6.453
 8305POPC   D2A43144  43.102   5.134   6.753
 8305POPC   C3A43145  43.069   5.131   7.053
 8305POPC   C4A43146  43.141   5.066   7.353
 8305POPC   C1B43147  43.369   5.240   6.453
 8305POPC   C2B43148  43.298   5.171   6.753
 8305POPC   C3B43149  43.300   5.234   7.053
 8305POPC   C4B43150  43.354   5.203   7.353
 8306POPC   NC343151  14.367  15.137   5.553
 8306POPC   PO443152  14.409  15.210   5.853
 8306POPC   GL143153  14.368  15.132   6.153
 8306POPC   GL243154  14.381  15.316   6.153
 8306POPC   C1A43155  14.361  15.225   6.453
 8306POPC   D2A43156  14.413  15.202   6.753
 8306POPC   C3A43157  14.373  15.132   7.053
 8306POPC   C4A43158  14.438  15.143   7.353
 8306POPC   C1B43159  14.302  15.399   6.453
 8306POPC   C2B43160  14.340  15.415   6.753
 8306POPC   C3B43161  14.287  15.382   7.053
 8306POPC   C4B43162  14.280  15.372   7.353
 8307POPC   NC343163  19.837   1.195   5.553
 8307POPC   PO443164  19.878   1.179   5.853
 8307POPC   GL143165  19.853   1.216   6.153
 8307POPC   GL243166  19.807   1.330   6.153
 8307POPC   C1A43167  19.844   1.205   6.453
 8307POPC   D2A43168  19.873   1.212   6.753
 8307POPC   C3A43169  19.815   1.215   7.053
 8307POPC   C4A43170  19.807   1.208   7.353
 8307POPC   C1B43171  19.745   1.497   6.453
 8307POPC   C2B43172  19.750   1.430   6.753
 8307POPC   C3B43173  19.730   1.405   7.053
 8307POPC   C4B43174  19.790   1.467   7.353
 8308POPC   NC343175  22.888  35.314   5.553
 8308POPC   PO443176  22.892  35.390   5.853
 8308POPC   GL143177  22.911  35.332   6.153
 8308POPC   GL243178  22.815  35.328   6.153
 8308POPC   C1A43179  22.987  35.313   6.453
 8308POPC   D2A43180  22.970  35.347   6.753
 8308POPC   C3A43181  22.935  35.324   7.053
 8308POPC   C4A43182  22.897  35.344   7.353
 8308POPC   C1B43183  22.650  35.418   6.453
 8308POPC   C2B43184  22.675  35.397   6.753
 8308POPC   C3B43185  22.698  35.416   7.053
 8308POPC   C4B43186  22.716  35.379   7.353
 8309POPC   NC343187  44.618  37.712   5.553
 8309POPC   PO443188  44.659  37.699   5.853
 8309POPC   GL143189  44.641  37.721   6.153
 8309POPC   GL243190  44.639  37.586   6.153
 8309POPC   C1A43191  44.707  37.632   6.453
 8309POPC   D2A43192  44.660  37.719   6.753
 8309POPC   C3A43193  44.697  37.652   7.053
 8309POPC   C4A43194  44.645  37.679   7.353
 8309POPC   C1B43195  44.706  37.440   6.453
 8309POPC   C2B43196  44.628  37.436   6.753
 8309POPC   C3B43197  44.629  37.454   7.053
 8309POPC   C4B43198  44.647  37.441   7.353
 8310POPC   NC343199  29.136  41.535   5.553
 8310POPC   PO443200  29.097  41.527   5.853
 8310POPC   GL143201  29.132  41.526   6.153
 8310POPC   GL243202  29.307  41.624   6.153
 8310POPC   C1A43203  29.173  41.528   6.453
 8310POPC   D2A43204  29.171  41.572   6.753
 8310POPC   C3A43205  29.097  41.545   7.053
 8310POPC   C4A43206  29.116  41.553   7.353
 8310POPC   C1B43207  29.443  41.569   6.453
 8310POPC   C2B43208  29.367  41.547   6.753
 8310POPC   C3B43209  29.426  41.570   7.053
 8310POPC   C4B43210  29.435  41.549   7.353
 8311POPC   NC343211  20.602  22.207   5.553
 8311POPC   PO443212  20.584  22.184   5.853
 8311POPC   GL143213  20.590  22.145   6.153
 8311POPC   GL243214  20.592  22.080   6.153
 8311POPC   C1A43215  20.587  22.112   6.453
 8311POPC   D2A43216  20.635  22.157   6.753
 8311POPC   C3A43217  20.623  22.133   7.053
 8311POPC   C4A43218  20.580  22.208   7.353
 8311POPC   C1B43219  20.525  21.918   6.453
 8311POPC   C2B43220  20.593  21.884   6.753
 8311POPC   C3B43221  20.549  21.936   7.053
 8311POPC   C4B43222  20.553  21.908   7.353
 8312POPC   NC343223  29.111  35.327   5.553
 8312POPC   PO443224  29.137  35.334   5.853
 8312POPC   GL143225  29.124  35.359   6.153
 8312POPC   GL243226  29.122  35.459   6.153
 8312POPC   C1A43227  29.162  35.323   6.453
 8312POPC   D2A43228  29.158  35.346   6.753
 8312POPC   C3A43229  29.172  35.306   7.053
 8312POPC   C4A43230  29.188  35.303   7.353
 8312POPC   C1B43231  29.235  35.625   6.453
 8312POPC   C2B43232  29.210  35.602   6.753
 8312POPC   C3B43233  29.144  35.619   7.053
 8312POPC   C4B43234  29.210  35.572   7.353
 8313POPC   NC343235  24.510  16.723   5.553
 8313POPC   PO443236  24.500  16.741   5.853
 8313POPC   GL143237  24.460  16.734   6.153
 8313POPC   GL243238  24.347  16.757   6.153
 8313POPC   C1A43239  24.468  16.775   6.453
 8313POPC   D2A43240  24.447  16.697   6.753
 8313POPC   C3A43241  24.533  16.720   7.053
 8313POPC   C4A43242  24.460  16.733   7.353
 8313POPC   C1B43243  24.288  16.831   6.453
 8313POPC   C2B43244  24.248  16.816   6.753
 8313POPC   C3B43245  24.293  16.824   7.053
 8313POPC   C4B43246  24.233  16.827   7.353
 8314POPC   NC343247  33.763  20.605   5.553
 8314POPC   PO443248  33.756  20.589   5.853
 8314POPC   GL143249  33.789  20.653   6.153
 8314POPC   GL243250  33.801  20.762   6.153
 8314POPC   C1A43251  33.763  20.582   6.453
 8314POPC   D2A43252  33.759  20.586   6.753
 8314POPC   C3A43253  33.756  20.581   7.053
 8314POPC   C4A43254  33.778  20.567   7.353
 8314POPC   C1B43255  33.890  20.877   6.453
 8314POPC   C2B43256  33.858  20.854   6.753
 8314POPC   C3B43257  33.884  20.823   7.053
 8314POPC   C4B43258  33.853  20.855   7.353
 8315POPC   NC343259  24.514  40.824   5.553
 8315POPC   PO443260  24.454  40.812   5.853
 8315POPC   GL143261  24.507  40.746   6.153
 8315POPC   GL243262  24.395  40.792   6.153
 8315POPC   C1A43263  24.458  40.801   6.453
 8315POPC   D2A43264  24.490  40.784   6.753
 8315POPC   C3A43265  24.488  40.783   7.053
 8315POPC   C4A43266  24.488  40.811   7.353
 8315POPC   C1B43267  24.220  40.855   6.453
 8315POPC   C2B43268  24.227  40.778   6.753
 8315POPC   C3B43269  24.213  40.835   7.053
 8315POPC   C4B43270  24.266  40.826   7.353
 8316POPC   NC343271  41.541  33.794   5.553
 8316POPC   PO443272  41.521  33.832   5.853
 8316POPC   GL143273  41.575  33.819   6.153
 8316POPC   GL243274  41.428  33.731   6.153
 8316POPC   C1A43275  41.564  33.833   6.453
 8316POPC   D2A43276  41.586  33.815   6.753
 8316POPC   C3A43277  41.539  33.757   7.053
 8316POPC   C4A43278  41.562  33.794   7.353
 8316POPC   C1B43279  41.352  33.608   6.453
 8316POPC   C2B43280  41.421  33.628   6.753
 8316POPC   C3B43281  41.415  33.616   7.053
 8316POPC   C4B43282  41.398  33.635   7.353
 8317POPC   NC343283  17.495  32.987   5.553
 8317POPC   PO443284  17.540  33.032   5.853
 8317POPC   GL143285  17.470  32.990   6.153
 8317POPC   GL243286  17.428  32.936   6.153
 8317POPC   C1A43287  17.486  33.055   6.453
 8317POPC   D2A43288  17.526  33.062   6.753
 8317POPC   C3A43289  17.495  33.059   7.053
 8317POPC   C4A43290  17.548  33.073   7.353
 8317POPC   C1B43291  17.363  32.759   6.453
 8317POPC   C2B43292  17.417  32.830   6.753
 8317POPC   C3B43293  17.421  32.786   7.053
 8317POPC   C4B43294  17.399  32.819   7.353
 8318POPC   NC343295  24.468  10.486   5.553
 8318POPC   PO443296  24.480  10.552   5.853
 8318POPC   GL143297  24.466  10.508   6.153
 8318POPC   GL243298  24.521  10.645   6.153
 8318POPC   C1A43299  24.539  10.523   6.453
 8318POPC   D2A43300  24.475  10.484   6.753
 8318POPC   C3A43301  24.506  10.491   7.053
 8318POPC   C4A43302  24.462  10.521   7.353
 8318POPC   C1B43303  24.536  10.732   6.453
 8318POPC   C2B43304  24.552  10.742   6.753
 8318POPC   C3B43305  24.520  10.730   7.053
 8318POPC   C4B43306  24.498  10.740   7.353
 8319POPC   NC343307  31.498  40.026   5.553
 8319POPC   PO443308  31.465  39.984   5.853
 8319POPC   GL143309  31.441  40.018   6.153
 8319POPC   GL243310  31.423  40.140   6.153
 8319POPC   C1A43311  31.456  40.055   6.453
 8319POPC   D2A43312  31.465  40.016   6.753
 8319POPC   C3A43313  31.466  39.965   7.053
 8319POPC   C4A43314  31.487  39.993   7.353
 8319POPC   C1B43315  31.319  40.182   6.453
 8319POPC   C2B43316  31.368  40.174   6.753
 8319POPC   C3B43317  31.309  40.253   7.053
 8319POPC   C4B43318  31.295  40.200   7.353
 8320POPC   NC343319  27.576  12.891   5.553
 8320POPC   PO443320  27.603  12.885   5.853
 8320POPC   GL143321  27.580  12.833   6.153
 8320POPC   GL243322  27.735  12.811   6.153
 8320POPC   C1A43323  27.611  12.885   6.453
 8320POPC   D2A43324  27.626  12.818   6.753
 8320POPC   C3A43325  27.555  12.844   7.053
 8320POPC   C4A43326  27.613  12.866   7.353
 8320POPC   C1B43327  27.893  12.818   6.453
 8320POPC   C2B43328  27.814  12.885   6.753
 8320POPC   C3B43329  27.802  12.903   7.053
 8320POPC   C4B43330  27.852  12.819   7.353
 8321POPC   NC343331  27.572  40.740   5.553
 8321POPC   PO443332  27.619  40.761   5.853
 8321POPC   GL143333  27.603  40.752   6.153
 8321POPC   GL243334  27.431  40.794   6.153
 8321POPC   C1A43335  27.609  40.826   6.453
 8321POPC   D2A43336  27.579  40.813   6.753
 8321POPC   C3A43337  27.630  40.815   7.053
 8321POPC   C4A43338  27.611  40.817   7.353
 8321POPC   C1B43339  27.340  40.791   6.453
 8321POPC   C2B43340  27.395  40.824   6.753
 8321POPC   C3B43341  27.358  40.814   7.053
 8321POPC   C4B43342  27.312  40.855   7.353
 8322POPC   NC343343  26.004  26.856   5.553
 8322POPC   PO443344  26.037  26.824   5.853
 8322POPC   GL143345  25.999  26.781   6.153
 8322POPC   GL243346  26.071  26.728   6.153
 8322POPC   C1A43347  25.995  26.785   6.453
 8322POPC   D2A43348  26.068  26.829   6.753
 8322POPC   C3A43349  26.000  26.862   7.053
 8322POPC   C4A43350  26.068  26.864   7.353
 8322POPC   C1B43351  26.203  26.615   6.453
 8322POPC   C2B43352  26.128  26.603   6.753
 8322POPC   C3B43353  26.208  26.630   7.053
 8322POPC   C4B43354  26.197  26.630   7.353
 8323POPC   NC343355  43.908  26.854   5.553
 8323POPC   PO443356  43.858  26.823   5.853
 8323POPC   GL143357  43.866  26.812   6.153
 8323POPC   GL243358  43.848  26.707   6.153
 8323POPC   C1A43359  43.916  26.806   6.453
 8323POPC   D2A43360  43.916  26.832   6.753
 8323POPC   C3A43361  43.923  26.825   7.053
 8323POPC   C4A43362  43.881  26.859   7.353
 8323POPC   C1B43363  43.782  26.585   6.453
 8323POPC   C2B43364  43.866  26.525   6.753
 8323POPC   C3B43365  43.813  26.574   7.053
 8323POPC   C4B43366  43.785  26.535   7.353
 8324POPC   NC343367  17.528  42.307   5.553
 8324POPC   PO443368  17.536  42.348   5.853
 8324POPC   GL143369  17.515  42.299   6.153
 8324POPC   GL243370  17.577  42.260   6.153
 8324POPC   C1A43371  17.463  42.357   6.453
 8324POPC   D2A43372  17.504  42.307   6.753
 8324POPC   C3A43373  17.518  42.349   7.053
 8324POPC   C4A43374  17.508  42.319   7.353
 8324POPC   C1B43375  17.540  42.074   6.453
 8324POPC   C2B43376  17.541  42.116   6.753
 8324POPC   C3B43377  17.558  42.063   7.053
 8324POPC   C4B43378  17.606  42.091   7.353
 8325POPC   NC343379   0.440  12.841   5.553
 8325POPC   PO443380   0.405  12.893   5.853
 8325POPC   GL143381   0.479  12.833   6.153
 8325POPC   GL243382   0.470  12.994   6.153
 8325POPC   C1A43383   0.435  12.873   6.453
 8325POPC   D2A43384   0.486  12.894   6.753
 8325POPC   C3A43385   0.389  12.895   7.053
 8325POPC   C4A43386   0.418  12.811   7.353
 8325POPC   C1B43387   0.482  13.099   6.453
 8325POPC   C2B43388   0.494  13.118   6.753
 8325POPC   C3B43389   0.523  13.102   7.053
 8325POPC   C4B43390   0.450  13.105   7.353
 8326POPC   NC343391  36.094  21.403   5.553
 8326POPC   PO443392  36.150  21.432   5.853
 8326POPC   GL143393  36.176  21.354   6.153
 8326POPC   GL243394  36.213  21.305   6.153
 8326POPC   C1A43395  36.078  21.359   6.453
 8326POPC   D2A43396  36.145  21.397   6.753
 8326POPC   C3A43397  36.160  21.351   7.053
 8326POPC   C4A43398  36.133  21.361   7.353
 8326POPC   C1B43399  36.367  21.255   6.453
 8326POPC   C2B43400  36.335  21.278   6.753
 8326POPC   C3B43401  36.395  21.288   7.053
 8326POPC   C4B43402  36.373  21.293   7.353
 8327POPC   NC343403  28.409  38.481   5.553
 8327POPC   PO443404  28.354  38.467   5.853
 8327POPC   GL143405  28.344  38.490   6.153
 8327POPC   GL243406  28.241  38.545   6.153
 8327POPC   C1A43407  28.417  38.446   6.453
 8327POPC   D2A43408  28.331  38.484   6.753
 8327POPC   C3A43409  28.335  38.441   7.053
 8327POPC   C4A43410  28.358  38.501   7.353
 8327POPC   C1B43411  28.201  38.598   6.453
 8327POPC   C2B43412  28.202  38.661   6.753
 8327POPC   C3B43413  28.182  38.620   7.053
 8327POPC   C4B43414  28.228  38.576   7.353
 8328POPC   NC343415  32.992  34.612   5.553
 8328POPC   PO443416  33.017  34.607   5.853
 8328POPC   GL143417  33.072  34.610   6.153
 8328POPC   GL243418  33.132  34.538   6.153
 8328POPC   C1A43419  32.979  34.599   6.453
 8328POPC   D2A43420  33.069  34.621   6.753
 8328POPC   C3A43421  33.014  34.551   7.053
 8328POPC   C4A43422  33.066  34.582   7.353
 8328POPC   C1B43423  33.258  34.534   6.453
 8328POPC   C2B43424  33.244  34.535   6.753
 8328POPC   C3B43425  33.244  34.549   7.053
 8328POPC   C4B43426  33.253  34.567   7.353
 8329POPC   NC343427  37.639  43.099   5.553
 8329POPC   PO443428  37.689  43.096   5.853
 8329POPC   GL143429  37.669  43.078   6.153
 8329POPC   GL243430  37.698  43.025   6.153
 8329POPC   C1A43431  37.708  43.096   6.453
 8329POPC   D2A43432  37.710  43.146   6.753
 8329POPC   C3A43433  37.648  43.141   7.053
 8329POPC   C4A43434  37.645  43.120   7.353
 8329POPC   C1B43435  37.675  42.843   6.453
 8329POPC   C2B43436  37.702  42.871   6.753
 8329POPC   C3B43437  37.736  42.862   7.053
 8329POPC   C4B43438  37.672  42.873   7.353
 8330POPC   NC343439  34.567  19.873   5.553
 8330POPC   PO443440  34.604  19.832   5.853
 8330POPC   GL143441  34.610  19.789   6.153
 8330POPC   GL243442  34.718  19.775   6.153
 8330POPC   C1A43443  34.619  19.860   6.453
 8330POPC   D2A43444  34.542  19.821   6.753
 8330POPC   C3A43445  34.540  19.868   7.053
 8330POPC   C4A43446  34.598  19.839   7.353
 8330POPC   C1B43447  34.801  19.811   6.453
 8330POPC   C2B43448  34.821  19.783   6.753
 8330POPC   C3B43449  34.832  19.837   7.053
 8330POPC   C4B43450  34.785  19.756   7.353
 8331POPC   NC343451  14.364  16.765   5.553
 8331POPC   PO443452  14.415  16.734   5.853
 8331POPC   GL143453  14.373  16.742   6.153
 8331POPC   GL243454  14.476  16.820   6.153
 8331POPC   C1A43455  14.366  16.758   6.453
 8331POPC   D2A43456  14.429  16.775   6.753
 8331POPC   C3A43457  14.435  16.740   7.053
 8331POPC   C4A43458  14.395  16.738   7.353
 8331POPC   C1B43459  14.653  16.791   6.453
 8331POPC   C2B43460  14.638  16.813   6.753
 8331POPC   C3B43461  14.638  16.810   7.053
 8331POPC   C4B43462  14.676  16.846   7.353
 8332POPC   NC343463  10.565  27.606   5.553
 8332POPC   PO443464  10.522  27.584   5.853
 8332POPC   GL143465  10.558  27.580   6.153
 8332POPC   GL243466  10.398  27.494   6.153
 8332POPC   C1A43467  10.475  27.580   6.453
 8332POPC   D2A43468  10.478  27.562   6.753
 8332POPC   C3A43469  10.537  27.583   7.053
 8332POPC   C4A43470  10.553  27.623   7.353
 8332POPC   C1B43471  10.364  27.361   6.453
 8332POPC   C2B43472  10.374  27.372   6.753
 8332POPC   C3B43473  10.380  27.376   7.053
 8332POPC   C4B43474  10.408  27.394   7.353
 8333POPC   NC343475  42.364   9.739   5.553
 8333POPC   PO443476  42.335   9.729   5.853
 8333POPC   GL143477  42.346   9.752   6.153
 8333POPC   GL243478  42.225   9.630   6.153
 8333POPC   C1A43479  42.372   9.737   6.453
 8333POPC   D2A43480  42.354   9.748   6.753
 8333POPC   C3A43481  42.288   9.740   7.053
 8333POPC   C4A43482  42.347   9.720   7.353
 8333POPC   C1B43483  42.174   9.575   6.453
 8333POPC   C2B43484  42.174   9.586   6.753
 8333POPC   C3B43485  42.201   9.498   7.053
 8333POPC   C4B43486  42.200   9.499   7.353
 8334POPC   NC343487   5.128  18.263   5.553
 8334POPC   PO443488   5.072  18.325   5.853
 8334POPC   GL143489   5.104  18.316   6.153
 8334POPC   GL243490   5.058  18.167   6.153
 8334POPC   C1A43491   5.072  18.283   6.453
 8334POPC   D2A43492   5.067  18.330   6.753
 8334POPC   C3A43493   5.049  18.328   7.053
 8334POPC   C4A43494   5.073  18.312   7.353
 8334POPC   C1B43495   5.120  18.057   6.453
 8334POPC   C2B43496   5.150  18.074   6.753
 8334POPC   C3B43497   5.082  18.058   7.053
 8334POPC   C4B43498   5.170  18.047   7.353
 8335POPC   NC343499  25.245  17.473   5.553
 8335POPC   PO443500  25.284  17.544   5.853
 8335POPC   GL143501  25.249  17.504   6.153
 8335POPC   GL243502  25.178  17.529   6.153
 8335POPC   C1A43503  25.239  17.477   6.453
 8335POPC   D2A43504  25.289  17.517   6.753
 8335POPC   C3A43505  25.300  17.488   7.053
 8335POPC   C4A43506  25.253  17.503   7.353
 8335POPC   C1B43507  25.070  17.688   6.453
 8335POPC   C2B43508  25.081  17.668   6.753
 8335POPC   C3B43509  25.025  17.687   7.053
 8335POPC   C4B43510  25.075  17.623   7.353
 8336POPC   NC343511  29.952  19.819   5.553
 8336POPC   PO443512  29.956  19.803   5.853
 8336POPC   GL143513  29.953  19.838   6.153
 8336POPC   GL243514  29.881  19.749   6.153
 8336POPC   C1A43515  29.876  19.823   6.453
 8336POPC   D2A43516  29.878  19.837   6.753
 8336POPC   C3A43517  29.937  19.838   7.053
 8336POPC   C4A43518  29.950  19.791   7.353
 8336POPC   C1B43519  29.787  19.583   6.453
 8336POPC   C2B43520  29.818  19.640   6.753
 8336POPC   C3B43521  29.749  19.654   7.053
 8336POPC   C4B43522  29.840  19.609   7.353
 8337POPC   NC343523  37.719   5.045   5.553
 8337POPC   PO443524  37.653   5.057   5.853
 8337POPC   GL143525  37.691   5.084   6.153
 8337POPC   GL243526  37.764   4.961   6.153
 8337POPC   C1A43527  37.676   5.119   6.453
 8337POPC   D2A43528  37.649   5.049   6.753
 8337POPC   C3A43529  37.638   5.045   7.053
 8337POPC   C4A43530  37.703   5.127   7.353
 8337POPC   C1B43531  37.768   4.861   6.453
 8337POPC   C2B43532  37.772   4.831   6.753
 8337POPC   C3B43533  37.800   4.872   7.053
 8337POPC   C4B43534  37.828   4.877   7.353
 8338POPC   NC343535  37.633  21.425   5.553
 8338POPC   PO443536  37.671  21.338   5.853
 8338POPC   GL143537  37.669  21.413   6.153
 8338POPC   GL243538  37.573  21.444   6.153
 8338POPC   C1A43539  37.680  21.370   6.453
 8338POPC   D2A43540  37.672  21.381   6.753
 8338POPC   C3A43541  37.714  21.384   7.053
 8338POPC   C4A43542  37.658  21.386   7.353
 8338POPC   C1B43543  37.487  21.456   6.453
 8338POPC   C2B43544  37.438  21.433   6.753
 8338POPC   C3B43545  37.430  21.465   7.053
 8338POPC   C4B43546  37.457  21.461   7.353
 8339POPC   NC343547  27.572  35.353   5.553
 8339POPC   PO443548  27.595  35.371   5.853
 8339POPC   GL143549  27.561  35.316   6.153
 8339POPC   GL243550  27.447  35.324   6.153
 8339POPC   C1A43551  27.597  35.306   6.453
 8339POPC   D2A43552  27.605  35.360   6.753
 8339POPC   C3A43553  27.610  35.317   7.053
 8339POPC   C4A43554  27.593  35.349   7.353
 8339POPC   C1B43555  27.386  35.225   6.453
 8339POPC   C2B43556  27.389  35.232   6.753
 8339POPC   C3B43557  27.397  35.221   7.053
 8339POPC   C4B43558  27.408  35.272   7.353
 8340POPC   NC343559   8.202  13.626   5.553
 8340POPC   PO443560   8.245  13.648   5.853
 8340POPC   GL143561   8.161  13.586   6.153
 8340POPC   GL243562   8.327  13.662   6.153
 8340POPC   C1A43563   8.241  13.639   6.453
 8340POPC   D2A43564   8.200  13.600   6.753
 8340POPC   C3A43565   8.190  13.667   7.053
 8340POPC   C4A43566   8.227  13.619   7.353
 8340POPC   C1B43567   8.484  13.614   6.453
 8340POPC   C2B43568   8.457  13.680   6.753
 8340POPC   C3B43569   8.469  13.685   7.053
 8340POPC   C4B43570   8.407  13.672   7.353
 8341POPC   NC343571  23.676  33.072   5.553
 8341POPC   PO443572  23.708  32.981   5.853
 8341POPC   GL143573  23.672  33.017   6.153
 8341POPC   GL243574  23.602  33.110   6.153
 8341POPC   C1A43575  23.695  33.043   6.453
 8341POPC   D2A43576  23.669  32.994   6.753
 8341POPC   C3A43577  23.743  32.985   7.053
 8341POPC   C4A43578  23.676  33.027   7.353
 8341POPC   C1B43579  23.538  33.195   6.453
 8341POPC   C2B43580  23.579  33.172   6.753
 8341POPC   C3B43581  23.543  33.221   7.053
 8341POPC   C4B43582  23.575  33.214   7.353
 8342POPC   NC343583   5.911  43.063   5.553
 8342POPC   PO443584   5.820  43.090   5.853
 8342POPC   GL143585   5.847  43.120   6.153
 8342POPC   GL243586   5.733  43.058   6.153
 8342POPC   C1A43587   5.852  43.113   6.453
 8342POPC   D2A43588   5.877  43.140   6.753
 8342POPC   C3A43589   5.834  43.081   7.053
 8342POPC   C4A43590   5.897  43.134   7.353
 8342POPC   C1B43591   5.671  42.995   6.453
 8342POPC   C2B43592   5.624  42.978   6.753
 8342POPC   C3B43593   5.634  42.930   7.053
 8342POPC   C4B43594   5.625  42.936   7.353
 8343POPC   NC343595  22.208   3.503   5.553
 8343POPC   PO443596  22.116   3.513   5.853
 8343POPC   GL143597  22.201   3.506   6.153
 8343POPC   GL243598  22.184   3.398   6.153
 8343POPC   C1A43599  22.167   3.536   6.453
 8343POPC   D2A43600  22.133   3.564   6.753
 8343POPC   C3A43601  22.177   3.535   7.053
 8343POPC   C4A43602  22.146   3.572   7.353
 8343POPC   C1B43603  22.274   3.271   6.453
 8343POPC   C2B43604  22.230   3.311   6.753
 8343POPC   C3B43605  22.287   3.350   7.053
 8343POPC   C4B43606  22.274   3.305   7.353
 8344POPC   NC343607   1.201  19.787   5.553
 8344POPC   PO443608   1.244  19.850   5.853
 8344POPC   GL143609   1.237  19.813   6.153
 8344POPC   GL243610   1.370  19.763   6.153
 8344POPC   C1A43611   1.207  19.801   6.453
 8344POPC   D2A43612   1.179  19.815   6.753
 8344POPC   C3A43613   1.186  19.883   7.053
 8344POPC   C4A43614   1.185  19.883   7.353
 8344POPC   C1B43615   1.415  19.791   6.453
 8344POPC   C2B43616   1.424  19.726   6.753
 8344POPC   C3B43617   1.458  19.749   7.053
 8344POPC   C4B43618   1.486  19.753   7.353
 8345POPC   NC343619  42.295  44.646   5.553
 8345POPC   PO443620  42.325  44.653   5.853
 8345POPC   GL143621  42.315  44.638   6.153
 8345POPC   GL243622  42.181  44.689   6.153
 8345POPC   C1A43623  42.318  44.627   6.453
 8345POPC   D2A43624  42.287  44.703   6.753
 8345POPC   C3A43625  42.340  44.711   7.053
 8345POPC   C4A43626  42.379  44.626   7.353
 8345POPC   C1B43627  42.122  44.694   6.453
 8345POPC   C2B43628  42.057  44.703   6.753
 8345POPC   C3B43629  42.111  44.689   7.053
 8345POPC   C4B43630  42.037  44.636   7.353
 8346POPC   NC343631  35.304   0.461   5.553
 8346POPC   PO443632  35.318   0.474   5.853
 8346POPC   GL143633  35.334   0.400   6.153
 8346POPC   GL243634  35.356   0.536   6.153
 8346POPC   C1A43635  35.309   0.437   6.453
 8346POPC   D2A43636  35.356   0.485   6.753
 8346POPC   C3A43637  35.401   0.416   7.053
 8346POPC   C4A43638  35.348   0.432   7.353
 8346POPC   C1B43639  35.449   0.691   6.453
 8346POPC   C2B43640  35.451   0.671   6.753
 8346POPC   C3B43641  35.435   0.634   7.053
 8346POPC   C4B43642  35.373   0.641   7.353
 8347POPC   NC343643   5.904  19.066   5.553
 8347POPC   PO443644   5.899  19.034   5.853
 8347POPC   GL143645   5.891  19.030   6.153
 8347POPC   GL243646   5.939  19.134   6.153
 8347POPC   C1A43647   5.877  19.028   6.453
 8347POPC   D2A43648   5.868  19.045   6.753
 8347POPC   C3A43649   5.908  19.049   7.053
 8347POPC   C4A43650   5.840  19.042   7.353
 8347POPC   C1B43651   6.106  19.236   6.453
 8347POPC   C2B43652   6.075  19.227   6.753
 8347POPC   C3B43653   6.071  19.257   7.053
 8347POPC   C4B43654   6.063  19.178   7.353
 8348POPC   NC343655  25.311  43.095   5.553
 8348POPC   PO443656  25.293  43.067   5.853
 8348POPC   GL143657  25.225  43.062   6.153
 8348POPC   GL243658  25.148  43.136   6.153
 8348POPC   C1A43659  25.231  43.147   6.453
 8348POPC   D2A43660  25.244  43.072   6.753
 8348POPC   C3A43661  25.260  43.110   7.053
 8348POPC   C4A43662  25.248  43.112   7.353
 8348POPC   C1B43663  25.030  43.160   6.453
 8348POPC   C2B43664  24.993  43.139   6.753
 8348POPC   C3B43665  24.989  43.143   7.053
 8348POPC   C4B43666  24.979  43.134   7.353
 8349POPC   NC343667  43.080  43.116   5.553
 8349POPC   PO443668  43.061  43.156   5.853
 8349POPC   GL143669  43.065  43.093   6.153
 8349POPC   GL243670  43.190  43.044   6.153
 8349POPC   C1A43671  43.132  43.150   6.453
 8349POPC   D2A43672  43.150  43.124   6.753
 8349POPC   C3A43673  43.115  43.107   7.053
 8349POPC   C4A43674  43.088  43.072   7.353
 8349POPC   C1B43675  43.344  42.947   6.453
 8349POPC   C2B43676  43.339  42.939   6.753
 8349POPC   C3B43677  43.340  42.936   7.053
 8349POPC   C4B43678  43.274  43.003   7.353
 8350POPC   NC343679  39.241  15.222   5.553
 8350POPC   PO443680  39.207  15.208   5.853
 8350POPC   GL143681  39.238  15.153   6.153
 8350POPC   GL243682  39.205  15.276   6.153
 8350POPC   C1A43683  39.279  15.148   6.453
 8350POPC   D2A43684  39.244  15.192   6.753
 8350POPC   C3A43685  39.195  15.135   7.053
 8350POPC   C4A43686  39.198  15.197   7.353
 8350POPC   C1B43687  39.142  15.444   6.453
 8350POPC   C2B43688  39.096  15.374   6.753
 8350POPC   C3B43689  39.161  15.400   7.053
 8350POPC   C4B43690  39.126  15.387   7.353
 8351POPC   NC343691  44.687  42.302   5.553
 8351POPC   PO443692  44.680  42.346   5.853
 8351POPC   GL143693  44.688  42.366   6.153
 8351POPC   GL243694  44.543  42.389   6.153
 8351POPC   C1A43695  44.680  42.315   6.453
 8351POPC   D2A43696  44.692  42.293   6.753
 8351POPC   C3A43697  44.618  42.304   7.053
 8351POPC   C4A43698  44.668  42.323   7.353
 8351POPC   C1B43699  44.491  42.511   6.453
 8351POPC   C2B43700  44.479  42.472   6.753
 8351POPC   C3B43701  44.444  42.544   7.053
 8351POPC   C4B43702  44.476  42.465   7.353
 8352POPC   NC343703  40.820  14.414   5.553
 8352POPC   PO443704  40.756  14.441   5.853
 8352POPC   GL143705  40.805  14.391   6.153
 8352POPC   GL243706  40.834  14.572   6.153
 8352POPC   C1A43707  40.758  14.366   6.453
 8352POPC   D2A43708  40.805  14.360   6.753
 8352POPC   C3A43709  40.752  14.384   7.053
 8352POPC   C4A43710  40.821  14.443   7.353
 8352POPC   C1B43711  40.833  14.611   6.453
 8352POPC   C2B43712  40.743  14.691   6.753
 8352POPC   C3B43713  40.838  14.644   7.053
 8352POPC   C4B43714  40.751  14.679   7.353
 8353POPC   NC343715  16.763  42.325   5.553
 8353POPC   PO443716  16.754  42.297   5.853
 8353POPC   GL143717  16.717  42.382   6.153
 8353POPC   GL243718  16.664  42.229   6.153
 8353POPC   C1A43719  16.735  42.367   6.453
 8353POPC   D2A43720  16.753  42.299   6.753
 8353POPC   C3A43721  16.750  42.319   7.053
 8353POPC   C4A43722  16.699  42.362   7.353
 8353POPC   C1B43723  16.554  42.136   6.453
 8353POPC   C2B43724  16.606  42.139   6.753
 8353POPC   C3B43725  16.539  42.164   7.053
 8353POPC   C4B43726  16.537  42.115   7.353
 8354POPC   NC343727   5.827  36.167   5.553
 8354POPC   PO443728   5.866  36.163   5.853
 8354POPC   GL143729   5.867  36.144   6.153
 8354POPC   GL243730   5.872  35.957   6.153
 8354POPC   C1A43731   5.886  36.131   6.453
 8354POPC   D2A43732   5.865  36.089   6.753
 8354POPC   C3A43733   5.906  36.106   7.053
 8354POPC   C4A43734   5.865  36.137   7.353
 8354POPC   C1B43735   5.906  35.925   6.453
 8354POPC   C2B43736   5.824  35.848   6.753
 8354POPC   C3B43737   5.829  35.923   7.053
 8354POPC   C4B43738   5.823  35.842   7.353
 8355POPC   NC343739  26.084  19.791   5.553
 8355POPC   PO443740  25.994  19.826   5.853
 8355POPC   GL143741  26.013  19.833   6.153
 8355POPC   GL243742  26.012  19.941   6.153
 8355POPC   C1A43743  26.016  19.807   6.453
 8355POPC   D2A43744  26.057  19.834   6.753
 8355POPC   C3A43745  26.081  19.828   7.053
 8355POPC   C4A43746  26.082  19.833   7.353
 8355POPC   C1B43747  25.992  20.116   6.453
 8355POPC   C2B43748  25.995  20.051   6.753
 8355POPC   C3B43749  25.940  20.106   7.053
 8355POPC   C4B43750  25.947  20.056   7.353
 8356POPC   NC343751  16.746  18.234   5.553
 8356POPC   PO443752  16.754  18.283   5.853
 8356POPC   GL143753  16.726  18.241   6.153
 8356POPC   GL243754  16.703  18.135   6.153
 8356POPC   C1A43755  16.742  18.275   6.453
 8356POPC   D2A43756  16.685  18.285   6.753
 8356POPC   C3A43757  16.764  18.314   7.053
 8356POPC   C4A43758  16.743  18.286   7.353
 8356POPC   C1B43759  16.696  18.054   6.453
 8356POPC   C2B43760  16.713  18.083   6.753
 8356POPC   C3B43761  16.713  18.068   7.053
 8356POPC   C4B43762  16.705  18.026   7.353
 8357POPC   NC343763   8.170  11.264   5.553
 8357POPC   PO443764   8.231  11.257   5.853
 8357POPC   GL143765   8.194  11.328   6.153
 8357POPC   GL243766   8.309  11.392   6.153
 8357POPC   C1A43767   8.159  11.254   6.453
 8357POPC   D2A43768   8.231  11.286   6.753
 8357POPC   C3A43769   8.235  11.338   7.053
 8357POPC   C4A43770   8.192  11.349   7.353
 8357POPC   C1B43771   8.385  11.433   6.453
 8357POPC   C2B43772   8.402  11.399   6.753
 8357POPC   C3B43773   8.361  11.481   7.053
 8357POPC   C4B43774   8.419  11.392   7.353
 8358POPC   NC343775  41.519   5.086   5.553
 8358POPC   PO443776  41.603   5.119   5.853
 8358POPC   GL143777  41.563   5.084   6.153
 8358POPC   GL243778  41.480   5.096   6.153
 8358POPC   C1A43779  41.604   5.100   6.453
 8358POPC   D2A43780  41.517   5.097   6.753
 8358POPC   C3A43781  41.571   5.077   7.053
 8358POPC   C4A43782  41.514   5.107   7.353
 8358POPC   C1B43783  41.329   5.066   6.453
 8358POPC   C2B43784  41.352   5.115   6.753
 8358POPC   C3B43785  41.266   5.114   7.053
 8358POPC   C4B43786  41.297   5.038   7.353
 8359POPC   NC343787  44.616  36.095   5.553
 8359POPC   PO443788  44.701  36.091   5.853
 8359POPC   GL143789  44.615  36.124   6.153
 8359POPC   GL243790  44.548  36.100   6.153
 8359POPC   C1A43791  44.614  36.147   6.453
 8359POPC   D2A43792  44.617  36.100   6.753
 8359POPC   C3A43793  44.680  36.155   7.053
 8359POPC   C4A43794  44.697  36.159   7.353
 8359POPC   C1B43795  44.384  36.205   6.453
 8359POPC   C2B43796  44.460  36.214   6.753
 8359POPC   C3B43797  44.385  36.199   7.053
 8359POPC   C4B43798  44.455  36.205   7.353
 8360POPC   NC343799  40.782   6.670   5.553
 8360POPC   PO443800  40.828   6.655   5.853
 8360POPC   GL143801  40.798   6.665   6.153
 8360POPC   GL243802  40.679   6.515   6.153
 8360POPC   C1A43803  40.821   6.671   6.453
 8360POPC   D2A43804  40.788   6.685   6.753
 8360POPC   C3A43805  40.810   6.683   7.053
 8360POPC   C4A43806  40.827   6.687   7.353
 8360POPC   C1B43807  40.622   6.470   6.453
 8360POPC   C2B43808  40.704   6.475   6.753
 8360POPC   C3B43809  40.692   6.446   7.053
 8360POPC   C4B43810  40.633   6.428   7.353
 8361POPC   NC343811  44.674  20.642   5.553
 8361POPC   PO443812  44.710  20.562   5.853
 8361POPC   GL143813  44.667  20.635   6.153
 8361POPC   GL243814  44.790  20.612   6.153
 8361POPC   C1A43815  44.696  20.650   6.453
 8361POPC   D2A43816  44.621  20.637   6.753
 8361POPC   C3A43817  44.697  20.624   7.053
 8361POPC   C4A43818  44.629  20.647   7.353
 8361POPC   C1B43819  44.933  20.685   6.453
 8361POPC   C2B43820  44.854  20.688   6.753
 8361POPC   C3B43821  44.863  20.672   7.053
 8361POPC   C4B43822  44.866  20.647   7.353
 8362POPC   NC343823  43.904  37.712   5.553
 8362POPC   PO443824  43.847  37.666   5.853
 8362POPC   GL143825  43.889  37.712   6.153
 8362POPC   GL243826  43.950  37.789   6.153
 8362POPC   C1A43827  43.923  37.711   6.453
 8362POPC   D2A43828  43.887  37.678   6.753
 8362POPC   C3A43829  43.878  37.711   7.053
 8362POPC   C4A43830  43.863  37.677   7.353
 8362POPC   C1B43831  44.119  37.858   6.453
 8362POPC   C2B43832  44.104  37.815   6.753
 8362POPC   C3B43833  44.142  37.854   7.053
 8362POPC   C4B43834  44.070  37.837   7.353
 8363POPC   NC343835  29.968  38.476   5.553
 8363POPC   PO443836  29.965  38.430   5.853
 8363POPC   GL143837  29.899  38.436   6.153
 8363POPC   GL243838  29.833  38.564   6.153
 8363POPC   C1A43839  29.928  38.464   6.453
 8363POPC   D2A43840  29.890  38.432   6.753
 8363POPC   C3A43841  29.945  38.482   7.053
 8363POPC   C4A43842  29.958  38.477   7.353
 8363POPC   C1B43843  29.839  38.719   6.453
 8363POPC   C2B43844  29.798  38.657   6.753
 8363POPC   C3B43845  29.880  38.648   7.053
 8363POPC   C4B43846  29.871  38.714   7.353
 8364POPC   NC343847  23.747  42.325   5.553
 8364POPC   PO443848  23.666  42.368   5.853
 8364POPC   GL143849  23.681  42.307   6.153
 8364POPC   GL243850  23.686  42.228   6.153
 8364POPC   C1A43851  23.758  42.334   6.453
 8364POPC   D2A43852  23.698  42.308   6.753
 8364POPC   C3A43853  23.721  42.310   7.053
 8364POPC   C4A43854  23.696  42.382   7.353
 8364POPC   C1B43855  23.806  42.050   6.453
 8364POPC   C2B43856  23.748  42.124   6.753
 8364POPC   C3B43857  23.789  42.084   7.053
 8364POPC   C4B43858  23.721  42.076   7.353
 8365POPC   NC343859  16.727  10.483   5.553
 8365POPC   PO443860  16.775  10.502   5.853
 8365POPC   GL143861  16.719  10.513   6.153
 8365POPC   GL243862  16.669  10.592   6.153
 8365POPC   C1A43863  16.750  10.505   6.453
 8365POPC   D2A43864  16.709  10.510   6.753
 8365POPC   C3A43865  16.715  10.487   7.053
 8365POPC   C4A43866  16.694  10.538   7.353
 8365POPC   C1B43867  16.587  10.680   6.453
 8365POPC   C2B43868  16.549  10.717   6.753
 8365POPC   C3B43869  16.589  10.717   7.053
 8365POPC   C4B43870  16.516  10.699   7.353
 8366POPC   NC343871  36.910  13.630   5.553
 8366POPC   PO443872  36.871  13.604   5.853
 8366POPC   GL143873  36.896  13.626   6.153
 8366POPC   GL243874  36.992  13.658   6.153
 8366POPC   C1A43875  36.904  13.664   6.453
 8366POPC   D2A43876  36.864  13.609   6.753
 8366POPC   C3A43877  36.927  13.615   7.053
 8366POPC   C4A43878  36.929  13.628   7.353
 8366POPC   C1B43879  37.090  13.728   6.453
 8366POPC   C2B43880  37.116  13.754   6.753
 8366POPC   C3B43881  37.171  13.724   7.053
 8366POPC   C4B43882  37.095  13.699   7.353
 8367POPC   NC343883   5.078   5.833   5.553
 8367POPC   PO443884   5.056   5.829   5.853
 8367POPC   GL143885   5.102   5.918   6.153
 8367POPC   GL243886   5.210   5.917   6.153
 8367POPC   C1A43887   5.088   5.882   6.453
 8367POPC   D2A43888   5.107   5.835   6.753
 8367POPC   C3A43889   5.134   5.830   7.053
 8367POPC   C4A43890   5.139   5.840   7.353
 8367POPC   C1B43891   5.336   6.001   6.453
 8367POPC   C2B43892   5.365   5.967   6.753
 8367POPC   C3B43893   5.360   5.992   7.053
 8367POPC   C4B43894   5.343   5.923   7.353
 8368POPC   NC343895  28.368   1.953   5.553
 8368POPC   PO443896  28.397   2.014   5.853
 8368POPC   GL143897  28.367   1.948   6.153
 8368POPC   GL243898  28.279   2.102   6.153
 8368POPC   C1A43899  28.335   2.006   6.453
 8368POPC   D2A43900  28.336   2.030   6.753
 8368POPC   C3A43901  28.367   1.950   7.053
 8368POPC   C4A43902  28.330   2.039   7.353
 8368POPC   C1B43903  28.182   2.112   6.453
 8368POPC   C2B43904  28.223   2.137   6.753
 8368POPC   C3B43905  28.189   2.131   7.053
 8368POPC   C4B43906  28.133   2.171   7.353
 8369POPC   NC343907  37.654  34.552   5.553
 8369POPC   PO443908  37.640  34.599   5.853
 8369POPC   GL143909  37.654  34.596   6.153
 8369POPC   GL243910  37.729  34.461   6.153
 8369POPC   C1A43911  37.706  34.565   6.453
 8369POPC   D2A43912  37.638  34.564   6.753
 8369POPC   C3A43913  37.639  34.592   7.053
 8369POPC   C4A43914  37.680  34.535   7.353
 8369POPC   C1B43915  37.783  34.348   6.453
 8369POPC   C2B43916  37.758  34.300   6.753
 8369POPC   C3B43917  37.787  34.316   7.053
 8369POPC   C4B43918  37.761  34.350   7.353
 8370POPC   NC343919   9.700  40.051   5.553
 8370POPC   PO443920   9.714  39.983   5.853
 8370POPC   GL143921   9.739  40.053   6.153
 8370POPC   GL243922   9.750  40.111   6.153
 8370POPC   C1A43923   9.720  39.997   6.453
 8370POPC   D2A43924   9.776  40.018   6.753
 8370POPC   C3A43925   9.723  39.957   7.053
 8370POPC   C4A43926   9.794  40.008   7.353
 8370POPC   C1B43927   9.693  40.206   6.453
 8370POPC   C2B43928   9.676  40.263   6.753
 8370POPC   C3B43929   9.628  40.207   7.053
 8370POPC   C4B43930   9.610  40.226   7.353
 8371POPC   NC343931  18.285  34.592   5.553
 8371POPC   PO443932  18.263  34.584   5.853
 8371POPC   GL143933  18.324  34.562   6.153
 8371POPC   GL243934  18.295  34.699   6.153
 8371POPC   C1A43935  18.273  34.625   6.453
 8371POPC   D2A43936  18.235  34.543   6.753
 8371POPC   C3A43937  18.323  34.620   7.053
 8371POPC   C4A43938  18.235  34.578   7.353
 8371POPC   C1B43939  18.382  34.815   6.453
 8371POPC   C2B43940  18.394  34.857   6.753
 8371POPC   C3B43941  18.391  34.823   7.053
 8371POPC   C4B43942  18.393  34.824   7.353
 8372POPC   NC343943  33.027  32.206   5.553
 8372POPC   PO443944  33.030  32.296   5.853
 8372POPC   GL143945  33.060  32.265   6.153
 8372POPC   GL243946  33.026  32.090   6.153
 8372POPC   C1A43947  33.026  32.273   6.453
 8372POPC   D2A43948  33.016  32.220   6.753
 8372POPC   C3A43949  33.018  32.200   7.053
 8372POPC   C4A43950  33.023  32.276   7.353
 8372POPC   C1B43951  33.095  31.993   6.453
 8372POPC   C2B43952  33.091  32.000   6.753
 8372POPC   C3B43953  33.097  31.966   7.053
 8372POPC   C4B43954  33.012  32.039   7.353
 8373POPC   NC343955  33.044  26.824   5.553
 8373POPC   PO443956  33.030  26.831   5.853
 8373POPC   GL143957  33.069  26.818   6.153
 8373POPC   GL243958  33.035  26.720   6.153
 8373POPC   C1A43959  32.995  26.838   6.453
 8373POPC   D2A43960  32.997  26.849   6.753
 8373POPC   C3A43961  33.050  26.802   7.053
 8373POPC   C4A43962  33.006  26.769   7.353
 8373POPC   C1B43963  33.071  26.566   6.453
 8373POPC   C2B43964  33.091  26.583   6.753
 8373POPC   C3B43965  33.069  26.543   7.053
 8373POPC   C4B43966  33.143  26.595   7.353
 8374POPC   NC343967   2.740   6.644   5.553
 8374POPC   PO443968   2.737   6.666   5.853
 8374POPC   GL143969   2.732   6.671   6.153
 8374POPC   GL243970   2.625   6.766   6.153
 8374POPC   C1A43971   2.742   6.638   6.453
 8374POPC   D2A43972   2.759   6.616   6.753
 8374POPC   C3A43973   2.782   6.657   7.053
 8374POPC   C4A43974   2.745   6.627   7.353
 8374POPC   C1B43975   2.569   6.818   6.453
 8374POPC   C2B43976   2.544   6.796   6.753
 8374POPC   C3B43977   2.531   6.848   7.053
 8374POPC   C4B43978   2.586   6.856   7.353
 8375POPC   NC343979  12.807   5.111   5.553
 8375POPC   PO443980  12.867   5.104   5.853
 8375POPC   GL143981  12.893   5.088   6.153
 8375POPC   GL243982  12.917   5.063   6.153
 8375POPC   C1A43983  12.829   5.120   6.453
 8375POPC   D2A43984  12.815   5.044   6.753
 8375POPC   C3A43985  12.859   5.054   7.053
 8375POPC   C4A43986  12.808   5.121   7.353
 8375POPC   C1B43987  13.094   4.991   6.453
 8375POPC   C2B43988  13.065   4.951   6.753
 8375POPC   C3B43989  13.083   4.986   7.053
 8375POPC   C4B43990  13.085   4.982   7.353
 8376POPC   NC343991   1.961  33.017   5.553
 8376POPC   PO443992   1.956  32.997   5.853
 8376POPC   GL143993   1.982  32.983   6.153
 8376POPC   GL243994   1.929  32.893   6.153
 8376POPC   C1A43995   1.975  33.056   6.453
 8376POPC   D2A43996   2.037  33.014   6.753
 8376POPC   C3A43997   1.992  33.063   7.053
 8376POPC   C4A43998   1.975  33.046   7.353
 8376POPC   C1B43999   1.919  32.735   6.453
 8376POPC   C2B44000   1.912  32.755   6.753
 8376POPC   C3B44001   1.904  32.782   7.053
 8376POPC   C4B44002   1.962  32.810   7.353
 8377POPC   NC344003  21.399  20.642   5.553
 8377POPC   PO444004  21.432  20.608   5.853
 8377POPC   GL144005  21.350  20.609   6.153
 8377POPC   GL244006  21.335  20.698   6.153
 8377POPC   C1A44007  21.366  20.627   6.453
 8377POPC   D2A44008  21.354  20.653   6.753
 8377POPC   C3A44009  21.416  20.615   7.053
 8377POPC   C4A44010  21.346  20.659   7.353
 8377POPC   C1B44011  21.181  20.801   6.453
 8377POPC   C2B44012  21.196  20.824   6.753
 8377POPC   C3B44013  21.170  20.822   7.053
 8377POPC   C4B44014  21.256  20.833   7.353
 8378POPC   NC344015  29.947  29.885   5.553
 8378POPC   PO444016  29.970  29.912   5.853
 8378POPC   GL144017  29.919  29.932   6.153
 8378POPC   GL244018  29.930  29.785   6.153
 8378POPC   C1A44019  29.887  29.884   6.453
 8378POPC   D2A44020  29.945  29.905   6.753
 8378POPC   C3A44021  29.964  29.967   7.053
 8378POPC   C4A44022  29.931  29.910   7.353
 8378POPC   C1B44023  29.962  29.667   6.453
 8378POPC   C2B44024  30.041  29.673   6.753
 8378POPC   C3B44025  30.036  29.636   7.053
 8378POPC   C4B44026  30.006  29.704   7.353
 8379POPC   NC344027  21.406  21.347   5.553
 8379POPC   PO444028  21.392  21.391   5.853
 8379POPC   GL144029  21.341  21.382   6.153
 8379POPC   GL244030  21.498  21.423   6.153
 8379POPC   C1A44031  21.408  21.404   6.453
 8379POPC   D2A44032  21.417  21.414   6.753
 8379POPC   C3A44033  21.372  21.375   7.053
 8379POPC   C4A44034  21.339  21.427   7.353
 8379POPC   C1B44035  21.601  21.426   6.453
 8379POPC   C2B44036  21.664  21.459   6.753
 8379POPC   C3B44037  21.595  21.444   7.053
 8379POPC   C4B44038  21.608  21.468   7.353
 8380POPC   NC344039  12.037  20.571   5.553
 8380POPC   PO444040  12.105  20.594   5.853
 8380POPC   GL144041  12.105  20.635   6.153
 8380POPC   GL244042  11.958  20.608   6.153
 8380POPC   C1A44043  12.044  20.599   6.453
 8380POPC   D2A44044  12.056  20.633   6.753
 8380POPC   C3A44045  12.120  20.574   7.053
 8380POPC   C4A44046  12.081  20.615   7.353
 8380POPC   C1B44047  11.833  20.475   6.453
 8380POPC   C2B44048  11.878  20.535   6.753
 8380POPC   C3B44049  11.858  20.506   7.053
 8380POPC   C4B44050  11.821  20.556   7.353
 8381POPC   NC344051  43.917  33.025   5.553
 8381POPC   PO444052  43.885  33.043   5.853
 8381POPC   GL144053  43.904  32.989   6.153
 8381POPC   GL244054  43.989  33.052   6.153
 8381POPC   C1A44055  43.845  33.024   6.453
 8381POPC   D2A44056  43.910  33.061   6.753
 8381POPC   C3A44057  43.854  32.977   7.053
 8381POPC   C4A44058  43.886  33.058   7.353
 8381POPC   C1B44059  44.176  33.090   6.453
 8381POPC   C2B44060  44.094  33.092   6.753
 8381POPC   C3B44061  44.129  33.080   7.053
 8381POPC   C4B44062  44.094  33.083   7.353
 8382POPC   NC344063   2.785  40.810   5.553
 8382POPC   PO444064   2.735  40.809   5.853
 8382POPC   GL144065   2.754  40.785   6.153
 8382POPC   GL244066   2.769  40.952   6.153
 8382POPC   C1A44067   2.737  40.773   6.453
 8382POPC   D2A44068   2.789  40.740   6.753
 8382POPC   C3A44069   2.797  40.800   7.053
 8382POPC   C4A44070   2.731  40.820   7.353
 8382POPC   C1B44071   2.698  41.055   6.453
 8382POPC   C2B44072   2.643  41.061   6.753
 8382POPC   C3B44073   2.716  41.049   7.053
 8382POPC   C4B44074   2.643  40.990   7.353
 8383POPC   NC344075  26.063  14.402   5.553
 8383POPC   PO444076  26.072  14.396   5.853
 8383POPC   GL144077  26.011  14.417   6.153
 8383POPC   GL244078  26.158  14.450   6.153
 8383POPC   C1A44079  26.023  14.355   6.453
 8383POPC   D2A44080  26.006  14.386   6.753
 8383POPC   C3A44081  26.081  14.375   7.053
 8383POPC   C4A44082  26.028  14.371   7.353
 8383POPC   C1B44083  26.260  14.358   6.453
 8383POPC   C2B44084  26.257  14.372   6.753
 8383POPC   C3B44085  26.254  14.395   7.053
 8383POPC   C4B44086  26.325  14.429   7.353
 8384POPC   NC344087  36.165  18.238   5.553
 8384POPC   PO444088  36.096  18.283   5.853
 8384POPC   GL144089  36.095  18.292   6.153
 8384POPC   GL244090  36.162  18.378   6.153
 8384POPC   C1A44091  36.166  18.238   6.453
 8384POPC   D2A44092  36.139  18.300   6.753
 8384POPC   C3A44093  36.141  18.282   7.053
 8384POPC   C4A44094  36.148  18.253   7.353
 8384POPC   C1B44095  36.202  18.471   6.453
 8384POPC   C2B44096  36.285  18.518   6.753
 8384POPC   C3B44097  36.272  18.454   7.053
 8384POPC   C4B44098  36.203  18.508   7.353
 8385POPC   NC344099  36.953  29.955   5.553
 8385POPC   PO444100  36.895  29.968   5.853
 8385POPC   GL144101  36.877  29.953   6.153
 8385POPC   GL244102  36.803  29.891   6.153
 8385POPC   C1A44103  36.931  29.879   6.453
 8385POPC   D2A44104  36.865  29.916   6.753
 8385POPC   C3A44105  36.867  29.948   7.053
 8385POPC   C4A44106  36.883  29.908   7.353
 8385POPC   C1B44107  36.628  29.897   6.453
 8385POPC   C2B44108  36.674  29.894   6.753
 8385POPC   C3B44109  36.674  29.933   7.053
 8385POPC   C4B44110  36.662  29.938   7.353
 8386POPC   NC344111  15.228  37.692   5.553
 8386POPC   PO444112  15.137  37.640   5.853
 8386POPC   GL144113  15.136  37.670   6.153
 8386POPC   GL244114  15.147  37.815   6.153
 8386POPC   C1A44115  15.194  37.686   6.453
 8386POPC   D2A44116  15.185  37.719   6.753
 8386POPC   C3A44117  15.171  37.667   7.053
 8386POPC   C4A44118  15.130  37.695   7.353
 8386POPC   C1B44119  15.177  37.964   6.453
 8386POPC   C2B44120  15.170  37.974   6.753
 8386POPC   C3B44121  15.173  37.922   7.053
 8386POPC   C4B44122  15.217  37.967   7.353
 8387POPC   NC344123   5.070   8.943   5.553
 8387POPC   PO444124   5.081   9.018   5.853
 8387POPC   GL144125   5.049   8.971   6.153
 8387POPC   GL244126   5.156   9.081   6.153
 8387POPC   C1A44127   5.142   8.958   6.453
 8387POPC   D2A44128   5.131   8.938   6.753
 8387POPC   C3A44129   5.045   8.965   7.053
 8387POPC   C4A44130   5.125   8.965   7.353
 8387POPC   C1B44131   5.138   9.221   6.453
 8387POPC   C2B44132   5.143   9.256   6.753
 8387POPC   C3B44133   5.157   9.176   7.053
 8387POPC   C4B44134   5.079   9.235   7.353
 8388POPC   NC344135  15.948  36.877   5.553
 8388POPC   PO444136  15.991  36.879   5.853
 8388POPC   GL144137  15.972  36.862   6.153
 8388POPC   GL244138  16.081  36.815   6.153
 8388POPC   C1A44139  15.956  36.901   6.453
 8388POPC   D2A44140  15.970  36.883   6.753
 8388POPC   C3A44141  15.984  36.880   7.053
 8388POPC   C4A44142  15.999  36.925   7.353
 8388POPC   C1B44143  16.130  36.766   6.453
 8388POPC   C2B44144  16.097  36.750   6.753
 8388POPC   C3B44145  16.141  36.753   7.053
 8388POPC   C4B44146  16.096  36.704   7.353
 8389POPC   NC344147   7.462  25.307   5.553
 8389POPC   PO444148   7.444  25.231   5.853
 8389POPC   GL144149   7.376  25.256   6.153
 8389POPC   GL244150   7.432  25.344   6.153
 8389POPC   C1A44151   7.418  25.229   6.453
 8389POPC   D2A44152   7.413  25.255   6.753
 8389POPC   C3A44153   7.374  25.237   7.053
 8389POPC   C4A44154   7.406  25.238   7.353
 8389POPC   C1B44155   7.481  25.459   6.453
 8389POPC   C2B44156   7.518  25.502   6.753
 8389POPC   C3B44157   7.482  25.473   7.053
 8389POPC   C4B44158   7.535  25.548   7.353
 8390POPC   NC344159   0.447  31.468   5.553
 8390POPC   PO444160   0.400  31.430   5.853
 8390POPC   GL144161   0.442  31.518   6.153
 8390POPC   GL244162   0.342  31.599   6.153
 8390POPC   C1A44163   0.438  31.432   6.453
 8390POPC   D2A44164   0.399  31.473   6.753
 8390POPC   C3A44165   0.483  31.519   7.053
 8390POPC   C4A44166   0.428  31.487   7.353
 8390POPC   C1B44167   0.370  31.680   6.453
 8390POPC   C2B44168   0.345  31.694   6.753
 8390POPC   C3B44169   0.329  31.739   7.053
 8390POPC   C4B44170   0.385  31.707   7.353
 8391POPC   NC344171  12.116  42.332   5.553
 8391POPC   PO444172  12.064  42.375   5.853
 8391POPC   GL144173  12.084  42.290   6.153
 8391POPC   GL244174  12.173  42.340   6.153
 8391POPC   C1A44175  12.078  42.329   6.453
 8391POPC   D2A44176  12.090  42.332   6.753
 8391POPC   C3A44177  12.046  42.293   7.053
 8391POPC   C4A44178  12.053  42.331   7.353
 8391POPC   C1B44179  12.308  42.297   6.453
 8391POPC   C2B44180  12.321  42.265   6.753
 8391POPC   C3B44181  12.353  42.223   7.053
 8391POPC   C4B44182  12.344  42.249   7.353
 8392POPC   NC344183  40.772  19.851   5.553
 8392POPC   PO444184  40.768  19.797   5.853
 8392POPC   GL144185  40.734  19.857   6.153
 8392POPC   GL244186  40.683  19.846   6.153
 8392POPC   C1A44187  40.795  19.861   6.453
 8392POPC   D2A44188  40.809  19.807   6.753
 8392POPC   C3A44189  40.758  19.878   7.053
 8392POPC   C4A44190  40.768  19.857   7.353
 8392POPC   C1B44191  40.528  19.865   6.453
 8392POPC   C2B44192  40.515  19.850   6.753
 8392POPC   C3B44193  40.533  19.844   7.053
 8392POPC   C4B44194  40.563  19.854   7.353
 8393POPC   NC344195  40.034  32.229   5.553
 8393POPC   PO444196  39.994  32.267   5.853
 8393POPC   GL144197  39.958  32.281   6.153
 8393POPC   GL244198  40.145  32.163   6.153
 8393POPC   C1A44199  40.033  32.263   6.453
 8393POPC   D2A44200  39.971  32.211   6.753
 8393POPC   C3A44201  40.042  32.276   7.053
 8393POPC   C4A44202  40.018  32.294   7.353
 8393POPC   C1B44203  40.220  32.119   6.453
 8393POPC   C2B44204  40.267  32.102   6.753
 8393POPC   C3B44205  40.232  32.112   7.053
 8393POPC   C4B44206  40.205  32.162   7.353
 8394POPC   NC344207  29.178  26.076   5.553
 8394POPC   PO444208  29.177  26.029   5.853
 8394POPC   GL144209  29.111  26.011   6.153
 8394POPC   GL244210  29.224  25.892   6.153
 8394POPC   C1A44211  29.174  26.045   6.453
 8394POPC   D2A44212  29.169  26.000   6.753
 8394POPC   C3A44213  29.122  26.085   7.053
 8394POPC   C4A44214  29.110  26.026   7.353
 8394POPC   C1B44215  29.191  25.824   6.453
 8394POPC   C2B44216  29.194  25.818   6.753
 8394POPC   C3B44217  29.275  25.840   7.053
 8394POPC   C4B44218  29.226  25.786   7.353
 8395POPC   NC344219  29.887  32.994   5.553
 8395POPC   PO444220  29.947  33.052   5.853
 8395POPC   GL144221  29.937  33.069   6.153
 8395POPC   GL244222  29.998  32.902   6.153
 8395POPC   C1A44223  29.924  32.985   6.453
 8395POPC   D2A44224  29.960  33.014   6.753
 8395POPC   C3A44225  29.902  33.023   7.053
 8395POPC   C4A44226  29.967  33.071   7.353
 8395POPC   C1B44227  30.067  32.851   6.453
 8395POPC   C2B44228  30.082  32.818   6.753
 8395POPC   C3B44229  30.047  32.862   7.053
 8395POPC   C4B44230  30.036  32.815   7.353
 8396POPC   NC344231  36.128  23.763   5.553
 8396POPC   PO444232  36.079  23.676   5.853
 8396POPC   GL144233  36.162  23.761   6.153
 8396POPC   GL244234  36.290  23.649   6.153
 8396POPC   C1A44235  36.089  23.672   6.453
 8396POPC   D2A44236  36.160  23.667   6.753
 8396POPC   C3A44237  36.113  23.755   7.053
 8396POPC   C4A44238  36.172  23.762   7.353
 8396POPC   C1B44239  36.415  23.613   6.453
 8396POPC   C2B44240  36.326  23.683   6.753
 8396POPC   C3B44241  36.393  23.615   7.053
 8396POPC   C4B44242  36.346  23.697   7.353
 8397POPC   NC344243  10.533  36.949   5.553
 8397POPC   PO444244  10.557  36.935   5.853
 8397POPC   GL144245  10.554  36.913   6.153
 8397POPC   GL244246  10.583  36.752   6.153
 8397POPC   C1A44247  10.552  36.928   6.453
 8397POPC   D2A44248  10.483  36.889   6.753
 8397POPC   C3A44249  10.521  36.898   7.053
 8397POPC   C4A44250  10.530  36.892   7.353
 8397POPC   C1B44251  10.639  36.636   6.453
 8397POPC   C2B44252  10.616  36.665   6.753
 8397POPC   C3B44253  10.657  36.632   7.053
 8397POPC   C4B44254  10.656  36.687   7.353
 8398POPC   NC344255   3.583  15.169   5.553
 8398POPC   PO444256   3.548  15.134   5.853
 8398POPC   GL144257   3.585  15.156   6.153
 8398POPC   GL244258   3.698  15.233   6.153
 8398POPC   C1A44259   3.588  15.144   6.453
 8398POPC   D2A44260   3.587  15.204   6.753
 8398POPC   C3A44261   3.511  15.166   7.053
 8398POPC   C4A44262   3.545  15.137   7.353
 8398POPC   C1B44263   3.780  15.263   6.453
 8398POPC   C2B44264   3.790  15.337   6.753
 8398POPC   C3B44265   3.794  15.307   7.053
 8398POPC   C4B44266   3.733  15.295   7.353
 8399POPC   NC344267   9.018   8.219   5.553
 8399POPC   PO444268   8.940   8.166   5.853
 8399POPC   GL144269   8.979   8.149   6.153
 8399POPC   GL244270   8.910   8.133   6.153
 8399POPC   C1A44271   8.952   8.229   6.453
 8399POPC   D2A44272   8.962   8.209   6.753
 8399POPC   C3A44273   8.950   8.206   7.053
 8399POPC   C4A44274   8.953   8.162   7.353
 8399POPC   C1B44275   8.725   8.010   6.453
 8399POPC   C2B44276   8.777   8.107   6.753
 8399POPC   C3B44277   8.763   8.025   7.053
 8399POPC   C4B44278   8.798   8.035   7.353
 8400POPC   NC344279  34.576  40.823   5.553
 8400POPC   PO444280  34.532  40.736   5.853
 8400POPC   GL144281  34.540  40.760   6.153
 8400POPC   GL244282  34.582  40.630   6.153
 8400POPC   C1A44283  34.546  40.812   6.453
 8400POPC   D2A44284  34.578  40.786   6.753
 8400POPC   C3A44285  34.569  40.745   7.053
 8400POPC   C4A44286  34.590  40.754   7.353
 8400POPC   C1B44287  34.610  40.536   6.453
 8400POPC   C2B44288  34.627  40.564   6.753
 8400POPC   C3B44289  34.543  40.567   7.053
 8400POPC   C4B44290  34.617  40.542   7.353
 8401POPC   NC344291  34.621  12.067   5.553
 8401POPC   PO444292  34.542  12.099   5.853
 8401POPC   GL144293  34.598  12.032   6.153
 8401POPC   GL244294  34.501  12.017   6.153
 8401POPC   C1A44295  34.540  12.072   6.453
 8401POPC   D2A44296  34.573  12.081   6.753
 8401POPC   C3A44297  34.565  12.064   7.053
 8401POPC   C4A44298  34.609  12.072   7.353
 8401POPC   C1B44299  34.395  11.853   6.453
 8401POPC   C2B44300  34.401  11.869   6.753
 8401POPC   C3B44301  34.446  11.908   7.053
 8401POPC   C4B44302  34.456  11.900   7.353
 8402POPC   NC344303  40.775   2.732   5.553
 8402POPC   PO444304  40.796   2.762   5.853
 8402POPC   GL144305  40.828   2.811   6.153
 8402POPC   GL244306  40.935   2.708   6.153
 8402POPC   C1A44307  40.792   2.784   6.453
 8402POPC   D2A44308  40.794   2.739   6.753
 8402POPC   C3A44309  40.769   2.750   7.053
 8402POPC   C4A44310  40.805   2.808   7.353
 8402POPC   C1B44311  41.044   2.708   6.453
 8402POPC   C2B44312  41.058   2.622   6.753
 8402POPC   C3B44313  40.985   2.693   7.053
 8402POPC   C4B44314  41.027   2.662   7.353
 8403POPC   NC344315  40.002  35.305   5.553
 8403POPC   PO444316  39.988  35.320   5.853
 8403POPC   GL144317  40.011  35.367   6.153
 8403POPC   GL244318  39.873  35.446   6.153
 8403POPC   C1A44319  40.030  35.398   6.453
 8403POPC   D2A44320  39.996  35.363   6.753
 8403POPC   C3A44321  39.978  35.347   7.053
 8403POPC   C4A44322  40.004  35.317   7.353
 8403POPC   C1B44323  39.824  35.449   6.453
 8403POPC   C2B44324  39.770  35.465   6.753
 8403POPC   C3B44325  39.807  35.472   7.053
 8403POPC   C4B44326  39.782  35.507   7.353
 8404POPC   NC344327  21.409   9.739   5.553
 8404POPC   PO444328  21.353   9.774   5.853
 8404POPC   GL144329  21.420   9.733   6.153
 8404POPC   GL244330  21.514   9.674   6.153
 8404POPC   C1A44331  21.416   9.768   6.453
 8404POPC   D2A44332  21.407   9.737   6.753
 8404POPC   C3A44333  21.402   9.798   7.053
 8404POPC   C4A44334  21.400   9.758   7.353
 8404POPC   C1B44335  21.608   9.526   6.453
 8404POPC   C2B44336  21.564   9.608   6.753
 8404POPC   C3B44337  21.515   9.548   7.053
 8404POPC   C4B44338  21.554   9.574   7.353
 8405POPC   NC344339   8.170  22.126   5.553
 8405POPC   PO444340   8.182  22.176   5.853
 8405POPC   GL144341   8.195  22.154   6.153
 8405POPC   GL244342   8.089  22.104   6.153
 8405POPC   C1A44343   8.201  22.120   6.453
 8405POPC   D2A44344   8.211  22.119   6.753
 8405POPC   C3A44345   8.176  22.165   7.053
 8405POPC   C4A44346   8.243  22.131   7.353
 8405POPC   C1B44347   8.021  21.973   6.453
 8405POPC   C2B44348   7.993  22.024   6.753
 8405POPC   C3B44349   8.012  22.007   7.053
 8405POPC   C4B44350   7.963  22.008   7.353
 8406POPC   NC344351  15.988  38.447   5.553
 8406POPC   PO444352  15.911  38.432   5.853
 8406POPC   GL144353  15.934  38.419   6.153
 8406POPC   GL244354  15.964  38.349   6.153
 8406POPC   C1A44355  15.913  38.448   6.453
 8406POPC   D2A44356  15.921  38.496   6.753
 8406POPC   C3A44357  15.943  38.497   7.053
 8406POPC   C4A44358  15.985  38.431   7.353
 8406POPC   C1B44359  15.993  38.179   6.453
 8406POPC   C2B44360  15.916  38.201   6.753
 8406POPC   C3B44361  15.929  38.240   7.053
 8406POPC   C4B44362  15.993  38.174   7.353
 8407POPC   NC344363  25.237  24.455   5.553
 8407POPC   PO444364  25.283  24.453   5.853
 8407POPC   GL144365  25.300  24.531   6.153
 8407POPC   GL244366  25.349  24.469   6.153
 8407POPC   C1A44367  25.261  24.502   6.453
 8407POPC   D2A44368  25.272  24.464   6.753
 8407POPC   C3A44369  25.238  24.498   7.053
 8407POPC   C4A44370  25.217  24.447   7.353
 8407POPC   C1B44371  25.539  24.374   6.453
 8407POPC   C2B44372  25.539  24.447   6.753
 8407POPC   C3B44373  25.496  24.416   7.053
 8407POPC   C4B44374  25.524  24.380   7.353
 8408POPC   NC344375   5.132  38.465   5.553
 8408POPC   PO444376   5.062  38.411   5.853
 8408POPC   GL144377   5.073  38.462   6.153
 8408POPC   GL244378   5.196  38.601   6.153
 8408POPC   C1A44379   5.072  38.405   6.453
 8408POPC   D2A44380   5.111  38.424   6.753
 8408POPC   C3A44381   5.076  38.424   7.053
 8408POPC   C4A44382   5.121  38.427   7.353
 8408POPC   C1B44383   5.199  38.644   6.453
 8408POPC   C2B44384   5.184  38.648   6.753
 8408POPC   C3B44385   5.234  38.690   7.053
 8408POPC   C4B44386   5.220  38.692   7.353
 8409POPC   NC344387   4.322  39.194   5.553
 8409POPC   PO444388   4.279  39.201   5.853
 8409POPC   GL144389   4.282  39.234   6.153
 8409POPC   GL244390   4.433  39.189   6.153
 8409POPC   C1A44391   4.366  39.237   6.453
 8409POPC   D2A44392   4.284  39.278   6.753
 8409POPC   C3A44393   4.346  39.258   7.053
 8409POPC   C4A44394   4.330  39.187   7.353
 8409POPC   C1B44395   4.550  39.177   6.453
 8409POPC   C2B44396   4.570  39.169   6.753
 8409POPC   C3B44397   4.560  39.221   7.053
 8409POPC   C4B44398   4.601  39.222   7.353
 8410POPC   NC344399  23.738   1.982   5.553
 8410POPC   PO444400  23.760   2.036   5.853
 8410POPC   GL144401  23.761   2.018   6.153
 8410POPC   GL244402  23.568   1.985   6.153
 8410POPC   C1A44403  23.712   2.033   6.453
 8410POPC   D2A44404  23.760   2.026   6.753
 8410POPC   C3A44405  23.758   1.955   7.053
 8410POPC   C4A44406  23.752   1.983   7.353
 8410POPC   C1B44407  23.423   1.949   6.453
 8410POPC   C2B44408  23.471   1.918   6.753
 8410POPC   C3B44409  23.422   1.922   7.053
 8410POPC   C4B44410  23.444   1.991   7.353
 8411POPC   NC344411  39.967  19.832   5.553
 8411POPC   PO444412  40.045  19.883   5.853
 8411POPC   GL144413  39.997  19.822   6.153
 8411POPC   GL244414  40.153  19.812   6.153
 8411POPC   C1A44415  39.968  19.883   6.453
 8411POPC   D2A44416  39.967  19.875   6.753
 8411POPC   C3A44417  39.969  19.825   7.053
 8411POPC   C4A44418  39.959  19.864   7.353
 8411POPC   C1B44419  40.287  19.754   6.453
 8411POPC   C2B44420  40.269  19.805   6.753
 8411POPC   C3B44421  40.204  19.807   7.053
 8411POPC   C4B44422  40.292  19.774   7.353
 8412POPC   NC344423  25.293   6.597   5.553
 8412POPC   PO444424  25.274   6.610   5.853
 8412POPC   GL144425  25.303   6.619   6.153
 8412POPC   GL244426  25.161   6.579   6.153
 8412POPC   C1A44427  25.251   6.606   6.453
 8412POPC   D2A44428  25.278   6.636   6.753
 8412POPC   C3A44429  25.315   6.666   7.053
 8412POPC   C4A44430  25.225   6.616   7.353
 8412POPC   C1B44431  25.031   6.519   6.453
 8412POPC   C2B44432  25.099   6.526   6.753
 8412POPC   C3B44433  25.109   6.440   7.053
 8412POPC   C4B44434  25.106   6.441   7.353
 8413POPC   NC344435  18.248  29.933   5.553
 8413POPC   PO444436  18.234  29.917   5.853
 8413POPC   GL144437  18.322  29.947   6.153
 8413POPC   GL244438  18.237  30.018   6.153
 8413POPC   C1A44439  18.288  29.876   6.453
 8413POPC   D2A44440  18.300  29.875   6.753
 8413POPC   C3A44441  18.299  29.963   7.053
 8413POPC   C4A44442  18.270  29.875   7.353
 8413POPC   C1B44443  18.306  30.218   6.453
 8413POPC   C2B44444  18.248  30.210   6.753
 8413POPC   C3B44445  18.244  30.137   7.053
 8413POPC   C4B44446  18.262  30.209   7.353
 8414POPC   NC344447  17.507   5.119   5.553
 8414POPC   PO444448  17.509   5.082   5.853
 8414POPC   GL144449  17.465   5.053   6.153
 8414POPC   GL244450  17.615   5.023   6.153
 8414POPC   C1A44451  17.472   5.107   6.453
 8414POPC   D2A44452  17.539   5.129   6.753
 8414POPC   C3A44453  17.533   5.072   7.053
 8414POPC   C4A44454  17.497   5.064   7.353
 8414POPC   C1B44455  17.609   4.910   6.453
 8414POPC   C2B44456  17.622   4.899   6.753
 8414POPC   C3B44457  17.680   4.930   7.053
 8414POPC   C4B44458  17.628   4.941   7.353
 8415POPC   NC344459  29.918  22.923   5.553
 8415POPC   PO444460  29.950  22.960   5.853
 8415POPC   GL144461  29.936  22.956   6.153
 8415POPC   GL244462  29.952  22.820   6.153
 8415POPC   C1A44463  29.953  22.909   6.453
 8415POPC   D2A44464  29.886  22.895   6.753
 8415POPC   C3A44465  29.882  22.974   7.053
 8415POPC   C4A44466  29.950  22.889   7.353
 8415POPC   C1B44467  30.035  22.723   6.453
 8415POPC   C2B44468  29.979  22.667   6.753
 8415POPC   C3B44469  30.019  22.742   7.053
 8415POPC   C4B44470  30.008  22.740   7.353
 8416POPC   NC344471  38.457   0.464   5.553
 8416POPC   PO444472  38.464   0.444   5.853
 8416POPC   GL144473  38.461   0.466   6.153
 8416POPC   GL244474  38.598   0.423   6.153
 8416POPC   C1A44475  38.439   0.432   6.453
 8416POPC   D2A44476  38.478   0.420   6.753
 8416POPC   C3A44477  38.466   0.475   7.053
 8416POPC   C4A44478  38.462   0.454   7.353
 8416POPC   C1B44479  38.649   0.337   6.453
 8416POPC   C2B44480  38.677   0.330   6.753
 8416POPC   C3B44481  38.653   0.371   7.053
 8416POPC   C4B44482  38.638   0.353   7.353
 8417POPC   NC344483   0.453  36.162   5.553
 8417POPC   PO444484   0.412  36.090   5.853
 8417POPC   GL144485   0.452  36.101   6.153
 8417POPC   GL244486   0.532  36.110   6.153
 8417POPC   C1A44487   0.478  36.120   6.453
 8417POPC   D2A44488   0.474  36.089   6.753
 8417POPC   C3A44489   0.485  36.101   7.053
 8417POPC   C4A44490   0.393  36.135   7.353
 8417POPC   C1B44491   0.725  36.072   6.453
 8417POPC   C2B44492   0.650  36.054   6.753
 8417POPC   C3B44493   0.717  36.074   7.053
 8417POPC   C4B44494   0.659  36.044   7.353
 8418POPC   NC344495  36.872  19.804   5.553
 8418POPC   PO444496  36.951  19.826   5.853
 8418POPC   GL144497  36.899  19.833   6.153
 8418POPC   GL244498  36.958  19.727   6.153
 8418POPC   C1A44499  36.867  19.795   6.453
 8418POPC   D2A44500  36.897  19.848   6.753
 8418POPC   C3A44501  36.925  19.822   7.053
 8418POPC   C4A44502  36.929  19.794   7.353
 8418POPC   C1B44503  37.026  19.591   6.453
 8418POPC   C2B44504  37.023  19.614   6.753
 8418POPC   C3B44505  36.951  19.631   7.053
 8418POPC   C4B44506  36.952  19.596   7.353
 8419POPC   NC344507  18.252  14.416   5.553
 8419POPC   PO444508  18.321  14.444   5.853
 8419POPC   GL144509  18.313  14.358   6.153
 8419POPC   GL244510  18.221  14.268   6.153
 8419POPC   C1A44511  18.315  14.420   6.453
 8419POPC   D2A44512  18.282  14.365   6.753
 8419POPC   C3A44513  18.327  14.365   7.053
 8419POPC   C4A44514  18.311  14.445   7.353
 8419POPC   C1B44515  18.186  14.146   6.453
 8419POPC   C2B44516  18.188  14.205   6.753
 8419POPC   C3B44517  18.150  14.227   7.053
 8419POPC   C4B44518  18.156  14.194   7.353
 8420POPC   NC344519  30.727  15.981   5.553
 8420POPC   PO444520  30.696  15.946   5.853
 8420POPC   GL144521  30.678  15.960   6.153
 8420POPC   GL244522  30.750  15.991   6.153
 8420POPC   C1A44523  30.653  15.921   6.453
 8420POPC   D2A44524  30.728  16.003   6.753
 8420POPC   C3A44525  30.650  15.997   7.053
 8420POPC   C4A44526  30.676  15.936   7.353
 8420POPC   C1B44527  30.919  16.142   6.453
 8420POPC   C2B44528  30.888  16.140   6.753
 8420POPC   C3B44529  30.943  16.148   7.053
 8420POPC   C4B44530  30.877  16.089   7.353
 8421POPC   NC344531  43.080   7.465   5.553
 8421POPC   PO444532  43.075   7.403   5.853
 8421POPC   GL144533  43.118   7.406   6.153
 8421POPC   GL244534  43.038   7.490   6.153
 8421POPC   C1A44535  43.107   7.371   6.453
 8421POPC   D2A44536  43.096   7.372   6.753
 8421POPC   C3A44537  43.108   7.397   7.053
 8421POPC   C4A44538  43.133   7.378   7.353
 8421POPC   C1B44539  42.988   7.653   6.453
 8421POPC   C2B44540  42.987   7.581   6.753
 8421POPC   C3B44541  42.932   7.656   7.053
 8421POPC   C4B44542  43.010   7.647   7.353
 8422POPC   NC344543  42.366  26.859   5.553
 8422POPC   PO444544  42.307  26.789   5.853
 8422POPC   GL144545  42.297  26.867   6.153
 8422POPC   GL244546  42.494  26.890   6.153
 8422POPC   C1A44547  42.381  26.858   6.453
 8422POPC   D2A44548  42.290  26.849   6.753
 8422POPC   C3A44549  42.328  26.856   7.053
 8422POPC   C4A44550  42.383  26.867   7.353
 8422POPC   C1B44551  42.526  26.896   6.453
 8422POPC   C2B44552  42.526  26.866   6.753
 8422POPC   C3B44553  42.597  26.932   7.053
 8422POPC   C4B44554  42.563  26.898   7.353
 8423POPC   NC344555  32.294  27.567   5.553
 8423POPC   PO444556  32.209  27.569   5.853
 8423POPC   GL144557  32.247  27.557   6.153
 8423POPC   GL244558  32.304  27.668   6.153
 8423POPC   C1A44559  32.224  27.566   6.453
 8423POPC   D2A44560  32.211  27.582   6.753
 8423POPC   C3A44561  32.296  27.622   7.053
 8423POPC   C4A44562  32.241  27.637   7.353
 8423POPC   C1B44563  32.409  27.805   6.453
 8423POPC   C2B44564  32.407  27.810   6.753
 8423POPC   C3B44565  32.413  27.781   7.053
 8423POPC   C4B44566  32.418  27.773   7.353
 8424POPC   NC344567   2.716   9.772   5.553
 8424POPC   PO444568   2.802   9.793   5.853
 8424POPC   GL144569   2.758   9.756   6.153
 8424POPC   GL244570   2.852   9.652   6.153
 8424POPC   C1A44571   2.726   9.730   6.453
 8424POPC   D2A44572   2.725   9.713   6.753
 8424POPC   C3A44573   2.742   9.712   7.053
 8424POPC   C4A44574   2.765   9.791   7.353
 8424POPC   C1B44575   2.931   9.580   6.453
 8424POPC   C2B44576   2.988   9.579   6.753
 8424POPC   C3B44577   2.983   9.596   7.053
 8424POPC   C4B44578   2.937   9.584   7.353
 8425POPC   NC344579  10.522   5.857   5.553
 8425POPC   PO444580  10.526   5.866   5.853
 8425POPC   GL144581  10.505   5.873   6.153
 8425POPC   GL244582  10.482   5.969   6.153
 8425POPC   C1A44583  10.479   5.874   6.453
 8425POPC   D2A44584  10.506   5.862   6.753
 8425POPC   C3A44585  10.573   5.874   7.053
 8425POPC   C4A44586  10.537   5.821   7.353
 8425POPC   C1B44587  10.454   6.142   6.453
 8425POPC   C2B44588  10.478   6.132   6.753
 8425POPC   C3B44589  10.409   6.111   7.053
 8425POPC   C4B44590  10.425   6.059   7.353
 8426POPC   NC344591  43.849   2.797   5.553
 8426POPC   PO444592  43.902   2.747   5.853
 8426POPC   GL144593  43.887   2.752   6.153
 8426POPC   GL244594  43.814   2.757   6.153
 8426POPC   C1A44595  43.888   2.744   6.453
 8426POPC   D2A44596  43.887   2.785   6.753
 8426POPC   C3A44597  43.899   2.723   7.053
 8426POPC   C4A44598  43.914   2.772   7.353
 8426POPC   C1B44599  43.601   2.791   6.453
 8426POPC   C2B44600  43.638   2.809   6.753
 8426POPC   C3B44601  43.613   2.808   7.053
 8426POPC   C4B44602  43.685   2.848   7.353
 8427POPC   NC344603  12.847  14.441   5.553
 8427POPC   PO444604  12.876  14.444   5.853
 8427POPC   GL144605  12.894  14.405   6.153
 8427POPC   GL244606  12.784  14.501   6.153
 8427POPC   C1A44607  12.877  14.420   6.453
 8427POPC   D2A44608  12.805  14.354   6.753
 8427POPC   C3A44609  12.803  14.395   7.053
 8427POPC   C4A44610  12.810  14.355   7.353
 8427POPC   C1B44611  12.710  14.607   6.453
 8427POPC   C2B44612  12.675  14.665   6.753
 8427POPC   C3B44613  12.742  14.625   7.053
 8427POPC   C4B44614  12.759  14.572   7.353
 8428POPC   NC344615  40.021  14.441   5.553
 8428POPC   PO444616  40.045  14.426   5.853
 8428POPC   GL144617  39.973  14.398   6.153
 8428POPC   GL244618  39.960  14.511   6.153
 8428POPC   C1A44619  39.985  14.381   6.453
 8428POPC   D2A44620  40.021  14.411   6.753
 8428POPC   C3A44621  40.010  14.444   7.053
 8428POPC   C4A44622  40.028  14.369   7.353
 8428POPC   C1B44623  39.847  14.613   6.453
 8428POPC   C2B44624  39.907  14.600   6.753
 8428POPC   C3B44625  39.904  14.602   7.053
 8428POPC   C4B44626  39.839  14.608   7.353
 8429POPC   NC344627  25.261  22.910   5.553
 8429POPC   PO444628  25.293  22.927   5.853
 8429POPC   GL144629  25.301  22.911   6.153
 8429POPC   GL244630  25.314  23.064   6.153
 8429POPC   C1A44631  25.295  22.929   6.453
 8429POPC   D2A44632  25.253  22.917   6.753
 8429POPC   C3A44633  25.220  22.962   7.053
 8429POPC   C4A44634  25.314  22.948   7.353
 8429POPC   C1B44635  25.292  23.203   6.453
 8429POPC   C2B44636  25.292  23.200   6.753
 8429POPC   C3B44637  25.229  23.150   7.053
 8429POPC   C4B44638  25.250  23.214   7.353
 8430POPC   NC344639  39.983   5.105   5.553
 8430POPC   PO444640  40.022   5.069   5.853
 8430POPC   GL144641  40.013   5.070   6.153
 8430POPC   GL244642  39.907   5.099   6.153
 8430POPC   C1A44643  39.981   5.125   6.453
 8430POPC   D2A44644  40.055   5.124   6.753
 8430POPC   C3A44645  40.048   5.088   7.053
 8430POPC   C4A44646  39.967   5.060   7.353
 8430POPC   C1B44647  39.805   5.079   6.453
 8430POPC   C2B44648  39.753   5.089   6.753
 8430POPC   C3B44649  39.806   5.123   7.053
 8430POPC   C4B44650  39.767   5.157   7.353
 8431POPC   NC344651  22.186  24.533   5.553
 8431POPC   PO444652  22.157  24.458   5.853
 8431POPC   GL144653  22.161  24.499   6.153
 8431POPC   GL244654  22.025  24.475   6.153
 8431POPC   C1A44655  22.141  24.536   6.453
 8431POPC   D2A44656  22.180  24.515   6.753
 8431POPC   C3A44657  22.153  24.443   7.053
 8431POPC   C4A44658  22.163  24.509   7.353
 8431POPC   C1B44659  21.888  24.585   6.453
 8431POPC   C2B44660  21.948  24.535   6.753
 8431POPC   C3B44661  21.890  24.540   7.053
 8431POPC   C4B44662  21.952  24.560   7.353
 8432POPC   NC344663  13.676   5.893   5.553
 8432POPC   PO444664  13.654   5.898   5.853
 8432POPC   GL144665  13.624   5.906   6.153
 8432POPC   GL244666  13.506   5.810   6.153
 8432POPC   C1A44667  13.595   5.823   6.453
 8432POPC   D2A44668  13.664   5.847   6.753
 8432POPC   C3A44669  13.616   5.899   7.053
 8432POPC   C4A44670  13.664   5.836   7.353
 8432POPC   C1B44671  13.368   5.821   6.453
 8432POPC   C2B44672  13.385   5.817   6.753
 8432POPC   C3B44673  13.410   5.794   7.053
 8432POPC   C4B44674  13.388   5.780   7.353
 8433POPC   NC344675  22.967   1.994   5.553
 8433POPC   PO444676  22.939   1.942   5.853
 8433POPC   GL144677  22.953   2.035   6.153
 8433POPC   GL244678  22.992   2.147   6.153
 8433POPC   C1A44679  22.953   2.020   6.453
 8433POPC   D2A44680  22.919   1.943   6.753
 8433POPC   C3A44681  22.929   1.972   7.053
 8433POPC   C4A44682  22.969   1.945   7.353
 8433POPC   C1B44683  23.021   2.273   6.453
 8433POPC   C2B44684  22.981   2.264   6.753
 8433POPC   C3B44685  22.979   2.191   7.053
 8433POPC   C4B44686  23.031   2.248   7.353
 8434POPC   NC344687   9.752  26.787   5.553
 8434POPC   PO444688   9.761  26.822   5.853
 8434POPC   GL144689   9.743  26.799   6.153
 8434POPC   GL244690   9.725  26.897   6.153
 8434POPC   C1A44691   9.699  26.864   6.453
 8434POPC   D2A44692   9.736  26.844   6.753
 8434POPC   C3A44693   9.736  26.771   7.053
 8434POPC   C4A44694   9.726  26.839   7.353
 8434POPC   C1B44695   9.806  27.072   6.453
 8434POPC   C2B44696   9.799  27.034   6.753
 8434POPC   C3B44697   9.734  27.078   7.053
 8434POPC   C4B44698   9.760  27.098   7.353
 8435POPC   NC344699  12.070  41.578   5.553
 8435POPC   PO444700  12.119  41.534   5.853
 8435POPC   GL144701  12.059  41.603   6.153
 8435POPC   GL244702  11.939  41.586   6.153
 8435POPC   C1A44703  12.064  41.565   6.453
 8435POPC   D2A44704  12.107  41.563   6.753
 8435POPC   C3A44705  12.106  41.595   7.053
 8435POPC   C4A44706  12.054  41.593   7.353
 8435POPC   C1B44707  11.851  41.517   6.453
 8435POPC   C2B44708  11.816  41.505   6.753
 8435POPC   C3B44709  11.870  41.571   7.053
 8435POPC   C4B44710  11.858  41.521   7.353
 8436POPC   NC344711  29.940   1.197   5.553
 8436POPC   PO444712  29.878   1.174   5.853
 8436POPC   GL144713  29.890   1.186   6.153
 8436POPC   GL244714  29.912   1.052   6.153
 8436POPC   C1A44715  29.967   1.186   6.453
 8436POPC   D2A44716  29.897   1.180   6.753
 8436POPC   C3A44717  29.925   1.222   7.053
 8436POPC   C4A44718  29.950   1.255   7.353
 8436POPC   C1B44719  29.963   1.001   6.453
 8436POPC   C2B44720  29.969   1.007   6.753
 8436POPC   C3B44721  29.954   0.968   7.053
 8436POPC   C4B44722  29.974   0.941   7.353
 8437POPC   NC344723  14.404   3.551   5.553
 8437POPC   PO444724  14.374   3.524   5.853
 8437POPC   GL144725  14.438   3.513   6.153
 8437POPC   GL244726  14.559   3.563   6.153
 8437POPC   C1A44727  14.406   3.506   6.453
 8437POPC   D2A44728  14.438   3.551   6.753
 8437POPC   C3A44729  14.420   3.576   7.053
 8437POPC   C4A44730  14.451   3.567   7.353
 8437POPC   C1B44731  14.624   3.641   6.453
 8437POPC   C2B44732  14.648   3.680   6.753
 8437POPC   C3B44733  14.626   3.722   7.053
 8437POPC   C4B44734  14.643   3.700   7.353
 8438POPC   NC344735   1.219   2.742   5.553
 8438POPC   PO444736   1.250   2.754   5.853
 8438POPC   GL144737   1.256   2.719   6.153
 8438POPC   GL244738   1.200   2.901   6.153
 8438POPC   C1A44739   1.201   2.756   6.453
 8438POPC   D2A44740   1.185   2.811   6.753
 8438POPC   C3A44741   1.219   2.721   7.053
 8438POPC   C4A44742   1.175   2.797   7.353
 8438POPC   C1B44743   1.180   3.049   6.453
 8438POPC   C2B44744   1.218   3.053   6.753
 8438POPC   C3B44745   1.163   3.007   7.053
 8438POPC   C4B44746   1.180   3.005   7.353
 8439POPC   NC344747   6.677   3.532   5.553
 8439POPC   PO444748   6.627   3.524   5.853
 8439POPC   GL144749   6.682   3.575   6.153
 8439POPC   GL244750   6.582   3.437   6.153
 8439POPC   C1A44751   6.662   3.591   6.453
 8439POPC   D2A44752   6.598   3.557   6.753
 8439POPC   C3A44753   6.635   3.567   7.053
 8439POPC   C4A44754   6.649   3.584   7.353
 8439POPC   C1B44755   6.621   3.327   6.453
 8439POPC   C2B44756   6.593   3.339   6.753
 8439POPC   C3B44757   6.631   3.255   7.053
 8439POPC   C4B44758   6.574   3.347   7.353
 8440POPC   NC344759  25.297  35.317   5.553
 8440POPC   PO444760  25.235  35.374   5.853
 8440POPC   GL144761  25.313  35.392   6.153
 8440POPC   GL244762  25.163  35.326   6.153
 8440POPC   C1A44763  25.300  35.365   6.453
 8440POPC   D2A44764  25.225  35.362   6.753
 8440POPC   C3A44765  25.261  35.312   7.053
 8440POPC   C4A44766  25.263  35.327   7.353
 8440POPC   C1B44767  25.067  35.303   6.453
 8440POPC   C2B44768  25.048  35.304   6.753
 8440POPC   C3B44769  25.050  35.331   7.053
 8440POPC   C4B44770  25.011  35.283   7.353
 8441POPC   NC344771   1.241  31.468   5.553
 8441POPC   PO444772   1.175  31.451   5.853
 8441POPC   GL144773   1.213  31.468   6.153
 8441POPC   GL244774   1.141  31.324   6.153
 8441POPC   C1A44775   1.244  31.467   6.453
 8441POPC   D2A44776   1.185  31.500   6.753
 8441POPC   C3A44777   1.198  31.433   7.053
 8441POPC   C4A44778   1.172  31.476   7.353
 8441POPC   C1B44779   1.078  31.196   6.453
 8441POPC   C2B44780   1.115  31.254   6.753
 8441POPC   C3B44781   1.153  31.252   7.053
 8441POPC   C4B44782   1.115  31.194   7.353
 8442POPC   NC344783  15.216   0.399   5.553
 8442POPC   PO444784  15.220   0.423   5.853
 8442POPC   GL144785  15.130   0.439   6.153
 8442POPC   GL244786  15.105   0.478   6.153
 8442POPC   C1A44787  15.154   0.442   6.453
 8442POPC   D2A44788  15.213   0.419   6.753
 8442POPC   C3A44789  15.226   0.388   7.053
 8442POPC   C4A44790  15.192   0.416   7.353
 8442POPC   C1B44791  14.994   0.634   6.453
 8442POPC   C2B44792  15.014   0.574   6.753
 8442POPC   C3B44793  15.020   0.556   7.053
 8442POPC   C4B44794  14.966   0.627   7.353
 8443POPC   NC344795  44.667  30.693   5.553
 8443POPC   PO444796  44.640  30.660   5.853
 8443POPC   GL144797  44.633  30.709   6.153
 8443POPC   GL244798  44.559  30.686   6.153
 8443POPC   C1A44799  44.665  30.709   6.453
 8443POPC   D2A44800  44.688  30.695   6.753
 8443POPC   C3A44801  44.689  30.703   7.053
 8443POPC   C4A44802  44.708  30.653   7.353
 8443POPC   C1B44803  44.391  30.799   6.453
 8443POPC   C2B44804  44.443  30.772   6.753
 8443POPC   C3B44805  44.456  30.804   7.053
 8443POPC   C4B44806  44.393  30.732   7.353
 8444POPC   NC344807  18.287  32.295   5.553
 8444POPC   PO444808  18.332  32.204   5.853
 8444POPC   GL144809  18.324  32.281   6.153
 8444POPC   GL244810  18.169  32.344   6.153
 8444POPC   C1A44811  18.279  32.218   6.453
 8444POPC   D2A44812  18.291  32.207   6.753
 8444POPC   C3A44813  18.310  32.225   7.053
 8444POPC   C4A44814  18.312  32.207   7.353
 8444POPC   C1B44815  18.033  32.410   6.453
 8444POPC   C2B44816  18.101  32.350   6.753
 8444POPC   C3B44817  18.064  32.354   7.053
 8444POPC   C4B44818  18.039  32.392   7.353
 8445POPC   NC344819  22.203   6.631   5.553
 8445POPC   PO444820  22.140   6.637   5.853
 8445POPC   GL144821  22.183   6.687   6.153
 8445POPC   GL244822  22.231   6.473   6.153
 8445POPC   C1A44823  22.152   6.685   6.453
 8445POPC   D2A44824  22.148   6.625   6.753
 8445POPC   C3A44825  22.181   6.666   7.053
 8445POPC   C4A44826  22.125   6.693   7.353
 8445POPC   C1B44827  22.237   6.377   6.453
 8445POPC   C2B44828  22.256   6.371   6.753
 8445POPC   C3B44829  22.176   6.381   7.053
 8445POPC   C4B44830  22.211   6.359   7.353
 8446POPC   NC344831  41.580  12.057   5.553
 8446POPC   PO444832  41.569  12.094   5.853
 8446POPC   GL144833  41.595  12.094   6.153
 8446POPC   GL244834  41.485  12.217   6.153
 8446POPC   C1A44835  41.604  12.110   6.453
 8446POPC   D2A44836  41.537  12.074   6.753
 8446POPC   C3A44837  41.599  12.102   7.053
 8446POPC   C4A44838  41.580  12.028   7.353
 8446POPC   C1B44839  41.460  12.313   6.453
 8446POPC   C2B44840  41.444  12.326   6.753
 8446POPC   C3B44841  41.444  12.330   7.053
 8446POPC   C4B44842  41.418  12.278   7.353
 8447POPC   NC344843   3.553   5.879   5.553
 8447POPC   PO444844   3.524   5.872   5.853
 8447POPC   GL144845   3.573   5.826   6.153
 8447POPC   GL244846   3.414   5.872   6.153
 8447POPC   C1A44847   3.568   5.916   6.453
 8447POPC   D2A44848   3.501   5.905   6.753
 8447POPC   C3A44849   3.514   5.844   7.053
 8447POPC   C4A44850   3.524   5.855   7.353
 8447POPC   C1B44851   3.299   5.880   6.453
 8447POPC   C2B44852   3.244   5.830   6.753
 8447POPC   C3B44853   3.275   5.871   7.053
 8447POPC   C4B44854   3.338   5.851   7.353
 8448POPC   NC344855  24.538   9.737   5.553
 8448POPC   PO444856  24.504   9.722   5.853
 8448POPC   GL144857  24.452   9.702   6.153
 8448POPC   GL244858  24.646   9.703   6.153
 8448POPC   C1A44859  24.499   9.767   6.453
 8448POPC   D2A44860  24.494   9.750   6.753
 8448POPC   C3A44861  24.512   9.711   7.053
 8448POPC   C4A44862  24.441   9.715   7.353
 8448POPC   C1B44863  24.718   9.726   6.453
 8448POPC   C2B44864  24.708   9.715   6.753
 8448POPC   C3B44865  24.765   9.735   7.053
 8448POPC   C4B44866  24.717   9.725   7.353
 8449POPC   NC344867  23.699   6.635   5.553
 8449POPC   PO444868  23.739   6.620   5.853
 8449POPC   GL144869  23.707   6.671   6.153
 8449POPC   GL244870  23.776   6.528   6.153
 8449POPC   C1A44871  23.701   6.626   6.453
 8449POPC   D2A44872  23.677   6.628   6.753
 8449POPC   C3A44873  23.690   6.690   7.053
 8449POPC   C4A44874  23.676   6.687   7.353
 8449POPC   C1B44875  23.746   6.382   6.453
 8449POPC   C2B44876  23.737   6.432   6.753
 8449POPC   C3B44877  23.727   6.428   7.053
 8449POPC   C4B44878  23.746   6.427   7.353
 8450POPC   NC344879  12.803   8.170   5.553
 8450POPC   PO444880  12.852   8.220   5.853
 8450POPC   GL144881  12.875   8.149   6.153
 8450POPC   GL244882  12.957   8.098   6.153
 8450POPC   C1A44883  12.853   8.234   6.453
 8450POPC   D2A44884  12.841   8.233   6.753
 8450POPC   C3A44885  12.900   8.191   7.053
 8450POPC   C4A44886  12.807   8.185   7.353
 8450POPC   C1B44887  13.050   8.020   6.453
 8450POPC   C2B44888  13.013   8.025   6.753
 8450POPC   C3B44889  12.978   8.050   7.053
 8450POPC   C4B44890  13.013   8.003   7.353
 8451POPC   NC344891  25.310   5.139   5.553
 8451POPC   PO444892  25.278   5.135   5.853
 8451POPC   GL144893  25.307   5.107   6.153
 8451POPC   GL244894  25.130   4.991   6.153
 8451POPC   C1A44895  25.291   5.094   6.453
 8451POPC   D2A44896  25.298   5.054   6.753
 8451POPC   C3A44897  25.265   5.085   7.053
 8451POPC   C4A44898  25.264   5.057   7.353
 8451POPC   C1B44899  25.012   4.920   6.453
 8451POPC   C2B44900  25.037   4.934   6.753
 8451POPC   C3B44901  25.100   4.919   7.053
 8451POPC   C4B44902  25.074   4.968   7.353
 8452POPC   NC344903  43.935  41.540   5.553
 8452POPC   PO444904  43.881  41.599   5.853
 8452POPC   GL144905  43.878  41.571   6.153
 8452POPC   GL244906  43.735  41.611   6.153
 8452POPC   C1A44907  43.899  41.599   6.453
 8452POPC   D2A44908  43.856  41.516   6.753
 8452POPC   C3A44909  43.900  41.560   7.053
 8452POPC   C4A44910  43.890  41.589   7.353
 8452POPC   C1B44911  43.670  41.629   6.453
 8452POPC   C2B44912  43.638  41.667   6.753
 8452POPC   C3B44913  43.633  41.628   7.053
 8452POPC   C4B44914  43.670  41.682   7.353
 8453POPC   NC344915   0.399  43.865   5.553
 8453POPC   PO444916   0.454  43.900   5.853
 8453POPC   GL144917   0.439  43.922   6.153
 8453POPC   GL244918   0.436  43.800   6.153
 8453POPC   C1A44919   0.426  43.888   6.453
 8453POPC   D2A44920   0.434  43.936   6.753
 8453POPC   C3A44921   0.471  43.897   7.053
 8453POPC   C4A44922   0.433  43.846   7.353
 8453POPC   C1B44923   0.520  43.677   6.453
 8453POPC   C2B44924   0.543  43.690   6.753
 8453POPC   C3B44925   0.496  43.606   7.053
 8453POPC   C4B44926   0.496  43.677   7.353
 8454POPC   NC344927  17.468  18.307   5.553
 8454POPC   PO444928  17.535  18.324   5.853
 8454POPC   GL144929  17.553  18.253   6.153
 8454POPC   GL244930  17.551  18.217   6.153
 8454POPC   C1A44931  17.542  18.289   6.453
 8454POPC   D2A44932  17.459  18.329   6.753
 8454POPC   C3A44933  17.521  18.318   7.053
 8454POPC   C4A44934  17.471  18.238   7.353
 8454POPC   C1B44935  17.613  18.125   6.453
 8454POPC   C2B44936  17.698  18.099   6.753
 8454POPC   C3B44937  17.702  18.049   7.053
 8454POPC   C4B44938  17.665  18.101   7.353
 8455POPC   NC344939  30.715  42.347   5.553
 8455POPC   PO444940  30.675  42.288   5.853
 8455POPC   GL144941  30.739  42.298   6.153
 8455POPC   GL244942  30.817  42.287   6.153
 8455POPC   C1A44943  30.732  42.384   6.453
 8455POPC   D2A44944  30.737  42.369   6.753
 8455POPC   C3A44945  30.728  42.288   7.053
 8455POPC   C4A44946  30.726  42.376   7.353
 8455POPC   C1B44947  30.934  42.308   6.453
 8455POPC   C2B44948  30.988  42.303   6.753
 8455POPC   C3B44949  30.971  42.273   7.053
 8455POPC   C4B44950  30.959  42.268   7.353
 8456POPC   NC344951  14.399   7.409   5.553
 8456POPC   PO444952  14.437   7.432   5.853
 8456POPC   GL144953  14.441   7.413   6.153
 8456POPC   GL244954  14.387   7.545   6.153
 8456POPC   C1A44955  14.389   7.428   6.453
 8456POPC   D2A44956  14.361   7.400   6.753
 8456POPC   C3A44957  14.365   7.395   7.053
 8456POPC   C4A44958  14.437   7.425   7.353
 8456POPC   C1B44959  14.359   7.672   6.453
 8456POPC   C2B44960  14.376   7.650   6.753
 8456POPC   C3B44961  14.443   7.658   7.053
 8456POPC   C4B44962  14.371   7.642   7.353
 8457POPC   NC344963  23.709   1.258   5.553
 8457POPC   PO444964  23.694   1.252   5.853
 8457POPC   GL144965  23.676   1.204   6.153
 8457POPC   GL244966  23.664   1.268   6.153
 8457POPC   C1A44967  23.665   1.165   6.453
 8457POPC   D2A44968  23.694   1.164   6.753
 8457POPC   C3A44969  23.669   1.221   7.053
 8457POPC   C4A44970  23.684   1.187   7.353
 8457POPC   C1B44971  23.581   1.377   6.453
 8457POPC   C2B44972  23.550   1.433   6.753
 8457POPC   C3B44973  23.583   1.440   7.053
 8457POPC   C4B44974  23.604   1.447   7.353
 8458POPC   NC344975  32.974  33.066   5.553
 8458POPC   PO444976  33.006  32.980   5.853
 8458POPC   GL144977  33.031  32.996   6.153
 8458POPC   GL244978  33.140  33.038   6.153
 8458POPC   C1A44979  33.064  33.038   6.453
 8458POPC   D2A44980  33.059  33.018   6.753
 8458POPC   C3A44981  32.996  33.010   7.053
 8458POPC   C4A44982  33.062  33.040   7.353
 8458POPC   C1B44983  33.233  33.066   6.453
 8458POPC   C2B44984  33.261  33.070   6.753
 8458POPC   C3B44985  33.282  33.150   7.053
 8458POPC   C4B44986  33.247  33.093   7.353
 8459POPC   NC344987  39.992  16.735   5.553
 8459POPC   PO444988  40.033  16.770   5.853
 8459POPC   GL144989  39.978  16.758   6.153
 8459POPC   GL244990  40.024  16.836   6.153
 8459POPC   C1A44991  40.041  16.745   6.453
 8459POPC   D2A44992  40.035  16.714   6.753
 8459POPC   C3A44993  40.038  16.772   7.053
 8459POPC   C4A44994  40.010  16.713   7.353
 8459POPC   C1B44995  40.126  16.974   6.453
 8459POPC   C2B44996  40.091  16.987   6.753
 8459POPC   C3B44997  40.105  16.924   7.053
 8459POPC   C4B44998  40.161  16.907   7.353
 8460POPC   NC344999  30.681   5.869   5.553
 8460POPC   PO445000  30.726   5.864   5.853
 8460POPC   GL145001  30.657   5.860   6.153
 8460POPC   GL245002  30.621   5.932   6.153
 8460POPC   C1A45003  30.690   5.828   6.453
 8460POPC   D2A45004  30.699   5.840   6.753
 8460POPC   C3A45005  30.684   5.863   7.053
 8460POPC   C4A45006  30.677   5.826   7.353
 8460POPC   C1B45007  30.530   6.065   6.453
 8460POPC   C2B45008  30.520   6.082   6.753
 8460POPC   C3B45009  30.525   6.077   7.053
 8460POPC   C4B45010  30.534   6.105   7.353
 8461POPC   NC345011  44.633  25.284   5.553
 8461POPC   PO445012  44.622  25.235   5.853
 8461POPC   GL145013  44.697  25.268   6.153
 8461POPC   GL245014  44.599  25.349   6.153
 8461POPC   C1A45015  44.672  25.310   6.453
 8461POPC   D2A45016  44.682  25.299   6.753
 8461POPC   C3A45017  44.692  25.246   7.053
 8461POPC   C4A45018  44.636  25.267   7.353
 8461POPC   C1B45019  44.440  25.411   6.453
 8461POPC   C2B45020  44.476  25.370   6.753
 8461POPC   C3B45021  44.430  25.455   7.053
 8461POPC   C4B45022  44.481  25.444   7.353
 8462POPC   NC345023   2.733  30.690   5.553
 8462POPC   PO445024   2.770  30.696   5.853
 8462POPC   GL145025   2.793  30.680   6.153
 8462POPC   GL245026   2.701  30.585   6.153
 8462POPC   C1A45027   2.792  30.720   6.453
 8462POPC   D2A45028   2.796  30.740   6.753
 8462POPC   C3A45029   2.794  30.694   7.053
 8462POPC   C4A45030   2.757  30.677   7.353
 8462POPC   C1B45031   2.638  30.459   6.453
 8462POPC   C2B45032   2.642  30.469   6.753
 8462POPC   C3B45033   2.608  30.439   7.053
 8462POPC   C4B45034   2.621  30.482   7.353
 8463POPC   NC345035  43.116  26.029   5.553
 8463POPC   PO445036  43.083  26.041   5.853
 8463POPC   GL145037  43.104  26.071   6.153
 8463POPC   GL245038  43.090  26.162   6.153
 8463POPC   C1A45039  43.116  26.019   6.453
 8463POPC   D2A45040  43.087  26.075   6.753
 8463POPC   C3A45041  43.093  26.086   7.053
 8463POPC   C4A45042  43.125  26.011   7.353
 8463POPC   C1B45043  42.999  26.322   6.453
 8463POPC   C2B45044  43.003  26.279   6.753
 8463POPC   C3B45045  43.063  26.306   7.053
 8463POPC   C4B45046  43.063  26.255   7.353
 8464POPC   NC345047  12.096  36.895   5.553
 8464POPC   PO445048  12.032  36.866   5.853
 8464POPC   GL145049  12.121  36.947   6.153
 8464POPC   GL245050  12.006  36.799   6.153
 8464POPC   C1A45051  12.064  36.862   6.453
 8464POPC   D2A45052  12.052  36.889   6.753
 8464POPC   C3A45053  12.109  36.918   7.053
 8464POPC   C4A45054  12.027  36.910   7.353
 8464POPC   C1B45055  11.939  36.654   6.453
 8464POPC   C2B45056  11.921  36.641   6.753
 8464POPC   C3B45057  11.993  36.728   7.053
 8464POPC   C4B45058  11.999  36.649   7.353
 8465POPC   NC345059  22.127  43.108   5.553
 8465POPC   PO445060  22.131  43.105   5.853
 8465POPC   GL145061  22.131  43.066   6.153
 8465POPC   GL245062  22.282  43.172   6.153
 8465POPC   C1A45063  22.153  43.062   6.453
 8465POPC   D2A45064  22.198  43.129   6.753
 8465POPC   C3A45065  22.184  43.154   7.053
 8465POPC   C4A45066  22.125  43.080   7.353
 8465POPC   C1B45067  22.380  43.145   6.453
 8465POPC   C2B45068  22.373  43.195   6.753
 8465POPC   C3B45069  22.444  43.200   7.053
 8465POPC   C4B45070  22.388  43.160   7.353
 8466POPC   NC345071  16.779   2.748   5.553
 8466POPC   PO445072  16.699   2.807   5.853
 8466POPC   GL145073  16.771   2.716   6.153
 8466POPC   GL245074  16.675   2.904   6.153
 8466POPC   C1A45075  16.774   2.735   6.453
 8466POPC   D2A45076  16.756   2.801   6.753
 8466POPC   C3A45077  16.695   2.800   7.053
 8466POPC   C4A45078  16.718   2.787   7.353
 8466POPC   C1B45079  16.620   3.042   6.453
 8466POPC   C2B45080  16.676   3.030   6.753
 8466POPC   C3B45081  16.619   2.955   7.053
 8466POPC   C4B45082  16.646   2.998   7.353
 8467POPC   NC345083   9.765  43.128   5.553
 8467POPC   PO445084   9.703  43.145   5.853
 8467POPC   GL145085   9.735  43.063   6.153
 8467POPC   GL245086   9.654  43.168   6.153
 8467POPC   C1A45087   9.759  43.155   6.453
 8467POPC   D2A45088   9.713  43.072   6.753
 8467POPC   C3A45089   9.748  43.073   7.053
 8467POPC   C4A45090   9.735  43.076   7.353
 8467POPC   C1B45091   9.531  43.162   6.453
 8467POPC   C2B45092   9.563  43.155   6.753
 8467POPC   C3B45093   9.480  43.207   7.053
 8467POPC   C4B45094   9.548  43.194   7.353
 8468POPC   NC345095   9.699  24.494   5.553
 8468POPC   PO445096   9.781  24.442   5.853
 8468POPC   GL145097   9.754  24.516   6.153
 8468POPC   GL245098   9.717  24.389   6.153
 8468POPC   C1A45099   9.769  24.494   6.453
 8468POPC   D2A45100   9.756  24.535   6.753
 8468POPC   C3A45101   9.708  24.527   7.053
 8468POPC   C4A45102   9.771  24.500   7.353
 8468POPC   C1B45103   9.777  24.209   6.453
 8468POPC   C2B45104   9.805  24.194   6.753
 8468POPC   C3B45105   9.765  24.287   7.053
 8468POPC   C4B45106   9.750  24.274   7.353
 8469POPC   NC345107  19.809   0.448   5.553
 8469POPC   PO445108  19.797   0.408   5.853
 8469POPC   GL145109  19.868   0.459   6.153
 8469POPC   GL245110  19.684   0.480   6.153
 8469POPC   C1A45111  19.840   0.405   6.453
 8469POPC   D2A45112  19.808   0.404   6.753
 8469POPC   C3A45113  19.806   0.415   7.053
 8469POPC   C4A45114  19.882   0.446   7.353
 8469POPC   C1B45115  19.570   0.494   6.453
 8469POPC   C2B45116  19.639   0.574   6.753
 8469POPC   C3B45117  19.570   0.502   7.053
 8469POPC   C4B45118  19.630   0.567   7.353
 8470POPC   NC345119   4.287   0.454   5.553
 8470POPC   PO445120   4.316   0.468   5.853
 8470POPC   GL145121   4.308   0.421   6.153
 8470POPC   GL245122   4.277   0.587   6.153
 8470POPC   C1A45123   4.296   0.396   6.453
 8470POPC   D2A45124   4.307   0.421   6.753
 8470POPC   C3A45125   4.286   0.477   7.053
 8470POPC   C4A45126   4.291   0.472   7.353
 8470POPC   C1B45127   4.201   0.644   6.453
 8470POPC   C2B45128   4.272   0.663   6.753
 8470POPC   C3B45129   4.243   0.675   7.053
 8470POPC   C4B45130   4.182   0.714   7.353
 8471POPC   NC345131  25.996  42.305   5.553
 8471POPC   PO445132  26.089  42.292   5.853
 8471POPC   GL145133  26.048  42.316   6.153
 8471POPC   GL245134  25.911  42.348   6.153
 8471POPC   C1A45135  26.030  42.333   6.453
 8471POPC   D2A45136  26.040  42.369   6.753
 8471POPC   C3A45137  26.055  42.332   7.053
 8471POPC   C4A45138  26.060  42.329   7.353
 8471POPC   C1B45139  25.770  42.348   6.453
 8471POPC   C2B45140  25.763  42.387   6.753
 8471POPC   C3B45141  25.799  42.312   7.053
 8471POPC   C4B45142  25.775  42.374   7.353
 8472POPC   NC345143  26.769  37.681   5.553
 8472POPC   PO445144  26.794  37.701   5.853
 8472POPC   GL145145  26.840  37.711   6.153
 8472POPC   GL245146  26.720  37.640   6.153
 8472POPC   C1A45147  26.831  37.661   6.453
 8472POPC   D2A45148  26.823  37.673   6.753
 8472POPC   C3A45149  26.810  37.704   7.053
 8472POPC   C4A45150  26.782  37.726   7.353
 8472POPC   C1B45151  26.648  37.486   6.453
 8472POPC   C2B45152  26.614  37.505   6.753
 8472POPC   C3B45153  26.631  37.525   7.053
 8472POPC   C4B45154  26.655  37.523   7.353
 8473POPC   NC345155   0.436  10.521   5.553
 8473POPC   PO445156   0.418  10.492   5.853
 8473POPC   GL145157   0.424  10.486   6.153
 8473POPC   GL245158   0.380  10.429   6.153
 8473POPC   C1A45159   0.455  10.514   6.453
 8473POPC   D2A45160   0.480  10.533   6.753
 8473POPC   C3A45161   0.396  10.487   7.053
 8473POPC   C4A45162   0.425  10.497   7.353
 8473POPC   C1B45163   0.290  10.354   6.453
 8473POPC   C2B45164   0.250  10.335   6.753
 8473POPC   C3B45165   0.314  10.309   7.053
 8473POPC   C4B45166   0.301  10.320   7.353
 8474POPC   NC345167  43.933  12.842   5.553
 8474POPC   PO445168  43.909  12.839   5.853
 8474POPC   GL145169  43.926  12.816   6.153
 8474POPC   GL245170  43.789  12.794   6.153
 8474POPC   C1A45171  43.838  12.859   6.453
 8474POPC   D2A45172  43.921  12.869   6.753
 8474POPC   C3A45173  43.899  12.817   7.053
 8474POPC   C4A45174  43.843  12.868   7.353
 8474POPC   C1B45175  43.683  12.772   6.453
 8474POPC   C2B45176  43.628  12.797   6.753
 8474POPC   C3B45177  43.630  12.799   7.053
 8474POPC   C4B45178  43.655  12.753   7.353
 8475POPC   NC345179   5.839  28.414   5.553
 8475POPC   PO445180   5.875  28.375   5.853
 8475POPC   GL145181   5.915  28.396   6.153
 8475POPC   GL245182   5.884  28.292   6.153
 8475POPC   C1A45183   5.879  28.396   6.453
 8475POPC   D2A45184   5.859  28.343   6.753
 8475POPC   C3A45185   5.877  28.392   7.053
 8475POPC   C4A45186   5.839  28.345   7.353
 8475POPC   C1B45187   5.924  28.166   6.453
 8475POPC   C2B45188   5.876  28.126   6.753
 8475POPC   C3B45189   5.844  28.093   7.053
 8475POPC   C4B45190   5.843  28.157   7.353
 8476POPC   NC345191  23.704  36.932   5.553
 8476POPC   PO445192  23.708  36.895   5.853
 8476POPC   GL145193  23.707  36.907   6.153
 8476POPC   GL245194  23.789  36.936   6.153
 8476POPC   C1A45195  23.691  36.931   6.453
 8476POPC   D2A45196  23.704  36.917   6.753
 8476POPC   C3A45197  23.759  36.854   7.053
 8476POPC   C4A45198  23.702  36.862   7.353
 8476POPC   C1B45199  23.920  36.928   6.453
 8476POPC   C2B45200  23.963  36.856   6.753
 8476POPC   C3B45201  23.941  36.848   7.053
 8476POPC   C4B45202  23.993  36.856   7.353
 8477POPC   NC345203  15.222   9.730   5.553
 8477POPC   PO445204  15.219   9.744   5.853
 8477POPC   GL145205  15.213   9.736   6.153
 8477POPC   GL245206  15.321   9.751   6.153
 8477POPC   C1A45207  15.208   9.728   6.453
 8477POPC   D2A45208  15.169   9.707   6.753
 8477POPC   C3A45209  15.134   9.774   7.053
 8477POPC   C4A45210  15.154   9.777   7.353
 8477POPC   C1B45211  15.446   9.809   6.453
 8477POPC   C2B45212  15.450   9.801   6.753
 8477POPC   C3B45213  15.395   9.757   7.053
 8477POPC   C4B45214  15.443   9.785   7.353
 8478POPC   NC345215  41.538  22.119   5.553
 8478POPC   PO445216  41.514  22.163   5.853
 8478POPC   GL145217  41.512  22.128   6.153
 8478POPC   GL245218  41.635  22.286   6.153
 8478POPC   C1A45219  41.586  22.137   6.453
 8478POPC   D2A45220  41.583  22.147   6.753
 8478POPC   C3A45221  41.541  22.172   7.053
 8478POPC   C4A45222  41.575  22.153   7.353
 8478POPC   C1B45223  41.624  22.428   6.453
 8478POPC   C2B45224  41.651  22.435   6.753
 8478POPC   C3B45225  41.685  22.431   7.053
 8478POPC   C4B45226  41.654  22.409   7.353
 8479POPC   NC345227  40.760  32.266   5.553
 8479POPC   PO445228  40.739  32.208   5.853
 8479POPC   GL145229  40.752  32.262   6.153
 8479POPC   GL245230  40.814  32.107   6.153
 8479POPC   C1A45231  40.760  32.284   6.453
 8479POPC   D2A45232  40.815  32.284   6.753
 8479POPC   C3A45233  40.827  32.254   7.053
 8479POPC   C4A45234  40.816  32.284   7.353
 8479POPC   C1B45235  40.957  32.083   6.453
 8479POPC   C2B45236  40.963  32.087   6.753
 8479POPC   C3B45237  40.898  32.086   7.053
 8479POPC   C4B45238  40.899  32.013   7.353
 8480POPC   NC345239  35.314  25.307   5.553
 8480POPC   PO445240  35.358  25.277   5.853
 8480POPC   GL145241  35.398  25.227   6.153
 8480POPC   GL245242  35.464  25.257   6.153
 8480POPC   C1A45243  35.370  25.266   6.453
 8480POPC   D2A45244  35.354  25.220   6.753
 8480POPC   C3A45245  35.363  25.265   7.053
 8480POPC   C4A45246  35.399  25.279   7.353
 8480POPC   C1B45247  35.541  25.142   6.453
 8480POPC   C2B45248  35.571  25.184   6.753
 8480POPC   C3B45249  35.541  25.163   7.053
 8480POPC   C4B45250  35.542  25.213   7.353
 8481POPC   NC345251  33.046   9.776   5.553
 8481POPC   PO445252  32.998   9.727   5.853
 8481POPC   GL145253  33.022   9.699   6.153
 8481POPC   GL245254  33.088   9.652   6.153
 8481POPC   C1A45255  33.056   9.717   6.453
 8481POPC   D2A45256  32.997   9.796   6.753
 8481POPC   C3A45257  32.993   9.798   7.053
 8481POPC   C4A45258  33.044   9.772   7.353
 8481POPC   C1B45259  33.071   9.487   6.453
 8481POPC   C2B45260  33.085   9.461   6.753
 8481POPC   C3B45261  33.059   9.513   7.053
 8481POPC   C4B45262  33.122   9.490   7.353
 8482POPC   NC345263  44.618  43.071   5.553
 8482POPC   PO445264  44.624  43.100   5.853
 8482POPC   GL145265  44.711  43.064   6.153
 8482POPC   GL245266  44.721  43.246   6.153
 8482POPC   C1A45267  44.660  43.081   6.453
 8482POPC   D2A45268  44.638  43.064   6.753
 8482POPC   C3A45269  44.635  43.159   7.053
 8482POPC   C4A45270  44.635  43.064   7.353
 8482POPC   C1B45271  44.778  43.345   6.453
 8482POPC   C2B45272  44.721  43.374   6.753
 8482POPC   C3B45273  44.799  43.346   7.053
 8482POPC   C4B45274  44.735  43.295   7.353
 8483POPC   NC345275   8.153  34.572   5.553
 8483POPC   PO445276   8.236  34.605   5.853
 8483POPC   GL145277   8.147  34.566   6.153
 8483POPC   GL245278   8.054  34.501   6.153
 8483POPC   C1A45279   8.164  34.615   6.453
 8483POPC   D2A45280   8.148  34.566   6.753
 8483POPC   C3A45281   8.229  34.577   7.053
 8483POPC   C4A45282   8.162  34.606   7.353
 8483POPC   C1B45283   8.002  34.458   6.453
 8483POPC   C2B45284   7.985  34.453   6.753
 8483POPC   C3B45285   7.921  34.498   7.053
 8483POPC   C4B45286   7.990  34.487   7.353
 8484POPC   NC345287  39.195  29.174   5.553
 8484POPC   PO445288  39.217  29.175   5.853
 8484POPC   GL145289  39.240  29.144   6.153
 8484POPC   GL245290  39.108  29.232   6.153
 8484POPC   C1A45291  39.212  29.130   6.453
 8484POPC   D2A45292  39.182  29.142   6.753
 8484POPC   C3A45293  39.203  29.136   7.053
 8484POPC   C4A45294  39.233  29.157   7.353
 8484POPC   C1B45295  39.052  29.303   6.453
 8484POPC   C2B45296  39.015  29.264   6.753
 8484POPC   C3B45297  39.030  29.342   7.053
 8484POPC   C4B45298  39.057  29.346   7.353
 8485POPC   NC345299   3.584   8.956   5.553
 8485POPC   PO445300   3.503   8.988   5.853
 8485POPC   GL145301   3.575   8.974   6.153
 8485POPC   GL245302   3.439   9.029   6.153
 8485POPC   C1A45303   3.547   8.966   6.453
 8485POPC   D2A45304   3.505   9.008   6.753
 8485POPC   C3A45305   3.523   8.939   7.053
 8485POPC   C4A45306   3.552   8.951   7.353
 8485POPC   C1B45307   3.435   9.177   6.453
 8485POPC   C2B45308   3.413   9.175   6.753
 8485POPC   C3B45309   3.404   9.230   7.053
 8485POPC   C4B45310   3.408   9.168   7.353
 8486POPC   NC345311  26.788  12.050   5.553
 8486POPC   PO445312  26.817  12.053   5.853
 8486POPC   GL145313  26.778  12.111   6.153
 8486POPC   GL245314  26.739  12.012   6.153
 8486POPC   C1A45315  26.826  12.037   6.453
 8486POPC   D2A45316  26.832  12.095   6.753
 8486POPC   C3A45317  26.800  12.068   7.053
 8486POPC   C4A45318  26.824  12.076   7.353
 8486POPC   C1B45319  26.756  11.879   6.453
 8486POPC   C2B45320  26.685  11.859   6.753
 8486POPC   C3B45321  26.721  11.860   7.053
 8486POPC   C4B45322  26.663  11.870   7.353
 8487POPC   NC345323   8.970  29.166   5.553
 8487POPC   PO445324   8.964  29.154   5.853
 8487POPC   GL145325   8.964  29.189   6.153
 8487POPC   GL245326   9.079  29.169   6.153
 8487POPC   C1A45327   8.985  29.137   6.453
 8487POPC   D2A45328   8.935  29.195   6.753
 8487POPC   C3A45329   8.981  29.140   7.053
 8487POPC   C4A45330   8.933  29.179   7.353
 8487POPC   C1B45331   9.162  29.266   6.453
 8487POPC   C2B45332   9.156  29.232   6.753
 8487POPC   C3B45333   9.207  29.249   7.053
 8487POPC   C4B45334   9.152  29.223   7.353
 8488POPC   NC345335  26.815  21.352   5.553
 8488POPC   PO445336  26.857  21.403   5.853
 8488POPC   GL145337  26.794  21.366   6.153
 8488POPC   GL245338  26.843  21.287   6.153
 8488POPC   C1A45339  26.853  21.365   6.453
 8488POPC   D2A45340  26.828  21.398   6.753
 8488POPC   C3A45341  26.853  21.431   7.053
 8488POPC   C4A45342  26.830  21.355   7.353
 8488POPC   C1B45343  26.914  21.117   6.453
 8488POPC   C2B45344  26.901  21.129   6.753
 8488POPC   C3B45345  26.827  21.127   7.053
 8488POPC   C4B45346  26.921  21.181   7.353
 8489POPC   NC345347   1.179  34.607   5.553
 8489POPC   PO445348   1.230  34.560   5.853
 8489POPC   GL145349   1.242  34.565   6.153
 8489POPC   GL245350   1.312  34.500   6.153
 8489POPC   C1A45351   1.219  34.563   6.453
 8489POPC   D2A45352   1.213  34.577   6.753
 8489POPC   C3A45353   1.212  34.626   7.053
 8489POPC   C4A45354   1.255  34.608   7.353
 8489POPC   C1B45355   1.483  34.483   6.453
 8489POPC   C2B45356   1.471  34.479   6.753
 8489POPC   C3B45357   1.410  34.480   7.053
 8489POPC   C4B45358   1.496  34.479   7.353
 8490POPC   NC345359  13.616  12.089   5.553
 8490POPC   PO445360  13.622  12.041   5.853
 8490POPC   GL145361  13.585  12.051   6.153
 8490POPC   GL245362  13.623  12.203   6.153
 8490POPC   C1A45363  13.603  12.107   6.453
 8490POPC   D2A45364  13.648  12.056   6.753
 8490POPC   C3A45365  13.642  12.101   7.053
 8490POPC   C4A45366  13.588  12.074   7.353
 8490POPC   C1B45367  13.677  12.281   6.453
 8490POPC   C2B45368  13.696  12.304   6.753
 8490POPC   C3B45369  13.647  12.295   7.053
 8490POPC   C4B45370  13.696  12.370   7.353
 8491POPC   NC345371   2.001  14.365   5.553
 8491POPC   PO445372   1.947  14.449   5.853
 8491POPC   GL145373   1.978  14.385   6.153
 8491POPC   GL245374   2.103  14.502   6.153
 8491POPC   C1A45375   2.001  14.425   6.453
 8491POPC   D2A45376   1.948  14.418   6.753
 8491POPC   C3A45377   2.012  14.401   7.053
 8491POPC   C4A45378   2.003  14.400   7.353
 8491POPC   C1B45379   2.150  14.589   6.453
 8491POPC   C2B45380   2.096  14.619   6.753
 8491POPC   C3B45381   2.115  14.634   7.053
 8491POPC   C4B45382   2.102  14.653   7.353
 8492POPC   NC345383  42.353  23.741   5.553
 8492POPC   PO445384  42.300  23.699   5.853
 8492POPC   GL145385  42.339  23.745   6.153
 8492POPC   GL245386  42.423  23.791   6.153
 8492POPC   C1A45387  42.336  23.751   6.453
 8492POPC   D2A45388  42.336  23.681   6.753
 8492POPC   C3A45389  42.356  23.690   7.053
 8492POPC   C4A45390  42.287  23.674   7.353
 8492POPC   C1B45391  42.453  23.933   6.453
 8492POPC   C2B45392  42.485  23.967   6.753
 8492POPC   C3B45393  42.462  23.925   7.053
 8492POPC   C4B45394  42.421  23.890   7.353
 8493POPC   NC345395   6.631   4.320   5.553
 8493POPC   PO445396   6.662   4.312   5.853
 8493POPC   GL145397   6.620   4.337   6.153
 8493POPC   GL245398   6.743   4.243   6.153
 8493POPC   C1A45399   6.609   4.350   6.453
 8493POPC   D2A45400   6.645   4.273   6.753
 8493POPC   C3A45401   6.666   4.329   7.053
 8493POPC   C4A45402   6.675   4.287   7.353
 8493POPC   C1B45403   6.898   4.254   6.453
 8493POPC   C2B45404   6.909   4.234   6.753
 8493POPC   C3B45405   6.846   4.251   7.053
 8493POPC   C4B45406   6.852   4.253   7.353
 8494POPC   NC345407   0.427   3.558   5.553
 8494POPC   PO445408   0.454   3.509   5.853
 8494POPC   GL145409   0.412   3.537   6.153
 8494POPC   GL245410   0.414   3.695   6.153
 8494POPC   C1A45411   0.408   3.526   6.453
 8494POPC   D2A45412   0.427   3.570   6.753
 8494POPC   C3A45413   0.456   3.578   7.053
 8494POPC   C4A45414   0.403   3.507   7.353
 8494POPC   C1B45415   0.360   3.797   6.453
 8494POPC   C2B45416   0.311   3.770   6.753
 8494POPC   C3B45417   0.382   3.784   7.053
 8494POPC   C4B45418   0.371   3.786   7.353
 8495POPC   NC345419  15.228  15.919   5.553
 8495POPC   PO445420  15.152  15.921   5.853
 8495POPC   GL145421  15.193  15.980   6.153
 8495POPC   GL245422  15.300  15.942   6.153
 8495POPC   C1A45423  15.132  15.910   6.453
 8495POPC   D2A45424  15.197  15.985   6.753
 8495POPC   C3A45425  15.132  16.004   7.053
 8495POPC   C4A45426  15.228  15.919   7.353
 8495POPC   C1B45427  15.452  16.022   6.453
 8495POPC   C2B45428  15.446  15.991   6.753
 8495POPC   C3B45429  15.393  15.987   7.053
 8495POPC   C4B45430  15.401  15.982   7.353
 8496POPC   NC345431  34.617  29.959   5.553
 8496POPC   PO445432  34.612  29.932   5.853
 8496POPC   GL145433  34.609  29.914   6.153
 8496POPC   GL245434  34.482  29.978   6.153
 8496POPC   C1A45435  34.577  29.879   6.453
 8496POPC   D2A45436  34.584  29.929   6.753
 8496POPC   C3A45437  34.617  29.960   7.053
 8496POPC   C4A45438  34.529  29.884   7.353
 8496POPC   C1B45439  34.342  29.996   6.453
 8496POPC   C2B45440  34.364  29.940   6.753
 8496POPC   C3B45441  34.365  29.921   7.053
 8496POPC   C4B45442  34.279  29.954   7.353
 8497POPC   NC345443   4.289  14.422   5.553
 8497POPC   PO445444   4.268  14.365   5.853
 8497POPC   GL145445   4.339  14.397   6.153
 8497POPC   GL245446   4.451  14.397   6.153
 8497POPC   C1A45447   4.335  14.367   6.453
 8497POPC   D2A45448   4.319  14.363   6.753
 8497POPC   C3A45449   4.310  14.439   7.053
 8497POPC   C4A45450   4.314  14.391   7.353
 8497POPC   C1B45451   4.533  14.463   6.453
 8497POPC   C2B45452   4.527  14.445   6.753
 8497POPC   C3B45453   4.577  14.458   7.053
 8497POPC   C4B45454   4.556  14.453   7.353
 8498POPC   NC345455  15.947   5.052   5.553
 8498POPC   PO445456  15.976   5.052   5.853
 8498POPC   GL145457  15.939   5.110   6.153
 8498POPC   GL245458  16.067   5.096   6.153
 8498POPC   C1A45459  15.960   5.085   6.453
 8498POPC   D2A45460  15.934   5.114   6.753
 8498POPC   C3A45461  15.973   5.101   7.053
 8498POPC   C4A45462  15.996   5.069   7.353
 8498POPC   C1B45463  16.192   5.107   6.453
 8498POPC   C2B45464  16.170   5.044   6.753
 8498POPC   C3B45465  16.187   5.052   7.053
 8498POPC   C4B45466  16.194   5.064   7.353
 8499POPC   NC345467  12.893  40.034   5.553
 8499POPC   PO445468  12.833  40.014   5.853
 8499POPC   GL145469  12.902  39.981   6.153
 8499POPC   GL245470  12.690  40.078   6.153
 8499POPC   C1A45471  12.824  40.027   6.453
 8499POPC   D2A45472  12.900  40.002   6.753
 8499POPC   C3A45473  12.812  40.031   7.053
 8499POPC   C4A45474  12.826  40.056   7.353
 8499POPC   C1B45475  12.601  40.054   6.453
 8499POPC   C2B45476  12.586  40.121   6.753
 8499POPC   C3B45477  12.661  40.039   7.053
 8499POPC   C4B45478  12.587  40.043   7.353
 8500POPC   NC345479  36.866  31.498   5.553
 8500POPC   PO445480  36.938  31.516   5.853
 8500POPC   GL145481  36.951  31.430   6.153
 8500POPC   GL245482  36.891  31.348   6.153
 8500POPC   C1A45483  36.881  31.428   6.453
 8500POPC   D2A45484  36.914  31.493   6.753
 8500POPC   C3A45485  36.917  31.509   7.053
 8500POPC   C4A45486  36.931  31.481   7.353
 8500POPC   C1B45487  36.879  31.261   6.453
 8500POPC   C2B45488  36.863  31.226   6.753
 8500POPC   C3B45489  36.876  31.242   7.053
 8500POPC   C4B45490  36.889  31.210   7.353
 8501POPC   NC345491   1.225   1.231   5.553
 8501POPC   PO445492   1.234   1.252   5.853
 8501POPC   GL145493   1.260   1.241   6.153
 8501POPC   GL245494   1.127   1.356   6.153
 8501POPC   C1A45495   1.218   1.207   6.453
 8501POPC   D2A45496   1.178   1.236   6.753
 8501POPC   C3A45497   1.220   1.256   7.053
 8501POPC   C4A45498   1.248   1.228   7.353
 8501POPC   C1B45499   1.083   1.426   6.453
 8501POPC   C2B45500   1.113   1.480   6.753
 8501POPC   C3B45501   1.059   1.400   7.053
 8501POPC   C4B45502   1.083   1.411   7.353
 8502POPC   NC345503   2.019  19.068   5.553
 8502POPC   PO445504   1.994  19.097   5.853
 8502POPC   GL145505   2.029  19.084   6.153
 8502POPC   GL245506   2.110  19.002   6.153
 8502POPC   C1A45507   1.940  19.088   6.453
 8502POPC   D2A45508   1.995  19.062   6.753
 8502POPC   C3A45509   2.036  19.072   7.053
 8502POPC   C4A45510   1.996  19.058   7.353
 8502POPC   C1B45511   2.230  18.952   6.453
 8502POPC   C2B45512   2.196  18.904   6.753
 8502POPC   C3B45513   2.217  18.931   7.053
 8502POPC   C4B45514   2.207  18.973   7.353
 8503POPC   NC345515  13.656   5.048   5.553
 8503POPC   PO445516  13.621   5.121   5.853
 8503POPC   GL145517  13.614   5.099   6.153
 8503POPC   GL245518  13.571   5.151   6.153
 8503POPC   C1A45519  13.641   5.046   6.453
 8503POPC   D2A45520  13.629   5.107   6.753
 8503POPC   C3A45521  13.662   5.106   7.053
 8503POPC   C4A45522  13.578   5.130   7.353
 8503POPC   C1B45523  13.473   5.307   6.453
 8503POPC   C2B45524  13.429   5.314   6.753
 8503POPC   C3B45525  13.489   5.286   7.053
 8503POPC   C4B45526  13.458   5.270   7.353
 8504POPC   NC345527  41.593  29.905   5.553
 8504POPC   PO445528  41.532  29.947   5.853
 8504POPC   GL145529  41.525  29.922   6.153
 8504POPC   GL245530  41.411  29.899   6.153
 8504POPC   C1A45531  41.576  29.949   6.453
 8504POPC   D2A45532  41.525  29.891   6.753
 8504POPC   C3A45533  41.580  29.894   7.053
 8504POPC   C4A45534  41.562  29.930   7.353
 8504POPC   C1B45535  41.323  30.003   6.453
 8504POPC   C2B45536  41.359  30.004   6.753
 8504POPC   C3B45537  41.279  29.936   7.053
 8504POPC   C4B45538  41.303  30.009   7.353
 8505POPC   NC345539  27.597   1.171   5.553
 8505POPC   PO445540  27.589   1.228   5.853
 8505POPC   GL145541  27.570   1.221   6.153
 8505POPC   GL245542  27.592   1.068   6.153
 8505POPC   C1A45543  27.560   1.187   6.453
 8505POPC   D2A45544  27.614   1.217   6.753
 8505POPC   C3A45545  27.549   1.192   7.053
 8505POPC   C4A45546  27.629   1.251   7.353
 8505POPC   C1B45547  27.589   0.976   6.453
 8505POPC   C2B45548  27.663   0.978   6.753
 8505POPC   C3B45549  27.615   0.931   7.053
 8505POPC   C4B45550  27.653   0.999   7.353
 8506POPC   NC345551  19.854  43.144   5.553
 8506POPC   PO445552  19.793  43.079   5.853
 8506POPC   GL145553  19.835  43.097   6.153
 8506POPC   GL245554  19.916  43.214   6.153
 8506POPC   C1A45555  19.801  43.124   6.453
 8506POPC   D2A45556  19.785  43.094   6.753
 8506POPC   C3A45557  19.827  43.130   7.053
 8506POPC   C4A45558  19.880  43.103   7.353
 8506POPC   C1B45559  19.927  43.377   6.453
 8506POPC   C2B45560  19.925  43.335   6.753
 8506POPC   C3B45561  19.948  43.305   7.053
 8506POPC   C4B45562  19.858  43.304   7.353
 8507POPC   NC345563  12.066  26.000   5.553
 8507POPC   PO445564  12.046  26.036   5.853
 8507POPC   GL145565  12.096  26.087   6.153
 8507POPC   GL245566  12.159  26.189   6.153
 8507POPC   C1A45567  12.034  26.013   6.453
 8507POPC   D2A45568  12.088  26.080   6.753
 8507POPC   C3A45569  12.069  26.032   7.053
 8507POPC   C4A45570  12.034  26.075   7.353
 8507POPC   C1B45571  12.227  26.210   6.453
 8507POPC   C2B45572  12.239  26.244   6.753
 8507POPC   C3B45573  12.238  26.269   7.053
 8507POPC   C4B45574  12.262  26.246   7.353
 8508POPC   NC345575  15.910  14.445   5.553
 8508POPC   PO445576  15.909  14.372   5.853
 8508POPC   GL145577  15.907  14.447   6.153
 8508POPC   GL245578  16.038  14.308   6.153
 8508POPC   C1A45579  15.947  14.401   6.453
 8508POPC   D2A45580  15.973  14.400   6.753
 8508POPC   C3A45581  15.970  14.444   7.053
 8508POPC   C4A45582  15.922  14.397   7.353
 8508POPC   C1B45583  16.187  14.305   6.453
 8508POPC   C2B45584  16.151  14.306   6.753
 8508POPC   C3B45585  16.176  14.304   7.053
 8508POPC   C4B45586  16.157  14.288   7.353
 8509POPC   NC345587   5.893   3.509   5.553
 8509POPC   PO445588   5.887   3.501   5.853
 8509POPC   GL145589   5.919   3.591   6.153
 8509POPC   GL245590   5.803   3.441   6.153
 8509POPC   C1A45591   5.863   3.500   6.453
 8509POPC   D2A45592   5.913   3.577   6.753
 8509POPC   C3A45593   5.861   3.534   7.053
 8509POPC   C4A45594   5.849   3.537   7.353
 8509POPC   C1B45595   5.725   3.279   6.453
 8509POPC   C2B45596   5.724   3.292   6.753
 8509POPC   C3B45597   5.778   3.343   7.053
 8509POPC   C4B45598   5.805   3.296   7.353
 8510POPC   NC345599  25.312  14.386   5.553
 8510POPC   PO445600  25.231  14.404   5.853
 8510POPC   GL145601  25.315  14.438   6.153
 8510POPC   GL245602  25.261  14.572   6.153
 8510POPC   C1A45603  25.219  14.431   6.453
 8510POPC   D2A45604  25.255  14.374   6.753
 8510POPC   C3A45605  25.295  14.386   7.053
 8510POPC   C4A45606  25.256  14.367   7.353
 8510POPC   C1B45607  25.215  14.668   6.453
 8510POPC   C2B45608  25.205  14.676   6.753
 8510POPC   C3B45609  25.249  14.687   7.053
 8510POPC   C4B45610  25.200  14.659   7.353
 8511POPC   NC345611   3.549  19.848   5.553
 8511POPC   PO445612   3.568  19.874   5.853
 8511POPC   GL145613   3.494  19.828   6.153
 8511POPC   GL245614   3.566  19.730   6.153
 8511POPC   C1A45615   3.526  19.840   6.453
 8511POPC   D2A45616   3.535  19.865   6.753
 8511POPC   C3A45617   3.494  19.837   7.053
 8511POPC   C4A45618   3.586  19.862   7.353
 8511POPC   C1B45619   3.613  19.557   6.453
 8511POPC   C2B45620   3.569  19.589   6.753
 8511POPC   C3B45621   3.608  19.559   7.053
 8511POPC   C4B45622   3.618  19.606   7.353
 8512POPC   NC345623  43.062  30.739   5.553
 8512POPC   PO445624  43.155  30.734   5.853
 8512POPC   GL145625  43.066  30.656   6.153
 8512POPC   GL245626  43.150  30.564   6.153
 8512POPC   C1A45627  43.062  30.690   6.453
 8512POPC   D2A45628  43.124  30.669   6.753
 8512POPC   C3A45629  43.076  30.656   7.053
 8512POPC   C4A45630  43.091  30.713   7.353
 8512POPC   C1B45631  43.228  30.438   6.453
 8512POPC   C2B45632  43.270  30.491   6.753
 8512POPC   C3B45633  43.186  30.476   7.053
 8512POPC   C4B45634  43.238  30.433   7.353
 8513POPC   NC345635  33.041   5.053   5.553
 8513POPC   PO445636  32.979   5.136   5.853
 8513POPC   GL145637  33.058   5.140   6.153
 8513POPC   GL245638  32.895   5.100   6.153
 8513POPC   C1A45639  32.988   5.080   6.453
 8513POPC   D2A45640  33.025   5.087   6.753
 8513POPC   C3A45641  33.071   5.092   7.053
 8513POPC   C4A45642  32.983   5.122   7.353
 8513POPC   C1B45643  32.806   5.140   6.453
 8513POPC   C2B45644  32.757   5.126   6.753
 8513POPC   C3B45645  32.746   5.109   7.053
 8513POPC   C4B45646  32.766   5.187   7.353
 8514POPC   NC345647  23.706  15.163   5.553
 8514POPC   PO445648  23.665  15.164   5.853
 8514POPC   GL145649  23.703  15.138   6.153
 8514POPC   GL245650  23.821  15.045   6.153
 8514POPC   C1A45651  23.721  15.146   6.453
 8514POPC   D2A45652  23.723  15.191   6.753
 8514POPC   C3A45653  23.667  15.146   7.053
 8514POPC   C4A45654  23.739  15.152   7.353
 8514POPC   C1B45655  23.927  14.997   6.453
 8514POPC   C2B45656  23.875  15.039   6.753
 8514POPC   C3B45657  23.893  14.952   7.053
 8514POPC   C4B45658  23.910  14.960   7.353
 8515POPC   NC345659  43.088   3.549   5.553
 8515POPC   PO445660  43.147   3.497   5.853
 8515POPC   GL145661  43.120   3.586   6.153
 8515POPC   GL245662  43.056   3.602   6.153
 8515POPC   C1A45663  43.131   3.510   6.453
 8515POPC   D2A45664  43.124   3.514   6.753
 8515POPC   C3A45665  43.107   3.518   7.053
 8515POPC   C4A45666  43.143   3.520   7.353
 8515POPC   C1B45667  42.905   3.740   6.453
 8515POPC   C2B45668  42.890   3.770   6.753
 8515POPC   C3B45669  42.951   3.674   7.053
 8515POPC   C4B45670  42.931   3.687   7.353
 8516POPC   NC345671  14.354   1.178   5.553
 8516POPC   PO445672  14.425   1.196   5.853
 8516POPC   GL145673  14.420   1.196   6.153
 8516POPC   GL245674  14.501   1.095   6.153
 8516POPC   C1A45675  14.402   1.262   6.453
 8516POPC   D2A45676  14.443   1.252   6.753
 8516POPC   C3A45677  14.365   1.193   7.053
 8516POPC   C4A45678  14.434   1.225   7.353
 8516POPC   C1B45679  14.569   1.016   6.453
 8516POPC   C2B45680  14.565   1.069   6.753
 8516POPC   C3B45681  14.612   1.017   7.053
 8516POPC   C4B45682  14.608   0.984   7.353
 8517POPC   NC345683  19.014  42.356   5.553
 8517POPC   PO445684  19.066  42.287   5.853
 8517POPC   GL145685  19.024  42.349   6.153
 8517POPC   GL245686  19.179  42.245   6.153
 8517POPC   C1A45687  19.094  42.328   6.453
 8517POPC   D2A45688  19.019  42.291   6.753
 8517POPC   C3A45689  19.059  42.380   7.053
 8517POPC   C4A45690  19.038  42.337   7.353
 8517POPC   C1B45691  19.309  42.251   6.453
 8517POPC   C2B45692  19.321  42.254   6.753
 8517POPC   C3B45693  19.242  42.285   7.053
 8517POPC   C4B45694  19.308  42.286   7.353
 8518POPC   NC345695  44.655  19.009   5.553
 8518POPC   PO445696  44.707  19.082   5.853
 8518POPC   GL145697  44.624  19.100   6.153
 8518POPC   GL245698  44.592  18.966   6.153
 8518POPC   C1A45699  44.627  19.036   6.453
 8518POPC   D2A45700  44.628  19.042   6.753
 8518POPC   C3A45701  44.625  19.058   7.053
 8518POPC   C4A45702  44.693  19.104   7.353
 8518POPC   C1B45703  44.578  18.772   6.453
 8518POPC   C2B45704  44.581  18.784   6.753
 8518POPC   C3B45705  44.570  18.773   7.053
 8518POPC   C4B45706  44.577  18.830   7.353
 8519POPC   NC345707  29.937  20.579   5.553
 8519POPC   PO445708  29.912  20.638   5.853
 8519POPC   GL145709  29.877  20.594   6.153
 8519POPC   GL245710  30.022  20.745   6.153
 8519POPC   C1A45711  29.931  20.612   6.453
 8519POPC   D2A45712  29.883  20.623   6.753
 8519POPC   C3A45713  29.944  20.622   7.053
 8519POPC   C4A45714  29.928  20.603   7.353
 8519POPC   C1B45715  30.011  20.872   6.453
 8519POPC   C2B45716  30.030  20.864   6.753
 8519POPC   C3B45717  30.042  20.865   7.053
 8519POPC   C4B45718  30.007  20.821   7.353
 8520POPC   NC345719   5.068  12.059   5.553
 8520POPC   PO445720   5.061  12.096   5.853
 8520POPC   GL145721   5.079  12.052   6.153
 8520POPC   GL245722   5.226  12.101   6.153
 8520POPC   C1A45723   5.070  12.075   6.453
 8520POPC   D2A45724   5.111  12.058   6.753
 8520POPC   C3A45725   5.130  12.045   7.053
 8520POPC   C4A45726   5.123  12.106   7.353
 8520POPC   C1B45727   5.367  12.169   6.453
 8520POPC   C2B45728   5.371  12.123   6.753
 8520POPC   C3B45729   5.350  12.197   7.053
 8520POPC   C4B45730   5.321  12.129   7.353
 8521POPC   NC345731  44.635   6.631   5.553
 8521POPC   PO445732  44.654   6.683   5.853
 8521POPC   GL145733  44.625   6.634   6.153
 8521POPC   GL245734  44.735   6.496   6.153
 8521POPC   C1A45735  44.637   6.605   6.453
 8521POPC   D2A45736  44.614   6.597   6.753
 8521POPC   C3A45737  44.636   6.679   7.053
 8521POPC   C4A45738  44.659   6.598   7.353
 8521POPC   C1B45739  44.722   6.420   6.453
 8521POPC   C2B45740  44.774   6.428   6.753
 8521POPC   C3B45741  44.718   6.406   7.053
 8521POPC   C4B45742  44.773   6.368   7.353
 8522POPC   NC345743  29.925   1.989   5.553
 8522POPC   PO445744  29.957   1.997   5.853
 8522POPC   GL145745  29.910   1.984   6.153
 8522POPC   GL245746  29.775   1.990   6.153
 8522POPC   C1A45747  29.916   1.954   6.453
 8522POPC   D2A45748  29.940   2.004   6.753
 8522POPC   C3A45749  29.909   1.991   7.053
 8522POPC   C4A45750  29.919   1.983   7.353
 8522POPC   C1B45751  29.645   2.014   6.453
 8522POPC   C2B45752  29.697   2.027   6.753
 8522POPC   C3B45753  29.661   1.985   7.053
 8522POPC   C4B45754  29.719   1.987   7.353
 8523POPC   NC345755  25.218  13.651   5.553
 8523POPC   PO445756  25.295  13.673   5.853
 8523POPC   GL145757  25.223  13.633   6.153
 8523POPC   GL245758  25.386  13.610   6.153
 8523POPC   C1A45759  25.247  13.639   6.453
 8523POPC   D2A45760  25.222  13.621   6.753
 8523POPC   C3A45761  25.254  13.610   7.053
 8523POPC   C4A45762  25.315  13.622   7.353
 8523POPC   C1B45763  25.513  13.566   6.453
 8523POPC   C2B45764  25.514  13.628   6.753
 8523POPC   C3B45765  25.560  13.592   7.053
 8523POPC   C4B45766  25.497  13.646   7.353
 8524POPC   NC345767  21.425  15.931   5.553
 8524POPC   PO445768  21.352  15.961   5.853
 8524POPC   GL145769  21.344  15.968   6.153
 8524POPC   GL245770  21.397  16.062   6.153
 8524POPC   C1A45771  21.398  15.925   6.453
 8524POPC   D2A45772  21.432  15.971   6.753
 8524POPC   C3A45773  21.394  15.970   7.053
 8524POPC   C4A45774  21.373  15.977   7.353
 8524POPC   C1B45775  21.358  16.156   6.453
 8524POPC   C2B45776  21.285  16.166   6.753
 8524POPC   C3B45777  21.298  16.147   7.053
 8524POPC   C4B45778  21.366  16.169   7.353
 8525POPC   NC345779   7.429  35.381   5.553
 8525POPC   PO445780   7.466  35.380   5.853
 8525POPC   GL145781   7.409  35.328   6.153
 8525POPC   GL245782   7.432  35.192   6.153
 8525POPC   C1A45783   7.430  35.337   6.453
 8525POPC   D2A45784   7.435  35.344   6.753
 8525POPC   C3A45785   7.423  35.326   7.053
 8525POPC   C4A45786   7.395  35.401   7.353
 8525POPC   C1B45787   7.556  35.105   6.453
 8525POPC   C2B45788   7.474  35.159   6.753
 8525POPC   C3B45789   7.533  35.168   7.053
 8525POPC   C4B45790   7.490  35.168   7.353
 8526POPC   NC345791   9.733  12.072   5.553
 8526POPC   PO445792   9.718  12.035   5.853
 8526POPC   GL145793   9.758  12.028   6.153
 8526POPC   GL245794   9.737  11.971   6.153
 8526POPC   C1A45795   9.705  12.030   6.453
 8526POPC   D2A45796   9.784  12.103   6.753
 8526POPC   C3A45797   9.788  12.059   7.053
 8526POPC   C4A45798   9.716  12.044   7.353
 8526POPC   C1B45799   9.811  11.851   6.453
 8526POPC   C2B45800   9.783  11.840   6.753
 8526POPC   C3B45801   9.738  11.783   7.053
 8526POPC   C4B45802   9.770  11.860   7.353
 8527POPC   NC345803  36.094  33.063   5.553
 8527POPC   PO445804  36.151  33.053   5.853
 8527POPC   GL145805  36.089  33.062   6.153
 8527POPC   GL245806  36.256  32.950   6.153
 8527POPC   C1A45807  36.103  33.041   6.453
 8527POPC   D2A45808  36.113  32.985   6.753
 8527POPC   C3A45809  36.153  33.005   7.053
 8527POPC   C4A45810  36.157  33.014   7.353
 8527POPC   C1B45811  36.313  32.877   6.453
 8527POPC   C2B45812  36.302  32.859   6.753
 8527POPC   C3B45813  36.262  32.868   7.053
 8527POPC   C4B45814  36.315  32.849   7.353
 8528POPC   NC345815  40.744  23.682   5.553
 8528POPC   PO445816  40.812  23.750   5.853
 8528POPC   GL145817  40.738  23.687   6.153
 8528POPC   GL245818  40.797  23.560   6.153
 8528POPC   C1A45819  40.783  23.749   6.453
 8528POPC   D2A45820  40.779  23.705   6.753
 8528POPC   C3A45821  40.750  23.751   7.053
 8528POPC   C4A45822  40.736  23.678   7.353
 8528POPC   C1B45823  40.821  23.486   6.453
 8528POPC   C2B45824  40.832  23.424   6.753
 8528POPC   C3B45825  40.773  23.418   7.053
 8528POPC   C4B45826  40.826  23.481   7.353
 8529POPC   NC345827  42.295  28.381   5.553
 8529POPC   PO445828  42.299  28.373   5.853
 8529POPC   GL145829  42.305  28.386   6.153
 8529POPC   GL245830  42.409  28.295   6.153
 8529POPC   C1A45831  42.369  28.395   6.453
 8529POPC   D2A45832  42.319  28.370   6.753
 8529POPC   C3A45833  42.291  28.393   7.053
 8529POPC   C4A45834  42.354  28.362   7.353
 8529POPC   C1B45835  42.568  28.237   6.453
 8529POPC   C2B45836  42.584  28.288   6.753
 8529POPC   C3B45837  42.604  28.248   7.053
 8529POPC   C4B45838  42.521  28.294   7.353
 8530POPC   NC345839  41.572  24.526   5.553
 8530POPC   PO445840  41.509  24.531   5.853
 8530POPC   GL145841  41.573  24.480   6.153
 8530POPC   GL245842  41.531  24.576   6.153
 8530POPC   C1A45843  41.596  24.505   6.453
 8530POPC   D2A45844  41.583  24.522   6.753
 8530POPC   C3A45845  41.518  24.531   7.053
 8530POPC   C4A45846  41.591  24.535   7.353
 8530POPC   C1B45847  41.388  24.708   6.453
 8530POPC   C2B45848  41.432  24.681   6.753
 8530POPC   C3B45849  41.419  24.702   7.053
 8530POPC   C4B45850  41.413  24.687   7.353
 8531POPC   NC345851  39.247  22.951   5.553
 8531POPC   PO445852  39.271  22.937   5.853
 8531POPC   GL145853  39.273  22.896   6.153
 8531POPC   GL245854  39.162  22.818   6.153
 8531POPC   C1A45855  39.276  22.907   6.453
 8531POPC   D2A45856  39.203  22.928   6.753
 8531POPC   C3A45857  39.194  22.902   7.053
 8531POPC   C4A45858  39.251  22.948   7.353
 8531POPC   C1B45859  39.101  22.759   6.453
 8531POPC   C2B45860  39.102  22.725   6.753
 8531POPC   C3B45861  39.116  22.714   7.053
 8531POPC   C4B45862  39.067  22.718   7.353
 8532POPC   NC345863   7.414  12.040   5.553
 8532POPC   PO445864   7.443  12.084   5.853
 8532POPC   GL145865   7.450  12.053   6.153
 8532POPC   GL245866   7.432  11.961   6.153
 8532POPC   C1A45867   7.422  12.049   6.453
 8532POPC   D2A45868   7.390  12.033   6.753
 8532POPC   C3A45869   7.443  12.095   7.053
 8532POPC   C4A45870   7.378  12.077   7.353
 8532POPC   C1B45871   7.510  11.846   6.453
 8532POPC   C2B45872   7.466  11.861   6.753
 8532POPC   C3B45873   7.553  11.878   7.053
 8532POPC   C4B45874   7.470  11.863   7.353
 8533POPC   NC345875  22.114  15.980   5.553
 8533POPC   PO445876  22.183  15.946   5.853
 8533POPC   GL145877  22.181  15.978   6.153
 8533POPC   GL245878  22.285  15.950   6.153
 8533POPC   C1A45879  22.171  15.955   6.453
 8533POPC   D2A45880  22.135  15.954   6.753
 8533POPC   C3A45881  22.133  15.967   7.053
 8533POPC   C4A45882  22.125  15.953   7.353
 8533POPC   C1B45883  22.396  15.909   6.453
 8533POPC   C2B45884  22.403  15.925   6.753
 8533POPC   C3B45885  22.430  15.941   7.053
 8533POPC   C4B45886  22.374  15.977   7.353
 8534POPC   NC345887  19.090  19.881   5.553
 8534POPC   PO445888  19.042  19.841   5.853
 8534POPC   GL145889  19.039  19.876   6.153
 8534POPC   GL245890  18.990  19.750   6.153
 8534POPC   C1A45891  19.060  19.873   6.453
 8534POPC   D2A45892  19.084  19.836   6.753
 8534POPC   C3A45893  19.085  19.820   7.053
 8534POPC   C4A45894  19.087  19.855   7.353
 8534POPC   C1B45895  18.911  19.641   6.453
 8534POPC   C2B45896  18.846  19.698   6.753
 8534POPC   C3B45897  18.909  19.635   7.053
 8534POPC   C4B45898  18.916  19.691   7.353
 8535POPC   NC345899  43.893  32.223   5.553
 8535POPC   PO445900  43.864  32.208   5.853
 8535POPC   GL145901  43.925  32.210   6.153
 8535POPC   GL245902  43.992  32.223   6.153
 8535POPC   C1A45903  43.921  32.270   6.453
 8535POPC   D2A45904  43.903  32.250   6.753
 8535POPC   C3A45905  43.899  32.215   7.053
 8535POPC   C4A45906  43.903  32.263   7.353
 8535POPC   C1B45907  44.159  32.309   6.453
 8535POPC   C2B45908  44.152  32.248   6.753
 8535POPC   C3B45909  44.101  32.311   7.053
 8535POPC   C4B45910  44.132  32.248   7.353
 8536POPC   NC345911   1.245  14.364   5.553
 8536POPC   PO445912   1.192  14.424   5.853
 8536POPC   GL145913   1.249  14.378   6.153
 8536POPC   GL245914   1.198  14.477   6.153
 8536POPC   C1A45915   1.213  14.428   6.453
 8536POPC   D2A45916   1.219  14.418   6.753
 8536POPC   C3A45917   1.247  14.387   7.053
 8536POPC   C4A45918   1.241  14.414   7.353
 8536POPC   C1B45919   1.111  14.676   6.453
 8536POPC   C2B45920   1.062  14.631   6.753
 8536POPC   C3B45921   1.083  14.680   7.053
 8536POPC   C4B45922   1.125  14.641   7.353
 8537POPC   NC345923   7.446  33.040   5.553
 8537POPC   PO445924   7.390  33.011   5.853
 8537POPC   GL145925   7.417  33.072   6.153
 8537POPC   GL245926   7.435  33.164   6.153
 8537POPC   C1A45927   7.433  33.025   6.453
 8537POPC   D2A45928   7.462  33.052   6.753
 8537POPC   C3A45929   7.380  33.024   7.053
 8537POPC   C4A45930   7.378  32.990   7.353
 8537POPC   C1B45931   7.587  33.242   6.453
 8537POPC   C2B45932   7.523  33.238   6.753
 8537POPC   C3B45933   7.510  33.280   7.053
 8537POPC   C4B45934   7.515  33.225   7.353
 8538POPC   NC345935  33.771   2.029   5.553
 8538POPC   PO445936  33.819   1.994   5.853
 8538POPC   GL145937  33.760   2.039   6.153
 8538POPC   GL245938  33.700   1.920   6.153
 8538POPC   C1A45939  33.825   1.943   6.453
 8538POPC   D2A45940  33.805   1.992   6.753
 8538POPC   C3A45941  33.809   1.992   7.053
 8538POPC   C4A45942  33.766   1.986   7.353
 8538POPC   C1B45943  33.618   1.878   6.453
 8538POPC   C2B45944  33.596   1.861   6.753
 8538POPC   C3B45945  33.633   1.868   7.053
 8538POPC   C4B45946  33.563   1.846   7.353
 8539POPC   NC345947  32.267  22.172   5.553
 8539POPC   PO445948  32.226  22.159   5.853
 8539POPC   GL145949  32.206  22.171   6.153
 8539POPC   GL245950  32.095  22.162   6.153
 8539POPC   C1A45951  32.215  22.199   6.453
 8539POPC   D2A45952  32.278  22.203   6.753
 8539POPC   C3A45953  32.230  22.136   7.053
 8539POPC   C4A45954  32.284  22.151   7.353
 8539POPC   C1B45955  31.980  22.187   6.453
 8539POPC   C2B45956  32.041  22.187   6.753
 8539POPC   C3B45957  32.000  22.111   7.053
 8539POPC   C4B45958  32.008  22.124   7.353
 8540POPC   NC345959  22.976  33.844   5.553
 8540POPC   PO445960  22.917  33.828   5.853
 8540POPC   GL145961  22.934  33.780   6.153
 8540POPC   GL245962  22.876  33.699   6.153
 8540POPC   C1A45963  22.944  33.834   6.453
 8540POPC   D2A45964  22.902  33.835   6.753
 8540POPC   C3A45965  22.913  33.836   7.053
 8540POPC   C4A45966  22.920  33.754   7.353
 8540POPC   C1B45967  22.721  33.641   6.453
 8540POPC   C2B45968  22.706  33.649   6.753
 8540POPC   C3B45969  22.712  33.692   7.053
 8540POPC   C4B45970  22.722  33.701   7.353
 8541POPC   NC345971  26.056   3.533   5.553
 8541POPC   PO445972  26.000   3.549   5.853
 8541POPC   GL145973  26.043   3.492   6.153
 8541POPC   GL245974  26.067   3.694   6.153
 8541POPC   C1A45975  26.001   3.528   6.453
 8541POPC   D2A45976  26.049   3.526   6.753
 8541POPC   C3A45977  26.061   3.524   7.053
 8541POPC   C4A45978  26.052   3.530   7.353
 8541POPC   C1B45979  26.079   3.743   6.453
 8541POPC   C2B45980  26.086   3.791   6.753
 8541POPC   C3B45981  26.030   3.835   7.053
 8541POPC   C4B45982  26.050   3.747   7.353
 8542POPC   NC345983  19.851  33.788   5.553
 8542POPC   PO445984  19.840  33.842   5.853
 8542POPC   GL145985  19.803  33.840   6.153
 8542POPC   GL245986  19.740  33.760   6.153
 8542POPC   C1A45987  19.840  33.785   6.453
 8542POPC   D2A45988  19.876  33.757   6.753
 8542POPC   C3A45989  19.807  33.838   7.053
 8542POPC   C4A45990  19.819  33.825   7.353
 8542POPC   C1B45991  19.635  33.734   6.453
 8542POPC   C2B45992  19.632  33.640   6.753
 8542POPC   C3B45993  19.605  33.654   7.053
 8542POPC   C4B45994  19.658  33.682   7.353
 8543POPC   NC345995  15.136  12.122   5.553
 8543POPC   PO445996  15.183  12.063   5.853
 8543POPC   GL145997  15.187  12.038   6.153
 8543POPC   GL245998  15.102  12.044   6.153
 8543POPC   C1A45999  15.224  12.046   6.453
 8543POPC   D2A46000  15.157  12.091   6.753
 8543POPC   C3A46001  15.203  12.033   7.053
 8543POPC   C4A46002  15.183  12.035   7.353
 8543POPC   C1B46003  14.945  12.088   6.453
 8543POPC   C2B46004  14.885  12.122   6.753
 8543POPC   C3B46005  14.905  12.081   7.053
 8543POPC   C4B46006  14.939  12.125   7.353
 8544POPC   NC346007  24.472   1.207   5.553
 8544POPC   PO446008  24.455   1.218   5.853
 8544POPC   GL146009  24.507   1.217   6.153
 8544POPC   GL246010  24.557   1.297   6.153
 8544POPC   C1A46011  24.441   1.252   6.453
 8544POPC   D2A46012  24.501   1.207   6.753
 8544POPC   C3A46013  24.442   1.176   7.053
 8544POPC   C4A46014  24.461   1.225   7.353
 8544POPC   C1B46015  24.744   1.401   6.453
 8544POPC   C2B46016  24.704   1.369   6.753
 8544POPC   C3B46017  24.729   1.305   7.053
 8544POPC   C4B46018  24.683   1.357   7.353
 8545POPC   NC346019  35.356  19.094   5.553
 8545POPC   PO446020  35.309  19.029   5.853
 8545POPC   GL146021  35.400  19.014   6.153
 8545POPC   GL246022  35.287  18.998   6.153
 8545POPC   C1A46023  35.402  19.019   6.453
 8545POPC   D2A46024  35.381  19.048   6.753
 8545POPC   C3A46025  35.389  19.014   7.053
 8545POPC   C4A46026  35.353  19.018   7.353
 8545POPC   C1B46027  35.208  18.890   6.453
 8545POPC   C2B46028  35.159  18.843   6.753
 8545POPC   C3B46029  35.182  18.842   7.053
 8545POPC   C4B46030  35.212  18.929   7.353
 8546POPC   NC346031  38.431   1.983   5.553
 8546POPC   PO446032  38.412   2.036   5.853
 8546POPC   GL146033  38.486   1.969   6.153
 8546POPC   GL246034  38.409   1.850   6.153
 8546POPC   C1A46035  38.473   1.997   6.453
 8546POPC   D2A46036  38.453   1.954   6.753
 8546POPC   C3A46037  38.452   1.975   7.053
 8546POPC   C4A46038  38.455   2.027   7.353
 8546POPC   C1B46039  38.344   1.779   6.453
 8546POPC   C2B46040  38.336   1.800   6.753
 8546POPC   C3B46041  38.284   1.748   7.053
 8546POPC   C4B46042  38.317   1.748   7.353
 8547POPC   NC346043  29.926  26.793   5.553
 8547POPC   PO446044  29.960  26.800   5.853
 8547POPC   GL146045  29.908  26.815   6.153
 8547POPC   GL246046  29.879  26.704   6.153
 8547POPC   C1A46047  29.939  26.831   6.453
 8547POPC   D2A46048  29.949  26.839   6.753
 8547POPC   C3A46049  29.958  26.774   7.053
 8547POPC   C4A46050  29.935  26.782   7.353
 8547POPC   C1B46051  29.849  26.543   6.453
 8547POPC   C2B46052  29.789  26.620   6.753
 8547POPC   C3B46053  29.875  26.615   7.053
 8547POPC   C4B46054  29.863  26.547   7.353
 8548POPC   NC346055  10.546   8.175   5.553
 8548POPC   PO446056  10.568   8.214   5.853
 8548POPC   GL146057  10.506   8.157   6.153
 8548POPC   GL246058  10.479   8.076   6.153
 8548POPC   C1A46059  10.476   8.161   6.453
 8548POPC   D2A46060  10.523   8.147   6.753
 8548POPC   C3A46061  10.537   8.167   7.053
 8548POPC   C4A46062  10.480   8.180   7.353
 8548POPC   C1B46063  10.486   7.923   6.453
 8548POPC   C2B46064  10.466   7.980   6.753
 8548POPC   C3B46065  10.457   7.952   7.053
 8548POPC   C4B46066  10.453   7.911   7.353
 8549POPC   NC346067  13.650  23.739   5.553
 8549POPC   PO446068  13.654  23.699   5.853
 8549POPC   GL146069  13.670  23.676   6.153
 8549POPC   GL246070  13.619  23.594   6.153
 8549POPC   C1A46071  13.611  23.762   6.453
 8549POPC   D2A46072  13.579  23.701   6.753
 8549POPC   C3A46073  13.635  23.664   7.053
 8549POPC   C4A46074  13.586  23.681   7.353
 8549POPC   C1B46075  13.659  23.501   6.453
 8549POPC   C2B46076  13.586  23.514   6.753
 8549POPC   C3B46077  13.581  23.444   7.053
 8549POPC   C4B46078  13.582  23.509   7.353
 8550POPC   NC346079   5.079  34.622   5.553
 8550POPC   PO446080   5.094  34.543   5.853
 8550POPC   GL146081   5.079  34.529   6.153
 8550POPC   GL246082   5.240  34.538   6.153
 8550POPC   C1A46083   5.050  34.589   6.453
 8550POPC   D2A46084   5.087  34.530   6.753
 8550POPC   C3A46085   5.120  34.542   7.053
 8550POPC   C4A46086   5.138  34.567   7.353
 8550POPC   C1B46087   5.308  34.474   6.453
 8550POPC   C2B46088   5.349  34.509   6.753
 8550POPC   C3B46089   5.321  34.493   7.053
 8550POPC   C4B46090   5.312  34.545   7.353
 8551POPC   NC346091   2.751  21.352   5.553
 8551POPC   PO446092   2.725  21.356   5.853
 8551POPC   GL146093   2.803  21.372   6.153
 8551POPC   GL246094   2.878  21.329   6.153
 8551POPC   C1A46095   2.737  21.360   6.453
 8551POPC   D2A46096   2.812  21.352   6.753
 8551POPC   C3A46097   2.758  21.400   7.053
 8551POPC   C4A46098   2.757  21.399   7.353
 8551POPC   C1B46099   2.961  21.241   6.453
 8551POPC   C2B46100   2.950  21.279   6.753
 8551POPC   C3B46101   2.970  21.219   7.053
 8551POPC   C4B46102   2.967  21.227   7.353
 8552POPC   NC346103  43.852  15.996   5.553
 8552POPC   PO446104  43.866  15.942   5.853
 8552POPC   GL146105  43.855  16.004   6.153
 8552POPC   GL246106  43.940  16.034   6.153
 8552POPC   C1A46107  43.897  15.935   6.453
 8552POPC   D2A46108  43.841  15.974   6.753
 8552POPC   C3A46109  43.862  15.926   7.053
 8552POPC   C4A46110  43.917  15.929   7.353
 8552POPC   C1B46111  44.054  16.150   6.453
 8552POPC   C2B46112  44.031  16.143   6.753
 8552POPC   C3B46113  43.986  16.114   7.053
 8552POPC   C4B46114  43.995  16.205   7.353
 8553POPC   NC346115   0.481  22.980   5.553
 8553POPC   PO446116   0.410  22.917   5.853
 8553POPC   GL146117   0.417  22.981   6.153
 8553POPC   GL246118   0.280  22.992   6.153
 8553POPC   C1A46119   0.420  22.906   6.453
 8553POPC   D2A46120   0.404  22.924   6.753
 8553POPC   C3A46121   0.404  22.981   7.053
 8553POPC   C4A46122   0.395  22.909   7.353
 8553POPC   C1B46123   0.205  23.105   6.453
 8553POPC   C2B46124   0.188  23.090   6.753
 8553POPC   C3B46125   0.255  23.026   7.053
 8553POPC   C4B46126   0.246  23.100   7.353
 8554POPC   NC346127  12.062  34.581   5.553
 8554POPC   PO446128  12.041  34.585   5.853
 8554POPC   GL146129  12.095  34.610   6.153
 8554POPC   GL246130  11.989  34.632   6.153
 8554POPC   C1A46131  12.114  34.601   6.453
 8554POPC   D2A46132  12.119  34.598   6.753
 8554POPC   C3A46133  12.036  34.576   7.053
 8554POPC   C4A46134  12.111  34.563   7.353
 8554POPC   C1B46135  11.809  34.661   6.453
 8554POPC   C2B46136  11.830  34.676   6.753
 8554POPC   C3B46137  11.806  34.648   7.053
 8554POPC   C4B46138  11.858  34.681   7.353
 8555POPC   NC346139   0.442  36.888   5.553
 8555POPC   PO446140   0.416  36.901   5.853
 8555POPC   GL146141   0.419  36.858   6.153
 8555POPC   GL246142   0.485  37.044   6.153
 8555POPC   C1A46143   0.478  36.952   6.453
 8555POPC   D2A46144   0.409  36.873   6.753
 8555POPC   C3A46145   0.423  36.914   7.053
 8555POPC   C4A46146   0.434  36.893   7.353
 8555POPC   C1B46147   0.603  37.042   6.453
 8555POPC   C2B46148   0.582  37.063   6.753
 8555POPC   C3B46149   0.591  37.040   7.053
 8555POPC   C4B46150   0.592  37.049   7.353
 8556POPC   NC346151  37.707  15.161   5.553
 8556POPC   PO446152  37.691  15.155   5.853
 8556POPC   GL146153  37.641  15.166   6.153
 8556POPC   GL246154  37.546  15.138   6.153
 8556POPC   C1A46155  37.681  15.150   6.453
 8556POPC   D2A46156  37.706  15.165   6.753
 8556POPC   C3A46157  37.671  15.134   7.053
 8556POPC   C4A46158  37.652  15.194   7.353
 8556POPC   C1B46159  37.482  15.119   6.453
 8556POPC   C2B46160  37.449  15.067   6.753
 8556POPC   C3B46161  37.485  15.051   7.053
 8556POPC   C4B46162  37.475  15.060   7.353
 8557POPC   NC346163  21.423  22.139   5.553
 8557POPC   PO446164  21.405  22.195   5.853
 8557POPC   GL146165  21.378  22.117   6.153
 8557POPC   GL246166  21.491  22.083   6.153
 8557POPC   C1A46167  21.382  22.120   6.453
 8557POPC   D2A46168  21.350  22.118   6.753
 8557POPC   C3A46169  21.432  22.146   7.053
 8557POPC   C4A46170  21.376  22.130   7.353
 8557POPC   C1B46171  21.554  21.994   6.453
 8557POPC   C2B46172  21.618  22.058   6.753
 8557POPC   C3B46173  21.592  22.062   7.053
 8557POPC   C4B46174  21.609  22.005   7.353
 8558POPC   NC346175   4.363  35.354   5.553
 8558POPC   PO446176   4.365  35.399   5.853
 8558POPC   GL146177   4.344  35.349   6.153
 8558POPC   GL246178   4.376  35.442   6.153
 8558POPC   C1A46179   4.321  35.315   6.453
 8558POPC   D2A46180   4.336  35.357   6.753
 8558POPC   C3A46181   4.294  35.337   7.053
 8558POPC   C4A46182   4.309  35.303   7.353
 8558POPC   C1B46183   4.434  35.587   6.453
 8558POPC   C2B46184   4.410  35.559   6.753
 8558POPC   C3B46185   4.408  35.554   7.053
 8558POPC   C4B46186   4.482  35.526   7.353
 8559POPC   NC346187  22.900  20.583   5.553
 8559POPC   PO446188  22.985  20.625   5.853
 8559POPC   GL146189  22.935  20.656   6.153
 8559POPC   GL246190  22.826  20.571   6.153
 8559POPC   C1A46191  22.908  20.618   6.453
 8559POPC   D2A46192  22.942  20.564   6.753
 8559POPC   C3A46193  22.933  20.592   7.053
 8559POPC   C4A46194  22.903  20.636   7.353
 8559POPC   C1B46195  22.674  20.634   6.453
 8559POPC   C2B46196  22.736  20.567   6.753
 8559POPC   C3B46197  22.707  20.547   7.053
 8559POPC   C4B46198  22.670  20.623   7.353
 8560POPC   NC346199  36.857   7.412   5.553
 8560POPC   PO446200  36.936   7.460   5.853
 8560POPC   GL146201  36.942   7.383   6.153
 8560POPC   GL246202  36.930   7.267   6.153
 8560POPC   C1A46203  36.897   7.456   6.453
 8560POPC   D2A46204  36.885   7.460   6.753
 8560POPC   C3A46205  36.913   7.456   7.053
 8560POPC   C4A46206  36.889   7.441   7.353
 8560POPC   C1B46207  36.999   7.144   6.453
 8560POPC   C2B46208  36.912   7.164   6.753
 8560POPC   C3B46209  36.992   7.208   7.053
 8560POPC   C4B46210  36.941   7.135   7.353
 8561POPC   NC346211  43.074  16.729   5.553
 8561POPC   PO446212  43.075  16.779   5.853
 8561POPC   GL146213  43.131  16.754   6.153
 8561POPC   GL246214  42.973  16.774   6.153
 8561POPC   C1A46215  43.124  16.700   6.453
 8561POPC   D2A46216  43.062  16.702   6.753
 8561POPC   C3A46217  43.078  16.738   7.053
 8561POPC   C4A46218  43.152  16.704   7.353
 8561POPC   C1B46219  42.876  16.774   6.453
 8561POPC   C2B46220  42.853  16.717   6.753
 8561POPC   C3B46221  42.894  16.746   7.053
 8561POPC   C4B46222  42.818  16.709   7.353
 8562POPC   NC346223  28.357  35.310   5.553
 8562POPC   PO446224  28.358  35.313   5.853
 8562POPC   GL146225  28.319  35.398   6.153
 8562POPC   GL246226  28.414  35.182   6.153
 8562POPC   C1A46227  28.326  35.339   6.453
 8562POPC   D2A46228  28.324  35.329   6.753
 8562POPC   C3A46229  28.409  35.323   7.053
 8562POPC   C4A46230  28.346  35.312   7.353
 8562POPC   C1B46231  28.407  35.071   6.453
 8562POPC   C2B46232  28.400  35.145   6.753
 8562POPC   C3B46233  28.329  35.146   7.053
 8562POPC   C4B46234  28.363  35.148   7.353
 8563POPC   NC346235  41.517  26.859   5.553
 8563POPC   PO446236  41.523  26.776   5.853
 8563POPC   GL146237  41.550  26.794   6.153
 8563POPC   GL246238  41.545  26.921   6.153
 8563POPC   C1A46239  41.536  26.829   6.453
 8563POPC   D2A46240  41.569  26.797   6.753
 8563POPC   C3A46241  41.567  26.843   7.053
 8563POPC   C4A46242  41.572  26.781   7.353
 8563POPC   C1B46243  41.566  27.023   6.453
 8563POPC   C2B46244  41.540  27.039   6.753
 8563POPC   C3B46245  41.590  27.027   7.053
 8563POPC   C4B46246  41.572  27.046   7.353
 8564POPC   NC346247  43.103  36.151   5.553
 8564POPC   PO446248  43.150  36.115   5.853
 8564POPC   GL146249  43.137  36.090   6.153
 8564POPC   GL246250  43.182  36.050   6.153
 8564POPC   C1A46251  43.092  36.128   6.453
 8564POPC   D2A46252  43.114  36.098   6.753
 8564POPC   C3A46253  43.138  36.140   7.053
 8564POPC   C4A46254  43.108  36.090   7.353
 8564POPC   C1B46255  43.375  36.034   6.453
 8564POPC   C2B46256  43.381  36.075   6.753
 8564POPC   C3B46257  43.336  35.988   7.053
 8564POPC   C4B46258  43.386  36.028   7.353
 8565POPC   NC346259  42.344   3.512   5.553
 8565POPC   PO446260  42.382   3.523   5.853
 8565POPC   GL146261  42.286   3.584   6.153
 8565POPC   GL246262  42.277   3.454   6.153
 8565POPC   C1A46263  42.381   3.505   6.453
 8565POPC   D2A46264  42.306   3.526   6.753
 8565POPC   C3A46265  42.331   3.510   7.053
 8565POPC   C4A46266  42.318   3.533   7.353
 8565POPC   C1B46267  42.310   3.346   6.453
 8565POPC   C2B46268  42.270   3.287   6.753
 8565POPC   C3B46269  42.292   3.332   7.053
 8565POPC   C4B46270  42.244   3.251   7.353
 8566POPC   NC346271   1.211   3.521   5.553
 8566POPC   PO446272   1.255   3.511   5.853
 8566POPC   GL146273   1.251   3.507   6.153
 8566POPC   GL246274   1.295   3.605   6.153
 8566POPC   C1A46275   1.255   3.503   6.453
 8566POPC   D2A46276   1.248   3.578   6.753
 8566POPC   C3A46277   1.201   3.586   7.053
 8566POPC   C4A46278   1.168   3.516   7.353
 8566POPC   C1B46279   1.409   3.707   6.453
 8566POPC   C2B46280   1.386   3.701   6.753
 8566POPC   C3B46281   1.381   3.687   7.053
 8566POPC   C4B46282   1.368   3.741   7.353
 8567POPC   NC346283  26.050  20.652   5.553
 8567POPC   PO446284  26.091  20.620   5.853
 8567POPC   GL146285  26.061  20.647   6.153
 8567POPC   GL246286  25.935  20.689   6.153
 8567POPC   C1A46287  26.000  20.605   6.453
 8567POPC   D2A46288  26.041  20.607   6.753
 8567POPC   C3A46289  26.006  20.624   7.053
 8567POPC   C4A46290  26.034  20.624   7.353
 8567POPC   C1B46291  25.884  20.812   6.453
 8567POPC   C2B46292  25.885  20.779   6.753
 8567POPC   C3B46293  25.873  20.813   7.053
 8567POPC   C4B46294  25.908  20.806   7.353
 8568POPC   NC346295   7.392  37.720   5.553
 8568POPC   PO446296   7.434  37.717   5.853
 8568POPC   GL146297   7.379  37.716   6.153
 8568POPC   GL246298   7.566  37.684   6.153
 8568POPC   C1A46299   7.447  37.690   6.453
 8568POPC   D2A46300   7.431  37.680   6.753
 8568POPC   C3A46301   7.383  37.687   7.053
 8568POPC   C4A46302   7.425  37.682   7.353
 8568POPC   C1B46303   7.667  37.637   6.453
 8568POPC   C2B46304   7.707  37.649   6.753
 8568POPC   C3B46305   7.672  37.558   7.053
 8568POPC   C4B46306   7.694  37.560   7.353
 8569POPC   NC346307   2.030   5.115   5.553
 8569POPC   PO446308   1.999   5.087   5.853
 8569POPC   GL146309   2.002   5.129   6.153
 8569POPC   GL246310   1.930   4.927   6.153
 8569POPC   C1A46311   1.986   5.044   6.453
 8569POPC   D2A46312   1.972   5.086   6.753
 8569POPC   C3A46313   1.967   5.100   7.053
 8569POPC   C4A46314   1.975   5.059   7.353
 8569POPC   C1B46315   1.914   4.861   6.453
 8569POPC   C2B46316   1.972   4.867   6.753
 8569POPC   C3B46317   1.890   4.885   7.053
 8569POPC   C4B46318   1.911   4.894   7.353
 8570POPC   NC346319  40.023  26.831   5.553
 8570POPC   PO446320  40.039  26.835   5.853
 8570POPC   GL146321  40.044  26.846   6.153
 8570POPC   GL246322  40.137  26.803   6.153
 8570POPC   C1A46323  39.983  26.769   6.453
 8570POPC   D2A46324  40.023  26.834   6.753
 8570POPC   C3A46325  40.042  26.798   7.053
 8570POPC   C4A46326  39.961  26.779   7.353
 8570POPC   C1B46327  40.233  26.660   6.453
 8570POPC   C2B46328  40.255  26.722   6.753
 8570POPC   C3B46329  40.212  26.717   7.053
 8570POPC   C4B46330  40.228  26.742   7.353
 8571POPC   NC346331  35.319   1.242   5.553
 8571POPC   PO446332  35.308   1.217   5.853
 8571POPC   GL146333  35.348   1.186   6.153
 8571POPC   GL246334  35.268   1.184   6.153
 8571POPC   C1A46335  35.334   1.205   6.453
 8571POPC   D2A46336  35.333   1.193   6.753
 8571POPC   C3A46337  35.353   1.184   7.053
 8571POPC   C4A46338  35.359   1.212   7.353
 8571POPC   C1B46339  35.093   1.131   6.453
 8571POPC   C2B46340  35.105   1.186   6.753
 8571POPC   C3B46341  35.097   1.167   7.053
 8571POPC   C4B46342  35.073   1.112   7.353
 8572POPC   NC346343   4.307   9.713   5.553
 8572POPC   PO446344   4.365   9.791   5.853
 8572POPC   GL146345   4.341   9.794   6.153
 8572POPC   GL246346   4.284   9.836   6.153
 8572POPC   C1A46347   4.330   9.780   6.453
 8572POPC   D2A46348   4.301   9.717   6.753
 8572POPC   C3A46349   4.359   9.711   7.053
 8572POPC   C4A46350   4.298   9.744   7.353
 8572POPC   C1B46351   4.275  10.041   6.453
 8572POPC   C2B46352   4.301   9.970   6.753
 8572POPC   C3B46353   4.256   9.992   7.053
 8572POPC   C4B46354   4.257  10.005   7.353
 8573POPC   NC346355   7.424  14.437   5.553
 8573POPC   PO446356   7.419  14.422   5.853
 8573POPC   GL146357   7.439  14.414   6.153
 8573POPC   GL246358   7.475  14.259   6.153
 8573POPC   C1A46359   7.443  14.386   6.453
 8573POPC   D2A46360   7.380  14.416   6.753
 8573POPC   C3A46361   7.445  14.429   7.053
 8573POPC   C4A46362   7.449  14.433   7.353
 8573POPC   C1B46363   7.479  14.146   6.453
 8573POPC   C2B46364   7.536  14.180   6.753
 8573POPC   C3B46365   7.550  14.158   7.053
 8573POPC   C4B46366   7.493  14.144   7.353
 8574POPC   NC346367   0.453   8.944   5.553
 8574POPC   PO446368   0.461   8.979   5.853
 8574POPC   GL146369   0.485   8.950   6.153
 8574POPC   GL246370   0.435   9.074   6.153
 8574POPC   C1A46371   0.443   8.950   6.453
 8574POPC   D2A46372   0.391   8.998   6.753
 8574POPC   C3A46373   0.476   9.020   7.053
 8574POPC   C4A46374   0.393   8.933   7.353
 8574POPC   C1B46375   0.417   9.250   6.453
 8574POPC   C2B46376   0.434   9.226   6.753
 8574POPC   C3B46377   0.434   9.244   7.053
 8574POPC   C4B46378   0.352   9.253   7.353
 8575POPC   NC346379  22.116  17.545   5.553
 8575POPC   PO446380  22.177  17.486   5.853
 8575POPC   GL146381  22.204  17.473   6.153
 8575POPC   GL246382  22.068  17.575   6.153
 8575POPC   C1A46383  22.169  17.487   6.453
 8575POPC   D2A46384  22.184  17.528   6.753
 8575POPC   C3A46385  22.123  17.485   7.053
 8575POPC   C4A46386  22.200  17.521   7.353
 8575POPC   C1B46387  21.981  17.678   6.453
 8575POPC   C2B46388  22.012  17.711   6.753
 8575POPC   C3B46389  21.917  17.668   7.053
 8575POPC   C4B46390  21.951  17.621   7.353
 8576POPC   NC346391  12.042  26.837   5.553
 8576POPC   PO446392  12.076  26.813   5.853
 8576POPC   GL146393  12.115  26.853   6.153
 8576POPC   GL246394  12.219  26.819   6.153
 8576POPC   C1A46395  12.125  26.784   6.453
 8576POPC   D2A46396  12.101  26.786   6.753
 8576POPC   C3A46397  12.099  26.828   7.053
 8576POPC   C4A46398  12.114  26.790   7.353
 8576POPC   C1B46399  12.304  26.909   6.453
 8576POPC   C2B46400  12.333  26.848   6.753
 8576POPC   C3B46401  12.303  26.864   7.053
 8576POPC   C4B46402  12.331  26.845   7.353
 8577POPC   NC346403   8.208   9.707   5.553
 8577POPC   PO446404   8.226   9.741   5.853
 8577POPC   GL146405   8.164   9.767   6.153
 8577POPC   GL246406   8.038   9.732   6.153
 8577POPC   C1A46407   8.231   9.766   6.453
 8577POPC   D2A46408   8.164   9.796   6.753
 8577POPC   C3A46409   8.230   9.774   7.053
 8577POPC   C4A46410   8.149   9.725   7.353
 8577POPC   C1B46411   7.943   9.631   6.453
 8577POPC   C2B46412   7.974   9.662   6.753
 8577POPC   C3B46413   7.972   9.611   7.053
 8577POPC   C4B46414   7.964   9.652   7.353
 8578POPC   NC346415   1.177  43.158   5.553
 8578POPC   PO446416   1.199  43.151   5.853
 8578POPC   GL146417   1.167  43.063   6.153
 8578POPC   GL246418   1.302  43.069   6.153
 8578POPC   C1A46419   1.200  43.100   6.453
 8578POPC   D2A46420   1.231  43.121   6.753
 8578POPC   C3A46421   1.223  43.144   7.053
 8578POPC   C4A46422   1.218  43.130   7.353
 8578POPC   C1B46423   1.490  43.048   6.453
 8578POPC   C2B46424   1.424  43.085   6.753
 8578POPC   C3B46425   1.416  43.071   7.053
 8578POPC   C4B46426   1.430  43.084   7.353
 8579POPC   NC346427  43.124  25.279   5.553
 8579POPC   PO446428  43.070  25.288   5.853
 8579POPC   GL146429  43.083  25.217   6.153
 8579POPC   GL246430  43.157  25.342   6.153
 8579POPC   C1A46431  43.080  25.305   6.453
 8579POPC   D2A46432  43.109  25.286   6.753
 8579POPC   C3A46433  43.147  25.237   7.053
 8579POPC   C4A46434  43.089  25.240   7.353
 8579POPC   C1B46435  43.305  25.438   6.453
 8579POPC   C2B46436  43.306  25.408   6.753
 8579POPC   C3B46437  43.312  25.396   7.053
 8579POPC   C4B46438  43.281  25.382   7.353
 8580POPC   NC346439  17.487  40.047   5.553
 8580POPC   PO446440  17.479  40.043   5.853
 8580POPC   GL146441  17.509  39.968   6.153
 8580POPC   GL246442  17.632  39.973   6.153
 8580POPC   C1A46443  17.550  40.047   6.453
 8580POPC   D2A46444  17.468  39.961   6.753
 8580POPC   C3A46445  17.466  40.000   7.053
 8580POPC   C4A46446  17.458  40.008   7.353
 8580POPC   C1B46447  17.725  39.955   6.453
 8580POPC   C2B46448  17.788  39.947   6.753
 8580POPC   C3B46449  17.701  39.991   7.053
 8580POPC   C4B46450  17.782  39.964   7.353
 8581POPC   NC346451  25.294  12.848   5.553
 8581POPC   PO446452  25.281  12.846   5.853
 8581POPC   GL146453  25.290  12.893   6.153
 8581POPC   GL246454  25.297  12.744   6.153
 8581POPC   C1A46455  25.284  12.880   6.453
 8581POPC   D2A46456  25.285  12.870   6.753
 8581POPC   C3A46457  25.305  12.881   7.053
 8581POPC   C4A46458  25.229  12.863   7.353
 8581POPC   C1B46459  25.324  12.609   6.453
 8581POPC   C2B46460  25.270  12.556   6.753
 8581POPC   C3B46461  25.244  12.606   7.053
 8581POPC   C4B46462  25.322  12.618   7.353
 8582POPC   NC346463  26.774  22.889   5.553
 8582POPC   PO446464  26.831  22.899   5.853
 8582POPC   GL146465  26.816  22.967   6.153
 8582POPC   GL246466  26.666  22.925   6.153
 8582POPC   C1A46467  26.812  22.953   6.453
 8582POPC   D2A46468  26.866  22.919   6.753
 8582POPC   C3A46469  26.823  22.899   7.053
 8582POPC   C4A46470  26.785  22.950   7.353
 8582POPC   C1B46471  26.581  22.981   6.453
 8582POPC   C2B46472  26.605  22.929   6.753
 8582POPC   C3B46473  26.532  22.958   7.053
 8582POPC   C4B46474  26.607  22.925   7.353
 8583POPC   NC346475   4.297  41.548   5.553
 8583POPC   PO446476   4.355  41.594   5.853
 8583POPC   GL146477   4.268  41.588   6.153
 8583POPC   GL246478   4.270  41.689   6.153
 8583POPC   C1A46479   4.317  41.535   6.453
 8583POPC   D2A46480   4.280  41.521   6.753
 8583POPC   C3A46481   4.302  41.566   7.053
 8583POPC   C4A46482   4.312  41.553   7.353
 8583POPC   C1B46483   4.251  41.782   6.453
 8583POPC   C2B46484   4.241  41.793   6.753
 8583POPC   C3B46485   4.270  41.758   7.053
 8583POPC   C4B46486   4.232  41.758   7.353
 8584POPC   NC346487  29.191   4.350   5.553
 8584POPC   PO446488  29.163   4.353   5.853
 8584POPC   GL146489  29.140   4.324   6.153
 8584POPC   GL246490  29.282   4.286   6.153
 8584POPC   C1A46491  29.120   4.277   6.453
 8584POPC   D2A46492  29.097   4.317   6.753
 8584POPC   C3A46493  29.192   4.311   7.053
 8584POPC   C4A46494  29.122   4.361   7.353
 8584POPC   C1B46495  29.435   4.288   6.453
 8584POPC   C2B46496  29.355   4.271   6.753
 8584POPC   C3B46497  29.353   4.309   7.053
 8584POPC   C4B46498  29.412   4.244   7.353
 8585POPC   NC346499   0.427   1.176   5.553
 8585POPC   PO446500   0.391   1.239   5.853
 8585POPC   GL146501   0.416   1.214   6.153
 8585POPC   GL246502   0.323   1.190   6.153
 8585POPC   C1A46503   0.485   1.239   6.453
 8585POPC   D2A46504   0.477   1.241   6.753
 8585POPC   C3A46505   0.444   1.240   7.053
 8585POPC   C4A46506   0.395   1.236   7.353
 8585POPC   C1B46507   0.220   1.185   6.453
 8585POPC   C2B46508   0.142   1.193   6.753
 8585POPC   C3B46509   0.227   1.137   7.053
 8585POPC   C4B46510   0.142   1.185   7.353
 8586POPC   NC346511   7.404  26.043   5.553
 8586POPC   PO446512   7.373  26.060   5.853
 8586POPC   GL146513   7.429  26.015   6.153
 8586POPC   GL246514   7.426  25.876   6.153
 8586POPC   C1A46515   7.461  26.031   6.453
 8586POPC   D2A46516   7.376  26.055   6.753
 8586POPC   C3A46517   7.423  26.029   7.053
 8586POPC   C4A46518   7.450  26.090   7.353
 8586POPC   C1B46519   7.403  25.844   6.453
 8586POPC   C2B46520   7.364  25.751   6.753
 8586POPC   C3B46521   7.332  25.765   7.053
 8586POPC   C4B46522   7.325  25.827   7.353
 8587POPC   NC346523   5.828  43.867   5.553
 8587POPC   PO446524   5.837  43.909   5.853
 8587POPC   GL146525   5.825  43.859   6.153
 8587POPC   GL246526   5.817  43.804   6.153
 8587POPC   C1A46527   5.867  43.856   6.453
 8587POPC   D2A46528   5.876  43.844   6.753
 8587POPC   C3A46529   5.914  43.840   7.053
 8587POPC   C4A46530   5.894  43.851   7.353
 8587POPC   C1B46531   5.739  43.602   6.453
 8587POPC   C2B46532   5.800  43.641   6.753
 8587POPC   C3B46533   5.824  43.610   7.053
 8587POPC   C4B46534   5.814  43.631   7.353
 8588POPC   NC346535   1.178  37.691   5.553
 8588POPC   PO446536   1.249  37.667   5.853
 8588POPC   GL146537   1.167  37.631   6.153
 8588POPC   GL246538   1.356  37.766   6.153
 8588POPC   C1A46539   1.198  37.728   6.453
 8588POPC   D2A46540   1.184  37.686   6.753
 8588POPC   C3A46541   1.188  37.633   7.053
 8588POPC   C4A46542   1.240  37.682   7.353
 8588POPC   C1B46543   1.377  37.892   6.453
 8588POPC   C2B46544   1.376  37.889   6.753
 8588POPC   C3B46545   1.434  37.862   7.053
 8588POPC   C4B46546   1.446  37.863   7.353
 8589POPC   NC346547  18.298  19.038   5.553
 8589POPC   PO446548  18.274  19.056   5.853
 8589POPC   GL146549  18.318  19.037   6.153
 8589POPC   GL246550  18.327  18.888   6.153
 8589POPC   C1A46551  18.260  19.020   6.453
 8589POPC   D2A46552  18.271  19.107   6.753
 8589POPC   C3A46553  18.317  19.019   7.053
 8589POPC   C4A46554  18.258  19.070   7.353
 8589POPC   C1B46555  18.260  18.841   6.453
 8589POPC   C2B46556  18.294  18.845   6.753
 8589POPC   C3B46557  18.289  18.847   7.053
 8589POPC   C4B46558  18.336  18.846   7.353
 8590POPC   NC346559  30.674   4.338   5.553
 8590POPC   PO446560  30.660   4.285   5.853
 8590POPC   GL146561  30.657   4.294   6.153
 8590POPC   GL246562  30.700   4.412   6.153
 8590POPC   C1A46563  30.699   4.333   6.453
 8590POPC   D2A46564  30.650   4.310   6.753
 8590POPC   C3A46565  30.713   4.363   7.053
 8590POPC   C4A46566  30.735   4.318   7.353
 8590POPC   C1B46567  30.631   4.537   6.453
 8590POPC   C2B46568  30.588   4.509   6.753
 8590POPC   C3B46569  30.564   4.597   7.053
 8590POPC   C4B46570  30.639   4.519   7.353
 8591POPC   NC346571  37.639  43.840   5.553
 8591POPC   PO446572  37.677  43.861   5.853
 8591POPC   GL146573  37.692  43.896   6.153
 8591POPC   GL246574  37.571  43.973   6.153
 8591POPC   C1A46575  37.634  43.915   6.453
 8591POPC   D2A46576  37.664  43.910   6.753
 8591POPC   C3A46577  37.678  43.913   7.053
 8591POPC   C4A46578  37.650  43.880   7.353
 8591POPC   C1B46579  37.465  44.053   6.453
 8591POPC   C2B46580  37.467  44.033   6.753
 8591POPC   C3B46581  37.526  44.020   7.053
 8591POPC   C4B46582  37.513  44.083   7.353
 8592POPC   NC346583  38.486  33.752   5.553
 8592POPC   PO446584  38.430  33.788   5.853
 8592POPC   GL146585  38.487  33.764   6.153
 8592POPC   GL246586  38.310  33.777   6.153
 8592POPC   C1A46587  38.482  33.828   6.453
 8592POPC   D2A46588  38.436  33.799   6.753
 8592POPC   C3A46589  38.473  33.807   7.053
 8592POPC   C4A46590  38.418  33.757   7.353
 8592POPC   C1B46591  38.203  33.697   6.453
 8592POPC   C2B46592  38.277  33.630   6.753
 8592POPC   C3B46593  38.198  33.653   7.053
 8592POPC   C4B46594  38.197  33.671   7.353
 8593POPC   NC346595   2.802   7.390   5.553
 8593POPC   PO446596   2.795   7.468   5.853
 8593POPC   GL146597   2.736   7.448   6.153
 8593POPC   GL246598   2.880   7.312   6.153
 8593POPC   C1A46599   2.811   7.434   6.453
 8593POPC   D2A46600   2.784   7.414   6.753
 8593POPC   C3A46601   2.738   7.463   7.053
 8593POPC   C4A46602   2.798   7.444   7.353
 8593POPC   C1B46603   2.913   7.203   6.453
 8593POPC   C2B46604   2.895   7.190   6.753
 8593POPC   C3B46605   2.914   7.189   7.053
 8593POPC   C4B46606   2.940   7.161   7.353
 8594POPC   NC346607  33.791  11.278   5.553
 8594POPC   PO446608  33.806  11.259   5.853
 8594POPC   GL146609  33.803  11.326   6.153
 8594POPC   GL246610  33.832  11.438   6.153
 8594POPC   C1A46611  33.814  11.264   6.453
 8594POPC   D2A46612  33.798  11.315   6.753
 8594POPC   C3A46613  33.764  11.283   7.053
 8594POPC   C4A46614  33.796  11.298   7.353
 8594POPC   C1B46615  33.840  11.575   6.453
 8594POPC   C2B46616  33.852  11.580   6.753
 8594POPC   C3B46617  33.797  11.592   7.053
 8594POPC   C4B46618  33.826  11.559   7.353
 8595POPC   NC346619  15.136  43.886   5.553
 8595POPC   PO446620  15.166  43.922   5.853
 8595POPC   GL146621  15.146  43.933   6.153
 8595POPC   GL246622  15.025  43.961   6.153
 8595POPC   C1A46623  15.170  43.886   6.453
 8595POPC   D2A46624  15.152  43.888   6.753
 8595POPC   C3A46625  15.155  43.903   7.053
 8595POPC   C4A46626  15.179  43.867   7.353
 8595POPC   C1B46627  14.988  44.012   6.453
 8595POPC   C2B46628  14.945  44.057   6.753
 8595POPC   C3B46629  14.915  44.031   7.053
 8595POPC   C4B46630  14.915  43.994   7.353
 8596POPC   NC346631   5.061  43.112   5.553
 8596POPC   PO446632   5.053  43.092   5.853
 8596POPC   GL146633   5.133  43.152   6.153
 8596POPC   GL246634   5.148  43.205   6.153
 8596POPC   C1A46635   5.134  43.127   6.453
 8596POPC   D2A46636   5.111  43.159   6.753
 8596POPC   C3A46637   5.118  43.133   7.053
 8596POPC   C4A46638   5.081  43.119   7.353
 8596POPC   C1B46639   5.067  43.335   6.453
 8596POPC   C2B46640   5.101  43.362   6.753
 8596POPC   C3B46641   5.141  43.382   7.053
 8596POPC   C4B46642   5.126  43.319   7.353
 8597POPC   NC346643   8.984  19.864   5.553
 8597POPC   PO446644   9.018  19.832   5.853
 8597POPC   GL146645   9.011  19.865   6.153
 8597POPC   GL246646   8.943  19.690   6.153
 8597POPC   C1A46647   8.937  19.840   6.453
 8597POPC   D2A46648   8.953  19.861   6.753
 8597POPC   C3A46649   8.965  19.880   7.053
 8597POPC   C4A46650   9.010  19.791   7.353
 8597POPC   C1B46651   8.801  19.670   6.453
 8597POPC   C2B46652   8.841  19.675   6.753
 8597POPC   C3B46653   8.772  19.591   7.053
 8597POPC   C4B46654   8.866  19.682   7.353
 8598POPC   NC346655  35.364  12.878   5.553
 8598POPC   PO446656  35.359  12.849   5.853
 8598POPC   GL146657  35.307  12.865   6.153
 8598POPC   GL246658  35.487  12.836   6.153
 8598POPC   C1A46659  35.396  12.873   6.453
 8598POPC   D2A46660  35.354  12.833   6.753
 8598POPC   C3A46661  35.386  12.832   7.053
 8598POPC   C4A46662  35.302  12.893   7.353
 8598POPC   C1B46663  35.554  12.846   6.453
 8598POPC   C2B46664  35.633  12.868   6.753
 8598POPC   C3B46665  35.639  12.822   7.053
 8598POPC   C4B46666  35.613  12.792   7.353
 8599POPC   NC346667  35.307   8.215   5.553
 8599POPC   PO446668  35.387   8.244   5.853
 8599POPC   GL146669  35.337   8.156   6.153
 8599POPC   GL246670  35.507   8.138   6.153
 8599POPC   C1A46671  35.358   8.152   6.453
 8599POPC   D2A46672  35.356   8.199   6.753
 8599POPC   C3A46673  35.309   8.199   7.053
 8599POPC   C4A46674  35.353   8.192   7.353
 8599POPC   C1B46675  35.588   8.155   6.453
 8599POPC   C2B46676  35.618   8.133   6.753
 8599POPC   C3B46677  35.564   8.176   7.053
 8599POPC   C4B46678  35.639   8.113   7.353
 8600POPC   NC346679   1.195   9.720   5.553
 8600POPC   PO446680   1.198   9.727   5.853
 8600POPC   GL146681   1.221   9.789   6.153
 8600POPC   GL246682   1.248   9.900   6.153
 8600POPC   C1A46683   1.169   9.702   6.453
 8600POPC   D2A46684   1.171   9.798   6.753
 8600POPC   C3A46685   1.257   9.747   7.053
 8600POPC   C4A46686   1.224   9.708   7.353
 8600POPC   C1B46687   1.264  10.001   6.453
 8600POPC   C2B46688   1.235  10.005   6.753
 8600POPC   C3B46689   1.248  10.013   7.053
 8600POPC   C4B46690   1.208   9.973   7.353
 8601POPC   NC346691  27.621  40.036   5.553
 8601POPC   PO446692  27.641  39.961   5.853
 8601POPC   GL146693  27.550  39.980   6.153
 8601POPC   GL246694  27.688  39.908   6.153
 8601POPC   C1A46695  27.555  40.003   6.453
 8601POPC   D2A46696  27.573  40.042   6.753
 8601POPC   C3A46697  27.544  40.044   7.053
 8601POPC   C4A46698  27.571  39.971   7.353
 8601POPC   C1B46699  27.803  39.825   6.453
 8601POPC   C2B46700  27.828  39.908   6.753
 8601POPC   C3B46701  27.780  39.867   7.053
 8601POPC   C4B46702  27.809  39.896   7.353
 8602POPC   NC346703  30.732  37.660   5.553
 8602POPC   PO446704  30.681  37.642   5.853
 8602POPC   GL146705  30.726  37.694   6.153
 8602POPC   GL246706  30.609  37.557   6.153
 8602POPC   C1A46707  30.745  37.670   6.453
 8602POPC   D2A46708  30.698  37.720   6.753
 8602POPC   C3A46709  30.720  37.709   7.053
 8602POPC   C4A46710  30.706  37.654   7.353
 8602POPC   C1B46711  30.512  37.467   6.453
 8602POPC   C2B46712  30.521  37.478   6.753
 8602POPC   C3B46713  30.536  37.461   7.053
 8602POPC   C4B46714  30.560  37.505   7.353
 8603POPC   NC346715  29.165  19.823   5.553
 8603POPC   PO446716  29.099  19.794   5.853
 8603POPC   GL146717  29.130  19.793   6.153
 8603POPC   GL246718  29.144  19.971   6.153
 8603POPC   C1A46719  29.143  19.870   6.453
 8603POPC   D2A46720  29.181  19.846   6.753
 8603POPC   C3A46721  29.187  19.869   7.053
 8603POPC   C4A46722  29.135  19.868   7.353
 8603POPC   C1B46723  29.120  20.079   6.453
 8603POPC   C2B46724  29.108  20.083   6.753
 8603POPC   C3B46725  29.120  20.060   7.053
 8603POPC   C4B46726  29.103  20.085   7.353
 8604POPC   NC346727  26.847  40.765   5.553
 8604POPC   PO446728  26.775  40.795   5.853
 8604POPC   GL146729  26.826  40.792   6.153
 8604POPC   GL246730  26.868  40.698   6.153
 8604POPC   C1A46731  26.772  40.781   6.453
 8604POPC   D2A46732  26.799  40.774   6.753
 8604POPC   C3A46733  26.797  40.773   7.053
 8604POPC   C4A46734  26.843  40.783   7.353
 8604POPC   C1B46735  26.942  40.523   6.453
 8604POPC   C2B46736  26.929  40.561   6.753
 8604POPC   C3B46737  26.883  40.520   7.053
 8604POPC   C4B46738  26.892  40.594   7.353
 8605POPC   NC346739  14.378  17.535   5.553
 8605POPC   PO446740  14.393  17.527   5.853
 8605POPC   GL146741  14.386  17.509   6.153
 8605POPC   GL246742  14.400  17.597   6.153
 8605POPC   C1A46743  14.357  17.485   6.453
 8605POPC   D2A46744  14.407  17.497   6.753
 8605POPC   C3A46745  14.423  17.529   7.053
 8605POPC   C4A46746  14.367  17.468   7.353
 8605POPC   C1B46747  14.433  17.779   6.453
 8605POPC   C2B46748  14.407  17.782   6.753
 8605POPC   C3B46749  14.417  17.740   7.053
 8605POPC   C4B46750  14.433  17.712   7.353
 8606POPC   NC346751  37.700   2.737   5.553
 8606POPC   PO446752  37.682   2.752   5.853
 8606POPC   GL146753  37.690   2.746   6.153
 8606POPC   GL246754  37.800   2.643   6.153
 8606POPC   C1A46755  37.693   2.719   6.453
 8606POPC   D2A46756  37.682   2.749   6.753
 8606POPC   C3A46757  37.632   2.810   7.053
 8606POPC   C4A46758  37.724   2.801   7.353
 8606POPC   C1B46759  37.827   2.590   6.453
 8606POPC   C2B46760  37.886   2.632   6.753
 8606POPC   C3B46761  37.850   2.545   7.053
 8606POPC   C4B46762  37.881   2.549   7.353
 8607POPC   NC346763  42.344  14.441   5.553
 8607POPC   PO446764  42.299  14.451   5.853
 8607POPC   GL146765  42.334  14.406   6.153
 8607POPC   GL246766  42.261  14.457   6.153
 8607POPC   C1A46767  42.363  14.372   6.453
 8607POPC   D2A46768  42.373  14.436   6.753
 8607POPC   C3A46769  42.353  14.375   7.053
 8607POPC   C4A46770  42.374  14.366   7.353
 8607POPC   C1B46771  42.150  14.538   6.453
 8607POPC   C2B46772  42.162  14.542   6.753
 8607POPC   C3B46773  42.190  14.542   7.053
 8607POPC   C4B46774  42.208  14.536   7.353
 8608POPC   NC346775  32.201  43.151   5.553
 8608POPC   PO446776  32.230  43.091   5.853
 8608POPC   GL146777  32.240  43.086   6.153
 8608POPC   GL246778  32.303  43.213   6.153
 8608POPC   C1A46779  32.262  43.141   6.453
 8608POPC   D2A46780  32.218  43.089   6.753
 8608POPC   C3A46781  32.199  43.081   7.053
 8608POPC   C4A46782  32.278  43.123   7.353
 8608POPC   C1B46783  32.396  43.268   6.453
 8608POPC   C2B46784  32.370  43.279   6.753
 8608POPC   C3B46785  32.380  43.331   7.053
 8608POPC   C4B46786  32.396  43.327   7.353
 8609POPC   NC346787  33.047  11.326   5.553
 8609POPC   PO446788  33.015  11.281   5.853
 8609POPC   GL146789  32.978  11.291   6.153
 8609POPC   GL246790  33.117  11.395   6.153
 8609POPC   C1A46791  32.976  11.348   6.453
 8609POPC   D2A46792  32.993  11.274   6.753
 8609POPC   C3A46793  32.982  11.333   7.053
 8609POPC   C4A46794  33.073  11.346   7.353
 8609POPC   C1B46795  33.206  11.507   6.453
 8609POPC   C2B46796  33.183  11.501   6.753
 8609POPC   C3B46797  33.201  11.421   7.053
 8609POPC   C4B46798  33.252  11.486   7.353
 8610POPC   NC346799   0.394  27.612   5.553
 8610POPC   PO446800   0.409  27.618   5.853
 8610POPC   GL146801   0.457  27.596   6.153
 8610POPC   GL246802   0.512  27.675   6.153
 8610POPC   C1A46803   0.459  27.577   6.453
 8610POPC   D2A46804   0.398  27.619   6.753
 8610POPC   C3A46805   0.467  27.588   7.053
 8610POPC   C4A46806   0.454  27.640   7.353
 8610POPC   C1B46807   0.529  27.828   6.453
 8610POPC   C2B46808   0.538  27.830   6.753
 8610POPC   C3B46809   0.484  27.866   7.053
 8610POPC   C4B46810   0.478  27.867   7.353
 8611POPC   NC346811  26.779   2.743   5.553
 8611POPC   PO446812  26.833   2.748   5.853
 8611POPC   GL146813  26.808   2.806   6.153
 8611POPC   GL246814  26.893   2.695   6.153
 8611POPC   C1A46815  26.789   2.730   6.453
 8611POPC   D2A46816  26.812   2.732   6.753
 8611POPC   C3A46817  26.812   2.726   7.053
 8611POPC   C4A46818  26.808   2.778   7.353
 8611POPC   C1B46819  27.047   2.701   6.453
 8611POPC   C2B46820  27.083   2.752   6.753
 8611POPC   C3B46821  27.050   2.676   7.053
 8611POPC   C4B46822  27.099   2.694   7.353
 8612POPC   NC346823  15.142  35.341   5.553
 8612POPC   PO446824  15.203  35.350   5.853
 8612POPC   GL146825  15.229  35.391   6.153
 8612POPC   GL246826  15.273  35.289   6.153
 8612POPC   C1A46827  15.153  35.322   6.453
 8612POPC   D2A46828  15.175  35.344   6.753
 8612POPC   C3A46829  15.149  35.329   7.053
 8612POPC   C4A46830  15.196  35.376   7.353
 8612POPC   C1B46831  15.392  35.195   6.453
 8612POPC   C2B46832  15.324  35.163   6.753
 8612POPC   C3B46833  15.410  35.234   7.053
 8612POPC   C4B46834  15.318  35.146   7.353
 8613POPC   NC346835   3.522  11.328   5.553
 8613POPC   PO446836   3.561  11.285   5.853
 8613POPC   GL146837   3.581  11.284   6.153
 8613POPC   GL246838   3.551  11.198   6.153
 8613POPC   C1A46839   3.572  11.267   6.453
 8613POPC   D2A46840   3.529  11.281   6.753
 8613POPC   C3A46841   3.510  11.306   7.053
 8613POPC   C4A46842   3.502  11.286   7.353
 8613POPC   C1B46843   3.672  11.044   6.453
 8613POPC   C2B46844   3.628  11.029   6.753
 8613POPC   C3B46845   3.679  11.084   7.053
 8613POPC   C4B46846   3.596  11.056   7.353
 8614POPC   NC346847  30.700   5.082   5.553
 8614POPC   PO446848  30.696   5.044   5.853
 8614POPC   GL146849  30.734   5.045   6.153
 8614POPC   GL246850  30.777   5.012   6.153
 8614POPC   C1A46851  30.732   5.080   6.453
 8614POPC   D2A46852  30.689   5.139   6.753
 8614POPC   C3A46853  30.728   5.138   7.053
 8614POPC   C4A46854  30.734   5.054   7.353
 8614POPC   C1B46855  30.946   4.994   6.453
 8614POPC   C2B46856  30.927   4.923   6.753
 8614POPC   C3B46857  30.938   4.912   7.053
 8614POPC   C4B46858  30.901   4.922   7.353
 8615POPC   NC346859  34.546   7.422   5.553
 8615POPC   PO446860  34.609   7.438   5.853
 8615POPC   GL146861  34.574   7.417   6.153
 8615POPC   GL246862  34.597   7.324   6.153
 8615POPC   C1A46863  34.595   7.403   6.453
 8615POPC   D2A46864  34.580   7.420   6.753
 8615POPC   C3A46865  34.571   7.433   7.053
 8615POPC   C4A46866  34.561   7.399   7.353
 8615POPC   C1B46867  34.583   7.123   6.453
 8615POPC   C2B46868  34.595   7.142   6.753
 8615POPC   C3B46869  34.566   7.145   7.053
 8615POPC   C4B46870  34.579   7.191   7.353
 8616POPC   NC346871  16.744  34.535   5.553
 8616POPC   PO446872  16.700  34.540   5.853
 8616POPC   GL146873  16.726  34.561   6.153
 8616POPC   GL246874  16.756  34.723   6.153
 8616POPC   C1A46875  16.693  34.605   6.453
 8616POPC   D2A46876  16.692  34.532   6.753
 8616POPC   C3A46877  16.747  34.579   7.053
 8616POPC   C4A46878  16.724  34.593   7.353
 8616POPC   C1B46879  16.659  34.855   6.453
 8616POPC   C2B46880  16.708  34.850   6.753
 8616POPC   C3B46881  16.717  34.862   7.053
 8616POPC   C4B46882  16.739  34.783   7.353
 8617POPC   NC346883   4.290  44.617   5.553
 8617POPC   PO446884   4.366  44.646   5.853
 8617POPC   GL146885   4.359  44.666   6.153
 8617POPC   GL246886   4.422  44.555   6.153
 8617POPC   C1A46887   4.322  44.663   6.453
 8617POPC   D2A46888   4.304  44.683   6.753
 8617POPC   C3A46889   4.297  44.654   7.053
 8617POPC   C4A46890   4.297  44.615   7.353
 8617POPC   C1B46891   4.558  44.550   6.453
 8617POPC   C2B46892   4.542  44.534   6.753
 8617POPC   C3B46893   4.523  44.461   7.053
 8617POPC   C4B46894   4.528  44.533   7.353
 8618POPC   NC346895  21.389   0.396   5.553
 8618POPC   PO446896  21.411   0.453   5.853
 8618POPC   GL146897  21.379   0.416   6.153
 8618POPC   GL246898  21.504   0.442   6.153
 8618POPC   C1A46899  21.352   0.396   6.453
 8618POPC   D2A46900  21.349   0.435   6.753
 8618POPC   C3A46901  21.409   0.397   7.053
 8618POPC   C4A46902  21.366   0.414   7.353
 8618POPC   C1B46903  21.626   0.558   6.453
 8618POPC   C2B46904  21.629   0.580   6.753
 8618POPC   C3B46905  21.666   0.490   7.053
 8618POPC   C4B46906  21.665   0.538   7.353
 8619POPC   NC346907  40.007  20.630   5.553
 8619POPC   PO446908  39.985  20.565   5.853
 8619POPC   GL146909  39.965  20.616   6.153
 8619POPC   GL246910  40.105  20.682   6.153
 8619POPC   C1A46911  39.961  20.615   6.453
 8619POPC   D2A46912  39.969  20.594   6.753
 8619POPC   C3A46913  39.973  20.597   7.053
 8619POPC   C4A46914  39.963  20.649   7.353
 8619POPC   C1B46915  40.143  20.824   6.453
 8619POPC   C2B46916  40.101  20.850   6.753
 8619POPC   C3B46917  40.110  20.829   7.053
 8619POPC   C4B46918  40.124  20.804   7.353
 8620POPC   NC346919   1.947  20.618   5.553
 8620POPC   PO446920   1.995  20.648   5.853
 8620POPC   GL146921   1.968  20.659   6.153
 8620POPC   GL246922   2.101  20.731   6.153
 8620POPC   C1A46923   2.014  20.611   6.453
 8620POPC   D2A46924   1.993  20.617   6.753
 8620POPC   C3A46925   2.032  20.575   7.053
 8620POPC   C4A46926   2.010  20.578   7.353
 8620POPC   C1B46927   2.206  20.808   6.453
 8620POPC   C2B46928   2.180  20.794   6.753
 8620POPC   C3B46929   2.208  20.717   7.053
 8620POPC   C4B46930   2.147  20.788   7.353
 8621POPC   NC346931  36.092  35.392   5.553
 8621POPC   PO446932  36.149  35.385   5.853
 8621POPC   GL146933  36.170  35.384   6.153
 8621POPC   GL246934  36.102  35.417   6.153
 8621POPC   C1A46935  36.137  35.305   6.453
 8621POPC   D2A46936  36.092  35.357   6.753
 8621POPC   C3A46937  36.153  35.366   7.053
 8621POPC   C4A46938  36.104  35.337   7.353
 8621POPC   C1B46939  36.028  35.553   6.453
 8621POPC   C2B46940  36.056  35.529   6.753
 8621POPC   C3B46941  35.985  35.582   7.053
 8621POPC   C4B46942  36.017  35.620   7.353
 8622POPC   NC346943  33.817  28.351   5.553
 8622POPC   PO446944  33.752  28.365   5.853
 8622POPC   GL146945  33.774  28.381   6.153
 8622POPC   GL246946  33.741  28.469   6.153
 8622POPC   C1A46947  33.770  28.349   6.453
 8622POPC   D2A46948  33.849  28.358   6.753
 8622POPC   C3A46949  33.781  28.371   7.053
 8622POPC   C4A46950  33.768  28.363   7.353
 8622POPC   C1B46951  33.624  28.510   6.453
 8622POPC   C2B46952  33.661  28.585   6.753
 8622POPC   C3B46953  33.647  28.516   7.053
 8622POPC   C4B46954  33.671  28.537   7.353
 8623POPC   NC346955   5.919   5.108   5.553
 8623POPC   PO446956   5.833   5.128   5.853
 8623POPC   GL146957   5.878   5.075   6.153
 8623POPC   GL246958   5.966   5.104   6.153
 8623POPC   C1A46959   5.870   5.073   6.453
 8623POPC   D2A46960   5.870   5.049   6.753
 8623POPC   C3A46961   5.825   5.054   7.053
 8623POPC   C4A46962   5.894   5.101   7.353
 8623POPC   C1B46963   6.068   5.199   6.453
 8623POPC   C2B46964   6.063   5.185   6.753
 8623POPC   C3B46965   6.059   5.192   7.053
 8623POPC   C4B46966   6.145   5.209   7.353
 8624POPC   NC346967  11.318  39.206   5.553
 8624POPC   PO446968  11.269  39.266   5.853
 8624POPC   GL146969  11.325  39.244   6.153
 8624POPC   GL246970  11.437  39.288   6.153
 8624POPC   C1A46971  11.331  39.281   6.453
 8624POPC   D2A46972  11.293  39.233   6.753
 8624POPC   C3A46973  11.285  39.189   7.053
 8624POPC   C4A46974  11.292  39.220   7.353
 8624POPC   C1B46975  11.462  39.357   6.453
 8624POPC   C2B46976  11.485  39.402   6.753
 8624POPC   C3B46977  11.539  39.391   7.053
 8624POPC   C4B46978  11.489  39.353   7.353
 8625POPC   NC346979   3.543  34.532   5.553
 8625POPC   PO446980   3.522  34.576   5.853
 8625POPC   GL146981   3.497  34.534   6.153
 8625POPC   GL246982   3.612  34.424   6.153
 8625POPC   C1A46983   3.527  34.539   6.453
 8625POPC   D2A46984   3.500  34.621   6.753
 8625POPC   C3A46985   3.587  34.620   7.053
 8625POPC   C4A46986   3.516  34.555   7.353
 8625POPC   C1B46987   3.576  34.375   6.453
 8625POPC   C2B46988   3.639  34.328   6.753
 8625POPC   C3B46989   3.566  34.285   7.053
 8625POPC   C4B46990   3.572  34.365   7.353
 8626POPC   NC346991  12.106  36.135   5.553
 8626POPC   PO446992  12.044  36.080   5.853
 8626POPC   GL146993  12.107  36.080   6.153
 8626POPC   GL246994  11.962  36.030   6.153
 8626POPC   C1A46995  12.049  36.163   6.453
 8626POPC   D2A46996  12.119  36.120   6.753
 8626POPC   C3A46997  12.075  36.123   7.053
 8626POPC   C4A46998  12.027  36.108   7.353
 8626POPC   C1B46999  11.972  35.941   6.453
 8626POPC   C2B47000  11.934  35.914   6.753
 8626POPC   C3B47001  11.895  35.892   7.053
 8626POPC   C4B47002  11.900  35.904   7.353
 8627POPC   NC347003  15.189   6.656   5.553
 8627POPC   PO447004  15.163   6.606   5.853
 8627POPC   GL147005  15.131   6.664   6.153
 8627POPC   GL247006  15.210   6.816   6.153
 8627POPC   C1A47007  15.195   6.654   6.453
 8627POPC   D2A47008  15.163   6.669   6.753
 8627POPC   C3A47009  15.203   6.614   7.053
 8627POPC   C4A47010  15.149   6.691   7.353
 8627POPC   C1B47011  15.182   6.925   6.453
 8627POPC   C2B47012  15.181   6.856   6.753
 8627POPC   C3B47013  15.197   6.889   7.053
 8627POPC   C4B47014  15.208   6.887   7.353
 8628POPC   NC347015  34.549   6.676   5.553
 8628POPC   PO447016  34.545   6.629   5.853
 8628POPC   GL147017  34.553   6.642   6.153
 8628POPC   GL247018  34.438   6.671   6.153
 8628POPC   C1A47019  34.565   6.670   6.453
 8628POPC   D2A47020  34.527   6.638   6.753
 8628POPC   C3A47021  34.590   6.602   7.053
 8628POPC   C4A47022  34.568   6.646   7.353
 8628POPC   C1B47023  34.287   6.661   6.453
 8628POPC   C2B47024  34.291   6.626   6.753
 8628POPC   C3B47025  34.304   6.600   7.053
 8628POPC   C4B47026  34.303   6.651   7.353
 8629POPC   NC347027  18.243   4.267   5.553
 8629POPC   PO447028  18.250   4.299   5.853
 8629POPC   GL147029  18.281   4.302   6.153
 8629POPC   GL247030  18.322   4.196   6.153
 8629POPC   C1A47031  18.263   4.323   6.453
 8629POPC   D2A47032  18.293   4.310   6.753
 8629POPC   C3A47033  18.317   4.271   7.053
 8629POPC   C4A47034  18.317   4.349   7.353
 8629POPC   C1B47035  18.395   4.111   6.453
 8629POPC   C2B47036  18.390   4.037   6.753
 8629POPC   C3B47037  18.402   4.033   7.053
 8629POPC   C4B47038  18.363   4.116   7.353
 8630POPC   NC347039  31.465  34.549   5.553
 8630POPC   PO447040  31.457  34.612   5.853
 8630POPC   GL147041  31.500  34.619   6.153
 8630POPC   GL247042  31.434  34.671   6.153
 8630POPC   C1A47043  31.480  34.591   6.453
 8630POPC   D2A47044  31.493  34.598   6.753
 8630POPC   C3A47045  31.499  34.557   7.053
 8630POPC   C4A47046  31.478  34.580   7.353
 8630POPC   C1B47047  31.448  34.811   6.453
 8630POPC   C2B47048  31.465  34.836   6.753
 8630POPC   C3B47049  31.400  34.845   7.053
 8630POPC   C4B47050  31.462  34.860   7.353
 8631POPC   NC347051  15.910  18.321   5.553
 8631POPC   PO447052  15.954  18.247   5.853
 8631POPC   GL147053  15.988  18.316   6.153
 8631POPC   GL247054  15.986  18.132   6.153
 8631POPC   C1A47055  15.970  18.312   6.453
 8631POPC   D2A47056  15.917  18.263   6.753
 8631POPC   C3A47057  15.970  18.327   7.053
 8631POPC   C4A47058  15.925  18.271   7.353
 8631POPC   C1B47059  16.077  18.037   6.453
 8631POPC   C2B47060  16.105  18.080   6.753
 8631POPC   C3B47061  16.056  18.095   7.053
 8631POPC   C4B47062  16.076  18.064   7.353
 8632POPC   NC347063  13.621   1.968   5.553
 8632POPC   PO447064  13.620   1.947   5.853
 8632POPC   GL147065  13.674   2.017   6.153
 8632POPC   GL247066  13.705   2.100   6.153
 8632POPC   C1A47067  13.594   2.001   6.453
 8632POPC   D2A47068  13.673   1.989   6.753
 8632POPC   C3A47069  13.625   2.006   7.053
 8632POPC   C4A47070  13.666   2.034   7.353
 8632POPC   C1B47071  13.788   2.139   6.453
 8632POPC   C2B47072  13.771   2.231   6.753
 8632POPC   C3B47073  13.826   2.192   7.053
 8632POPC   C4B47074  13.730   2.221   7.353
 8633POPC   NC347075   8.245  17.541   5.553
 8633POPC   PO447076   8.206  17.540   5.853
 8633POPC   GL147077   8.226  17.490   6.153
 8633POPC   GL247078   8.217  17.591   6.153
 8633POPC   C1A47079   8.233  17.539   6.453
 8633POPC   D2A47080   8.195  17.505   6.753
 8633POPC   C3A47081   8.219  17.553   7.053
 8633POPC   C4A47082   8.227  17.513   7.353
 8633POPC   C1B47083   8.178  17.744   6.453
 8633POPC   C2B47084   8.176  17.794   6.753
 8633POPC   C3B47085   8.250  17.742   7.053
 8633POPC   C4B47086   8.176  17.779   7.353
 8634POPC   NC347087  36.899  12.815   5.553
 8634POPC   PO447088  36.862  12.900   5.853
 8634POPC   GL147089  36.881  12.825   6.153
 8634POPC   GL247090  36.935  12.748   6.153
 8634POPC   C1A47091  36.908  12.813   6.453
 8634POPC   D2A47092  36.913  12.835   6.753
 8634POPC   C3A47093  36.877  12.880   7.053
 8634POPC   C4A47094  36.861  12.834   7.353
 8634POPC   C1B47095  37.036  12.594   6.453
 8634POPC   C2B47096  37.054  12.587   6.753
 8634POPC   C3B47097  37.003  12.636   7.053
 8634POPC   C4B47098  36.966  12.653   7.353
 8635POPC   NC347099  43.080  19.788   5.553
 8635POPC   PO447100  43.073  19.882   5.853
 8635POPC   GL147101  43.095  19.797   6.153
 8635POPC   GL247102  43.109  19.702   6.153
 8635POPC   C1A47103  43.152  19.848   6.453
 8635POPC   D2A47104  43.093  19.847   6.753
 8635POPC   C3A47105  43.145  19.834   7.053
 8635POPC   C4A47106  43.072  19.789   7.353
 8635POPC   C1B47107  43.182  19.632   6.453
 8635POPC   C2B47108  43.172  19.570   6.753
 8635POPC   C3B47109  43.227  19.551   7.053
 8635POPC   C4B47110  43.154  19.564   7.353
 8636POPC   NC347111   2.726  13.623   5.553
 8636POPC   PO447112   2.730  13.613   5.853
 8636POPC   GL147113   2.765  13.653   6.153
 8636POPC   GL247114   2.758  13.757   6.153
 8636POPC   C1A47115   2.798  13.666   6.453
 8636POPC   D2A47116   2.791  13.648   6.753
 8636POPC   C3A47117   2.757  13.616   7.053
 8636POPC   C4A47118   2.795  13.635   7.353
 8636POPC   C1B47119   2.774  13.832   6.453
 8636POPC   C2B47120   2.825  13.849   6.753
 8636POPC   C3B47121   2.841  13.888   7.053
 8636POPC   C4B47122   2.772  13.889   7.353
 8637POPC   NC347123   5.138  36.909   5.553
 8637POPC   PO447124   5.078  36.880   5.853
 8637POPC   GL147125   5.120  36.936   6.153
 8637POPC   GL247126   5.186  36.994   6.153
 8637POPC   C1A47127   5.139  36.910   6.453
 8637POPC   D2A47128   5.109  36.927   6.753
 8637POPC   C3A47129   5.063  36.924   7.053
 8637POPC   C4A47130   5.116  36.893   7.353
 8637POPC   C1B47131   5.257  37.080   6.453
 8637POPC   C2B47132   5.260  37.039   6.753
 8637POPC   C3B47133   5.242  37.043   7.053
 8637POPC   C4B47134   5.256  37.065   7.353
 8638POPC   NC347135   1.207  28.358   5.553
 8638POPC   PO447136   1.241  28.367   5.853
 8638POPC   GL147137   1.236  28.416   6.153
 8638POPC   GL247138   1.140  28.325   6.153
 8638POPC   C1A47139   1.258  28.360   6.453
 8638POPC   D2A47140   1.213  28.373   6.753
 8638POPC   C3A47141   1.263  28.351   7.053
 8638POPC   C4A47142   1.225  28.363   7.353
 8638POPC   C1B47143   0.998  28.185   6.453
 8638POPC   C2B47144   0.966  28.277   6.753
 8638POPC   C3B47145   0.957  28.240   7.053
 8638POPC   C4B47146   1.026  28.242   7.353
 8639POPC   NC347147  15.229   7.466   5.553
 8639POPC   PO447148  15.202   7.425   5.853
 8639POPC   GL147149  15.141   7.429   6.153
 8639POPC   GL247150  15.127   7.326   6.153
 8639POPC   C1A47151  15.199   7.425   6.453
 8639POPC   D2A47152  15.155   7.415   6.753
 8639POPC   C3A47153  15.183   7.384   7.053
 8639POPC   C4A47154  15.189   7.420   7.353
 8639POPC   C1B47155  15.157   7.161   6.453
 8639POPC   C2B47156  15.146   7.143   6.753
 8639POPC   C3B47157  15.174   7.200   7.053
 8639POPC   C4B47158  15.130   7.212   7.353
 8640POPC   NC347159  27.593  16.683   5.553
 8640POPC   PO447160  27.624  16.695   5.853
 8640POPC   GL147161  27.578  16.752   6.153
 8640POPC   GL247162  27.592  16.858   6.153
 8640POPC   C1A47163  27.558  16.764   6.453
 8640POPC   D2A47164  27.629  16.758   6.753
 8640POPC   C3A47165  27.626  16.705   7.053
 8640POPC   C4A47166  27.609  16.730   7.353
 8640POPC   C1B47167  27.544  16.968   6.453
 8640POPC   C2B47168  27.490  16.978   6.753
 8640POPC   C3B47169  27.540  16.926   7.053
 8640POPC   C4B47170  27.515  16.964   7.353
 8641POPC   NC347171  26.028  12.094   5.553
 8641POPC   PO447172  26.080  12.106   5.853
 8641POPC   GL147173  26.089  12.079   6.153
 8641POPC   GL247174  25.990  12.220   6.153
 8641POPC   C1A47175  26.035  12.081   6.453
 8641POPC   D2A47176  25.992  12.036   6.753
 8641POPC   C3A47177  26.073  12.062   7.053
 8641POPC   C4A47178  26.048  12.112   7.353
 8641POPC   C1B47179  26.051  12.307   6.453
 8641POPC   C2B47180  26.030  12.323   6.753
 8641POPC   C3B47181  26.025  12.339   7.053
 8641POPC   C4B47182  26.048  12.329   7.353
 8642POPC   NC347183  31.426  32.257   5.553
 8642POPC   PO447184  31.514  32.225   5.853
 8642POPC   GL147185  31.506  32.213   6.153
 8642POPC   GL247186  31.468  32.121   6.153
 8642POPC   C1A47187  31.474  32.284   6.453
 8642POPC   D2A47188  31.506  32.249   6.753
 8642POPC   C3A47189  31.498  32.282   7.053
 8642POPC   C4A47190  31.460  32.256   7.353
 8642POPC   C1B47191  31.328  32.056   6.453
 8642POPC   C2B47192  31.387  32.018   6.753
 8642POPC   C3B47193  31.360  32.067   7.053
 8642POPC   C4B47194  31.362  32.017   7.353
 8643POPC   NC347195  30.709  20.567   5.553
 8643POPC   PO447196  30.704  20.648   5.853
 8643POPC   GL147197  30.661  20.584   6.153
 8643POPC   GL247198  30.562  20.658   6.153
 8643POPC   C1A47199  30.738  20.590   6.453
 8643POPC   D2A47200  30.704  20.611   6.753
 8643POPC   C3A47201  30.701  20.580   7.053
 8643POPC   C4A47202  30.701  20.644   7.353
 8643POPC   C1B47203  30.436  20.656   6.453
 8643POPC   C2B47204  30.410  20.648   6.753
 8643POPC   C3B47205  30.411  20.635   7.053
 8643POPC   C4B47206  30.492  20.695   7.353
 8644POPC   NC347207  44.657  24.521   5.553
 8644POPC   PO447208  44.647  24.483   5.853
 8644POPC   GL147209  44.660  24.449   6.153
 8644POPC   GL247210  44.761  24.390   6.153
 8644POPC   C1A47211  44.697  24.454   6.453
 8644POPC   D2A47212  44.666  24.480   6.753
 8644POPC   C3A47213  44.681  24.500   7.053
 8644POPC   C4A47214  44.682  24.507   7.353
 8644POPC   C1B47215  44.820  24.265   6.453
 8644POPC   C2B47216  44.791  24.251   6.753
 8644POPC   C3B47217  44.764  24.227   7.053
 8644POPC   C4B47218  44.737  24.247   7.353
 8645POPC   NC347219  39.994  36.146   5.553
 8645POPC   PO447220  40.042  36.149   5.853
 8645POPC   GL147221  40.043  36.134   6.153
 8645POPC   GL247222  40.013  36.238   6.153
 8645POPC   C1A47223  40.016  36.158   6.453
 8645POPC   D2A47224  39.969  36.107   6.753
 8645POPC   C3A47225  40.021  36.139   7.053
 8645POPC   C4A47226  40.022  36.104   7.353
 8645POPC   C1B47227  39.899  36.412   6.453
 8645POPC   C2B47228  39.974  36.337   6.753
 8645POPC   C3B47229  39.907  36.385   7.053
 8645POPC   C4B47230  39.971  36.362   7.353
 8646POPC   NC347231   3.497  12.045   5.553
 8646POPC   PO447232   3.524  12.072   5.853
 8646POPC   GL147233   3.543  12.047   6.153
 8646POPC   GL247234   3.626  12.123   6.153
 8646POPC   C1A47235   3.505  12.113   6.453
 8646POPC   D2A47236   3.528  12.093   6.753
 8646POPC   C3A47237   3.523  12.073   7.053
 8646POPC   C4A47238   3.529  12.053   7.353
 8646POPC   C1B47239   3.832  12.126   6.453
 8646POPC   C2B47240   3.816  12.119   6.753
 8646POPC   C3B47241   3.765  12.032   7.053
 8646POPC   C4B47242   3.791  12.050   7.353
 8647POPC   NC347243  36.898  26.774   5.553
 8647POPC   PO447244  36.940  26.851   5.853
 8647POPC   GL147245  36.900  26.796   6.153
 8647POPC   GL247246  37.008  26.749   6.153
 8647POPC   C1A47247  36.919  26.838   6.453
 8647POPC   D2A47248  36.912  26.790   6.753
 8647POPC   C3A47249  36.920  26.825   7.053
 8647POPC   C4A47250  36.935  26.853   7.353
 8647POPC   C1B47251  37.063  26.707   6.453
 8647POPC   C2B47252  37.125  26.637   6.753
 8647POPC   C3B47253  37.117  26.646   7.053
 8647POPC   C4B47254  37.084  26.663   7.353
 8648POPC   NC347255  25.294  26.842   5.553
 8648POPC   PO447256  25.292  26.840   5.853
 8648POPC   GL147257  25.248  26.780   6.153
 8648POPC   GL247258  25.437  26.872   6.153
 8648POPC   C1A47259  25.294  26.838   6.453
 8648POPC   D2A47260  25.282  26.823   6.753
 8648POPC   C3A47261  25.258  26.865   7.053
 8648POPC   C4A47262  25.219  26.830   7.353
 8648POPC   C1B47263  25.501  26.806   6.453
 8648POPC   C2B47264  25.551  26.845   6.753
 8648POPC   C3B47265  25.540  26.818   7.053
 8648POPC   C4B47266  25.494  26.893   7.353
 8649POPC   NC347267  15.970  16.709   5.553
 8649POPC   PO447268  15.980  16.743   5.853
 8649POPC   GL147269  15.914  16.701   6.153
 8649POPC   GL247270  15.914  16.582   6.153
 8649POPC   C1A47271  15.913  16.750   6.453
 8649POPC   D2A47272  16.003  16.730   6.753
 8649POPC   C3A47273  15.965  16.708   7.053
 8649POPC   C4A47274  15.982  16.742   7.353
 8649POPC   C1B47275  15.816  16.517   6.453
 8649POPC   C2B47276  15.871  16.459   6.753
 8649POPC   C3B47277  15.854  16.512   7.053
 8649POPC   C4B47278  15.835  16.543   7.353
 8650POPC   NC347279   5.132  19.858   5.553
 8650POPC   PO447280   5.100  19.883   5.853
 8650POPC   GL147281   5.106  19.826   6.153
 8650POPC   GL247282   5.110  19.950   6.153
 8650POPC   C1A47283   5.092  19.870   6.453
 8650POPC   D2A47284   5.069  19.793   6.753
 8650POPC   C3A47285   5.076  19.822   7.053
 8650POPC   C4A47286   5.091  19.858   7.353
 8650POPC   C1B47287   5.138  20.048   6.453
 8650POPC   C2B47288   5.129  20.066   6.753
 8650POPC   C3B47289   5.136  20.034   7.053
 8650POPC   C4B47290   5.193  20.059   7.353
 8651POPC   NC347291  43.159  43.894   5.553
 8651POPC   PO447292  43.093  43.928   5.853
 8651POPC   GL147293  43.081  43.877   6.153
 8651POPC   GL247294  43.228  43.830   6.153
 8651POPC   C1A47295  43.150  43.887   6.453
 8651POPC   D2A47296  43.160  43.900   6.753
 8651POPC   C3A47297  43.101  43.927   7.053
 8651POPC   C4A47298  43.107  43.882   7.353
 8651POPC   C1B47299  43.325  43.775   6.453
 8651POPC   C2B47300  43.365  43.841   6.753
 8651POPC   C3B47301  43.360  43.809   7.053
 8651POPC   C4B47302  43.352  43.765   7.353
 8652POPC   NC347303   9.003  13.611   5.553
 8652POPC   PO447304   9.017  13.585   5.853
 8652POPC   GL147305   8.929  13.652   6.153
 8652POPC   GL247306   8.934  13.540   6.153
 8652POPC   C1A47307   8.944  13.602   6.453
 8652POPC   D2A47308   8.954  13.607   6.753
 8652POPC   C3A47309   8.982  13.593   7.053
 8652POPC   C4A47310   8.962  13.610   7.353
 8652POPC   C1B47311   8.946  13.334   6.453
 8652POPC   C2B47312   8.975  13.393   6.753
 8652POPC   C3B47313   9.000  13.414   7.053
 8652POPC   C4B47314   8.931  13.359   7.353
 8653POPC   NC347315  26.830  15.961   5.553
 8653POPC   PO447316  26.849  15.916   5.853
 8653POPC   GL147317  26.829  15.909   6.153
 8653POPC   GL247318  26.708  15.913   6.153
 8653POPC   C1A47319  26.836  15.951   6.453
 8653POPC   D2A47320  26.818  15.967   6.753
 8653POPC   C3A47321  26.838  15.952   7.053
 8653POPC   C4A47322  26.835  15.989   7.353
 8653POPC   C1B47323  26.642  15.755   6.453
 8653POPC   C2B47324  26.629  15.787   6.753
 8653POPC   C3B47325  26.662  15.792   7.053
 8653POPC   C4B47326  26.601  15.795   7.353
 8654POPC   NC347327   1.259  20.565   5.553
 8654POPC   PO447328   1.242  20.641   5.853
 8654POPC   GL147329   1.229  20.619   6.153
 8654POPC   GL247330   1.127  20.599   6.153
 8654POPC   C1A47331   1.245  20.607   6.453
 8654POPC   D2A47332   1.184  20.584   6.753
 8654POPC   C3A47333   1.256  20.651   7.053
 8654POPC   C4A47334   1.211  20.570   7.353
 8654POPC   C1B47335   0.988  20.603   6.453
 8654POPC   C2B47336   0.970  20.592   6.753
 8654POPC   C3B47337   0.932  20.603   7.053
 8654POPC   C4B47338   0.942  20.567   7.353
 8655POPC   NC347339  30.671  18.304   5.553
 8655POPC   PO447340  30.684  18.308   5.853
 8655POPC   GL147341  30.657  18.309   6.153
 8655POPC   GL247342  30.768  18.391   6.153
 8655POPC   C1A47343  30.665  18.313   6.453
 8655POPC   D2A47344  30.666  18.255   6.753
 8655POPC   C3A47345  30.731  18.331   7.053
 8655POPC   C4A47346  30.723  18.242   7.353
 8655POPC   C1B47347  30.957  18.368   6.453
 8655POPC   C2B47348  30.951  18.442   6.753
 8655POPC   C3B47349  30.952  18.435   7.053
 8655POPC   C4B47350  30.888  18.441   7.353
 8656POPC   NC347351  39.964  44.634   5.553
 8656POPC   PO447352  39.976  44.650   5.853
 8656POPC   GL147353  40.032  44.693   6.153
 8656POPC   GL247354  39.902  44.704   6.153
 8656POPC   C1A47355  39.966  44.646   6.453
 8656POPC   D2A47356  40.014  44.707   6.753
 8656POPC   C3A47357  40.001  44.614   7.053
 8656POPC   C4A47358  40.052  44.676   7.353
 8656POPC   C1B47359  39.750  44.751   6.453
 8656POPC   C2B47360  39.832  44.759   6.753
 8656POPC   C3B47361  39.764  44.776   7.053
 8656POPC   C4B47362  39.784  44.811   7.353
 8657POPC   NC347363   2.034  40.038   5.553
 8657POPC   PO447364   1.948  40.033   5.853
 8657POPC   GL147365   1.974  40.021   6.153
 8657POPC   GL247366   1.865  40.110   6.153
 8657POPC   C1A47367   1.975  40.006   6.453
 8657POPC   D2A47368   2.002  40.017   6.753
 8657POPC   C3A47369   2.003  39.994   7.053
 8657POPC   C4A47370   1.946  40.054   7.353
 8657POPC   C1B47371   1.769  40.192   6.453
 8657POPC   C2B47372   1.766  40.178   6.753
 8657POPC   C3B47373   1.744  40.167   7.053
 8657POPC   C4B47374   1.746  40.193   7.353
 8658POPC   NC347375  15.177   4.300   5.553
 8658POPC   PO447376  15.214   4.312   5.853
 8658POPC   GL147377  15.191   4.279   6.153
 8658POPC   GL247378  15.228   4.280   6.153
 8658POPC   C1A47379  15.192   4.301   6.453
 8658POPC   D2A47380  15.147   4.272   6.753
 8658POPC   C3A47381  15.138   4.341   7.053
 8658POPC   C4A47382  15.220   4.300   7.353
 8658POPC   C1B47383  15.333   4.181   6.453
 8658POPC   C2B47384  15.344   4.189   6.753
 8658POPC   C3B47385  15.341   4.195   7.053
 8658POPC   C4B47386  15.337   4.189   7.353
 8659POPC   NC347387  23.748   0.487   5.553
 8659POPC   PO447388  23.676   0.414   5.853
 8659POPC   GL147389  23.690   0.391   6.153
 8659POPC   GL247390  23.624   0.309   6.153
 8659POPC   C1A47391  23.672   0.391   6.453
 8659POPC   D2A47392  23.726   0.455   6.753
 8659POPC   C3A47393  23.714   0.431   7.053
 8659POPC   C4A47394  23.755   0.456   7.353
 8659POPC   C1B47395  23.493   0.226   6.453
 8659POPC   C2B47396  23.501   0.233   6.753
 8659POPC   C3B47397  23.511   0.250   7.053
 8659POPC   C4B47398  23.544   0.245   7.353
 8660POPC   NC347399  31.425  12.898   5.553
 8660POPC   PO447400  31.443  12.867   5.853
 8660POPC   GL147401  31.449  12.880   6.153
 8660POPC   GL247402  31.392  12.965   6.153
 8660POPC   C1A47403  31.494  12.832   6.453
 8660POPC   D2A47404  31.510  12.892   6.753
 8660POPC   C3A47405  31.485  12.877   7.053
 8660POPC   C4A47406  31.460  12.810   7.353
 8660POPC   C1B47407  31.304  13.045   6.453
 8660POPC   C2B47408  31.290  13.086   6.753
 8660POPC   C3B47409  31.329  13.077   7.053
 8660POPC   C4B47410  31.313  13.068   7.353
 8661POPC   NC347411  29.154  13.616   5.553
 8661POPC   PO447412  29.110  13.598   5.853
 8661POPC   GL147413  29.111  13.660   6.153
 8661POPC   GL247414  29.175  13.730   6.153
 8661POPC   C1A47415  29.097  13.616   6.453
 8661POPC   D2A47416  29.118  13.612   6.753
 8661POPC   C3A47417  29.168  13.658   7.053
 8661POPC   C4A47418  29.137  13.585   7.353
 8661POPC   C1B47419  29.157  13.906   6.453
 8661POPC   C2B47420  29.128  13.865   6.753
 8661POPC   C3B47421  29.097  13.879   7.053
 8661POPC   C4B47422  29.088  13.883   7.353
 8662POPC   NC347423  27.618  15.928   5.553
 8662POPC   PO447424  27.595  15.955   5.853
 8662POPC   GL147425  27.596  15.938   6.153
 8662POPC   GL247426  27.481  15.861   6.153
 8662POPC   C1A47427  27.559  15.961   6.453
 8662POPC   D2A47428  27.643  15.973   6.753
 8662POPC   C3A47429  27.570  15.942   7.053
 8662POPC   C4A47430  27.613  15.962   7.353
 8662POPC   C1B47431  27.441  15.742   6.453
 8662POPC   C2B47432  27.483  15.774   6.753
 8662POPC   C3B47433  27.495  15.790   7.053
 8662POPC   C4B47434  27.431  15.719   7.353
 8663POPC   NC347435   0.428   9.777   5.553
 8663POPC   PO447436   0.446   9.735   5.853
 8663POPC   GL147437   0.422   9.730   6.153
 8663POPC   GL247438   0.417   9.876   6.153
 8663POPC   C1A47439   0.430   9.767   6.453
 8663POPC   D2A47440   0.400   9.732   6.753
 8663POPC   C3A47441   0.458   9.776   7.053
 8663POPC   C4A47442   0.451   9.769   7.353
 8663POPC   C1B47443   0.265  10.006   6.453
 8663POPC   C2B47444   0.350   9.996   6.753
 8663POPC   C3B47445   0.355   9.934   7.053
 8663POPC   C4B47446   0.350   9.939   7.353
 8664POPC   NC347447   6.687  12.028   5.553
 8664POPC   PO447448   6.645  12.056   5.853
 8664POPC   GL147449   6.645  12.074   6.153
 8664POPC   GL247450   6.730  11.979   6.153
 8664POPC   C1A47451   6.654  12.081   6.453
 8664POPC   D2A47452   6.615  12.068   6.753
 8664POPC   C3A47453   6.603  12.081   7.053
 8664POPC   C4A47454   6.615  12.033   7.353
 8664POPC   C1B47455   6.814  11.909   6.453
 8664POPC   C2B47456   6.870  11.923   6.753
 8664POPC   C3B47457   6.821  11.900   7.053
 8664POPC   C4B47458   6.874  11.951   7.353
 8665POPC   NC347459  21.360   3.502   5.553
 8665POPC   PO447460  21.358   3.519   5.853
 8665POPC   GL147461  21.399   3.576   6.153
 8665POPC   GL247462  21.331   3.647   6.153
 8665POPC   C1A47463  21.431   3.566   6.453
 8665POPC   D2A47464  21.396   3.559   6.753
 8665POPC   C3A47465  21.377   3.505   7.053
 8665POPC   C4A47466  21.370   3.503   7.353
 8665POPC   C1B47467  21.212   3.667   6.453
 8665POPC   C2B47468  21.179   3.703   6.753
 8665POPC   C3B47469  21.137   3.687   7.053
 8665POPC   C4B47470  21.185   3.700   7.353
 8666POPC   NC347471  20.567  15.990   5.553
 8666POPC   PO447472  20.589  15.929   5.853
 8666POPC   GL147473  20.578  15.950   6.153
 8666POPC   GL247474  20.500  15.842   6.153
 8666POPC   C1A47475  20.656  15.962   6.453
 8666POPC   D2A47476  20.592  15.928   6.753
 8666POPC   C3A47477  20.645  15.909   7.053
 8666POPC   C4A47478  20.623  15.962   7.353
 8666POPC   C1B47479  20.461  15.729   6.453
 8666POPC   C2B47480  20.505  15.734   6.753
 8666POPC   C3B47481  20.436  15.800   7.053
 8666POPC   C4B47482  20.423  15.771   7.353
 8667POPC   NC347483  21.387  25.270   5.553
 8667POPC   PO447484  21.405  25.273   5.853
 8667POPC   GL147485  21.338  25.251   6.153
 8667POPC   GL247486  21.265  25.330   6.153
 8667POPC   C1A47487  21.384  25.294   6.453
 8667POPC   D2A47488  21.371  25.312   6.753
 8667POPC   C3A47489  21.430  25.299   7.053
 8667POPC   C4A47490  21.421  25.248   7.353
 8667POPC   C1B47491  21.204  25.493   6.453
 8667POPC   C2B47492  21.203  25.503   6.753
 8667POPC   C3B47493  21.208  25.505   7.053
 8667POPC   C4B47494  21.285  25.461   7.353
 8668POPC   NC347495   5.066  16.684   5.553
 8668POPC   PO447496   5.125  16.721   5.853
 8668POPC   GL147497   5.116  16.709   6.153
 8668POPC   GL247498   5.054  16.817   6.153
 8668POPC   C1A47499   5.084  16.755   6.453
 8668POPC   D2A47500   5.088  16.683   6.753
 8668POPC   C3A47501   5.115  16.706   7.053
 8668POPC   C4A47502   5.062  16.732   7.353
 8668POPC   C1B47503   5.052  17.007   6.453
 8668POPC   C2B47504   5.045  17.004   6.753
 8668POPC   C3B47505   5.069  16.983   7.053
 8668POPC   C4B47506   5.040  16.953   7.353
 8669POPC   NC347507   6.652  40.751   5.553
 8669POPC   PO447508   6.630  40.772   5.853
 8669POPC   GL147509   6.661  40.782   6.153
 8669POPC   GL247510   6.740  40.803   6.153
 8669POPC   C1A47511   6.620  40.808   6.453
 8669POPC   D2A47512   6.596  40.738   6.753
 8669POPC   C3A47513   6.655  40.756   7.053
 8669POPC   C4A47514   6.630  40.793   7.353
 8669POPC   C1B47515   6.926  40.777   6.453
 8669POPC   C2B47516   6.892  40.814   6.753
 8669POPC   C3B47517   6.930  40.744   7.053
 8669POPC   C4B47518   6.850  40.817   7.353
 8670POPC   NC347519  34.619  43.906   5.553
 8670POPC   PO447520  34.582  43.873   5.853
 8670POPC   GL147521  34.560  43.864   6.153
 8670POPC   GL247522  34.500  43.833   6.153
 8670POPC   C1A47523  34.528  43.890   6.453
 8670POPC   D2A47524  34.587  43.907   6.753
 8670POPC   C3A47525  34.621  43.869   7.053
 8670POPC   C4A47526  34.582  43.906   7.353
 8670POPC   C1B47527  34.401  43.732   6.453
 8670POPC   C2B47528  34.440  43.729   6.753
 8670POPC   C3B47529  34.447  43.678   7.053
 8670POPC   C4B47530  34.432  43.680   7.353
 8671POPC   NC347531  12.058  18.279   5.553
 8671POPC   PO447532  12.077  18.275   5.853
 8671POPC   GL147533  12.082  18.251   6.153
 8671POPC   GL247534  12.208  18.207   6.153
 8671POPC   C1A47535  12.059  18.325   6.453
 8671POPC   D2A47536  12.088  18.284   6.753
 8671POPC   C3A47537  12.097  18.250   7.053
 8671POPC   C4A47538  12.090  18.261   7.353
 8671POPC   C1B47539  12.273  18.122   6.453
 8671POPC   C2B47540  12.255  18.166   6.753
 8671POPC   C3B47541  12.281  18.122   7.053
 8671POPC   C4B47542  12.273  18.169   7.353
 8672POPC   NC347543  44.664  14.403   5.553
 8672POPC   PO447544  44.680  14.355   5.853
 8672POPC   GL147545  44.680  14.447   6.153
 8672POPC   GL247546  44.731  14.309   6.153
 8672POPC   C1A47547  44.652  14.393   6.453
 8672POPC   D2A47548  44.646  14.360   6.753
 8672POPC   C3A47549  44.707  14.450   7.053
 8672POPC   C4A47550  44.705  14.395   7.353
 8672POPC   C1B47551  44.721  14.209   6.453
 8672POPC   C2B47552  44.697  14.171   6.753
 8672POPC   C3B47553  44.768  14.116   7.053
 8672POPC   C4B47554  44.754  14.167   7.353
 8673POPC   NC347555  38.481  15.147   5.553
 8673POPC   PO447556  38.476  15.209   5.853
 8673POPC   GL147557  38.436  15.187   6.153
 8673POPC   GL247558  38.414  15.291   6.153
 8673POPC   C1A47559  38.439  15.219   6.453
 8673POPC   D2A47560  38.431  15.189   6.753
 8673POPC   C3A47561  38.436  15.192   7.053
 8673POPC   C4A47562  38.484  15.144   7.353
 8673POPC   C1B47563  38.302  15.359   6.453
 8673POPC   C2B47564  38.270  15.406   6.753
 8673POPC   C3B47565  38.267  15.371   7.053
 8673POPC   C4B47566  38.339  15.348   7.353
 8674POPC   NC347567   0.398   0.462   5.553
 8674POPC   PO447568   0.466   0.450   5.853
 8674POPC   GL147569   0.394   0.421   6.153
 8674POPC   GL247570   0.493   0.296   6.153
 8674POPC   C1A47571   0.475   0.482   6.453
 8674POPC   D2A47572   0.461   0.482   6.753
 8674POPC   C3A47573   0.433   0.409   7.053
 8674POPC   C4A47574   0.444   0.482   7.353
 8674POPC   C1B47575   0.605   0.212   6.453
 8674POPC   C2B47576   0.590   0.201   6.753
 8674POPC   C3B47577   0.577   0.231   7.053
 8674POPC   C4B47578   0.579   0.263   7.353
 8675POPC   NC347579   0.472  40.800   5.553
 8675POPC   PO447580   0.414  40.759   5.853
 8675POPC   GL147581   0.425  40.772   6.153
 8675POPC   GL247582   0.331  40.675   6.153
 8675POPC   C1A47583   0.413  40.790   6.453
 8675POPC   D2A47584   0.469  40.829   6.753
 8675POPC   C3A47585   0.471  40.734   7.053
 8675POPC   C4A47586   0.466  40.744   7.353
 8675POPC   C1B47587   0.263  40.627   6.453
 8675POPC   C2B47588   0.275  40.576   6.753
 8675POPC   C3B47589   0.284  40.547   7.053
 8675POPC   C4B47590   0.294  40.612   7.353
 8676POPC   NC347591  12.100   8.170   5.553
 8676POPC   PO447592  12.110   8.246   5.853
 8676POPC   GL147593  12.113   8.170   6.153
 8676POPC   GL247594  12.113   8.296   6.153
 8676POPC   C1A47595  12.113   8.177   6.453
 8676POPC   D2A47596  12.117   8.207   6.753
 8676POPC   C3A47597  12.047   8.235   7.053
 8676POPC   C4A47598  12.045   8.207   7.353
 8676POPC   C1B47599  12.192   8.372   6.453
 8676POPC   C2B47600  12.203   8.375   6.753
 8676POPC   C3B47601  12.149   8.407   7.053
 8676POPC   C4B47602  12.233   8.414   7.353
 8677POPC   NC347603  34.599  44.671   5.553
 8677POPC   PO447604  34.534  44.626   5.853
 8677POPC   GL147605  34.613  44.614   6.153
 8677POPC   GL247606  34.531  44.548   6.153
 8677POPC   C1A47607  34.544  44.692   6.453
 8677POPC   D2A47608  34.613  44.676   6.753
 8677POPC   C3A47609  34.583  44.703   7.053
 8677POPC   C4A47610  34.581  44.694   7.353
 8677POPC   C1B47611  34.487  44.415   6.453
 8677POPC   C2B47612  34.497  44.385   6.753
 8677POPC   C3B47613  34.531  44.376   7.053
 8677POPC   C4B47614  34.543  44.420   7.353
 8678POPC   NC347615  22.978   9.781   5.553
 8678POPC   PO447616  22.970   9.740   5.853
 8678POPC   GL147617  22.921   9.778   6.153
 8678POPC   GL247618  22.853   9.661   6.153
 8678POPC   C1A47619  22.935   9.730   6.453
 8678POPC   D2A47620  22.905   9.780   6.753
 8678POPC   C3A47621  22.969   9.796   7.053
 8678POPC   C4A47622  22.921   9.701   7.353
 8678POPC   C1B47623  22.819   9.580   6.453
 8678POPC   C2B47624  22.811   9.520   6.753
 8678POPC   C3B47625  22.783   9.510   7.053
 8678POPC   C4B47626  22.782   9.560   7.353
 8679POPC   NC347627   8.980  23.672   5.553
 8679POPC   PO447628   8.974  23.714   5.853
 8679POPC   GL147629   9.002  23.705   6.153
 8679POPC   GL247630   9.071  23.793   6.153
 8679POPC   C1A47631   8.941  23.738   6.453
 8679POPC   D2A47632   8.994  23.682   6.753
 8679POPC   C3A47633   8.955  23.714   7.053
 8679POPC   C4A47634   9.017  23.695   7.353
 8679POPC   C1B47635   9.197  23.779   6.453
 8679POPC   C2B47636   9.172  23.740   6.753
 8679POPC   C3B47637   9.189  23.820   7.053
 8679POPC   C4B47638   9.250  23.799   7.353
 8680POPC   NC347639  17.514  39.210   5.553
 8680POPC   PO447640  17.514  39.214   5.853
 8680POPC   GL147641  17.464  39.250   6.153
 8680POPC   GL247642  17.369  39.271   6.153
 8680POPC   C1A47643  17.462  39.244   6.453
 8680POPC   D2A47644  17.488  39.274   6.753
 8680POPC   C3A47645  17.543  39.259   7.053
 8680POPC   C4A47646  17.503  39.231   7.353
 8680POPC   C1B47647  17.242  39.205   6.453
 8680POPC   C2B47648  17.236  39.277   6.753
 8680POPC   C3B47649  17.275  39.224   7.053
 8680POPC   C4B47650  17.282  39.187   7.353
 8681POPC   NC347651  39.962   7.440   5.553
 8681POPC   PO447652  40.047   7.461   5.853
 8681POPC   GL147653  40.049   7.399   6.153
 8681POPC   GL247654  39.843   7.335   6.153
 8681POPC   C1A47655  39.972   7.462   6.453
 8681POPC   D2A47656  40.010   7.376   6.753
 8681POPC   C3A47657  39.995   7.379   7.053
 8681POPC   C4A47658  39.977   7.425   7.353
 8681POPC   C1B47659  39.818   7.391   6.453
 8681POPC   C2B47660  39.733   7.367   6.753
 8681POPC   C3B47661  39.749   7.329   7.053
 8681POPC   C4B47662  39.749   7.340   7.353
 8682POPC   NC347663  39.234  20.616   5.553
 8682POPC   PO447664  39.260  20.599   5.853
 8682POPC   GL147665  39.238  20.616   6.153
 8682POPC   GL247666  39.112  20.543   6.153
 8682POPC   C1A47667  39.191  20.659   6.453
 8682POPC   D2A47668  39.271  20.652   6.753
 8682POPC   C3A47669  39.260  20.566   7.053
 8682POPC   C4A47670  39.253  20.621   7.353
 8682POPC   C1B47671  38.983  20.532   6.453
 8682POPC   C2B47672  38.954  20.598   6.753
 8682POPC   C3B47673  38.975  20.564   7.053
 8682POPC   C4B47674  38.948  20.512   7.353
 8683POPC   NC347675  31.504  33.766   5.553
 8683POPC   PO447676  31.455  33.784   5.853
 8683POPC   GL147677  31.438  33.818   6.153
 8683POPC   GL247678  31.521  33.938   6.153
 8683POPC   C1A47679  31.521  33.757   6.453
 8683POPC   D2A47680  31.477  33.779   6.753
 8683POPC   C3A47681  31.474  33.790   7.053
 8683POPC   C4A47682  31.481  33.841   7.353
 8683POPC   C1B47683  31.501  34.017   6.453
 8683POPC   C2B47684  31.586  34.008   6.753
 8683POPC   C3B47685  31.577  34.088   7.053
 8683POPC   C4B47686  31.594  34.063   7.353
 8684POPC   NC347687  41.594  35.368   5.553
 8684POPC   PO447688  41.532  35.332   5.853
 8684POPC   GL147689  41.546  35.362   6.153
 8684POPC   GL247690  41.674  35.410   6.153
 8684POPC   C1A47691  41.564  35.344   6.453
 8684POPC   D2A47692  41.571  35.304   6.753
 8684POPC   C3A47693  41.530  35.401   7.053
 8684POPC   C4A47694  41.553  35.360   7.353
 8684POPC   C1B47695  41.745  35.516   6.453
 8684POPC   C2B47696  41.739  35.495   6.753
 8684POPC   C3B47697  41.774  35.525   7.053
 8684POPC   C4B47698  41.771  35.557   7.353
 8685POPC   NC347699  17.485  40.798   5.553
 8685POPC   PO447700  17.458  40.799   5.853
 8685POPC   GL147701  17.512  40.787   6.153
 8685POPC   GL247702  17.488  40.939   6.153
 8685POPC   C1A47703  17.508  40.780   6.453
 8685POPC   D2A47704  17.477  40.820   6.753
 8685POPC   C3A47705  17.495  40.763   7.053
 8685POPC   C4A47706  17.529  40.785   7.353
 8685POPC   C1B47707  17.505  41.053   6.453
 8685POPC   C2B47708  17.487  41.060   6.753
 8685POPC   C3B47709  17.478  41.054   7.053
 8685POPC   C4B47710  17.527  41.024   7.353
 8686POPC   NC347711   0.457  25.266   5.553
 8686POPC   PO447712   0.469  25.251   5.853
 8686POPC   GL147713   0.476  25.223   6.153
 8686POPC   GL247714   0.413  25.390   6.153
 8686POPC   C1A47715   0.389  25.229   6.453
 8686POPC   D2A47716   0.436  25.226   6.753
 8686POPC   C3A47717   0.475  25.264   7.053
 8686POPC   C4A47718   0.443  25.259   7.353
 8686POPC   C1B47719   0.337  25.445   6.453
 8686POPC   C2B47720   0.361  25.532   6.753
 8686POPC   C3B47721   0.339  25.481   7.053
 8686POPC   C4B47722   0.357  25.542   7.353
 8687POPC   NC347723  30.730  21.432   5.553
 8687POPC   PO447724  30.693  21.351   5.853
 8687POPC   GL147725  30.683  21.416   6.153
 8687POPC   GL247726  30.828  21.326   6.153
 8687POPC   C1A47727  30.652  21.336   6.453
 8687POPC   D2A47728  30.655  21.365   6.753
 8687POPC   C3A47729  30.728  21.388   7.053
 8687POPC   C4A47730  30.686  21.398   7.353
 8687POPC   C1B47731  30.922  21.227   6.453
 8687POPC   C2B47732  30.956  21.208   6.753
 8687POPC   C3B47733  30.912  21.244   7.053
 8687POPC   C4B47734  30.874  21.235   7.353
 8688POPC   NC347735  12.060  10.519   5.553
 8688POPC   PO447736  12.088  10.487   5.853
 8688POPC   GL147737  12.032  10.494   6.153
 8688POPC   GL247738  12.180  10.627   6.153
 8688POPC   C1A47739  12.044  10.489   6.453
 8688POPC   D2A47740  12.090  10.475   6.753
 8688POPC   C3A47741  12.116  10.551   7.053
 8688POPC   C4A47742  12.119  10.552   7.353
 8688POPC   C1B47743  12.221  10.737   6.453
 8688POPC   C2B47744  12.212  10.737   6.753
 8688POPC   C3B47745  12.299  10.748   7.053
 8688POPC   C4B47746  12.284  10.691   7.353
 8689POPC   NC347747  44.617  41.580   5.553
 8689POPC   PO447748  44.678  41.514   5.853
 8689POPC   GL147749  44.627  41.571   6.153
 8689POPC   GL247750  44.782  41.425   6.153
 8689POPC   C1A47751  44.644  41.545   6.453
 8689POPC   D2A47752  44.613  41.545   6.753
 8689POPC   C3A47753  44.635  41.587   7.053
 8689POPC   C4A47754  44.651  41.536   7.353
 8689POPC   C1B47755  44.821  41.356   6.453
 8689POPC   C2B47756  44.871  41.370   6.753
 8689POPC   C3B47757  44.849  41.355   7.053
 8689POPC   C4B47758  44.884  41.422   7.353
 8690POPC   NC347759   8.171  40.821   5.553
 8690POPC   PO447760   8.223  40.806   5.853
 8690POPC   GL147761   8.206  40.776   6.153
 8690POPC   GL247762   8.095  40.666   6.153
 8690POPC   C1A47763   8.216  40.775   6.453
 8690POPC   D2A47764   8.241  40.745   6.753
 8690POPC   C3A47765   8.163  40.738   7.053
 8690POPC   C4A47766   8.221  40.775   7.353
 8690POPC   C1B47767   8.083  40.550   6.453
 8690POPC   C2B47768   8.090  40.557   6.753
 8690POPC   C3B47769   8.015  40.556   7.053
 8690POPC   C4B47770   8.065  40.586   7.353
 8691POPC   NC347771   5.849  29.102   5.553
 8691POPC   PO447772   5.863  29.157   5.853
 8691POPC   GL147773   5.859  29.152   6.153
 8691POPC   GL247774   5.974  29.176   6.153
 8691POPC   C1A47775   5.905  29.174   6.453
 8691POPC   D2A47776   5.859  29.101   6.753
 8691POPC   C3A47777   5.844  29.151   7.053
 8691POPC   C4A47778   5.880  29.112   7.353
 8691POPC   C1B47779   6.145  29.217   6.453
 8691POPC   C2B47780   6.110  29.242   6.753
 8691POPC   C3B47781   6.057  29.211   7.053
 8691POPC   C4B47782   6.065  29.270   7.353
 8692POPC   NC347783  42.321  36.089   5.553
 8692POPC   PO447784  42.369  36.107   5.853
 8692POPC   GL147785  42.339  36.126   6.153
 8692POPC   GL247786  42.448  36.095   6.153
 8692POPC   C1A47787  42.334  36.136   6.453
 8692POPC   D2A47788  42.369  36.083   6.753
 8692POPC   C3A47789  42.331  36.147   7.053
 8692POPC   C4A47790  42.294  36.141   7.353
 8692POPC   C1B47791  42.525  36.002   6.453
 8692POPC   C2B47792  42.540  35.969   6.753
 8692POPC   C3B47793  42.537  36.042   7.053
 8692POPC   C4B47794  42.600  35.989   7.353
 8693POPC   NC347795  29.896  19.056   5.553
 8693POPC   PO447796  29.907  19.020   5.853
 8693POPC   GL147797  29.920  19.104   6.153
 8693POPC   GL247798  29.856  18.929   6.153
 8693POPC   C1A47799  29.910  19.070   6.453
 8693POPC   D2A47800  29.911  19.085   6.753
 8693POPC   C3A47801  29.943  19.089   7.053
 8693POPC   C4A47802  29.950  19.060   7.353
 8693POPC   C1B47803  29.792  18.886   6.453
 8693POPC   C2B47804  29.721  18.860   6.753
 8693POPC   C3B47805  29.748  18.907   7.053
 8693POPC   C4B47806  29.751  18.850   7.353
 8694POPC   NC347807  33.031  24.531   5.553
 8694POPC   PO447808  33.038  24.521   5.853
 8694POPC   GL147809  33.062  24.527   6.153
 8694POPC   GL247810  32.996  24.555   6.153
 8694POPC   C1A47811  33.019  24.469   6.453
 8694POPC   D2A47812  33.034  24.520   6.753
 8694POPC   C3A47813  32.997  24.465   7.053
 8694POPC   C4A47814  33.026  24.508   7.353
 8694POPC   C1B47815  32.953  24.685   6.453
 8694POPC   C2B47816  32.864  24.691   6.753
 8694POPC   C3B47817  32.911  24.664   7.053
 8694POPC   C4B47818  32.927  24.686   7.353
 8695POPC   NC347819   2.768  33.029   5.553
 8695POPC   PO447820   2.730  32.979   5.853
 8695POPC   GL147821   2.808  33.047   6.153
 8695POPC   GL247822   2.690  33.126   6.153
 8695POPC   C1A47823   2.793  33.014   6.453
 8695POPC   D2A47824   2.810  33.036   6.753
 8695POPC   C3A47825   2.749  33.033   7.053
 8695POPC   C4A47826   2.790  33.073   7.353
 8695POPC   C1B47827   2.604  33.242   6.453
 8695POPC   C2B47828   2.587  33.193   6.753
 8695POPC   C3B47829   2.657  33.198   7.053
 8695POPC   C4B47830   2.580  33.259   7.353
 8696POPC   NC347831  43.155  22.956   5.553
 8696POPC   PO447832  43.125  22.896   5.853
 8696POPC   GL147833  43.149  22.934   6.153
 8696POPC   GL247834  42.966  22.971   6.153
 8696POPC   C1A47835  43.095  22.923   6.453
 8696POPC   D2A47836  43.152  22.893   6.753
 8696POPC   C3A47837  43.150  22.961   7.053
 8696POPC   C4A47838  43.131  22.978   7.353
 8696POPC   C1B47839  42.891  22.967   6.453
 8696POPC   C2B47840  42.874  23.024   6.753
 8696POPC   C3B47841  42.824  23.017   7.053
 8696POPC   C4B47842  42.875  22.978   7.353
 8697POPC   NC347843  11.271  26.075   5.553
 8697POPC   PO447844  11.281  26.058   5.853
 8697POPC   GL147845  11.303  26.063   6.153
 8697POPC   GL247846  11.372  26.166   6.153
 8697POPC   C1A47847  11.339  26.062   6.453
 8697POPC   D2A47848  11.293  26.019   6.753
 8697POPC   C3A47849  11.278  26.066   7.053
 8697POPC   C4A47850  11.319  26.022   7.353
 8697POPC   C1B47851  11.402  26.309   6.453
 8697POPC   C2B47852  11.339  26.269   6.753
 8697POPC   C3B47853  11.399  26.292   7.053
 8697POPC   C4B47854  11.358  26.324   7.353
 8698POPC   NC347855  22.177  27.615   5.553
 8698POPC   PO447856  22.176  27.618   5.853
 8698POPC   GL147857  22.144  27.567   6.153
 8698POPC   GL247858  22.200  27.707   6.153
 8698POPC   C1A47859  22.118  27.578   6.453
 8698POPC   D2A47860  22.124  27.554   6.753
 8698POPC   C3A47861  22.177  27.585   7.053
 8698POPC   C4A47862  22.140  27.600   7.353
 8698POPC   C1B47863  22.151  27.854   6.453
 8698POPC   C2B47864  22.115  27.869   6.753
 8698POPC   C3B47865  22.131  27.793   7.053
 8698POPC   C4B47866  22.107  27.863   7.353
 8699POPC   NC347867  43.874  33.848   5.553
 8699POPC   PO447868  43.854  33.790   5.853
 8699POPC   GL147869  43.917  33.759   6.153
 8699POPC   GL247870  43.763  33.928   6.153
 8699POPC   C1A47871  43.864  33.829   6.453
 8699POPC   D2A47872  43.924  33.801   6.753
 8699POPC   C3A47873  43.932  33.830   7.053
 8699POPC   C4A47874  43.853  33.817   7.353
 8699POPC   C1B47875  43.680  33.974   6.453
 8699POPC   C2B47876  43.703  33.973   6.753
 8699POPC   C3B47877  43.701  33.953   7.053
 8699POPC   C4B47878  43.753  33.959   7.353
 8700POPC   NC347879  13.584  43.094   5.553
 8700POPC   PO447880  13.617  43.083   5.853
 8700POPC   GL147881  13.640  43.116   6.153
 8700POPC   GL247882  13.562  43.022   6.153
 8700POPC   C1A47883  13.578  43.080   6.453
 8700POPC   D2A47884  13.611  43.102   6.753
 8700POPC   C3A47885  13.669  43.131   7.053
 8700POPC   C4A47886  13.589  43.118   7.353
 8700POPC   C1B47887  13.559  42.861   6.453
 8700POPC   C2B47888  13.585  42.869   6.753
 8700POPC   C3B47889  13.564  42.874   7.053
 8700POPC   C4B47890  13.532  42.832   7.353
 8701POPC   NC347891  11.268  28.385   5.553
 8701POPC   PO447892  11.267  28.336   5.853
 8701POPC   GL147893  11.271  28.382   6.153
 8701POPC   GL247894  11.312  28.236   6.153
 8701POPC   C1A47895  11.257  28.415   6.453
 8701POPC   D2A47896  11.331  28.393   6.753
 8701POPC   C3A47897  11.305  28.403   7.053
 8701POPC   C4A47898  11.269  28.387   7.353
 8701POPC   C1B47899  11.369  28.147   6.453
 8701POPC   C2B47900  11.400  28.146   6.753
 8701POPC   C3B47901  11.351  28.091   7.053
 8701POPC   C4B47902  11.388  28.099   7.353
 8702POPC   NC347903  35.392   6.659   5.553
 8702POPC   PO447904  35.371   6.684   5.853
 8702POPC   GL147905  35.320   6.646   6.153
 8702POPC   GL247906  35.357   6.561   6.153
 8702POPC   C1A47907  35.354   6.609   6.453
 8702POPC   D2A47908  35.349   6.692   6.753
 8702POPC   C3A47909  35.327   6.635   7.053
 8702POPC   C4A47910  35.312   6.666   7.353
 8702POPC   C1B47911  35.256   6.365   6.453
 8702POPC   C2B47912  35.311   6.410   6.753
 8702POPC   C3B47913  35.339   6.397   7.053
 8702POPC   C4B47914  35.256   6.448   7.353
 8703POPC   NC347915   5.906   4.326   5.553
 8703POPC   PO447916   5.863   4.340   5.853
 8703POPC   GL147917   5.896   4.365   6.153
 8703POPC   GL247918   5.976   4.252   6.153
 8703POPC   C1A47919   5.896   4.296   6.453
 8703POPC   D2A47920   5.850   4.324   6.753
 8703POPC   C3A47921   5.892   4.289   7.053
 8703POPC   C4A47922   5.844   4.291   7.353
 8703POPC   C1B47923   6.111   4.237   6.453
 8703POPC   C2B47924   6.140   4.286   6.753
 8703POPC   C3B47925   6.089   4.272   7.053
 8703POPC   C4B47926   6.142   4.250   7.353
 8704POPC   NC347927  43.145  39.208   5.553
 8704POPC   PO447928  43.078  39.252   5.853
 8704POPC   GL147929  43.119  39.204   6.153
 8704POPC   GL247930  43.100  39.326   6.153
 8704POPC   C1A47931  43.096  39.249   6.453
 8704POPC   D2A47932  43.081  39.238   6.753
 8704POPC   C3A47933  43.083  39.226   7.053
 8704POPC   C4A47934  43.132  39.256   7.353
 8704POPC   C1B47935  43.076  39.487   6.453
 8704POPC   C2B47936  43.011  39.517   6.753
 8704POPC   C3B47937  43.081  39.499   7.053
 8704POPC   C4B47938  43.013  39.511   7.353
 8705POPC   NC347939  17.508   7.446   5.553
 8705POPC   PO447940  17.466   7.379   5.853
 8705POPC   GL147941  17.464   7.384   6.153
 8705POPC   GL247942  17.637   7.460   6.153
 8705POPC   C1A47943  17.479   7.431   6.453
 8705POPC   D2A47944  17.542   7.466   6.753
 8705POPC   C3A47945  17.495   7.393   7.053
 8705POPC   C4A47946  17.516   7.433   7.353
 8705POPC   C1B47947  17.759   7.464   6.453
 8705POPC   C2B47948  17.746   7.422   6.753
 8705POPC   C3B47949  17.709   7.391   7.053
 8705POPC   C4B47950  17.762   7.383   7.353
 8706POPC   NC347951   4.273  13.635   5.553
 8706POPC   PO447952   4.344  13.608   5.853
 8706POPC   GL147953   4.290  13.620   6.153
 8706POPC   GL247954   4.332  13.795   6.153
 8706POPC   C1A47955   4.272  13.612   6.453
 8706POPC   D2A47956   4.359  13.644   6.753
 8706POPC   C3A47957   4.323  13.600   7.053
 8706POPC   C4A47958   4.284  13.580   7.353
 8706POPC   C1B47959   4.379  13.828   6.453
 8706POPC   C2B47960   4.441  13.879   6.753
 8706POPC   C3B47961   4.414  13.858   7.053
 8706POPC   C4B47962   4.411  13.876   7.353
 8707POPC   NC347963  26.086  10.514   5.553
 8707POPC   PO447964  26.007  10.565   5.853
 8707POPC   GL147965  26.072  10.556   6.153
 8707POPC   GL247966  25.910  10.438   6.153
 8707POPC   C1A47967  26.063  10.487   6.453
 8707POPC   D2A47968  26.051  10.538   6.753
 8707POPC   C3A47969  26.084  10.553   7.053
 8707POPC   C4A47970  26.017  10.536   7.353
 8707POPC   C1B47971  25.829  10.394   6.453
 8707POPC   C2B47972  25.801  10.383   6.753
 8707POPC   C3B47973  25.778  10.467   7.053
 8707POPC   C4B47974  25.783  10.469   7.353
 8708POPC   NC347975  44.673  32.268   5.553
 8708POPC   PO447976  44.687  32.218   5.853
 8708POPC   GL147977  44.684  32.231   6.153
 8708POPC   GL247978  44.577  32.116   6.153
 8708POPC   C1A47979  44.707  32.200   6.453
 8708POPC   D2A47980  44.711  32.200   6.753
 8708POPC   C3A47981  44.658  32.274   7.053
 8708POPC   C4A47982  44.680  32.206   7.353
 8708POPC   C1B47983  44.471  32.069   6.453
 8708POPC   C2B47984  44.462  32.034   6.753
 8708POPC   C3B47985  44.519  32.058   7.053
 8708POPC   C4B47986  44.523  32.084   7.353
 8709POPC   NC347987  44.661  34.622   5.553
 8709POPC   PO447988  44.630  34.540   5.853
 8709POPC   GL147989  44.647  34.535   6.153
 8709POPC   GL247990  44.578  34.586   6.153
 8709POPC   C1A47991  44.711  34.625   6.453
 8709POPC   D2A47992  44.681  34.599   6.753
 8709POPC   C3A47993  44.709  34.614   7.053
 8709POPC   C4A47994  44.623  34.621   7.353
 8709POPC   C1B47995  44.452  34.541   6.453
 8709POPC   C2B47996  44.390  34.569   6.753
 8709POPC   C3B47997  44.417  34.485   7.053
 8709POPC   C4B47998  44.369  34.549   7.353
 8710POPC   NC347999  29.922  39.187   5.553
 8710POPC   PO448000  29.961  39.222   5.853
 8710POPC   GL148001  29.937  39.207   6.153
 8710POPC   GL248002  30.074  39.116   6.153
 8710POPC   C1A48003  29.924  39.217   6.453
 8710POPC   D2A48004  29.945  39.185   6.753
 8710POPC   C3A48005  29.905  39.216   7.053
 8710POPC   C4A48006  29.970  39.270   7.353
 8710POPC   C1B48007  30.118  39.138   6.453
 8710POPC   C2B48008  30.166  39.110   6.753
 8710POPC   C3B48009  30.144  39.106   7.053
 8710POPC   C4B48010  30.142  39.056   7.353
 8711POPC   NC348011  35.316   3.590   5.553
 8711POPC   PO448012  35.340   3.506   5.853
 8711POPC   GL148013  35.322   3.500   6.153
 8711POPC   GL248014  35.378   3.426   6.153
 8711POPC   C1A48015  35.382   3.585   6.453
 8711POPC   D2A48016  35.308   3.504   6.753
 8711POPC   C3A48017  35.304   3.498   7.053
 8711POPC   C4A48018  35.360   3.584   7.353
 8711POPC   C1B48019  35.352   3.326   6.453
 8711POPC   C2B48020  35.416   3.262   6.753
 8711POPC   C3B48021  35.384   3.271   7.053
 8711POPC   C4B48022  35.351   3.262   7.353
 8712POPC   NC348023  20.586  28.341   5.553
 8712POPC   PO448024  20.641  28.370   5.853
 8712POPC   GL148025  20.616  28.345   6.153
 8712POPC   GL248026  20.551  28.254   6.153
 8712POPC   C1A48027  20.568  28.346   6.453
 8712POPC   D2A48028  20.565  28.418   6.753
 8712POPC   C3A48029  20.581  28.338   7.053
 8712POPC   C4A48030  20.650  28.390   7.353
 8712POPC   C1B48031  20.516  28.146   6.453
 8712POPC   C2B48032  20.536  28.118   6.753
 8712POPC   C3B48033  20.486  28.096   7.053
 8712POPC   C4B48034  20.564  28.095   7.353
 8713POPC   NC348035  25.263   2.717   5.553
 8713POPC   PO448036  25.270   2.720   5.853
 8713POPC   GL148037  25.295   2.810   6.153
 8713POPC   GL248038  25.332   2.639   6.153
 8713POPC   C1A48039  25.295   2.808   6.453
 8713POPC   D2A48040  25.290   2.785   6.753
 8713POPC   C3A48041  25.218   2.723   7.053
 8713POPC   C4A48042  25.247   2.746   7.353
 8713POPC   C1B48043  25.385   2.511   6.453
 8713POPC   C2B48044  25.385   2.536   6.753
 8713POPC   C3B48045  25.333   2.586   7.053
 8713POPC   C4B48046  25.340   2.503   7.353
 8714POPC   NC348047   8.973  40.010   5.553
 8714POPC   PO448048   8.962  40.051   5.853
 8714POPC   GL148049   8.946  40.017   6.153
 8714POPC   GL248050   9.060  40.069   6.153
 8714POPC   C1A48051   8.925  39.995   6.453
 8714POPC   D2A48052   8.945  39.959   6.753
 8714POPC   C3A48053   8.994  39.990   7.053
 8714POPC   C4A48054   8.943  39.983   7.353
 8714POPC   C1B48055   9.154  40.138   6.453
 8714POPC   C2B48056   9.161  40.152   6.753
 8714POPC   C3B48057   9.187  40.173   7.053
 8714POPC   C4B48058   9.152  40.132   7.353
 8715POPC   NC348059  18.300  12.053   5.553
 8715POPC   PO448060  18.319  12.045   5.853
 8715POPC   GL148061  18.313  12.043   6.153
 8715POPC   GL248062  18.157  12.152   6.153
 8715POPC   C1A48063  18.301  12.081   6.453
 8715POPC   D2A48064  18.277  12.057   6.753
 8715POPC   C3A48065  18.245  12.092   7.053
 8715POPC   C4A48066  18.324  12.060   7.353
 8715POPC   C1B48067  18.014  12.097   6.453
 8715POPC   C2B48068  18.019  12.178   6.753
 8715POPC   C3B48069  18.070  12.109   7.053
 8715POPC   C4B48070  18.015  12.189   7.353
 8716POPC   NC348071   3.555  16.003   5.553
 8716POPC   PO448072   3.569  15.950   5.853
 8716POPC   GL148073   3.519  15.939   6.153
 8716POPC   GL248074   3.435  16.040   6.153
 8716POPC   C1A48075   3.537  15.924   6.453
 8716POPC   D2A48076   3.541  15.934   6.753
 8716POPC   C3A48077   3.535  15.908   7.053
 8716POPC   C4A48078   3.570  15.915   7.353
 8716POPC   C1B48079   3.438  16.136   6.453
 8716POPC   C2B48080   3.396  16.198   6.753
 8716POPC   C3B48081   3.416  16.168   7.053
 8716POPC   C4B48082   3.372  16.131   7.353
 8717POPC   NC348083   1.960  44.698   5.553
 8717POPC   PO448084   2.023  44.692   5.853
 8717POPC   GL148085   2.028  44.629   6.153
 8717POPC   GL248086   2.031  44.737   6.153
 8717POPC   C1A48087   2.001  44.629   6.453
 8717POPC   D2A48088   2.012  44.621   6.753
 8717POPC   C3A48089   1.955  44.662   7.053
 8717POPC   C4A48090   2.009  44.651   7.353
 8717POPC   C1B48091   2.091  44.834   6.453
 8717POPC   C2B48092   2.163  44.915   6.753
 8717POPC   C3B48093   2.148  44.835   7.053
 8717POPC   C4B48094   2.147  44.888   7.353
 8718POPC   NC348095  39.221  27.558   5.553
 8718POPC   PO448096  39.225  27.543   5.853
 8718POPC   GL148097  39.263  27.622   6.153
 8718POPC   GL248098  39.318  27.747   6.153
 8718POPC   C1A48099  39.242  27.585   6.453
 8718POPC   D2A48100  39.211  27.560   6.753
 8718POPC   C3A48101  39.195  27.622   7.053
 8718POPC   C4A48102  39.219  27.573   7.353
 8718POPC   C1B48103  39.354  27.809   6.453
 8718POPC   C2B48104  39.339  27.784   6.753
 8718POPC   C3B48105  39.352  27.841   7.053
 8718POPC   C4B48106  39.311  27.786   7.353
 8719POPC   NC348107  20.581  26.817   5.553
 8719POPC   PO448108  20.575  26.859   5.853
 8719POPC   GL148109  20.632  26.797   6.153
 8719POPC   GL248110  20.648  26.657   6.153
 8719POPC   C1A48111  20.587  26.786   6.453
 8719POPC   D2A48112  20.575  26.834   6.753
 8719POPC   C3A48113  20.592  26.861   7.053
 8719POPC   C4A48114  20.631  26.785   7.353
 8719POPC   C1B48115  20.751  26.566   6.453
 8719POPC   C2B48116  20.736  26.557   6.753
 8719POPC   C3B48117  20.674  26.582   7.053
 8719POPC   C4B48118  20.759  26.603   7.353
 8720POPC   NC348119  11.280  37.726   5.553
 8720POPC   PO448120  11.276  37.721   5.853
 8720POPC   GL148121  11.326  37.684   6.153
 8720POPC   GL248122  11.447  37.740   6.153
 8720POPC   C1A48123  11.347  37.643   6.453
 8720POPC   D2A48124  11.333  37.697   6.753
 8720POPC   C3A48125  11.282  37.637   7.053
 8720POPC   C4A48126  11.312  37.709   7.353
 8720POPC   C1B48127  11.579  37.743   6.453
 8720POPC   C2B48128  11.541  37.791   6.753
 8720POPC   C3B48129  11.538  37.800   7.053
 8720POPC   C4B48130  11.533  37.778   7.353
 8721POPC   NC348131  14.366  11.348   5.553
 8721POPC   PO448132  14.446  11.305   5.853
 8721POPC   GL148133  14.420  11.344   6.153
 8721POPC   GL248134  14.362  11.250   6.153
 8721POPC   C1A48135  14.443  11.278   6.453
 8721POPC   D2A48136  14.400  11.301   6.753
 8721POPC   C3A48137  14.361  11.299   7.053
 8721POPC   C4A48138  14.432  11.254   7.353
 8721POPC   C1B48139  14.260  11.094   6.453
 8721POPC   C2B48140  14.220  11.116   6.753
 8721POPC   C3B48141  14.203  11.105   7.053
 8721POPC   C4B48142  14.225  11.105   7.353
 8722POPC   NC348143  31.505   2.013   5.553
 8722POPC   PO448144  31.454   1.944   5.853
 8722POPC   GL148145  31.509   1.981   6.153
 8722POPC   GL248146  31.402   1.825   6.153
 8722POPC   C1A48147  31.475   1.963   6.453
 8722POPC   D2A48148  31.507   2.024   6.753
 8722POPC   C3A48149  31.507   1.940   7.053
 8722POPC   C4A48150  31.468   2.029   7.353
 8722POPC   C1B48151  31.449   1.759   6.453
 8722POPC   C2B48152  31.372   1.751   6.753
 8722POPC   C3B48153  31.443   1.730   7.053
 8722POPC   C4B48154  31.442   1.776   7.353
 8723POPC   NC348155  11.270  19.844   5.553
 8723POPC   PO448156  11.273  19.817   5.853
 8723POPC   GL148157  11.298  19.806   6.153
 8723POPC   GL248158  11.240  19.818   6.153
 8723POPC   C1A48159  11.262  19.817   6.453
 8723POPC   D2A48160  11.330  19.813   6.753
 8723POPC   C3A48161  11.333  19.808   7.053
 8723POPC   C4A48162  11.285  19.807   7.353
 8723POPC   C1B48163  11.136  19.676   6.453
 8723POPC   C2B48164  11.098  19.681   6.753
 8723POPC   C3B48165  11.106  19.694   7.053
 8723POPC   C4B48166  11.079  19.733   7.353
 8724POPC   NC348167  10.512  22.896   5.553
 8724POPC   PO448168  10.506  22.944   5.853
 8724POPC   GL148169  10.540  22.958   6.153
 8724POPC   GL248170  10.408  22.969   6.153
 8724POPC   C1A48171  10.497  22.908   6.453
 8724POPC   D2A48172  10.524  22.898   6.753
 8724POPC   C3A48173  10.482  22.966   7.053
 8724POPC   C4A48174  10.563  22.973   7.353
 8724POPC   C1B48175  10.326  23.043   6.453
 8724POPC   C2B48176  10.344  23.066   6.753
 8724POPC   C3B48177  10.305  23.085   7.053
 8724POPC   C4B48178  10.267  23.022   7.353
 8725POPC   NC348179  43.108   1.962   5.553
 8725POPC   PO448180  43.134   2.015   5.853
 8725POPC   GL148181  43.091   1.973   6.153
 8725POPC   GL248182  42.945   1.962   6.153
 8725POPC   C1A48183  43.076   1.968   6.453
 8725POPC   D2A48184  43.154   2.017   6.753
 8725POPC   C3A48185  43.092   2.039   7.053
 8725POPC   C4A48186  43.102   1.970   7.353
 8725POPC   C1B48187  42.894   1.884   6.453
 8725POPC   C2B48188  42.885   1.909   6.753
 8725POPC   C3B48189  42.831   1.906   7.053
 8725POPC   C4B48190  42.915   1.923   7.353
 8726POPC   NC348191  15.999  10.539   5.553
 8726POPC   PO448192  15.932  10.517   5.853
 8726POPC   GL148193  16.005  10.522   6.153
 8726POPC   GL248194  16.010  10.637   6.153
 8726POPC   C1A48195  15.959  10.535   6.453
 8726POPC   D2A48196  15.974  10.569   6.753
 8726POPC   C3A48197  15.933  10.503   7.053
 8726POPC   C4A48198  15.948  10.519   7.353
 8726POPC   C1B48199  16.173  10.700   6.453
 8726POPC   C2B48200  16.172  10.631   6.753
 8726POPC   C3B48201  16.119  10.638   7.053
 8726POPC   C4B48202  16.167  10.711   7.353
 8727POPC   NC348203  39.280   2.004   5.553
 8727POPC   PO448204  39.214   1.960   5.853
 8727POPC   GL148205  39.220   1.980   6.153
 8727POPC   GL248206  39.377   1.907   6.153
 8727POPC   C1A48207  39.181   2.018   6.453
 8727POPC   D2A48208  39.244   2.012   6.753
 8727POPC   C3A48209  39.198   1.942   7.053
 8727POPC   C4A48210  39.192   2.002   7.353
 8727POPC   C1B48211  39.404   1.825   6.453
 8727POPC   C2B48212  39.398   1.900   6.753
 8727POPC   C3B48213  39.437   1.897   7.053
 8727POPC   C4B48214  39.493   1.851   7.353
 8728POPC   NC348215   9.708  12.855   5.553
 8728POPC   PO448216   9.753  12.872   5.853
 8728POPC   GL148217   9.757  12.837   6.153
 8728POPC   GL248218   9.735  12.680   6.153
 8728POPC   C1A48219   9.785  12.831   6.453
 8728POPC   D2A48220   9.713  12.818   6.753
 8728POPC   C3A48221   9.780  12.864   7.053
 8728POPC   C4A48222   9.778  12.861   7.353
 8728POPC   C1B48223   9.757  12.611   6.453
 8728POPC   C2B48224   9.740  12.554   6.753
 8728POPC   C3B48225   9.756  12.595   7.053
 8728POPC   C4B48226   9.768  12.557   7.353
 8729POPC   NC348227  31.430  19.097   5.553
 8729POPC   PO448228  31.450  19.013   5.853
 8729POPC   GL148229  31.503  19.053   6.153
 8729POPC   GL248230  31.496  19.156   6.153
 8729POPC   C1A48231  31.510  19.098   6.453
 8729POPC   D2A48232  31.448  19.052   6.753
 8729POPC   C3A48233  31.439  19.028   7.053
 8729POPC   C4A48234  31.513  19.101   7.353
 8729POPC   C1B48235  31.489  19.275   6.453
 8729POPC   C2B48236  31.494  19.298   6.753
 8729POPC   C3B48237  31.541  19.302   7.053
 8729POPC   C4B48238  31.538  19.314   7.353
 8730POPC   NC348239  26.769  26.771   5.553
 8730POPC   PO448240  26.864  26.769   5.853
 8730POPC   GL148241  26.782  26.787   6.153
 8730POPC   GL248242  26.733  26.846   6.153
 8730POPC   C1A48243  26.816  26.830   6.453
 8730POPC   D2A48244  26.777  26.829   6.753
 8730POPC   C3A48245  26.858  26.835   7.053
 8730POPC   C4A48246  26.865  26.812   7.353
 8730POPC   C1B48247  26.621  26.887   6.453
 8730POPC   C2B48248  26.583  26.976   6.753
 8730POPC   C3B48249  26.637  26.952   7.053
 8730POPC   C4B48250  26.583  26.942   7.353
 8731POPC   NC348251  19.050  14.413   5.553
 8731POPC   PO448252  19.052  14.420   5.853
 8731POPC   GL148253  19.018  14.361   6.153
 8731POPC   GL248254  19.048  14.265   6.153
 8731POPC   C1A48255  19.024  14.446   6.453
 8731POPC   D2A48256  19.029  14.428   6.753
 8731POPC   C3A48257  19.035  14.418   7.053
 8731POPC   C4A48258  19.016  14.393   7.353
 8731POPC   C1B48259  19.081  14.188   6.453
 8731POPC   C2B48260  19.072  14.159   6.753
 8731POPC   C3B48261  19.142  14.108   7.053
 8731POPC   C4B48262  19.138  14.130   7.353
 8732POPC   NC348263  14.422  43.917   5.553
 8732POPC   PO448264  14.359  43.840   5.853
 8732POPC   GL148265  14.378  43.864   6.153
 8732POPC   GL248266  14.428  44.016   6.153
 8732POPC   C1A48267  14.377  43.903   6.453
 8732POPC   D2A48268  14.387  43.837   6.753
 8732POPC   C3A48269  14.421  43.870   7.053
 8732POPC   C4A48270  14.403  43.851   7.353
 8732POPC   C1B48271  14.525  44.085   6.453
 8732POPC   C2B48272  14.586  44.055   6.753
 8732POPC   C3B48273  14.520  44.083   7.053
 8732POPC   C4B48274  14.505  44.059   7.353
 8733POPC   NC348275  20.604  31.443   5.553
 8733POPC   PO448276  20.591  31.445   5.853
 8733POPC   GL148277  20.601  31.485   6.153
 8733POPC   GL248278  20.729  31.452   6.153
 8733POPC   C1A48279  20.607  31.450   6.453
 8733POPC   D2A48280  20.599  31.434   6.753
 8733POPC   C3A48281  20.629  31.471   7.053
 8733POPC   C4A48282  20.626  31.522   7.353
 8733POPC   C1B48283  20.842  31.529   6.453
 8733POPC   C2B48284  20.859  31.529   6.753
 8733POPC   C3B48285  20.853  31.541   7.053
 8733POPC   C4B48286  20.872  31.528   7.353
 8734POPC   NC348287   6.615  24.454   5.553
 8734POPC   PO448288   6.652  24.502   5.853
 8734POPC   GL148289   6.598  24.502   6.153
 8734POPC   GL248290   6.767  24.446   6.153
 8734POPC   C1A48291   6.688  24.441   6.453
 8734POPC   D2A48292   6.622  24.489   6.753
 8734POPC   C3A48293   6.652  24.536   7.053
 8734POPC   C4A48294   6.664  24.534   7.353
 8734POPC   C1B48295   6.888  24.452   6.453
 8734POPC   C2B48296   6.854  24.531   6.753
 8734POPC   C3B48297   6.876  24.530   7.053
 8734POPC   C4B48298   6.907  24.510   7.353
 8735POPC   NC348299  33.794   8.182   5.553
 8735POPC   PO448300  33.793   8.190   5.853
 8735POPC   GL148301  33.767   8.222   6.153
 8735POPC   GL248302  33.707   8.175   6.153
 8735POPC   C1A48303  33.771   8.218   6.453
 8735POPC   D2A48304  33.794   8.223   6.753
 8735POPC   C3A48305  33.848   8.160   7.053
 8735POPC   C4A48306  33.753   8.214   7.353
 8735POPC   C1B48307  33.568   8.071   6.453
 8735POPC   C2B48308  33.611   8.135   6.753
 8735POPC   C3B48309  33.552   8.064   7.053
 8735POPC   C4B48310  33.527   8.150   7.353
 8736POPC   NC348311   1.993  31.440   5.553
 8736POPC   PO448312   1.941  31.514   5.853
 8736POPC   GL148313   2.010  31.456   6.153
 8736POPC   GL248314   2.033  31.350   6.153
 8736POPC   C1A48315   1.946  31.432   6.453
 8736POPC   D2A48316   2.020  31.428   6.753
 8736POPC   C3A48317   1.991  31.464   7.053
 8736POPC   C4A48318   2.031  31.436   7.353
 8736POPC   C1B48319   1.963  31.173   6.453
 8736POPC   C2B48320   2.023  31.229   6.753
 8736POPC   C3B48321   2.006  31.216   7.053
 8736POPC   C4B48322   2.025  31.246   7.353
 8737POPC   NC348323  39.210   7.401   5.553
 8737POPC   PO448324  39.261   7.468   5.853
 8737POPC   GL148325  39.244   7.452   6.153
 8737POPC   GL248326  39.188   7.284   6.153
 8737POPC   C1A48327  39.249   7.441   6.453
 8737POPC   D2A48328  39.246   7.381   6.753
 8737POPC   C3A48329  39.220   7.455   7.053
 8737POPC   C4A48330  39.241   7.392   7.353
 8737POPC   C1B48331  39.051   7.244   6.453
 8737POPC   C2B48332  39.110   7.181   6.753
 8737POPC   C3B48333  39.093   7.220   7.053
 8737POPC   C4B48334  39.113   7.184   7.353
 8738POPC   NC348335  30.657   2.737   5.553
 8738POPC   PO448336  30.734   2.716   5.853
 8738POPC   GL148337  30.709   2.753   6.153
 8738POPC   GL248338  30.562   2.746   6.153
 8738POPC   C1A48339  30.721   2.737   6.453
 8738POPC   D2A48340  30.696   2.717   6.753
 8738POPC   C3A48341  30.662   2.791   7.053
 8738POPC   C4A48342  30.650   2.731   7.353
 8738POPC   C1B48343  30.441   2.595   6.453
 8738POPC   C2B48344  30.456   2.669   6.753
 8738POPC   C3B48345  30.446   2.672   7.053
 8738POPC   C4B48346  30.529   2.623   7.353
 8739POPC   NC348347  33.806  43.155   5.553
 8739POPC   PO448348  33.835  43.131   5.853
 8739POPC   GL148349  33.758  43.117   6.153
 8739POPC   GL248350  33.935  43.076   6.153
 8739POPC   C1A48351  33.790  43.132   6.453
 8739POPC   D2A48352  33.770  43.088   6.753
 8739POPC   C3A48353  33.836  43.066   7.053
 8739POPC   C4A48354  33.787  43.082   7.353
 8739POPC   C1B48355  33.977  42.982   6.453
 8739POPC   C2B48356  33.990  43.041   6.753
 8739POPC   C3B48357  34.018  43.040   7.053
 8739POPC   C4B48358  34.056  42.969   7.353
 8740POPC   NC348359  19.835  31.480   5.553
 8740POPC   PO448360  19.883  31.451   5.853
 8740POPC   GL148361  19.849  31.486   6.153
 8740POPC   GL248362  19.752  31.481   6.153
 8740POPC   C1A48363  19.802  31.484   6.453
 8740POPC   D2A48364  19.834  31.464   6.753
 8740POPC   C3A48365  19.848  31.434   7.053
 8740POPC   C4A48366  19.852  31.515   7.353
 8740POPC   C1B48367  19.573  31.518   6.453
 8740POPC   C2B48368  19.644  31.552   6.753
 8740POPC   C3B48369  19.646  31.509   7.053
 8740POPC   C4B48370  19.640  31.529   7.353
 8741POPC   NC348371  41.606  25.223   5.553
 8741POPC   PO448372  41.558  25.249   5.853
 8741POPC   GL148373  41.570  25.236   6.153
 8741POPC   GL248374  41.695  25.246   6.153
 8741POPC   C1A48375  41.524  25.222   6.453
 8741POPC   D2A48376  41.534  25.249   6.753
 8741POPC   C3A48377  41.539  25.225   7.053
 8741POPC   C4A48378  41.523  25.240   7.353
 8741POPC   C1B48379  41.813  25.314   6.453
 8741POPC   C2B48380  41.833  25.328   6.753
 8741POPC   C3B48381  41.766  25.306   7.053
 8741POPC   C4B48382  41.817  25.339   7.353
 8742POPC   NC348383  21.416  35.388   5.553
 8742POPC   PO448384  21.357  35.334   5.853
 8742POPC   GL148385  21.400  35.338   6.153
 8742POPC   GL248386  21.326  35.230   6.153
 8742POPC   C1A48387  21.373  35.354   6.453
 8742POPC   D2A48388  21.374  35.335   6.753
 8742POPC   C3A48389  21.387  35.358   7.053
 8742POPC   C4A48390  21.356  35.308   7.353
 8742POPC   C1B48391  21.150  35.222   6.453
 8742POPC   C2B48392  21.164  35.242   6.753
 8742POPC   C3B48393  21.172  35.219   7.053
 8742POPC   C4B48394  21.186  35.226   7.353
 8743POPC   NC348395  18.303  17.479   5.553
 8743POPC   PO448396  18.317  17.486   5.853
 8743POPC   GL148397  18.269  17.508   6.153
 8743POPC   GL248398  18.364  17.591   6.153
 8743POPC   C1A48399  18.303  17.490   6.453
 8743POPC   D2A48400  18.314  17.467   6.753
 8743POPC   C3A48401  18.313  17.535   7.053
 8743POPC   C4A48402  18.313  17.473   7.353
 8743POPC   C1B48403  18.495  17.535   6.453
 8743POPC   C2B48404  18.472  17.539   6.753
 8743POPC   C3B48405  18.478  17.544   7.053
 8743POPC   C4B48406  18.512  17.562   7.353
 8744POPC   NC348407  33.820  22.143   5.553
 8744POPC   PO448408  33.831  22.163   5.853
 8744POPC   GL148409  33.810  22.168   6.153
 8744POPC   GL248410  33.783  22.034   6.153
 8744POPC   C1A48411  33.760  22.209   6.453
 8744POPC   D2A48412  33.818  22.188   6.753
 8744POPC   C3A48413  33.839  22.112   7.053
 8744POPC   C4A48414  33.767  22.181   7.353
 8744POPC   C1B48415  33.666  21.947   6.453
 8744POPC   C2B48416  33.707  21.907   6.753
 8744POPC   C3B48417  33.648  21.892   7.053
 8744POPC   C4B48418  33.678  21.955   7.353
 8745POPC   NC348419  18.329  32.985   5.553
 8745POPC   PO448420  18.324  33.058   5.853
 8745POPC   GL148421  18.273  33.012   6.153
 8745POPC   GL248422  18.383  32.995   6.153
 8745POPC   C1A48423  18.301  33.062   6.453
 8745POPC   D2A48424  18.235  33.005   6.753
 8745POPC   C3A48425  18.271  33.061   7.053
 8745POPC   C4A48426  18.263  33.050   7.353
 8745POPC   C1B48427  18.467  32.933   6.453
 8745POPC   C2B48428  18.552  32.962   6.753
 8745POPC   C3B48429  18.481  32.939   7.053
 8745POPC   C4B48430  18.547  32.941   7.353
 8746POPC   NC348431   2.787  29.892   5.553
 8746POPC   PO448432   2.739  29.958   5.853
 8746POPC   GL148433   2.809  29.961   6.153
 8746POPC   GL248434   2.690  29.936   6.153
 8746POPC   C1A48435   2.759  29.880   6.453
 8746POPC   D2A48436   2.758  29.955   6.753
 8746POPC   C3A48437   2.793  29.933   7.053
 8746POPC   C4A48438   2.777  29.896   7.353
 8746POPC   C1B48439   2.473  29.917   6.453
 8746POPC   C2B48440   2.490  29.935   6.753
 8746POPC   C3B48441   2.478  29.849   7.053
 8746POPC   C4B48442   2.473  29.940   7.353
 8747POPC   NC348443  22.975  41.587   5.553
 8747POPC   PO448444  22.895  41.581   5.853
 8747POPC   GL148445  22.909  41.560   6.153
 8747POPC   GL248446  22.853  41.581   6.153
 8747POPC   C1A48447  22.925  41.592   6.453
 8747POPC   D2A48448  22.942  41.585   6.753
 8747POPC   C3A48449  22.952  41.588   7.053
 8747POPC   C4A48450  22.953  41.569   7.353
 8747POPC   C1B48451  22.680  41.504   6.453
 8747POPC   C2B48452  22.685  41.544   6.753
 8747POPC   C3B48453  22.656  41.542   7.053
 8747POPC   C4B48454  22.664  41.556   7.353
 8748POPC   NC348455  39.184   4.292   5.553
 8748POPC   PO448456  39.216   4.350   5.853
 8748POPC   GL148457  39.279   4.275   6.153
 8748POPC   GL248458  39.308   4.418   6.153
 8748POPC   C1A48459  39.205   4.363   6.453
 8748POPC   D2A48460  39.276   4.306   6.753
 8748POPC   C3A48461  39.196   4.302   7.053
 8748POPC   C4A48462  39.240   4.346   7.353
 8748POPC   C1B48463  39.318   4.550   6.453
 8748POPC   C2B48464  39.259   4.592   6.753
 8748POPC   C3B48465  39.341   4.515   7.053
 8748POPC   C4B48466  39.298   4.550   7.353
 8749POPC   NC348467   7.387  39.224   5.553
 8749POPC   PO448468   7.419  39.228   5.853
 8749POPC   GL148469   7.439  39.271   6.153
 8749POPC   GL248470   7.338  39.105   6.153
 8749POPC   C1A48471   7.402  39.202   6.453
 8749POPC   D2A48472   7.457  39.200   6.753
 8749POPC   C3A48473   7.405  39.272   7.053
 8749POPC   C4A48474   7.389  39.261   7.353
 8749POPC   C1B48475   7.311  39.045   6.453
 8749POPC   C2B48476   7.273  38.999   6.753
 8749POPC   C3B48477   7.218  39.029   7.053
 8749POPC   C4B48478   7.303  39.026   7.353
 8750POPC   NC348479   7.413  27.634   5.553
 8750POPC   PO448480   7.373  27.576   5.853
 8750POPC   GL148481   7.407  27.587   6.153
 8750POPC   GL248482   7.588  27.626   6.153
 8750POPC   C1A48483   7.419  27.628   6.453
 8750POPC   D2A48484   7.382  27.559   6.753
 8750POPC   C3A48485   7.433  27.596   7.053
 8750POPC   C4A48486   7.407  27.634   7.353
 8750POPC   C1B48487   7.623  27.626   6.453
 8750POPC   C2B48488   7.697  27.551   6.753
 8750POPC   C3B48489   7.630  27.600   7.053
 8750POPC   C4B48490   7.705  27.637   7.353
 8751POPC   NC348491  38.494  32.974   5.553
 8751POPC   PO448492  38.504  33.001   5.853
 8751POPC   GL148493  38.408  32.980   6.153
 8751POPC   GL248494  38.582  33.069   6.153
 8751POPC   C1A48495  38.427  32.977   6.453
 8751POPC   D2A48496  38.497  32.993   6.753
 8751POPC   C3A48497  38.484  33.058   7.053
 8751POPC   C4A48498  38.446  33.073   7.353
 8751POPC   C1B48499  38.748  32.993   6.453
 8751POPC   C2B48500  38.709  33.061   6.753
 8751POPC   C3B48501  38.673  33.057   7.053
 8751POPC   C4B48502  38.745  33.045   7.353
 8752POPC   NC348503  15.192   2.028   5.553
 8752POPC   PO448504  15.179   2.021   5.853
 8752POPC   GL148505  15.167   2.007   6.153
 8752POPC   GL248506  15.129   2.062   6.153
 8752POPC   C1A48507  15.159   2.013   6.453
 8752POPC   D2A48508  15.139   2.022   6.753
 8752POPC   C3A48509  15.169   1.972   7.053
 8752POPC   C4A48510  15.196   1.955   7.353
 8752POPC   C1B48511  15.040   2.174   6.453
 8752POPC   C2B48512  15.056   2.169   6.753
 8752POPC   C3B48513  15.052   2.215   7.053
 8752POPC   C4B48514  15.066   2.226   7.353
 8753POPC   NC348515   9.740  22.906   5.553
 8753POPC   PO448516   9.758  22.922   5.853
 8753POPC   GL148517   9.710  22.947   6.153
 8753POPC   GL248518   9.677  22.976   6.153
 8753POPC   C1A48519   9.703  22.929   6.453
 8753POPC   D2A48520   9.773  22.979   6.753
 8753POPC   C3A48521   9.768  22.914   7.053
 8753POPC   C4A48522   9.734  22.907   7.353
 8753POPC   C1B48523   9.492  23.086   6.453
 8753POPC   C2B48524   9.577  23.026   6.753
 8753POPC   C3B48525   9.488  23.058   7.053
 8753POPC   C4B48526   9.564  23.012   7.353
 8754POPC   NC348527  21.398   5.126   5.553
 8754POPC   PO448528  21.350   5.131   5.853
 8754POPC   GL148529  21.411   5.126   6.153
 8754POPC   GL248530  21.267   5.215   6.153
 8754POPC   C1A48531  21.347   5.045   6.453
 8754POPC   D2A48532  21.423   5.105   6.753
 8754POPC   C3A48533  21.427   5.129   7.053
 8754POPC   C4A48534  21.356   5.104   7.353
 8754POPC   C1B48535  21.222   5.292   6.453
 8754POPC   C2B48536  21.214   5.267   6.753
 8754POPC   C3B48537  21.206   5.288   7.053
 8754POPC   C4B48538  21.143   5.269   7.353
 8755POPC   NC348539  24.459  18.249   5.553
 8755POPC   PO448540  24.504  18.324   5.853
 8755POPC   GL148541  24.501  18.291   6.153
 8755POPC   GL248542  24.364  18.381   6.153
 8755POPC   C1A48543  24.462  18.279   6.453
 8755POPC   D2A48544  24.509  18.237   6.753
 8755POPC   C3A48545  24.527  18.326   7.053
 8755POPC   C4A48546  24.461  18.237   7.353
 8755POPC   C1B48547  24.222  18.365   6.453
 8755POPC   C2B48548  24.238  18.429   6.753
 8755POPC   C3B48549  24.227  18.346   7.053
 8755POPC   C4B48550  24.261  18.344   7.353
 8756POPC   NC348551  33.037   3.583   5.553
 8756POPC   PO448552  33.072   3.549   5.853
 8756POPC   GL148553  32.984   3.570   6.153
 8756POPC   GL248554  33.150   3.417   6.153
 8756POPC   C1A48555  33.005   3.519   6.453
 8756POPC   D2A48556  33.017   3.547   6.753
 8756POPC   C3A48557  33.002   3.514   7.053
 8756POPC   C4A48558  32.975   3.519   7.353
 8756POPC   C1B48559  33.248   3.373   6.453
 8756POPC   C2B48560  33.264   3.337   6.753
 8756POPC   C3B48561  33.188   3.370   7.053
 8756POPC   C4B48562  33.173   3.423   7.353
 8757POPC   NC348563   3.555   4.270   5.553
 8757POPC   PO448564   3.579   4.338   5.853
 8757POPC   GL148565   3.493   4.348   6.153
 8757POPC   GL248566   3.639   4.404   6.153
 8757POPC   C1A48567   3.557   4.281   6.453
 8757POPC   D2A48568   3.527   4.309   6.753
 8757POPC   C3A48569   3.517   4.352   7.053
 8757POPC   C4A48570   3.576   4.364   7.353
 8757POPC   C1B48571   3.669   4.569   6.453
 8757POPC   C2B48572   3.702   4.547   6.753
 8757POPC   C3B48573   3.673   4.521   7.053
 8757POPC   C4B48574   3.642   4.533   7.353
 8758POPC   NC348575  35.362  31.513   5.553
 8758POPC   PO448576  35.306  31.457   5.853
 8758POPC   GL148577  35.399  31.508   6.153
 8758POPC   GL248578  35.487  31.450   6.153
 8758POPC   C1A48579  35.311  31.485   6.453
 8758POPC   D2A48580  35.328  31.463   6.753
 8758POPC   C3A48581  35.396  31.469   7.053
 8758POPC   C4A48582  35.362  31.496   7.353
 8758POPC   C1B48583  35.561  31.474   6.453
 8758POPC   C2B48584  35.614  31.434   6.753
 8758POPC   C3B48585  35.615  31.490   7.053
 8758POPC   C4B48586  35.620  31.443   7.353
 8759POPC   NC348587   1.972  34.574   5.553
 8759POPC   PO448588   1.996  34.547   5.853
 8759POPC   GL148589   1.943  34.527   6.153
 8759POPC   GL248590   2.042  34.439   6.153
 8759POPC   C1A48591   2.020  34.557   6.453
 8759POPC   D2A48592   1.962  34.549   6.753
 8759POPC   C3A48593   1.958  34.586   7.053
 8759POPC   C4A48594   1.964  34.606   7.353
 8759POPC   C1B48595   2.128  34.432   6.453
 8759POPC   C2B48596   2.160  34.421   6.753
 8759POPC   C3B48597   2.161  34.438   7.053
 8759POPC   C4B48598   2.135  34.378   7.353
 8760POPC   NC348599  33.014  39.995   5.553
 8760POPC   PO448600  33.052  40.019   5.853
 8760POPC   GL148601  33.044  39.987   6.153
 8760POPC   GL248602  33.192  40.019   6.153
 8760POPC   C1A48603  32.982  40.019   6.453
 8760POPC   D2A48604  33.001  39.967   6.753
 8760POPC   C3A48605  33.010  40.043   7.053
 8760POPC   C4A48606  33.011  39.976   7.353
 8760POPC   C1B48607  33.292  40.001   6.453
 8760POPC   C2B48608  33.282  39.982   6.753
 8760POPC   C3B48609  33.297  40.007   7.053
 8760POPC   C4B48610  33.308  39.983   7.353
 8761POPC   NC348611   7.404  43.084   5.553
 8761POPC   PO448612   7.386  43.130   5.853
 8761POPC   GL148613   7.462  43.091   6.153
 8761POPC   GL248614   7.504  43.155   6.153
 8761POPC   C1A48615   7.409  43.106   6.453
 8761POPC   D2A48616   7.436  43.133   6.753
 8761POPC   C3A48617   7.411  43.078   7.053
 8761POPC   C4A48618   7.424  43.125   7.353
 8761POPC   C1B48619   7.658  43.152   6.453
 8761POPC   C2B48620   7.688  43.160   6.753
 8761POPC   C3B48621   7.671  43.210   7.053
 8761POPC   C4B48622   7.700  43.192   7.353
 8762POPC   NC348623   3.515  13.580   5.553
 8762POPC   PO448624   3.510  13.608   5.853
 8762POPC   GL148625   3.560  13.627   6.153
 8762POPC   GL248626   3.542  13.763   6.153
 8762POPC   C1A48627   3.526  13.646   6.453
 8762POPC   D2A48628   3.591  13.620   6.753
 8762POPC   C3A48629   3.494  13.607   7.053
 8762POPC   C4A48630   3.590  13.616   7.353
 8762POPC   C1B48631   3.657  13.873   6.453
 8762POPC   C2B48632   3.586  13.843   6.753
 8762POPC   C3B48633   3.653  13.906   7.053
 8762POPC   C4B48634   3.610  13.909   7.353
 8763POPC   NC348635   8.227  27.619   5.553
 8763POPC   PO448636   8.190  27.560   5.853
 8763POPC   GL148637   8.241  27.615   6.153
 8763POPC   GL248638   8.102  27.601   6.153
 8763POPC   C1A48639   8.152  27.585   6.453
 8763POPC   D2A48640   8.163  27.591   6.753
 8763POPC   C3A48641   8.184  27.600   7.053
 8763POPC   C4A48642   8.244  27.550   7.353
 8763POPC   C1B48643   7.925  27.584   6.453
 8763POPC   C2B48644   7.932  27.510   6.753
 8763POPC   C3B48645   7.958  27.563   7.053
 8763POPC   C4B48646   7.935  27.568   7.353
 8764POPC   NC348647  44.623  38.504   5.553
 8764POPC   PO448648  44.668  38.456   5.853
 8764POPC   GL148649  44.704  38.495   6.153
 8764POPC   GL248650  44.724  38.566   6.153
 8764POPC   C1A48651  44.702  38.468   6.453
 8764POPC   D2A48652  44.649  38.408   6.753
 8764POPC   C3A48653  44.668  38.495   7.053
 8764POPC   C4A48654  44.698  38.483   7.353
 8764POPC   C1B48655  44.790  38.619   6.453
 8764POPC   C2B48656  44.841  38.619   6.753
 8764POPC   C3B48657  44.817  38.662   7.053
 8764POPC   C4B48658  44.788  38.651   7.353
 8765POPC   NC348659  44.695  12.900   5.553
 8765POPC   PO448660  44.677  12.804   5.853
 8765POPC   GL148661  44.677  12.868   6.153
 8765POPC   GL248662  44.564  12.730   6.153
 8765POPC   C1A48663  44.679  12.816   6.453
 8765POPC   D2A48664  44.648  12.858   6.753
 8765POPC   C3A48665  44.634  12.844   7.053
 8765POPC   C4A48666  44.626  12.814   7.353
 8765POPC   C1B48667  44.539  12.689   6.453
 8765POPC   C2B48668  44.492  12.696   6.753
 8765POPC   C3B48669  44.547  12.649   7.053
 8765POPC   C4B48670  44.503  12.643   7.353
 8766POPC   NC348671   7.423  20.586   5.553
 8766POPC   PO448672   7.430  20.620   5.853
 8766POPC   GL148673   7.440  20.581   6.153
 8766POPC   GL248674   7.462  20.437   6.153
 8766POPC   C1A48675   7.385  20.656   6.453
 8766POPC   D2A48676   7.419  20.612   6.753
 8766POPC   C3A48677   7.439  20.658   7.053
 8766POPC   C4A48678   7.400  20.575   7.353
 8766POPC   C1B48679   7.464  20.372   6.453
 8766POPC   C2B48680   7.430  20.352   6.753
 8766POPC   C3B48681   7.403  20.406   7.053
 8766POPC   C4B48682   7.446  20.375   7.353
 8767POPC   NC348683  43.879  29.918   5.553
 8767POPC   PO448684  43.917  29.909   5.853
 8767POPC   GL148685  43.929  29.912   6.153
 8767POPC   GL248686  44.049  29.939   6.153
 8767POPC   C1A48687  43.912  29.923   6.453
 8767POPC   D2A48688  43.929  29.946   6.753
 8767POPC   C3A48689  43.891  29.889   7.053
 8767POPC   C4A48690  43.930  29.950   7.353
 8767POPC   C1B48691  44.099  29.888   6.453
 8767POPC   C2B48692  44.088  29.933   6.753
 8767POPC   C3B48693  44.171  29.899   7.053
 8767POPC   C4B48694  44.123  29.921   7.353
 8768POPC   NC348695   5.126   0.417   5.553
 8768POPC   PO448696   5.075   0.449   5.853
 8768POPC   GL148697   5.125   0.434   6.153
 8768POPC   GL248698   5.189   0.359   6.153
 8768POPC   C1A48699   5.113   0.418   6.453
 8768POPC   D2A48700   5.101   0.431   6.753
 8768POPC   C3A48701   5.118   0.406   7.053
 8768POPC   C4A48702   5.092   0.463   7.353
 8768POPC   C1B48703   5.339   0.331   6.453
 8768POPC   C2B48704   5.296   0.389   6.753
 8768POPC   C3B48705   5.358   0.404   7.053
 8768POPC   C4B48706   5.293   0.340   7.353
 8769POPC   NC348707  23.685  20.604   5.553
 8769POPC   PO448708  23.741  20.565   5.853
 8769POPC   GL148709  23.715  20.653   6.153
 8769POPC   GL248710  23.688  20.785   6.153
 8769POPC   C1A48711  23.722  20.638   6.453
 8769POPC   D2A48712  23.714  20.660   6.753
 8769POPC   C3A48713  23.692  20.613   7.053
 8769POPC   C4A48714  23.666  20.647   7.353
 8769POPC   C1B48715  23.698  20.841   6.453
 8769POPC   C2B48716  23.763  20.825   6.753
 8769POPC   C3B48717  23.733  20.850   7.053
 8769POPC   C4B48718  23.707  20.874   7.353
 8770POPC   NC348719  25.277  42.317   5.553
 8770POPC   PO448720  25.288  42.319   5.853
 8770POPC   GL148721  25.229  42.324   6.153
 8770POPC   GL248722  25.391  42.281   6.153
 8770POPC   C1A48723  25.298  42.302   6.453
 8770POPC   D2A48724  25.253  42.311   6.753
 8770POPC   C3A48725  25.302  42.342   7.053
 8770POPC   C4A48726  25.223  42.330   7.353
 8770POPC   C1B48727  25.489  42.377   6.453
 8770POPC   C2B48728  25.489  42.295   6.753
 8770POPC   C3B48729  25.497  42.328   7.053
 8770POPC   C4B48730  25.500  42.327   7.353
 8771POPC   NC348731  11.321  39.974   5.553
 8771POPC   PO448732  11.337  40.028   5.853
 8771POPC   GL148733  11.292  40.000   6.153
 8771POPC   GL248734  11.173  40.022   6.153
 8771POPC   C1A48735  11.295  40.034   6.453
 8771POPC   D2A48736  11.272  40.033   6.753
 8771POPC   C3A48737  11.267  39.999   7.053
 8771POPC   C4A48738  11.288  39.965   7.353
 8771POPC   C1B48739  11.049  40.156   6.453
 8771POPC   C2B48740  11.033  40.094   6.753
 8771POPC   C3B48741  11.094  40.120   7.053
 8771POPC   C4B48742  11.054  40.153   7.353
 8772POPC   NC348743   6.629   6.656   5.553
 8772POPC   PO448744   6.611   6.614   5.853
 8772POPC   GL148745   6.604   6.651   6.153
 8772POPC   GL248746   6.729   6.687   6.153
 8772POPC   C1A48747   6.655   6.691   6.453
 8772POPC   D2A48748   6.663   6.677   6.753
 8772POPC   C3A48749   6.658   6.693   7.053
 8772POPC   C4A48750   6.615   6.683   7.353
 8772POPC   C1B48751   6.855   6.797   6.453
 8772POPC   C2B48752   6.895   6.703   6.753
 8772POPC   C3B48753   6.885   6.717   7.053
 8772POPC   C4B48754   6.907   6.763   7.353
 8773POPC   NC348755  27.571   5.052   5.553
 8773POPC   PO448756  27.631   5.105   5.853
 8773POPC   GL148757  27.613   5.132   6.153
 8773POPC   GL248758  27.688   5.166   6.153
 8773POPC   C1A48759  27.608   5.063   6.453
 8773POPC   D2A48760  27.558   5.121   6.753
 8773POPC   C3A48761  27.595   5.136   7.053
 8773POPC   C4A48762  27.551   5.110   7.353
 8773POPC   C1B48763  27.875   5.186   6.453
 8773POPC   C2B48764  27.876   5.175   6.753
 8773POPC   C3B48765  27.816   5.139   7.053
 8773POPC   C4B48766  27.883   5.178   7.353
 8774POPC   NC348767   8.151  43.836   5.553
 8774POPC   PO448768   8.179  43.892   5.853
 8774POPC   GL148769   8.166  43.865   6.153
 8774POPC   GL248770   8.303  43.807   6.153
 8774POPC   C1A48771   8.214  43.884   6.453
 8774POPC   D2A48772   8.238  43.853   6.753
 8774POPC   C3A48773   8.180  43.915   7.053
 8774POPC   C4A48774   8.200  43.926   7.353
 8774POPC   C1B48775   8.358  43.667   6.453
 8774POPC   C2B48776   8.401  43.739   6.753
 8774POPC   C3B48777   8.407  43.706   7.053
 8774POPC   C4B48778   8.337  43.718   7.353
 8775POPC   NC348779   1.943   1.998   5.553
 8775POPC   PO448780   1.975   2.013   5.853
 8775POPC   GL148781   2.018   2.008   6.153
 8775POPC   GL248782   2.095   1.961   6.153
 8775POPC   C1A48783   1.981   1.948   6.453
 8775POPC   D2A48784   1.989   2.018   6.753
 8775POPC   C3A48785   2.012   1.987   7.053
 8775POPC   C4A48786   1.987   1.948   7.353
 8775POPC   C1B48787   2.205   1.944   6.453
 8775POPC   C2B48788   2.207   1.903   6.753
 8775POPC   C3B48789   2.185   1.944   7.053
 8775POPC   C4B48790   2.227   1.933   7.353
 8776POPC   NC348791  11.277   8.969   5.553
 8776POPC   PO448792  11.299   9.002   5.853
 8776POPC   GL148793  11.335   9.000   6.153
 8776POPC   GL248794  11.332   8.851   6.153
 8776POPC   C1A48795  11.294   8.952   6.453
 8776POPC   D2A48796  11.250   8.971   6.753
 8776POPC   C3A48797  11.343   8.982   7.053
 8776POPC   C4A48798  11.344   8.927   7.353
 8776POPC   C1B48799  11.373   8.778   6.453
 8776POPC   C2B48800  11.369   8.704   6.753
 8776POPC   C3B48801  11.374   8.729   7.053
 8776POPC   C4B48802  11.326   8.711   7.353
 8777POPC   NC348803  39.183   6.650   5.553
 8777POPC   PO448804  39.274   6.693   5.853
 8777POPC   GL148805  39.213   6.628   6.153
 8777POPC   GL248806  39.350   6.580   6.153
 8777POPC   C1A48807  39.209   6.637   6.453
 8777POPC   D2A48808  39.197   6.684   6.753
 8777POPC   C3A48809  39.252   6.649   7.053
 8777POPC   C4A48810  39.246   6.624   7.353
 8777POPC   C1B48811  39.416   6.466   6.453
 8777POPC   C2B48812  39.371   6.401   6.753
 8777POPC   C3B48813  39.351   6.475   7.053
 8777POPC   C4B48814  39.390   6.428   7.353
 8778POPC   NC348815  15.950  36.134   5.553
 8778POPC   PO448816  16.003  36.104   5.853
 8778POPC   GL148817  15.921  36.113   6.153
 8778POPC   GL248818  16.013  36.152   6.153
 8778POPC   C1A48819  15.918  36.126   6.453
 8778POPC   D2A48820  15.967  36.089   6.753
 8778POPC   C3A48821  15.938  36.079   7.053
 8778POPC   C4A48822  15.946  36.086   7.353
 8778POPC   C1B48823  16.166  36.286   6.453
 8778POPC   C2B48824  16.177  36.297   6.753
 8778POPC   C3B48825  16.192  36.287   7.053
 8778POPC   C4B48826  16.157  36.241   7.353
 8779POPC   NC348827   6.659   5.917   5.553
 8779POPC   PO448828   6.605   5.866   5.853
 8779POPC   GL148829   6.641   5.914   6.153
 8779POPC   GL248830   6.779   5.935   6.153
 8779POPC   C1A48831   6.619   5.838   6.453
 8779POPC   D2A48832   6.603   5.822   6.753
 8779POPC   C3A48833   6.636   5.824   7.053
 8779POPC   C4A48834   6.602   5.831   7.353
 8779POPC   C1B48835   6.874   5.897   6.453
 8779POPC   C2B48836   6.932   5.973   6.753
 8779POPC   C3B48837   6.853   5.924   7.053
 8779POPC   C4B48838   6.842   5.923   7.353
 8780POPC   NC348839   1.945  41.605   5.553
 8780POPC   PO448840   2.027  41.604   5.853
 8780POPC   GL148841   1.980  41.510   6.153
 8780POPC   GL248842   1.941  41.384   6.153
 8780POPC   C1A48843   2.027  41.530   6.453
 8780POPC   D2A48844   2.006  41.597   6.753
 8780POPC   C3A48845   2.000  41.529   7.053
 8780POPC   C4A48846   1.980  41.583   7.353
 8780POPC   C1B48847   1.987  41.341   6.453
 8780POPC   C2B48848   1.958  41.330   6.753
 8780POPC   C3B48849   1.950  41.358   7.053
 8780POPC   C4B48850   1.982  41.334   7.353
 8781POPC   NC348851   5.899  36.888   5.553
 8781POPC   PO448852   5.891  36.894   5.853
 8781POPC   GL148853   5.820  36.950   6.153
 8781POPC   GL248854   5.705  36.926   6.153
 8781POPC   C1A48855   5.905  36.946   6.453
 8781POPC   D2A48856   5.864  36.929   6.753
 8781POPC   C3A48857   5.867  36.897   7.053
 8781POPC   C4A48858   5.855  36.920   7.353
 8781POPC   C1B48859   5.610  36.851   6.453
 8781POPC   C2B48860   5.576  36.824   6.753
 8781POPC   C3B48861   5.655  36.862   7.053
 8781POPC   C4B48862   5.670  36.872   7.353
 8782POPC   NC348863  14.449  26.063   5.553
 8782POPC   PO448864  14.447  26.057   5.853
 8782POPC   GL148865  14.375  26.062   6.153
 8782POPC   GL248866  14.437  25.902   6.153
 8782POPC   C1A48867  14.404  26.070   6.453
 8782POPC   D2A48868  14.358  26.058   6.753
 8782POPC   C3A48869  14.365  26.032   7.053
 8782POPC   C4A48870  14.379  26.019   7.353
 8782POPC   C1B48871  14.324  25.821   6.453
 8782POPC   C2B48872  14.352  25.833   6.753
 8782POPC   C3B48873  14.353  25.793   7.053
 8782POPC   C4B48874  14.386  25.820   7.353
 8783POPC   NC348875  19.062   7.452   5.553
 8783POPC   PO448876  19.093   7.405   5.853
 8783POPC   GL148877  19.078   7.467   6.153
 8783POPC   GL248878  19.057   7.513   6.153
 8783POPC   C1A48879  19.099   7.449   6.453
 8783POPC   D2A48880  19.028   7.379   6.753
 8783POPC   C3A48881  19.049   7.397   7.053
 8783POPC   C4A48882  19.071   7.415   7.353
 8783POPC   C1B48883  18.953   7.686   6.453
 8783POPC   C2B48884  18.994   7.632   6.753
 8783POPC   C3B48885  19.016   7.652   7.053
 8783POPC   C4B48886  19.020   7.638   7.353
 8784POPC   NC348887  26.000   4.287   5.553
 8784POPC   PO448888  26.037   4.357   5.853
 8784POPC   GL148889  26.040   4.283   6.153
 8784POPC   GL248890  26.183   4.295   6.153
 8784POPC   C1A48891  25.992   4.323   6.453
 8784POPC   D2A48892  26.064   4.325   6.753
 8784POPC   C3A48893  26.062   4.325   7.053
 8784POPC   C4A48894  26.002   4.314   7.353
 8784POPC   C1B48895  26.275   4.341   6.453
 8784POPC   C2B48896  26.301   4.285   6.753
 8784POPC   C3B48897  26.338   4.318   7.053
 8784POPC   C4B48898  26.301   4.283   7.353
 8785POPC   NC348899  25.257  12.027   5.553
 8785POPC   PO448900  25.252  12.051   5.853
 8785POPC   GL148901  25.233  12.118   6.153
 8785POPC   GL248902  25.277  11.992   6.153
 8785POPC   C1A48903  25.240  12.071   6.453
 8785POPC   D2A48904  25.262  12.055   6.753
 8785POPC   C3A48905  25.288  12.108   7.053
 8785POPC   C4A48906  25.257  12.028   7.353
 8785POPC   C1B48907  25.252  11.804   6.453
 8785POPC   C2B48908  25.246  11.870   6.753
 8785POPC   C3B48909  25.250  11.846   7.053
 8785POPC   C4B48910  25.257  11.791   7.353
 8786POPC   NC348911  40.046   2.741   5.553
 8786POPC   PO448912  40.049   2.778   5.853
 8786POPC   GL148913  40.009   2.771   6.153
 8786POPC   GL248914  39.883   2.827   6.153
 8786POPC   C1A48915  39.999   2.771   6.453
 8786POPC   D2A48916  40.006   2.800   6.753
 8786POPC   C3A48917  39.978   2.728   7.053
 8786POPC   C4A48918  40.052   2.808   7.353
 8786POPC   C1B48919  39.854   2.968   6.453
 8786POPC   C2B48920  39.819   2.970   6.753
 8786POPC   C3B48921  39.899   3.002   7.053
 8786POPC   C4B48922  39.818   2.927   7.353
 8787POPC   NC348923   9.760  34.609   5.553
 8787POPC   PO448924   9.702  34.550   5.853
 8787POPC   GL148925   9.782  34.615   6.153
 8787POPC   GL248926   9.740  34.678   6.153
 8787POPC   C1A48927   9.718  34.603   6.453
 8787POPC   D2A48928   9.744  34.621   6.753
 8787POPC   C3A48929   9.703  34.568   7.053
 8787POPC   C4A48930   9.781  34.616   7.353
 8787POPC   C1B48931   9.698  34.842   6.453
 8787POPC   C2B48932   9.665  34.800   6.753
 8787POPC   C3B48933   9.672  34.790   7.053
 8787POPC   C4B48934   9.679  34.860   7.353
 8788POPC   NC348935  36.946  17.543   5.553
 8788POPC   PO448936  36.933  17.534   5.853
 8788POPC   GL148937  36.948  17.512   6.153
 8788POPC   GL248938  36.856  17.552   6.153
 8788POPC   C1A48939  36.885  17.539   6.453
 8788POPC   D2A48940  36.859  17.475   6.753
 8788POPC   C3A48941  36.863  17.555   7.053
 8788POPC   C4A48942  36.859  17.528   7.353
 8788POPC   C1B48943  36.749  17.668   6.453
 8788POPC   C2B48944  36.770  17.724   6.753
 8788POPC   C3B48945  36.725  17.741   7.053
 8788POPC   C4B48946  36.691  17.683   7.353
 8789POPC   NC348947  34.614  28.392   5.553
 8789POPC   PO448948  34.601  28.363   5.853
 8789POPC   GL148949  34.595  28.385   6.153
 8789POPC   GL248950  34.469  28.273   6.153
 8789POPC   C1A48951  34.548  28.323   6.453
 8789POPC   D2A48952  34.611  28.341   6.753
 8789POPC   C3A48953  34.608  28.366   7.053
 8789POPC   C4A48954  34.553  28.344   7.353
 8789POPC   C1B48955  34.429  28.146   6.453
 8789POPC   C2B48956  34.445  28.187   6.753
 8789POPC   C3B48957  34.435  28.142   7.053
 8789POPC   C4B48958  34.420  28.148   7.353
 8790POPC   NC348959  17.524  43.923   5.553
 8790POPC   PO448960  17.534  43.896   5.853
 8790POPC   GL148961  17.530  43.912   6.153
 8790POPC   GL248962  17.651  43.879   6.153
 8790POPC   C1A48963  17.460  43.891   6.453
 8790POPC   D2A48964  17.546  43.842   6.753
 8790POPC   C3A48965  17.538  43.931   7.053
 8790POPC   C4A48966  17.489  43.855   7.353
 8790POPC   C1B48967  17.737  43.796   6.453
 8790POPC   C2B48968  17.706  43.842   6.753
 8790POPC   C3B48969  17.744  43.868   7.053
 8790POPC   C4B48970  17.716  43.849   7.353
 8791POPC   NC348971  26.089  22.950   5.553
 8791POPC   PO448972  26.025  22.904   5.853
 8791POPC   GL148973  25.992  22.918   6.153
 8791POPC   GL248974  25.946  22.832   6.153
 8791POPC   C1A48975  26.059  22.935   6.453
 8791POPC   D2A48976  26.054  22.976   6.753
 8791POPC   C3A48977  26.088  22.890   7.053
 8791POPC   C4A48978  26.054  22.908   7.353
 8791POPC   C1B48979  25.957  22.730   6.453
 8791POPC   C2B48980  25.914  22.725   6.753
 8791POPC   C3B48981  25.897  22.670   7.053
 8791POPC   C4B48982  25.953  22.681   7.353
 8792POPC   NC348983  15.152  41.557   5.553
 8792POPC   PO448984  15.135  41.532   5.853
 8792POPC   GL148985  15.168  41.519   6.153
 8792POPC   GL248986  15.258  41.438   6.153
 8792POPC   C1A48987  15.209  41.527   6.453
 8792POPC   D2A48988  15.220  41.551   6.753
 8792POPC   C3A48989  15.203  41.525   7.053
 8792POPC   C4A48990  15.156  41.516   7.353
 8792POPC   C1B48991  15.291  41.400   6.453
 8792POPC   C2B48992  15.317  41.360   6.753
 8792POPC   C3B48993  15.306  41.379   7.053
 8792POPC   C4B48994  15.286  41.348   7.353
 8793POPC   NC348995  26.027   8.969   5.553
 8793POPC   PO448996  26.030   8.994   5.853
 8793POPC   GL148997  26.031   8.961   6.153
 8793POPC   GL248998  26.104   8.830   6.153
 8793POPC   C1A48999  25.993   8.927   6.453
 8793POPC   D2A49000  26.033   9.011   6.753
 8793POPC   C3A49001  26.035   9.007   7.053
 8793POPC   C4A49002  26.041   8.975   7.353
 8793POPC   C1B49003  26.148   8.760   6.453
 8793POPC   C2B49004  26.174   8.772   6.753
 8793POPC   C3B49005  26.127   8.739   7.053
 8793POPC   C4B49006  26.173   8.744   7.353
 8794POPC   NC349007  36.149  42.339   5.553
 8794POPC   PO449008  36.116  42.383   5.853
 8794POPC   GL149009  36.148  42.343   6.153
 8794POPC   GL249010  36.126  42.454   6.153
 8794POPC   C1A49011  36.165  42.362   6.453
 8794POPC   D2A49012  36.160  42.303   6.753
 8794POPC   C3A49013  36.127  42.370   7.053
 8794POPC   C4A49014  36.148  42.287   7.353
 8794POPC   C1B49015  36.068  42.602   6.453
 8794POPC   C2B49016  36.089  42.551   6.753
 8794POPC   C3B49017  36.100  42.586   7.053
 8794POPC   C4B49018  36.120  42.584   7.353
 8795POPC   NC349019  16.771  29.893   5.553
 8795POPC   PO449020  16.683  29.964   5.853
 8795POPC   GL149021  16.697  29.964   6.153
 8795POPC   GL249022  16.779  30.035   6.153
 8795POPC   C1A49023  16.761  29.946   6.453
 8795POPC   D2A49024  16.765  29.951   6.753
 8795POPC   C3A49025  16.739  29.940   7.053
 8795POPC   C4A49026  16.738  29.946   7.353
 8795POPC   C1B49027  16.770  30.124   6.453
 8795POPC   C2B49028  16.786  30.191   6.753
 8795POPC   C3B49029  16.786  30.157   7.053
 8795POPC   C4B49030  16.738  30.135   7.353
 8796POPC   NC349031  20.610  20.573   5.553
 8796POPC   PO449032  20.600  20.597   5.853
 8796POPC   GL149033  20.610  20.567   6.153
 8796POPC   GL249034  20.779  20.628   6.153
 8796POPC   C1A49035  20.636  20.574   6.453
 8796POPC   D2A49036  20.659  20.645   6.753
 8796POPC   C3A49037  20.651  20.571   7.053
 8796POPC   C4A49038  20.608  20.600   7.353
 8796POPC   C1B49039  20.882  20.580   6.453
 8796POPC   C2B49040  20.902  20.597   6.753
 8796POPC   C3B49041  20.887  20.544   7.053
 8796POPC   C4B49042  20.903  20.550   7.353
 8797POPC   NC349043  17.463  44.653   5.553
 8797POPC   PO449044  17.458  44.633   5.853
 8797POPC   GL149045  17.471  44.684   6.153
 8797POPC   GL249046  17.596  44.622   6.153
 8797POPC   C1A49047  17.511  44.659   6.453
 8797POPC   D2A49048  17.554  44.626   6.753
 8797POPC   C3A49049  17.489  44.615   7.053
 8797POPC   C4A49050  17.496  44.662   7.353
 8797POPC   C1B49051  17.717  44.675   6.453
 8797POPC   C2B49052  17.774  44.637   6.753
 8797POPC   C3B49053  17.770  44.683   7.053
 8797POPC   C4B49054  17.743  44.612   7.353
 8798POPC   NC349055   5.111  29.170   5.553
 8798POPC   PO449056   5.116  29.172   5.853
 8798POPC   GL149057   5.101  29.120   6.153
 8798POPC   GL249058   5.175  29.138   6.153
 8798POPC   C1A49059   5.102  29.181   6.453
 8798POPC   D2A49060   5.069  29.175   6.753
 8798POPC   C3A49061   5.124  29.160   7.053
 8798POPC   C4A49062   5.089  29.150   7.353
 8798POPC   C1B49063   5.319  29.111   6.453
 8798POPC   C2B49064   5.317  29.131   6.753
 8798POPC   C3B49065   5.296  29.078   7.053
 8798POPC   C4B49066   5.362  29.114   7.353
 8799POPC   NC349067  40.820  36.929   5.553
 8799POPC   PO449068  40.736  36.910   5.853
 8799POPC   GL149069  40.787  36.882   6.153
 8799POPC   GL249070  40.878  36.945   6.153
 8799POPC   C1A49071  40.765  36.924   6.453
 8799POPC   D2A49072  40.803  36.950   6.753
 8799POPC   C3A49073  40.831  36.942   7.053
 8799POPC   C4A49074  40.785  36.924   7.353
 8799POPC   C1B49075  41.051  36.983   6.453
 8799POPC   C2B49076  41.007  36.971   6.753
 8799POPC   C3B49077  41.006  37.032   7.053
 8799POPC   C4B49078  40.995  37.036   7.353
 8800POPC   NC349079  19.883  35.334   5.553
 8800POPC   PO449080  19.864  35.344   5.853
 8800POPC   GL149081  19.861  35.370   6.153
 8800POPC   GL249082  19.769  35.518   6.153
 8800POPC   C1A49083  19.823  35.385   6.453
 8800POPC   D2A49084  19.850  35.306   6.753
 8800POPC   C3A49085  19.825  35.377   7.053
 8800POPC   C4A49086  19.867  35.367   7.353
 8800POPC   C1B49087  19.757  35.625   6.453
 8800POPC   C2B49088  19.786  35.575   6.753
 8800POPC   C3B49089  19.775  35.630   7.053
 8800POPC   C4B49090  19.800  35.581   7.353
 8801POPC   NC349091  43.869  35.316   5.553
 8801POPC   PO449092  43.930  35.330   5.853
 8801POPC   GL149093  43.837  35.311   6.153
 8801POPC   GL249094  43.812  35.472   6.153
 8801POPC   C1A49095  43.904  35.313   6.453
 8801POPC   D2A49096  43.840  35.372   6.753
 8801POPC   C3A49097  43.919  35.330   7.053
 8801POPC   C4A49098  43.856  35.309   7.353
 8801POPC   C1B49099  43.826  35.568   6.453
 8801POPC   C2B49100  43.820  35.598   6.753
 8801POPC   C3B49101  43.863  35.568   7.053
 8801POPC   C4B49102  43.848  35.556   7.353
 8802POPC   NC349103  34.571  20.570   5.553
 8802POPC   PO449104  34.569  20.653   5.853
 8802POPC   GL149105  34.589  20.605   6.153
 8802POPC   GL249106  34.590  20.693   6.153
 8802POPC   C1A49107  34.576  20.630   6.453
 8802POPC   D2A49108  34.561  20.590   6.753
 8802POPC   C3A49109  34.537  20.609   7.053
 8802POPC   C4A49110  34.604  20.618   7.353
 8802POPC   C1B49111  34.516  20.838   6.453
 8802POPC   C2B49112  34.591  20.907   6.753
 8802POPC   C3B49113  34.518  20.870   7.053
 8802POPC   C4B49114  34.546  20.828   7.353
 8803POPC   NC349115  33.843  35.383   5.553
 8803POPC   PO449116  33.763  35.395   5.853
 8803POPC   GL149117  33.751  35.339   6.153
 8803POPC   GL249118  33.797  35.237   6.153
 8803POPC   C1A49119  33.842  35.368   6.453
 8803POPC   D2A49120  33.846  35.393   6.753
 8803POPC   C3A49121  33.775  35.338   7.053
 8803POPC   C4A49122  33.764  35.311   7.353
 8803POPC   C1B49123  33.868  35.073   6.453
 8803POPC   C2B49124  33.803  35.115   6.753
 8803POPC   C3B49125  33.841  35.118   7.053
 8803POPC   C4B49126  33.852  35.102   7.353
 8804POPC   NC349127  43.157   6.598   5.553
 8804POPC   PO449128  43.141   6.657   5.853
 8804POPC   GL149129  43.062   6.619   6.153
 8804POPC   GL249130  42.943   6.676   6.153
 8804POPC   C1A49131  43.150   6.685   6.453
 8804POPC   D2A49132  43.096   6.597   6.753
 8804POPC   C3A49133  43.136   6.619   7.053
 8804POPC   C4A49134  43.147   6.658   7.353
 8804POPC   C1B49135  42.824   6.690   6.453
 8804POPC   C2B49136  42.877   6.696   6.753
 8804POPC   C3B49137  42.848   6.661   7.053
 8804POPC   C4B49138  42.837   6.709   7.353
 8805POPC   NC349139   1.169  35.343   5.553
 8805POPC   PO449140   1.221  35.354   5.853
 8805POPC   GL149141   1.176  35.321   6.153
 8805POPC   GL249142   1.176  35.288   6.153
 8805POPC   C1A49143   1.255  35.390   6.453
 8805POPC   D2A49144   1.228  35.310   6.753
 8805POPC   C3A49145   1.187  35.398   7.053
 8805POPC   C4A49146   1.246  35.316   7.353
 8805POPC   C1B49147   1.082  35.208   6.453
 8805POPC   C2B49148   1.040  35.194   6.753
 8805POPC   C3B49149   1.006  35.160   7.053
 8805POPC   C4B49150   1.017  35.189   7.353
 8806POPC   NC349151  21.419  33.047   5.553
 8806POPC   PO449152  21.406  33.059   5.853
 8806POPC   GL149153  21.349  33.003   6.153
 8806POPC   GL249154  21.433  33.142   6.153
 8806POPC   C1A49155  21.420  32.986   6.453
 8806POPC   D2A49156  21.347  33.067   6.753
 8806POPC   C3A49157  21.358  33.025   7.053
 8806POPC   C4A49158  21.393  33.033   7.353
 8806POPC   C1B49159  21.406  33.310   6.453
 8806POPC   C2B49160  21.399  33.261   6.753
 8806POPC   C3B49161  21.431  33.291   7.053
 8806POPC   C4B49162  21.350  33.238   7.353
 8807POPC   NC349163   8.159  18.236   5.553
 8807POPC   PO449164   8.241  18.250   5.853
 8807POPC   GL149165   8.180  18.299   6.153
 8807POPC   GL249166   8.098  18.312   6.153
 8807POPC   C1A49167   8.182  18.295   6.453
 8807POPC   D2A49168   8.208  18.302   6.753
 8807POPC   C3A49169   8.211  18.291   7.053
 8807POPC   C4A49170   8.198  18.328   7.353
 8807POPC   C1B49171   7.955  18.370   6.453
 8807POPC   C2B49172   7.989  18.368   6.753
 8807POPC   C3B49173   7.989  18.364   7.053
 8807POPC   C4B49174   7.961  18.361   7.353
 8808POPC   NC349175  27.564  31.472   5.553
 8808POPC   PO449176  27.553  31.501   5.853
 8808POPC   GL149177  27.597  31.482   6.153
 8808POPC   GL249178  27.724  31.544   6.153
 8808POPC   C1A49179  27.627  31.522   6.453
 8808POPC   D2A49180  27.590  31.452   6.753
 8808POPC   C3A49181  27.595  31.496   7.053
 8808POPC   C4A49182  27.562  31.489   7.353
 8808POPC   C1B49183  27.795  31.634   6.453
 8808POPC   C2B49184  27.858  31.609   6.753
 8808POPC   C3B49185  27.802  31.604   7.053
 8808POPC   C4B49186  27.799  31.638   7.353
 8809POPC   NC349187   9.758  25.278   5.553
 8809POPC   PO449188   9.744  25.249   5.853
 8809POPC   GL149189   9.734  25.270   6.153
 8809POPC   GL249190   9.713  25.425   6.153
 8809POPC   C1A49191   9.773  25.276   6.453
 8809POPC   D2A49192   9.784  25.310   6.753
 8809POPC   C3A49193   9.704  25.306   7.053
 8809POPC   C4A49194   9.730  25.224   7.353
 8809POPC   C1B49195   9.611  25.513   6.453
 8809POPC   C2B49196   9.639  25.493   6.753
 8809POPC   C3B49197   9.653  25.516   7.053
 8809POPC   C4B49198   9.650  25.493   7.353
 8810POPC   NC349199  19.837  13.611   5.553
 8810POPC   PO449200  19.786  13.630   5.853
 8810POPC   GL149201  19.858  13.644   6.153
 8810POPC   GL249202  19.807  13.705   6.153
 8810POPC   C1A49203  19.840  13.595   6.453
 8810POPC   D2A49204  19.863  13.675   6.753
 8810POPC   C3A49205  19.797  13.669   7.053
 8810POPC   C4A49206  19.805  13.640   7.353
 8810POPC   C1B49207  19.766  13.875   6.453
 8810POPC   C2B49208  19.761  13.865   6.753
 8810POPC   C3B49209  19.779  13.909   7.053
 8810POPC   C4B49210  19.774  13.898   7.353
 8811POPC   NC349211  42.363  22.937   5.553
 8811POPC   PO449212  42.369  22.948   5.853
 8811POPC   GL149213  42.365  22.889   6.153
 8811POPC   GL249214  42.225  22.845   6.153
 8811POPC   C1A49215  42.349  22.935   6.453
 8811POPC   D2A49216  42.289  22.926   6.753
 8811POPC   C3A49217  42.328  22.972   7.053
 8811POPC   C4A49218  42.298  22.974   7.353
 8811POPC   C1B49219  42.069  22.809   6.453
 8811POPC   C2B49220  42.132  22.871   6.753
 8811POPC   C3B49221  42.081  22.828   7.053
 8811POPC   C4B49222  42.091  22.801   7.353
 8812POPC   NC349223  37.718   1.236   5.553
 8812POPC   PO449224  37.676   1.244   5.853
 8812POPC   GL149225  37.680   1.182   6.153
 8812POPC   GL249226  37.826   1.264   6.153
 8812POPC   C1A49227  37.703   1.250   6.453
 8812POPC   D2A49228  37.664   1.252   6.753
 8812POPC   C3A49229  37.708   1.198   7.053
 8812POPC   C4A49230  37.637   1.257   7.353
 8812POPC   C1B49231  37.838   1.387   6.453
 8812POPC   C2B49232  37.841   1.365   6.753
 8812POPC   C3B49233  37.855   1.323   7.053
 8812POPC   C4B49234  37.865   1.400   7.353
 8813POPC   NC349235  40.767  34.544   5.553
 8813POPC   PO449236  40.827  34.539   5.853
 8813POPC   GL149237  40.758  34.565   6.153
 8813POPC   GL249238  40.806  34.459   6.153
 8813POPC   C1A49239  40.802  34.574   6.453
 8813POPC   D2A49240  40.747  34.531   6.753
 8813POPC   C3A49241  40.734  34.572   7.053
 8813POPC   C4A49242  40.777  34.615   7.353
 8813POPC   C1B49243  40.772  34.344   6.453
 8813POPC   C2B49244  40.825  34.317   6.753
 8813POPC   C3B49245  40.823  34.367   7.053
 8813POPC   C4B49246  40.767  34.368   7.353
 8814POPC   NC349247  40.034  29.943   5.553
 8814POPC   PO449248  39.965  29.873   5.853
 8814POPC   GL149249  39.992  29.952   6.153
 8814POPC   GL249250  39.891  29.981   6.153
 8814POPC   C1A49251  40.017  29.873   6.453
 8814POPC   D2A49252  40.013  29.935   6.753
 8814POPC   C3A49253  39.977  29.923   7.053
 8814POPC   C4A49254  40.054  29.881   7.353
 8814POPC   C1B49255  39.864  30.108   6.453
 8814POPC   C2B49256  39.826  30.139   6.753
 8814POPC   C3B49257  39.832  30.153   7.053
 8814POPC   C4B49258  39.845  30.124   7.353
 8815POPC   NC349259   1.992  36.952   5.553
 8815POPC   PO449260   2.033  36.867   5.853
 8815POPC   GL149261   1.955  36.861   6.153
 8815POPC   GL249262   2.040  37.009   6.153
 8815POPC   C1A49263   1.969  36.929   6.453
 8815POPC   D2A49264   2.009  36.868   6.753
 8815POPC   C3A49265   1.977  36.883   7.053
 8815POPC   C4A49266   2.018  36.932   7.353
 8815POPC   C1B49267   2.125  37.109   6.453
 8815POPC   C2B49268   2.064  37.149   6.753
 8815POPC   C3B49269   2.122  37.155   7.053
 8815POPC   C4B49270   2.082  37.181   7.353
 8816POPC   NC349271   6.686   8.940   5.553
 8816POPC   PO449272   6.599   8.942   5.853
 8816POPC   GL149273   6.620   9.019   6.153
 8816POPC   GL249274   6.541   8.817   6.153
 8816POPC   C1A49275   6.641   8.940   6.453
 8816POPC   D2A49276   6.638   8.949   6.753
 8816POPC   C3A49277   6.673   8.950   7.053
 8816POPC   C4A49278   6.647   9.007   7.353
 8816POPC   C1B49279   6.554   8.741   6.453
 8816POPC   C2B49280   6.490   8.757   6.753
 8816POPC   C3B49281   6.547   8.749   7.053
 8816POPC   C4B49282   6.487   8.718   7.353
 8817POPC   NC349283  16.684  19.050   5.553
 8817POPC   PO449284  16.743  19.050   5.853
 8817POPC   GL149285  16.691  19.066   6.153
 8817POPC   GL249286  16.827  18.949   6.153
 8817POPC   C1A49287  16.744  19.052   6.453
 8817POPC   D2A49288  16.722  19.078   6.753
 8817POPC   C3A49289  16.747  19.067   7.053
 8817POPC   C4A49290  16.713  19.066   7.353
 8817POPC   C1B49291  16.867  18.830   6.453
 8817POPC   C2B49292  16.846  18.887   6.753
 8817POPC   C3B49293  16.911  18.873   7.053
 8817POPC   C4B49294  16.924  18.839   7.353
 8818POPC   NC349295  41.544  38.472   5.553
 8818POPC   PO449296  41.573  38.490   5.853
 8818POPC   GL149297  41.539  38.433   6.153
 8818POPC   GL249298  41.696  38.409   6.153
 8818POPC   C1A49299  41.542  38.419   6.453
 8818POPC   D2A49300  41.519  38.480   6.753
 8818POPC   C3A49301  41.579  38.459   7.053
 8818POPC   C4A49302  41.546  38.462   7.353
 8818POPC   C1B49303  41.768  38.486   6.453
 8818POPC   C2B49304  41.856  38.456   6.753
 8818POPC   C3B49305  41.826  38.431   7.053
 8818POPC   C4B49306  41.845  38.455   7.353
 8819POPC   NC349307  44.694  15.984   5.553
 8819POPC   PO449308  44.702  15.985   5.853
 8819POPC   GL149309  44.633  15.990   6.153
 8819POPC   GL249310  44.774  15.994   6.153
 8819POPC   C1A49311  44.676  16.001   6.453
 8819POPC   D2A49312  44.614  15.906   6.753
 8819POPC   C3A49313  44.710  15.983   7.053
 8819POPC   C4A49314  44.656  16.002   7.353
 8819POPC   C1B49315  44.876  16.032   6.453
 8819POPC   C2B49316  44.929  16.091   6.753
 8819POPC   C3B49317  44.932  16.041   7.053
 8819POPC   C4B49318  44.931  16.097   7.353
 8820POPC   NC349319  41.574   8.160   5.553
 8820POPC   PO449320  41.602   8.194   5.853
 8820POPC   GL149321  41.592   8.246   6.153
 8820POPC   GL249322  41.609   8.063   6.153
 8820POPC   C1A49323  41.551   8.160   6.453
 8820POPC   D2A49324  41.608   8.183   6.753
 8820POPC   C3A49325  41.523   8.169   7.053
 8820POPC   C4A49326  41.549   8.183   7.353
 8820POPC   C1B49327  41.575   7.961   6.453
 8820POPC   C2B49328  41.529   7.930   6.753
 8820POPC   C3B49329  41.539   7.916   7.053
 8820POPC   C4B49330  41.521   7.915   7.353
 8821POPC   NC349331  14.417  35.305   5.553
 8821POPC   PO449332  14.413  35.334   5.853
 8821POPC   GL149333  14.441  35.376   6.153
 8821POPC   GL249334  14.312  35.316   6.153
 8821POPC   C1A49335  14.354  35.380   6.453
 8821POPC   D2A49336  14.379  35.340   6.753
 8821POPC   C3A49337  14.411  35.396   7.053
 8821POPC   C4A49338  14.444  35.322   7.353
 8821POPC   C1B49339  14.174  35.242   6.453
 8821POPC   C2B49340  14.156  35.232   6.753
 8821POPC   C3B49341  14.179  35.268   7.053
 8821POPC   C4B49342  14.186  35.200   7.353
 8822POPC   NC349343   8.991  21.369   5.553
 8822POPC   PO449344   8.936  21.387   5.853
 8822POPC   GL149345   8.963  21.404   6.153
 8822POPC   GL249346   9.118  21.366   6.153
 8822POPC   C1A49347   8.976  21.376   6.453
 8822POPC   D2A49348   8.983  21.377   6.753
 8822POPC   C3A49349   8.944  21.433   7.053
 8822POPC   C4A49350   8.986  21.419   7.353
 8822POPC   C1B49351   9.232  21.297   6.453
 8822POPC   C2B49352   9.151  21.224   6.753
 8822POPC   C3B49353   9.230  21.287   7.053
 8822POPC   C4B49354   9.156  21.236   7.353
 8823POPC   NC349355  26.843  24.479   5.553
 8823POPC   PO449356  26.808  24.486   5.853
 8823POPC   GL149357  26.787  24.482   6.153
 8823POPC   GL249358  26.799  24.654   6.153
 8823POPC   C1A49359  26.844  24.485   6.453
 8823POPC   D2A49360  26.794  24.461   6.753
 8823POPC   C3A49361  26.811  24.519   7.053
 8823POPC   C4A49362  26.801  24.491   7.353
 8823POPC   C1B49363  26.807  24.706   6.453
 8823POPC   C2B49364  26.788  24.698   6.753
 8823POPC   C3B49365  26.749  24.727   7.053
 8823POPC   C4B49366  26.806  24.780   7.353
 8824POPC   NC349367   2.003  13.618   5.553
 8824POPC   PO449368   2.002  13.596   5.853
 8824POPC   GL149369   1.963  13.622   6.153
 8824POPC   GL249370   1.901  13.526   6.153
 8824POPC   C1A49371   1.964  13.635   6.453
 8824POPC   D2A49372   2.032  13.647   6.753
 8824POPC   C3A49373   1.946  13.644   7.053
 8824POPC   C4A49374   2.007  13.644   7.353
 8824POPC   C1B49375   1.803  13.437   6.453
 8824POPC   C2B49376   1.796  13.437   6.753
 8824POPC   C3B49377   1.842  13.456   7.053
 8824POPC   C4B49378   1.833  13.495   7.353
 8825POPC   NC349379  20.642  12.867   5.553
 8825POPC   PO449380  20.641  12.844   5.853
 8825POPC   GL149381  20.652  12.879   6.153
 8825POPC   GL249382  20.521  12.929   6.153
 8825POPC   C1A49383  20.650  12.824   6.453
 8825POPC   D2A49384  20.644  12.874   6.753
 8825POPC   C3A49385  20.592  12.817   7.053
 8825POPC   C4A49386  20.581  12.850   7.353
 8825POPC   C1B49387  20.481  13.048   6.453
 8825POPC   C2B49388  20.480  13.025   6.753
 8825POPC   C3B49389  20.518  13.014   7.053
 8825POPC   C4B49390  20.455  13.038   7.353
 8826POPC   NC349391  29.115  32.298   5.553
 8826POPC   PO449392  29.098  32.233   5.853
 8826POPC   GL149393  29.110  32.283   6.153
 8826POPC   GL249394  29.155  32.358   6.153
 8826POPC   C1A49395  29.190  32.276   6.453
 8826POPC   D2A49396  29.173  32.233   6.753
 8826POPC   C3A49397  29.157  32.260   7.053
 8826POPC   C4A49398  29.167  32.207   7.353
 8826POPC   C1B49399  29.226  32.492   6.453
 8826POPC   C2B49400  29.145  32.486   6.753
 8826POPC   C3B49401  29.188  32.517   7.053
 8826POPC   C4B49402  29.200  32.474   7.353
 8827POPC   NC349403  27.633  22.158   5.553
 8827POPC   PO449404  27.622  22.180   5.853
 8827POPC   GL149405  27.613  22.182   6.153
 8827POPC   GL249406  27.640  22.006   6.153
 8827POPC   C1A49407  27.598  22.190   6.453
 8827POPC   D2A49408  27.589  22.156   6.753
 8827POPC   C3A49409  27.592  22.140   7.053
 8827POPC   C4A49410  27.628  22.209   7.353
 8827POPC   C1B49411  27.626  21.953   6.453
 8827POPC   C2B49412  27.671  21.947   6.753
 8827POPC   C3B49413  27.589  21.921   7.053
 8827POPC   C4B49414  27.607  21.915   7.353
 8828POPC   NC349415  36.119  32.285   5.553
 8828POPC   PO449416  36.142  32.209   5.853
 8828POPC   GL149417  36.133  32.201   6.153
 8828POPC   GL249418  36.009  32.180   6.153
 8828POPC   C1A49419  36.116  32.251   6.453
 8828POPC   D2A49420  36.125  32.228   6.753
 8828POPC   C3A49421  36.118  32.238   7.053
 8828POPC   C4A49422  36.161  32.207   7.353
 8828POPC   C1B49423  35.910  32.165   6.453
 8828POPC   C2B49424  35.908  32.143   6.753
 8828POPC   C3B49425  35.933  32.183   7.053
 8828POPC   C4B49426  35.914  32.185   7.353
 8829POPC   NC349427  25.269   4.354   5.553
 8829POPC   PO449428  25.286   4.333   5.853
 8829POPC   GL149429  25.283   4.303   6.153
 8829POPC   GL249430  25.285   4.163   6.153
 8829POPC   C1A49431  25.220   4.302   6.453
 8829POPC   D2A49432  25.282   4.268   6.753
 8829POPC   C3A49433  25.238   4.278   7.053
 8829POPC   C4A49434  25.258   4.358   7.353
 8829POPC   C1B49435  25.364   4.141   6.453
 8829POPC   C2B49436  25.347   4.091   6.753
 8829POPC   C3B49437  25.397   4.136   7.053
 8829POPC   C4B49438  25.357   4.053   7.353
 8830POPC   NC349439  16.689  28.416   5.553
 8830POPC   PO449440  16.754  28.418   5.853
 8830POPC   GL149441  16.775  28.411   6.153
 8830POPC   GL249442  16.828  28.249   6.153
 8830POPC   C1A49443  16.690  28.412   6.453
 8830POPC   D2A49444  16.769  28.377   6.753
 8830POPC   C3A49445  16.697  28.404   7.053
 8830POPC   C4A49446  16.688  28.418   7.353
 8830POPC   C1B49447  16.884  28.098   6.453
 8830POPC   C2B49448  16.871  28.129   6.753
 8830POPC   C3B49449  16.863  28.113   7.053
 8830POPC   C4B49450  16.832  28.182   7.353
 8831POPC   NC349451  19.847  12.815   5.553
 8831POPC   PO449452  19.804  12.860   5.853
 8831POPC   GL149453  19.849  12.818   6.153
 8831POPC   GL249454  19.690  12.952   6.153
 8831POPC   C1A49455  19.839  12.838   6.453
 8831POPC   D2A49456  19.882  12.807   6.753
 8831POPC   C3A49457  19.842  12.803   7.053
 8831POPC   C4A49458  19.796  12.846   7.353
 8831POPC   C1B49459  19.655  12.936   6.453
 8831POPC   C2B49460  19.617  13.009   6.753
 8831POPC   C3B49461  19.604  12.971   7.053
 8831POPC   C4B49462  19.626  12.935   7.353
 8832POPC   NC349463  44.641  21.375   5.553
 8832POPC   PO449464  44.624  21.432   5.853
 8832POPC   GL149465  44.669  21.424   6.153
 8832POPC   GL249466  44.566  21.465   6.153
 8832POPC   C1A49467  44.657  21.352   6.453
 8832POPC   D2A49468  44.625  21.358   6.753
 8832POPC   C3A49469  44.688  21.404   7.053
 8832POPC   C4A49470  44.684  21.347   7.353
 8832POPC   C1B49471  44.477  21.514   6.453
 8832POPC   C2B49472  44.462  21.567   6.753
 8832POPC   C3B49473  44.417  21.574   7.053
 8832POPC   C4B49474  44.482  21.510   7.353
 8833POPC   NC349475  24.490  43.096   5.553
 8833POPC   PO449476  24.481  43.136   5.853
 8833POPC   GL149477  24.498  43.108   6.153
 8833POPC   GL249478  24.383  43.163   6.153
 8833POPC   C1A49479  24.443  43.154   6.453
 8833POPC   D2A49480  24.490  43.125   6.753
 8833POPC   C3A49481  24.512  43.149   7.053
 8833POPC   C4A49482  24.445  43.122   7.353
 8833POPC   C1B49483  24.290  43.203   6.453
 8833POPC   C2B49484  24.268  43.153   6.753
 8833POPC   C3B49485  24.235  43.126   7.053
 8833POPC   C4B49486  24.212  43.148   7.353
 8834POPC   NC349487  31.477  22.187   5.553
 8834POPC   PO449488  31.477  22.117   5.853
 8834POPC   GL149489  31.512  22.126   6.153
 8834POPC   GL249490  31.383  22.271   6.153
 8834POPC   C1A49491  31.500  22.159   6.453
 8834POPC   D2A49492  31.513  22.140   6.753
 8834POPC   C3A49493  31.425  22.124   7.053
 8834POPC   C4A49494  31.453  22.135   7.353
 8834POPC   C1B49495  31.345  22.399   6.453
 8834POPC   C2B49496  31.300  22.349   6.753
 8834POPC   C3B49497  31.343  22.323   7.053
 8834POPC   C4B49498  31.295  22.346   7.353
 8835POPC   NC349499  32.260  23.757   5.553
 8835POPC   PO449500  32.246  23.708   5.853
 8835POPC   GL149501  32.267  23.676   6.153
 8835POPC   GL249502  32.386  23.789   6.153
 8835POPC   C1A49503  32.268  23.738   6.453
 8835POPC   D2A49504  32.253  23.678   6.753
 8835POPC   C3A49505  32.224  23.688   7.053
 8835POPC   C4A49506  32.235  23.694   7.353
 8835POPC   C1B49507  32.452  23.820   6.453
 8835POPC   C2B49508  32.443  23.791   6.753
 8835POPC   C3B49509  32.490  23.820   7.053
 8835POPC   C4B49510  32.526  23.817   7.353
 8836POPC   NC349511  29.099  17.550   5.553
 8836POPC   PO449512  29.183  17.468   5.853
 8836POPC   GL149513  29.109  17.547   6.153
 8836POPC   GL249514  29.073  17.406   6.153
 8836POPC   C1A49515  29.177  17.515   6.453
 8836POPC   D2A49516  29.132  17.519   6.753
 8836POPC   C3A49517  29.173  17.529   7.053
 8836POPC   C4A49518  29.099  17.543   7.353
 8836POPC   C1B49519  28.972  17.358   6.453
 8836POPC   C2B49520  29.022  17.329   6.753
 8836POPC   C3B49521  29.039  17.307   7.053
 8836POPC   C4B49522  28.949  17.351   7.353
 8837POPC   NC349523  30.714  30.651   5.553
 8837POPC   PO449524  30.745  30.664   5.853
 8837POPC   GL149525  30.673  30.711   6.153
 8837POPC   GL249526  30.628  30.552   6.153
 8837POPC   C1A49527  30.673  30.654   6.453
 8837POPC   D2A49528  30.735  30.725   6.753
 8837POPC   C3A49529  30.684  30.660   7.053
 8837POPC   C4A49530  30.675  30.705   7.353
 8837POPC   C1B49531  30.536  30.508   6.453
 8837POPC   C2B49532  30.526  30.471   6.753
 8837POPC   C3B49533  30.550  30.516   7.053
 8837POPC   C4B49534  30.565  30.481   7.353
 8838POPC   NC349535  32.986   1.984   5.553
 8838POPC   PO449536  33.072   2.025   5.853
 8838POPC   GL149537  33.018   2.009   6.153
 8838POPC   GL249538  33.167   1.983   6.153
 8838POPC   C1A49539  33.021   2.026   6.453
 8838POPC   D2A49540  33.016   2.030   6.753
 8838POPC   C3A49541  33.071   1.975   7.053
 8838POPC   C4A49542  33.054   2.034   7.353
 8838POPC   C1B49543  33.256   2.032   6.453
 8838POPC   C2B49544  33.295   2.098   6.753
 8838POPC   C3B49545  33.292   2.035   7.053
 8838POPC   C4B49546  33.273   2.082   7.353
 8839POPC   NC349547  35.309  32.276   5.553
 8839POPC   PO449548  35.308  32.257   5.853
 8839POPC   GL149549  35.306  32.287   6.153
 8839POPC   GL249550  35.194  32.189   6.153
 8839POPC   C1A49551  35.396  32.212   6.453
 8839POPC   D2A49552  35.360  32.240   6.753
 8839POPC   C3A49553  35.391  32.211   7.053
 8839POPC   C4A49554  35.382  32.225   7.353
 8839POPC   C1B49555  35.121  32.138   6.453
 8839POPC   C2B49556  35.111  32.108   6.753
 8839POPC   C3B49557  35.092  32.135   7.053
 8839POPC   C4B49558  35.110  32.122   7.353
 8840POPC   NC349559   6.612  27.592   5.553
 8840POPC   PO449560   6.630  27.565   5.853
 8840POPC   GL149561   6.617  27.558   6.153
 8840POPC   GL249562   6.691  27.693   6.153
 8840POPC   C1A49563   6.642  27.560   6.453
 8840POPC   D2A49564   6.643  27.558   6.753
 8840POPC   C3A49565   6.687  27.547   7.053
 8840POPC   C4A49566   6.642  27.641   7.353
 8840POPC   C1B49567   6.846  27.802   6.453
 8840POPC   C2B49568   6.811  27.788   6.753
 8840POPC   C3B49569   6.775  27.809   7.053
 8840POPC   C4B49570   6.831  27.774   7.353
 8841POPC   NC349571  12.044  19.864   5.553
 8841POPC   PO449572  12.115  19.790   5.853
 8841POPC   GL149573  12.108  19.849   6.153
 8841POPC   GL249574  12.020  19.948   6.153
 8841POPC   C1A49575  12.113  19.809   6.453
 8841POPC   D2A49576  12.088  19.826   6.753
 8841POPC   C3A49577  12.101  19.819   7.053
 8841POPC   C4A49578  12.122  19.806   7.353
 8841POPC   C1B49579  11.870  20.031   6.453
 8841POPC   C2B49580  11.911  19.988   6.753
 8841POPC   C3B49581  11.895  20.002   7.053
 8841POPC   C4B49582  11.871  19.983   7.353
 8842POPC   NC349583   8.175   6.694   5.553
 8842POPC   PO449584   8.238   6.678   5.853
 8842POPC   GL149585   8.207   6.600   6.153
 8842POPC   GL249586   8.184   6.731   6.153
 8842POPC   C1A49587   8.222   6.611   6.453
 8842POPC   D2A49588   8.195   6.611   6.753
 8842POPC   C3A49589   8.154   6.677   7.053
 8842POPC   C4A49590   8.167   6.658   7.353
 8842POPC   C1B49591   8.182   6.933   6.453
 8842POPC   C2B49592   8.106   6.856   6.753
 8842POPC   C3B49593   8.104   6.893   7.053
 8842POPC   C4B49594   8.184   6.928   7.353
 8843POPC   NC349595  17.518   8.213   5.553
 8843POPC   PO449596  17.528   8.232   5.853
 8843POPC   GL149597  17.467   8.243   6.153
 8843POPC   GL249598  17.435   8.183   6.153
 8843POPC   C1A49599  17.532   8.149   6.453
 8843POPC   D2A49600  17.494   8.180   6.753
 8843POPC   C3A49601  17.475   8.164   7.053
 8843POPC   C4A49602  17.511   8.205   7.353
 8843POPC   C1B49603  17.296   8.140   6.453
 8843POPC   C2B49604  17.245   8.112   6.753
 8843POPC   C3B49605  17.293   8.172   7.053
 8843POPC   C4B49606  17.289   8.145   7.353
 8844POPC   NC349607  32.209  12.057   5.553
 8844POPC   PO449608  32.278  12.102   5.853
 8844POPC   GL149609  32.236  12.027   6.153
 8844POPC   GL249610  32.355  12.173   6.153
 8844POPC   C1A49611  32.275  12.056   6.453
 8844POPC   D2A49612  32.234  12.029   6.753
 8844POPC   C3A49613  32.221  12.095   7.053
 8844POPC   C4A49614  32.215  12.098   7.353
 8844POPC   C1B49615  32.442  12.218   6.453
 8844POPC   C2B49616  32.440  12.170   6.753
 8844POPC   C3B49617  32.471  12.236   7.053
 8844POPC   C4B49618  32.497  12.161   7.353
 8845POPC   NC349619  32.229  32.979   5.553
 8845POPC   PO449620  32.222  33.011   5.853
 8845POPC   GL149621  32.286  33.039   6.153
 8845POPC   GL249622  32.393  32.994   6.153
 8845POPC   C1A49623  32.245  33.047   6.453
 8845POPC   D2A49624  32.202  33.073   6.753
 8845POPC   C3A49625  32.203  33.058   7.053
 8845POPC   C4A49626  32.234  33.063   7.353
 8845POPC   C1B49627  32.454  33.004   6.453
 8845POPC   C2B49628  32.507  32.948   6.753
 8845POPC   C3B49629  32.473  33.019   7.053
 8845POPC   C4B49630  32.475  33.041   7.353
 8846POPC   NC349631  10.526  20.593   5.553
 8846POPC   PO449632  10.570  20.594   5.853
 8846POPC   GL149633  10.571  20.587   6.153
 8846POPC   GL249634  10.632  20.549   6.153
 8846POPC   C1A49635  10.544  20.605   6.453
 8846POPC   D2A49636  10.480  20.581   6.753
 8846POPC   C3A49637  10.564  20.638   7.053
 8846POPC   C4A49638  10.509  20.612   7.353
 8846POPC   C1B49639  10.690  20.457   6.453
 8846POPC   C2B49640  10.752  20.447   6.753
 8846POPC   C3B49641  10.768  20.503   7.053
 8846POPC   C4B49642  10.725  20.433   7.353
 8847POPC   NC349643  42.365  15.934   5.553
 8847POPC   PO449644  42.336  15.999   5.853
 8847POPC   GL149645  42.377  15.970   6.153
 8847POPC   GL249646  42.503  15.984   6.153
 8847POPC   C1A49647  42.345  15.986   6.453
 8847POPC   D2A49648  42.317  15.921   6.753
 8847POPC   C3A49649  42.361  15.972   7.053
 8847POPC   C4A49650  42.354  15.986   7.353
 8847POPC   C1B49651  42.574  15.985   6.453
 8847POPC   C2B49652  42.581  15.929   6.753
 8847POPC   C3B49653  42.585  15.963   7.053
 8847POPC   C4B49654  42.548  15.974   7.353
 8848POPC   NC349655  29.180   3.524   5.553
 8848POPC   PO449656  29.172   3.497   5.853
 8848POPC   GL149657  29.116   3.547   6.153
 8848POPC   GL249658  29.103   3.481   6.153
 8848POPC   C1A49659  29.122   3.573   6.453
 8848POPC   D2A49660  29.115   3.528   6.753
 8848POPC   C3A49661  29.098   3.580   7.053
 8848POPC   C4A49662  29.134   3.535   7.353
 8848POPC   C1B49663  28.947   3.342   6.453
 8848POPC   C2B49664  28.945   3.369   6.753
 8848POPC   C3B49665  28.995   3.325   7.053
 8848POPC   C4B49666  28.985   3.353   7.353
 8849POPC   NC349667   5.045  36.143   5.553
 8849POPC   PO449668   5.058  36.113   5.853
 8849POPC   GL149669   5.115  36.126   6.153
 8849POPC   GL249670   5.125  36.050   6.153
 8849POPC   C1A49671   5.088  36.165   6.453
 8849POPC   D2A49672   5.095  36.144   6.753
 8849POPC   C3A49673   5.133  36.108   7.053
 8849POPC   C4A49674   5.138  36.153   7.353
 8849POPC   C1B49675   5.095  35.875   6.453
 8849POPC   C2B49676   5.091  35.873   6.753
 8849POPC   C3B49677   5.051  35.918   7.053
 8849POPC   C4B49678   5.063  35.919   7.353
 8850POPC   NC349679  30.723  12.049   5.553
 8850POPC   PO449680  30.654  12.043   5.853
 8850POPC   GL149681  30.687  12.041   6.153
 8850POPC   GL249682  30.571  12.027   6.153
 8850POPC   C1A49683  30.711  12.102   6.453
 8850POPC   D2A49684  30.661  12.099   6.753
 8850POPC   C3A49685  30.720  12.085   7.053
 8850POPC   C4A49686  30.740  12.071   7.353
 8850POPC   C1B49687  30.417  12.022   6.453
 8850POPC   C2B49688  30.464  11.995   6.753
 8850POPC   C3B49689  30.449  12.067   7.053
 8850POPC   C4B49690  30.490  12.063   7.353
 8851POPC   NC349691  26.029   2.763   5.553
 8851POPC   PO449692  25.996   2.805   5.853
 8851POPC   GL149693  26.063   2.768   6.153
 8851POPC   GL249694  26.193   2.835   6.153
 8851POPC   C1A49695  26.005   2.777   6.453
 8851POPC   D2A49696  26.050   2.750   6.753
 8851POPC   C3A49697  26.036   2.803   7.053
 8851POPC   C4A49698  26.074   2.737   7.353
 8851POPC   C1B49699  26.320   2.844   6.453
 8851POPC   C2B49700  26.274   2.863   6.753
 8851POPC   C3B49701  26.296   2.790   7.053
 8851POPC   C4B49702  26.312   2.866   7.353
 8852POPC   NC349703  37.677  26.852   5.553
 8852POPC   PO449704  37.675  26.782   5.853
 8852POPC   GL149705  37.646  26.865   6.153
 8852POPC   GL249706  37.586  26.956   6.153
 8852POPC   C1A49707  37.713  26.788   6.453
 8852POPC   D2A49708  37.696  26.771   6.753
 8852POPC   C3A49709  37.725  26.797   7.053
 8852POPC   C4A49710  37.640  26.852   7.353
 8852POPC   C1B49711  37.468  27.013   6.453
 8852POPC   C2B49712  37.475  27.046   6.753
 8852POPC   C3B49713  37.517  26.974   7.053
 8852POPC   C4B49714  37.536  26.978   7.353
 8853POPC   NC349715  37.670  36.121   5.553
 8853POPC   PO449716  37.639  36.152   5.853
 8853POPC   GL149717  37.699  36.112   6.153
 8853POPC   GL249718  37.736  36.237   6.153
 8853POPC   C1A49719  37.688  36.101   6.453
 8853POPC   D2A49720  37.648  36.092   6.753
 8853POPC   C3A49721  37.706  36.155   7.053
 8853POPC   C4A49722  37.642  36.150   7.353
 8853POPC   C1B49723  37.855  36.294   6.453
 8853POPC   C2B49724  37.871  36.301   6.753
 8853POPC   C3B49725  37.886  36.313   7.053
 8853POPC   C4B49726  37.927  36.221   7.353
 8854POPC   NC349727   5.099   1.166   5.553
 8854POPC   PO449728   5.092   1.257   5.853
 8854POPC   GL149729   5.091   1.252   6.153
 8854POPC   GL249730   5.230   1.184   6.153
 8854POPC   C1A49731   5.086   1.193   6.453
 8854POPC   D2A49732   5.049   1.206   6.753
 8854POPC   C3A49733   5.106   1.178   7.053
 8854POPC   C4A49734   5.141   1.208   7.353
 8854POPC   C1B49735   5.292   1.039   6.453
 8854POPC   C2B49736   5.255   1.077   6.753
 8854POPC   C3B49737   5.304   1.096   7.053
 8854POPC   C4B49738   5.299   1.109   7.353
 8855POPC   NC349739  12.102  21.386   5.553
 8855POPC   PO449740  12.058  21.381   5.853
 8855POPC   GL149741  12.037  21.388   6.153
 8855POPC   GL249742  12.150  21.246   6.153
 8855POPC   C1A49743  12.028  21.427   6.453
 8855POPC   D2A49744  12.099  21.338   6.753
 8855POPC   C3A49745  12.067  21.419   7.053
 8855POPC   C4A49746  12.084  21.351   7.353
 8855POPC   C1B49747  12.131  21.141   6.453
 8855POPC   C2B49748  12.145  21.144   6.753
 8855POPC   C3B49749  12.091  21.104   7.053
 8855POPC   C4B49750  12.126  21.121   7.353
 8856POPC   NC349751   3.506  14.399   5.553
 8856POPC   PO449752   3.569  14.369   5.853
 8856POPC   GL149753   3.507  14.439   6.153
 8856POPC   GL249754   3.503  14.344   6.153
 8856POPC   C1A49755   3.569  14.377   6.453
 8856POPC   D2A49756   3.570  14.426   6.753
 8856POPC   C3A49757   3.543  14.395   7.053
 8856POPC   C4A49758   3.563  14.423   7.353
 8856POPC   C1B49759   3.369  14.235   6.453
 8856POPC   C2B49760   3.377  14.191   6.753
 8856POPC   C3B49761   3.375  14.146   7.053
 8856POPC   C4B49762   3.392  14.201   7.353
 8857POPC   NC349763  23.676  18.257   5.553
 8857POPC   PO449764  23.738  18.273   5.853
 8857POPC   GL149765  23.669  18.269   6.153
 8857POPC   GL249766  23.674  18.384   6.153
 8857POPC   C1A49767  23.728  18.300   6.453
 8857POPC   D2A49768  23.731  18.257   6.753
 8857POPC   C3A49769  23.675  18.239   7.053
 8857POPC   C4A49770  23.665  18.329   7.353
 8857POPC   C1B49771  23.577  18.511   6.453
 8857POPC   C2B49772  23.543  18.524   6.753
 8857POPC   C3B49773  23.548  18.459   7.053
 8857POPC   C4B49774  23.541  18.464   7.353
 8858POPC   NC349775  20.590  29.118   5.553
 8858POPC   PO449776  20.610  29.183   5.853
 8858POPC   GL149777  20.568  29.131   6.153
 8858POPC   GL249778  20.723  29.039   6.153
 8858POPC   C1A49779  20.640  29.141   6.453
 8858POPC   D2A49780  20.593  29.106   6.753
 8858POPC   C3A49781  20.578  29.135   7.053
 8858POPC   C4A49782  20.579  29.152   7.353
 8858POPC   C1B49783  20.782  28.932   6.453
 8858POPC   C2B49784  20.794  29.004   6.753
 8858POPC   C3B49785  20.772  28.940   7.053
 8858POPC   C4B49786  20.771  28.948   7.353
 8859POPC   NC349787  18.237  43.156   5.553
 8859POPC   PO449788  18.272  43.091   5.853
 8859POPC   GL149789  18.320  43.099   6.153
 8859POPC   GL249790  18.371  43.097   6.153
 8859POPC   C1A49791  18.296  43.138   6.453
 8859POPC   D2A49792  18.313  43.130   6.753
 8859POPC   C3A49793  18.323  43.076   7.053
 8859POPC   C4A49794  18.317  43.090   7.353
 8859POPC   C1B49795  18.491  42.999   6.453
 8859POPC   C2B49796  18.548  43.030   6.753
 8859POPC   C3B49797  18.533  43.013   7.053
 8859POPC   C4B49798  18.536  42.981   7.353
 8860POPC   NC349799  18.321  10.515   5.553
 8860POPC   PO449800  18.242  10.512   5.853
 8860POPC   GL149801  18.332  10.570   6.153
 8860POPC   GL249802  18.322  10.353   6.153
 8860POPC   C1A49803  18.310  10.510   6.453
 8860POPC   D2A49804  18.260  10.545   6.753
 8860POPC   C3A49805  18.294  10.503   7.053
 8860POPC   C4A49806  18.298  10.488   7.353
 8860POPC   C1B49807  18.247  10.230   6.453
 8860POPC   C2B49808  18.322  10.261   6.753
 8860POPC   C3B49809  18.325  10.300   7.053
 8860POPC   C4B49810  18.331  10.236   7.353
 8861POPC   NC349811  12.852  21.431   5.553
 8861POPC   PO449812  12.862  21.363   5.853
 8861POPC   GL149813  12.838  21.419   6.153
 8861POPC   GL249814  12.942  21.309   6.153
 8861POPC   C1A49815  12.879  21.351   6.453
 8861POPC   D2A49816  12.827  21.396   6.753
 8861POPC   C3A49817  12.895  21.361   7.053
 8861POPC   C4A49818  12.842  21.431   7.353
 8861POPC   C1B49819  12.967  21.174   6.453
 8861POPC   C2B49820  12.992  21.197   6.753
 8861POPC   C3B49821  12.982  21.215   7.053
 8861POPC   C4B49822  12.941  21.220   7.353
 8862POPC   NC349823  29.169  40.809   5.553
 8862POPC   PO449824  29.121  40.745   5.853
 8862POPC   GL149825  29.150  40.781   6.153
 8862POPC   GL249826  29.211  40.932   6.153
 8862POPC   C1A49827  29.110  40.762   6.453
 8862POPC   D2A49828  29.138  40.733   6.753
 8862POPC   C3A49829  29.150  40.814   7.053
 8862POPC   C4A49830  29.180  40.821   7.353
 8862POPC   C1B49831  29.234  40.995   6.453
 8862POPC   C2B49832  29.325  41.019   6.753
 8862POPC   C3B49833  29.282  41.009   7.053
 8862POPC   C4B49834  29.240  40.983   7.353
 8863POPC   NC349835  43.092  36.875   5.553
 8863POPC   PO449836  43.136  36.910   5.853
 8863POPC   GL149837  43.102  36.906   6.153
 8863POPC   GL249838  43.156  37.029   6.153
 8863POPC   C1A49839  43.154  36.916   6.453
 8863POPC   D2A49840  43.140  36.949   6.753
 8863POPC   C3A49841  43.064  36.889   7.053
 8863POPC   C4A49842  43.105  36.896   7.353
 8863POPC   C1B49843  43.236  37.121   6.453
 8863POPC   C2B49844  43.301  37.073   6.753
 8863POPC   C3B49845  43.289  37.133   7.053
 8863POPC   C4B49846  43.318  37.123   7.353
 8864POPC   NC349847  43.083   5.825   5.553
 8864POPC   PO449848  43.065   5.884   5.853
 8864POPC   GL149849  43.143   5.850   6.153
 8864POPC   GL249850  43.041   5.806   6.153
 8864POPC   C1A49851  43.098   5.826   6.453
 8864POPC   D2A49852  43.160   5.845   6.753
 8864POPC   C3A49853  43.134   5.903   7.053
 8864POPC   C4A49854  43.134   5.852   7.353
 8864POPC   C1B49855  42.992   5.642   6.453
 8864POPC   C2B49856  42.982   5.655   6.753
 8864POPC   C3B49857  42.931   5.692   7.053
 8864POPC   C4B49858  42.961   5.637   7.353
 8865POPC   NC349859  24.529  13.603   5.553
 8865POPC   PO449860  24.521  13.675   5.853
 8865POPC   GL149861  24.446  13.579   6.153
 8865POPC   GL249862  24.502  13.748   6.153
 8865POPC   C1A49863  24.440  13.620   6.453
 8865POPC   D2A49864  24.502  13.678   6.753
 8865POPC   C3A49865  24.503  13.603   7.053
 8865POPC   C4A49866  24.454  13.607   7.353
 8865POPC   C1B49867  24.632  13.837   6.453
 8865POPC   C2B49868  24.623  13.881   6.753
 8865POPC   C3B49869  24.575  13.856   7.053
 8865POPC   C4B49870  24.617  13.832   7.353
 8866POPC   NC349871  19.077  33.755   5.553
 8866POPC   PO449872  19.077  33.751   5.853
 8866POPC   GL149873  19.018  33.754   6.153
 8866POPC   GL249874  19.152  33.818   6.153
 8866POPC   C1A49875  19.087  33.767   6.453
 8866POPC   D2A49876  19.082  33.813   6.753
 8866POPC   C3A49877  19.034  33.773   7.053
 8866POPC   C4A49878  19.032  33.814   7.353
 8866POPC   C1B49879  19.261  33.766   6.453
 8866POPC   C2B49880  19.315  33.830   6.753
 8866POPC   C3B49881  19.313  33.829   7.053
 8866POPC   C4B49882  19.283  33.755   7.353
 8867POPC   NC349883  12.804  12.819   5.553
 8867POPC   PO449884  12.860  12.891   5.853
 8867POPC   GL149885  12.814  12.847   6.153
 8867POPC   GL249886  12.764  12.749   6.153
 8867POPC   C1A49887  12.893  12.865   6.453
 8867POPC   D2A49888  12.890  12.898   6.753
 8867POPC   C3A49889  12.803  12.859   7.053
 8867POPC   C4A49890  12.884  12.880   7.353
 8867POPC   C1B49891  12.725  12.672   6.453
 8867POPC   C2B49892  12.730  12.618   6.753
 8867POPC   C3B49893  12.753  12.657   7.053
 8867POPC   C4B49894  12.728  12.642   7.353
 8868POPC   NC349895  19.023  44.707   5.553
 8868POPC   PO449896  19.091  44.620   5.853
 8868POPC   GL149897  19.101  44.701   6.153
 8868POPC   GL249898  19.076  44.558   6.153
 8868POPC   C1A49899  19.009  44.633   6.453
 8868POPC   D2A49900  19.094  44.699   6.753
 8868POPC   C3A49901  19.047  44.644   7.053
 8868POPC   C4A49902  19.026  44.710   7.353
 8868POPC   C1B49903  19.143  44.447   6.453
 8868POPC   C2B49904  19.096  44.464   6.753
 8868POPC   C3B49905  19.108  44.392   7.053
 8868POPC   C4B49906  19.121  44.387   7.353
 8869POPC   NC349907  10.488  35.330   5.553
 8869POPC   PO449908  10.479  35.372   5.853
 8869POPC   GL149909  10.490  35.326   6.153
 8869POPC   GL249910  10.440  35.346   6.153
 8869POPC   C1A49911  10.574  35.358   6.453
 8869POPC   D2A49912  10.518  35.313   6.753
 8869POPC   C3A49913  10.571  35.386   7.053
 8869POPC   C4A49914  10.488  35.384   7.353
 8869POPC   C1B49915  10.264  35.405   6.453
 8869POPC   C2B49916  10.288  35.410   6.753
 8869POPC   C3B49917  10.305  35.349   7.053
 8869POPC   C4B49918  10.296  35.415   7.353
 8870POPC   NC349919   5.091  13.665   5.553
 8870POPC   PO449920   5.136  13.619   5.853
 8870POPC   GL149921   5.103  13.593   6.153
 8870POPC   GL249922   5.196  13.575   6.153
 8870POPC   C1A49923   5.131  13.625   6.453
 8870POPC   D2A49924   5.054  13.660   6.753
 8870POPC   C3A49925   5.087  13.579   7.053
 8870POPC   C4A49926   5.108  13.634   7.353
 8870POPC   C1B49927   5.287  13.573   6.453
 8870POPC   C2B49928   5.368  13.535   6.753
 8870POPC   C3B49929   5.337  13.498   7.053
 8870POPC   C4B49930   5.303  13.549   7.353
 8871POPC   NC349931  31.506  25.235   5.553
 8871POPC   PO449932  31.522  25.310   5.853
 8871POPC   GL149933  31.439  25.217   6.153
 8871POPC   GL249934  31.336  25.243   6.153
 8871POPC   C1A49935  31.452  25.315   6.453
 8871POPC   D2A49936  31.473  25.305   6.753
 8871POPC   C3A49937  31.520  25.263   7.053
 8871POPC   C4A49938  31.493  25.247   7.353
 8871POPC   C1B49939  31.201  25.326   6.453
 8871POPC   C2B49940  31.174  25.270   6.753
 8871POPC   C3B49941  31.257  25.247   7.053
 8871POPC   C4B49942  31.247  25.312   7.353
 8872POPC   NC349943   9.791  29.136   5.553
 8872POPC   PO449944   9.769  29.183   5.853
 8872POPC   GL149945   9.706  29.129   6.153
 8872POPC   GL249946   9.633  29.042   6.153
 8872POPC   C1A49947   9.796  29.171   6.453
 8872POPC   D2A49948   9.790  29.191   6.753
 8872POPC   C3A49949   9.779  29.108   7.053
 8872POPC   C4A49950   9.772  29.185   7.353
 8872POPC   C1B49951   9.560  29.004   6.453
 8872POPC   C2B49952   9.529  28.981   6.753
 8872POPC   C3B49953   9.506  28.989   7.053
 8872POPC   C4B49954   9.488  28.983   7.353
 8873POPC   NC349955  32.216  24.505   5.553
 8873POPC   PO449956  32.294  24.528   5.853
 8873POPC   GL149957  32.274  24.537   6.153
 8873POPC   GL249958  32.235  24.410   6.153
 8873POPC   C1A49959  32.278  24.467   6.453
 8873POPC   D2A49960  32.286  24.470   6.753
 8873POPC   C3A49961  32.201  24.533   7.053
 8873POPC   C4A49962  32.206  24.494   7.353
 8873POPC   C1B49963  32.174  24.286   6.453
 8873POPC   C2B49964  32.192  24.260   6.753
 8873POPC   C3B49965  32.193  24.295   7.053
 8873POPC   C4B49966  32.176  24.252   7.353
 8874POPC   NC349967  29.115  33.033   5.553
 8874POPC   PO449968  29.139  33.074   5.853
 8874POPC   GL149969  29.155  33.027   6.153
 8874POPC   GL249970  29.178  32.945   6.153
 8874POPC   C1A49971  29.123  32.981   6.453
 8874POPC   D2A49972  29.109  33.039   6.753
 8874POPC   C3A49973  29.100  33.061   7.053
 8874POPC   C4A49974  29.106  33.006   7.353
 8874POPC   C1B49975  29.245  32.776   6.453
 8874POPC   C2B49976  29.274  32.743   6.753
 8874POPC   C3B49977  29.241  32.837   7.053
 8874POPC   C4B49978  29.240  32.785   7.353
 8875POPC   NC349979  29.929   4.339   5.553
 8875POPC   PO449980  29.964   4.365   5.853
 8875POPC   GL149981  29.960   4.343   6.153
 8875POPC   GL249982  29.784   4.268   6.153
 8875POPC   C1A49983  29.895   4.297   6.453
 8875POPC   D2A49984  29.878   4.297   6.753
 8875POPC   C3A49985  29.894   4.350   7.053
 8875POPC   C4A49986  29.940   4.269   7.353
 8875POPC   C1B49987  29.728   4.277   6.453
 8875POPC   C2B49988  29.703   4.207   6.753
 8875POPC   C3B49989  29.649   4.214   7.053
 8875POPC   C4B49990  29.675   4.261   7.353
 8876POPC   NC349991  17.505  15.929   5.553
 8876POPC   PO449992  17.520  15.906   5.853
 8876POPC   GL149993  17.492  15.931   6.153
 8876POPC   GL249994  17.440  16.039   6.153
 8876POPC   C1A49995  17.546  15.994   6.453
 8876POPC   D2A49996  17.513  15.950   6.753
 8876POPC   C3A49997  17.504  15.977   7.053
 8876POPC   C4A49998  17.495  15.981   7.353
 8876POPC   C1B49999  17.331  16.116   6.453
 8876POPC   C2B50000  17.373  16.110   6.753
 8876POPC   C3B50001  17.293  16.092   7.053
 8876POPC   C4B50002  17.306  16.184   7.353
 8877POPC   NC350003  16.690  41.521   5.553
 8877POPC   PO450004  16.743  41.512   5.853
 8877POPC   GL150005  16.762  41.546   6.153
 8877POPC   GL250006  16.756  41.477   6.153
 8877POPC   C1A50007  16.751  41.537   6.453
 8877POPC   D2A50008  16.758  41.575   6.753
 8877POPC   C3A50009  16.692  41.603   7.053
 8877POPC   C4A50010  16.744  41.584   7.353
 8877POPC   C1B50011  16.696  41.340   6.453
 8877POPC   C2B50012  16.666  41.290   6.753
 8877POPC   C3B50013  16.733  41.276   7.053
 8877POPC   C4B50014  16.754  41.269   7.353
 8878POPC   NC350015  37.640  37.702   5.553
 8878POPC   PO450016  37.692  37.680   5.853
 8878POPC   GL150017  37.664  37.648   6.153
 8878POPC   GL250018  37.675  37.510   6.153
 8878POPC   C1A50019  37.658  37.695   6.453
 8878POPC   D2A50020  37.655  37.660   6.753
 8878POPC   C3A50021  37.671  37.723   7.053
 8878POPC   C4A50022  37.649  37.631   7.353
 8878POPC   C1B50023  37.720  37.411   6.453
 8878POPC   C2B50024  37.713  37.424   6.753
 8878POPC   C3B50025  37.658  37.424   7.053
 8878POPC   C4B50026  37.661  37.435   7.353
 8879POPC   NC350027  24.537  34.589   5.553
 8879POPC   PO450028  24.492  34.527   5.853
 8879POPC   GL150029  24.462  34.566   6.153
 8879POPC   GL250030  24.393  34.632   6.153
 8879POPC   C1A50031  24.500  34.596   6.453
 8879POPC   D2A50032  24.478  34.563   6.753
 8879POPC   C3A50033  24.481  34.585   7.053
 8879POPC   C4A50034  24.527  34.555   7.353
 8879POPC   C1B50035  24.328  34.704   6.453
 8879POPC   C2B50036  24.328  34.767   6.753
 8879POPC   C3B50037  24.305  34.701   7.053
 8879POPC   C4B50038  24.300  34.735   7.353
 8880POPC   NC350039  38.420  41.531   5.553
 8880POPC   PO450040  38.439  41.548   5.853
 8880POPC   GL150041  38.482  41.549   6.153
 8880POPC   GL250042  38.597  41.508   6.153
 8880POPC   C1A50043  38.444  41.526   6.453
 8880POPC   D2A50044  38.466  41.516   6.753
 8880POPC   C3A50045  38.413  41.559   7.053
 8880POPC   C4A50046  38.492  41.530   7.353
 8880POPC   C1B50047  38.634  41.462   6.453
 8880POPC   C2B50048  38.660  41.443   6.753
 8880POPC   C3B50049  38.688  41.412   7.053
 8880POPC   C4B50050  38.685  41.424   7.353
 8881POPC   NC350051  12.871  22.147   5.553
 8881POPC   PO450052  12.878  22.174   5.853
 8881POPC   GL150053  12.849  22.207   6.153
 8881POPC   GL250054  12.762  22.265   6.153
 8881POPC   C1A50055  12.802  22.172   6.453
 8881POPC   D2A50056  12.855  22.128   6.753
 8881POPC   C3A50057  12.838  22.152   7.053
 8881POPC   C4A50058  12.813  22.165   7.353
 8881POPC   C1B50059  12.614  22.302   6.453
 8881POPC   C2B50060  12.662  22.268   6.753
 8881POPC   C3B50061  12.659  22.311   7.053
 8881POPC   C4B50062  12.683  22.318   7.353
 8882POPC   NC350063  43.113  10.528   5.553
 8882POPC   PO450064  43.081  10.511   5.853
 8882POPC   GL150065  43.149  10.562   6.153
 8882POPC   GL250066  43.027  10.619   6.153
 8882POPC   C1A50067  43.128  10.524   6.453
 8882POPC   D2A50068  43.102  10.496   6.753
 8882POPC   C3A50069  43.159  10.565   7.053
 8882POPC   C4A50070  43.141  10.543   7.353
 8882POPC   C1B50071  43.062  10.804   6.453
 8882POPC   C2B50072  42.996  10.794   6.753
 8882POPC   C3B50073  43.037  10.762   7.053
 8882POPC   C4B50074  43.075  10.777   7.353
 8883POPC   NC350075  35.382  44.655   5.553
 8883POPC   PO450076  35.316  44.644   5.853
 8883POPC   GL150077  35.311  44.641   6.153
 8883POPC   GL250078  35.341  44.494   6.153
 8883POPC   C1A50079  35.333  44.647   6.453
 8883POPC   D2A50080  35.357  44.662   6.753
 8883POPC   C3A50081  35.376  44.682   7.053
 8883POPC   C4A50082  35.381  44.652   7.353
 8883POPC   C1B50083  35.403  44.376   6.453
 8883POPC   C2B50084  35.323  44.444   6.753
 8883POPC   C3B50085  35.332  44.376   7.053
 8883POPC   C4B50086  35.329  44.443   7.353
 8884POPC   NC350087  15.934  41.543   5.553
 8884POPC   PO450088  15.925  41.593   5.853
 8884POPC   GL150089  15.936  41.540   6.153
 8884POPC   GL250090  16.020  41.402   6.153
 8884POPC   C1A50091  15.927  41.535   6.453
 8884POPC   D2A50092  15.995  41.558   6.753
 8884POPC   C3A50093  15.960  41.591   7.053
 8884POPC   C4A50094  15.984  41.543   7.353
 8884POPC   C1B50095  16.027  41.341   6.453
 8884POPC   C2B50096  16.095  41.307   6.753
 8884POPC   C3B50097  16.027  41.370   7.053
 8884POPC   C4B50098  16.052  41.368   7.353
 8885POPC   NC350099  29.191  40.040   5.553
 8885POPC   PO450100  29.122  39.968   5.853
 8885POPC   GL150101  29.120  39.985   6.153
 8885POPC   GL250102  29.169  40.135   6.153
 8885POPC   C1A50103  29.185  39.999   6.453
 8885POPC   D2A50104  29.106  40.014   6.753
 8885POPC   C3A50105  29.132  40.002   7.053
 8885POPC   C4A50106  29.162  40.018   7.353
 8885POPC   C1B50107  29.246  40.202   6.453
 8885POPC   C2B50108  29.215  40.275   6.753
 8885POPC   C3B50109  29.151  40.294   7.053
 8885POPC   C4B50110  29.219  40.212   7.353
 8886POPC   NC350111  43.886  28.366   5.553
 8886POPC   PO450112  43.922  28.364   5.853
 8886POPC   GL150113  43.908  28.387   6.153
 8886POPC   GL250114  43.921  28.430   6.153
 8886POPC   C1A50115  43.876  28.355   6.453
 8886POPC   D2A50116  43.917  28.353   6.753
 8886POPC   C3A50117  43.906  28.349   7.053
 8886POPC   C4A50118  43.905  28.347   7.353
 8886POPC   C1B50119  44.086  28.546   6.453
 8886POPC   C2B50120  44.094  28.578   6.753
 8886POPC   C3B50121  44.041  28.519   7.053
 8886POPC   C4B50122  43.998  28.540   7.353
 8887POPC   NC350123  40.050  25.306   5.553
 8887POPC   PO450124  39.973  25.273   5.853
 8887POPC   GL150125  40.022  25.221   6.153
 8887POPC   GL250126  39.928  25.159   6.153
 8887POPC   C1A50127  40.008  25.290   6.453
 8887POPC   D2A50128  40.019  25.227   6.753
 8887POPC   C3A50129  40.032  25.286   7.053
 8887POPC   C4A50130  40.020  25.236   7.353
 8887POPC   C1B50131  39.878  25.069   6.453
 8887POPC   C2B50132  39.930  25.064   6.753
 8887POPC   C3B50133  39.940  24.986   7.053
 8887POPC   C4B50134  39.936  25.041   7.353
 8888POPC   NC350135  34.625   2.737   5.553
 8888POPC   PO450136  34.602   2.795   5.853
 8888POPC   GL150137  34.623   2.802   6.153
 8888POPC   GL250138  34.591   2.904   6.153
 8888POPC   C1A50139  34.619   2.730   6.453
 8888POPC   D2A50140  34.608   2.798   6.753
 8888POPC   C3A50141  34.555   2.755   7.053
 8888POPC   C4A50142  34.613   2.783   7.353
 8888POPC   C1B50143  34.505   2.961   6.453
 8888POPC   C2B50144  34.485   2.966   6.753
 8888POPC   C3B50145  34.486   3.000   7.053
 8888POPC   C4B50146  34.509   2.967   7.353
 8889POPC   NC350147  12.813  36.106   5.553
 8889POPC   PO450148  12.888  36.109   5.853
 8889POPC   GL150149  12.879  36.120   6.153
 8889POPC   GL250150  12.702  36.109   6.153
 8889POPC   C1A50151  12.850  36.079   6.453
 8889POPC   D2A50152  12.805  36.130   6.753
 8889POPC   C3A50153  12.810  36.093   7.053
 8889POPC   C4A50154  12.851  36.107   7.353
 8889POPC   C1B50155  12.595  36.061   6.453
 8889POPC   C2B50156  12.643  36.022   6.753
 8889POPC   C3B50157  12.592  36.005   7.053
 8889POPC   C4B50158  12.650  36.079   7.353
 8890POPC   NC350159   1.208  40.033   5.553
 8890POPC   PO450160   1.206  40.022   5.853
 8890POPC   GL150161   1.223  40.007   6.153
 8890POPC   GL250162   1.138  39.986   6.153
 8890POPC   C1A50163   1.223  40.038   6.453
 8890POPC   D2A50164   1.189  40.053   6.753
 8890POPC   C3A50165   1.186  39.994   7.053
 8890POPC   C4A50166   1.214  39.979   7.353
 8890POPC   C1B50167   0.968  39.959   6.453
 8890POPC   C2B50168   0.996  39.998   6.753
 8890POPC   C3B50169   0.935  40.021   7.053
 8890POPC   C4B50170   0.995  40.019   7.353
 8891POPC   NC350171  43.881  16.697   5.553
 8891POPC   PO450172  43.908  16.777   5.853
 8891POPC   GL150173  43.909  16.725   6.153
 8891POPC   GL250174  43.823  16.639   6.153
 8891POPC   C1A50175  43.858  16.690   6.453
 8891POPC   D2A50176  43.850  16.724   6.753
 8891POPC   C3A50177  43.887  16.754   7.053
 8891POPC   C4A50178  43.889  16.773   7.353
 8891POPC   C1B50179  43.704  16.624   6.453
 8891POPC   C2B50180  43.685  16.592   6.753
 8891POPC   C3B50181  43.647  16.609   7.053
 8891POPC   C4B50182  43.715  16.591   7.353
 8892POPC   NC350183  43.086   0.441   5.553
 8892POPC   PO450184  43.133   0.436   5.853
 8892POPC   GL150185  43.156   0.473   6.153
 8892POPC   GL250186  43.236   0.347   6.153
 8892POPC   C1A50187  43.075   0.424   6.453
 8892POPC   D2A50188  43.148   0.474   6.753
 8892POPC   C3A50189  43.102   0.409   7.053
 8892POPC   C4A50190  43.109   0.463   7.353
 8892POPC   C1B50191  43.281   0.256   6.453
 8892POPC   C2B50192  43.335   0.275   6.753
 8892POPC   C3B50193  43.295   0.290   7.053
 8892POPC   C4B50194  43.342   0.250   7.353
 8893POPC   NC350195  11.276   8.207   5.553
 8893POPC   PO450196  11.325   8.157   5.853
 8893POPC   GL150197  11.348   8.219   6.153
 8893POPC   GL250198  11.402   8.204   6.153
 8893POPC   C1A50199  11.277   8.163   6.453
 8893POPC   D2A50200  11.283   8.187   6.753
 8893POPC   C3A50201  11.265   8.150   7.053
 8893POPC   C4A50202  11.299   8.205   7.353
 8893POPC   C1B50203  11.514   8.152   6.453
 8893POPC   C2B50204  11.573   8.090   6.753
 8893POPC   C3B50205  11.562   8.100   7.053
 8893POPC   C4B50206  11.576   8.101   7.353
 8894POPC   NC350207  26.027  21.432   5.553
 8894POPC   PO450208  26.032  21.420   5.853
 8894POPC   GL150209  26.066  21.424   6.153
 8894POPC   GL250210  25.938  21.430   6.153
 8894POPC   C1A50211  26.048  21.420   6.453
 8894POPC   D2A50212  26.056  21.412   6.753
 8894POPC   C3A50213  26.042  21.417   7.053
 8894POPC   C4A50214  26.043  21.422   7.353
 8894POPC   C1B50215  25.851  21.483   6.453
 8894POPC   C2B50216  25.787  21.413   6.753
 8894POPC   C3B50217  25.788  21.462   7.053
 8894POPC   C4B50218  25.754  21.446   7.353
 8895POPC   NC350219  23.670  35.320   5.553
 8895POPC   PO450220  23.672  35.321   5.853
 8895POPC   GL150221  23.695  35.355   6.153
 8895POPC   GL250222  23.829  35.475   6.153
 8895POPC   C1A50223  23.680  35.361   6.453
 8895POPC   D2A50224  23.667  35.385   6.753
 8895POPC   C3A50225  23.676  35.400   7.053
 8895POPC   C4A50226  23.737  35.386   7.353
 8895POPC   C1B50227  23.926  35.527   6.453
 8895POPC   C2B50228  23.903  35.495   6.753
 8895POPC   C3B50229  23.931  35.520   7.053
 8895POPC   C4B50230  23.840  35.543   7.353
 8896POPC   NC350231  23.762  19.078   5.553
 8896POPC   PO450232  23.716  19.083   5.853
 8896POPC   GL150233  23.701  19.100   6.153
 8896POPC   GL250234  23.620  18.990   6.153
 8896POPC   C1A50235  23.670  19.084   6.453
 8896POPC   D2A50236  23.670  19.083   6.753
 8896POPC   C3A50237  23.681  19.096   7.053
 8896POPC   C4A50238  23.717  19.036   7.353
 8896POPC   C1B50239  23.462  19.027   6.453
 8896POPC   C2B50240  23.464  19.029   6.753
 8896POPC   C3B50241  23.464  18.984   7.053
 8896POPC   C4B50242  23.516  18.990   7.353
 8897POPC   NC350243  10.555  40.055   5.553
 8897POPC   PO450244  10.490  40.015   5.853
 8897POPC   GL150245  10.504  39.991   6.153
 8897POPC   GL250246  10.601  40.065   6.153
 8897POPC   C1A50247  10.507  39.991   6.453
 8897POPC   D2A50248  10.475  39.989   6.753
 8897POPC   C3A50249  10.549  39.964   7.053
 8897POPC   C4A50250  10.550  39.992   7.353
 8897POPC   C1B50251  10.704  40.146   6.453
 8897POPC   C2B50252  10.728  40.136   6.753
 8897POPC   C3B50253  10.670  40.205   7.053
 8897POPC   C4B50254  10.674  40.197   7.353
 8898POPC   NC350255  26.823   5.137   5.553
 8898POPC   PO450256  26.853   5.097   5.853
 8898POPC   GL150257  26.844   5.080   6.153
 8898POPC   GL250258  26.791   4.981   6.153
 8898POPC   C1A50259  26.782   5.123   6.453
 8898POPC   D2A50260  26.777   5.059   6.753
 8898POPC   C3A50261  26.795   5.120   7.053
 8898POPC   C4A50262  26.770   5.092   7.353
 8898POPC   C1B50263  26.860   4.873   6.453
 8898POPC   C2B50264  26.869   4.883   6.753
 8898POPC   C3B50265  26.874   4.795   7.053
 8898POPC   C4B50266  26.861   4.834   7.353
 8899POPC   NC350267   6.643   1.943   5.553
 8899POPC   PO450268   6.637   1.961   5.853
 8899POPC   GL150269   6.616   1.971   6.153
 8899POPC   GL250270   6.599   2.085   6.153
 8899POPC   C1A50271   6.668   1.985   6.453
 8899POPC   D2A50272   6.623   2.021   6.753
 8899POPC   C3A50273   6.600   2.033   7.053
 8899POPC   C4A50274   6.624   2.026   7.353
 8899POPC   C1B50275   6.559   2.256   6.453
 8899POPC   C2B50276   6.602   2.252   6.753
 8899POPC   C3B50277   6.535   2.216   7.053
 8899POPC   C4B50278   6.588   2.266   7.353
 8900POPC   NC350279   2.784  39.185   5.553
 8900POPC   PO450280   2.737  39.279   5.853
 8900POPC   GL150281   2.798  39.220   6.153
 8900POPC   GL250282   2.795  39.359   6.153
 8900POPC   C1A50283   2.769  39.260   6.453
 8900POPC   D2A50284   2.741  39.243   6.753
 8900POPC   C3A50285   2.785  39.279   7.053
 8900POPC   C4A50286   2.724  39.264   7.353
 8900POPC   C1B50287   2.746  39.469   6.453
 8900POPC   C2B50288   2.738  39.430   6.753
 8900POPC   C3B50289   2.761  39.450   7.053
 8900POPC   C4B50290   2.732  39.529   7.353
 8901POPC   NC350291   8.224  32.220   5.553
 8901POPC   PO450292   8.237  32.207   5.853
 8901POPC   GL150293   8.157  32.210   6.153
 8901POPC   GL250294   8.351  32.310   6.153
 8901POPC   C1A50295   8.167  32.269   6.453
 8901POPC   D2A50296   8.207  32.298   6.753
 8901POPC   C3A50297   8.243  32.238   7.053
 8901POPC   C4A50298   8.176  32.223   7.353
 8901POPC   C1B50299   8.478  32.253   6.453
 8901POPC   C2B50300   8.467  32.280   6.753
 8901POPC   C3B50301   8.493  32.303   7.053
 8901POPC   C4B50302   8.435  32.268   7.353
 8902POPC   NC350303  10.527  37.644   5.553
 8902POPC   PO450304  10.538  37.677   5.853
 8902POPC   GL150305  10.496  37.682   6.153
 8902POPC   GL250306  10.645  37.782   6.153
 8902POPC   C1A50307  10.498  37.691   6.453
 8902POPC   D2A50308  10.502  37.687   6.753
 8902POPC   C3A50309  10.527  37.698   7.053
 8902POPC   C4A50310  10.507  37.702   7.353
 8902POPC   C1B50311  10.717  37.888   6.453
 8902POPC   C2B50312  10.738  37.846   6.753
 8902POPC   C3B50313  10.682  37.833   7.053
 8902POPC   C4B50314  10.688  37.857   7.353
 8903POPC   NC350315  28.380  15.202   5.553
 8903POPC   PO450316  28.352  15.197   5.853
 8903POPC   GL150317  28.374  15.131   6.153
 8903POPC   GL250318  28.487  15.183   6.153
 8903POPC   C1A50319  28.328  15.199   6.453
 8903POPC   D2A50320  28.415  15.175   6.753
 8903POPC   C3A50321  28.321  15.215   7.053
 8903POPC   C4A50322  28.338  15.223   7.353
 8903POPC   C1B50323  28.586  15.070   6.453
 8903POPC   C2B50324  28.599  15.114   6.753
 8903POPC   C3B50325  28.632  15.117   7.053
 8903POPC   C4B50326  28.638  15.160   7.353
 8904POPC   NC350327  22.116  14.368   5.553
 8904POPC   PO450328  22.162  14.378   5.853
 8904POPC   GL150329  22.202  14.407   6.153
 8904POPC   GL250330  22.159  14.312   6.153
 8904POPC   C1A50331  22.116  14.434   6.453
 8904POPC   D2A50332  22.123  14.405   6.753
 8904POPC   C3A50333  22.175  14.383   7.053
 8904POPC   C4A50334  22.159  14.375   7.353
 8904POPC   C1B50335  22.099  14.215   6.453
 8904POPC   C2B50336  22.097  14.139   6.753
 8904POPC   C3B50337  22.117  14.133   7.053
 8904POPC   C4B50338  22.107  14.128   7.353
 8905POPC   NC350339  32.289   5.097   5.553
 8905POPC   PO450340  32.295   5.141   5.853
 8905POPC   GL150341  32.216   5.139   6.153
 8905POPC   GL250342  32.162   5.082   6.153
 8905POPC   C1A50343  32.265   5.066   6.453
 8905POPC   D2A50344  32.295   5.110   6.753
 8905POPC   C3A50345  32.290   5.076   7.053
 8905POPC   C4A50346  32.224   5.094   7.353
 8905POPC   C1B50347  32.022   5.010   6.453
 8905POPC   C2B50348  31.981   4.957   6.753
 8905POPC   C3B50349  31.998   4.974   7.053
 8905POPC   C4B50350  32.047   4.982   7.353
 8906POPC   NC350351  29.949  13.673   5.553
 8906POPC   PO450352  29.899  13.675   5.853
 8906POPC   GL150353  29.877  13.640   6.153
 8906POPC   GL250354  29.873  13.504   6.153
 8906POPC   C1A50355  29.948  13.635   6.453
 8906POPC   D2A50356  29.884  13.640   6.753
 8906POPC   C3A50357  29.876  13.653   7.053
 8906POPC   C4A50358  29.882  13.628   7.353
 8906POPC   C1B50359  29.886  13.367   6.453
 8906POPC   C2B50360  29.884  13.422   6.753
 8906POPC   C3B50361  29.829  13.389   7.053
 8906POPC   C4B50362  29.869  13.367   7.353
 8907POPC   NC350363  10.527  17.508   5.553
 8907POPC   PO450364  10.481  17.517   5.853
 8907POPC   GL150365  10.550  17.495   6.153
 8907POPC   GL250366  10.481  17.599   6.153
 8907POPC   C1A50367  10.474  17.459   6.453
 8907POPC   D2A50368  10.510  17.477   6.753
 8907POPC   C3A50369  10.557  17.463   7.053
 8907POPC   C4A50370  10.505  17.529   7.353
 8907POPC   C1B50371  10.473  17.758   6.453
 8907POPC   C2B50372  10.466  17.789   6.753
 8907POPC   C3B50373  10.451  17.758   7.053
 8907POPC   C4B50374  10.444  17.760   7.353
 8908POPC   NC350375  27.600  32.208   5.553
 8908POPC   PO450376  27.621  32.285   5.853
 8908POPC   GL150377  27.628  32.215   6.153
 8908POPC   GL250378  27.539  32.331   6.153
 8908POPC   C1A50379  27.573  32.234   6.453
 8908POPC   D2A50380  27.634  32.265   6.753
 8908POPC   C3A50381  27.633  32.293   7.053
 8908POPC   C4A50382  27.594  32.292   7.353
 8908POPC   C1B50383  27.598  32.519   6.453
 8908POPC   C2B50384  27.564  32.471   6.753
 8908POPC   C3B50385  27.568  32.520   7.053
 8908POPC   C4B50386  27.567  32.531   7.353
 8909POPC   NC350387   3.522   6.677   5.553
 8909POPC   PO450388   3.514   6.684   5.853
 8909POPC   GL150389   3.549   6.683   6.153
 8909POPC   GL250390   3.648   6.706   6.153
 8909POPC   C1A50391   3.574   6.677   6.453
 8909POPC   D2A50392   3.545   6.615   6.753
 8909POPC   C3A50393   3.515   6.611   7.053
 8909POPC   C4A50394   3.549   6.616   7.353
 8909POPC   C1B50395   3.743   6.722   6.453
 8909POPC   C2B50396   3.808   6.762   6.753
 8909POPC   C3B50397   3.806   6.727   7.053
 8909POPC   C4B50398   3.824   6.684   7.353
 8910POPC   NC350399  36.943  44.619   5.553
 8910POPC   PO450400  36.940  44.705   5.853
 8910POPC   GL150401  36.923  44.667   6.153
 8910POPC   GL250402  37.033  44.645   6.153
 8910POPC   C1A50403  36.927  44.706   6.453
 8910POPC   D2A50404  36.860  44.704   6.753
 8910POPC   C3A50405  36.918  44.634   7.053
 8910POPC   C4A50406  36.858  44.650   7.353
 8910POPC   C1B50407  37.189  44.632   6.453
 8910POPC   C2B50408  37.159  44.553   6.753
 8910POPC   C3B50409  37.190  44.594   7.053
 8910POPC   C4B50410  37.131  44.629   7.353
 8911POPC   NC350411  15.164  43.114   5.553
 8911POPC   PO450412  15.134  43.088   5.853
 8911POPC   GL150413  15.219  43.156   6.153
 8911POPC   GL250414  15.149  42.944   6.153
 8911POPC   C1A50415  15.199  43.091   6.453
 8911POPC   D2A50416  15.138  43.106   6.753
 8911POPC   C3A50417  15.141  43.147   7.053
 8911POPC   C4A50418  15.155  43.093   7.353
 8911POPC   C1B50419  15.196  42.853   6.453
 8911POPC   C2B50420  15.262  42.821   6.753
 8911POPC   C3B50421  15.215  42.907   7.053
 8911POPC   C4B50422  15.245  42.910   7.353
 8912POPC   NC350423  44.663  23.706   5.553
 8912POPC   PO450424  44.659  23.738   5.853
 8912POPC   GL150425  44.670  23.720   6.153
 8912POPC   GL250426  44.524  23.628   6.153
 8912POPC   C1A50427  44.663  23.718   6.453
 8912POPC   D2A50428  44.624  23.757   6.753
 8912POPC   C3A50429  44.688  23.722   7.053
 8912POPC   C4A50430  44.638  23.740   7.353
 8912POPC   C1B50431  44.459  23.514   6.453
 8912POPC   C2B50432  44.450  23.572   6.753
 8912POPC   C3B50433  44.494  23.560   7.053
 8912POPC   C4B50434  44.504  23.597   7.353
 8913POPC   NC350435  19.104  26.779   5.553
 8913POPC   PO450436  19.042  26.832   5.853
 8913POPC   GL150437  19.069  26.787   6.153
 8913POPC   GL250438  18.974  26.662   6.153
 8913POPC   C1A50439  19.088  26.824   6.453
 8913POPC   D2A50440  19.076  26.856   6.753
 8913POPC   C3A50441  19.066  26.783   7.053
 8913POPC   C4A50442  19.009  26.818   7.353
 8913POPC   C1B50443  18.907  26.579   6.453
 8913POPC   C2B50444  18.950  26.613   6.753
 8913POPC   C3B50445  18.896  26.549   7.053
 8913POPC   C4B50446  18.971  26.615   7.353
 8914POPC   NC350447   2.017  12.119   5.553
 8914POPC   PO450448   2.004  12.091   5.853
 8914POPC   GL150449   1.988  12.080   6.153
 8914POPC   GL250450   2.031  12.029   6.153
 8914POPC   C1A50451   1.991  12.110   6.453
 8914POPC   D2A50452   2.013  12.054   6.753
 8914POPC   C3A50453   1.964  12.035   7.053
 8914POPC   C4A50454   2.023  12.046   7.353
 8914POPC   C1B50455   2.188  11.868   6.453
 8914POPC   C2B50456   2.143  11.859   6.753
 8914POPC   C3B50457   2.112  11.870   7.053
 8914POPC   C4B50458   2.119  11.938   7.353
 8915POPC   NC350459  30.724  29.913   5.553
 8915POPC   PO450460  30.685  29.926   5.853
 8915POPC   GL150461  30.683  29.917   6.153
 8915POPC   GL250462  30.852  29.941   6.153
 8915POPC   C1A50463  30.693  29.910   6.453
 8915POPC   D2A50464  30.672  29.959   6.753
 8915POPC   C3A50465  30.694  29.931   7.053
 8915POPC   C4A50466  30.722  29.883   7.353
 8915POPC   C1B50467  30.995  29.940   6.453
 8915POPC   C2B50468  30.934  29.927   6.753
 8915POPC   C3B50469  30.927  29.960   7.053
 8915POPC   C4B50470  30.946  29.901   7.353
 8916POPC   NC350471   7.384  19.810   5.553
 8916POPC   PO450472   7.435  19.864   5.853
 8916POPC   GL150473   7.470  19.834   6.153
 8916POPC   GL250474   7.478  19.914   6.153
 8916POPC   C1A50475   7.450  19.882   6.453
 8916POPC   D2A50476   7.416  19.816   6.753
 8916POPC   C3A50477   7.415  19.796   7.053
 8916POPC   C4A50478   7.373  19.786   7.353
 8916POPC   C1B50479   7.495  20.055   6.453
 8916POPC   C2B50480   7.464  20.118   6.753
 8916POPC   C3B50481   7.486  20.088   7.053
 8916POPC   C4B50482   7.482  20.103   7.353
 8917POPC   NC350483  12.819  39.249   5.553
 8917POPC   PO450484  12.832  39.275   5.853
 8917POPC   GL150485  12.839  39.247   6.153
 8917POPC   GL250486  12.798  39.324   6.153
 8917POPC   C1A50487  12.890  39.259   6.453
 8917POPC   D2A50488  12.848  39.248   6.753
 8917POPC   C3A50489  12.849  39.218   7.053
 8917POPC   C4A50490  12.860  39.268   7.353
 8917POPC   C1B50491  12.658  39.435   6.453
 8917POPC   C2B50492  12.618  39.431   6.753
 8917POPC   C3B50493  12.663  39.417   7.053
 8917POPC   C4B50494  12.705  39.446   7.353
 8918POPC   NC350495  41.558  21.362   5.553
 8918POPC   PO450496  41.542  21.408   5.853
 8918POPC   GL150497  41.519  21.372   6.153
 8918POPC   GL250498  41.682  21.292   6.153
 8918POPC   C1A50499  41.515  21.352   6.453
 8918POPC   D2A50500  41.568  21.422   6.753
 8918POPC   C3A50501  41.516  21.356   7.053
 8918POPC   C4A50502  41.555  21.407   7.353
 8918POPC   C1B50503  41.799  21.250   6.453
 8918POPC   C2B50504  41.778  21.228   6.753
 8918POPC   C3B50505  41.797  21.222   7.053
 8918POPC   C4B50506  41.727  21.276   7.353
 8919POPC   NC350507   1.944   1.234   5.553
 8919POPC   PO450508   2.032   1.224   5.853
 8919POPC   GL150509   1.953   1.250   6.153
 8919POPC   GL250510   2.037   1.262   6.153
 8919POPC   C1A50511   1.984   1.218   6.453
 8919POPC   D2A50512   2.013   1.166   6.753
 8919POPC   C3A50513   1.958   1.165   7.053
 8919POPC   C4A50514   2.033   1.255   7.353
 8919POPC   C1B50515   2.155   1.340   6.453
 8919POPC   C2B50516   2.152   1.387   6.753
 8919POPC   C3B50517   2.209   1.389   7.053
 8919POPC   C4B50518   2.149   1.327   7.353
 8920POPC   NC350519  24.535  15.220   5.553
 8920POPC   PO450520  24.504  15.207   5.853
 8920POPC   GL150521  24.474  15.229   6.153
 8920POPC   GL250522  24.505  15.039   6.153
 8920POPC   C1A50523  24.526  15.146   6.453
 8920POPC   D2A50524  24.478  15.158   6.753
 8920POPC   C3A50525  24.480  15.176   7.053
 8920POPC   C4A50526  24.518  15.198   7.353
 8920POPC   C1B50527  24.487  14.937   6.453
 8920POPC   C2B50528  24.462  14.942   6.753
 8920POPC   C3B50529  24.523  14.916   7.053
 8920POPC   C4B50530  24.520  14.952   7.353
 8921POPC   NC350531  36.113  25.241   5.553
 8921POPC   PO450532  36.158  25.244   5.853
 8921POPC   GL150533  36.145  25.241   6.153
 8921POPC   GL250534  36.011  25.185   6.153
 8921POPC   C1A50535  36.146  25.249   6.453
 8921POPC   D2A50536  36.107  25.280   6.753
 8921POPC   C3A50537  36.109  25.243   7.053
 8921POPC   C4A50538  36.130  25.290   7.353
 8921POPC   C1B50539  35.894  25.117   6.453
 8921POPC   C2B50540  35.918  25.141   6.753
 8921POPC   C3B50541  35.977  25.101   7.053
 8921POPC   C4B50542  35.938  25.078   7.353
 8922POPC   NC350543   5.064  15.212   5.553
 8922POPC   PO450544   5.127  15.217   5.853
 8922POPC   GL150545   5.134  15.169   6.153
 8922POPC   GL250546   5.213  15.194   6.153
 8922POPC   C1A50547   5.044  15.140   6.453
 8922POPC   D2A50548   5.106  15.213   6.753
 8922POPC   C3A50549   5.110  15.175   7.053
 8922POPC   C4A50550   5.097  15.145   7.353
 8922POPC   C1B50551   5.380  15.162   6.453
 8922POPC   C2B50552   5.380  15.211   6.753
 8922POPC   C3B50553   5.319  15.222   7.053
 8922POPC   C4B50554   5.389  15.154   7.353
 8923POPC   NC350555  36.089   2.731   5.553
 8923POPC   PO450556  36.169   2.766   5.853
 8923POPC   GL150557  36.147   2.778   6.153
 8923POPC   GL250558  36.205   2.904   6.153
 8923POPC   C1A50559  36.105   2.782   6.453
 8923POPC   D2A50560  36.167   2.766   6.753
 8923POPC   C3A50561  36.175   2.716   7.053
 8923POPC   C4A50562  36.140   2.778   7.353
 8923POPC   C1B50563  36.261   3.034   6.453
 8923POPC   C2B50564  36.173   2.985   6.753
 8923POPC   C3B50565  36.251   2.966   7.053
 8923POPC   C4B50566  36.259   3.013   7.353
 8924POPC   NC350567  30.702  40.826   5.553
 8924POPC   PO450568  30.685  40.830   5.853
 8924POPC   GL150569  30.659  40.803   6.153
 8924POPC   GL250570  30.550  40.797   6.153
 8924POPC   C1A50571  30.649  40.832   6.453
 8924POPC   D2A50572  30.680  40.796   6.753
 8924POPC   C3A50573  30.724  40.818   7.053
 8924POPC   C4A50574  30.743  40.784   7.353
 8924POPC   C1B50575  30.462  40.875   6.453
 8924POPC   C2B50576  30.456  40.906   6.753
 8924POPC   C3B50577  30.500  40.898   7.053
 8924POPC   C4B50578  30.430  40.906   7.353
 8925POPC   NC350579  27.637  24.461   5.553
 8925POPC   PO450580  27.620  24.454   5.853
 8925POPC   GL150581  27.617  24.457   6.153
 8925POPC   GL250582  27.672  24.487   6.153
 8925POPC   C1A50583  27.593  24.513   6.453
 8925POPC   D2A50584  27.560  24.514   6.753
 8925POPC   C3A50585  27.640  24.495   7.053
 8925POPC   C4A50586  27.568  24.455   7.353
 8925POPC   C1B50587  27.798  24.519   6.453
 8925POPC   C2B50588  27.830  24.543   6.753
 8925POPC   C3B50589  27.837  24.530   7.053
 8925POPC   C4B50590  27.790  24.531   7.353
 8926POPC   NC350591  36.146   6.652   5.553
 8926POPC   PO450592  36.116   6.627   5.853
 8926POPC   GL150593  36.104   6.656   6.153
 8926POPC   GL250594  36.271   6.651   6.153
 8926POPC   C1A50595  36.137   6.677   6.453
 8926POPC   D2A50596  36.081   6.658   6.753
 8926POPC   C3A50597  36.147   6.668   7.053
 8926POPC   C4A50598  36.104   6.612   7.353
 8926POPC   C1B50599  36.382   6.663   6.453
 8926POPC   C2B50600  36.350   6.658   6.753
 8926POPC   C3B50601  36.336   6.704   7.053
 8926POPC   C4B50602  36.406   6.714   7.353
 8927POPC   NC350603   2.782   9.010   5.553
 8927POPC   PO450604   2.731   9.009   5.853
 8927POPC   GL150605   2.786   8.944   6.153
 8927POPC   GL250606   2.749   8.865   6.153
 8927POPC   C1A50607   2.778   8.982   6.453
 8927POPC   D2A50608   2.752   8.952   6.753
 8927POPC   C3A50609   2.808   8.983   7.053
 8927POPC   C4A50610   2.751   8.984   7.353
 8927POPC   C1B50611   2.731   8.741   6.453
 8927POPC   C2B50612   2.710   8.772   6.753
 8927POPC   C3B50613   2.677   8.739   7.053
 8927POPC   C4B50614   2.748   8.713   7.353
 8928POPC   NC350615  20.652  24.532   5.553
 8928POPC   PO450616  20.583  24.498   5.853
 8928POPC   GL150617  20.628  24.518   6.153
 8928POPC   GL250618  20.608  24.604   6.153
 8928POPC   C1A50619  20.627  24.534   6.453
 8928POPC   D2A50620  20.609  24.512   6.753
 8928POPC   C3A50621  20.609  24.474   7.053
 8928POPC   C4A50622  20.635  24.491   7.353
 8928POPC   C1B50623  20.577  24.765   6.453
 8928POPC   C2B50624  20.657  24.701   6.753
 8928POPC   C3B50625  20.568  24.776   7.053
 8928POPC   C4B50626  20.615  24.753   7.353
 8929POPC   NC350627   6.688  43.160   5.553
 8929POPC   PO450628   6.641  43.110   5.853
 8929POPC   GL150629   6.638  43.093   6.153
 8929POPC   GL250630   6.565  43.021   6.153
 8929POPC   C1A50631   6.656  43.149   6.453
 8929POPC   D2A50632   6.633  43.119   6.753
 8929POPC   C3A50633   6.597  43.079   7.053
 8929POPC   C4A50634   6.626  43.146   7.353
 8929POPC   C1B50635   6.533  42.893   6.453
 8929POPC   C2B50636   6.566  42.905   6.753
 8929POPC   C3B50637   6.518  42.913   7.053
 8929POPC   C4B50638   6.537  42.918   7.353
 8930POPC   NC350639  32.215  38.499   5.553
 8930POPC   PO450640  32.292  38.410   5.853
 8930POPC   GL150641  32.264  38.485   6.153
 8930POPC   GL250642  32.348  38.359   6.153
 8930POPC   C1A50643  32.271  38.449   6.453
 8930POPC   D2A50644  32.278  38.428   6.753
 8930POPC   C3A50645  32.206  38.476   7.053
 8930POPC   C4A50646  32.244  38.449   7.353
 8930POPC   C1B50647  32.400  38.294   6.453
 8930POPC   C2B50648  32.407  38.293   6.753
 8930POPC   C3B50649  32.437  38.234   7.053
 8930POPC   C4B50650  32.434  38.298   7.353
 8931POPC   NC350651  34.534  33.072   5.553
 8931POPC   PO450652  34.625  33.065   5.853
 8931POPC   GL150653  34.551  33.000   6.153
 8931POPC   GL250654  34.676  32.907   6.153
 8931POPC   C1A50655  34.590  33.046   6.453
 8931POPC   D2A50656  34.563  33.036   6.753
 8931POPC   C3A50657  34.606  33.027   7.053
 8931POPC   C4A50658  34.616  32.980   7.353
 8931POPC   C1B50659  34.718  32.897   6.453
 8931POPC   C2B50660  34.745  32.896   6.753
 8931POPC   C3B50661  34.794  32.865   7.053
 8931POPC   C4B50662  34.751  32.832   7.353
 8932POPC   NC350663  13.666   7.416   5.553
 8932POPC   PO450664  13.634   7.415   5.853
 8932POPC   GL150665  13.671   7.405   6.153
 8932POPC   GL250666  13.773   7.399   6.153
 8932POPC   C1A50667  13.599   7.451   6.453
 8932POPC   D2A50668  13.653   7.391   6.753
 8932POPC   C3A50669  13.667   7.421   7.053
 8932POPC   C4A50670  13.622   7.465   7.353
 8932POPC   C1B50671  13.908   7.429   6.453
 8932POPC   C2B50672  13.894   7.457   6.753
 8932POPC   C3B50673  13.873   7.385   7.053
 8932POPC   C4B50674  13.924   7.426   7.353
 8933POPC   NC350675  42.290  19.090   5.553
 8933POPC   PO450676  42.333  19.024   5.853
 8933POPC   GL150677  42.327  19.080   6.153
 8933POPC   GL250678  42.496  19.116   6.153
 8933POPC   C1A50679  42.302  19.060   6.453
 8933POPC   D2A50680  42.340  19.062   6.753
 8933POPC   C3A50681  42.331  19.076   7.053
 8933POPC   C4A50682  42.333  19.011   7.353
 8933POPC   C1B50683  42.564  19.048   6.453
 8933POPC   C2B50684  42.627  19.079   6.753
 8933POPC   C3B50685  42.616  19.111   7.053
 8933POPC   C4B50686  42.549  19.120   7.353
 8934POPC   NC350687   6.652  28.326   5.553
 8934POPC   PO450688   6.653  28.324   5.853
 8934POPC   GL150689   6.629  28.368   6.153
 8934POPC   GL250690   6.516  28.444   6.153
 8934POPC   C1A50691   6.662  28.388   6.453
 8934POPC   D2A50692   6.645  28.414   6.753
 8934POPC   C3A50693   6.626  28.359   7.053
 8934POPC   C4A50694   6.608  28.372   7.353
 8934POPC   C1B50695   6.434  28.561   6.453
 8934POPC   C2B50696   6.468  28.521   6.753
 8934POPC   C3B50697   6.481  28.535   7.053
 8934POPC   C4B50698   6.495  28.552   7.353
 8935POPC   NC350699  24.467  20.633   5.553
 8935POPC   PO450700  24.532  20.639   5.853
 8935POPC   GL150701  24.461  20.576   6.153
 8935POPC   GL250702  24.379  20.690   6.153
 8935POPC   C1A50703  24.504  20.608   6.453
 8935POPC   D2A50704  24.529  20.571   6.753
 8935POPC   C3A50705  24.491  20.643   7.053
 8935POPC   C4A50706  24.444  20.637   7.353
 8935POPC   C1B50707  24.286  20.761   6.453
 8935POPC   C2B50708  24.288  20.729   6.753
 8935POPC   C3B50709  24.280  20.742   7.053
 8935POPC   C4B50710  24.334  20.780   7.353
 8936POPC   NC350711  28.352  25.301   5.553
 8936POPC   PO450712  28.392  25.264   5.853
 8936POPC   GL150713  28.345  25.290   6.153
 8936POPC   GL250714  28.487  25.308   6.153
 8936POPC   C1A50715  28.378  25.281   6.453
 8936POPC   D2A50716  28.342  25.272   6.753
 8936POPC   C3A50717  28.392  25.250   7.053
 8936POPC   C4A50718  28.343  25.231   7.353
 8936POPC   C1B50719  28.594  25.431   6.453
 8936POPC   C2B50720  28.599  25.447   6.753
 8936POPC   C3B50721  28.606  25.429   7.053
 8936POPC   C4B50722  28.563  25.365   7.353
 8937POPC   NC350723   2.800  33.791   5.553
 8937POPC   PO450724   2.764  33.845   5.853
 8937POPC   GL150725   2.788  33.813   6.153
 8937POPC   GL250726   2.636  33.758   6.153
 8937POPC   C1A50727   2.807  33.842   6.453
 8937POPC   D2A50728   2.717  33.778   6.753
 8937POPC   C3A50729   2.762  33.791   7.053
 8937POPC   C4A50730   2.790  33.805   7.353
 8937POPC   C1B50731   2.546  33.760   6.453
 8937POPC   C2B50732   2.552  33.803   6.753
 8937POPC   C3B50733   2.481  33.783   7.053
 8937POPC   C4B50734   2.544  33.739   7.353
 8938POPC   NC350735   1.170  15.913   5.553
 8938POPC   PO450736   1.187  16.005   5.853
 8938POPC   GL150737   1.242  15.949   6.153
 8938POPC   GL250738   1.090  15.937   6.153
 8938POPC   C1A50739   1.194  15.905   6.453
 8938POPC   D2A50740   1.203  15.908   6.753
 8938POPC   C3A50741   1.201  15.995   7.053
 8938POPC   C4A50742   1.250  15.941   7.353
 8938POPC   C1B50743   0.967  15.873   6.453
 8938POPC   C2B50744   0.972  15.874   6.753
 8938POPC   C3B50745   0.999  15.872   7.053
 8938POPC   C4B50746   0.953  15.906   7.353
 8939POPC   NC350747  18.304  36.948   5.553
 8939POPC   PO450748  18.329  36.934   5.853
 8939POPC   GL150749  18.310  36.883   6.153
 8939POPC   GL250750  18.391  36.870   6.153
 8939POPC   C1A50751  18.236  36.856   6.453
 8939POPC   D2A50752  18.319  36.941   6.753
 8939POPC   C3A50753  18.269  36.891   7.053
 8939POPC   C4A50754  18.327  36.883   7.353
 8939POPC   C1B50755  18.536  36.920   6.453
 8939POPC   C2B50756  18.535  36.866   6.753
 8939POPC   C3B50757  18.548  36.947   7.053
 8939POPC   C4B50758  18.529  36.898   7.353
 8940POPC   NC350759   3.492  42.312   5.553
 8940POPC   PO450760   3.567  42.306   5.853
 8940POPC   GL150761   3.585  42.374   6.153
 8940POPC   GL250762   3.427  42.239   6.153
 8940POPC   C1A50763   3.539  42.363   6.453
 8940POPC   D2A50764   3.516  42.316   6.753
 8940POPC   C3A50765   3.495  42.384   7.053
 8940POPC   C4A50766   3.510  42.356   7.353
 8940POPC   C1B50767   3.363  42.221   6.453
 8940POPC   C2B50768   3.361  42.231   6.753
 8940POPC   C3B50769   3.341  42.192   7.053
 8940POPC   C4B50770   3.282  42.253   7.353
 8941POPC   NC350771  27.565  18.286   5.553
 8941POPC   PO450772  27.622  18.306   5.853
 8941POPC   GL150773  27.568  18.272   6.153
 8941POPC   GL250774  27.651  18.409   6.153
 8941POPC   C1A50775  27.605  18.290   6.453
 8941POPC   D2A50776  27.552  18.240   6.753
 8941POPC   C3A50777  27.634  18.235   7.053
 8941POPC   C4A50778  27.573  18.308   7.353
 8941POPC   C1B50779  27.667  18.485   6.453
 8941POPC   C2B50780  27.656  18.510   6.753
 8941POPC   C3B50781  27.654  18.556   7.053
 8941POPC   C4B50782  27.597  18.568   7.353
 8942POPC   NC350783  14.441  12.117   5.553
 8942POPC   PO450784  14.400  12.117   5.853
 8942POPC   GL150785  14.394  12.090   6.153
 8942POPC   GL250786  14.374  12.199   6.153
 8942POPC   C1A50787  14.402  12.066   6.453
 8942POPC   D2A50788  14.400  12.112   6.753
 8942POPC   C3A50789  14.387  12.110   7.053
 8942POPC   C4A50790  14.427  12.054   7.353
 8942POPC   C1B50791  14.348  12.310   6.453
 8942POPC   C2B50792  14.336  12.336   6.753
 8942POPC   C3B50793  14.384  12.359   7.053
 8942POPC   C4B50794  14.362  12.305   7.353
 8943POPC   NC350795  38.452  29.109   5.553
 8943POPC   PO450796  38.478  29.120   5.853
 8943POPC   GL150797  38.447  29.136   6.153
 8943POPC   GL250798  38.511  29.070   6.153
 8943POPC   C1A50799  38.467  29.123   6.453
 8943POPC   D2A50800  38.482  29.145   6.753
 8943POPC   C3A50801  38.467  29.100   7.053
 8943POPC   C4A50802  38.449  29.194   7.353
 8943POPC   C1B50803  38.501  28.911   6.453
 8943POPC   C2B50804  38.494  28.931   6.753
 8943POPC   C3B50805  38.542  28.928   7.053
 8943POPC   C4B50806  38.498  28.879   7.353
 8944POPC   NC350807  11.312   4.336   5.553
 8944POPC   PO450808  11.268   4.328   5.853
 8944POPC   GL150809  11.290   4.298   6.153
 8944POPC   GL250810  11.218   4.428   6.153
 8944POPC   C1A50811  11.336   4.278   6.453
 8944POPC   D2A50812  11.274   4.309   6.753
 8944POPC   C3A50813  11.287   4.277   7.053
 8944POPC   C4A50814  11.286   4.326   7.353
 8944POPC   C1B50815  11.059   4.439   6.453
 8944POPC   C2B50816  11.070   4.400   6.753
 8944POPC   C3B50817  11.040   4.410   7.053
 8944POPC   C4B50818  11.067   4.479   7.353
 8945POPC   NC350819  26.078  36.128   5.553
 8945POPC   PO450820  26.027  36.103   5.853
 8945POPC   GL150821  26.082  36.133   6.153
 8945POPC   GL250822  26.090  35.989   6.153
 8945POPC   C1A50823  26.029  36.146   6.453
 8945POPC   D2A50824  26.013  36.111   6.753
 8945POPC   C3A50825  26.015  36.155   7.053
 8945POPC   C4A50826  26.040  36.131   7.353
 8945POPC   C1B50827  26.170  35.970   6.453
 8945POPC   C2B50828  26.152  35.951   6.753
 8945POPC   C3B50829  26.209  35.964   7.053
 8945POPC   C4B50830  26.226  35.899   7.353
 8946POPC   NC350831  34.596  12.842   5.553
 8946POPC   PO450832  34.574  12.880   5.853
 8946POPC   GL150833  34.624  12.879   6.153
 8946POPC   GL250834  34.409  12.823   6.153
 8946POPC   C1A50835  34.528  12.812   6.453
 8946POPC   D2A50836  34.587  12.841   6.753
 8946POPC   C3A50837  34.606  12.843   7.053
 8946POPC   C4A50838  34.581  12.864   7.353
 8946POPC   C1B50839  34.349  12.779   6.453
 8946POPC   C2B50840  34.308  12.793   6.753
 8946POPC   C3B50841  34.299  12.826   7.053
 8946POPC   C4B50842  34.360  12.761   7.353
 8947POPC   NC350843  41.528  39.225   5.553
 8947POPC   PO450844  41.511  39.216   5.853
 8947POPC   GL150845  41.602  39.221   6.153
 8947POPC   GL250846  41.632  39.116   6.153
 8947POPC   C1A50847  41.563  39.205   6.453
 8947POPC   D2A50848  41.596  39.244   6.753
 8947POPC   C3A50849  41.573  39.254   7.053
 8947POPC   C4A50850  41.522  39.189   7.353
 8947POPC   C1B50851  41.726  39.103   6.453
 8947POPC   C2B50852  41.739  39.050   6.753
 8947POPC   C3B50853  41.725  39.047   7.053
 8947POPC   C4B50854  41.783  39.072   7.353
 8948POPC   NC350855   3.569  16.715   5.553
 8948POPC   PO450856   3.500  16.745   5.853
 8948POPC   GL150857   3.560  16.751   6.153
 8948POPC   GL250858   3.447  16.746   6.153
 8948POPC   C1A50859   3.511  16.778   6.453
 8948POPC   D2A50860   3.493  16.761   6.753
 8948POPC   C3A50861   3.585  16.739   7.053
 8948POPC   C4A50862   3.497  16.695   7.353
 8948POPC   C1B50863   3.353  16.879   6.453
 8948POPC   C2B50864   3.302  16.872   6.753
 8948POPC   C3B50865   3.306  16.867   7.053
 8948POPC   C4B50866   3.309  16.837   7.353
 8949POPC   NC350867  33.072  43.137   5.553
 8949POPC   PO450868  33.051  43.148   5.853
 8949POPC   GL150869  32.992  43.137   6.153
 8949POPC   GL250870  32.970  43.246   6.153
 8949POPC   C1A50871  32.988  43.079   6.453
 8949POPC   D2A50872  33.027  43.066   6.753
 8949POPC   C3A50873  32.986  43.102   7.053
 8949POPC   C4A50874  33.057  43.062   7.353
 8949POPC   C1B50875  32.981  43.369   6.453
 8949POPC   C2B50876  32.916  43.313   6.753
 8949POPC   C3B50877  32.986  43.317   7.053
 8949POPC   C4B50878  32.892  43.383   7.353
 8950POPC   NC350879  40.043  19.069   5.553
 8950POPC   PO450880  40.017  19.073   5.853
 8950POPC   GL150881  40.003  19.068   6.153
 8950POPC   GL250882  40.044  19.139   6.153
 8950POPC   C1A50883  40.030  19.021   6.453
 8950POPC   D2A50884  39.974  19.081   6.753
 8950POPC   C3A50885  40.020  19.018   7.053
 8950POPC   C4A50886  40.002  19.092   7.353
 8950POPC   C1B50887  40.103  19.282   6.453
 8950POPC   C2B50888  40.146  19.246   6.753
 8950POPC   C3B50889  40.186  19.243   7.053
 8950POPC   C4B50890  40.160  19.239   7.353
 8951POPC   NC350891   0.476  43.142   5.553
 8951POPC   PO450892   0.403  43.155   5.853
 8951POPC   GL150893   0.479  43.097   6.153
 8951POPC   GL250894   0.469  43.204   6.153
 8951POPC   C1A50895   0.445  43.146   6.453
 8951POPC   D2A50896   0.426  43.088   6.753
 8951POPC   C3A50897   0.446  43.107   7.053
 8951POPC   C4A50898   0.460  43.126   7.353
 8951POPC   C1B50899   0.490  43.350   6.453
 8951POPC   C2B50900   0.408  43.348   6.753
 8951POPC   C3B50901   0.438  43.359   7.053
 8951POPC   C4B50902   0.464  43.358   7.353
 8952POPC   NC350903   7.414  29.922   5.553
 8952POPC   PO450904   7.401  29.965   5.853
 8952POPC   GL150905   7.379  29.952   6.153
 8952POPC   GL250906   7.544  29.982   6.153
 8952POPC   C1A50907   7.445  29.904   6.453
 8952POPC   D2A50908   7.466  29.947   6.753
 8952POPC   C3A50909   7.377  29.920   7.053
 8952POPC   C4A50910   7.457  29.925   7.353
 8952POPC   C1B50911   7.703  30.038   6.453
 8952POPC   C2B50912   7.634  29.966   6.753
 8952POPC   C3B50913   7.704  29.994   7.053
 8952POPC   C4B50914   7.616  29.961   7.353
 8953POPC   NC350915  12.890  23.692   5.553
 8953POPC   PO450916  12.890  23.673   5.853
 8953POPC   GL150917  12.869  23.720   6.153
 8953POPC   GL250918  12.809  23.880   6.153
 8953POPC   C1A50919  12.857  23.682   6.453
 8953POPC   D2A50920  12.831  23.669   6.753
 8953POPC   C3A50921  12.856  23.700   7.053
 8953POPC   C4A50922  12.874  23.737   7.353
 8953POPC   C1B50923  12.821  23.915   6.453
 8953POPC   C2B50924  12.785  23.904   6.753
 8953POPC   C3B50925  12.761  23.913   7.053
 8953POPC   C4B50926  12.816  23.942   7.353
 8954POPC   NC350927  25.282  40.051   5.553
 8954POPC   PO450928  25.257  40.029   5.853
 8954POPC   GL150929  25.298  40.015   6.153
 8954POPC   GL250930  25.212  40.145   6.153
 8954POPC   C1A50931  25.230  40.048   6.453
 8954POPC   D2A50932  25.295  40.052   6.753
 8954POPC   C3A50933  25.264  40.049   7.053
 8954POPC   C4A50934  25.303  39.959   7.353
 8954POPC   C1B50935  25.144  40.281   6.453
 8954POPC   C2B50936  25.227  40.244   6.753
 8954POPC   C3B50937  25.131  40.278   7.053
 8954POPC   C4B50938  25.172  40.270   7.353
 8955POPC   NC350939  14.414  26.859   5.553
 8955POPC   PO450940  14.374  26.769   5.853
 8955POPC   GL150941  14.363  26.770   6.153
 8955POPC   GL250942  14.339  26.731   6.153
 8955POPC   C1A50943  14.354  26.847   6.453
 8955POPC   D2A50944  14.360  26.804   6.753
 8955POPC   C3A50945  14.433  26.848   7.053
 8955POPC   C4A50946  14.360  26.813   7.353
 8955POPC   C1B50947  14.220  26.655   6.453
 8955POPC   C2B50948  14.264  26.653   6.753
 8955POPC   C3B50949  14.259  26.582   7.053
 8955POPC   C4B50950  14.246  26.560   7.353
 8956POPC   NC350951  15.960   9.730   5.553
 8956POPC   PO450952  15.952   9.753   5.853
 8956POPC   GL150953  15.967   9.778   6.153
 8956POPC   GL250954  16.119   9.819   6.153
 8956POPC   C1A50955  15.973   9.756   6.453
 8956POPC   D2A50956  15.942   9.709   6.753
 8956POPC   C3A50957  15.951   9.767   7.053
 8956POPC   C4A50958  15.976   9.734   7.353
 8956POPC   C1B50959  16.195   9.747   6.453
 8956POPC   C2B50960  16.231   9.794   6.753
 8956POPC   C3B50961  16.191   9.786   7.053
 8956POPC   C4B50962  16.251   9.814   7.353
 8957POPC   NC350963  41.517  36.079   5.553
 8957POPC   PO450964  41.589  36.133   5.853
 8957POPC   GL150965  41.560  36.111   6.153
 8957POPC   GL250966  41.460  36.073   6.153
 8957POPC   C1A50967  41.580  36.082   6.453
 8957POPC   D2A50968  41.536  36.155   6.753
 8957POPC   C3A50969  41.573  36.081   7.053
 8957POPC   C4A50970  41.552  36.083   7.353
 8957POPC   C1B50971  41.410  35.981   6.453
 8957POPC   C2B50972  41.409  35.951   6.753
 8957POPC   C3B50973  41.383  36.007   7.053
 8957POPC   C4B50974  41.329  35.916   7.353
 8958POPC   NC350975  12.855   8.938   5.553
 8958POPC   PO450976  12.880   8.958   5.853
 8958POPC   GL150977  12.827   9.008   6.153
 8958POPC   GL250978  12.732   8.884   6.153
 8958POPC   C1A50979  12.844   9.011   6.453
 8958POPC   D2A50980  12.870   8.997   6.753
 8958POPC   C3A50981  12.853   8.930   7.053
 8958POPC   C4A50982  12.861   8.931   7.353
 8958POPC   C1B50983  12.671   8.758   6.453
 8958POPC   C2B50984  12.657   8.772   6.753
 8958POPC   C3B50985  12.659   8.788   7.053
 8958POPC   C4B50986  12.707   8.834   7.353
 8959POPC   NC350987  18.327   6.645   5.553
 8959POPC   PO450988  18.265   6.609   5.853
 8959POPC   GL150989  18.287   6.616   6.153
 8959POPC   GL250990  18.361   6.746   6.153
 8959POPC   C1A50991  18.273   6.605   6.453
 8959POPC   D2A50992  18.247   6.683   6.753
 8959POPC   C3A50993  18.256   6.639   7.053
 8959POPC   C4A50994  18.328   6.619   7.353
 8959POPC   C1B50995  18.502   6.804   6.453
 8959POPC   C2B50996  18.495   6.831   6.753
 8959POPC   C3B50997  18.438   6.870   7.053
 8959POPC   C4B50998  18.498   6.820   7.353
 8960POPC   NC350999  41.585  17.478   5.553
 8960POPC   PO451000  41.537  17.484   5.853
 8960POPC   GL151001  41.544  17.548   6.153
 8960POPC   GL251002  41.590  17.408   6.153
 8960POPC   C1A51003  41.532  17.463   6.453
 8960POPC   D2A51004  41.567  17.503   6.753
 8960POPC   C3A51005  41.564  17.479   7.053
 8960POPC   C4A51006  41.584  17.514   7.353
 8960POPC   C1B51007  41.732  17.289   6.453
 8960POPC   C2B51008  41.698  17.312   6.753
 8960POPC   C3B51009  41.738  17.311   7.053
 8960POPC   C4B51010  41.715  17.326   7.353
 8961POPC   NC351011  30.719   2.004   5.553
 8961POPC   PO451012  30.669   1.987   5.853
 8961POPC   GL151013  30.740   2.011   6.153
 8961POPC   GL251014  30.828   1.990   6.153
 8961POPC   C1A51015  30.665   1.953   6.453
 8961POPC   D2A51016  30.728   1.960   6.753
 8961POPC   C3A51017  30.693   1.951   7.053
 8961POPC   C4A51018  30.686   1.989   7.353
 8961POPC   C1B51019  30.941   2.064   6.453
 8961POPC   C2B51020  30.937   2.036   6.753
 8961POPC   C3B51021  30.932   2.069   7.053
 8961POPC   C4B51022  30.957   2.047   7.353
 8962POPC   NC351023  23.717  26.814   5.553
 8962POPC   PO451024  23.678  26.823   5.853
 8962POPC   GL151025  23.674  26.769   6.153
 8962POPC   GL251026  23.698  26.666   6.153
 8962POPC   C1A51027  23.741  26.818   6.453
 8962POPC   D2A51028  23.749  26.846   6.753
 8962POPC   C3A51029  23.674  26.775   7.053
 8962POPC   C4A51030  23.723  26.794   7.353
 8962POPC   C1B51031  23.686  26.611   6.453
 8962POPC   C2B51032  23.697  26.544   6.753
 8962POPC   C3B51033  23.724  26.548   7.053
 8962POPC   C4B51034  23.683  26.560   7.353
 8963POPC   NC351035  29.950  29.157   5.553
 8963POPC   PO451036  29.942  29.178   5.853
 8963POPC   GL151037  29.927  29.143   6.153
 8963POPC   GL251038  29.850  29.275   6.153
 8963POPC   C1A51039  29.940  29.130   6.453
 8963POPC   D2A51040  29.943  29.140   6.753
 8963POPC   C3A51041  29.929  29.095   7.053
 8963POPC   C4A51042  29.959  29.183   7.353
 8963POPC   C1B51043  29.850  29.410   6.453
 8963POPC   C2B51044  29.786  29.389   6.753
 8963POPC   C3B51045  29.848  29.370   7.053
 8963POPC   C4B51046  29.836  29.362   7.353
 8964POPC   NC351047   4.278  40.788   5.553
 8964POPC   PO451048   4.308  40.800   5.853
 8964POPC   GL151049   4.315  40.799   6.153
 8964POPC   GL251050   4.235  40.763   6.153
 8964POPC   C1A51051   4.310  40.760   6.453
 8964POPC   D2A51052   4.331  40.737   6.753
 8964POPC   C3A51053   4.305  40.799   7.053
 8964POPC   C4A51054   4.317  40.820   7.353
 8964POPC   C1B51055   4.038  40.697   6.453
 8964POPC   C2B51056   4.053  40.657   6.753
 8964POPC   C3B51057   4.067  40.731   7.053
 8964POPC   C4B51058   4.123  40.704   7.353
 8965POPC   NC351059  11.272  12.047   5.553
 8965POPC   PO451060  11.269  12.041   5.853
 8965POPC   GL151061  11.292  12.071   6.153
 8965POPC   GL251062  11.265  12.000   6.153
 8965POPC   C1A51063  11.262  12.082   6.453
 8965POPC   D2A51064  11.309  12.080   6.753
 8965POPC   C3A51065  11.326  12.040   7.053
 8965POPC   C4A51066  11.307  12.103   7.353
 8965POPC   C1B51067  11.344  11.827   6.453
 8965POPC   C2B51068  11.325  11.795   6.753
 8965POPC   C3B51069  11.343  11.855   7.053
 8965POPC   C4B51070  11.325  11.844   7.353
 8966POPC   NC351071   2.740   1.194   5.553
 8966POPC   PO451072   2.750   1.248   5.853
 8966POPC   GL151073   2.810   1.206   6.153
 8966POPC   GL251074   2.841   1.326   6.153
 8966POPC   C1A51075   2.745   1.226   6.453
 8966POPC   D2A51076   2.719   1.180   6.753
 8966POPC   C3A51077   2.760   1.243   7.053
 8966POPC   C4A51078   2.776   1.256   7.353
 8966POPC   C1B51079   2.866   1.404   6.453
 8966POPC   C2B51080   2.933   1.443   6.753
 8966POPC   C3B51081   2.894   1.449   7.053
 8966POPC   C4B51082   2.865   1.477   7.353
 8967POPC   NC351083   9.016  43.864   5.553
 8967POPC   PO451084   8.992  43.893   5.853
 8967POPC   GL151085   8.992  43.936   6.153
 8967POPC   GL251086   9.142  43.849   6.153
 8967POPC   C1A51087   8.964  43.918   6.453
 8967POPC   D2A51088   8.966  43.865   6.753
 8967POPC   C3A51089   9.002  43.899   7.053
 8967POPC   C4A51090   8.926  43.854   7.353
 8967POPC   C1B51091   9.193  43.884   6.453
 8967POPC   C2B51092   9.207  43.896   6.753
 8967POPC   C3B51093   9.245  43.887   7.053
 8967POPC   C4B51094   9.190  43.860   7.353
 8968POPC   NC351095  26.834  23.720   5.553
 8968POPC   PO451096  26.802  23.691   5.853
 8968POPC   GL151097  26.783  23.695   6.153
 8968POPC   GL251098  26.818  23.798   6.153
 8968POPC   C1A51099  26.796  23.688   6.453
 8968POPC   D2A51100  26.798  23.735   6.753
 8968POPC   C3A51101  26.852  23.763   7.053
 8968POPC   C4A51102  26.861  23.730   7.353
 8968POPC   C1B51103  26.849  23.913   6.453
 8968POPC   C2B51104  26.787  24.012   6.753
 8968POPC   C3B51105  26.825  24.011   7.053
 8968POPC   C4B51106  26.877  23.973   7.353
 8969POPC   NC351107  29.942  30.686   5.553
 8969POPC   PO451108  29.879  30.745   5.853
 8969POPC   GL151109  29.914  30.716   6.153
 8969POPC   GL251110  29.917  30.586   6.153
 8969POPC   C1A51111  29.951  30.661   6.453
 8969POPC   D2A51112  29.937  30.742   6.753
 8969POPC   C3A51113  29.893  30.687   7.053
 8969POPC   C4A51114  29.945  30.660   7.353
 8969POPC   C1B51115  29.848  30.407   6.453
 8969POPC   C2B51116  29.853  30.463   6.753
 8969POPC   C3B51117  29.833  30.460   7.053
 8969POPC   C4B51118  29.898  30.479   7.353
 8970POPC   NC351119  10.547  42.324   5.553
 8970POPC   PO451120  10.559  42.349   5.853
 8970POPC   GL151121  10.572  42.359   6.153
 8970POPC   GL251122  10.602  42.445   6.153
 8970POPC   C1A51123  10.520  42.292   6.453
 8970POPC   D2A51124  10.525  42.345   6.753
 8970POPC   C3A51125  10.503  42.307   7.053
 8970POPC   C4A51126  10.516  42.333   7.353
 8970POPC   C1B51127  10.728  42.421   6.453
 8970POPC   C2B51128  10.736  42.497   6.753
 8970POPC   C3B51129  10.698  42.426   7.053
 8970POPC   C4B51130  10.765  42.484   7.353
 8971POPC   NC351131  10.540  12.028   5.553
 8971POPC   PO451132  10.495  12.056   5.853
 8971POPC   GL151133  10.476  12.119   6.153
 8971POPC   GL251134  10.417  12.075   6.153
 8971POPC   C1A51135  10.549  12.029   6.453
 8971POPC   D2A51136  10.538  12.121   6.753
 8971POPC   C3A51137  10.501  12.105   7.053
 8971POPC   C4A51138  10.485  12.066   7.353
 8971POPC   C1B51139  10.240  12.135   6.453
 8971POPC   C2B51140  10.277  12.161   6.753
 8971POPC   C3B51141  10.246  12.143   7.053
 8971POPC   C4B51142  10.260  12.179   7.353
 8972POPC   NC351143  22.926   3.572   5.553
 8972POPC   PO451144  22.892   3.569   5.853
 8972POPC   GL151145  22.974   3.550   6.153
 8972POPC   GL251146  22.861   3.432   6.153
 8972POPC   C1A51147  22.973   3.590   6.453
 8972POPC   D2A51148  22.979   3.509   6.753
 8972POPC   C3A51149  22.958   3.514   7.053
 8972POPC   C4A51150  22.918   3.499   7.353
 8972POPC   C1B51151  22.817   3.385   6.453
 8972POPC   C2B51152  22.775   3.363   6.753
 8972POPC   C3B51153  22.819   3.330   7.053
 8972POPC   C4B51154  22.833   3.347   7.353
 8973POPC   NC351155  33.002  33.805   5.553
 8973POPC   PO451156  33.073  33.848   5.853
 8973POPC   GL151157  33.000  33.778   6.153
 8973POPC   GL251158  33.055  33.965   6.153
 8973POPC   C1A51159  33.026  33.773   6.453
 8973POPC   D2A51160  32.990  33.838   6.753
 8973POPC   C3A51161  33.009  33.760   7.053
 8973POPC   C4A51162  33.067  33.833   7.353
 8973POPC   C1B51163  33.034  34.045   6.453
 8973POPC   C2B51164  33.006  34.011   6.753
 8973POPC   C3B51165  33.081  34.013   7.053
 8973POPC   C4B51166  33.000  34.056   7.353
 8974POPC   NC351167   0.467  40.005   5.553
 8974POPC   PO451168   0.456  40.004   5.853
 8974POPC   GL151169   0.473  39.961   6.153
 8974POPC   GL251170   0.368  39.919   6.153
 8974POPC   C1A51171   0.449  40.042   6.453
 8974POPC   D2A51172   0.418  39.971   6.753
 8974POPC   C3A51173   0.426  39.979   7.053
 8974POPC   C4A51174   0.409  39.984   7.353
 8974POPC   C1B51175   0.155  39.961   6.453
 8974POPC   C2B51176   0.191  39.962   6.753
 8974POPC   C3B51177   0.154  39.917   7.053
 8974POPC   C4B51178   0.157  39.902   7.353
 8975POPC   NC351179  40.739  20.639   5.553
 8975POPC   PO451180  40.821  20.562   5.853
 8975POPC   GL151181  40.755  20.651   6.153
 8975POPC   GL251182  40.745  20.678   6.153
 8975POPC   C1A51183  40.776  20.603   6.453
 8975POPC   D2A51184  40.773  20.582   6.753
 8975POPC   C3A51185  40.752  20.630   7.053
 8975POPC   C4A51186  40.755  20.618   7.353
 8975POPC   C1B51187  40.574  20.758   6.453
 8975POPC   C2B51188  40.608  20.803   6.753
 8975POPC   C3B51189  40.584  20.766   7.053
 8975POPC   C4B51190  40.595  20.841   7.353
 8976POPC   NC351191  11.255  19.089   5.553
 8976POPC   PO451192  11.312  19.098   5.853
 8976POPC   GL151193  11.254  19.081   6.153
 8976POPC   GL251194  11.388  19.186   6.153
 8976POPC   C1A51195  11.302  19.027   6.453
 8976POPC   D2A51196  11.348  19.101   6.753
 8976POPC   C3A51197  11.300  19.014   7.053
 8976POPC   C4A51198  11.346  19.073   7.353
 8976POPC   C1B51199  11.445  19.267   6.453
 8976POPC   C2B51200  11.485  19.222   6.753
 8976POPC   C3B51201  11.484  19.249   7.053
 8976POPC   C4B51202  11.474  19.275   7.353
 8977POPC   NC351203  27.598  12.065   5.553
 8977POPC   PO451204  27.625  12.089   5.853
 8977POPC   GL151205  27.599  12.111   6.153
 8977POPC   GL251206  27.526  12.197   6.153
 8977POPC   C1A51207  27.612  12.035   6.453
 8977POPC   D2A51208  27.567  12.030   6.753
 8977POPC   C3A51209  27.549  12.061   7.053
 8977POPC   C4A51210  27.632  12.108   7.353
 8977POPC   C1B51211  27.585  12.346   6.453
 8977POPC   C2B51212  27.566  12.362   6.753
 8977POPC   C3B51213  27.509  12.328   7.053
 8977POPC   C4B51214  27.536  12.360   7.353
 8978POPC   NC351215   2.787   4.305   5.553
 8978POPC   PO451216   2.724   4.363   5.853
 8978POPC   GL151217   2.813   4.366   6.153
 8978POPC   GL251218   2.709   4.430   6.153
 8978POPC   C1A51219   2.805   4.283   6.453
 8978POPC   D2A51220   2.772   4.328   6.753
 8978POPC   C3A51221   2.741   4.319   7.053
 8978POPC   C4A51222   2.719   4.348   7.353
 8978POPC   C1B51223   2.684   4.530   6.453
 8978POPC   C2B51224   2.652   4.542   6.753
 8978POPC   C3B51225   2.673   4.595   7.053
 8978POPC   C4B51226   2.709   4.565   7.353
 8979POPC   NC351227  25.235  36.175   5.553
 8979POPC   PO451228  25.296  36.144   5.853
 8979POPC   GL151229  25.312  36.101   6.153
 8979POPC   GL251230  25.318  36.071   6.153
 8979POPC   C1A51231  25.266  36.174   6.453
 8979POPC   D2A51232  25.216  36.086   6.753
 8979POPC   C3A51233  25.300  36.116   7.053
 8979POPC   C4A51234  25.296  36.161   7.353
 8979POPC   C1B51235  25.485  35.919   6.453
 8979POPC   C2B51236  25.486  35.983   6.753
 8979POPC   C3B51237  25.452  35.991   7.053
 8979POPC   C4B51238  25.495  35.922   7.353
 8980POPC   NC351239   4.311  10.530   5.553
 8980POPC   PO451240   4.308  10.571   5.853
 8980POPC   GL151241   4.362  10.478   6.153
 8980POPC   GL251242   4.331  10.364   6.153
 8980POPC   C1A51243   4.316  10.535   6.453
 8980POPC   D2A51244   4.361  10.547   6.753
 8980POPC   C3A51245   4.349  10.562   7.053
 8980POPC   C4A51246   4.316  10.546   7.353
 8980POPC   C1B51247   4.423  10.258   6.453
 8980POPC   C2B51248   4.430  10.292   6.753
 8980POPC   C3B51249   4.444  10.300   7.053
 8980POPC   C4B51250   4.393  10.302   7.353
 8981POPC   NC351251  15.910  31.447   5.553
 8981POPC   PO451252  15.954  31.464   5.853
 8981POPC   GL151253  15.961  31.477   6.153
 8981POPC   GL251254  16.009  31.627   6.153
 8981POPC   C1A51255  15.955  31.475   6.453
 8981POPC   D2A51256  15.939  31.469   6.753
 8981POPC   C3A51257  16.001  31.504   7.053
 8981POPC   C4A51258  15.952  31.513   7.353
 8981POPC   C1B51259  16.081  31.692   6.453
 8981POPC   C2B51260  16.054  31.678   6.753
 8981POPC   C3B51261  16.055  31.708   7.053
 8981POPC   C4B51262  16.069  31.715   7.353
 8982POPC   NC351263  41.604  34.615   5.553
 8982POPC   PO451264  41.530  34.552   5.853
 8982POPC   GL151265  41.608  34.543   6.153
 8982POPC   GL251266  41.632  34.444   6.153
 8982POPC   C1A51267  41.602  34.622   6.453
 8982POPC   D2A51268  41.565  34.591   6.753
 8982POPC   C3A51269  41.546  34.556   7.053
 8982POPC   C4A51270  41.564  34.570   7.353
 8982POPC   C1B51271  41.694  34.380   6.453
 8982POPC   C2B51272  41.779  34.361   6.753
 8982POPC   C3B51273  41.735  34.372   7.053
 8982POPC   C4B51274  41.691  34.440   7.353
 8983POPC   NC351275   8.957  33.848   5.553
 8983POPC   PO451276   8.973  33.810   5.853
 8983POPC   GL151277   9.011  33.756   6.153
 8983POPC   GL251278   8.963  33.950   6.153
 8983POPC   C1A51279   9.008  33.819   6.453
 8983POPC   D2A51280   8.971  33.787   6.753
 8983POPC   C3A51281   9.007  33.782   7.053
 8983POPC   C4A51282   8.925  33.841   7.353
 8983POPC   C1B51283   9.037  34.062   6.453
 8983POPC   C2B51284   9.011  34.012   6.753
 8983POPC   C3B51285   9.035  34.067   7.053
 8983POPC   C4B51286   9.067  34.046   7.353
 8984POPC   NC351287  13.586  36.904   5.553
 8984POPC   PO451288  13.658  36.856   5.853
 8984POPC   GL151289  13.662  36.892   6.153
 8984POPC   GL251290  13.568  37.055   6.153
 8984POPC   C1A51291  13.654  36.944   6.453
 8984POPC   D2A51292  13.658  36.883   6.753
 8984POPC   C3A51293  13.635  36.937   7.053
 8984POPC   C4A51294  13.578  36.882   7.353
 8984POPC   C1B51295  13.568  37.185   6.453
 8984POPC   C2B51296  13.561  37.180   6.753
 8984POPC   C3B51297  13.554  37.121   7.053
 8984POPC   C4B51298  13.620  37.168   7.353
 8985POPC   NC351299   7.424  22.189   5.553
 8985POPC   PO451300   7.411  22.121   5.853
 8985POPC   GL151301   7.427  22.159   6.153
 8985POPC   GL251302   7.556  22.245   6.153
 8985POPC   C1A51303   7.421  22.181   6.453
 8985POPC   D2A51304   7.412  22.182   6.753
 8985POPC   C3A51305   7.416  22.164   7.053
 8985POPC   C4A51306   7.387  22.133   7.353
 8985POPC   C1B51307   7.678  22.185   6.453
 8985POPC   C2B51308   7.623  22.194   6.753
 8985POPC   C3B51309   7.706  22.220   7.053
 8985POPC   C4B51310   7.653  22.211   7.353
 8986POPC   NC351311   5.859  16.768   5.553
 8986POPC   PO451312   5.845  16.753   5.853
 8986POPC   GL151313   5.912  16.759   6.153
 8986POPC   GL251314   5.775  16.777   6.153
 8986POPC   C1A51315   5.867  16.714   6.453
 8986POPC   D2A51316   5.885  16.719   6.753
 8986POPC   C3A51317   5.865  16.737   7.053
 8986POPC   C4A51318   5.884  16.750   7.353
 8986POPC   C1B51319   5.571  16.740   6.453
 8986POPC   C2B51320   5.652  16.739   6.753
 8986POPC   C3B51321   5.595  16.778   7.053
 8986POPC   C4B51322   5.639  16.769   7.353
 8987POPC   NC351323   6.632   5.105   5.553
 8987POPC   PO451324   6.631   5.101   5.853
 8987POPC   GL151325   6.619   5.131   6.153
 8987POPC   GL251326   6.596   5.015   6.153
 8987POPC   C1A51327   6.683   5.071   6.453
 8987POPC   D2A51328   6.602   5.056   6.753
 8987POPC   C3A51329   6.611   5.049   7.053
 8987POPC   C4A51330   6.680   5.100   7.353
 8987POPC   C1B51331   6.492   4.920   6.453
 8987POPC   C2B51332   6.500   4.905   6.753
 8987POPC   C3B51333   6.487   4.871   7.053
 8987POPC   C4B51334   6.514   4.896   7.353
 8988POPC   NC351335  24.506  26.850   5.553
 8988POPC   PO451336  24.464  26.822   5.853
 8988POPC   GL151337  24.458  26.827   6.153
 8988POPC   GL251338  24.386  26.915   6.153
 8988POPC   C1A51339  24.466  26.848   6.453
 8988POPC   D2A51340  24.464  26.805   6.753
 8988POPC   C3A51341  24.466  26.835   7.053
 8988POPC   C4A51342  24.537  26.809   7.353
 8988POPC   C1B51343  24.335  26.996   6.453
 8988POPC   C2B51344  24.341  26.957   6.753
 8988POPC   C3B51345  24.306  27.020   7.053
 8988POPC   C4B51346  24.280  26.946   7.353
 8989POPC   NC351347   8.190  35.343   5.553
 8989POPC   PO451348   8.239  35.348   5.853
 8989POPC   GL151349   8.153  35.358   6.153
 8989POPC   GL251350   8.332  35.334   6.153
 8989POPC   C1A51351   8.201  35.359   6.453
 8989POPC   D2A51352   8.216  35.357   6.753
 8989POPC   C3A51353   8.235  35.381   7.053
 8989POPC   C4A51354   8.236  35.389   7.353
 8989POPC   C1B51355   8.486  35.314   6.453
 8989POPC   C2B51356   8.414  35.299   6.753
 8989POPC   C3B51357   8.427  35.282   7.053
 8989POPC   C4B51358   8.454  35.237   7.353
 8990POPC   NC351359  12.085  43.141   5.553
 8990POPC   PO451360  12.095  43.115   5.853
 8990POPC   GL151361  12.052  43.159   6.153
 8990POPC   GL251362  12.114  43.261   6.153
 8990POPC   C1A51363  12.032  43.064   6.453
 8990POPC   D2A51364  12.089  43.147   6.753
 8990POPC   C3A51365  12.043  43.149   7.053
 8990POPC   C4A51366  12.068  43.140   7.353
 8990POPC   C1B51367  12.032  43.358   6.453
 8990POPC   C2B51368  12.077  43.360   6.753
 8990POPC   C3B51369  12.021  43.344   7.053
 8990POPC   C4B51370  12.010  43.339   7.353
 8991POPC   NC351371  25.229   2.014   5.553
 8991POPC   PO451372  25.229   1.968   5.853
 8991POPC   GL151373  25.237   1.946   6.153
 8991POPC   GL251374  25.188   1.911   6.153
 8991POPC   C1A51375  25.260   2.026   6.453
 8991POPC   D2A51376  25.304   1.973   6.753
 8991POPC   C3A51377  25.225   1.992   7.053
 8991POPC   C4A51378  25.293   2.019   7.353
 8991POPC   C1B51379  25.109   1.759   6.453
 8991POPC   C2B51380  25.126   1.824   6.753
 8991POPC   C3B51381  25.119   1.772   7.053
 8991POPC   C4B51382  25.058   1.797   7.353
 8992POPC   NC351383   0.420   7.470   5.553
 8992POPC   PO451384   0.436   7.403   5.853
 8992POPC   GL151385   0.451   7.373   6.153
 8992POPC   GL251386   0.337   7.322   6.153
 8992POPC   C1A51387   0.393   7.374   6.453
 8992POPC   D2A51388   0.441   7.372   6.753
 8992POPC   C3A51389   0.449   7.442   7.053
 8992POPC   C4A51390   0.472   7.444   7.353
 8992POPC   C1B51391   0.268   7.262   6.453
 8992POPC   C2B51392   0.262   7.237   6.753
 8992POPC   C3B51393   0.341   7.227   7.053
 8992POPC   C4B51394   0.339   7.178   7.353
 8993POPC   NC351395  10.529  25.219   5.553
 8993POPC   PO451396  10.480  25.311   5.853
 8993POPC   GL151397  10.481  25.261   6.153
 8993POPC   GL251398  10.569  25.332   6.153
 8993POPC   C1A51399  10.485  25.265   6.453
 8993POPC   D2A51400  10.516  25.299   6.753
 8993POPC   C3A51401  10.510  25.285   7.053
 8993POPC   C4A51402  10.510  25.282   7.353
 8993POPC   C1B51403  10.724  25.463   6.453
 8993POPC   C2B51404  10.724  25.459   6.753
 8993POPC   C3B51405  10.668  25.476   7.053
 8993POPC   C4B51406  10.723  25.466   7.353
 8994POPC   NC351407  39.245  43.841   5.553
 8994POPC   PO451408  39.236  43.904   5.853
 8994POPC   GL151409  39.221  43.922   6.153
 8994POPC   GL251410  39.145  43.920   6.153
 8994POPC   C1A51411  39.207  43.923   6.453
 8994POPC   D2A51412  39.259  43.923   6.753
 8994POPC   C3A51413  39.239  43.903   7.053
 8994POPC   C4A51414  39.227  43.859   7.353
 8994POPC   C1B51415  38.988  43.863   6.453
 8994POPC   C2B51416  38.996  43.884   6.753
 8994POPC   C3B51417  38.992  43.909   7.053
 8994POPC   C4B51418  38.947  43.840   7.353
 8995POPC   NC351419  15.946  19.788   5.553
 8995POPC   PO451420  15.928  19.866   5.853
 8995POPC   GL151421  15.941  19.850   6.153
 8995POPC   GL251422  15.860  19.756   6.153
 8995POPC   C1A51423  15.946  19.856   6.453
 8995POPC   D2A51424  15.983  19.813   6.753
 8995POPC   C3A51425  15.950  19.802   7.053
 8995POPC   C4A51426  15.953  19.812   7.353
 8995POPC   C1B51427  15.796  19.622   6.453
 8995POPC   C2B51428  15.830  19.683   6.753
 8995POPC   C3B51429  15.821  19.622   7.053
 8995POPC   C4B51430  15.833  19.602   7.353
 8996POPC   NC351431  25.260  39.238   5.553
 8996POPC   PO451432  25.296  39.232   5.853
 8996POPC   GL151433  25.261  39.242   6.153
 8996POPC   GL251434  25.357  39.278   6.153
 8996POPC   C1A51435  25.267  39.270   6.453
 8996POPC   D2A51436  25.306  39.243   6.753
 8996POPC   C3A51437  25.292  39.237   7.053
 8996POPC   C4A51438  25.245  39.228   7.353
 8996POPC   C1B51439  25.555  39.227   6.453
 8996POPC   C2B51440  25.494  39.201   6.753
 8996POPC   C3B51441  25.508  39.255   7.053
 8996POPC   C4B51442  25.505  39.186   7.353
 8997POPC   NC351443  22.969  18.313   5.553
 8997POPC   PO451444  22.979  18.250   5.853
 8997POPC   GL151445  22.944  18.251   6.153
 8997POPC   GL251446  22.960  18.181   6.153
 8997POPC   C1A51447  22.919  18.296   6.453
 8997POPC   D2A51448  22.908  18.265   6.753
 8997POPC   C3A51449  22.894  18.242   7.053
 8997POPC   C4A51450  22.981  18.310   7.353
 8997POPC   C1B51451  23.024  18.019   6.453
 8997POPC   C2B51452  23.021  18.076   6.753
 8997POPC   C3B51453  23.060  18.064   7.053
 8997POPC   C4B51454  23.027  18.086   7.353
 8998POPC   NC351455  26.811  25.305   5.553
 8998POPC   PO451456  26.776  25.271   5.853
 8998POPC   GL151457  26.790  25.279   6.153
 8998POPC   GL251458  26.758  25.184   6.153
 8998POPC   C1A51459  26.774  25.219   6.453
 8998POPC   D2A51460  26.781  25.224   6.753
 8998POPC   C3A51461  26.840  25.299   7.053
 8998POPC   C4A51462  26.800  25.238   7.353
 8998POPC   C1B51463  26.584  25.090   6.453
 8998POPC   C2B51464  26.591  25.106   6.753
 8998POPC   C3B51465  26.618  25.147   7.053
 8998POPC   C4B51466  26.611  25.132   7.353
 8999POPC   NC351467  38.465  16.717   5.553
 8999POPC   PO451468  38.454  16.705   5.853
 8999POPC   GL151469  38.438  16.685   6.153
 8999POPC   GL251470  38.439  16.878   6.153
 8999POPC   C1A51471  38.475  16.705   6.453
 8999POPC   D2A51472  38.473  16.726   6.753
 8999POPC   C3A51473  38.444  16.714   7.053
 8999POPC   C4A51474  38.427  16.734   7.353
 8999POPC   C1B51475  38.313  16.931   6.453
 8999POPC   C2B51476  38.283  16.950   6.753
 8999POPC   C3B51477  38.349  16.906   7.053
 8999POPC   C4B51478  38.344  16.965   7.353
 9000POPC   NC351479  23.744  34.611   5.553
 9000POPC   PO451480  23.719  34.578   5.853
 9000POPC   GL151481  23.715  34.554   6.153
 9000POPC   GL251482  23.866  34.589   6.153
 9000POPC   C1A51483  23.674  34.588   6.453
 9000POPC   D2A51484  23.759  34.597   6.753
 9000POPC   C3A51485  23.690  34.594   7.053
 9000POPC   C4A51486  23.742  34.588   7.353
 9000POPC   C1B51487  23.980  34.607   6.453
 9000POPC   C2B51488  24.005  34.660   6.753
 9000POPC   C3B51489  23.976  34.657   7.053
 9000POPC   C4B51490  23.909  34.588   7.353
 9001POPC   NC351491   1.244   8.236   5.553
 9001POPC   PO451492   1.246   8.159   5.853
 9001POPC   GL151493   1.200   8.148   6.153
 9001POPC   GL251494   1.073   8.198   6.153
 9001POPC   C1A51495   1.252   8.158   6.453
 9001POPC   D2A51496   1.192   8.230   6.753
 9001POPC   C3A51497   1.189   8.209   7.053
 9001POPC   C4A51498   1.181   8.228   7.353
 9001POPC   C1B51499   1.014   8.223   6.453
 9001POPC   C2B51500   0.956   8.298   6.753
 9001POPC   C3B51501   0.988   8.215   7.053
 9001POPC   C4B51502   0.960   8.210   7.353
 9002POPC   NC351503  22.904   5.902   5.553
 9002POPC   PO451504  22.908   5.911   5.853
 9002POPC   GL151505  22.986   5.866   6.153
 9002POPC   GL251506  23.014   5.759   6.153
 9002POPC   C1A51507  22.891   5.907   6.453
 9002POPC   D2A51508  22.958   5.825   6.753
 9002POPC   C3A51509  22.895   5.901   7.053
 9002POPC   C4A51510  22.985   5.907   7.353
 9002POPC   C1B51511  23.058   5.660   6.453
 9002POPC   C2B51512  23.016   5.684   6.753
 9002POPC   C3B51513  22.985   5.609   7.053
 9002POPC   C4B51514  23.005   5.678   7.353
 9003POPC   NC351515  33.810   5.112   5.553
 9003POPC   PO451516  33.782   5.080   5.853
 9003POPC   GL151517  33.766   5.075   6.153
 9003POPC   GL251518  33.721   5.196   6.153
 9003POPC   C1A51519  33.757   5.103   6.453
 9003POPC   D2A51520  33.751   5.059   6.753
 9003POPC   C3A51521  33.798   5.049   7.053
 9003POPC   C4A51522  33.801   5.062   7.353
 9003POPC   C1B51523  33.681   5.331   6.453
 9003POPC   C2B51524  33.713   5.340   6.753
 9003POPC   C3B51525  33.696   5.299   7.053
 9003POPC   C4B51526  33.686   5.294   7.353
 9004POPC   NC351527  40.040  30.692   5.553
 9004POPC   PO451528  40.022  30.659   5.853
 9004POPC   GL151529  39.996  30.699   6.153
 9004POPC   GL251530  39.910  30.669   6.153
 9004POPC   C1A51531  40.008  30.741   6.453
 9004POPC   D2A51532  39.979  30.663   6.753
 9004POPC   C3A51533  39.996  30.667   7.053
 9004POPC   C4A51534  39.996  30.743   7.353
 9004POPC   C1B51535  39.746  30.644   6.453
 9004POPC   C2B51536  39.773  30.653   6.753
 9004POPC   C3B51537  39.802  30.613   7.053
 9004POPC   C4B51538  39.772  30.685   7.353
 9005POPC   NC351539  40.800   4.354   5.553
 9005POPC   PO451540  40.761   4.361   5.853
 9005POPC   GL151541  40.746   4.329   6.153
 9005POPC   GL251542  40.648   4.340   6.153
 9005POPC   C1A51543  40.751   4.300   6.453
 9005POPC   D2A51544  40.779   4.308   6.753
 9005POPC   C3A51545  40.813   4.287   7.053
 9005POPC   C4A51546  40.815   4.288   7.353
 9005POPC   C1B51547  40.526   4.403   6.453
 9005POPC   C2B51548  40.498   4.310   6.753
 9005POPC   C3B51549  40.489   4.366   7.053
 9005POPC   C4B51550  40.541   4.378   7.353
 9006POPC   NC351551   0.410  29.104   5.553
 9006POPC   PO451552   0.442  29.137   5.853
 9006POPC   GL151553   0.474  29.190   6.153
 9006POPC   GL251554   0.439  29.266   6.153
 9006POPC   C1A51555   0.465  29.163   6.453
 9006POPC   D2A51556   0.435  29.163   6.753
 9006POPC   C3A51557   0.389  29.181   7.053
 9006POPC   C4A51558   0.436  29.130   7.353
 9006POPC   C1B51559   0.367  29.409   6.453
 9006POPC   C2B51560   0.367  29.418   6.753
 9006POPC   C3B51561   0.359  29.406   7.053
 9006POPC   C4B51562   0.434  29.431   7.353
 9007POPC   NC351563  29.165   0.406   5.553
 9007POPC   PO451564  29.142   0.474   5.853
 9007POPC   GL151565  29.141   0.390   6.153
 9007POPC   GL251566  29.254   0.545   6.153
 9007POPC   C1A51567  29.160   0.446   6.453
 9007POPC   D2A51568  29.154   0.486   6.753
 9007POPC   C3A51569  29.148   0.459   7.053
 9007POPC   C4A51570  29.098   0.430   7.353
 9007POPC   C1B51571  29.354   0.659   6.453
 9007POPC   C2B51572  29.275   0.644   6.753
 9007POPC   C3B51573  29.348   0.567   7.053
 9007POPC   C4B51574  29.296   0.569   7.353
 9008POPC   NC351575  38.497   2.779   5.553
 9008POPC   PO451576  38.494   2.775   5.853
 9008POPC   GL151577  38.491   2.732   6.153
 9008POPC   GL251578  38.372   2.791   6.153
 9008POPC   C1A51579  38.474   2.767   6.453
 9008POPC   D2A51580  38.491   2.765   6.753
 9008POPC   C3A51581  38.451   2.788   7.053
 9008POPC   C4A51582  38.424   2.771   7.353
 9008POPC   C1B51583  38.257   2.928   6.453
 9008POPC   C2B51584  38.254   2.876   6.753
 9008POPC   C3B51585  38.266   2.868   7.053
 9008POPC   C4B51586  38.208   2.910   7.353
 9009POPC   NC351587  15.939  43.878   5.553
 9009POPC   PO451588  15.910  43.935   5.853
 9009POPC   GL151589  15.919  43.862   6.153
 9009POPC   GL251590  15.956  43.795   6.153
 9009POPC   C1A51591  16.002  43.845   6.453
 9009POPC   D2A51592  15.941  43.840   6.753
 9009POPC   C3A51593  15.956  43.933   7.053
 9009POPC   C4A51594  15.956  43.927   7.353
 9009POPC   C1B51595  15.998  43.602   6.453
 9009POPC   C2B51596  15.965  43.619   6.753
 9009POPC   C3B51597  15.964  43.603   7.053
 9009POPC   C4B51598  15.942  43.602   7.353
 9010POPC   NC351599  42.340  42.340   5.553
 9010POPC   PO451600  42.344  42.349   5.853
 9010POPC   GL151601  42.296  42.331   6.153
 9010POPC   GL251602  42.241  42.255   6.153
 9010POPC   C1A51603  42.337  42.367   6.453
 9010POPC   D2A51604  42.342  42.285   6.753
 9010POPC   C3A51605  42.370  42.286   7.053
 9010POPC   C4A51606  42.295  42.286   7.353
 9010POPC   C1B51607  42.196  42.091   6.453
 9010POPC   C2B51608  42.247  42.136   6.753
 9010POPC   C3B51609  42.209  42.086   7.053
 9010POPC   C4B51610  42.187  42.112   7.353
 9011POPC   NC351611  38.450  44.679   5.553
 9011POPC   PO451612  38.480  44.682   5.853
 9011POPC   GL151613  38.471  44.698   6.153
 9011POPC   GL251614  38.374  44.593   6.153
 9011POPC   C1A51615  38.469  44.621   6.453
 9011POPC   D2A51616  38.504  44.643   6.753
 9011POPC   C3A51617  38.412  44.697   7.053
 9011POPC   C4A51618  38.411  44.631   7.353
 9011POPC   C1B51619  38.413  44.394   6.453
 9011POPC   C2B51620  38.368  44.462   6.753
 9011POPC   C3B51621  38.376  44.404   7.053
 9011POPC   C4B51622  38.418  44.434   7.353
 9012POPC   NC351623   2.798  32.225   5.553
 9012POPC   PO451624   2.718  32.240   5.853
 9012POPC   GL151625   2.728  32.284   6.153
 9012POPC   GL251626   2.780  32.097   6.153
 9012POPC   C1A51627   2.786  32.277   6.453
 9012POPC   D2A51628   2.808  32.271   6.753
 9012POPC   C3A51629   2.791  32.263   7.053
 9012POPC   C4A51630   2.728  32.221   7.353
 9012POPC   C1B51631   2.841  31.995   6.453
 9012POPC   C2B51632   2.787  32.029   6.753
 9012POPC   C3B51633   2.768  32.015   7.053
 9012POPC   C4B51634   2.779  32.014   7.353
 9013POPC   NC351635  20.574  35.399   5.553
 9013POPC   PO451636  20.600  35.374   5.853
 9013POPC   GL151637  20.581  35.307   6.153
 9013POPC   GL251638  20.615  35.219   6.153
 9013POPC   C1A51639  20.607  35.361   6.453
 9013POPC   D2A51640  20.608  35.324   6.753
 9013POPC   C3A51641  20.593  35.344   7.053
 9013POPC   C4A51642  20.616  35.308   7.353
 9013POPC   C1B51643  20.573  35.124   6.453
 9013POPC   C2B51644  20.491  35.118   6.753
 9013POPC   C3B51645  20.508  35.160   7.053
 9013POPC   C4B51646  20.588  35.143   7.353
 9014POPC   NC351647   5.899  40.739   5.553
 9014POPC   PO451648   5.842  40.745   5.853
 9014POPC   GL151649   5.873  40.824   6.153
 9014POPC   GL251650   5.987  40.738   6.153
 9014POPC   C1A51651   5.819  40.768   6.453
 9014POPC   D2A51652   5.871  40.747   6.753
 9014POPC   C3A51653   5.906  40.807   7.053
 9014POPC   C4A51654   5.834  40.754   7.353
 9014POPC   C1B51655   6.102  40.573   6.453
 9014POPC   C2B51656   6.096  40.607   6.753
 9014POPC   C3B51657   6.022  40.594   7.053
 9014POPC   C4B51658   6.053  40.588   7.353
 9015POPC   NC351659  36.088  33.793   5.553
 9015POPC   PO451660  36.161  33.823   5.853
 9015POPC   GL151661  36.101  33.808   6.153
 9015POPC   GL251662  36.097  33.875   6.153
 9015POPC   C1A51663  36.144  33.794   6.453
 9015POPC   D2A51664  36.110  33.804   6.753
 9015POPC   C3A51665  36.145  33.838   7.053
 9015POPC   C4A51666  36.138  33.843   7.353
 9015POPC   C1B51667  36.084  34.093   6.453
 9015POPC   C2B51668  36.105  34.059   6.753
 9015POPC   C3B51669  36.089  34.019   7.053
 9015POPC   C4B51670  36.097  34.034   7.353
 9016POPC   NC351671  35.338  26.013   5.553
 9016POPC   PO451672  35.384  26.068   5.853
 9016POPC   GL151673  35.391  26.030   6.153
 9016POPC   GL251674  35.396  25.964   6.153
 9016POPC   C1A51675  35.370  26.072   6.453
 9016POPC   D2A51676  35.339  26.060   6.753
 9016POPC   C3A51677  35.389  26.052   7.053
 9016POPC   C4A51678  35.312  26.053   7.353
 9016POPC   C1B51679  35.414  25.777   6.453
 9016POPC   C2B51680  35.384  25.796   6.753
 9016POPC   C3B51681  35.398  25.824   7.053
 9016POPC   C4B51682  35.343  25.754   7.353
 9017POPC   NC351683  12.841  43.837   5.553
 9017POPC   PO451684  12.872  43.925   5.853
 9017POPC   GL151685  12.858  43.839   6.153
 9017POPC   GL251686  12.932  43.875   6.153
 9017POPC   C1A51687  12.850  43.925   6.453
 9017POPC   D2A51688  12.851  43.860   6.753
 9017POPC   C3A51689  12.872  43.878   7.053
 9017POPC   C4A51690  12.840  43.851   7.353
 9017POPC   C1B51691  13.086  43.915   6.453
 9017POPC   C2B51692  13.086  43.933   6.753
 9017POPC   C3B51693  13.106  43.890   7.053
 9017POPC   C4B51694  13.098  43.912   7.353
 9018POPC   NC351695  44.673  22.149   5.553
 9018POPC   PO451696  44.705  22.159   5.853
 9018POPC   GL151697  44.702  22.152   6.153
 9018POPC   GL251698  44.561  22.235   6.153
 9018POPC   C1A51699  44.700  22.181   6.453
 9018POPC   D2A51700  44.640  22.122   6.753
 9018POPC   C3A51701  44.652  22.127   7.053
 9018POPC   C4A51702  44.682  22.120   7.353
 9018POPC   C1B51703  44.527  22.341   6.453
 9018POPC   C2B51704  44.531  22.361   6.753
 9018POPC   C3B51705  44.545  22.362   7.053
 9018POPC   C4B51706  44.487  22.303   7.353
 9019POPC   NC351707  18.259   9.721   5.553
 9019POPC   PO451708  18.306   9.776   5.853
 9019POPC   GL151709  18.286   9.773   6.153
 9019POPC   GL251710  18.354   9.912   6.153
 9019POPC   C1A51711  18.332   9.768   6.453
 9019POPC   D2A51712  18.285   9.773   6.753
 9019POPC   C3A51713  18.297   9.797   7.053
 9019POPC   C4A51714  18.252   9.762   7.353
 9019POPC   C1B51715  18.336  10.009   6.453
 9019POPC   C2B51716  18.323   9.998   6.753
 9019POPC   C3B51717  18.331  10.024   7.053
 9019POPC   C4B51718  18.416  10.014   7.353
 9020POPC   NC351719  37.679  25.261   5.553
 9020POPC   PO451720  37.686  25.314   5.853
 9020POPC   GL151721  37.655  25.255   6.153
 9020POPC   GL251722  37.530  25.213   6.153
 9020POPC   C1A51723  37.683  25.224   6.453
 9020POPC   D2A51724  37.683  25.305   6.753
 9020POPC   C3A51725  37.714  25.227   7.053
 9020POPC   C4A51726  37.664  25.226   7.353
 9020POPC   C1B51727  37.478  25.220   6.453
 9020POPC   C2B51728  37.437  25.237   6.753
 9020POPC   C3B51729  37.409  25.207   7.053
 9020POPC   C4B51730  37.477  25.226   7.353
 9021POPC   NC351731   8.202  29.104   5.553
 9021POPC   PO451732   8.245  29.150   5.853
 9021POPC   GL151733   8.201  29.184   6.153
 9021POPC   GL251734   8.273  29.251   6.153
 9021POPC   C1A51735   8.237  29.099   6.453
 9021POPC   D2A51736   8.158  29.138   6.753
 9021POPC   C3A51737   8.162  29.116   7.053
 9021POPC   C4A51738   8.169  29.151   7.353
 9021POPC   C1B51739   8.259  29.417   6.453
 9021POPC   C2B51740   8.229  29.355   6.753
 9021POPC   C3B51741   8.279  29.435   7.053
 9021POPC   C4B51742   8.216  29.362   7.353
 9022POPC   NC351743  10.506  39.242   5.553
 9022POPC   PO451744  10.509  39.209   5.853
 9022POPC   GL151745  10.480  39.238   6.153
 9022POPC   GL251746  10.608  39.077   6.153
 9022POPC   C1A51747  10.564  39.256   6.453
 9022POPC   D2A51748  10.569  39.235   6.753
 9022POPC   C3A51749  10.485  39.277   7.053
 9022POPC   C4A51750  10.523  39.272   7.353
 9022POPC   C1B51751  10.598  38.974   6.453
 9022POPC   C2B51752  10.574  39.009   6.753
 9022POPC   C3B51753  10.584  39.016   7.053
 9022POPC   C4B51754  10.619  39.038   7.353
 9023POPC   NC351755   3.526  36.106   5.553
 9023POPC   PO451756   3.515  36.162   5.853
 9023POPC   GL151757   3.571  36.110   6.153
 9023POPC   GL251758   3.610  36.211   6.153
 9023POPC   C1A51759   3.514  36.138   6.453
 9023POPC   D2A51760   3.519  36.115   6.753
 9023POPC   C3A51761   3.529  36.174   7.053
 9023POPC   C4A51762   3.508  36.144   7.353
 9023POPC   C1B51763   3.637  36.359   6.453
 9023POPC   C2B51764   3.673  36.368   6.753
 9023POPC   C3B51765   3.615  36.410   7.053
 9023POPC   C4B51766   3.653  36.321   7.353
 9024POPC   NC351767  41.531   6.655   5.553
 9024POPC   PO451768  41.535   6.643   5.853
 9024POPC   GL151769  41.518   6.646   6.153
 9024POPC   GL251770  41.601   6.483   6.153
 9024POPC   C1A51771  41.577   6.631   6.453
 9024POPC   D2A51772  41.551   6.664   6.753
 9024POPC   C3A51773  41.556   6.679   7.053
 9024POPC   C4A51774  41.584   6.645   7.353
 9024POPC   C1B51775  41.686   6.380   6.453
 9024POPC   C2B51776  41.654   6.419   6.753
 9024POPC   C3B51777  41.683   6.393   7.053
 9024POPC   C4B51778  41.617   6.377   7.353
 9025POPC   NC351779  16.745  37.652   5.553
 9025POPC   PO451780  16.778  37.721   5.853
 9025POPC   GL151781  16.776  37.693   6.153
 9025POPC   GL251782  16.862  37.709   6.153
 9025POPC   C1A51783  16.726  37.662   6.453
 9025POPC   D2A51784  16.756  37.670   6.753
 9025POPC   C3A51785  16.738  37.713   7.053
 9025POPC   C4A51786  16.737  37.703   7.353
 9025POPC   C1B51787  16.977  37.676   6.453
 9025POPC   C2B51788  17.011  37.672   6.753
 9025POPC   C3B51789  16.935  37.640   7.053
 9025POPC   C4B51790  17.013  37.654   7.353
 9026POPC   NC351791  14.384  37.693   5.553
 9026POPC   PO451792  14.397  37.706   5.853
 9026POPC   GL151793  14.398  37.685   6.153
 9026POPC   GL251794  14.447  37.816   6.153
 9026POPC   C1A51795  14.428  37.711   6.453
 9026POPC   D2A51796  14.452  37.697   6.753
 9026POPC   C3A51797  14.404  37.660   7.053
 9026POPC   C4A51798  14.443  37.639   7.353
 9026POPC   C1B51799  14.505  37.906   6.453
 9026POPC   C2B51800  14.541  37.902   6.753
 9026POPC   C3B51801  14.501  37.855   7.053
 9026POPC   C4B51802  14.513  37.850   7.353
 9027POPC   NC351803   8.198  28.406   5.553
 9027POPC   PO451804   8.167  28.340   5.853
 9027POPC   GL151805   8.221  28.416   6.153
 9027POPC   GL251806   8.220  28.251   6.153
 9027POPC   C1A51807   8.181  28.361   6.453
 9027POPC   D2A51808   8.181  28.397   6.753
 9027POPC   C3A51809   8.231  28.385   7.053
 9027POPC   C4A51810   8.187  28.365   7.353
 9027POPC   C1B51811   8.307  28.179   6.453
 9027POPC   C2B51812   8.314  28.178   6.753
 9027POPC   C3B51813   8.293  28.149   7.053
 9027POPC   C4B51814   8.314  28.107   7.353
 9028POPC   NC351815  18.304   2.795   5.553
 9028POPC   PO451816  18.305   2.758   5.853
 9028POPC   GL151817  18.249   2.759   6.153
 9028POPC   GL251818  18.245   2.822   6.153
 9028POPC   C1A51819  18.278   2.721   6.453
 9028POPC   D2A51820  18.311   2.737   6.753
 9028POPC   C3A51821  18.280   2.754   7.053
 9028POPC   C4A51822  18.310   2.731   7.353
 9028POPC   C1B51823  18.146   2.950   6.453
 9028POPC   C2B51824  18.120   2.967   6.753
 9028POPC   C3B51825  18.176   2.924   7.053
 9028POPC   C4B51826  18.186   2.973   7.353
 9029POPC   NC351827  22.164  12.047   5.553
 9029POPC   PO451828  22.200  12.039   5.853
 9029POPC   GL151829  22.139  12.101   6.153
 9029POPC   GL251830  22.252  12.143   6.153
 9029POPC   C1A51831  22.199  12.126   6.453
 9029POPC   D2A51832  22.152  12.029   6.753
 9029POPC   C3A51833  22.177  12.125   7.053
 9029POPC   C4A51834  22.113  12.054   7.353
 9029POPC   C1B51835  22.302  12.239   6.453
 9029POPC   C2B51836  22.319  12.316   6.753
 9029POPC   C3B51837  22.263  12.316   7.053
 9029POPC   C4B51838  22.340  12.245   7.353
 9030POPC   NC351839   5.890   9.735   5.553
 9030POPC   PO451840   5.831   9.732   5.853
 9030POPC   GL151841   5.841   9.706   6.153
 9030POPC   GL251842   5.879   9.892   6.153
 9030POPC   C1A51843   5.907   9.723   6.453
 9030POPC   D2A51844   5.892   9.717   6.753
 9030POPC   C3A51845   5.841   9.786   7.053
 9030POPC   C4A51846   5.849   9.724   7.353
 9030POPC   C1B51847   5.924   9.951   6.453
 9030POPC   C2B51848   5.930  10.022   6.753
 9030POPC   C3B51849   5.986   9.936   7.053
 9030POPC   C4B51850   5.936   9.998   7.353
 9031POPC   NC351851  21.356   7.423   5.553
 9031POPC   PO451852  21.408   7.466   5.853
 9031POPC   GL151853  21.349   7.450   6.153
 9031POPC   GL251854  21.278   7.300   6.153
 9031POPC   C1A51855  21.348   7.406   6.453
 9031POPC   D2A51856  21.366   7.449   6.753
 9031POPC   C3A51857  21.378   7.413   7.053
 9031POPC   C4A51858  21.366   7.438   7.353
 9031POPC   C1B51859  21.186   7.222   6.453
 9031POPC   C2B51860  21.177   7.304   6.753
 9031POPC   C3B51861  21.168   7.228   7.053
 9031POPC   C4B51862  21.220   7.259   7.353
 9032POPC   NC351863   1.171  17.556   5.553
 9032POPC   PO451864   1.235  17.555   5.853
 9032POPC   GL151865   1.180  17.469   6.153
 9032POPC   GL251866   1.301  17.423   6.153
 9032POPC   C1A51867   1.224  17.526   6.453
 9032POPC   D2A51868   1.261  17.483   6.753
 9032POPC   C3A51869   1.235  17.457   7.053
 9032POPC   C4A51870   1.258  17.508   7.353
 9032POPC   C1B51871   1.403  17.309   6.453
 9032POPC   C2B51872   1.362  17.316   6.753
 9032POPC   C3B51873   1.410  17.334   7.053
 9032POPC   C4B51874   1.370  17.372   7.353
 9033POPC   NC351875  41.570  22.956   5.553
 9033POPC   PO451876  41.601  22.949   5.853
 9033POPC   GL151877  41.520  22.969   6.153
 9033POPC   GL251878  41.575  23.074   6.153
 9033POPC   C1A51879  41.548  22.897   6.453
 9033POPC   D2A51880  41.605  22.903   6.753
 9033POPC   C3A51881  41.598  22.920   7.053
 9033POPC   C4A51882  41.533  22.923   7.353
 9033POPC   C1B51883  41.590  23.171   6.453
 9033POPC   C2B51884  41.637  23.153   6.753
 9033POPC   C3B51885  41.580  23.153   7.053
 9033POPC   C4B51886  41.581  23.138   7.353
 9034POPC   NC351887  39.987  21.377   5.553
 9034POPC   PO451888  39.963  21.403   5.853
 9034POPC   GL151889  40.018  21.365   6.153
 9034POPC   GL251890  40.042  21.310   6.153
 9034POPC   C1A51891  39.997  21.422   6.453
 9034POPC   D2A51892  39.985  21.357   6.753
 9034POPC   C3A51893  40.014  21.337   7.053
 9034POPC   C4A51894  40.039  21.420   7.353
 9034POPC   C1B51895  40.143  21.184   6.453
 9034POPC   C2B51896  40.096  21.123   6.753
 9034POPC   C3B51897  40.116  21.209   7.053
 9034POPC   C4B51898  40.177  21.195   7.353
 9035POPC   NC351899  29.114  24.477   5.553
 9035POPC   PO451900  29.152  24.532   5.853
 9035POPC   GL151901  29.191  24.475   6.153
 9035POPC   GL251902  29.118  24.395   6.153
 9035POPC   C1A51903  29.112  24.492   6.453
 9035POPC   D2A51904  29.141  24.537   6.753
 9035POPC   C3A51905  29.105  24.470   7.053
 9035POPC   C4A51906  29.140  24.517   7.353
 9035POPC   C1B51907  29.044  24.267   6.453
 9035POPC   C2B51908  29.003  24.219   6.753
 9035POPC   C3B51909  29.032  24.256   7.053
 9035POPC   C4B51910  29.027  24.245   7.353
 9036POPC   NC351911  33.781  31.431   5.553
 9036POPC   PO451912  33.774  31.469   5.853
 9036POPC   GL151913  33.814  31.445   6.153
 9036POPC   GL251914  33.899  31.452   6.153
 9036POPC   C1A51915  33.753  31.503   6.453
 9036POPC   D2A51916  33.825  31.500   6.753
 9036POPC   C3A51917  33.766  31.510   7.053
 9036POPC   C4A51918  33.806  31.497   7.353
 9036POPC   C1B51919  34.058  31.518   6.453
 9036POPC   C2B51920  34.032  31.547   6.753
 9036POPC   C3B51921  34.008  31.547   7.053
 9036POPC   C4B51922  34.058  31.521   7.353
 9037POPC   NC351923  38.495  37.696   5.553
 9037POPC   PO451924  38.453  37.661   5.853
 9037POPC   GL151925  38.477  37.668   6.153
 9037POPC   GL251926  38.560  37.646   6.153
 9037POPC   C1A51927  38.428  37.712   6.453
 9037POPC   D2A51928  38.430  37.702   6.753
 9037POPC   C3A51929  38.430  37.632   7.053
 9037POPC   C4A51930  38.501  37.704   7.353
 9037POPC   C1B51931  38.733  37.692   6.453
 9037POPC   C2B51932  38.730  37.673   6.753
 9037POPC   C3B51933  38.697  37.631   7.053
 9037POPC   C4B51934  38.743  37.689   7.353
 9038POPC   NC351935   8.154  14.364   5.553
 9038POPC   PO451936   8.239  14.443   5.853
 9038POPC   GL151937   8.217  14.378   6.153
 9038POPC   GL251938   8.185  14.281   6.153
 9038POPC   C1A51939   8.211  14.368   6.453
 9038POPC   D2A51940   8.211  14.360   6.753
 9038POPC   C3A51941   8.169  14.416   7.053
 9038POPC   C4A51942   8.171  14.427   7.353
 9038POPC   C1B51943   8.179  14.160   6.453
 9038POPC   C2B51944   8.129  14.191   6.753
 9038POPC   C3B51945   8.202  14.193   7.053
 9038POPC   C4B51946   8.147  14.133   7.353
 9039POPC   NC351947  44.634  26.021   5.553
 9039POPC   PO451948  44.615  26.007   5.853
 9039POPC   GL151949  44.710  26.057   6.153
 9039POPC   GL251950  44.697  25.921   6.153
 9039POPC   C1A51951  44.618  26.040   6.453
 9039POPC   D2A51952  44.630  26.000   6.753
 9039POPC   C3A51953  44.647  26.073   7.053
 9039POPC   C4A51954  44.690  26.072   7.353
 9039POPC   C1B51955  44.665  25.751   6.453
 9039POPC   C2B51956  44.690  25.793   6.753
 9039POPC   C3B51957  44.692  25.775   7.053
 9039POPC   C4B51958  44.675  25.754   7.353
 9040POPC   NC351959   5.887   0.424   5.553
 9040POPC   PO451960   5.918   0.464   5.853
 9040POPC   GL151961   5.877   0.458   6.153
 9040POPC   GL251962   5.926   0.375   6.153
 9040POPC   C1A51963   5.830   0.416   6.453
 9040POPC   D2A51964   5.903   0.405   6.753
 9040POPC   C3A51965   5.866   0.414   7.053
 9040POPC   C4A51966   5.858   0.397   7.353
 9040POPC   C1B51967   5.989   0.231   6.453
 9040POPC   C2B51968   6.028   0.251   6.753
 9040POPC   C3B51969   6.045   0.203   7.053
 9040POPC   C4B51970   6.030   0.264   7.353
 9041POPC   NC351971   0.444  44.613   5.553
 9041POPC   PO451972   0.454  44.679   5.853
 9041POPC   GL151973   0.474  44.711   6.153
 9041POPC   GL251974   0.580  44.661   6.153
 9041POPC   C1A51975   0.416  44.647   6.453
 9041POPC   D2A51976   0.428  44.648   6.753
 9041POPC   C3A51977   0.457  44.637   7.053
 9041POPC   C4A51978   0.434  44.668   7.353
 9041POPC   C1B51979   0.722  44.707   6.453
 9041POPC   C2B51980   0.633  44.693   6.753
 9041POPC   C3B51981   0.646  44.662   7.053
 9041POPC   C4B51982   0.676  44.664   7.353
 9042POPC   NC351983  26.016   0.401   5.553
 9042POPC   PO451984  26.077   0.411   5.853
 9042POPC   GL151985  26.088   0.455   6.153
 9042POPC   GL251986  26.009   0.553   6.153
 9042POPC   C1A51987  26.023   0.447   6.453
 9042POPC   D2A51988  26.011   0.468   6.753
 9042POPC   C3A51989  26.010   0.447   7.053
 9042POPC   C4A51990  26.006   0.395   7.353
 9042POPC   C1B51991  25.953   0.658   6.453
 9042POPC   C2B51992  25.932   0.673   6.753
 9042POPC   C3B51993  25.941   0.698   7.053
 9042POPC   C4B51994  25.913   0.709   7.353
 9043POPC   NC351995  32.998  29.121   5.553
 9043POPC   PO451996  33.068  29.176   5.853
 9043POPC   GL151997  32.979  29.112   6.153
 9043POPC   GL251998  32.874  29.206   6.153
 9043POPC   C1A51999  33.040  29.171   6.453
 9043POPC   D2A52000  32.976  29.155   6.753
 9043POPC   C3A52001  32.975  29.190   7.053
 9043POPC   C4A52002  33.007  29.127   7.353
 9043POPC   C1B52003  32.780  29.199   6.453
 9043POPC   C2B52004  32.814  29.169   6.753
 9043POPC   C3B52005  32.736  29.213   7.053
 9043POPC   C4B52006  32.777  29.136   7.353
 9044POPC   NC352007  34.589  33.780   5.553
 9044POPC   PO452008  34.604  33.757   5.853
 9044POPC   GL152009  34.535  33.760   6.153
 9044POPC   GL252010  34.554  33.724   6.153
 9044POPC   C1A52011  34.603  33.753   6.453
 9044POPC   D2A52012  34.594  33.804   6.753
 9044POPC   C3A52013  34.607  33.758   7.053
 9044POPC   C4A52014  34.563  33.770   7.353
 9044POPC   C1B52015  34.430  33.529   6.453
 9044POPC   C2B52016  34.512  33.621   6.753
 9044POPC   C3B52017  34.516  33.609   7.053
 9044POPC   C4B52018  34.458  33.529   7.353
 9045POPC   NC352019  39.272  36.170   5.553
 9045POPC   PO452020  39.228  36.108   5.853
 9045POPC   GL152021  39.281  36.094   6.153
 9045POPC   GL252022  39.305  36.015   6.153
 9045POPC   C1A52023  39.261  36.114   6.453
 9045POPC   D2A52024  39.279  36.124   6.753
 9045POPC   C3A52025  39.248  36.110   7.053
 9045POPC   C4A52026  39.215  36.148   7.353
 9045POPC   C1B52027  39.339  35.896   6.453
 9045POPC   C2B52028  39.307  35.906   6.753
 9045POPC   C3B52029  39.358  35.850   7.053
 9045POPC   C4B52030  39.357  35.877   7.353
 9046POPC   NC352031  12.067  24.468   5.553
 9046POPC   PO452032  12.055  24.539   5.853
 9046POPC   GL152033  12.046  24.468   6.153
 9046POPC   GL252034  12.243  24.494   6.153
 9046POPC   C1A52035  12.027  24.492   6.453
 9046POPC   D2A52036  12.108  24.510   6.753
 9046POPC   C3A52037  12.073  24.445   7.053
 9046POPC   C4A52038  12.116  24.518   7.353
 9046POPC   C1B52039  12.340  24.541   6.453
 9046POPC   C2B52040  12.288  24.501   6.753
 9046POPC   C3B52041  12.299  24.540   7.053
 9046POPC   C4B52042  12.284  24.599   7.353
 9047POPC   NC352043  31.431   5.101   5.553
 9047POPC   PO452044  31.495   5.110   5.853
 9047POPC   GL152045  31.518   5.128   6.153
 9047POPC   GL252046  31.510   5.243   6.153
 9047POPC   C1A52047  31.444   5.131   6.453
 9047POPC   D2A52048  31.440   5.141   6.753
 9047POPC   C3A52049  31.508   5.130   7.053
 9047POPC   C4A52050  31.457   5.135   7.353
 9047POPC   C1B52051  31.586   5.330   6.453
 9047POPC   C2B52052  31.528   5.350   6.753
 9047POPC   C3B52053  31.587   5.274   7.053
 9047POPC   C4B52054  31.572   5.327   7.353
 9048POPC   NC352055  39.194  43.139   5.553
 9048POPC   PO452056  39.230  43.109   5.853
 9048POPC   GL152057  39.237  43.149   6.153
 9048POPC   GL252058  39.371  43.104   6.153
 9048POPC   C1A52059  39.199  43.107   6.453
 9048POPC   D2A52060  39.263  43.105   6.753
 9048POPC   C3A52061  39.215  43.149   7.053
 9048POPC   C4A52062  39.269  43.090   7.353
 9048POPC   C1B52063  39.433  43.034   6.453
 9048POPC   C2B52064  39.459  43.037   6.753
 9048POPC   C3B52065  39.472  43.036   7.053
 9048POPC   C4B52066  39.448  43.004   7.353
 9049POPC   NC352067  22.162   5.844   5.553
 9049POPC   PO452068  22.166   5.901   5.853
 9049POPC   GL152069  22.135   5.843   6.153
 9049POPC   GL252070  22.248   5.963   6.153
 9049POPC   C1A52071  22.176   5.843   6.453
 9049POPC   D2A52072  22.148   5.897   6.753
 9049POPC   C3A52073  22.199   5.836   7.053
 9049POPC   C4A52074  22.119   5.904   7.353
 9049POPC   C1B52075  22.400   5.950   6.453
 9049POPC   C2B52076  22.385   5.983   6.753
 9049POPC   C3B52077  22.344   5.986   7.053
 9049POPC   C4B52078  22.405   6.029   7.353
 9050POPC   NC352079   8.957  30.718   5.553
 9050POPC   PO452080   8.950  30.654   5.853
 9050POPC   GL152081   8.977  30.666   6.153
 9050POPC   GL252082   8.837  30.699   6.153
 9050POPC   C1A52083   8.979  30.655   6.453
 9050POPC   D2A52084   9.004  30.703   6.753
 9050POPC   C3A52085   8.924  30.723   7.053
 9050POPC   C4A52086   8.954  30.724   7.353
 9050POPC   C1B52087   8.760  30.741   6.453
 9050POPC   C2B52088   8.736  30.664   6.753
 9050POPC   C3B52089   8.745  30.743   7.053
 9050POPC   C4B52090   8.710  30.735   7.353
 9051POPC   NC352091  44.641  32.987   5.553
 9051POPC   PO452092  44.629  32.988   5.853
 9051POPC   GL152093  44.670  33.009   6.153
 9051POPC   GL252094  44.644  33.179   6.153
 9051POPC   C1A52095  44.615  33.011   6.453
 9051POPC   D2A52096  44.688  33.021   6.753
 9051POPC   C3A52097  44.691  33.017   7.053
 9051POPC   C4A52098  44.683  33.037   7.353
 9051POPC   C1B52099  44.638  33.320   6.453
 9051POPC   C2B52100  44.672  33.302   6.753
 9051POPC   C3B52101  44.731  33.242   7.053
 9051POPC   C4B52102  44.644  33.261   7.353
 9052POPC   NC352103  44.616  26.808   5.553
 9052POPC   PO452104  44.623  26.844   5.853
 9052POPC   GL152105  44.691  26.866   6.153
 9052POPC   GL252106  44.780  26.811   6.153
 9052POPC   C1A52107  44.640  26.812   6.453
 9052POPC   D2A52108  44.691  26.823   6.753
 9052POPC   C3A52109  44.700  26.818   7.053
 9052POPC   C4A52110  44.646  26.848   7.353
 9052POPC   C1B52111  44.896  26.778   6.453
 9052POPC   C2B52112  44.871  26.780   6.753
 9052POPC   C3B52113  44.913  26.818   7.053
 9052POPC   C4B52114  44.944  26.783   7.353
 9053POPC   NC352115  28.378  20.610   5.553
 9053POPC   PO452116  28.409  20.576   5.853
 9053POPC   GL152117  28.394  20.590   6.153
 9053POPC   GL252118  28.425  20.550   6.153
 9053POPC   C1A52119  28.351  20.582   6.453
 9053POPC   D2A52120  28.355  20.633   6.753
 9053POPC   C3A52121  28.411  20.593   7.053
 9053POPC   C4A52122  28.364  20.655   7.353
 9053POPC   C1B52123  28.495  20.475   6.453
 9053POPC   C2B52124  28.557  20.403   6.753
 9053POPC   C3B52125  28.584  20.443   7.053
 9053POPC   C4B52126  28.515  20.428   7.353
 9054POPC   NC352127  29.908  25.261   5.553
 9054POPC   PO452128  29.878  25.224   5.853
 9054POPC   GL152129  29.953  25.225   6.153
 9054POPC   GL252130  30.017  25.123   6.153
 9054POPC   C1A52131  29.894  25.217   6.453
 9054POPC   D2A52132  29.889  25.216   6.753
 9054POPC   C3A52133  29.902  25.298   7.053
 9054POPC   C4A52134  29.917  25.258   7.353
 9054POPC   C1B52135  30.050  25.023   6.453
 9054POPC   C2B52136  30.033  25.068   6.753
 9054POPC   C3B52137  29.980  25.001   7.053
 9054POPC   C4B52138  29.991  25.034   7.353
 9055POPC   NC352139  13.611  42.289   5.553
 9055POPC   PO452140  13.614  42.348   5.853
 9055POPC   GL152141  13.605  42.302   6.153
 9055POPC   GL252142  13.744  42.284   6.153
 9055POPC   C1A52143  13.582  42.334   6.453
 9055POPC   D2A52144  13.595  42.362   6.753
 9055POPC   C3A52145  13.586  42.293   7.053
 9055POPC   C4A52146  13.609  42.377   7.353
 9055POPC   C1B52147  13.823  42.138   6.453
 9055POPC   C2B52148  13.814  42.143   6.753
 9055POPC   C3B52149  13.819  42.178   7.053
 9055POPC   C4B52150  13.765  42.107   7.353
 9056POPC   NC352151  23.702  13.585   5.553
 9056POPC   PO452152  23.736  13.649   5.853
 9056POPC   GL152153  23.714  13.656   6.153
 9056POPC   GL252154  23.754  13.755   6.153
 9056POPC   C1A52155  23.764  13.623   6.453
 9056POPC   D2A52156  23.746  13.654   6.753
 9056POPC   C3A52157  23.755  13.618   7.053
 9056POPC   C4A52158  23.695  13.603   7.353
 9056POPC   C1B52159  23.900  13.802   6.453
 9056POPC   C2B52160  23.876  13.840   6.753
 9056POPC   C3B52161  23.908  13.867   7.053
 9056POPC   C4B52162  23.862  13.807   7.353
 9057POPC   NC352163   6.628  17.501   5.553
 9057POPC   PO452164   6.679  17.460   5.853
 9057POPC   GL152165   6.677  17.553   6.153
 9057POPC   GL252166   6.793  17.425   6.153
 9057POPC   C1A52167   6.678  17.496   6.453
 9057POPC   D2A52168   6.614  17.484   6.753
 9057POPC   C3A52169   6.630  17.543   7.053
 9057POPC   C4A52170   6.680  17.473   7.353
 9057POPC   C1B52171   6.881  17.354   6.453
 9057POPC   C2B52172   6.900  17.322   6.753
 9057POPC   C3B52173   6.836  17.369   7.053
 9057POPC   C4B52174   6.811  17.388   7.353
 9058POPC   NC352175  30.683  31.438   5.553
 9058POPC   PO452176  30.670  31.476   5.853
 9058POPC   GL152177  30.654  31.475   6.153
 9058POPC   GL252178  30.867  31.424   6.153
 9058POPC   C1A52179  30.656  31.424   6.453
 9058POPC   D2A52180  30.676  31.491   6.753
 9058POPC   C3A52181  30.674  31.432   7.053
 9058POPC   C4A52182  30.716  31.499   7.353
 9058POPC   C1B52183  30.990  31.468   6.453
 9058POPC   C2B52184  30.975  31.493   6.753
 9058POPC   C3B52185  30.946  31.432   7.053
 9058POPC   C4B52186  30.965  31.427   7.353
 9059POPC   NC352187  32.227  10.518   5.553
 9059POPC   PO452188  32.232  10.530   5.853
 9059POPC   GL152189  32.212  10.558   6.153
 9059POPC   GL252190  32.130  10.596   6.153
 9059POPC   C1A52191  32.262  10.475   6.453
 9059POPC   D2A52192  32.294  10.571   6.753
 9059POPC   C3A52193  32.257  10.529   7.053
 9059POPC   C4A52194  32.239  10.528   7.353
 9059POPC   C1B52195  32.036  10.707   6.453
 9059POPC   C2B52196  32.063  10.614   6.753
 9059POPC   C3B52197  32.045  10.700   7.053
 9059POPC   C4B52198  32.039  10.646   7.353
 9060POPC   NC352199  30.716  38.451   5.553
 9060POPC   PO452200  30.668  38.498   5.853
 9060POPC   GL152201  30.676  38.459   6.153
 9060POPC   GL252202  30.809  38.406   6.153
 9060POPC   C1A52203  30.681  38.431   6.453
 9060POPC   D2A52204  30.692  38.438   6.753
 9060POPC   C3A52205  30.654  38.419   7.053
 9060POPC   C4A52206  30.685  38.427   7.353
 9060POPC   C1B52207  30.944  38.333   6.453
 9060POPC   C2B52208  30.882  38.412   6.753
 9060POPC   C3B52209  30.931  38.365   7.053
 9060POPC   C4B52210  30.935  38.343   7.353
 9061POPC   NC352211  30.703  36.953   5.553
 9061POPC   PO452212  30.708  36.857   5.853
 9061POPC   GL152213  30.674  36.909   6.153
 9061POPC   GL252214  30.552  36.977   6.153
 9061POPC   C1A52215  30.664  36.895   6.453
 9061POPC   D2A52216  30.727  36.942   6.753
 9061POPC   C3A52217  30.660  36.945   7.053
 9061POPC   C4A52218  30.693  36.933   7.353
 9061POPC   C1B52219  30.482  36.976   6.453
 9061POPC   C2B52220  30.421  36.957   6.753
 9061POPC   C3B52221  30.468  37.002   7.053
 9061POPC   C4B52222  30.429  37.023   7.353
 9062POPC   NC352223  43.890  11.307   5.553
 9062POPC   PO452224  43.934  11.304   5.853
 9062POPC   GL152225  43.838  11.292   6.153
 9062POPC   GL252226  43.826  11.178   6.153
 9062POPC   C1A52227  43.858  11.255   6.453
 9062POPC   D2A52228  43.879  11.310   6.753
 9062POPC   C3A52229  43.874  11.339   7.053
 9062POPC   C4A52230  43.930  11.253   7.353
 9062POPC   C1B52231  43.769  11.047   6.453
 9062POPC   C2B52232  43.830  11.089   6.753
 9062POPC   C3B52233  43.761  11.032   7.053
 9062POPC   C4B52234  43.779  11.068   7.353
 9063POPC   NC352235  15.158  27.554   5.553
 9063POPC   PO452236  15.228  27.600   5.853
 9063POPC   GL152237  15.199  27.643   6.153
 9063POPC   GL252238  15.301  27.597   6.153
 9063POPC   C1A52239  15.187  27.616   6.453
 9063POPC   D2A52240  15.166  27.621   6.753
 9063POPC   C3A52241  15.163  27.598   7.053
 9063POPC   C4A52242  15.151  27.603   7.353
 9063POPC   C1B52243  15.390  27.618   6.453
 9063POPC   C2B52244  15.387  27.652   6.753
 9063POPC   C3B52245  15.432  27.653   7.053
 9063POPC   C4B52246  15.390  27.648   7.353
 9064POPC   NC352247  25.311  16.766   5.553
 9064POPC   PO452248  25.274  16.744   5.853
 9064POPC   GL152249  25.301  16.776   6.153
 9064POPC   GL252250  25.125  16.695   6.153
 9064POPC   C1A52251  25.305  16.712   6.453
 9064POPC   D2A52252  25.260  16.766   6.753
 9064POPC   C3A52253  25.261  16.739   7.053
 9064POPC   C4A52254  25.291  16.718   7.353
 9064POPC   C1B52255  25.019  16.754   6.453
 9064POPC   C2B52256  25.016  16.746   6.753
 9064POPC   C3B52257  24.986  16.747   7.053
 9064POPC   C4B52258  25.013  16.761   7.353
 9065POPC   NC352259  17.487   2.027   5.553
 9065POPC   PO452260  17.502   1.954   5.853
 9065POPC   GL152261  17.468   1.975   6.153
 9065POPC   GL252262  17.578   1.855   6.153
 9065POPC   C1A52263  17.522   2.006   6.453
 9065POPC   D2A52264  17.489   2.022   6.753
 9065POPC   C3A52265  17.517   1.997   7.053
 9065POPC   C4A52266  17.545   1.974   7.353
 9065POPC   C1B52267  17.591   1.765   6.453
 9065POPC   C2B52268  17.517   1.777   6.753
 9065POPC   C3B52269  17.567   1.706   7.053
 9065POPC   C4B52270  17.520   1.750   7.353
 9066POPC   NC352271  32.292  26.840   5.553
 9066POPC   PO452272  32.294  26.836   5.853
 9066POPC   GL152273  32.238  26.811   6.153
 9066POPC   GL252274  32.188  26.729   6.153
 9066POPC   C1A52275  32.202  26.769   6.453
 9066POPC   D2A52276  32.269  26.824   6.753
 9066POPC   C3A52277  32.228  26.780   7.053
 9066POPC   C4A52278  32.219  26.826   7.353
 9066POPC   C1B52279  32.135  26.620   6.453
 9066POPC   C2B52280  32.152  26.600   6.753
 9066POPC   C3B52281  32.216  26.532   7.053
 9066POPC   C4B52282  32.214  26.583   7.353
 9067POPC   NC352283  27.584  33.023   5.553
 9067POPC   PO452284  27.617  32.999   5.853
 9067POPC   GL152285  27.560  33.002   6.153
 9067POPC   GL252286  27.463  33.102   6.153
 9067POPC   C1A52287  27.572  33.057   6.453
 9067POPC   D2A52288  27.619  33.015   6.753
 9067POPC   C3A52289  27.589  33.043   7.053
 9067POPC   C4A52290  27.573  33.036   7.353
 9067POPC   C1B52291  27.365  33.096   6.453
 9067POPC   C2B52292  27.355  33.108   6.753
 9067POPC   C3B52293  27.401  33.136   7.053
 9067POPC   C4B52294  27.357  33.057   7.353
 9068POPC   NC352295  37.632   2.032   5.553
 9068POPC   PO452296  37.692   1.952   5.853
 9068POPC   GL152297  37.712   2.019   6.153
 9068POPC   GL252298  37.530   2.003   6.153
 9068POPC   C1A52299  37.687   1.963   6.453
 9068POPC   D2A52300  37.688   2.003   6.753
 9068POPC   C3A52301  37.706   2.004   7.053
 9068POPC   C4A52302  37.705   2.039   7.353
 9068POPC   C1B52303  37.453   2.072   6.453
 9068POPC   C2B52304  37.466   2.051   6.753
 9068POPC   C3B52305  37.490   2.087   7.053
 9068POPC   C4B52306  37.457   2.086   7.353
 9069POPC   NC352307  14.404  42.350   5.553
 9069POPC   PO452308  14.444  42.299   5.853
 9069POPC   GL152309  14.355  42.384   6.153
 9069POPC   GL252310  14.282  42.340   6.153
 9069POPC   C1A52311  14.424  42.303   6.453
 9069POPC   D2A52312  14.398  42.384   6.753
 9069POPC   C3A52313  14.430  42.336   7.053
 9069POPC   C4A52314  14.369  42.300   7.353
 9069POPC   C1B52315  14.118  42.348   6.453
 9069POPC   C2B52316  14.152  42.375   6.753
 9069POPC   C3B52317  14.116  42.383   7.053
 9069POPC   C4B52318  14.180  42.383   7.353
 9070POPC   NC352319  36.872  30.707   5.553
 9070POPC   PO452320  36.921  30.711   5.853
 9070POPC   GL152321  36.868  30.659   6.153
 9070POPC   GL252322  37.028  30.710   6.153
 9070POPC   C1A52323  36.922  30.713   6.453
 9070POPC   D2A52324  36.860  30.670   6.753
 9070POPC   C3A52325  36.915  30.657   7.053
 9070POPC   C4A52326  36.931  30.661   7.353
 9070POPC   C1B52327  37.117  30.596   6.453
 9070POPC   C2B52328  37.140  30.623   6.753
 9070POPC   C3B52329  37.160  30.658   7.053
 9070POPC   C4B52330  37.162  30.659   7.353
 9071POPC   NC352331   4.313  19.875   5.553
 9071POPC   PO452332   4.276  19.803   5.853
 9071POPC   GL152333   4.358  19.801   6.153
 9071POPC   GL252334   4.374  19.751   6.153
 9071POPC   C1A52335   4.323  19.843   6.453
 9071POPC   D2A52336   4.278  19.802   6.753
 9071POPC   C3A52337   4.303  19.808   7.053
 9071POPC   C4A52338   4.346  19.865   7.353
 9071POPC   C1B52339   4.479  19.649   6.453
 9071POPC   C2B52340   4.503  19.663   6.753
 9071POPC   C3B52341   4.432  19.672   7.053
 9071POPC   C4B52342   4.466  19.603   7.353
 9072POPC   NC352343  14.423   6.624   5.553
 9072POPC   PO452344  14.383   6.660   5.853
 9072POPC   GL152345  14.436   6.624   6.153
 9072POPC   GL252346  14.489   6.649   6.153
 9072POPC   C1A52347  14.361   6.690   6.453
 9072POPC   D2A52348  14.356   6.693   6.753
 9072POPC   C3A52349  14.377   6.616   7.053
 9072POPC   C4A52350  14.370   6.596   7.353
 9072POPC   C1B52351  14.636   6.688   6.453
 9072POPC   C2B52352  14.614   6.679   6.753
 9072POPC   C3B52353  14.607   6.634   7.053
 9072POPC   C4B52354  14.690   6.695   7.353
 9073POPC   NC352355  36.146  28.371   5.553
 9073POPC   PO452356  36.168  28.327   5.853
 9073POPC   GL152357  36.137  28.363   6.153
 9073POPC   GL252358  36.196  28.215   6.153
 9073POPC   C1A52359  36.148  28.354   6.453
 9073POPC   D2A52360  36.145  28.365   6.753
 9073POPC   C3A52361  36.084  28.417   7.053
 9073POPC   C4A52362  36.098  28.326   7.353
 9073POPC   C1B52363  36.237  28.160   6.453
 9073POPC   C2B52364  36.216  28.133   6.753
 9073POPC   C3B52365  36.193  28.133   7.053
 9073POPC   C4B52366  36.229  28.177   7.353
 9074POPC   NC352367  36.932  27.582   5.553
 9074POPC   PO452368  36.894  27.554   5.853
 9074POPC   GL152369  36.876  27.547   6.153
 9074POPC   GL252370  36.966  27.485   6.153
 9074POPC   C1A52371  36.931  27.593   6.453
 9074POPC   D2A52372  36.902  27.602   6.753
 9074POPC   C3A52373  36.869  27.584   7.053
 9074POPC   C4A52374  36.918  27.573   7.353
 9074POPC   C1B52375  37.030  27.423   6.453
 9074POPC   C2B52376  37.055  27.415   6.753
 9074POPC   C3B52377  37.043  27.360   7.053
 9074POPC   C4B52378  37.060  27.401   7.353
 9075POPC   NC352379  43.914   9.708   5.553
 9075POPC   PO452380  43.858   9.790   5.853
 9075POPC   GL152381  43.919   9.744   6.153
 9075POPC   GL252382  43.945   9.663   6.153
 9075POPC   C1A52383  43.905   9.748   6.453
 9075POPC   D2A52384  43.919   9.775   6.753
 9075POPC   C3A52385  43.912   9.788   7.053
 9075POPC   C4A52386  43.892   9.788   7.353
 9075POPC   C1B52387  44.042   9.526   6.453
 9075POPC   C2B52388  43.989   9.519   6.753
 9075POPC   C3B52389  44.005   9.568   7.053
 9075POPC   C4B52390  43.975   9.496   7.353
 9076POPC   NC352391  33.813   4.343   5.553
 9076POPC   PO452392  33.799   4.276   5.853
 9076POPC   GL152393  33.843   4.364   6.153
 9076POPC   GL252394  33.698   4.400   6.153
 9076POPC   C1A52395  33.755   4.366   6.453
 9076POPC   D2A52396  33.818   4.361   6.753
 9076POPC   C3A52397  33.849   4.283   7.053
 9076POPC   C4A52398  33.843   4.307   7.353
 9076POPC   C1B52399  33.627   4.516   6.453
 9076POPC   C2B52400  33.634   4.498   6.753
 9076POPC   C3B52401  33.651   4.551   7.053
 9076POPC   C4B52402  33.594   4.500   7.353
 9077POPC   NC352403  41.540   2.040   5.553
 9077POPC   PO452404  41.570   1.976   5.853
 9077POPC   GL152405  41.525   1.947   6.153
 9077POPC   GL252406  41.499   2.080   6.153
 9077POPC   C1A52407  41.518   1.979   6.453
 9077POPC   D2A52408  41.534   1.964   6.753
 9077POPC   C3A52409  41.533   1.946   7.053
 9077POPC   C4A52410  41.561   2.034   7.353
 9077POPC   C1B52411  41.388   2.238   6.453
 9077POPC   C2B52412  41.433   2.166   6.753
 9077POPC   C3B52413  41.400   2.214   7.053
 9077POPC   C4B52414  41.381   2.233   7.353
 9078POPC   NC352415   6.613  22.971   5.553
 9078POPC   PO452416   6.601  22.919   5.853
 9078POPC   GL152417   6.662  22.948   6.153
 9078POPC   GL252418   6.668  22.770   6.153
 9078POPC   C1A52419   6.633  22.907   6.453
 9078POPC   D2A52420   6.693  22.897   6.753
 9078POPC   C3A52421   6.658  22.891   7.053
 9078POPC   C4A52422   6.629  22.976   7.353
 9078POPC   C1B52423   6.627  22.640   6.453
 9078POPC   C2B52424   6.688  22.688   6.753
 9078POPC   C3B52425   6.643  22.640   7.053
 9078POPC   C4B52426   6.617  22.695   7.353
 9079POPC   NC352427  13.632  20.629   5.553
 9079POPC   PO452428  13.607  20.586   5.853
 9079POPC   GL152429  13.582  20.637   6.153
 9079POPC   GL252430  13.519  20.585   6.153
 9079POPC   C1A52431  13.641  20.593   6.453
 9079POPC   D2A52432  13.636  20.607   6.753
 9079POPC   C3A52433  13.606  20.631   7.053
 9079POPC   C4A52434  13.597  20.599   7.353
 9079POPC   C1B52435  13.400  20.523   6.453
 9079POPC   C2B52436  13.361  20.524   6.753
 9079POPC   C3B52437  13.390  20.532   7.053
 9079POPC   C4B52438  13.381  20.561   7.353
 9080POPC   NC352439   5.884  24.459   5.553
 9080POPC   PO452440   5.861  24.493   5.853
 9080POPC   GL152441   5.838  24.444   6.153
 9080POPC   GL252442   5.715  24.495   6.153
 9080POPC   C1A52443   5.863  24.501   6.453
 9080POPC   D2A52444   5.837  24.444   6.753
 9080POPC   C3A52445   5.853  24.456   7.053
 9080POPC   C4A52446   5.884  24.470   7.353
 9080POPC   C1B52447   5.579  24.563   6.453
 9080POPC   C2B52448   5.600  24.557   6.753
 9080POPC   C3B52449   5.618  24.555   7.053
 9080POPC   C4B52450   5.630  24.530   7.353
 9081POPC   NC352451  15.211  19.799   5.553
 9081POPC   PO452452  15.156  19.841   5.853
 9081POPC   GL152453  15.141  19.843   6.153
 9081POPC   GL252454  15.042  19.856   6.153
 9081POPC   C1A52455  15.172  19.842   6.453
 9081POPC   D2A52456  15.166  19.864   6.753
 9081POPC   C3A52457  15.162  19.860   7.053
 9081POPC   C4A52458  15.194  19.823   7.353
 9081POPC   C1B52459  14.924  19.896   6.453
 9081POPC   C2B52460  14.959  19.812   6.753
 9081POPC   C3B52461  14.917  19.865   7.053
 9081POPC   C4B52462  14.929  19.884   7.353
 9082POPC   NC352463   7.426   8.197   5.553
 9082POPC   PO452464   7.417   8.221   5.853
 9082POPC   GL152465   7.416   8.179   6.153
 9082POPC   GL252466   7.335   8.183   6.153
 9082POPC   C1A52467   7.426   8.194   6.453
 9082POPC   D2A52468   7.440   8.225   6.753
 9082POPC   C3A52469   7.425   8.220   7.053
 9082POPC   C4A52470   7.397   8.149   7.353
 9082POPC   C1B52471   7.203   8.142   6.453
 9082POPC   C2B52472   7.137   8.140   6.753
 9082POPC   C3B52473   7.224   8.136   7.053
 9082POPC   C4B52474   7.173   8.168   7.353
 9083POPC   NC352475   0.435  12.124   5.553
 9083POPC   PO452476   0.456  12.095   5.853
 9083POPC   GL152477   0.442  12.065   6.153
 9083POPC   GL252478   0.495  11.967   6.153
 9083POPC   C1A52479   0.413  12.084   6.453
 9083POPC   D2A52480   0.402  12.069   6.753
 9083POPC   C3A52481   0.475  12.048   7.053
 9083POPC   C4A52482   0.391  12.095   7.353
 9083POPC   C1B52483   0.557  11.863   6.453
 9083POPC   C2B52484   0.575  11.892   6.753
 9083POPC   C3B52485   0.568  11.874   7.053
 9083POPC   C4B52486   0.566  11.892   7.353
 9084POPC   NC352487  15.964  37.690   5.553
 9084POPC   PO452488  15.922  37.648   5.853
 9084POPC   GL152489  15.947  37.676   6.153
 9084POPC   GL252490  16.047  37.527   6.153
 9084POPC   C1A52491  15.920  37.632   6.453
 9084POPC   D2A52492  15.927  37.660   6.753
 9084POPC   C3A52493  15.994  37.695   7.053
 9084POPC   C4A52494  15.985  37.688   7.353
 9084POPC   C1B52495  16.037  37.460   6.453
 9084POPC   C2B52496  16.113  37.454   6.753
 9084POPC   C3B52497  16.055  37.489   7.053
 9084POPC   C4B52498  16.110  37.490   7.353
 9085POPC   NC352499  40.831  27.543   5.553
 9085POPC   PO452500  40.802  27.590   5.853
 9085POPC   GL152501  40.751  27.578   6.153
 9085POPC   GL252502  40.719  27.456   6.153
 9085POPC   C1A52503  40.757  27.599   6.453
 9085POPC   D2A52504  40.749  27.619   6.753
 9085POPC   C3A52505  40.742  27.555   7.053
 9085POPC   C4A52506  40.773  27.586   7.353
 9085POPC   C1B52507  40.730  27.341   6.453
 9085POPC   C2B52508  40.688  27.342   6.753
 9085POPC   C3B52509  40.673  27.311   7.053
 9085POPC   C4B52510  40.714  27.377   7.353
 9086POPC   NC352511   0.471  21.356   5.553
 9086POPC   PO452512   0.409  21.340   5.853
 9086POPC   GL152513   0.480  21.434   6.153
 9086POPC   GL252514   0.426  21.232   6.153
 9086POPC   C1A52515   0.417  21.392   6.453
 9086POPC   D2A52516   0.421  21.388   6.753
 9086POPC   C3A52517   0.402  21.378   7.053
 9086POPC   C4A52518   0.409  21.416   7.353
 9086POPC   C1B52519   0.471  21.139   6.453
 9086POPC   C2B52520   0.394  21.106   6.753
 9086POPC   C3B52521   0.428  21.120   7.053
 9086POPC   C4B52522   0.436  21.173   7.353
 9087POPC   NC352523  11.292  34.613   5.553
 9087POPC   PO452524  11.270  34.583   5.853
 9087POPC   GL152525  11.328  34.606   6.153
 9087POPC   GL252526  11.243  34.435   6.153
 9087POPC   C1A52527  11.271  34.572   6.453
 9087POPC   D2A52528  11.346  34.598   6.753
 9087POPC   C3A52529  11.342  34.590   7.053
 9087POPC   C4A52530  11.292  34.576   7.353
 9087POPC   C1B52531  11.089  34.429   6.453
 9087POPC   C2B52532  11.140  34.354   6.753
 9087POPC   C3B52533  11.164  34.374   7.053
 9087POPC   C4B52534  11.169  34.435   7.353
 9088POPC   NC352535  22.132   1.964   5.553
 9088POPC   PO452536  22.166   1.954   5.853
 9088POPC   GL152537  22.135   1.940   6.153
 9088POPC   GL252538  22.223   1.851   6.153
 9088POPC   C1A52539  22.202   1.967   6.453
 9088POPC   D2A52540  22.157   2.006   6.753
 9088POPC   C3A52541  22.133   1.964   7.053
 9088POPC   C4A52542  22.193   1.983   7.353
 9088POPC   C1B52543  22.272   1.769   6.453
 9088POPC   C2B52544  22.305   1.807   6.753
 9088POPC   C3B52545  22.290   1.736   7.053
 9088POPC   C4B52546  22.312   1.797   7.353
 9089POPC   NC352547  22.150  21.353   5.553
 9089POPC   PO452548  22.193  21.391   5.853
 9089POPC   GL152549  22.146  21.423   6.153
 9089POPC   GL252550  22.196  21.547   6.153
 9089POPC   C1A52551  22.115  21.432   6.453
 9089POPC   D2A52552  22.146  21.394   6.753
 9089POPC   C3A52553  22.180  21.398   7.053
 9089POPC   C4A52554  22.178  21.403   7.353
 9089POPC   C1B52555  22.196  21.584   6.453
 9089POPC   C2B52556  22.173  21.609   6.753
 9089POPC   C3B52557  22.163  21.656   7.053
 9089POPC   C4B52558  22.241  21.618   7.353
 9090POPC   NC352559  17.539  43.099   5.553
 9090POPC   PO452560  17.471  43.127   5.853
 9090POPC   GL152561  17.502  43.095   6.153
 9090POPC   GL252562  17.581  43.029   6.153
 9090POPC   C1A52563  17.513  43.068   6.453
 9090POPC   D2A52564  17.532  43.152   6.753
 9090POPC   C3A52565  17.459  43.083   7.053
 9090POPC   C4A52566  17.457  43.145   7.353
 9090POPC   C1B52567  17.686  42.961   6.453
 9090POPC   C2B52568  17.693  42.979   6.753
 9090POPC   C3B52569  17.717  43.046   7.053
 9090POPC   C4B52570  17.743  42.981   7.353
 9091POPC   NC352571   8.166  16.764   5.553
 9091POPC   PO452572   8.187  16.779   5.853
 9091POPC   GL152573   8.210  16.730   6.153
 9091POPC   GL252574   8.069  16.773   6.153
 9091POPC   C1A52575   8.194  16.685   6.453
 9091POPC   D2A52576   8.193  16.735   6.753
 9091POPC   C3A52577   8.181  16.773   7.053
 9091POPC   C4A52578   8.155  16.727   7.353
 9091POPC   C1B52579   7.994  16.857   6.453
 9091POPC   C2B52580   8.015  16.844   6.753
 9091POPC   C3B52581   8.030  16.884   7.053
 9091POPC   C4B52582   7.973  16.898   7.353
 9092POPC   NC352583  38.429   4.294   5.553
 9092POPC   PO452584  38.504   4.358   5.853
 9092POPC   GL152585  38.412   4.309   6.153
 9092POPC   GL252586  38.502   4.469   6.153
 9092POPC   C1A52587  38.411   4.314   6.453
 9092POPC   D2A52588  38.496   4.344   6.753
 9092POPC   C3A52589  38.474   4.275   7.053
 9092POPC   C4A52590  38.473   4.359   7.353
 9092POPC   C1B52591  38.491   4.576   6.453
 9092POPC   C2B52592  38.466   4.562   6.753
 9092POPC   C3B52593  38.484   4.564   7.053
 9092POPC   C4B52594  38.495   4.551   7.353
 9093POPC   NC352595  33.842  32.243   5.553
 9093POPC   PO452596  33.775  32.211   5.853
 9093POPC   GL152597  33.820  32.246   6.153
 9093POPC   GL252598  33.678  32.363   6.153
 9093POPC   C1A52599  33.811  32.252   6.453
 9093POPC   D2A52600  33.776  32.211   6.753
 9093POPC   C3A52601  33.840  32.298   7.053
 9093POPC   C4A52602  33.752  32.252   7.353
 9093POPC   C1B52603  33.643  32.390   6.453
 9093POPC   C2B52604  33.651  32.416   6.753
 9093POPC   C3B52605  33.574  32.395   7.053
 9093POPC   C4B52606  33.609  32.384   7.353
 9094POPC   NC352607   4.337  18.244   5.553
 9094POPC   PO452608   4.320  18.317   5.853
 9094POPC   GL152609   4.275  18.321   6.153
 9094POPC   GL252610   4.409  18.256   6.153
 9094POPC   C1A52611   4.307  18.295   6.453
 9094POPC   D2A52612   4.334  18.275   6.753
 9094POPC   C3A52613   4.334  18.308   7.053
 9094POPC   C4A52614   4.356  18.332   7.353
 9094POPC   C1B52615   4.521  18.257   6.453
 9094POPC   C2B52616   4.599  18.258   6.753
 9094POPC   C3B52617   4.553  18.201   7.053
 9094POPC   C4B52618   4.585  18.189   7.353
 9095POPC   NC352619   6.690  36.169   5.553
 9095POPC   PO452620   6.615  36.172   5.853
 9095POPC   GL152621   6.666  36.109   6.153
 9095POPC   GL252622   6.723  36.102   6.153
 9095POPC   C1A52623   6.611  36.158   6.453
 9095POPC   D2A52624   6.608  36.135   6.753
 9095POPC   C3A52625   6.643  36.116   7.053
 9095POPC   C4A52626   6.668  36.135   7.353
 9095POPC   C1B52627   6.845  35.993   6.453
 9095POPC   C2B52628   6.848  36.050   6.753
 9095POPC   C3B52629   6.924  36.031   7.053
 9095POPC   C4B52630   6.883  36.014   7.353
 9096POPC   NC352631  11.337  14.402   5.553
 9096POPC   PO452632  11.267  14.425   5.853
 9096POPC   GL152633  11.328  14.425   6.153
 9096POPC   GL252634  11.219  14.459   6.153
 9096POPC   C1A52635  11.341  14.419   6.453
 9096POPC   D2A52636  11.306  14.445   6.753
 9096POPC   C3A52637  11.331  14.357   7.053
 9096POPC   C4A52638  11.338  14.370   7.353
 9096POPC   C1B52639  11.120  14.557   6.453
 9096POPC   C2B52640  11.047  14.514   6.753
 9096POPC   C3B52641  11.118  14.559   7.053
 9096POPC   C4B52642  11.031  14.512   7.353
 9097POPC   NC352643  12.085  44.707   5.553
 9097POPC   PO452644  12.031  44.692   5.853
 9097POPC   GL152645  12.123  44.627   6.153
 9097POPC   GL252646  11.972  44.561   6.153
 9097POPC   C1A52647  12.101  44.691   6.453
 9097POPC   D2A52648  12.048  44.661   6.753
 9097POPC   C3A52649  12.108  44.683   7.053
 9097POPC   C4A52650  12.089  44.648   7.353
 9097POPC   C1B52651  11.898  44.509   6.453
 9097POPC   C2B52652  11.853  44.527   6.753
 9097POPC   C3B52653  11.834  44.502   7.053
 9097POPC   C4B52654  11.852  44.474   7.353
 9098POPC   NC352655  18.248  16.698   5.553
 9098POPC   PO452656  18.322  16.759   5.853
 9098POPC   GL152657  18.294  16.682   6.153
 9098POPC   GL252658  18.110  16.782   6.153
 9098POPC   C1A52659  18.317  16.754   6.453
 9098POPC   D2A52660  18.311  16.770   6.753
 9098POPC   C3A52661  18.260  16.777   7.053
 9098POPC   C4A52662  18.310  16.696   7.353
 9098POPC   C1B52663  18.037  16.731   6.453
 9098POPC   C2B52664  17.998  16.794   6.753
 9098POPC   C3B52665  18.019  16.794   7.053
 9098POPC   C4B52666  18.015  16.730   7.353
 9099POPC   NC352667   3.551   8.148   5.553
 9099POPC   PO452668   3.581   8.190   5.853
 9099POPC   GL152669   3.517   8.218   6.153
 9099POPC   GL252670   3.697   8.192   6.153
 9099POPC   C1A52671   3.519   8.213   6.453
 9099POPC   D2A52672   3.548   8.172   6.753
 9099POPC   C3A52673   3.492   8.222   7.053
 9099POPC   C4A52674   3.546   8.221   7.353
 9099POPC   C1B52675   3.838   8.251   6.453
 9099POPC   C2B52676   3.797   8.188   6.753
 9099POPC   C3B52677   3.810   8.246   7.053
 9099POPC   C4B52678   3.781   8.188   7.353
 9100POPC   NC352679  26.000  26.045   5.553
 9100POPC   PO452680  26.079  26.080   5.853
 9100POPC   GL152681  26.021  26.080   6.153
 9100POPC   GL252682  26.131  26.155   6.153
 9100POPC   C1A52683  25.996  26.029   6.453
 9100POPC   D2A52684  26.009  26.013   6.753
 9100POPC   C3A52685  25.999  26.028   7.053
 9100POPC   C4A52686  26.075  26.043   7.353
 9100POPC   C1B52687  26.167  26.274   6.453
 9100POPC   C2B52688  26.166  26.236   6.753
 9100POPC   C3B52689  26.213  26.285   7.053
 9100POPC   C4B52690  26.201  26.251   7.353
 9101POPC   NC352691  11.269  36.144   5.553
 9101POPC   PO452692  11.310  36.127   5.853
 9101POPC   GL152693  11.301  36.078   6.153
 9101POPC   GL252694  11.203  36.072   6.153
 9101POPC   C1A52695  11.338  36.160   6.453
 9101POPC   D2A52696  11.308  36.118   6.753
 9101POPC   C3A52697  11.315  36.110   7.053
 9101POPC   C4A52698  11.332  36.105   7.353
 9101POPC   C1B52699  11.162  35.882   6.453
 9101POPC   C2B52700  11.184  35.939   6.753
 9101POPC   C3B52701  11.203  35.967   7.053
 9101POPC   C4B52702  11.195  35.892   7.353
 9102POPC   NC352703   5.045  11.261   5.553
 9102POPC   PO452704   5.107  11.306   5.853
 9102POPC   GL152705   5.067  11.290   6.153
 9102POPC   GL252706   4.998  11.249   6.153
 9102POPC   C1A52707   5.106  11.270   6.453
 9102POPC   D2A52708   5.139  11.304   6.753
 9102POPC   C3A52709   5.095  11.285   7.053
 9102POPC   C4A52710   5.107  11.276   7.353
 9102POPC   C1B52711   4.832  11.266   6.453
 9102POPC   C2B52712   4.796  11.303   6.753
 9102POPC   C3B52713   4.874  11.222   7.053
 9102POPC   C4B52714   4.816  11.227   7.353
 9103POPC   NC352715  43.907  24.472   5.553
 9103POPC   PO452716  43.915  24.527   5.853
 9103POPC   GL152717  43.865  24.448   6.153
 9103POPC   GL252718  43.769  24.592   6.153
 9103POPC   C1A52719  43.837  24.518   6.453
 9103POPC   D2A52720  43.922  24.475   6.753
 9103POPC   C3A52721  43.859  24.473   7.053
 9103POPC   C4A52722  43.899  24.469   7.353
 9103POPC   C1B52723  43.769  24.657   6.453
 9103POPC   C2B52724  43.773  24.721   6.753
 9103POPC   C3B52725  43.736  24.703   7.053
 9103POPC   C4B52726  43.734  24.676   7.353
 9104POPC   NC352727  32.999   0.407   5.553
 9104POPC   PO452728  33.015   0.476   5.853
 9104POPC   GL152729  33.003   0.485   6.153
 9104POPC   GL252730  32.967   0.488   6.153
 9104POPC   C1A52731  33.033   0.473   6.453
 9104POPC   D2A52732  33.056   0.458   6.753
 9104POPC   C3A52733  33.025   0.480   7.053
 9104POPC   C4A52734  33.010   0.453   7.353
 9104POPC   C1B52735  32.859   0.610   6.453
 9104POPC   C2B52736  32.837   0.617   6.753
 9104POPC   C3B52737  32.858   0.611   7.053
 9104POPC   C4B52738  32.909   0.652   7.353
 9105POPC   NC352739  16.773  39.253   5.553
 9105POPC   PO452740  16.773  39.267   5.853
 9105POPC   GL152741  16.695  39.267   6.153
 9105POPC   GL252742  16.642  39.287   6.153
 9105POPC   C1A52743  16.747  39.274   6.453
 9105POPC   D2A52744  16.725  39.257   6.753
 9105POPC   C3A52745  16.691  39.246   7.053
 9105POPC   C4A52746  16.742  39.202   7.353
 9105POPC   C1B52747  16.596  39.379   6.453
 9105POPC   C2B52748  16.531  39.411   6.753
 9105POPC   C3B52749  16.590  39.398   7.053
 9105POPC   C4B52750  16.561  39.425   7.353
 9106POPC   NC352751  33.027  44.675   5.553
 9106POPC   PO452752  33.008  44.702   5.853
 9106POPC   GL152753  33.028  44.709   6.153
 9106POPC   GL252754  33.095  44.756   6.153
 9106POPC   C1A52755  33.014  44.630   6.453
 9106POPC   D2A52756  32.980  44.620   6.753
 9106POPC   C3A52757  32.997  44.641   7.053
 9106POPC   C4A52758  32.986  44.676   7.353
 9106POPC   C1B52759  33.197  44.740   6.453
 9106POPC   C2B52760  33.199  44.803   6.753
 9106POPC   C3B52761  33.243  44.833   7.053
 9106POPC   C4B52762  33.203  44.762   7.353
 9107POPC   NC352763  16.688  38.442   5.553
 9107POPC   PO452764  16.773  38.426   5.853
 9107POPC   GL152765  16.756  38.496   6.153
 9107POPC   GL252766  16.655  38.562   6.153
 9107POPC   C1A52767  16.765  38.456   6.453
 9107POPC   D2A52768  16.691  38.447   6.753
 9107POPC   C3A52769  16.689  38.429   7.053
 9107POPC   C4A52770  16.728  38.462   7.353
 9107POPC   C1B52771  16.549  38.651   6.453
 9107POPC   C2B52772  16.526  38.572   6.753
 9107POPC   C3B52773  16.505  38.587   7.053
 9107POPC   C4B52774  16.552  38.572   7.353
 9108POPC   NC352775  28.378  29.122   5.553
 9108POPC   PO452776  28.325  29.151   5.853
 9108POPC   GL152777  28.410  29.136   6.153
 9108POPC   GL252778  28.217  29.234   6.153
 9108POPC   C1A52779  28.325  29.145   6.453
 9108POPC   D2A52780  28.342  29.190   6.753
 9108POPC   C3A52781  28.399  29.153   7.053
 9108POPC   C4A52782  28.349  29.143   7.353
 9108POPC   C1B52783  28.114  29.250   6.453
 9108POPC   C2B52784  28.111  29.321   6.753
 9108POPC   C3B52785  28.190  29.272   7.053
 9108POPC   C4B52786  28.133  29.269   7.353
 9109POPC   NC352787  24.451  15.922   5.553
 9109POPC   PO452788  24.495  15.960   5.853
 9109POPC   GL152789  24.460  15.966   6.153
 9109POPC   GL252790  24.369  15.937   6.153
 9109POPC   C1A52791  24.487  15.923   6.453
 9109POPC   D2A52792  24.508  15.922   6.753
 9109POPC   C3A52793  24.514  15.940   7.053
 9109POPC   C4A52794  24.471  15.957   7.353
 9109POPC   C1B52795  24.294  15.898   6.453
 9109POPC   C2B52796  24.223  15.865   6.753
 9109POPC   C3B52797  24.266  15.884   7.053
 9109POPC   C4B52798  24.227  15.825   7.353
 9110POPC   NC352799   9.750  19.863   5.553
 9110POPC   PO452800   9.772  19.866   5.853
 9110POPC   GL152801   9.773  19.799   6.153
 9110POPC   GL252802   9.614  19.794   6.153
 9110POPC   C1A52803   9.708  19.805   6.453
 9110POPC   D2A52804   9.748  19.826   6.753
 9110POPC   C3A52805   9.781  19.829   7.053
 9110POPC   C4A52806   9.726  19.794   7.353
 9110POPC   C1B52807   9.550  19.633   6.453
 9110POPC   C2B52808   9.521  19.648   6.753
 9110POPC   C3B52809   9.550  19.629   7.053
 9110POPC   C4B52810   9.559  19.666   7.353
 9111POPC   NC352811  15.221  12.804   5.553
 9111POPC   PO452812  15.205  12.889   5.853
 9111POPC   GL152813  15.172  12.847   6.153
 9111POPC   GL252814  15.051  12.825   6.153
 9111POPC   C1A52815  15.164  12.892   6.453
 9111POPC   D2A52816  15.214  12.805   6.753
 9111POPC   C3A52817  15.149  12.881   7.053
 9111POPC   C4A52818  15.177  12.881   7.353
 9111POPC   C1B52819  14.955  12.877   6.453
 9111POPC   C2B52820  14.966  12.842   6.753
 9111POPC   C3B52821  14.905  12.861   7.053
 9111POPC   C4B52822  14.881  12.805   7.353
 9112POPC   NC352823  12.821  15.972   5.553
 9112POPC   PO452824  12.873  15.968   5.853
 9112POPC   GL152825  12.806  15.933   6.153
 9112POPC   GL252826  12.916  15.886   6.153
 9112POPC   C1A52827  12.865  15.929   6.453
 9112POPC   D2A52828  12.863  15.962   6.753
 9112POPC   C3A52829  12.877  15.925   7.053
 9112POPC   C4A52830  12.850  15.987   7.353
 9112POPC   C1B52831  13.001  15.734   6.453
 9112POPC   C2B52832  13.017  15.829   6.753
 9112POPC   C3B52833  13.011  15.804   7.053
 9112POPC   C4B52834  13.000  15.754   7.353
 9113POPC   NC352835  44.691   2.799   5.553
 9113POPC   PO452836  44.688   2.797   5.853
 9113POPC   GL152837  44.625   2.779   6.153
 9113POPC   GL252838  44.687   2.932   6.153
 9113POPC   C1A52839  44.682   2.725   6.453
 9113POPC   D2A52840  44.704   2.717   6.753
 9113POPC   C3A52841  44.691   2.765   7.053
 9113POPC   C4A52842  44.663   2.785   7.353
 9113POPC   C1B52843  44.702   2.994   6.453
 9113POPC   C2B52844  44.674   3.037   6.753
 9113POPC   C3B52845  44.680   2.981   7.053
 9113POPC   C4B52846  44.688   3.040   7.353
 9114POPC   NC352847   1.232   6.603   5.553
 9114POPC   PO452848   1.165   6.636   5.853
 9114POPC   GL152849   1.250   6.680   6.153
 9114POPC   GL252850   1.279   6.738   6.153
 9114POPC   C1A52851   1.225   6.613   6.453
 9114POPC   D2A52852   1.194   6.668   6.753
 9114POPC   C3A52853   1.197   6.635   7.053
 9114POPC   C4A52854   1.261   6.645   7.353
 9114POPC   C1B52855   1.324   6.820   6.453
 9114POPC   C2B52856   1.292   6.908   6.753
 9114POPC   C3B52857   1.313   6.826   7.053
 9114POPC   C4B52858   1.344   6.834   7.353
 9115POPC   NC352859  28.370   3.538   5.553
 9115POPC   PO452860  28.351   3.501   5.853
 9115POPC   GL152861  28.408   3.554   6.153
 9115POPC   GL252862  28.404   3.409   6.153
 9115POPC   C1A52863  28.369   3.510   6.453
 9115POPC   D2A52864  28.345   3.588   6.753
 9115POPC   C3A52865  28.356   3.570   7.053
 9115POPC   C4A52866  28.364   3.588   7.353
 9115POPC   C1B52867  28.483   3.301   6.453
 9115POPC   C2B52868  28.471   3.270   6.753
 9115POPC   C3B52869  28.452   3.279   7.053
 9115POPC   C4B52870  28.499   3.278   7.353
 9116POPC   NC352871  43.155  19.037   5.553
 9116POPC   PO452872  43.135  19.097   5.853
 9116POPC   GL152873  43.139  19.035   6.153
 9116POPC   GL252874  43.094  18.974   6.153
 9116POPC   C1A52875  43.069  19.082   6.453
 9116POPC   D2A52876  43.126  19.076   6.753
 9116POPC   C3A52877  43.135  19.067   7.053
 9116POPC   C4A52878  43.068  19.064   7.353
 9116POPC   C1B52879  43.194  18.810   6.453
 9116POPC   C2B52880  43.131  18.782   6.753
 9116POPC   C3B52881  43.210  18.785   7.053
 9116POPC   C4B52882  43.138  18.792   7.353
 9117POPC   NC352883  28.397  33.049   5.553
 9117POPC   PO452884  28.410  32.981   5.853
 9117POPC   GL152885  28.390  33.065   6.153
 9117POPC   GL252886  28.328  32.918   6.153
 9117POPC   C1A52887  28.359  33.025   6.453
 9117POPC   D2A52888  28.321  33.056   6.753
 9117POPC   C3A52889  28.360  33.071   7.053
 9117POPC   C4A52890  28.321  33.063   7.353
 9117POPC   C1B52891  28.281  32.784   6.453
 9117POPC   C2B52892  28.192  32.772   6.753
 9117POPC   C3B52893  28.184  32.771   7.053
 9117POPC   C4B52894  28.250  32.842   7.353
 9118POPC   NC352895  22.963   2.767   5.553
 9118POPC   PO452896  22.922   2.764   5.853
 9118POPC   GL152897  22.970   2.811   6.153
 9118POPC   GL252898  22.779   2.768   6.153
 9118POPC   C1A52899  22.931   2.759   6.453
 9118POPC   D2A52900  22.933   2.768   6.753
 9118POPC   C3A52901  22.934   2.785   7.053
 9118POPC   C4A52902  22.933   2.807   7.353
 9118POPC   C1B52903  22.703   2.669   6.453
 9118POPC   C2B52904  22.654   2.734   6.753
 9118POPC   C3B52905  22.691   2.688   7.053
 9118POPC   C4B52906  22.726   2.687   7.353
 9119POPC   NC352907  13.645  36.092   5.553
 9119POPC   PO452908  13.675  36.152   5.853
 9119POPC   GL152909  13.673  36.114   6.153
 9119POPC   GL252910  13.708  36.152   6.153
 9119POPC   C1A52911  13.645  36.094   6.453
 9119POPC   D2A52912  13.642  36.125   6.753
 9119POPC   C3A52913  13.658  36.148   7.053
 9119POPC   C4A52914  13.639  36.107   7.353
 9119POPC   C1B52915  13.883  36.115   6.453
 9119POPC   C2B52916  13.884  36.155   6.753
 9119POPC   C3B52917  13.873  36.156   7.053
 9119POPC   C4B52918  13.870  36.112   7.353
 9120POPC   NC352919  27.598  33.771   5.553
 9120POPC   PO452920  27.629  33.768   5.853
 9120POPC   GL152921  27.565  33.782   6.153
 9120POPC   GL252922  27.641  33.669   6.153
 9120POPC   C1A52923  27.552  33.800   6.453
 9120POPC   D2A52924  27.591  33.831   6.753
 9120POPC   C3A52925  27.638  33.753   7.053
 9120POPC   C4A52926  27.585  33.777   7.353
 9120POPC   C1B52927  27.679  33.587   6.453
 9120POPC   C2B52928  27.734  33.570   6.753
 9120POPC   C3B52929  27.669  33.602   7.053
 9120POPC   C4B52930  27.683  33.577   7.353
 9121POPC   NC352931   7.456   5.068   5.553
 9121POPC   PO452932   7.432   5.109   5.853
 9121POPC   GL152933   7.401   5.097   6.153
 9121POPC   GL252934   7.556   5.050   6.153
 9121POPC   C1A52935   7.380   5.089   6.453
 9121POPC   D2A52936   7.380   5.143   6.753
 9121POPC   C3A52937   7.450   5.136   7.053
 9121POPC   C4A52938   7.444   5.113   7.353
 9121POPC   C1B52939   7.645   4.997   6.453
 9121POPC   C2B52940   7.684   4.993   6.753
 9121POPC   C3B52941   7.673   4.972   7.053
 9121POPC   C4B52942   7.642   4.958   7.353
 9122POPC   NC352943  10.514  18.313   5.553
 9122POPC   PO452944  10.521  18.329   5.853
 9122POPC   GL152945  10.494  18.330   6.153
 9122POPC   GL252946  10.406  18.197   6.153
 9122POPC   C1A52947  10.536  18.318   6.453
 9122POPC   D2A52948  10.475  18.325   6.753
 9122POPC   C3A52949  10.546  18.295   7.053
 9122POPC   C4A52950  10.533  18.294   7.353
 9122POPC   C1B52951  10.382  18.039   6.453
 9122POPC   C2B52952  10.397  18.074   6.753
 9122POPC   C3B52953  10.387  18.048   7.053
 9122POPC   C4B52954  10.348  18.122   7.353
 9123POPC   NC352955  33.821   7.468   5.553
 9123POPC   PO452956  33.764   7.385   5.853
 9123POPC   GL152957  33.826   7.373   6.153
 9123POPC   GL252958  33.769   7.494   6.153
 9123POPC   C1A52959  33.782   7.446   6.453
 9123POPC   D2A52960  33.848   7.403   6.753
 9123POPC   C3A52961  33.800   7.384   7.053
 9123POPC   C4A52962  33.785   7.397   7.353
 9123POPC   C1B52963  33.734   7.661   6.453
 9123POPC   C2B52964  33.710   7.647   6.753
 9123POPC   C3B52965  33.734   7.668   7.053
 9123POPC   C4B52966  33.760   7.655   7.353
 9124POPC   NC352967  23.746  10.513   5.553
 9124POPC   PO452968  23.753  10.542   5.853
 9124POPC   GL152969  23.678  10.565   6.153
 9124POPC   GL252970  23.556  10.462   6.153
 9124POPC   C1A52971  23.743  10.535   6.453
 9124POPC   D2A52972  23.675  10.567   6.753
 9124POPC   C3A52973  23.748  10.480   7.053
 9124POPC   C4A52974  23.726  10.548   7.353
 9124POPC   C1B52975  23.448  10.473   6.453
 9124POPC   C2B52976  23.512  10.495   6.753
 9124POPC   C3B52977  23.513  10.407   7.053
 9124POPC   C4B52978  23.449  10.461   7.353
 9125POPC   NC352979  34.620  22.181   5.553
 9125POPC   PO452980  34.579  22.117   5.853
 9125POPC   GL152981  34.551  22.154   6.153
 9125POPC   GL252982  34.478  22.128   6.153
 9125POPC   C1A52983  34.610  22.182   6.453
 9125POPC   D2A52984  34.623  22.163   6.753
 9125POPC   C3A52985  34.593  22.194   7.053
 9125POPC   C4A52986  34.589  22.128   7.353
 9125POPC   C1B52987  34.319  22.083   6.453
 9125POPC   C2B52988  34.324  22.058   6.753
 9125POPC   C3B52989  34.298  22.103   7.053
 9125POPC   C4B52990  34.315  22.027   7.353
 9126POPC   NC352991   2.742  29.111   5.553
 9126POPC   PO452992   2.751  29.128   5.853
 9126POPC   GL152993   2.806  29.194   6.153
 9126POPC   GL252994   2.698  29.296   6.153
 9126POPC   C1A52995   2.735  29.188   6.453
 9126POPC   D2A52996   2.724  29.159   6.753
 9126POPC   C3A52997   2.809  29.156   7.053
 9126POPC   C4A52998   2.744  29.168   7.353
 9126POPC   C1B52999   2.686  29.373   6.453
 9126POPC   C2B53000   2.630  29.423   6.753
 9126POPC   C3B53001   2.692  29.389   7.053
 9126POPC   C4B53002   2.664  29.352   7.353
 9127POPC   NC353003  39.213  32.230   5.553
 9127POPC   PO453004  39.222  32.217   5.853
 9127POPC   GL153005  39.213  32.284   6.153
 9127POPC   GL253006  39.327  32.322   6.153
 9127POPC   C1A53007  39.190  32.205   6.453
 9127POPC   D2A53008  39.218  32.199   6.753
 9127POPC   C3A53009  39.255  32.274   7.053
 9127POPC   C4A53010  39.206  32.280   7.353
 9127POPC   C1B53011  39.360  32.457   6.453
 9127POPC   C2B53012  39.411  32.416   6.753
 9127POPC   C3B53013  39.431  32.440   7.053
 9127POPC   C4B53014  39.428  32.437   7.353
 9128POPC   NC353015  33.025  38.504   5.553
 9128POPC   PO453016  32.989  38.419   5.853
 9128POPC   GL153017  33.067  38.436   6.153
 9128POPC   GL253018  32.932  38.474   6.153
 9128POPC   C1A53019  33.018  38.411   6.453
 9128POPC   D2A53020  33.038  38.409   6.753
 9128POPC   C3A53021  32.999  38.492   7.053
 9128POPC   C4A53022  33.046  38.486   7.353
 9128POPC   C1B53023  32.778  38.447   6.453
 9128POPC   C2B53024  32.821  38.387   6.753
 9128POPC   C3B53025  32.807  38.371   7.053
 9128POPC   C4B53026  32.754  38.434   7.353
 9129POPC   NC353027  41.581  20.658   5.553
 9129POPC   PO453028  41.553  20.563   5.853
 9129POPC   GL153029  41.511  20.625   6.153
 9129POPC   GL253030  41.421  20.557   6.153
 9129POPC   C1A53031  41.548  20.592   6.453
 9129POPC   D2A53032  41.544  20.636   6.753
 9129POPC   C3A53033  41.554  20.612   7.053
 9129POPC   C4A53034  41.557  20.574   7.353
 9129POPC   C1B53035  41.368  20.474   6.453
 9129POPC   C2B53036  41.359  20.463   6.753
 9129POPC   C3B53037  41.331  20.486   7.053
 9129POPC   C4B53038  41.403  20.452   7.353
 9130POPC   NC353039  42.323  20.644   5.553
 9130POPC   PO453040  42.311  20.647   5.853
 9130POPC   GL153041  42.379  20.614   6.153
 9130POPC   GL253042  42.210  20.487   6.153
 9130POPC   C1A53043  42.350  20.626   6.453
 9130POPC   D2A53044  42.318  20.622   6.753
 9130POPC   C3A53045  42.329  20.633   7.053
 9130POPC   C4A53046  42.366  20.656   7.353
 9130POPC   C1B53047  42.136  20.401   6.453
 9130POPC   C2B53048  42.169  20.469   6.753
 9130POPC   C3B53049  42.145  20.418   7.053
 9130POPC   C4B53050  42.114  20.476   7.353
 9131POPC   NC353051  43.869  18.309   5.553
 9131POPC   PO453052  43.853  18.249   5.853
 9131POPC   GL153053  43.845  18.284   6.153
 9131POPC   GL253054  43.997  18.269   6.153
 9131POPC   C1A53055  43.837  18.285   6.453
 9131POPC   D2A53056  43.923  18.249   6.753
 9131POPC   C3A53057  43.935  18.311   7.053
 9131POPC   C4A53058  43.931  18.321   7.353
 9131POPC   C1B53059  44.116  18.294   6.453
 9131POPC   C2B53060  44.155  18.329   6.753
 9131POPC   C3B53061  44.144  18.281   7.053
 9131POPC   C4B53062  44.137  18.355   7.353
 9132POPC   NC353063  24.441   5.132   5.553
 9132POPC   PO453064  24.512   5.132   5.853
 9132POPC   GL153065  24.524   5.104   6.153
 9132POPC   GL253066  24.526   4.957   6.153
 9132POPC   C1A53067  24.534   5.086   6.453
 9132POPC   D2A53068  24.531   5.122   6.753
 9132POPC   C3A53069  24.471   5.094   7.053
 9132POPC   C4A53070  24.476   5.050   7.353
 9132POPC   C1B53071  24.483   4.815   6.453
 9132POPC   C2B53072  24.495   4.893   6.753
 9132POPC   C3B53073  24.504   4.818   7.053
 9132POPC   C4B53074  24.497   4.816   7.353
 9133POPC   NC353075   1.164   9.017   5.553
 9133POPC   PO453076   1.191   9.021   5.853
 9133POPC   GL153077   1.216   8.936   6.153
 9133POPC   GL253078   1.360   9.090   6.153
 9133POPC   C1A53079   1.257   8.977   6.453
 9133POPC   D2A53080   1.229   8.967   6.753
 9133POPC   C3A53081   1.180   9.013   7.053
 9133POPC   C4A53082   1.177   8.943   7.353
 9133POPC   C1B53083   1.382   9.161   6.453
 9133POPC   C2B53084   1.408   9.080   6.753
 9133POPC   C3B53085   1.398   9.160   7.053
 9133POPC   C4B53086   1.413   9.122   7.353
 9134POPC   NC353087  26.807  13.578   5.553
 9134POPC   PO453088  26.778  13.674   5.853
 9134POPC   GL153089  26.852  13.651   6.153
 9134POPC   GL253090  26.799  13.456   6.153
 9134POPC   C1A53091  26.775  13.588   6.453
 9134POPC   D2A53092  26.776  13.608   6.753
 9134POPC   C3A53093  26.775  13.650   7.053
 9134POPC   C4A53094  26.815  13.593   7.353
 9134POPC   C1B53095  26.801  13.420   6.453
 9134POPC   C2B53096  26.758  13.373   6.753
 9134POPC   C3B53097  26.762  13.423   7.053
 9134POPC   C4B53098  26.813  13.398   7.353
 9135POPC   NC353099  22.948  22.980   5.553
 9135POPC   PO453100  22.923  22.920   5.853
 9135POPC   GL153101  22.983  22.918   6.153
 9135POPC   GL253102  22.944  22.785   6.153
 9135POPC   C1A53103  22.983  22.902   6.453
 9135POPC   D2A53104  22.920  22.948   6.753
 9135POPC   C3A53105  22.909  22.984   7.053
 9135POPC   C4A53106  22.965  22.912   7.353
 9135POPC   C1B53107  22.932  22.726   6.453
 9135POPC   C2B53108  23.019  22.662   6.753
 9135POPC   C3B53109  23.005  22.700   7.053
 9135POPC   C4B53110  22.980  22.642   7.353
 9136POPC   NC353111  43.143   9.747   5.553
 9136POPC   PO453112  43.144   9.712   5.853
 9136POPC   GL153113  43.086   9.720   6.153
 9136POPC   GL253114  42.959   9.717   6.153
 9136POPC   C1A53115  43.101   9.760   6.453
 9136POPC   D2A53116  43.060   9.762   6.753
 9136POPC   C3A53117  43.124   9.757   7.053
 9136POPC   C4A53118  43.125   9.758   7.353
 9136POPC   C1B53119  42.911   9.702   6.453
 9136POPC   C2B53120  42.901   9.714   6.753
 9136POPC   C3B53121  42.853   9.718   7.053
 9136POPC   C4B53122  42.880   9.693   7.353
 9137POPC   NC353123   5.130  44.664   5.553
 9137POPC   PO453124   5.112  44.707   5.853
 9137POPC   GL153125   5.047  44.683   6.153
 9137POPC   GL253126   4.966  44.717   6.153
 9137POPC   C1A53127   5.072  44.628   6.453
 9137POPC   D2A53128   5.070  44.646   6.753
 9137POPC   C3A53129   5.081  44.668   7.053
 9137POPC   C4A53130   5.057  44.653   7.353
 9137POPC   C1B53131   4.871  44.768   6.453
 9137POPC   C2B53132   4.830  44.778   6.753
 9137POPC   C3B53133   4.866  44.752   7.053
 9137POPC   C4B53134   4.905  44.749   7.353
 9138POPC   NC353135  32.251  21.429   5.553
 9138POPC   PO453136  32.243  21.430   5.853
 9138POPC   GL153137  32.247  21.379   6.153
 9138POPC   GL253138  32.113  21.379   6.153
 9138POPC   C1A53139  32.286  21.393   6.453
 9138POPC   D2A53140  32.265  21.405   6.753
 9138POPC   C3A53141  32.203  21.339   7.053
 9138POPC   C4A53142  32.285  21.369   7.353
 9138POPC   C1B53143  31.976  21.321   6.453
 9138POPC   C2B53144  32.029  21.242   6.753
 9138POPC   C3B53145  32.006  21.329   7.053
 9138POPC   C4B53146  32.015  21.263   7.353
 9139POPC   NC353147  27.595  37.666   5.553
 9139POPC   PO453148  27.639  37.712   5.853
 9139POPC   GL153149  27.554  37.691   6.153
 9139POPC   GL253150  27.597  37.567   6.153
 9139POPC   C1A53151  27.549  37.716   6.453
 9139POPC   D2A53152  27.574  37.636   6.753
 9139POPC   C3A53153  27.555  37.674   7.053
 9139POPC   C4A53154  27.552  37.728   7.353
 9139POPC   C1B53155  27.560  37.388   6.453
 9139POPC   C2B53156  27.555  37.474   6.753
 9139POPC   C3B53157  27.612  37.382   7.053
 9139POPC   C4B53158  27.604  37.451   7.353
 9140POPC   NC353159   0.464  34.603   5.553
 9140POPC   PO453160   0.429  34.576   5.853
 9140POPC   GL153161   0.463  34.526   6.153
 9140POPC   GL253162   0.528  34.690   6.153
 9140POPC   C1A53163   0.407  34.605   6.453
 9140POPC   D2A53164   0.433  34.561   6.753
 9140POPC   C3A53165   0.421  34.573   7.053
 9140POPC   C4A53166   0.401  34.621   7.353
 9140POPC   C1B53167   0.521  34.834   6.453
 9140POPC   C2B53168   0.571  34.780   6.753
 9140POPC   C3B53169   0.591  34.790   7.053
 9140POPC   C4B53170   0.576  34.790   7.353
 9141POPC   NC353171  26.805  17.504   5.553
 9141POPC   PO453172  26.803  17.470   5.853
 9141POPC   GL153173  26.782  17.539   6.153
 9141POPC   GL253174  26.709  17.562   6.153
 9141POPC   C1A53175  26.789  17.524   6.453
 9141POPC   D2A53176  26.817  17.525   6.753
 9141POPC   C3A53177  26.829  17.478   7.053
 9141POPC   C4A53178  26.831  17.462   7.353
 9141POPC   C1B53179  26.603  17.610   6.453
 9141POPC   C2B53180  26.565  17.571   6.753
 9141POPC   C3B53181  26.631  17.565   7.053
 9141POPC   C4B53182  26.594  17.544   7.353
 9142POPC   NC353183  26.820  36.862   5.553
 9142POPC   PO453184  26.835  36.887   5.853
 9142POPC   GL153185  26.813  36.925   6.153
 9142POPC   GL253186  26.921  37.042   6.153
 9142POPC   C1A53187  26.783  36.905   6.453
 9142POPC   D2A53188  26.770  36.953   6.753
 9142POPC   C3A53189  26.818  36.925   7.053
 9142POPC   C4A53190  26.809  36.872   7.353
 9142POPC   C1B53191  26.957  37.058   6.453
 9142POPC   C2B53192  26.927  37.110   6.753
 9142POPC   C3B53193  26.987  37.124   7.053
 9142POPC   C4B53194  26.964  37.142   7.353
 9143POPC   NC353195  24.447  17.520   5.553
 9143POPC   PO453196  24.514  17.546   5.853
 9143POPC   GL153197  24.450  17.505   6.153
 9143POPC   GL253198  24.434  17.578   6.153
 9143POPC   C1A53199  24.500  17.493   6.453
 9143POPC   D2A53200  24.484  17.515   6.753
 9143POPC   C3A53201  24.456  17.463   7.053
 9143POPC   C4A53202  24.507  17.516   7.353
 9143POPC   C1B53203  24.303  17.683   6.453
 9143POPC   C2B53204  24.297  17.692   6.753
 9143POPC   C3B53205  24.247  17.655   7.053
 9143POPC   C4B53206  24.269  17.678   7.353
 9144POPC   NC353207   5.135  19.036   5.553
 9144POPC   PO453208   5.121  19.078   5.853
 9144POPC   GL153209   5.057  19.042   6.153
 9144POPC   GL253210   5.092  19.188   6.153
 9144POPC   C1A53211   5.087  19.063   6.453
 9144POPC   D2A53212   5.046  19.020   6.753
 9144POPC   C3A53213   5.106  19.099   7.053
 9144POPC   C4A53214   5.112  19.084   7.353
 9144POPC   C1B53215   5.071  19.278   6.453
 9144POPC   C2B53216   5.083  19.278   6.753
 9144POPC   C3B53217   5.143  19.324   7.053
 9144POPC   C4B53218   5.109  19.280   7.353
 9145POPC   NC353219   5.086   3.589   5.553
 9145POPC   PO453220   5.069   3.500   5.853
 9145POPC   GL153221   5.116   3.574   6.153
 9145POPC   GL253222   4.980   3.425   6.153
 9145POPC   C1A53223   5.070   3.504   6.453
 9145POPC   D2A53224   5.084   3.554   6.753
 9145POPC   C3A53225   5.086   3.549   7.053
 9145POPC   C4A53226   5.098   3.545   7.353
 9145POPC   C1B53227   4.934   3.413   6.453
 9145POPC   C2B53228   4.866   3.357   6.753
 9145POPC   C3B53229   4.905   3.365   7.053
 9145POPC   C4B53230   4.921   3.380   7.353
 9146POPC   NC353231  24.530  19.837   5.553
 9146POPC   PO453232  24.507  19.827   5.853
 9146POPC   GL153233  24.531  19.841   6.153
 9146POPC   GL253234  24.449  19.972   6.153
 9146POPC   C1A53235  24.464  19.788   6.453
 9146POPC   D2A53236  24.526  19.861   6.753
 9146POPC   C3A53237  24.477  19.862   7.053
 9146POPC   C4A53238  24.503  19.872   7.353
 9146POPC   C1B53239  24.421  20.044   6.453
 9146POPC   C2B53240  24.372  20.048   6.753
 9146POPC   C3B53241  24.369  20.017   7.053
 9146POPC   C4B53242  24.348  20.024   7.353
 9147POPC   NC353243  16.734  29.110   5.553
 9147POPC   PO453244  16.766  29.167   5.853
 9147POPC   GL153245  16.746  29.103   6.153
 9147POPC   GL253246  16.611  29.238   6.153
 9147POPC   C1A53247  16.701  29.107   6.453
 9147POPC   D2A53248  16.694  29.165   6.753
 9147POPC   C3A53249  16.707  29.166   7.053
 9147POPC   C4A53250  16.752  29.166   7.353
 9147POPC   C1B53251  16.490  29.280   6.453
 9147POPC   C2B53252  16.507  29.235   6.753
 9147POPC   C3B53253  16.504  29.282   7.053
 9147POPC   C4B53254  16.508  29.282   7.353
 9148POPC   NC353255  14.371  38.504   5.553
 9148POPC   PO453256  14.411  38.463   5.853
 9148POPC   GL153257  14.355  38.464   6.153
 9148POPC   GL253258  14.534  38.365   6.153
 9148POPC   C1A53259  14.374  38.498   6.453
 9148POPC   D2A53260  14.412  38.496   6.753
 9148POPC   C3A53261  14.409  38.409   7.053
 9148POPC   C4A53262  14.438  38.467   7.353
 9148POPC   C1B53263  14.610  38.291   6.453
 9148POPC   C2B53264  14.629  38.263   6.753
 9148POPC   C3B53265  14.556  38.295   7.053
 9148POPC   C4B53266  14.595  38.316   7.353
 9149POPC   NC353267  29.907  35.305   5.553
 9149POPC   PO453268  29.876  35.382   5.853
 9149POPC   GL153269  29.917  35.309   6.153
 9149POPC   GL253270  29.794  35.265   6.153
 9149POPC   C1A53271  29.874  35.371   6.453
 9149POPC   D2A53272  29.943  35.391   6.753
 9149POPC   C3A53273  29.872  35.319   7.053
 9149POPC   C4A53274  29.916  35.331   7.353
 9149POPC   C1B53275  29.714  35.208   6.453
 9149POPC   C2B53276  29.755  35.196   6.753
 9149POPC   C3B53277  29.702  35.157   7.053
 9149POPC   C4B53278  29.781  35.136   7.353
 9150POPC   NC353279  43.845  19.070   5.553
 9150POPC   PO453280  43.881  19.086   5.853
 9150POPC   GL153281  43.880  19.052   6.153
 9150POPC   GL253282  44.018  19.099   6.153
 9150POPC   C1A53283  43.875  19.099   6.453
 9150POPC   D2A53284  43.879  19.083   6.753
 9150POPC   C3A53285  43.929  19.037   7.053
 9150POPC   C4A53286  43.917  19.025   7.353
 9150POPC   C1B53287  44.160  19.099   6.453
 9150POPC   C2B53288  44.083  19.083   6.753
 9150POPC   C3B53289  44.149  19.146   7.053
 9150POPC   C4B53290  44.106  19.124   7.353
 9151POPC   NC353291  35.308  12.070   5.553
 9151POPC   PO453292  35.310  12.086   5.853
 9151POPC   GL153293  35.381  12.114   6.153
 9151POPC   GL253294  35.443  11.977   6.153
 9151POPC   C1A53295  35.386  12.113   6.453
 9151POPC   D2A53296  35.343  12.076   6.753
 9151POPC   C3A53297  35.402  12.090   7.053
 9151POPC   C4A53298  35.396  12.065   7.353
 9151POPC   C1B53299  35.460  11.852   6.453
 9151POPC   C2B53300  35.473  11.832   6.753
 9151POPC   C3B53301  35.506  11.899   7.053
 9151POPC   C4B53302  35.444  11.894   7.353
 9152POPC   NC353303  13.649  15.149   5.553
 9152POPC   PO453304  13.621  15.132   5.853
 9152POPC   GL153305  13.625  15.155   6.153
 9152POPC   GL253306  13.558  15.239   6.153
 9152POPC   C1A53307  13.673  15.189   6.453
 9152POPC   D2A53308  13.664  15.226   6.753
 9152POPC   C3A53309  13.597  15.213   7.053
 9152POPC   C4A53310  13.648  15.171   7.353
 9152POPC   C1B53311  13.382  15.267   6.453
 9152POPC   C2B53312  13.407  15.346   6.753
 9152POPC   C3B53313  13.447  15.335   7.053
 9152POPC   C4B53314  13.452  15.342   7.353
 9153POPC   NC353315  36.900  32.226   5.553
 9153POPC   PO453316  36.927  32.209   5.853
 9153POPC   GL153317  36.953  32.205   6.153
 9153POPC   GL253318  36.884  32.119   6.153
 9153POPC   C1A53319  36.951  32.229   6.453
 9153POPC   D2A53320  36.877  32.222   6.753
 9153POPC   C3A53321  36.896  32.236   7.053
 9153POPC   C4A53322  36.933  32.279   7.353
 9153POPC   C1B53323  36.760  31.992   6.453
 9153POPC   C2B53324  36.805  32.051   6.753
 9153POPC   C3B53325  36.789  32.058   7.053
 9153POPC   C4B53326  36.831  31.980   7.353
 9154POPC   NC353327  40.793  40.747   5.553
 9154POPC   PO453328  40.806  40.751   5.853
 9154POPC   GL153329  40.785  40.772   6.153
 9154POPC   GL253330  40.794  40.928   6.153
 9154POPC   C1A53331  40.777  40.815   6.453
 9154POPC   D2A53332  40.756  40.761   6.753
 9154POPC   C3A53333  40.745  40.806   7.053
 9154POPC   C4A53334  40.823  40.776   7.353
 9154POPC   C1B53335  40.856  41.041   6.453
 9154POPC   C2B53336  40.880  41.003   6.753
 9154POPC   C3B53337  40.904  40.994   7.053
 9154POPC   C4B53338  40.851  41.040   7.353
 9155POPC   NC353339  23.738   4.294   5.553
 9155POPC   PO453340  23.732   4.308   5.853
 9155POPC   GL153341  23.737   4.312   6.153
 9155POPC   GL253342  23.644   4.192   6.153
 9155POPC   C1A53343  23.701   4.342   6.453
 9155POPC   D2A53344  23.710   4.294   6.753
 9155POPC   C3A53345  23.760   4.347   7.053
 9155POPC   C4A53346  23.735   4.318   7.353
 9155POPC   C1B53347  23.672   4.060   6.453
 9155POPC   C2B53348  23.656   4.049   6.753
 9155POPC   C3B53349  23.656   4.117   7.053
 9155POPC   C4B53350  23.657   4.096   7.353
 9156POPC   NC353351  18.237  12.891   5.553
 9156POPC   PO453352  18.272  12.853   5.853
 9156POPC   GL153353  18.244  12.896   6.153
 9156POPC   GL253354  18.356  12.983   6.153
 9156POPC   C1A53355  18.281  12.817   6.453
 9156POPC   D2A53356  18.314  12.878   6.753
 9156POPC   C3A53357  18.248  12.896   7.053
 9156POPC   C4A53358  18.247  12.895   7.353
 9156POPC   C1B53359  18.342  13.088   6.453
 9156POPC   C2B53360  18.336  13.095   6.753
 9156POPC   C3B53361  18.408  13.043   7.053
 9156POPC   C4B53362  18.374  13.115   7.353
 9157POPC   NC353363  26.821  39.255   5.553
 9157POPC   PO453364  26.812  39.200   5.853
 9157POPC   GL153365  26.800  39.227   6.153
 9157POPC   GL253366  26.754  39.143   6.153
 9157POPC   C1A53367  26.779  39.265   6.453
 9157POPC   D2A53368  26.834  39.241   6.753
 9157POPC   C3A53369  26.811  39.194   7.053
 9157POPC   C4A53370  26.862  39.236   7.353
 9157POPC   C1B53371  26.597  39.072   6.453
 9157POPC   C2B53372  26.633  39.068   6.753
 9157POPC   C3B53373  26.655  39.115   7.053
 9157POPC   C4B53374  26.635  39.043   7.353
 9158POPC   NC353375  13.665  41.546   5.553
 9158POPC   PO453376  13.586  41.531   5.853
 9158POPC   GL153377  13.649  41.548   6.153
 9158POPC   GL253378  13.716  41.498   6.153
 9158POPC   C1A53379  13.582  41.540   6.453
 9158POPC   D2A53380  13.648  41.576   6.753
 9158POPC   C3A53381  13.634  41.515   7.053
 9158POPC   C4A53382  13.593  41.536   7.353
 9158POPC   C1B53383  13.842  41.521   6.453
 9158POPC   C2B53384  13.884  41.548   6.753
 9158POPC   C3B53385  13.838  41.537   7.053
 9158POPC   C4B53386  13.881  41.478   7.353
 9159POPC   NC353387  26.019   5.098   5.553
 9159POPC   PO453388  26.090   5.092   5.853
 9159POPC   GL153389  26.010   5.135   6.153
 9159POPC   GL253390  25.984   5.168   6.153
 9159POPC   C1A53391  26.034   5.110   6.453
 9159POPC   D2A53392  26.070   5.078   6.753
 9159POPC   C3A53393  26.026   5.100   7.053
 9159POPC   C4A53394  26.021   5.140   7.353
 9159POPC   C1B53395  25.847   5.285   6.453
 9159POPC   C2B53396  25.920   5.310   6.753
 9159POPC   C3B53397  25.852   5.274   7.053
 9159POPC   C4B53398  25.847   5.252   7.353
 9160POPC   NC353399   5.846  37.681   5.553
 9160POPC   PO453400   5.839  37.678   5.853
 9160POPC   GL153401   5.859  37.703   6.153
 9160POPC   GL253402   5.767  37.658   6.153
 9160POPC   C1A53403   5.911  37.701   6.453
 9160POPC   D2A53404   5.832  37.687   6.753
 9160POPC   C3A53405   5.821  37.725   7.053
 9160POPC   C4A53406   5.904  37.675   7.353
 9160POPC   C1B53407   5.638  37.662   6.453
 9160POPC   C2B53408   5.586  37.677   6.753
 9160POPC   C3B53409   5.613  37.694   7.053
 9160POPC   C4B53410   5.580  37.625   7.353
 9161POPC   NC353411   8.980   5.900   5.553
 9161POPC   PO453412   9.022   5.857   5.853
 9161POPC   GL153413   8.945   5.823   6.153
 9161POPC   GL253414   8.813   5.821   6.153
 9161POPC   C1A53415   8.958   5.915   6.453
 9161POPC   D2A53416   8.991   5.886   6.753
 9161POPC   C3A53417   8.925   5.912   7.053
 9161POPC   C4A53418   8.966   5.897   7.353
 9161POPC   C1B53419   8.701   5.862   6.453
 9161POPC   C2B53420   8.773   5.862   6.753
 9161POPC   C3B53421   8.769   5.835   7.053
 9161POPC   C4B53422   8.728   5.860   7.353
 9162POPC   NC353423   3.502  41.559   5.553
 9162POPC   PO453424   3.561  41.535   5.853
 9162POPC   GL153425   3.550  41.517   6.153
 9162POPC   GL253426   3.670  41.594   6.153
 9162POPC   C1A53427   3.554  41.608   6.453
 9162POPC   D2A53428   3.553  41.538   6.753
 9162POPC   C3A53429   3.506  41.528   7.053
 9162POPC   C4A53430   3.499  41.546   7.353
 9162POPC   C1B53431   3.814  41.635   6.453
 9162POPC   C2B53432   3.752  41.614   6.753
 9162POPC   C3B53433   3.797  41.628   7.053
 9162POPC   C4B53434   3.741  41.648   7.353
 9163POPC   NC353435  23.665  43.131   5.553
 9163POPC   PO453436  23.738  43.116   5.853
 9163POPC   GL153437  23.710  43.156   6.153
 9163POPC   GL253438  23.700  43.031   6.153
 9163POPC   C1A53439  23.690  43.102   6.453
 9163POPC   D2A53440  23.697  43.149   6.753
 9163POPC   C3A53441  23.686  43.113   7.053
 9163POPC   C4A53442  23.665  43.126   7.353
 9163POPC   C1B53443  23.739  42.819   6.453
 9163POPC   C2B53444  23.671  42.855   6.753
 9163POPC   C3B53445  23.715  42.898   7.053
 9163POPC   C4B53446  23.704  42.883   7.353
 9164POPC   NC353447  19.875  10.537   5.553
 9164POPC   PO453448  19.872  10.536   5.853
 9164POPC   GL153449  19.875  10.531   6.153
 9164POPC   GL253450  19.941  10.662   6.153
 9164POPC   C1A53451  19.822  10.476   6.453
 9164POPC   D2A53452  19.816  10.513   6.753
 9164POPC   C3A53453  19.874  10.555   7.053
 9164POPC   C4A53454  19.808  10.549   7.353
 9164POPC   C1B53455  20.014  10.728   6.453
 9164POPC   C2B53456  19.924  10.704   6.753
 9164POPC   C3B53457  19.962  10.717   7.053
 9164POPC   C4B53458  19.987  10.694   7.353
 9165POPC   NC353459  43.074  34.565   5.553
 9165POPC   PO453460  43.114  34.591   5.853
 9165POPC   GL153461  43.075  34.596   6.153
 9165POPC   GL253462  43.212  34.589   6.153
 9165POPC   C1A53463  43.110  34.614   6.453
 9165POPC   D2A53464  43.128  34.551   6.753
 9165POPC   C3A53465  43.146  34.598   7.053
 9165POPC   C4A53466  43.082  34.591   7.353
 9165POPC   C1B53467  43.376  34.613   6.453
 9165POPC   C2B53468  43.391  34.593   6.753
 9165POPC   C3B53469  43.334  34.636   7.053
 9165POPC   C4B53470  43.394  34.652   7.353
 9166POPC   NC353471  44.664   4.310   5.553
 9166POPC   PO453472  44.709   4.314   5.853
 9166POPC   GL153473  44.627   4.345   6.153
 9166POPC   GL253474  44.622   4.469   6.153
 9166POPC   C1A53475  44.711   4.342   6.453
 9166POPC   D2A53476  44.649   4.362   6.753
 9166POPC   C3A53477  44.708   4.360   7.053
 9166POPC   C4A53478  44.683   4.275   7.353
 9166POPC   C1B53479  44.557   4.531   6.453
 9166POPC   C2B53480  44.574   4.515   6.753
 9166POPC   C3B53481  44.589   4.542   7.053
 9166POPC   C4B53482  44.607   4.514   7.353
 9167POPC   NC353483  36.887  18.325   5.553
 9167POPC   PO453484  36.902  18.326   5.853
 9167POPC   GL153485  36.856  18.328   6.153
 9167POPC   GL253486  36.929  18.127   6.153
 9167POPC   C1A53487  36.861  18.274   6.453
 9167POPC   D2A53488  36.930  18.246   6.753
 9167POPC   C3A53489  36.903  18.315   7.053
 9167POPC   C4A53490  36.916  18.237   7.353
 9167POPC   C1B53491  36.994  18.037   6.453
 9167POPC   C2B53492  36.981  18.097   6.753
 9167POPC   C3B53493  36.992  18.004   7.053
 9167POPC   C4B53494  36.988  18.078   7.353
 9168POPC   NC353495   6.596  11.261   5.553
 9168POPC   PO453496   6.600  11.283   5.853
 9168POPC   GL153497   6.599  11.326   6.153
 9168POPC   GL253498   6.752  11.384   6.153
 9168POPC   C1A53499   6.597  11.346   6.453
 9168POPC   D2A53500   6.663  11.340   6.753
 9168POPC   C3A53501   6.640  11.276   7.053
 9168POPC   C4A53502   6.672  11.273   7.353
 9168POPC   C1B53503   6.832  11.386   6.453
 9168POPC   C2B53504   6.878  11.420   6.753
 9168POPC   C3B53505   6.889  11.396   7.053
 9168POPC   C4B53506   6.903  11.413   7.353
 9169POPC   NC353507  33.778  42.372   5.553
 9169POPC   PO453508  33.784  42.363   5.853
 9169POPC   GL153509  33.796  42.340   6.153
 9169POPC   GL253510  33.844  42.249   6.153
 9169POPC   C1A53511  33.795  42.336   6.453
 9169POPC   D2A53512  33.833  42.358   6.753
 9169POPC   C3A53513  33.782  42.293   7.053
 9169POPC   C4A53514  33.770  42.371   7.353
 9169POPC   C1B53515  33.858  42.114   6.453
 9169POPC   C2B53516  33.869  42.054   6.753
 9169POPC   C3B53517  33.878  42.134   7.053
 9169POPC   C4B53518  33.875  42.051   7.353
 9170POPC   NC353519  41.513  26.026   5.553
 9170POPC   PO453520  41.533  26.009   5.853
 9170POPC   GL153521  41.519  26.055   6.153
 9170POPC   GL253522  41.658  26.007   6.153
 9170POPC   C1A53523  41.524  26.081   6.453
 9170POPC   D2A53524  41.578  26.022   6.753
 9170POPC   C3A53525  41.604  26.026   7.053
 9170POPC   C4A53526  41.599  25.997   7.353
 9170POPC   C1B53527  41.815  25.947   6.453
 9170POPC   C2B53528  41.762  26.017   6.753
 9170POPC   C3B53529  41.815  26.028   7.053
 9170POPC   C4B53530  41.790  26.023   7.353
 9171POPC   NC353531  43.100   8.968   5.553
 9171POPC   PO453532  43.110   9.007   5.853
 9171POPC   GL153533  43.118   8.928   6.153
 9171POPC   GL253534  43.061   8.821   6.153
 9171POPC   C1A53535  43.110   8.986   6.453
 9171POPC   D2A53536  43.113   8.978   6.753
 9171POPC   C3A53537  43.137   8.942   7.053
 9171POPC   C4A53538  43.155   8.980   7.353
 9171POPC   C1B53539  43.056   8.776   6.453
 9171POPC   C2B53540  42.973   8.728   6.753
 9171POPC   C3B53541  43.010   8.702   7.053
 9171POPC   C4B53542  43.045   8.771   7.353
 9172POPC   NC353543  42.332  24.504   5.553
 9172POPC   PO453544  42.339  24.507   5.853
 9172POPC   GL153545  42.369  24.518   6.153
 9172POPC   GL253546  42.220  24.458   6.153
 9172POPC   C1A53547  42.296  24.527   6.453
 9172POPC   D2A53548  42.375  24.486   6.753
 9172POPC   C3A53549  42.290  24.461   7.053
 9172POPC   C4A53550  42.343  24.464   7.353
 9172POPC   C1B53551  42.109  24.485   6.453
 9172POPC   C2B53552  42.112  24.477   6.753
 9172POPC   C3B53553  42.067  24.490   7.053
 9172POPC   C4B53554  42.117  24.483   7.353
 9173POPC   NC353555  33.779  10.506   5.553
 9173POPC   PO453556  33.815  10.562   5.853
 9173POPC   GL153557  33.840  10.493   6.153
 9173POPC   GL253558  33.845  10.678   6.153
 9173POPC   C1A53559  33.824  10.538   6.453
 9173POPC   D2A53560  33.799  10.542   6.753
 9173POPC   C3A53561  33.786  10.531   7.053
 9173POPC   C4A53562  33.825  10.479   7.353
 9173POPC   C1B53563  33.795  10.822   6.453
 9173POPC   C2B53564  33.851  10.794   6.753
 9173POPC   C3B53565  33.798  10.819   7.053
 9173POPC   C4B53566  33.769  10.766   7.353
 9174POPC   NC353567  38.504  39.988   5.553
 9174POPC   PO453568  38.410  40.023   5.853
 9174POPC   GL153569  38.415  40.048   6.153
 9174POPC   GL253570  38.297  39.989   6.153
 9174POPC   C1A53571  38.502  39.990   6.453
 9174POPC   D2A53572  38.444  40.013   6.753
 9174POPC   C3A53573  38.497  39.964   7.053
 9174POPC   C4A53574  38.422  40.022   7.353
 9174POPC   C1B53575  38.209  40.080   6.453
 9174POPC   C2B53576  38.257  40.015   6.753
 9174POPC   C3B53577  38.196  40.049   7.053
 9174POPC   C4B53578  38.231  40.043   7.353
 9175POPC   NC353579   8.177  30.732   5.553
 9175POPC   PO453580   8.203  30.659   5.853
 9175POPC   GL153581   8.196  30.745   6.153
 9175POPC   GL253582   8.199  30.553   6.153
 9175POPC   C1A53583   8.233  30.665   6.453
 9175POPC   D2A53584   8.196  30.667   6.753
 9175POPC   C3A53585   8.214  30.734   7.053
 9175POPC   C4A53586   8.163  30.740   7.353
 9175POPC   C1B53587   8.150  30.466   6.453
 9175POPC   C2B53588   8.160  30.480   6.753
 9175POPC   C3B53589   8.189  30.472   7.053
 9175POPC   C4B53590   8.120  30.433   7.353
 9176POPC   NC353591   6.641  35.398   5.553
 9176POPC   PO453592   6.684  35.306   5.853
 9176POPC   GL153593   6.654  35.306   6.153
 9176POPC   GL253594   6.643  35.448   6.153
 9176POPC   C1A53595   6.667  35.383   6.453
 9176POPC   D2A53596   6.656  35.379   6.753
 9176POPC   C3A53597   6.618  35.359   7.053
 9176POPC   C4A53598   6.653  35.382   7.353
 9176POPC   C1B53599   6.697  35.640   6.453
 9176POPC   C2B53600   6.761  35.573   6.753
 9176POPC   C3B53601   6.745  35.641   7.053
 9176POPC   C4B53602   6.719  35.550   7.353
 9177POPC   NC353603  40.799  22.915   5.553
 9177POPC   PO453604  40.765  22.984   5.853
 9177POPC   GL153605  40.795  22.899   6.153
 9177POPC   GL253606  40.721  23.081   6.153
 9177POPC   C1A53607  40.745  22.953   6.453
 9177POPC   D2A53608  40.815  22.911   6.753
 9177POPC   C3A53609  40.817  22.897   7.053
 9177POPC   C4A53610  40.818  22.894   7.353
 9177POPC   C1B53611  40.630  23.094   6.453
 9177POPC   C2B53612  40.641  23.147   6.753
 9177POPC   C3B53613  40.645  23.155   7.053
 9177POPC   C4B53614  40.623  23.166   7.353
 9178POPC   NC353615  43.892  40.743   5.553
 9178POPC   PO453616  43.916  40.751   5.853
 9178POPC   GL153617  43.907  40.765   6.153
 9178POPC   GL253618  43.777  40.731   6.153
 9178POPC   C1A53619  43.894  40.819   6.453
 9178POPC   D2A53620  43.879  40.815   6.753
 9178POPC   C3A53621  43.875  40.782   7.053
 9178POPC   C4A53622  43.910  40.821   7.353
 9178POPC   C1B53623  43.670  40.688   6.453
 9178POPC   C2B53624  43.640  40.639   6.753
 9178POPC   C3B53625  43.639  40.642   7.053
 9178POPC   C4B53626  43.649  40.723   7.353
 9179POPC   NC353627  39.274  35.356   5.553
 9179POPC   PO453628  39.279  35.309   5.853
 9179POPC   GL153629  39.202  35.331   6.153
 9179POPC   GL253630  39.220  35.511   6.153
 9179POPC   C1A53631  39.252  35.321   6.453
 9179POPC   D2A53632  39.224  35.323   6.753
 9179POPC   C3A53633  39.225  35.367   7.053
 9179POPC   C4A53634  39.222  35.349   7.353
 9179POPC   C1B53635  39.079  35.614   6.453
 9179POPC   C2B53636  39.067  35.530   6.753
 9179POPC   C3B53637  39.123  35.558   7.053
 9179POPC   C4B53638  39.082  35.566   7.353
 9180POPC   NC353639  13.594  22.976   5.553
 9180POPC   PO453640  13.622  22.911   5.853
 9180POPC   GL153641  13.603  22.960   6.153
 9180POPC   GL253642  13.656  22.782   6.153
 9180POPC   C1A53643  13.583  22.940   6.453
 9180POPC   D2A53644  13.673  22.977   6.753
 9180POPC   C3A53645  13.622  22.928   7.053
 9180POPC   C4A53646  13.668  22.971   7.353
 9180POPC   C1B53647  13.762  22.716   6.453
 9180POPC   C2B53648  13.735  22.725   6.753
 9180POPC   C3B53649  13.741  22.680   7.053
 9180POPC   C4B53650  13.722  22.672   7.353
 9181POPC   NC353651   5.089  20.623   5.553
 9181POPC   PO453652   5.104  20.655   5.853
 9181POPC   GL153653   5.131  20.568   6.153
 9181POPC   GL253654   5.056  20.540   6.153
 9181POPC   C1A53655   5.050  20.616   6.453
 9181POPC   D2A53656   5.121  20.580   6.753
 9181POPC   C3A53657   5.082  20.622   7.053
 9181POPC   C4A53658   5.046  20.623   7.353
 9181POPC   C1B53659   4.995  20.351   6.453
 9181POPC   C2B53660   4.982  20.437   6.753
 9181POPC   C3B53661   4.989  20.382   7.053
 9181POPC   C4B53662   4.937  20.416   7.353
 9182POPC   NC353663  44.660  15.211   5.553
 9182POPC   PO453664  44.669  15.218   5.853
 9182POPC   GL153665  44.684  15.215   6.153
 9182POPC   GL253666  44.661  15.021   6.153
 9182POPC   C1A53667  44.619  15.208   6.453
 9182POPC   D2A53668  44.708  15.228   6.753
 9182POPC   C3A53669  44.644  15.153   7.053
 9182POPC   C4A53670  44.688  15.227   7.353
 9182POPC   C1B53671  44.667  14.888   6.453
 9182POPC   C2B53672  44.715  14.978   6.753
 9182POPC   C3B53673  44.674  14.926   7.053
 9182POPC   C4B53674  44.706  14.969   7.353
 9183POPC   NC353675  43.862  44.677   5.553
 9183POPC   PO453676  43.839  44.641   5.853
 9183POPC   GL153677  43.918  44.689   6.153
 9183POPC   GL253678  43.983  44.603   6.153
 9183POPC   C1A53679  43.920  44.618   6.453
 9183POPC   D2A53680  43.893  44.693   6.753
 9183POPC   C3A53681  43.924  44.634   7.053
 9183POPC   C4A53682  43.886  44.688   7.353
 9183POPC   C1B53683  44.151  44.518   6.453
 9183POPC   C2B53684  44.110  44.546   6.753
 9183POPC   C3B53685  44.101  44.530   7.053
 9183POPC   C4B53686  44.070  44.532   7.353
 9184POPC   NC353687  20.617   9.715   5.553
 9184POPC   PO453688  20.652   9.781   5.853
 9184POPC   GL153689  20.618   9.742   6.153
 9184POPC   GL253690  20.690   9.829   6.153
 9184POPC   C1A53691  20.573   9.754   6.453
 9184POPC   D2A53692  20.647   9.746   6.753
 9184POPC   C3A53693  20.604   9.735   7.053
 9184POPC   C4A53694  20.588   9.714   7.353
 9184POPC   C1B53695  20.863   9.801   6.453
 9184POPC   C2B53696  20.854   9.843   6.753
 9184POPC   C3B53697  20.874   9.795   7.053
 9184POPC   C4B53698  20.838   9.853   7.353
 9185POPC   NC353699  14.450  13.661   5.553
 9185POPC   PO453700  14.446  13.596   5.853
 9185POPC   GL153701  14.392  13.584   6.153
 9185POPC   GL253702  14.425  13.758   6.153
 9185POPC   C1A53703  14.369  13.652   6.453
 9185POPC   D2A53704  14.374  13.654   6.753
 9185POPC   C3A53705  14.370  13.652   7.053
 9185POPC   C4A53706  14.408  13.611   7.353
 9185POPC   C1B53707  14.490  13.872   6.453
 9185POPC   C2B53708  14.480  13.823   6.753
 9185POPC   C3B53709  14.553  13.827   7.053
 9185POPC   C4B53710  14.519  13.901   7.353
 9186POPC   NC353711  23.744  22.955   5.553
 9186POPC   PO453712  23.709  22.953   5.853
 9186POPC   GL153713  23.758  22.925   6.153
 9186POPC   GL253714  23.703  22.821   6.153
 9186POPC   C1A53715  23.744  22.919   6.453
 9186POPC   D2A53716  23.700  22.938   6.753
 9186POPC   C3A53717  23.708  22.912   7.053
 9186POPC   C4A53718  23.740  22.912   7.353
 9186POPC   C1B53719  23.618  22.717   6.453
 9186POPC   C2B53720  23.644  22.677   6.753
 9186POPC   C3B53721  23.650  22.749   7.053
 9186POPC   C4B53722  23.612  22.709   7.353
 9187POPC   NC353723   4.308   1.243   5.553
 9187POPC   PO453724   4.338   1.247   5.853
 9187POPC   GL153725   4.330   1.183   6.153
 9187POPC   GL253726   4.219   1.373   6.153
 9187POPC   C1A53727   4.300   1.230   6.453
 9187POPC   D2A53728   4.338   1.190   6.753
 9187POPC   C3A53729   4.367   1.247   7.053
 9187POPC   C4A53730   4.307   1.251   7.353
 9187POPC   C1B53731   4.257   1.449   6.453
 9187POPC   C2B53732   4.237   1.473   6.753
 9187POPC   C3B53733   4.213   1.420   7.053
 9187POPC   C4B53734   4.180   1.478   7.353
 9188POPC   NC353735  18.321   7.432   5.553
 9188POPC   PO453736  18.270   7.464   5.853
 9188POPC   GL153737  18.312   7.401   6.153
 9188POPC   GL253738  18.350   7.277   6.153
 9188POPC   C1A53739  18.246   7.470   6.453
 9188POPC   D2A53740  18.282   7.466   6.753
 9188POPC   C3A53741  18.255   7.397   7.053
 9188POPC   C4A53742  18.287   7.374   7.353
 9188POPC   C1B53743  18.353   7.206   6.453
 9188POPC   C2B53744  18.397   7.218   6.753
 9188POPC   C3B53745  18.372   7.183   7.053
 9188POPC   C4B53746  18.363   7.218   7.353
 9189POPC   NC353747  29.135  12.826   5.553
 9189POPC   PO453748  29.167  12.811   5.853
 9189POPC   GL153749  29.131  12.803   6.153
 9189POPC   GL253750  29.082  12.735   6.153
 9189POPC   C1A53751  29.096  12.882   6.453
 9189POPC   D2A53752  29.173  12.876   6.753
 9189POPC   C3A53753  29.096  12.901   7.053
 9189POPC   C4A53754  29.119  12.809   7.353
 9189POPC   C1B53755  28.988  12.637   6.453
 9189POPC   C2B53756  29.021  12.685   6.753
 9189POPC   C3B53757  29.009  12.686   7.053
 9189POPC   C4B53758  28.956  12.658   7.353
 9190POPC   NC353759  26.083  16.780   5.553
 9190POPC   PO453760  26.002  16.758   5.853
 9190POPC   GL153761  26.014  16.723   6.153
 9190POPC   GL253762  26.003  16.651   6.153
 9190POPC   C1A53763  25.998  16.699   6.453
 9190POPC   D2A53764  26.008  16.701   6.753
 9190POPC   C3A53765  26.014  16.683   7.053
 9190POPC   C4A53766  26.063  16.717   7.353
 9190POPC   C1B53767  25.967  16.501   6.453
 9190POPC   C2B53768  26.020  16.526   6.753
 9190POPC   C3B53769  25.979  16.483   7.053
 9190POPC   C4B53770  26.019  16.515   7.353
 9191POPC   NC353771   0.470  14.356   5.553
 9191POPC   PO453772   0.481  14.453   5.853
 9191POPC   GL153773   0.406  14.360   6.153
 9191POPC   GL253774   0.342  14.503   6.153
 9191POPC   C1A53775   0.472  14.359   6.453
 9191POPC   D2A53776   0.409  14.438   6.753
 9191POPC   C3A53777   0.474  14.423   7.053
 9191POPC   C4A53778   0.408  14.444   7.353
 9191POPC   C1B53779   0.266  14.534   6.453
 9191POPC   C2B53780   0.281  14.561   6.753
 9191POPC   C3B53781   0.275  14.515   7.053
 9191POPC   C4B53782   0.280  14.566   7.353
 9192POPC   NC353783  36.904   1.978   5.553
 9192POPC   PO453784  36.889   1.943   5.853
 9192POPC   GL153785  36.899   2.033   6.153
 9192POPC   GL253786  37.012   2.093   6.153
 9192POPC   C1A53787  36.897   2.011   6.453
 9192POPC   D2A53788  36.884   2.033   6.753
 9192POPC   C3A53789  36.880   2.033   7.053
 9192POPC   C4A53790  36.872   1.969   7.353
 9192POPC   C1B53791  37.140   2.167   6.453
 9192POPC   C2B53792  37.138   2.120   6.753
 9192POPC   C3B53793  37.156   2.126   7.053
 9192POPC   C4B53794  37.151   2.159   7.353
 9193POPC   NC353795  30.651   1.196   5.553
 9193POPC   PO453796  30.716   1.263   5.853
 9193POPC   GL153797  30.648   1.255   6.153
 9193POPC   GL253798  30.620   1.105   6.153
 9193POPC   C1A53799  30.682   1.178   6.453
 9193POPC   D2A53800  30.658   1.226   6.753
 9193POPC   C3A53801  30.735   1.179   7.053
 9193POPC   C4A53802  30.650   1.244   7.353
 9193POPC   C1B53803  30.594   0.958   6.453
 9193POPC   C2B53804  30.616   0.981   6.753
 9193POPC   C3B53805  30.658   0.948   7.053
 9193POPC   C4B53806  30.605   0.928   7.353
 9194POPC   NC353807  29.925  26.069   5.553
 9194POPC   PO453808  29.969  26.021   5.853
 9194POPC   GL153809  29.925  26.063   6.153
 9194POPC   GL253810  29.755  26.002   6.153
 9194POPC   C1A53811  29.882  26.049   6.453
 9194POPC   D2A53812  29.906  26.063   6.753
 9194POPC   C3A53813  29.895  26.075   7.053
 9194POPC   C4A53814  29.880  26.085   7.353
 9194POPC   C1B53815  29.709  26.052   6.453
 9194POPC   C2B53816  29.666  26.084   6.753
 9194POPC   C3B53817  29.624  26.066   7.053
 9194POPC   C4B53818  29.660  26.074   7.353
 9195POPC   NC353819  22.966   6.680   5.553
 9195POPC   PO453820  22.938   6.657   5.853
 9195POPC   GL153821  22.935   6.599   6.153
 9195POPC   GL253822  23.111   6.692   6.153
 9195POPC   C1A53823  22.913   6.691   6.453
 9195POPC   D2A53824  22.917   6.654   6.753
 9195POPC   C3A53825  22.982   6.627   7.053
 9195POPC   C4A53826  22.936   6.660   7.353
 9195POPC   C1B53827  23.232   6.636   6.453
 9195POPC   C2B53828  23.173   6.696   6.753
 9195POPC   C3B53829  23.144   6.700   7.053
 9195POPC   C4B53830  23.196   6.669   7.353
 9196POPC   NC353831  15.207   2.738   5.553
 9196POPC   PO453832  15.169   2.760   5.853
 9196POPC   GL153833  15.182   2.792   6.153
 9196POPC   GL253834  15.267   2.909   6.153
 9196POPC   C1A53835  15.229   2.784   6.453
 9196POPC   D2A53836  15.152   2.799   6.753
 9196POPC   C3A53837  15.136   2.750   7.053
 9196POPC   C4A53838  15.185   2.796   7.353
 9196POPC   C1B53839  15.354   2.981   6.453
 9196POPC   C2B53840  15.268   2.960   6.753
 9196POPC   C3B53841  15.265   3.005   7.053
 9196POPC   C4B53842  15.280   3.027   7.353
 9197POPC   NC353843   7.433  36.094   5.553
 9197POPC   PO453844   7.444  36.103   5.853
 9197POPC   GL153845   7.374  36.082   6.153
 9197POPC   GL253846   7.279  36.142   6.153
 9197POPC   C1A53847   7.372  36.165   6.453
 9197POPC   D2A53848   7.457  36.125   6.753
 9197POPC   C3A53849   7.469  36.153   7.053
 9197POPC   C4A53850   7.389  36.109   7.353
 9197POPC   C1B53851   7.148  36.240   6.453
 9197POPC   C2B53852   7.164  36.210   6.753
 9197POPC   C3B53853   7.228  36.204   7.053
 9197POPC   C4B53854   7.220  36.238   7.353
 9198POPC   NC353855  27.586  22.937   5.553
 9198POPC   PO453856  27.553  22.950   5.853
 9198POPC   GL153857  27.547  22.890   6.153
 9198POPC   GL253858  27.682  22.917   6.153
 9198POPC   C1A53859  27.559  22.974   6.453
 9198POPC   D2A53860  27.562  22.972   6.753
 9198POPC   C3A53861  27.550  22.938   7.053
 9198POPC   C4A53862  27.622  22.980   7.353
 9198POPC   C1B53863  27.868  22.967   6.453
 9198POPC   C2B53864  27.889  22.930   6.753
 9198POPC   C3B53865  27.877  22.932   7.053
 9198POPC   C4B53866  27.799  22.919   7.353
 9199POPC   NC353867  33.803  33.850   5.553
 9199POPC   PO453868  33.804  33.776   5.853
 9199POPC   GL153869  33.784  33.814   6.153
 9199POPC   GL253870  33.692  33.931   6.153
 9199POPC   C1A53871  33.843  33.794   6.453
 9199POPC   D2A53872  33.804  33.757   6.753
 9199POPC   C3A53873  33.774  33.809   7.053
 9199POPC   C4A53874  33.817  33.832   7.353
 9199POPC   C1B53875  33.623  33.998   6.453
 9199POPC   C2B53876  33.650  34.014   6.753
 9199POPC   C3B53877  33.623  33.947   7.053
 9199POPC   C4B53878  33.581  34.007   7.353
 9200POPC   NC353879  23.749   5.821   5.553
 9200POPC   PO453880  23.706   5.840   5.853
 9200POPC   GL153881  23.715   5.900   6.153
 9200POPC   GL253882  23.660   5.952   6.153
 9200POPC   C1A53883  23.711   5.889   6.453
 9200POPC   D2A53884  23.705   5.859   6.753
 9200POPC   C3A53885  23.678   5.855   7.053
 9200POPC   C4A53886  23.687   5.916   7.353
 9200POPC   C1B53887  23.648   6.153   6.453
 9200POPC   C2B53888  23.707   6.130   6.753
 9200POPC   C3B53889  23.717   6.077   7.053
 9200POPC   C4B53890  23.688   6.101   7.353
 9201POPC   NC353891  19.072  43.904   5.553
 9201POPC   PO453892  19.101  43.904   5.853
 9201POPC   GL153893  19.021  43.852   6.153
 9201POPC   GL253894  18.988  43.766   6.153
 9201POPC   C1A53895  19.031  43.906   6.453
 9201POPC   D2A53896  19.033  43.894   6.753
 9201POPC   C3A53897  19.016  43.904   7.053
 9201POPC   C4A53898  19.063  43.858   7.353
 9201POPC   C1B53899  18.919  43.656   6.453
 9201POPC   C2B53900  18.886  43.745   6.753
 9201POPC   C3B53901  18.910  43.671   7.053
 9201POPC   C4B53902  18.865  43.676   7.353
 9202POPC   NC353903  23.741  17.509   5.553
 9202POPC   PO453904  23.740  17.525   5.853
 9202POPC   GL153905  23.697  17.501   6.153
 9202POPC   GL253906  23.615  17.427   6.153
 9202POPC   C1A53907  23.727  17.544   6.453
 9202POPC   D2A53908  23.690  17.495   6.753
 9202POPC   C3A53909  23.699  17.468   7.053
 9202POPC   C4A53910  23.665  17.553   7.353
 9202POPC   C1B53911  23.520  17.431   6.453
 9202POPC   C2B53912  23.507  17.451   6.753
 9202POPC   C3B53913  23.449  17.431   7.053
 9202POPC   C4B53914  23.514  17.439   7.353
 9203POPC   NC353915   9.761  21.408   5.553
 9203POPC   PO453916   9.735  21.337   5.853
 9203POPC   GL153917   9.753  21.345   6.153
 9203POPC   GL253918   9.625  21.448   6.153
 9203POPC   C1A53919   9.718  21.420   6.453
 9203POPC   D2A53920   9.768  21.425   6.753
 9203POPC   C3A53921   9.709  21.415   7.053
 9203POPC   C4A53922   9.733  21.427   7.353
 9203POPC   C1B53923   9.554  21.538   6.453
 9203POPC   C2B53924   9.535  21.557   6.753
 9203POPC   C3B53925   9.577  21.569   7.053
 9203POPC   C4B53926   9.510  21.503   7.353
 9204POPC   NC353927  20.578  43.919   5.553
 9204POPC   PO453928  20.613  43.867   5.853
 9204POPC   GL153929  20.653  43.858   6.153
 9204POPC   GL253930  20.599  43.781   6.153
 9204POPC   C1A53931  20.658  43.855   6.453
 9204POPC   D2A53932  20.634  43.882   6.753
 9204POPC   C3A53933  20.581  43.856   7.053
 9204POPC   C4A53934  20.649  43.864   7.353
 9204POPC   C1B53935  20.603  43.594   6.453
 9204POPC   C2B53936  20.653  43.605   6.753
 9204POPC   C3B53937  20.653  43.682   7.053
 9204POPC   C4B53938  20.655  43.588   7.353
 9205POPC   NC353939  41.576  18.298   5.553
 9205POPC   PO453940  41.557  18.297   5.853
 9205POPC   GL153941  41.561  18.288   6.153
 9205POPC   GL253942  41.614  18.226   6.153
 9205POPC   C1A53943  41.561  18.300   6.453
 9205POPC   D2A53944  41.559  18.280   6.753
 9205POPC   C3A53945  41.566  18.244   7.053
 9205POPC   C4A53946  41.548  18.287   7.353
 9205POPC   C1B53947  41.727  18.057   6.453
 9205POPC   C2B53948  41.762  18.071   6.753
 9205POPC   C3B53949  41.716  18.143   7.053
 9205POPC   C4B53950  41.762  18.151   7.353
 9206POPC   NC353951  31.489   0.445   5.553
 9206POPC   PO453952  31.433   0.416   5.853
 9206POPC   GL153953  31.507   0.429   6.153
 9206POPC   GL253954  31.343   0.416   6.153
 9206POPC   C1A53955  31.511   0.438   6.453
 9206POPC   D2A53956  31.507   0.448   6.753
 9206POPC   C3A53957  31.453   0.417   7.053
 9206POPC   C4A53958  31.463   0.469   7.353
 9206POPC   C1B53959  31.248   0.481   6.453
 9206POPC   C2B53960  31.253   0.518   6.753
 9206POPC   C3B53961  31.253   0.456   7.053
 9206POPC   C4B53962  31.187   0.445   7.353
 9207POPC   NC353963  21.349   8.955   5.553
 9207POPC   PO453964  21.387   8.977   5.853
 9207POPC   GL153965  21.340   8.986   6.153
 9207POPC   GL253966  21.254   8.886   6.153
 9207POPC   C1A53967  21.347   8.958   6.453
 9207POPC   D2A53968  21.417   9.010   6.753
 9207POPC   C3A53969  21.392   8.979   7.053
 9207POPC   C4A53970  21.423   9.017   7.353
 9207POPC   C1B53971  21.110   8.904   6.453
 9207POPC   C2B53972  21.152   8.836   6.753
 9207POPC   C3B53973  21.166   8.916   7.053
 9207POPC   C4B53974  21.148   8.907   7.353
 9208POPC   NC353975   0.485  20.593   5.553
 9208POPC   PO453976   0.430  20.607   5.853
 9208POPC   GL153977   0.403  20.656   6.153
 9208POPC   GL253978   0.456  20.723   6.153
 9208POPC   C1A53979   0.417  20.657   6.453
 9208POPC   D2A53980   0.454  20.648   6.753
 9208POPC   C3A53981   0.417  20.629   7.053
 9208POPC   C4A53982   0.395  20.580   7.353
 9208POPC   C1B53983   0.495  20.798   6.453
 9208POPC   C2B53984   0.556  20.868   6.753
 9208POPC   C3B53985   0.506  20.888   7.053
 9208POPC   C4B53986   0.546  20.845   7.353
 9209POPC   NC353987  21.405  22.944   5.553
 9209POPC   PO453988  21.357  22.912   5.853
 9209POPC   GL153989  21.432  22.978   6.153
 9209POPC   GL253990  21.500  22.986   6.153
 9209POPC   C1A53991  21.422  22.892   6.453
 9209POPC   D2A53992  21.375  22.893   6.753
 9209POPC   C3A53993  21.356  22.893   7.053
 9209POPC   C4A53994  21.432  22.928   7.353
 9209POPC   C1B53995  21.572  23.089   6.453
 9209POPC   C2B53996  21.545  23.099   6.753
 9209POPC   C3B53997  21.574  23.164   7.053
 9209POPC   C4B53998  21.502  23.175   7.353
 9210POPC   NC353999  16.681  14.389   5.553
 9210POPC   PO454000  16.725  14.429   5.853
 9210POPC   GL154001  16.739  14.450   6.153
 9210POPC   GL254002  16.846  14.341   6.153
 9210POPC   C1A54003  16.745  14.403   6.453
 9210POPC   D2A54004  16.765  14.427   6.753
 9210POPC   C3A54005  16.716  14.442   7.053
 9210POPC   C4A54006  16.711  14.365   7.353
 9210POPC   C1B54007  16.944  14.419   6.453
 9210POPC   C2B54008  17.014  14.339   6.753
 9210POPC   C3B54009  17.026  14.354   7.053
 9210POPC   C4B54010  17.025  14.409   7.353
 9211POPC   NC354011  41.584   3.540   5.553
 9211POPC   PO454012  41.550   3.546   5.853
 9211POPC   GL154013  41.577   3.502   6.153
 9211POPC   GL254014  41.685   3.559   6.153
 9211POPC   C1A54015  41.573   3.547   6.453
 9211POPC   D2A54016  41.537   3.507   6.753
 9211POPC   C3A54017  41.550   3.498   7.053
 9211POPC   C4A54018  41.565   3.583   7.353
 9211POPC   C1B54019  41.837   3.564   6.453
 9211POPC   C2B54020  41.777   3.580   6.753
 9211POPC   C3B54021  41.841   3.594   7.053
 9211POPC   C4B54022  41.775   3.575   7.353
 9212POPC   NC354023  36.089   5.829   5.553
 9212POPC   PO454024  36.103   5.847   5.853
 9212POPC   GL154025  36.162   5.829   6.153
 9212POPC   GL254026  36.229   5.941   6.153
 9212POPC   C1A54027  36.158   5.829   6.453
 9212POPC   D2A54028  36.086   5.830   6.753
 9212POPC   C3A54029  36.093   5.901   7.053
 9212POPC   C4A54030  36.111   5.877   7.353
 9212POPC   C1B54031  36.312   5.992   6.453
 9212POPC   C2B54032  36.328   6.023   6.753
 9212POPC   C3B54033  36.269   6.030   7.053
 9212POPC   C4B54034  36.285   5.995   7.353
 9213POPC   NC354035  12.877  25.285   5.553
 9213POPC   PO454036  12.847  25.294   5.853
 9213POPC   GL154037  12.846  25.258   6.153
 9213POPC   GL254038  12.769  25.245   6.153
 9213POPC   C1A54039  12.880  25.243   6.453
 9213POPC   D2A54040  12.814  25.309   6.753
 9213POPC   C3A54041  12.815  25.291   7.053
 9213POPC   C4A54042  12.864  25.275   7.353
 9213POPC   C1B54043  12.582  25.236   6.453
 9213POPC   C2B54044  12.590  25.184   6.753
 9213POPC   C3B54045  12.653  25.236   7.053
 9213POPC   C4B54046  12.617  25.174   7.353
 9214POPC   NC354047   9.742  23.693   5.553
 9214POPC   PO454048   9.761  23.684   5.853
 9214POPC   GL154049   9.714  23.705   6.153
 9214POPC   GL254050   9.920  23.762   6.153
 9214POPC   C1A54051   9.775  23.681   6.453
 9214POPC   D2A54052   9.777  23.732   6.753
 9214POPC   C3A54053   9.709  23.710   7.053
 9214POPC   C4A54054   9.735  23.745   7.353
 9214POPC   C1B54055   9.958  23.758   6.453
 9214POPC   C2B54056   9.990  23.775   6.753
 9214POPC   C3B54057  10.017  23.810   7.053
 9214POPC   C4B54058  10.014  23.771   7.353
 9215POPC   NC354059  10.502  43.080   5.553
 9215POPC   PO454060  10.520  43.111   5.853
 9215POPC   GL154061  10.540  43.139   6.153
 9215POPC   GL254062  10.651  43.095   6.153
 9215POPC   C1A54063  10.504  43.086   6.453
 9215POPC   D2A54064  10.562  43.070   6.753
 9215POPC   C3A54065  10.501  43.142   7.053
 9215POPC   C4A54066  10.554  43.079   7.353
 9215POPC   C1B54067  10.817  43.134   6.453
 9215POPC   C2B54068  10.777  43.122   6.753
 9215POPC   C3B54069  10.801  43.173   7.053
 9215POPC   C4B54070  10.754  43.144   7.353
 9216POPC   NC354071  26.091  12.850   5.553
 9216POPC   PO454072  26.013  12.818   5.853
 9216POPC   GL154073  26.032  12.847   6.153
 9216POPC   GL254074  25.938  12.872   6.153
 9216POPC   C1A54075  26.036  12.844   6.453
 9216POPC   D2A54076  26.015  12.871   6.753
 9216POPC   C3A54077  25.998  12.861   7.053
 9216POPC   C4A54078  26.007  12.892   7.353
 9216POPC   C1B54079  25.790  12.894   6.453
 9216POPC   C2B54080  25.760  12.871   6.753
 9216POPC   C3B54081  25.788  12.864   7.053
 9216POPC   C4B54082  25.795  12.947   7.353
 9217POPC   NC354083   3.591  39.225   5.553
 9217POPC   PO454084   3.571  39.243   5.853
 9217POPC   GL154085   3.513  39.207   6.153
 9217POPC   GL254086   3.594  39.383   6.153
 9217POPC   C1A54087   3.541  39.217   6.453
 9217POPC   D2A54088   3.528  39.215   6.753
 9217POPC   C3A54089   3.568  39.222   7.053
 9217POPC   C4A54090   3.527  39.221   7.353
 9217POPC   C1B54091   3.607  39.414   6.453
 9217POPC   C2B54092   3.656  39.420   6.753
 9217POPC   C3B54093   3.630  39.456   7.053
 9217POPC   C4B54094   3.641  39.430   7.353
 9218POPC   NC354095  15.932   3.505   5.553
 9218POPC   PO454096  15.937   3.568   5.853
 9218POPC   GL154097  15.931   3.549   6.153
 9218POPC   GL254098  15.901   3.588   6.153
 9218POPC   C1A54099  15.921   3.496   6.453
 9218POPC   D2A54100  15.992   3.518   6.753
 9218POPC   C3A54101  15.919   3.571   7.053
 9218POPC   C4A54102  15.955   3.511   7.353
 9218POPC   C1B54103  15.765   3.691   6.453
 9218POPC   C2B54104  15.773   3.685   6.753
 9218POPC   C3B54105  15.759   3.647   7.053
 9218POPC   C4B54106  15.724   3.698   7.353
 9219POPC   NC354107   9.763  13.637   5.553
 9219POPC   PO454108   9.771  13.604   5.853
 9219POPC   GL154109   9.730  13.608   6.153
 9219POPC   GL254110   9.646  13.602   6.153
 9219POPC   C1A54111   9.774  13.619   6.453
 9219POPC   D2A54112   9.744  13.654   6.753
 9219POPC   C3A54113   9.788  13.580   7.053
 9219POPC   C4A54114   9.790  13.584   7.353
 9219POPC   C1B54115   9.520  13.670   6.453
 9219POPC   C2B54116   9.510  13.628   6.753
 9219POPC   C3B54117   9.508  13.651   7.053
 9219POPC   C4B54118   9.451  13.585   7.353
 9220POPC   NC354119  19.072  11.252   5.553
 9220POPC   PO454120  19.091  11.304   5.853
 9220POPC   GL154121  19.013  11.260   6.153
 9220POPC   GL254122  18.926  11.370   6.153
 9220POPC   C1A54123  19.024  11.281   6.453
 9220POPC   D2A54124  19.026  11.340   6.753
 9220POPC   C3A54125  19.043  11.257   7.053
 9220POPC   C4A54126  19.108  11.284   7.353
 9220POPC   C1B54127  18.871  11.435   6.453
 9220POPC   C2B54128  18.890  11.513   6.753
 9220POPC   C3B54129  18.849  11.500   7.053
 9220POPC   C4B54130  18.841  11.466   7.353
 9221POPC   NC354131   6.692  44.673   5.553
 9221POPC   PO454132   6.670  44.637   5.853
 9221POPC   GL154133   6.611  44.640   6.153
 9221POPC   GL254134   6.764  44.650   6.153
 9221POPC   C1A54135   6.639  44.688   6.453
 9221POPC   D2A54136   6.692  44.654   6.753
 9221POPC   C3A54137   6.681  44.634   7.053
 9221POPC   C4A54138   6.671  44.650   7.353
 9221POPC   C1B54139   6.890  44.658   6.453
 9221POPC   C2B54140   6.888  44.617   6.753
 9221POPC   C3B54141   6.858  44.606   7.053
 9221POPC   C4B54142   6.938  44.638   7.353
 9222POPC   NC354143  41.517  30.684   5.553
 9222POPC   PO454144  41.603  30.701   5.853
 9222POPC   GL154145  41.562  30.699   6.153
 9222POPC   GL254146  41.445  30.754   6.153
 9222POPC   C1A54147  41.558  30.658   6.453
 9222POPC   D2A54148  41.558  30.715   6.753
 9222POPC   C3A54149  41.548  30.698   7.053
 9222POPC   C4A54150  41.525  30.742   7.353
 9222POPC   C1B54151  41.346  30.756   6.453
 9222POPC   C2B54152  41.276  30.772   6.753
 9222POPC   C3B54153  41.345  30.740   7.053
 9222POPC   C4B54154  41.275  30.710   7.353
 9223POPC   NC354155  42.341  37.694   5.553
 9223POPC   PO454156  42.313  37.631   5.853
 9223POPC   GL154157  42.348  37.632   6.153
 9223POPC   GL254158  42.436  37.551   6.153
 9223POPC   C1A54159  42.342  37.676   6.453
 9223POPC   D2A54160  42.353  37.678   6.753
 9223POPC   C3A54161  42.287  37.630   7.053
 9223POPC   C4A54162  42.337  37.691   7.353
 9223POPC   C1B54163  42.510  37.515   6.453
 9223POPC   C2B54164  42.541  37.525   6.753
 9223POPC   C3B54165  42.531  37.474   7.053
 9223POPC   C4B54166  42.564  37.491   7.353
 9224POPC   NC354167  29.154  21.354   5.553
 9224POPC   PO454168  29.187  21.436   5.853
 9224POPC   GL154169  29.125  21.390   6.153
 9224POPC   GL254170  29.162  21.306   6.153
 9224POPC   C1A54171  29.127  21.347   6.453
 9224POPC   D2A54172  29.116  21.359   6.753
 9224POPC   C3A54173  29.106  21.405   7.053
 9224POPC   C4A54174  29.137  21.407   7.353
 9224POPC   C1B54175  29.120  21.178   6.453
 9224POPC   C2B54176  29.084  21.094   6.753
 9224POPC   C3B54177  29.152  21.123   7.053
 9224POPC   C4B54178  29.133  21.180   7.353
 9225POPC   NC354179  22.119   1.189   5.553
 9225POPC   PO454180  22.119   1.172   5.853
 9225POPC   GL154181  22.164   1.188   6.153
 9225POPC   GL254182  22.050   1.248   6.153
 9225POPC   C1A54183  22.200   1.206   6.453
 9225POPC   D2A54184  22.135   1.199   6.753
 9225POPC   C3A54185  22.147   1.207   7.053
 9225POPC   C4A54186  22.135   1.222   7.353
 9225POPC   C1B54187  21.921   1.292   6.453
 9225POPC   C2B54188  21.922   1.366   6.753
 9225POPC   C3B54189  21.896   1.281   7.053
 9225POPC   C4B54190  21.897   1.314   7.353
 9226POPC   NC354191  24.481  23.722   5.553
 9226POPC   PO454192  24.442  23.726   5.853
 9226POPC   GL154193  24.454  23.681   6.153
 9226POPC   GL254194  24.365  23.638   6.153
 9226POPC   C1A54195  24.514  23.702   6.453
 9226POPC   D2A54196  24.457  23.731   6.753
 9226POPC   C3A54197  24.522  23.678   7.053
 9226POPC   C4A54198  24.534  23.721   7.353
 9226POPC   C1B54199  24.324  23.528   6.453
 9226POPC   C2B54200  24.318  23.562   6.753
 9226POPC   C3B54201  24.301  23.588   7.053
 9226POPC   C4B54202  24.261  23.517   7.353
 9227POPC   NC354203  32.975   7.421   5.553
 9227POPC   PO454204  33.070   7.378   5.853
 9227POPC   GL154205  33.043   7.399   6.153
 9227POPC   GL254206  33.052   7.568   6.153
 9227POPC   C1A54207  33.021   7.403   6.453
 9227POPC   D2A54208  33.048   7.440   6.753
 9227POPC   C3A54209  33.032   7.375   7.053
 9227POPC   C4A54210  33.023   7.389   7.353
 9227POPC   C1B54211  33.134   7.710   6.453
 9227POPC   C2B54212  33.091   7.679   6.753
 9227POPC   C3B54213  33.081   7.699   7.053
 9227POPC   C4B54214  33.089   7.688   7.353
 9228POPC   NC354215  40.016  43.068   5.553
 9228POPC   PO454216  40.029  43.155   5.853
 9228POPC   GL154217  40.041  43.077   6.153
 9228POPC   GL254218  39.860  43.164   6.153
 9228POPC   C1A54219  40.038  43.069   6.453
 9228POPC   D2A54220  39.961  43.135   6.753
 9228POPC   C3A54221  40.006  43.148   7.053
 9228POPC   C4A54222  40.021  43.133   7.353
 9228POPC   C1B54223  39.834  43.310   6.453
 9228POPC   C2B54224  39.768  43.248   6.753
 9228POPC   C3B54225  39.842  43.242   7.053
 9228POPC   C4B54226  39.787  43.266   7.353
 9229POPC   NC354227  17.517  35.394   5.553
 9229POPC   PO454228  17.495  35.335   5.853
 9229POPC   GL154229  17.475  35.357   6.153
 9229POPC   GL254230  17.558  35.512   6.153
 9229POPC   C1A54231  17.503  35.346   6.453
 9229POPC   D2A54232  17.503  35.361   6.753
 9229POPC   C3A54233  17.502  35.395   7.053
 9229POPC   C4A54234  17.484  35.389   7.353
 9229POPC   C1B54235  17.575  35.553   6.453
 9229POPC   C2B54236  17.516  35.562   6.753
 9229POPC   C3B54237  17.502  35.623   7.053
 9229POPC   C4B54238  17.557  35.563   7.353
 9230POPC   NC354239  13.647  26.007   5.553
 9230POPC   PO454240  13.638  26.042   5.853
 9230POPC   GL154241  13.638  26.063   6.153
 9230POPC   GL254242  13.672  26.130   6.153
 9230POPC   C1A54243  13.655  26.008   6.453
 9230POPC   D2A54244  13.626  26.073   6.753
 9230POPC   C3A54245  13.589  26.020   7.053
 9230POPC   C4A54246  13.606  26.045   7.353
 9230POPC   C1B54247  13.813  26.247   6.453
 9230POPC   C2B54248  13.804  26.232   6.753
 9230POPC   C3B54249  13.801  26.176   7.053
 9230POPC   C4B54250  13.847  26.207   7.353
 9231POPC   NC354251   5.915  22.963   5.553
 9231POPC   PO454252   5.837  22.944   5.853
 9231POPC   GL154253   5.915  22.903   6.153
 9231POPC   GL254254   6.012  22.860   6.153
 9231POPC   C1A54255   5.884  22.971   6.453
 9231POPC   D2A54256   5.837  22.945   6.753
 9231POPC   C3A54257   5.874  22.896   7.053
 9231POPC   C4A54258   5.887  22.907   7.353
 9231POPC   C1B54259   6.033  22.855   6.453
 9231POPC   C2B54260   6.078  22.856   6.753
 9231POPC   C3B54261   6.066  22.785   7.053
 9231POPC   C4B54262   6.035  22.805   7.353
 9232POPC   NC354263  20.578  29.892   5.553
 9232POPC   PO454264  20.613  29.937   5.853
 9232POPC   GL154265  20.642  29.876   6.153
 9232POPC   GL254266  20.545  30.018   6.153
 9232POPC   C1A54267  20.631  29.899   6.453
 9232POPC   D2A54268  20.647  29.904   6.753
 9232POPC   C3A54269  20.622  29.906   7.053
 9232POPC   C4A54270  20.644  29.907   7.353
 9232POPC   C1B54271  20.488  30.125   6.453
 9232POPC   C2B54272  20.536  30.157   6.753
 9232POPC   C3B54273  20.544  30.183   7.053
 9232POPC   C4B54274  20.522  30.172   7.353
 9233POPC   NC354275   6.627  22.113   5.553
 9233POPC   PO454276   6.656  22.140   5.853
 9233POPC   GL154277   6.630  22.134   6.153
 9233POPC   GL254278   6.768  22.093   6.153
 9233POPC   C1A54279   6.688  22.170   6.453
 9233POPC   D2A54280   6.604  22.181   6.753
 9233POPC   C3A54281   6.635  22.125   7.053
 9233POPC   C4A54282   6.608  22.180   7.353
 9233POPC   C1B54283   6.893  22.136   6.453
 9233POPC   C2B54284   6.903  22.148   6.753
 9233POPC   C3B54285   6.922  22.089   7.053
 9233POPC   C4B54286   6.870  22.121   7.353
 9234POPC   NC354287  43.147  15.229   5.553
 9234POPC   PO454288  43.097  15.227   5.853
 9234POPC   GL154289  43.134  15.161   6.153
 9234POPC   GL254290  43.254  15.221   6.153
 9234POPC   C1A54291  43.098  15.152   6.453
 9234POPC   D2A54292  43.079  15.225   6.753
 9234POPC   C3A54293  43.064  15.153   7.053
 9234POPC   C4A54294  43.065  15.149   7.353
 9234POPC   C1B54295  43.403  15.145   6.453
 9234POPC   C2B54296  43.388  15.191   6.753
 9234POPC   C3B54297  43.368  15.133   7.053
 9234POPC   C4B54298  43.382  15.135   7.353
 9235POPC   NC354299  29.120  15.227   5.553
 9235POPC   PO454300  29.129  15.167   5.853
 9235POPC   GL154301  29.146  15.180   6.153
 9235POPC   GL254302  29.164  15.088   6.153
 9235POPC   C1A54303  29.120  15.196   6.453
 9235POPC   D2A54304  29.176  15.164   6.753
 9235POPC   C3A54305  29.104  15.197   7.053
 9235POPC   C4A54306  29.193  15.207   7.353
 9235POPC   C1B54307  29.118  14.959   6.453
 9235POPC   C2B54308  29.093  14.910   6.753
 9235POPC   C3B54309  29.153  14.900   7.053
 9235POPC   C4B54310  29.150  14.920   7.353
 9236POPC   NC354311  30.723  40.033   5.553
 9236POPC   PO454312  30.671  40.054   5.853
 9236POPC   GL154313  30.740  39.982   6.153
 9236POPC   GL254314  30.821  39.924   6.153
 9236POPC   C1A54315  30.674  40.039   6.453
 9236POPC   D2A54316  30.713  39.975   6.753
 9236POPC   C3A54317  30.710  40.009   7.053
 9236POPC   C4A54318  30.693  39.982   7.353
 9236POPC   C1B54319  30.968  39.924   6.453
 9236POPC   C2B54320  30.955  39.912   6.753
 9236POPC   C3B54321  30.959  39.950   7.053
 9236POPC   C4B54322  30.880  39.922   7.353
 9237POPC   NC354323  10.555  22.206   5.553
 9237POPC   PO454324  10.501  22.127   5.853
 9237POPC   GL154325  10.519  22.151   6.153
 9237POPC   GL254326  10.371  22.193   6.153
 9237POPC   C1A54327  10.536  22.159   6.453
 9237POPC   D2A54328  10.548  22.120   6.753
 9237POPC   C3A54329  10.571  22.204   7.053
 9237POPC   C4A54330  10.483  22.195   7.353
 9237POPC   C1B54331  10.279  22.239   6.453
 9237POPC   C2B54332  10.345  22.255   6.753
 9237POPC   C3B54333  10.330  22.265   7.053
 9237POPC   C4B54334  10.293  22.271   7.353
 9238POPC   NC354335  28.320  14.373   5.553
 9238POPC   PO454336  28.329  14.389   5.853
 9238POPC   GL154337  28.375  14.402   6.153
 9238POPC   GL254338  28.277  14.428   6.153
 9238POPC   C1A54339  28.332  14.363   6.453
 9238POPC   D2A54340  28.363  14.441   6.753
 9238POPC   C3A54341  28.352  14.416   7.053
 9238POPC   C4A54342  28.417  14.381   7.353
 9238POPC   C1B54343  28.136  14.514   6.453
 9238POPC   C2B54344  28.142  14.592   6.753
 9238POPC   C3B54345  28.166  14.596   7.053
 9238POPC   C4B54346  28.203  14.566   7.353
 9239POPC   NC354347   9.714  18.288   5.553
 9239POPC   PO454348   9.767  18.279   5.853
 9239POPC   GL154349   9.725  18.290   6.153
 9239POPC   GL254350   9.671  18.324   6.153
 9239POPC   C1A54351   9.724  18.289   6.453
 9239POPC   D2A54352   9.733  18.235   6.753
 9239POPC   C3A54353   9.775  18.245   7.053
 9239POPC   C4A54354   9.721  18.294   7.353
 9239POPC   C1B54355   9.525  18.370   6.453
 9239POPC   C2B54356   9.476  18.392   6.753
 9239POPC   C3B54357   9.527  18.419   7.053
 9239POPC   C4B54358   9.561  18.349   7.353
 9240POPC   NC354359   8.927  42.335   5.553
 9240POPC   PO454360   8.997  42.329   5.853
 9240POPC   GL154361   8.967  42.334   6.153
 9240POPC   GL254362   8.844  42.405   6.153
 9240POPC   C1A54363   8.942  42.382   6.453
 9240POPC   D2A54364   8.928  42.347   6.753
 9240POPC   C3A54365   8.972  42.328   7.053
 9240POPC   C4A54366   8.976  42.338   7.353
 9240POPC   C1B54367   8.788  42.417   6.453
 9240POPC   C2B54368   8.760  42.447   6.753
 9240POPC   C3B54369   8.786  42.472   7.053
 9240POPC   C4B54370   8.741  42.415   7.353
 9241POPC   NC354371  44.647   8.233   5.553
 9241POPC   PO454372  44.616   8.231   5.853
 9241POPC   GL154373  44.628   8.227   6.153
 9241POPC   GL254374  44.501   8.211   6.153
 9241POPC   C1A54375  44.669   8.211   6.453
 9241POPC   D2A54376  44.703   8.200   6.753
 9241POPC   C3A54377  44.667   8.179   7.053
 9241POPC   C4A54378  44.683   8.161   7.353
 9241POPC   C1B54379  44.475   8.279   6.453
 9241POPC   C2B54380  44.457   8.279   6.753
 9241POPC   C3B54381  44.413   8.263   7.053
 9241POPC   C4B54382  44.454   8.325   7.353
 9242POPC   NC354383  22.145  36.133   5.553
 9242POPC   PO454384  22.143  36.154   5.853
 9242POPC   GL154385  22.197  36.147   6.153
 9242POPC   GL254386  22.061  36.097   6.153
 9242POPC   C1A54387  22.168  36.174   6.453
 9242POPC   D2A54388  22.138  36.128   6.753
 9242POPC   C3A54389  22.161  36.082   7.053
 9242POPC   C4A54390  22.149  36.095   7.353
 9242POPC   C1B54391  21.915  36.105   6.453
 9242POPC   C2B54392  21.907  36.064   6.753
 9242POPC   C3B54393  21.922  36.035   7.053
 9242POPC   C4B54394  21.879  36.048   7.353
 9243POPC   NC354395  22.909   8.190   5.553
 9243POPC   PO454396  22.925   8.231   5.853
 9243POPC   GL154397  22.947   8.162   6.153
 9243POPC   GL254398  22.993   8.101   6.153
 9243POPC   C1A54399  22.916   8.246   6.453
 9243POPC   D2A54400  22.908   8.235   6.753
 9243POPC   C3A54401  22.891   8.239   7.053
 9243POPC   C4A54402  22.948   8.222   7.353
 9243POPC   C1B54403  22.975   7.949   6.453
 9243POPC   C2B54404  23.000   7.952   6.753
 9243POPC   C3B54405  22.999   7.960   7.053
 9243POPC   C4B54406  22.983   7.910   7.353
 9244POPC   NC354407  36.905  42.371   5.553
 9244POPC   PO454408  36.893  42.357   5.853
 9244POPC   GL154409  36.910  42.319   6.153
 9244POPC   GL254410  36.836  42.224   6.153
 9244POPC   C1A54411  36.897  42.305   6.453
 9244POPC   D2A54412  36.893  42.302   6.753
 9244POPC   C3A54413  36.919  42.381   7.053
 9244POPC   C4A54414  36.883  42.338   7.353
 9244POPC   C1B54415  36.664  42.220   6.453
 9244POPC   C2B54416  36.701  42.230   6.753
 9244POPC   C3B54417  36.644  42.241   7.053
 9244POPC   C4B54418  36.666  42.249   7.353
 9245POPC   NC354419  33.029  28.392   5.553
 9245POPC   PO454420  33.037  28.325   5.853
 9245POPC   GL154421  33.007  28.364   6.153
 9245POPC   GL254422  33.160  28.402   6.153
 9245POPC   C1A54423  33.068  28.342   6.453
 9245POPC   D2A54424  32.974  28.374   6.753
 9245POPC   C3A54425  32.994  28.414   7.053
 9245POPC   C4A54426  33.058  28.406   7.353
 9245POPC   C1B54427  33.206  28.558   6.453
 9245POPC   C2B54428  33.240  28.527   6.753
 9245POPC   C3B54429  33.234  28.515   7.053
 9245POPC   C4B54430  33.224  28.566   7.353
 9246POPC   NC354431   7.427  18.325   5.553
 9246POPC   PO454432   7.374  18.299   5.853
 9246POPC   GL154433   7.470  18.283   6.153
 9246POPC   GL254434   7.397  18.430   6.153
 9246POPC   C1A54435   7.434  18.316   6.453
 9246POPC   D2A54436   7.383  18.292   6.753
 9246POPC   C3A54437   7.429  18.306   7.053
 9246POPC   C4A54438   7.438  18.295   7.353
 9246POPC   C1B54439   7.492  18.489   6.453
 9246POPC   C2B54440   7.484  18.548   6.753
 9246POPC   C3B54441   7.439  18.544   7.053
 9246POPC   C4B54442   7.443  18.552   7.353
 9247POPC   NC354443   5.831  44.679   5.553
 9247POPC   PO454444   5.872  44.621   5.853
 9247POPC   GL154445   5.884  44.666   6.153
 9247POPC   GL254446   6.034  44.642   6.153
 9247POPC   C1A54447   5.846  44.621   6.453
 9247POPC   D2A54448   5.834  44.621   6.753
 9247POPC   C3A54449   5.879  44.620   7.053
 9247POPC   C4A54450   5.913  44.695   7.353
 9247POPC   C1B54451   6.083  44.641   6.453
 9247POPC   C2B54452   6.093  44.592   6.753
 9247POPC   C3B54453   6.093  44.659   7.053
 9247POPC   C4B54454   6.118  44.618   7.353
 9248POPC   NC354455  24.502   0.421   5.553
 9248POPC   PO454456  24.518   0.430   5.853
 9248POPC   GL154457  24.527   0.436   6.153
 9248POPC   GL254458  24.584   0.573   6.153
 9248POPC   C1A54459  24.487   0.455   6.453
 9248POPC   D2A54460  24.489   0.433   6.753
 9248POPC   C3A54461  24.458   0.425   7.053
 9248POPC   C4A54462  24.441   0.428   7.353
 9248POPC   C1B54463  24.615   0.629   6.453
 9248POPC   C2B54464  24.590   0.618   6.753
 9248POPC   C3B54465  24.631   0.648   7.053
 9248POPC   C4B54466  24.604   0.631   7.353
 9249POPC   NC354467  42.360  17.510   5.553
 9249POPC   PO454468  42.306  17.508   5.853
 9249POPC   GL154469  42.297  17.514   6.153
 9249POPC   GL254470  42.439  17.412   6.153
 9249POPC   C1A54471  42.345  17.460   6.453
 9249POPC   D2A54472  42.362  17.534   6.753
 9249POPC   C3A54473  42.345  17.531   7.053
 9249POPC   C4A54474  42.371  17.502   7.353
 9249POPC   C1B54475  42.486  17.309   6.453
 9249POPC   C2B54476  42.533  17.272   6.753
 9249POPC   C3B54477  42.535  17.272   7.053
 9249POPC   C4B54478  42.471  17.359   7.353
 9250POPC   NC354479  23.749  33.755   5.553
 9250POPC   PO454480  23.757  33.829   5.853
 9250POPC   GL154481  23.762  33.848   6.153
 9250POPC   GL254482  23.742  33.903   6.153
 9250POPC   C1A54483  23.682  33.805   6.453
 9250POPC   D2A54484  23.665  33.849   6.753
 9250POPC   C3A54485  23.720  33.828   7.053
 9250POPC   C4A54486  23.702  33.816   7.353
 9250POPC   C1B54487  23.801  34.048   6.453
 9250POPC   C2B54488  23.866  34.026   6.753
 9250POPC   C3B54489  23.813  34.014   7.053
 9250POPC   C4B54490  23.846  34.055   7.353
 9251POPC   NC354491  37.678  18.290   5.553
 9251POPC   PO454492  37.718  18.316   5.853
 9251POPC   GL154493  37.711  18.327   6.153
 9251POPC   GL254494  37.722  18.189   6.153
 9251POPC   C1A54495  37.655  18.239   6.453
 9251POPC   D2A54496  37.664  18.327   6.753
 9251POPC   C3A54497  37.673  18.316   7.053
 9251POPC   C4A54498  37.719  18.243   7.353
 9251POPC   C1B54499  37.816  18.046   6.453
 9251POPC   C2B54500  37.801  18.101   6.753
 9251POPC   C3B54501  37.801  18.053   7.053
 9251POPC   C4B54502  37.793  18.105   7.353
 9252POPC   NC354503   1.264  13.636   5.553
 9252POPC   PO454504   1.198  13.618   5.853
 9252POPC   GL154505   1.173  13.659   6.153
 9252POPC   GL254506   1.348  13.669   6.153
 9252POPC   C1A54507   1.253  13.606   6.453
 9252POPC   D2A54508   1.166  13.594   6.753
 9252POPC   C3A54509   1.260  13.646   7.053
 9252POPC   C4A54510   1.174  13.623   7.353
 9252POPC   C1B54511   1.491  13.601   6.453
 9252POPC   C2B54512   1.479  13.671   6.753
 9252POPC   C3B54513   1.464  13.579   7.053
 9252POPC   C4B54514   1.468  13.605   7.353
 9253POPC   NC354515   3.503  20.636   5.553
 9253POPC   PO454516   3.520  20.601   5.853
 9253POPC   GL154517   3.512  20.613   6.153
 9253POPC   GL254518   3.414  20.698   6.153
 9253POPC   C1A54519   3.584  20.659   6.453
 9253POPC   D2A54520   3.521  20.636   6.753
 9253POPC   C3A54521   3.565  20.596   7.053
 9253POPC   C4A54522   3.501  20.601   7.353
 9253POPC   C1B54523   3.297  20.744   6.453
 9253POPC   C2B54524   3.271  20.756   6.753
 9253POPC   C3B54525   3.344  20.741   7.053
 9253POPC   C4B54526   3.310  20.686   7.353
 9254POPC   NC354527  39.976  33.848   5.553
 9254POPC   PO454528  40.004  33.804   5.853
 9254POPC   GL154529  39.958  33.750   6.153
 9254POPC   GL254530  39.878  33.853   6.153
 9254POPC   C1A54531  40.020  33.772   6.453
 9254POPC   D2A54532  40.038  33.807   6.753
 9254POPC   C3A54533  40.039  33.847   7.053
 9254POPC   C4A54534  40.054  33.781   7.353
 9254POPC   C1B54535  39.765  33.880   6.453
 9254POPC   C2B54536  39.752  33.902   6.753
 9254POPC   C3B54537  39.776  33.860   7.053
 9254POPC   C4B54538  39.780  33.877   7.353
 9255POPC   NC354539  11.258   7.456   5.553
 9255POPC   PO454540  11.341   7.372   5.853
 9255POPC   GL154541  11.285   7.462   6.153
 9255POPC   GL254542  11.437   7.460   6.153
 9255POPC   C1A54543  11.295   7.418   6.453
 9255POPC   D2A54544  11.334   7.415   6.753
 9255POPC   C3A54545  11.306   7.434   7.053
 9255POPC   C4A54546  11.336   7.451   7.353
 9255POPC   C1B54547  11.579   7.429   6.453
 9255POPC   C2B54548  11.559   7.393   6.753
 9255POPC   C3B54549  11.510   7.451   7.053
 9255POPC   C4B54550  11.506   7.487   7.353
 9256POPC   NC354551   5.905  17.461   5.553
 9256POPC   PO454552   5.826  17.530   5.853
 9256POPC   GL154553   5.837  17.547   6.153
 9256POPC   GL254554   5.941  17.600   6.153
 9256POPC   C1A54555   5.870  17.508   6.453
 9256POPC   D2A54556   5.840  17.503   6.753
 9256POPC   C3A54557   5.847  17.485   7.053
 9256POPC   C4A54558   5.859  17.468   7.353
 9256POPC   C1B54559   6.001  17.730   6.453
 9256POPC   C2B54560   5.933  17.776   6.753
 9256POPC   C3B54561   6.026  17.765   7.053
 9256POPC   C4B54562   5.971  17.733   7.353
 9257POPC   NC354563  13.620  22.202   5.553
 9257POPC   PO454564  13.671  22.115   5.853
 9257POPC   GL154565  13.615  22.181   6.153
 9257POPC   GL254566  13.630  22.060   6.153
 9257POPC   C1A54567  13.633  22.162   6.453
 9257POPC   D2A54568  13.662  22.208   6.753
 9257POPC   C3A54569  13.601  22.204   7.053
 9257POPC   C4A54570  13.612  22.192   7.353
 9257POPC   C1B54571  13.569  21.944   6.453
 9257POPC   C2B54572  13.513  21.960   6.753
 9257POPC   C3B54573  13.603  21.882   7.053
 9257POPC   C4B54574  13.572  21.961   7.353
 9258POPC   NC354575  31.499  42.361   5.553
 9258POPC   PO454576  31.521  42.333   5.853
 9258POPC   GL154577  31.427  42.338   6.153
 9258POPC   GL254578  31.497  42.481   6.153
 9258POPC   C1A54579  31.511  42.369   6.453
 9258POPC   D2A54580  31.434  42.372   6.753
 9258POPC   C3A54581  31.443  42.368   7.053
 9258POPC   C4A54582  31.514  42.329   7.353
 9258POPC   C1B54583  31.438  42.574   6.453
 9258POPC   C2B54584  31.449  42.580   6.753
 9258POPC   C3B54585  31.467  42.596   7.053
 9258POPC   C4B54586  31.442  42.607   7.353
 9259POPC   NC354587   4.287  29.156   5.553
 9259POPC   PO454588   4.317  29.161   5.853
 9259POPC   GL154589   4.327  29.137   6.153
 9259POPC   GL254590   4.430  29.062   6.153
 9259POPC   C1A54591   4.271  29.132   6.453
 9259POPC   D2A54592   4.348  29.099   6.753
 9259POPC   C3A54593   4.305  29.108   7.053
 9259POPC   C4A54594   4.366  29.176   7.353
 9259POPC   C1B54595   4.498  29.063   6.453
 9259POPC   C2B54596   4.554  29.002   6.753
 9259POPC   C3B54597   4.577  29.068   7.053
 9259POPC   C4B54598   4.579  29.009   7.353
 9260POPC   NC354599  15.996  29.872   5.553
 9260POPC   PO454600  15.920  29.964   5.853
 9260POPC   GL154601  15.984  29.900   6.153
 9260POPC   GL254602  15.857  29.834   6.153
 9260POPC   C1A54603  15.967  29.920   6.453
 9260POPC   D2A54604  15.999  29.971   6.753
 9260POPC   C3A54605  15.956  29.895   7.053
 9260POPC   C4A54606  15.938  29.887   7.353
 9260POPC   C1B54607  15.771  29.723   6.453
 9260POPC   C2B54608  15.808  29.767   6.753
 9260POPC   C3B54609  15.724  29.794   7.053
 9260POPC   C4B54610  15.719  29.783   7.353
 9261POPC   NC354611  26.852  12.834   5.553
 9261POPC   PO454612  26.788  12.810   5.853
 9261POPC   GL154613  26.782  12.839   6.153
 9261POPC   GL254614  26.661  12.822   6.153
 9261POPC   C1A54615  26.849  12.892   6.453
 9261POPC   D2A54616  26.852  12.900   6.753
 9261POPC   C3A54617  26.773  12.806   7.053
 9261POPC   C4A54618  26.823  12.865   7.353
 9261POPC   C1B54619  26.619  12.805   6.453
 9261POPC   C2B54620  26.578  12.808   6.753
 9261POPC   C3B54621  26.620  12.837   7.053
 9261POPC   C4B54622  26.603  12.827   7.353
 9262POPC   NC354623   8.237  12.061   5.553
 9262POPC   PO454624   8.221  12.099   5.853
 9262POPC   GL154625   8.201  12.102   6.153
 9262POPC   GL254626   8.094  11.937   6.153
 9262POPC   C1A54627   8.219  12.114   6.453
 9262POPC   D2A54628   8.198  12.100   6.753
 9262POPC   C3A54629   8.236  12.063   7.053
 9262POPC   C4A54630   8.184  12.027   7.353
 9262POPC   C1B54631   8.129  11.862   6.453
 9262POPC   C2B54632   8.047  11.891   6.753
 9262POPC   C3B54633   8.127  11.829   7.053
 9262POPC   C4B54634   8.052  11.850   7.353
 9263POPC   NC354635   4.285  15.977   5.553
 9263POPC   PO454636   4.354  15.918   5.853
 9263POPC   GL154637   4.272  15.947   6.153
 9263POPC   GL254638   4.441  15.866   6.153
 9263POPC   C1A54639   4.282  15.948   6.453
 9263POPC   D2A54640   4.317  15.921   6.753
 9263POPC   C3A54641   4.363  15.953   7.053
 9263POPC   C4A54642   4.315  15.980   7.353
 9263POPC   C1B54643   4.496  15.811   6.453
 9263POPC   C2B54644   4.446  15.723   6.753
 9263POPC   C3B54645   4.503  15.802   7.053
 9263POPC   C4B54646   4.517  15.737   7.353
 9264POPC   NC354647  24.507   3.509   5.553
 9264POPC   PO454648  24.507   3.585   5.853
 9264POPC   GL154649  24.496   3.539   6.153
 9264POPC   GL254650  24.428   3.651   6.153
 9264POPC   C1A54651  24.475   3.570   6.453
 9264POPC   D2A54652  24.514   3.547   6.753
 9264POPC   C3A54653  24.446   3.512   7.053
 9264POPC   C4A54654  24.535   3.508   7.353
 9264POPC   C1B54655  24.376   3.812   6.453
 9264POPC   C2B54656  24.403   3.813   6.753
 9264POPC   C3B54657  24.470   3.783   7.053
 9264POPC   C4B54658  24.399   3.789   7.353
 9265POPC   NC354659   8.239   5.116   5.553
 9265POPC   PO454660   8.178   5.046   5.853
 9265POPC   GL154661   8.167   5.098   6.153
 9265POPC   GL254662   8.046   5.166   6.153
 9265POPC   C1A54663   8.189   5.072   6.453
 9265POPC   D2A54664   8.159   5.053   6.753
 9265POPC   C3A54665   8.223   5.073   7.053
 9265POPC   C4A54666   8.224   5.087   7.353
 9265POPC   C1B54667   7.963   5.172   6.453
 9265POPC   C2B54668   8.001   5.189   6.753
 9265POPC   C3B54669   7.922   5.244   7.053
 9265POPC   C4B54670   7.966   5.240   7.353
 9266POPC   NC354671  18.322  30.657   5.553
 9266POPC   PO454672  18.308  30.659   5.853
 9266POPC   GL154673  18.315  30.682   6.153
 9266POPC   GL254674  18.306  30.863   6.153
 9266POPC   C1A54675  18.257  30.701   6.453
 9266POPC   D2A54676  18.298  30.662   6.753
 9266POPC   C3A54677  18.325  30.719   7.053
 9266POPC   C4A54678  18.325  30.651   7.353
 9266POPC   C1B54679  18.361  30.986   6.453
 9266POPC   C2B54680  18.321  30.972   6.753
 9266POPC   C3B54681  18.351  30.922   7.053
 9266POPC   C4B54682  18.291  30.910   7.353
 9267POPC   NC354683  16.713   6.626   5.553
 9267POPC   PO454684  16.769   6.654   5.853
 9267POPC   GL154685  16.723   6.671   6.153
 9267POPC   GL254686  16.772   6.489   6.153
 9267POPC   C1A54687  16.707   6.674   6.453
 9267POPC   D2A54688  16.762   6.603   6.753
 9267POPC   C3A54689  16.691   6.607   7.053
 9267POPC   C4A54690  16.713   6.669   7.353
 9267POPC   C1B54691  16.780   6.438   6.453
 9267POPC   C2B54692  16.726   6.383   6.753
 9267POPC   C3B54693  16.804   6.433   7.053
 9267POPC   C4B54694  16.727   6.358   7.353
 9268POPC   NC354695   5.826  34.558   5.553
 9268POPC   PO454696   5.840  34.584   5.853
 9268POPC   GL154697   5.900  34.536   6.153
 9268POPC   GL254698   5.928  34.648   6.153
 9268POPC   C1A54699   5.847  34.532   6.453
 9268POPC   D2A54700   5.899  34.565   6.753
 9268POPC   C3A54701   5.834  34.600   7.053
 9268POPC   C4A54702   5.890  34.548   7.353
 9268POPC   C1B54703   6.070  34.683   6.453
 9268POPC   C2B54704   6.048  34.726   6.753
 9268POPC   C3B54705   6.048  34.763   7.053
 9268POPC   C4B54706   6.034  34.770   7.353
 9269POPC   NC354707  22.960  16.731   5.553
 9269POPC   PO454708  22.920  16.723   5.853
 9269POPC   GL154709  22.927  16.702   6.153
 9269POPC   GL254710  23.005  16.583   6.153
 9269POPC   C1A54711  22.898  16.770   6.453
 9269POPC   D2A54712  22.939  16.738   6.753
 9269POPC   C3A54713  22.974  16.745   7.053
 9269POPC   C4A54714  22.940  16.779   7.353
 9269POPC   C1B54715  23.023  16.478   6.453
 9269POPC   C2B54716  23.033  16.473   6.753
 9269POPC   C3B54717  22.994  16.479   7.053
 9269POPC   C4B54718  22.977  16.508   7.353
 9270POPC   NC354719  18.265  39.241   5.553
 9270POPC   PO454720  18.246  39.251   5.853
 9270POPC   GL154721  18.238  39.194   6.153
 9270POPC   GL254722  18.325  39.314   6.153
 9270POPC   C1A54723  18.275  39.253   6.453
 9270POPC   D2A54724  18.259  39.275   6.753
 9270POPC   C3A54725  18.294  39.277   7.053
 9270POPC   C4A54726  18.253  39.201   7.353
 9270POPC   C1B54727  18.421  39.392   6.453
 9270POPC   C2B54728  18.473  39.475   6.753
 9270POPC   C3B54729  18.400  39.416   7.053
 9270POPC   C4B54730  18.458  39.387   7.353
 9271POPC   NC354731   2.723  36.898   5.553
 9271POPC   PO454732   2.751  36.881   5.853
 9271POPC   GL154733   2.731  36.857   6.153
 9271POPC   GL254734   2.894  36.868   6.153
 9271POPC   C1A54735   2.812  36.890   6.453
 9271POPC   D2A54736   2.741  36.936   6.753
 9271POPC   C3A54737   2.809  36.940   7.053
 9271POPC   C4A54738   2.723  36.941   7.353
 9271POPC   C1B54739   2.969  36.857   6.453
 9271POPC   C2B54740   3.018  36.856   6.753
 9271POPC   C3B54741   3.057  36.906   7.053
 9271POPC   C4B54742   3.014  36.880   7.353
 9272POPC   NC354743  34.563   5.895   5.553
 9272POPC   PO454744  34.537   5.888   5.853
 9272POPC   GL154745  34.613   5.870   6.153
 9272POPC   GL254746  34.701   5.862   6.153
 9272POPC   C1A54747  34.624   5.836   6.453
 9272POPC   D2A54748  34.557   5.878   6.753
 9272POPC   C3A54749  34.566   5.865   7.053
 9272POPC   C4A54750  34.538   5.822   7.353
 9272POPC   C1B54751  34.836   5.840   6.453
 9272POPC   C2B54752  34.784   5.906   6.753
 9272POPC   C3B54753  34.843   5.868   7.053
 9272POPC   C4B54754  34.837   5.848   7.353
 9273POPC   NC354755  16.735  40.776   5.553
 9273POPC   PO454756  16.739  40.819   5.853
 9273POPC   GL154757  16.696  40.736   6.153
 9273POPC   GL254758  16.813  40.888   6.153
 9273POPC   C1A54759  16.759  40.791   6.453
 9273POPC   D2A54760  16.748  40.789   6.753
 9273POPC   C3A54761  16.758  40.789   7.053
 9273POPC   C4A54762  16.727  40.763   7.353
 9273POPC   C1B54763  16.937  40.943   6.453
 9273POPC   C2B54764  16.904  41.001   6.753
 9273POPC   C3B54765  16.953  40.986   7.053
 9273POPC   C4B54766  16.933  40.936   7.353
 9274POPC   NC354767  20.639   1.942   5.553
 9274POPC   PO454768  20.617   1.948   5.853
 9274POPC   GL154769  20.656   1.998   6.153
 9274POPC   GL254770  20.475   1.883   6.153
 9274POPC   C1A54771  20.615   1.983   6.453
 9274POPC   D2A54772  20.652   2.039   6.753
 9274POPC   C3A54773  20.595   2.010   7.053
 9274POPC   C4A54774  20.561   2.038   7.353
 9274POPC   C1B54775  20.401   1.822   6.453
 9274POPC   C2B54776  20.419   1.862   6.753
 9274POPC   C3B54777  20.458   1.862   7.053
 9274POPC   C4B54778  20.407   1.878   7.353
 9275POPC   NC354779  25.309  20.563   5.553
 9275POPC   PO454780  25.262  20.605   5.853
 9275POPC   GL154781  25.289  20.594   6.153
 9275POPC   GL254782  25.099  20.638   6.153
 9275POPC   C1A54783  25.255  20.655   6.453
 9275POPC   D2A54784  25.249  20.582   6.753
 9275POPC   C3A54785  25.266  20.657   7.053
 9275POPC   C4A54786  25.301  20.633   7.353
 9275POPC   C1B54787  25.015  20.591   6.453
 9275POPC   C2B54788  24.979  20.619   6.753
 9275POPC   C3B54789  25.028  20.557   7.053
 9275POPC   C4B54790  25.008  20.573   7.353
 9276POPC   NC354791  28.406  39.246   5.553
 9276POPC   PO454792  28.346  39.259   5.853
 9276POPC   GL154793  28.419  39.208   6.153
 9276POPC   GL254794  28.407  39.069   6.153
 9276POPC   C1A54795  28.387  39.246   6.453
 9276POPC   D2A54796  28.352  39.230   6.753
 9276POPC   C3A54797  28.407  39.281   7.053
 9276POPC   C4A54798  28.385  39.263   7.353
 9276POPC   C1B54799  28.363  38.967   6.453
 9276POPC   C2B54800  28.359  38.964   6.753
 9276POPC   C3B54801  28.376  38.961   7.053
 9276POPC   C4B54802  28.389  38.989   7.353
 9277POPC   NC354803  25.302  23.696   5.553
 9277POPC   PO454804  25.279  23.722   5.853
 9277POPC   GL154805  25.225  23.751   6.153
 9277POPC   GL254806  25.183  23.610   6.153
 9277POPC   C1A54807  25.256  23.698   6.453
 9277POPC   D2A54808  25.300  23.725   6.753
 9277POPC   C3A54809  25.250  23.701   7.053
 9277POPC   C4A54810  25.256  23.684   7.353
 9277POPC   C1B54811  25.052  23.534   6.453
 9277POPC   C2B54812  25.032  23.586   6.753
 9277POPC   C3B54813  25.052  23.592   7.053
 9277POPC   C4B54814  25.059  23.551   7.353
 9278POPC   NC354815  11.331  15.962   5.553
 9278POPC   PO454816  11.336  15.939   5.853
 9278POPC   GL154817  11.344  15.943   6.153
 9278POPC   GL254818  11.328  15.881   6.153
 9278POPC   C1A54819  11.325  15.954   6.453
 9278POPC   D2A54820  11.314  15.906   6.753
 9278POPC   C3A54821  11.288  15.917   7.053
 9278POPC   C4A54822  11.277  15.958   7.353
 9278POPC   C1B54823  11.497  15.765   6.453
 9278POPC   C2B54824  11.494  15.746   6.753
 9278POPC   C3B54825  11.486  15.782   7.053
 9278POPC   C4B54826  11.492  15.806   7.353
 9279POPC   NC354827   5.069  24.512   5.553
 9279POPC   PO454828   5.099  24.444   5.853
 9279POPC   GL154829   5.132  24.536   6.153
 9279POPC   GL254830   5.209  24.463   6.153
 9279POPC   C1A54831   5.054  24.477   6.453
 9279POPC   D2A54832   5.122  24.443   6.753
 9279POPC   C3A54833   5.046  24.536   7.053
 9279POPC   C4A54834   5.047  24.527   7.353
 9279POPC   C1B54835   5.274  24.382   6.453
 9279POPC   C2B54836   5.346  24.358   6.753
 9279POPC   C3B54837   5.293  24.361   7.053
 9279POPC   C4B54838   5.279  24.374   7.353
 9280POPC   NC354839  21.370  10.522   5.553
 9280POPC   PO454840  21.390  10.510   5.853
 9280POPC   GL154841  21.347  10.527   6.153
 9280POPC   GL254842  21.458  10.658   6.153
 9280POPC   C1A54843  21.384  10.537   6.453
 9280POPC   D2A54844  21.394  10.508   6.753
 9280POPC   C3A54845  21.374  10.526   7.053
 9280POPC   C4A54846  21.391  10.513   7.353
 9280POPC   C1B54847  21.470  10.786   6.453
 9280POPC   C2B54848  21.424  10.772   6.753
 9280POPC   C3B54849  21.483  10.718   7.053
 9280POPC   C4B54850  21.489  10.739   7.353
 9281POPC   NC354851  28.393  40.001   5.553
 9281POPC   PO454852  28.405  39.977   5.853
 9281POPC   GL154853  28.365  39.988   6.153
 9281POPC   GL254854  28.339  39.917   6.153
 9281POPC   C1A54855  28.358  40.014   6.453
 9281POPC   D2A54856  28.346  39.969   6.753
 9281POPC   C3A54857  28.371  39.985   7.053
 9281POPC   C4A54858  28.384  39.986   7.353
 9281POPC   C1B54859  28.308  39.813   6.453
 9281POPC   C2B54860  28.314  39.728   6.753
 9281POPC   C3B54861  28.334  39.811   7.053
 9281POPC   C4B54862  28.336  39.729   7.353
 9282POPC   NC354863  20.616  10.534   5.553
 9282POPC   PO454864  20.571  10.564   5.853
 9282POPC   GL154865  20.586  10.558   6.153
 9282POPC   GL254866  20.702  10.589   6.153
 9282POPC   C1A54867  20.602  10.540   6.453
 9282POPC   D2A54868  20.656  10.547   6.753
 9282POPC   C3A54869  20.616  10.544   7.053
 9282POPC   C4A54870  20.635  10.475   7.353
 9282POPC   C1B54871  20.814  10.708   6.453
 9282POPC   C2B54872  20.794  10.745   6.753
 9282POPC   C3B54873  20.759  10.722   7.053
 9282POPC   C4B54874  20.751  10.729   7.353
 9283POPC   NC354875  43.873  30.738   5.553
 9283POPC   PO454876  43.849  30.652   5.853
 9283POPC   GL154877  43.928  30.662   6.153
 9283POPC   GL254878  43.971  30.774   6.153
 9283POPC   C1A54879  43.914  30.664   6.453
 9283POPC   D2A54880  43.862  30.689   6.753
 9283POPC   C3A54881  43.857  30.695   7.053
 9283POPC   C4A54882  43.853  30.701   7.353
 9283POPC   C1B54883  44.030  30.889   6.453
 9283POPC   C2B54884  43.993  30.935   6.753
 9283POPC   C3B54885  44.000  30.957   7.053
 9283POPC   C4B54886  43.985  30.955   7.353
 9284POPC   NC354887   1.219   5.126   5.553
 9284POPC   PO454888   1.252   5.090   5.853
 9284POPC   GL154889   1.252   5.063   6.153
 9284POPC   GL254890   1.374   5.063   6.153
 9284POPC   C1A54891   1.242   5.113   6.453
 9284POPC   D2A54892   1.209   5.068   6.753
 9284POPC   C3A54893   1.257   5.067   7.053
 9284POPC   C4A54894   1.195   5.083   7.353
 9284POPC   C1B54895   1.401   4.955   6.453
 9284POPC   C2B54896   1.413   5.020   6.753
 9284POPC   C3B54897   1.406   4.996   7.053
 9284POPC   C4B54898   1.471   4.966   7.353
 9285POPC   NC354899  30.698  17.460   5.553
 9285POPC   PO454900  30.734  17.511   5.853
 9285POPC   GL154901  30.719  17.505   6.153
 9285POPC   GL254902  30.773  17.639   6.153
 9285POPC   C1A54903  30.676  17.512   6.453
 9285POPC   D2A54904  30.681  17.508   6.753
 9285POPC   C3A54905  30.652  17.511   7.053
 9285POPC   C4A54906  30.704  17.461   7.353
 9285POPC   C1B54907  30.876  17.734   6.453
 9285POPC   C2B54908  30.855  17.748   6.753
 9285POPC   C3B54909  30.877  17.689   7.053
 9285POPC   C4B54910  30.890  17.712   7.353
 9286POPC   NC354911  34.625   1.179   5.553
 9286POPC   PO454912  34.528   1.189   5.853
 9286POPC   GL154913  34.595   1.264   6.153
 9286POPC   GL254914  34.462   1.119   6.153
 9286POPC   C1A54915  34.549   1.165   6.453
 9286POPC   D2A54916  34.536   1.230   6.753
 9286POPC   C3A54917  34.582   1.259   7.053
 9286POPC   C4A54918  34.580   1.261   7.353
 9286POPC   C1B54919  34.408   1.053   6.453
 9286POPC   C2B54920  34.455   1.042   6.753
 9286POPC   C3B54921  34.413   0.982   7.053
 9286POPC   C4B54922  34.465   0.968   7.353
 9287POPC   NC354923  28.366   5.097   5.553
 9287POPC   PO454924  28.326   5.073   5.853
 9287POPC   GL154925  28.347   5.117   6.153
 9287POPC   GL254926  28.281   5.183   6.153
 9287POPC   C1A54927  28.320   5.105   6.453
 9287POPC   D2A54928  28.419   5.107   6.753
 9287POPC   C3A54929  28.365   5.113   7.053
 9287POPC   C4A54930  28.375   5.088   7.353
 9287POPC   C1B54931  28.124   5.201   6.453
 9287POPC   C2B54932  28.174   5.173   6.753
 9287POPC   C3B54933  28.127   5.196   7.053
 9287POPC   C4B54934  28.167   5.194   7.353
 9288POPC   NC354935  25.998  22.116   5.553
 9288POPC   PO454936  26.056  22.204   5.853
 9288POPC   GL154937  26.037  22.206   6.153
 9288POPC   GL254938  26.147  22.206   6.153
 9288POPC   C1A54939  26.079  22.129   6.453
 9288POPC   D2A54940  26.049  22.127   6.753
 9288POPC   C3A54941  26.013  22.149   7.053
 9288POPC   C4A54942  26.017  22.114   7.353
 9288POPC   C1B54943  26.247  22.267   6.453
 9288POPC   C2B54944  26.247  22.255   6.753
 9288POPC   C3B54945  26.241  22.284   7.053
 9288POPC   C4B54946  26.309  22.264   7.353
 9289POPC   NC354947  29.160  25.294   5.553
 9289POPC   PO454948  29.108  25.254   5.853
 9289POPC   GL154949  29.184  25.252   6.153
 9289POPC   GL254950  29.297  25.177   6.153
 9289POPC   C1A54951  29.116  25.259   6.453
 9289POPC   D2A54952  29.102  25.291   6.753
 9289POPC   C3A54953  29.149  25.263   7.053
 9289POPC   C4A54954  29.165  25.306   7.353
 9289POPC   C1B54955  29.386  25.117   6.453
 9289POPC   C2B54956  29.373  25.152   6.753
 9289POPC   C3B54957  29.375  25.113   7.053
 9289POPC   C4B54958  29.318  25.118   7.353
 9290POPC   NC354959  27.594   3.540   5.553
 9290POPC   PO454960  27.566   3.563   5.853
 9290POPC   GL154961  27.635   3.498   6.153
 9290POPC   GL254962  27.517   3.404   6.153
 9290POPC   C1A54963  27.544   3.586   6.453
 9290POPC   D2A54964  27.586   3.552   6.753
 9290POPC   C3A54965  27.641   3.561   7.053
 9290POPC   C4A54966  27.625   3.533   7.353
 9290POPC   C1B54967  27.437   3.361   6.453
 9290POPC   C2B54968  27.419   3.389   6.753
 9290POPC   C3B54969  27.461   3.325   7.053
 9290POPC   C4B54970  27.447   3.313   7.353
 9291POPC   NC354971   1.959   6.659   5.553
 9291POPC   PO454972   2.025   6.639   5.853
 9291POPC   GL154973   1.964   6.634   6.153
 9291POPC   GL254974   1.915   6.562   6.153
 9291POPC   C1A54975   1.984   6.599   6.453
 9291POPC   D2A54976   1.945   6.672   6.753
 9291POPC   C3A54977   2.034   6.640   7.053
 9291POPC   C4A54978   2.004   6.650   7.353
 9291POPC   C1B54979   1.881   6.457   6.453
 9291POPC   C2B54980   1.871   6.391   6.753
 9291POPC   C3B54981   1.868   6.450   7.053
 9291POPC   C4B54982   1.894   6.412   7.353
 9292POPC   NC354983  22.926  23.675   5.553
 9292POPC   PO454984  22.905  23.709   5.853
 9292POPC   GL154985  22.904  23.741   6.153
 9292POPC   GL254986  22.860  23.771   6.153
 9292POPC   C1A54987  22.900  23.728   6.453
 9292POPC   D2A54988  22.907  23.694   6.753
 9292POPC   C3A54989  22.986  23.676   7.053
 9292POPC   C4A54990  22.977  23.723   7.353
 9292POPC   C1B54991  22.678  23.812   6.453
 9292POPC   C2B54992  22.725  23.764   6.753
 9292POPC   C3B54993  22.729  23.769   7.053
 9292POPC   C4B54994  22.662  23.812   7.353
 9293POPC   NC354995   8.197  19.873   5.553
 9293POPC   PO454996   8.221  19.791   5.853
 9293POPC   GL154997   8.202  19.881   6.153
 9293POPC   GL254998   8.135  19.697   6.153
 9293POPC   C1A54999   8.184  19.802   6.453
 9293POPC   D2A55000   8.205  19.839   6.753
 9293POPC   C3A55001   8.178  19.881   7.053
 9293POPC   C4A55002   8.226  19.831   7.353
 9293POPC   C1B55003   8.088  19.634   6.453
 9293POPC   C2B55004   8.099  19.600   6.753
 9293POPC   C3B55005   8.116  19.573   7.053
 9293POPC   C4B55006   8.069  19.610   7.353
 9294POPC   NC355007  22.888   8.928   5.553
 9294POPC   PO455008  22.897   8.922   5.853
 9294POPC   GL155009  22.902   9.000   6.153
 9294POPC   GL255010  22.992   8.826   6.153
 9294POPC   C1A55011  22.977   9.004   6.453
 9294POPC   D2A55012  22.933   9.018   6.753
 9294POPC   C3A55013  22.960   8.993   7.053
 9294POPC   C4A55014  22.913   8.980   7.353
 9294POPC   C1B55015  22.990   8.766   6.453
 9294POPC   C2B55016  23.023   8.746   6.753
 9294POPC   C3B55017  22.968   8.725   7.053
 9294POPC   C4B55018  22.957   8.706   7.353
 9295POPC   NC355019   7.453   5.908   5.553
 9295POPC   PO455020   7.437   5.841   5.853
 9295POPC   GL155021   7.450   5.885   6.153
 9295POPC   GL255022   7.386   5.756   6.153
 9295POPC   C1A55023   7.383   5.865   6.453
 9295POPC   D2A55024   7.400   5.912   6.753
 9295POPC   C3A55025   7.397   5.867   7.053
 9295POPC   C4A55026   7.382   5.830   7.353
 9295POPC   C1B55027   7.397   5.641   6.453
 9295POPC   C2B55028   7.399   5.669   6.753
 9295POPC   C3B55029   7.458   5.637   7.053
 9295POPC   C4B55030   7.454   5.611   7.353
 9296POPC   NC355031  17.548   9.008   5.553
 9296POPC   PO455032  17.529   8.996   5.853
 9296POPC   GL155033  17.539   9.002   6.153
 9296POPC   GL255034  17.603   8.836   6.153
 9296POPC   C1A55035  17.463   8.971   6.453
 9296POPC   D2A55036  17.531   8.963   6.753
 9296POPC   C3A55037  17.507   8.934   7.053
 9296POPC   C4A55038  17.515   8.954   7.353
 9296POPC   C1B55039  17.647   8.769   6.453
 9296POPC   C2B55040  17.590   8.740   6.753
 9296POPC   C3B55041  17.657   8.736   7.053
 9296POPC   C4B55042  17.658   8.783   7.353
 9297POPC   NC355043  19.017   3.542   5.553
 9297POPC   PO455044  19.040   3.539   5.853
 9297POPC   GL155045  19.016   3.558   6.153
 9297POPC   GL255046  18.946   3.595   6.153
 9297POPC   C1A55047  19.020   3.564   6.453
 9297POPC   D2A55048  19.100   3.518   6.753
 9297POPC   C3A55049  19.034   3.522   7.053
 9297POPC   C4A55050  19.063   3.574   7.353
 9297POPC   C1B55051  18.893   3.673   6.453
 9297POPC   C2B55052  18.892   3.673   6.753
 9297POPC   C3B55053  18.892   3.641   7.053
 9297POPC   C4B55054  18.803   3.676   7.353
 9298POPC   NC355055  22.901  43.907   5.553
 9298POPC   PO455056  22.964  43.840   5.853
 9298POPC   GL155057  22.966  43.926   6.153
 9298POPC   GL255058  22.953  44.007   6.153
 9298POPC   C1A55059  22.927  43.894   6.453
 9298POPC   D2A55060  22.904  43.901   6.753
 9298POPC   C3A55061  22.937  43.863   7.053
 9298POPC   C4A55062  22.966  43.858   7.353
 9298POPC   C1B55063  22.874  44.136   6.453
 9298POPC   C2B55064  22.932  44.098   6.753
 9298POPC   C3B55065  22.880  44.133   7.053
 9298POPC   C4B55066  22.900  44.136   7.353
 9299POPC   NC355067  12.073  13.595   5.553
 9299POPC   PO455068  12.035  13.658   5.853
 9299POPC   GL155069  12.078  13.598   6.153
 9299POPC   GL255070  11.989  13.691   6.153
 9299POPC   C1A55071  12.068  13.597   6.453
 9299POPC   D2A55072  12.044  13.579   6.753
 9299POPC   C3A55073  12.111  13.643   7.053
 9299POPC   C4A55074  12.114  13.621   7.353
 9299POPC   C1B55075  11.865  13.792   6.453
 9299POPC   C2B55076  11.933  13.812   6.753
 9299POPC   C3B55077  11.933  13.779   7.053
 9299POPC   C4B55078  11.899  13.812   7.353
 9300POPC   NC355079  44.639  39.246   5.553
 9300POPC   PO455080  44.648  39.217   5.853
 9300POPC   GL155081  44.643  39.252   6.153
 9300POPC   GL255082  44.786  39.214   6.153
 9300POPC   C1A55083  44.630  39.276   6.453
 9300POPC   D2A55084  44.653  39.259   6.753
 9300POPC   C3A55085  44.629  39.273   7.053
 9300POPC   C4A55086  44.684  39.247   7.353
 9300POPC   C1B55087  44.932  39.265   6.453
 9300POPC   C2B55088  44.874  39.226   6.753
 9300POPC   C3B55089  44.864  39.217   7.053
 9300POPC   C4B55090  44.875  39.220   7.353
 9301POPC   NC355091   4.355  17.483   5.553
 9301POPC   PO455092   4.357  17.480   5.853
 9301POPC   GL155093   4.361  17.532   6.153
 9301POPC   GL255094   4.211  17.558   6.153
 9301POPC   C1A55095   4.343  17.532   6.453
 9301POPC   D2A55096   4.311  17.551   6.753
 9301POPC   C3A55097   4.314  17.528   7.053
 9301POPC   C4A55098   4.358  17.556   7.353
 9301POPC   C1B55099   4.110  17.504   6.453
 9301POPC   C2B55100   4.048  17.555   6.753
 9301POPC   C3B55101   4.088  17.506   7.053
 9301POPC   C4B55102   4.069  17.498   7.353
 9302POPC   NC355103  12.810  24.490   5.553
 9302POPC   PO455104  12.807  24.461   5.853
 9302POPC   GL155105  12.899  24.467   6.153
 9302POPC   GL255106  12.794  24.377   6.153
 9302POPC   C1A55107  12.826  24.539   6.453
 9302POPC   D2A55108  12.839  24.468   6.753
 9302POPC   C3A55109  12.814  24.476   7.053
 9302POPC   C4A55110  12.836  24.454   7.353
 9302POPC   C1B55111  12.639  24.342   6.453
 9302POPC   C2B55112  12.692  24.338   6.753
 9302POPC   C3B55113  12.608  24.329   7.053
 9302POPC   C4B55114  12.661  24.332   7.353
 9303POPC   NC355115  40.006   3.552   5.553
 9303POPC   PO455116  40.047   3.545   5.853
 9303POPC   GL155117  40.021   3.584   6.153
 9303POPC   GL255118  39.929   3.494   6.153
 9303POPC   C1A55119  39.959   3.526   6.453
 9303POPC   D2A55120  40.009   3.586   6.753
 9303POPC   C3A55121  39.990   3.513   7.053
 9303POPC   C4A55122  39.980   3.563   7.353
 9303POPC   C1B55123  39.775   3.418   6.453
 9303POPC   C2B55124  39.836   3.424   6.753
 9303POPC   C3B55125  39.796   3.430   7.053
 9303POPC   C4B55126  39.776   3.394   7.353
 9304POPC   NC355127  14.358  14.385   5.553
 9304POPC   PO455128  14.433  14.360   5.853
 9304POPC   GL155129  14.399  14.376   6.153
 9304POPC   GL255130  14.415  14.243   6.153
 9304POPC   C1A55131  14.389  14.379   6.453
 9304POPC   D2A55132  14.423  14.419   6.753
 9304POPC   C3A55133  14.395  14.418   7.053
 9304POPC   C4A55134  14.383  14.449   7.353
 9304POPC   C1B55135  14.323  14.157   6.453
 9304POPC   C2B55136  14.343  14.163   6.753
 9304POPC   C3B55137  14.334  14.173   7.053
 9304POPC   C4B55138  14.281  14.196   7.353
 9305POPC   NC355139  27.617  21.419   5.553
 9305POPC   PO455140  27.544  21.340   5.853
 9305POPC   GL155141  27.626  21.403   6.153
 9305POPC   GL255142  27.746  21.346   6.153
 9305POPC   C1A55143  27.560  21.418   6.453
 9305POPC   D2A55144  27.574  21.430   6.753
 9305POPC   C3A55145  27.562  21.411   7.053
 9305POPC   C4A55146  27.551  21.359   7.353
 9305POPC   C1B55147  27.815  21.379   6.453
 9305POPC   C2B55148  27.864  21.359   6.753
 9305POPC   C3B55149  27.819  21.364   7.053
 9305POPC   C4B55150  27.843  21.307   7.353
 9306POPC   NC355151  12.902  36.919   5.553
 9306POPC   PO455152  12.823  36.937   5.853
 9306POPC   GL155153  12.869  36.877   6.153
 9306POPC   GL255154  12.922  36.956   6.153
 9306POPC   C1A55155  12.846  36.861   6.453
 9306POPC   D2A55156  12.869  36.897   6.753
 9306POPC   C3A55157  12.897  36.933   7.053
 9306POPC   C4A55158  12.817  36.948   7.353
 9306POPC   C1B55159  12.968  37.142   6.453
 9306POPC   C2B55160  13.016  37.079   6.753
 9306POPC   C3B55161  13.060  37.123   7.053
 9306POPC   C4B55162  13.021  37.043   7.353
 9307POPC   NC355163   8.940  39.267   5.553
 9307POPC   PO455164   9.019  39.267   5.853
 9307POPC   GL155165   8.971  39.195   6.153
 9307POPC   GL255166   8.874  39.323   6.153
 9307POPC   C1A55167   8.961  39.218   6.453
 9307POPC   D2A55168   8.980  39.190   6.753
 9307POPC   C3A55169   8.965  39.278   7.053
 9307POPC   C4A55170   9.008  39.252   7.353
 9307POPC   C1B55171   8.751  39.376   6.453
 9307POPC   C2B55172   8.742  39.333   6.753
 9307POPC   C3B55173   8.775  39.401   7.053
 9307POPC   C4B55174   8.755  39.361   7.353
 9308POPC   NC355175   1.173  16.750   5.553
 9308POPC   PO455176   1.167  16.730   5.853
 9308POPC   GL155177   1.170  16.750   6.153
 9308POPC   GL255178   1.221  16.664   6.153
 9308POPC   C1A55179   1.243  16.721   6.453
 9308POPC   D2A55180   1.258  16.746   6.753
 9308POPC   C3A55181   1.241  16.698   7.053
 9308POPC   C4A55182   1.210  16.689   7.353
 9308POPC   C1B55183   1.283  16.494   6.453
 9308POPC   C2B55184   1.358  16.536   6.753
 9308POPC   C3B55185   1.295  16.520   7.053
 9308POPC   C4B55186   1.264  16.477   7.353
 9309POPC   NC355187  12.849  26.835   5.553
 9309POPC   PO455188  12.843  26.861   5.853
 9309POPC   GL155189  12.820  26.769   6.153
 9309POPC   GL255190  12.774  26.755   6.153
 9309POPC   C1A55191  12.897  26.833   6.453
 9309POPC   D2A55192  12.885  26.773   6.753
 9309POPC   C3A55193  12.901  26.858   7.053
 9309POPC   C4A55194  12.866  26.785   7.353
 9309POPC   C1B55195  12.609  26.822   6.453
 9309POPC   C2B55196  12.623  26.757   6.753
 9309POPC   C3B55197  12.636  26.734   7.053
 9309POPC   C4B55198  12.557  26.735   7.353
 9310POPC   NC355199  42.357  40.005   5.553
 9310POPC   PO455200  42.384  40.000   5.853
 9310POPC   GL155201  42.364  40.001   6.153
 9310POPC   GL255202  42.380  39.864   6.153
 9310POPC   C1A55203  42.364  40.045   6.453
 9310POPC   D2A55204  42.302  40.018   6.753
 9310POPC   C3A55205  42.327  40.038   7.053
 9310POPC   C4A55206  42.376  39.981   7.353
 9310POPC   C1B55207  42.332  39.728   6.453
 9310POPC   C2B55208  42.381  39.724   6.753
 9310POPC   C3B55209  42.395  39.753   7.053
 9310POPC   C4B55210  42.418  39.723   7.353
 9311POPC   NC355211  19.043  43.081   5.553
 9311POPC   PO455212  19.102  43.156   5.853
 9311POPC   GL155213  19.056  43.144   6.153
 9311POPC   GL255214  19.043  43.017   6.153
 9311POPC   C1A55215  19.086  43.145   6.453
 9311POPC   D2A55216  19.031  43.071   6.753
 9311POPC   C3A55217  19.109  43.149   7.053
 9311POPC   C4A55218  19.056  43.062   7.353
 9311POPC   C1B55219  18.953  42.849   6.453
 9311POPC   C2B55220  18.940  42.875   6.753
 9311POPC   C3B55221  18.916  42.882   7.053
 9311POPC   C4B55222  18.925  42.894   7.353
 9312POPC   NC355223  14.404   9.713   5.553
 9312POPC   PO455224  14.428   9.785   5.853
 9312POPC   GL155225  14.426   9.712   6.153
 9312POPC   GL255226  14.535   9.838   6.153
 9312POPC   C1A55227  14.357   9.704   6.453
 9312POPC   D2A55228  14.428   9.789   6.753
 9312POPC   C3A55229  14.407   9.705   7.053
 9312POPC   C4A55230  14.417   9.761   7.353
 9312POPC   C1B55231  14.622   9.866   6.453
 9312POPC   C2B55232  14.597   9.909   6.753
 9312POPC   C3B55233  14.604   9.871   7.053
 9312POPC   C4B55234  14.622   9.865   7.353
 9313POPC   NC355235   0.433  16.758   5.553
 9313POPC   PO455236   0.454  16.754   5.853
 9313POPC   GL155237   0.389  16.781   6.153
 9313POPC   GL255238   0.319  16.803   6.153
 9313POPC   C1A55239   0.393  16.711   6.453
 9313POPC   D2A55240   0.458  16.691   6.753
 9313POPC   C3A55241   0.398  16.765   7.053
 9313POPC   C4A55242   0.449  16.734   7.353
 9313POPC   C1B55243   0.265  16.898   6.453
 9313POPC   C2B55244   0.293  16.977   6.753
 9313POPC   C3B55245   0.298  16.941   7.053
 9313POPC   C4B55246   0.265  16.914   7.353
 9314POPC   NC355247   6.640  23.690   5.553
 9314POPC   PO455248   6.647  23.756   5.853
 9314POPC   GL155249   6.652  23.680   6.153
 9314POPC   GL255250   6.692  23.819   6.153
 9314POPC   C1A55251   6.653  23.699   6.453
 9314POPC   D2A55252   6.619  23.714   6.753
 9314POPC   C3A55253   6.627  23.665   7.053
 9314POPC   C4A55254   6.649  23.722   7.353
 9314POPC   C1B55255   6.736  23.905   6.453
 9314POPC   C2B55256   6.732  23.975   6.753
 9314POPC   C3B55257   6.730  23.933   7.053
 9314POPC   C4B55258   6.722  23.921   7.353
 9315POPC   NC355259  36.901  15.967   5.553
 9315POPC   PO455260  36.941  15.906   5.853
 9315POPC   GL155261  36.910  15.931   6.153
 9315POPC   GL255262  36.987  16.099   6.153
 9315POPC   C1A55263  36.952  15.935   6.453
 9315POPC   D2A55264  36.940  15.960   6.753
 9315POPC   C3A55265  36.875  15.936   7.053
 9315POPC   C4A55266  36.874  15.923   7.353
 9315POPC   C1B55267  37.034  16.134   6.453
 9315POPC   C2B55268  37.075  16.150   6.753
 9315POPC   C3B55269  37.021  16.160   7.053
 9315POPC   C4B55270  37.027  16.181   7.353
 9316POPC   NC355271  12.065   8.967   5.553
 9316POPC   PO455272  12.040   8.947   5.853
 9316POPC   GL155273  12.115   8.969   6.153
 9316POPC   GL255274  11.988   8.845   6.153
 9316POPC   C1A55275  12.057   8.998   6.453
 9316POPC   D2A55276  12.096   9.014   6.753
 9316POPC   C3A55277  12.070   8.977   7.053
 9316POPC   C4A55278  12.053   8.934   7.353
 9316POPC   C1B55279  11.974   8.728   6.453
 9316POPC   C2B55280  11.943   8.789   6.753
 9316POPC   C3B55281  11.925   8.769   7.053
 9316POPC   C4B55282  11.919   8.757   7.353
 9317POPC   NC355283  36.170   4.335   5.553
 9317POPC   PO455284  36.084   4.313   5.853
 9317POPC   GL155285  36.097   4.363   6.153
 9317POPC   GL255286  36.074   4.208   6.153
 9317POPC   C1A55287  36.095   4.275   6.453
 9317POPC   D2A55288  36.154   4.282   6.753
 9317POPC   C3A55289  36.154   4.289   7.053
 9317POPC   C4A55290  36.079   4.329   7.353
 9317POPC   C1B55291  36.048   4.043   6.453
 9317POPC   C2B55292  36.062   4.045   6.753
 9317POPC   C3B55293  36.017   4.118   7.053
 9317POPC   C4B55294  36.038   4.055   7.353
 9318POPC   NC355295  34.569   3.561   5.553
 9318POPC   PO455296  34.597   3.541   5.853
 9318POPC   GL155297  34.527   3.530   6.153
 9318POPC   GL255298  34.536   3.594   6.153
 9318POPC   C1A55299  34.568   3.493   6.453
 9318POPC   D2A55300  34.550   3.560   6.753
 9318POPC   C3A55301  34.562   3.512   7.053
 9318POPC   C4A55302  34.547   3.530   7.353
 9318POPC   C1B55303  34.373   3.709   6.453
 9318POPC   C2B55304  34.415   3.684   6.753
 9318POPC   C3B55305  34.370   3.765   7.053
 9318POPC   C4B55306  34.353   3.765   7.353
 9319POPC   NC355307  23.737  23.706   5.553
 9319POPC   PO455308  23.667  23.694   5.853
 9319POPC   GL155309  23.742  23.748   6.153
 9319POPC   GL255310  23.825  23.663   6.153
 9319POPC   C1A55311  23.681  23.693   6.453
 9319POPC   D2A55312  23.704  23.713   6.753
 9319POPC   C3A55313  23.729  23.678   7.053
 9319POPC   C4A55314  23.719  23.751   7.353
 9319POPC   C1B55315  23.899  23.618   6.453
 9319POPC   C2B55316  23.899  23.537   6.753
 9319POPC   C3B55317  23.963  23.584   7.053
 9319POPC   C4B55318  23.924  23.565   7.353
 9320POPC   NC355319  31.471  36.169   5.553
 9320POPC   PO455320  31.514  36.144   5.853
 9320POPC   GL155321  31.484  36.153   6.153
 9320POPC   GL255322  31.398  36.072   6.153
 9320POPC   C1A55323  31.519  36.129   6.453
 9320POPC   D2A55324  31.515  36.135   6.753
 9320POPC   C3A55325  31.495  36.087   7.053
 9320POPC   C4A55326  31.428  36.164   7.353
 9320POPC   C1B55327  31.196  36.056   6.453
 9320POPC   C2B55328  31.200  36.040   6.753
 9320POPC   C3B55329  31.222  36.080   7.053
 9320POPC   C4B55330  31.220  36.084   7.353
 9321POPC   NC355331  20.650  17.524   5.553
 9321POPC   PO455332  20.580  17.495   5.853
 9321POPC   GL155333  20.635  17.503   6.153
 9321POPC   GL255334  20.629  17.380   6.153
 9321POPC   C1A55335  20.617  17.535   6.453
 9321POPC   D2A55336  20.609  17.520   6.753
 9321POPC   C3A55337  20.656  17.495   7.053
 9321POPC   C4A55338  20.591  17.489   7.353
 9321POPC   C1B55339  20.729  17.307   6.453
 9321POPC   C2B55340  20.711  17.246   6.753
 9321POPC   C3B55341  20.741  17.248   7.053
 9321POPC   C4B55342  20.701  17.278   7.353
 9322POPC   NC355343   8.996  27.563   5.553
 9322POPC   PO455344   8.936  27.563   5.853
 9322POPC   GL155345   8.977  27.563   6.153
 9322POPC   GL255346   9.073  27.584   6.153
 9322POPC   C1A55347   8.965  27.571   6.453
 9322POPC   D2A55348   8.963  27.588   6.753
 9322POPC   C3A55349   8.968  27.634   7.053
 9322POPC   C4A55350   9.021  27.547   7.353
 9322POPC   C1B55351   9.254  27.514   6.453
 9322POPC   C2B55352   9.172  27.508   6.753
 9322POPC   C3B55353   9.260  27.525   7.053
 9322POPC   C4B55354   9.172  27.560   7.353
 9323POPC   NC355355  40.824  29.944   5.553
 9323POPC   PO455356  40.784  29.893   5.853
 9323POPC   GL155357  40.785  29.912   6.153
 9323POPC   GL255358  40.799  29.761   6.153
 9323POPC   C1A55359  40.814  29.873   6.453
 9323POPC   D2A55360  40.783  29.938   6.753
 9323POPC   C3A55361  40.782  29.906   7.053
 9323POPC   C4A55362  40.738  29.915   7.353
 9323POPC   C1B55363  40.764  29.682   6.453
 9323POPC   C2B55364  40.778  29.674   6.753
 9323POPC   C3B55365  40.828  29.632   7.053
 9323POPC   C4B55366  40.820  29.638   7.353
 9324POPC   NC355367   7.401   6.684   5.553
 9324POPC   PO455368   7.451   6.679   5.853
 9324POPC   GL155369   7.410   6.664   6.153
 9324POPC   GL255370   7.559   6.631   6.153
 9324POPC   C1A55371   7.408   6.617   6.453
 9324POPC   D2A55372   7.461   6.614   6.753
 9324POPC   C3A55373   7.386   6.692   7.053
 9324POPC   C4A55374   7.383   6.659   7.353
 9324POPC   C1B55375   7.631   6.688   6.453
 9324POPC   C2B55376   7.671   6.662   6.753
 9324POPC   C3B55377   7.658   6.612   7.053
 9324POPC   C4B55378   7.625   6.685   7.353
 9325POPC   NC355379  36.946  23.711   5.553
 9325POPC   PO455380  36.929  23.724   5.853
 9325POPC   GL155381  36.871  23.756   6.153
 9325POPC   GL255382  36.916  23.596   6.153
 9325POPC   C1A55383  36.875  23.758   6.453
 9325POPC   D2A55384  36.881  23.745   6.753
 9325POPC   C3A55385  36.868  23.707   7.053
 9325POPC   C4A55386  36.862  23.697   7.353
 9325POPC   C1B55387  36.955  23.446   6.453
 9325POPC   C2B55388  36.914  23.491   6.753
 9325POPC   C3B55389  36.927  23.487   7.053
 9325POPC   C4B55390  36.968  23.503   7.353
 9326POPC   NC355391  32.245  31.456   5.553
 9326POPC   PO455392  32.204  31.465   5.853
 9326POPC   GL155393  32.253  31.505   6.153
 9326POPC   GL255394  32.241  31.573   6.153
 9326POPC   C1A55395  32.218  31.498   6.453
 9326POPC   D2A55396  32.290  31.484   6.753
 9326POPC   C3A55397  32.204  31.430   7.053
 9326POPC   C4A55398  32.210  31.441   7.353
 9326POPC   C1B55399  32.231  31.723   6.453
 9326POPC   C2B55400  32.197  31.744   6.753
 9326POPC   C3B55401  32.155  31.690   7.053
 9326POPC   C4B55402  32.226  31.709   7.353
 9327POPC   NC355403  16.696  11.259   5.553
 9327POPC   PO455404  16.691  11.273   5.853
 9327POPC   GL155405  16.749  11.317   6.153
 9327POPC   GL255406  16.834  11.173   6.153
 9327POPC   C1A55407  16.714  11.312   6.453
 9327POPC   D2A55408  16.716  11.341   6.753
 9327POPC   C3A55409  16.755  11.270   7.053
 9327POPC   C4A55410  16.702  11.259   7.353
 9327POPC   C1B55411  16.897  11.116   6.453
 9327POPC   C2B55412  16.904  11.058   6.753
 9327POPC   C3B55413  16.873  11.147   7.053
 9327POPC   C4B55414  16.905  11.112   7.353
 9328POPC   NC355415  43.070  42.299   5.553
 9328POPC   PO455416  43.155  42.339   5.853
 9328POPC   GL155417  43.112  42.305   6.153
 9328POPC   GL255418  42.992  42.379   6.153
 9328POPC   C1A55419  43.114  42.373   6.453
 9328POPC   D2A55420  43.071  42.292   6.753
 9328POPC   C3A55421  43.145  42.310   7.053
 9328POPC   C4A55422  43.092  42.317   7.353
 9328POPC   C1B55423  42.835  42.397   6.453
 9328POPC   C2B55424  42.879  42.374   6.753
 9328POPC   C3B55425  42.888  42.419   7.053
 9328POPC   C4B55426  42.864  42.435   7.353
 9329POPC   NC355427   8.944   6.683   5.553
 9329POPC   PO455428   8.947   6.693   5.853
 9329POPC   GL155429   8.988   6.656   6.153
 9329POPC   GL255430   9.034   6.683   6.153
 9329POPC   C1A55431   8.944   6.629   6.453
 9329POPC   D2A55432   8.957   6.673   6.753
 9329POPC   C3A55433   9.007   6.638   7.053
 9329POPC   C4A55434   8.927   6.607   7.353
 9329POPC   C1B55435   9.154   6.754   6.453
 9329POPC   C2B55436   9.166   6.789   6.753
 9329POPC   C3B55437   9.135   6.771   7.053
 9329POPC   C4B55438   9.154   6.774   7.353
 9330POPC   NC355439  37.701  33.773   5.553
 9330POPC   PO455440  37.651  33.770   5.853
 9330POPC   GL155441  37.696  33.836   6.153
 9330POPC   GL255442  37.787  33.736   6.153
 9330POPC   C1A55443  37.645  33.766   6.453
 9330POPC   D2A55444  37.644  33.794   6.753
 9330POPC   C3A55445  37.720  33.780   7.053
 9330POPC   C4A55446  37.726  33.843   7.353
 9330POPC   C1B55447  37.830  33.556   6.453
 9330POPC   C2B55448  37.833  33.570   6.753
 9330POPC   C3B55449  37.825  33.651   7.053
 9330POPC   C4B55450  37.813  33.619   7.353
 9331POPC   NC355451  33.836  41.527   5.553
 9331POPC   PO455452  33.758  41.553   5.853
 9331POPC   GL155453  33.817  41.514   6.153
 9331POPC   GL255454  33.914  41.553   6.153
 9331POPC   C1A55455  33.817  41.513   6.453
 9331POPC   D2A55456  33.850  41.600   6.753
 9331POPC   C3A55457  33.807  41.554   7.053
 9331POPC   C4A55458  33.769  41.523   7.353
 9331POPC   C1B55459  34.029  41.642   6.453
 9331POPC   C2B55460  34.014  41.587   6.753
 9331POPC   C3B55461  34.029  41.554   7.053
 9331POPC   C4B55462  34.002  41.563   7.353
 9332POPC   NC355463  43.928  36.094   5.553
 9332POPC   PO455464  43.895  36.149   5.853
 9332POPC   GL155465  43.842  36.104   6.153
 9332POPC   GL255466  43.951  36.270   6.153
 9332POPC   C1A55467  43.880  36.100   6.453
 9332POPC   D2A55468  43.843  36.157   6.753
 9332POPC   C3A55469  43.895  36.167   7.053
 9332POPC   C4A55470  43.914  36.153   7.353
 9332POPC   C1B55471  43.997  36.333   6.453
 9332POPC   C2B55472  43.977  36.333   6.753
 9332POPC   C3B55473  43.931  36.325   7.053
 9332POPC   C4B55474  43.986  36.322   7.353
 9333POPC   NC355475  34.595  43.061   5.553
 9333POPC   PO455476  34.564  43.159   5.853
 9333POPC   GL155477  34.529  43.157   6.153
 9333POPC   GL255478  34.421  43.191   6.153
 9333POPC   C1A55479  34.526  43.123   6.453
 9333POPC   D2A55480  34.539  43.082   6.753
 9333POPC   C3A55481  34.539  43.155   7.053
 9333POPC   C4A55482  34.564  43.146   7.353
 9333POPC   C1B55483  34.366  43.161   6.453
 9333POPC   C2B55484  34.294  43.143   6.753
 9333POPC   C3B55485  34.352  43.202   7.053
 9333POPC   C4B55486  34.337  43.161   7.353
 9334POPC   NC355487  27.561   1.994   5.553
 9334POPC   PO455488  27.569   2.016   5.853
 9334POPC   GL155489  27.639   2.035   6.153
 9334POPC   GL255490  27.597   2.095   6.153
 9334POPC   C1A55491  27.554   2.033   6.453
 9334POPC   D2A55492  27.580   1.961   6.753
 9334POPC   C3A55493  27.563   2.007   7.053
 9334POPC   C4A55494  27.578   1.962   7.353
 9334POPC   C1B55495  27.713   2.245   6.453
 9334POPC   C2B55496  27.688   2.242   6.753
 9334POPC   C3B55497  27.713   2.206   7.053
 9334POPC   C4B55498  27.691   2.197   7.353
 9335POPC   NC355499  11.308  18.301   5.553
 9335POPC   PO455500  11.325  18.278   5.853
 9335POPC   GL155501  11.300  18.332   6.153
 9335POPC   GL255502  11.321  18.119   6.153
 9335POPC   C1A55503  11.268  18.259   6.453
 9335POPC   D2A55504  11.286  18.260   6.753
 9335POPC   C3A55505  11.330  18.291   7.053
 9335POPC   C4A55506  11.266  18.273   7.353
 9335POPC   C1B55507  11.336  18.006   6.453
 9335POPC   C2B55508  11.326  18.009   6.753
 9335POPC   C3B55509  11.295  18.013   7.053
 9335POPC   C4B55510  11.362  17.998   7.353
 9336POPC   NC355511  41.589  19.825   5.553
 9336POPC   PO455512  41.531  19.813   5.853
 9336POPC   GL155513  41.555  19.828   6.153
 9336POPC   GL255514  41.654  19.853   6.153
 9336POPC   C1A55515  41.554  19.872   6.453
 9336POPC   D2A55516  41.563  19.830   6.753
 9336POPC   C3A55517  41.558  19.791   7.053
 9336POPC   C4A55518  41.547  19.786   7.353
 9336POPC   C1B55519  41.850  19.777   6.453
 9336POPC   C2B55520  41.823  19.797   6.753
 9336POPC   C3B55521  41.774  19.759   7.053
 9336POPC   C4B55522  41.844  19.823   7.353
 9337POPC   NC355523   6.638  29.128   5.553
 9337POPC   PO455524   6.627  29.117   5.853
 9337POPC   GL155525   6.642  29.191   6.153
 9337POPC   GL255526   6.545  29.059   6.153
 9337POPC   C1A55527   6.670  29.107   6.453
 9337POPC   D2A55528   6.638  29.098   6.753
 9337POPC   C3A55529   6.693  29.104   7.053
 9337POPC   C4A55530   6.680  29.180   7.353
 9337POPC   C1B55531   6.552  28.946   6.453
 9337POPC   C2B55532   6.484  28.943   6.753
 9337POPC   C3B55533   6.496  28.977   7.053
 9337POPC   C4B55534   6.502  28.906   7.353
 9338POPC   NC355535  17.492   2.813   5.553
 9338POPC   PO455536  17.544   2.799   5.853
 9338POPC   GL155537  17.482   2.756   6.153
 9338POPC   GL255538  17.621   2.671   6.153
 9338POPC   C1A55539  17.492   2.718   6.453
 9338POPC   D2A55540  17.461   2.729   6.753
 9338POPC   C3A55541  17.485   2.788   7.053
 9338POPC   C4A55542  17.474   2.737   7.353
 9338POPC   C1B55543  17.631   2.593   6.453
 9338POPC   C2B55544  17.696   2.553   6.753
 9338POPC   C3B55545  17.680   2.594   7.053
 9338POPC   C4B55546  17.647   2.562   7.353
 9339POPC   NC355547  21.370  15.217   5.553
 9339POPC   PO455548  21.423  15.173   5.853
 9339POPC   GL155549  21.388  15.179   6.153
 9339POPC   GL255550  21.481  15.065   6.153
 9339POPC   C1A55551  21.411  15.169   6.453
 9339POPC   D2A55552  21.347  15.136   6.753
 9339POPC   C3A55553  21.420  15.194   7.053
 9339POPC   C4A55554  21.421  15.169   7.353
 9339POPC   C1B55555  21.531  14.914   6.453
 9339POPC   C2B55556  21.453  14.914   6.753
 9339POPC   C3B55557  21.535  14.983   7.053
 9339POPC   C4B55558  21.462  14.992   7.353
 9340POPC   NC355559  12.813  15.223   5.553
 9340POPC   PO455560  12.895  15.211   5.853
 9340POPC   GL155561  12.809  15.175   6.153
 9340POPC   GL255562  12.761  15.076   6.153
 9340POPC   C1A55563  12.855  15.151   6.453
 9340POPC   D2A55564  12.878  15.180   6.753
 9340POPC   C3A55565  12.853  15.216   7.053
 9340POPC   C4A55566  12.807  15.203   7.353
 9340POPC   C1B55567  12.596  15.095   6.453
 9340POPC   C2B55568  12.629  15.063   6.753
 9340POPC   C3B55569  12.592  15.028   7.053
 9340POPC   C4B55570  12.679  15.051   7.353
 9341POPC   NC355571  19.872   1.996   5.553
 9341POPC   PO455572  19.838   2.018   5.853
 9341POPC   GL155573  19.791   2.032   6.153
 9341POPC   GL255574  19.978   1.954   6.153
 9341POPC   C1A55575  19.829   1.968   6.453
 9341POPC   D2A55576  19.813   1.978   6.753
 9341POPC   C3A55577  19.815   2.017   7.053
 9341POPC   C4A55578  19.870   2.029   7.353
 9341POPC   C1B55579  20.072   1.916   6.453
 9341POPC   C2B55580  20.077   1.923   6.753
 9341POPC   C3B55581  20.071   1.915   7.053
 9341POPC   C4B55582  20.051   1.861   7.353
 9342POPC   NC355583  34.590  29.163   5.553
 9342POPC   PO455584  34.526  29.178   5.853
 9342POPC   GL155585  34.602  29.118   6.153
 9342POPC   GL255586  34.520  29.041   6.153
 9342POPC   C1A55587  34.594  29.118   6.453
 9342POPC   D2A55588  34.551  29.156   6.753
 9342POPC   C3A55589  34.599  29.176   7.053
 9342POPC   C4A55590  34.578  29.189   7.353
 9342POPC   C1B55591  34.408  28.995   6.453
 9342POPC   C2B55592  34.328  28.986   6.753
 9342POPC   C3B55593  34.393  28.944   7.053
 9342POPC   C4B55594  34.387  28.969   7.353
 9343POPC   NC355595  30.693  36.101   5.553
 9343POPC   PO455596  30.741  36.149   5.853
 9343POPC   GL155597  30.703  36.112   6.153
 9343POPC   GL255598  30.567  36.223   6.153
 9343POPC   C1A55599  30.666  36.126   6.453
 9343POPC   D2A55600  30.705  36.096   6.753
 9343POPC   C3A55601  30.649  36.151   7.053
 9343POPC   C4A55602  30.742  36.177   7.353
 9343POPC   C1B55603  30.500  36.273   6.453
 9343POPC   C2B55604  30.479  36.305   6.753
 9343POPC   C3B55605  30.547  36.269   7.053
 9343POPC   C4B55606  30.483  36.285   7.353
 9344POPC   NC355607  19.056  20.587   5.553
 9344POPC   PO455608  19.045  20.609   5.853
 9344POPC   GL155609  19.098  20.644   6.153
 9344POPC   GL255610  19.019  20.717   6.153
 9344POPC   C1A55611  19.071  20.614   6.453
 9344POPC   D2A55612  19.096  20.607   6.753
 9344POPC   C3A55613  19.087  20.614   7.053
 9344POPC   C4A55614  19.046  20.566   7.353
 9344POPC   C1B55615  19.073  20.829   6.453
 9344POPC   C2B55616  19.041  20.846   6.753
 9344POPC   C3B55617  19.103  20.819   7.053
 9344POPC   C4B55618  19.026  20.812   7.353
 9345POPC   NC355619  26.846  34.593   5.553
 9345POPC   PO455620  26.843  34.538   5.853
 9345POPC   GL155621  26.805  34.603   6.153
 9345POPC   GL255622  26.754  34.701   6.153
 9345POPC   C1A55623  26.779  34.549   6.453
 9345POPC   D2A55624  26.831  34.611   6.753
 9345POPC   C3A55625  26.823  34.570   7.053
 9345POPC   C4A55626  26.824  34.543   7.353
 9345POPC   C1B55627  26.761  34.862   6.453
 9345POPC   C2B55628  26.772  34.856   6.753
 9345POPC   C3B55629  26.782  34.816   7.053
 9345POPC   C4B55630  26.793  34.854   7.353
 9346POPC   NC355631  33.058   8.240   5.553
 9346POPC   PO455632  32.994   8.197   5.853
 9346POPC   GL155633  33.010   8.212   6.153
 9346POPC   GL255634  32.882   8.273   6.153
 9346POPC   C1A55635  33.016   8.156   6.453
 9346POPC   D2A55636  33.015   8.181   6.753
 9346POPC   C3A55637  33.023   8.191   7.053
 9346POPC   C4A55638  33.068   8.180   7.353
 9346POPC   C1B55639  32.803   8.326   6.453
 9346POPC   C2B55640  32.833   8.263   6.753
 9346POPC   C3B55641  32.766   8.306   7.053
 9346POPC   C4B55642  32.784   8.267   7.353
 9347POPC   NC355643  44.694  40.822   5.553
 9347POPC   PO455644  44.648  40.801   5.853
 9347POPC   GL155645  44.667  40.783   6.153
 9347POPC   GL255646  44.721  40.871   6.153
 9347POPC   C1A55647  44.702  40.800   6.453
 9347POPC   D2A55648  44.687  40.804   6.753
 9347POPC   C3A55649  44.674  40.788   7.053
 9347POPC   C4A55650  44.630  40.794   7.353
 9347POPC   C1B55651  44.824  40.952   6.453
 9347POPC   C2B55652  44.879  40.935   6.753
 9347POPC   C3B55653  44.916  40.950   7.053
 9347POPC   C4B55654  44.859  40.930   7.353
 9348POPC   NC355655  33.061  30.689   5.553
 9348POPC   PO455656  33.033  30.691   5.853
 9348POPC   GL155657  33.026  30.715   6.153
 9348POPC   GL255658  33.181  30.731   6.153
 9348POPC   C1A55659  33.064  30.716   6.453
 9348POPC   D2A55660  33.033  30.684   6.753
 9348POPC   C3A55661  33.018  30.741   7.053
 9348POPC   C4A55662  32.981  30.659   7.353
 9348POPC   C1B55663  33.247  30.728   6.453
 9348POPC   C2B55664  33.293  30.784   6.753
 9348POPC   C3B55665  33.259  30.725   7.053
 9348POPC   C4B55666  33.259  30.770   7.353
 9349POPC   NC355667  38.456  26.013   5.553
 9349POPC   PO455668  38.438  26.054   5.853
 9349POPC   GL155669  38.443  26.025   6.153
 9349POPC   GL255670  38.292  26.013   6.153
 9349POPC   C1A55671  38.456  25.997   6.453
 9349POPC   D2A55672  38.504  26.032   6.753
 9349POPC   C3A55673  38.431  26.084   7.053
 9349POPC   C4A55674  38.466  25.992   7.353
 9349POPC   C1B55675  38.213  26.022   6.453
 9349POPC   C2B55676  38.200  25.989   6.753
 9349POPC   C3B55677  38.199  26.014   7.053
 9349POPC   C4B55678  38.254  25.959   7.353
 9350POPC   NC355679   2.735  20.568   5.553
 9350POPC   PO455680   2.773  20.621   5.853
 9350POPC   GL155681   2.760  20.587   6.153
 9350POPC   GL255682   2.861  20.619   6.153
 9350POPC   C1A55683   2.767  20.641   6.453
 9350POPC   D2A55684   2.736  20.582   6.753
 9350POPC   C3A55685   2.774  20.571   7.053
 9350POPC   C4A55686   2.779  20.561   7.353
 9350POPC   C1B55687   3.059  20.580   6.453
 9350POPC   C2B55688   2.992  20.609   6.753
 9350POPC   C3B55689   3.035  20.596   7.053
 9350POPC   C4B55690   2.976  20.663   7.353
 9351POPC   NC355691   7.375   7.421   5.553
 9351POPC   PO455692   7.375   7.457   5.853
 9351POPC   GL155693   7.439   7.420   6.153
 9351POPC   GL255694   7.381   7.252   6.153
 9351POPC   C1A55695   7.384   7.381   6.453
 9351POPC   D2A55696   7.387   7.444   6.753
 9351POPC   C3A55697   7.442   7.436   7.053
 9351POPC   C4A55698   7.384   7.444   7.353
 9351POPC   C1B55699   7.399   7.158   6.453
 9351POPC   C2B55700   7.392   7.154   6.753
 9351POPC   C3B55701   7.407   7.184   7.053
 9351POPC   C4B55702   7.403   7.129   7.353
 9352POPC   NC355703  26.831  41.580   5.553
 9352POPC   PO455704  26.788  41.535   5.853
 9352POPC   GL155705  26.837  41.552   6.153
 9352POPC   GL255706  26.766  41.476   6.153
 9352POPC   C1A55707  26.850  41.593   6.453
 9352POPC   D2A55708  26.808  41.608   6.753
 9352POPC   C3A55709  26.853  41.594   7.053
 9352POPC   C4A55710  26.810  41.582   7.353
 9352POPC   C1B55711  26.761  41.295   6.453
 9352POPC   C2B55712  26.747  41.261   6.753
 9352POPC   C3B55713  26.808  41.275   7.053
 9352POPC   C4B55714  26.824  41.303   7.353
 9353POPC   NC355715  42.311  27.588   5.553
 9353POPC   PO455716  42.324  27.629   5.853
 9353POPC   GL155717  42.377  27.550   6.153
 9353POPC   GL255718  42.416  27.530   6.153
 9353POPC   C1A55719  42.349  27.632   6.453
 9353POPC   D2A55720  42.320  27.609   6.753
 9353POPC   C3A55721  42.360  27.625   7.053
 9353POPC   C4A55722  42.325  27.569   7.353
 9353POPC   C1B55723  42.491  27.440   6.453
 9353POPC   C2B55724  42.477  27.426   6.753
 9353POPC   C3B55725  42.454  27.408   7.053
 9353POPC   C4B55726  42.491  27.437   7.353
 9354POPC   NC355727  10.495  11.273   5.553
 9354POPC   PO455728  10.572  11.296   5.853
 9354POPC   GL155729  10.573  11.257   6.153
 9354POPC   GL255730  10.543  11.205   6.153
 9354POPC   C1A55731  10.520  11.251   6.453
 9354POPC   D2A55732  10.546  11.312   6.753
 9354POPC   C3A55733  10.564  11.309   7.053
 9354POPC   C4A55734  10.499  11.311   7.353
 9354POPC   C1B55735  10.471  11.090   6.453
 9354POPC   C2B55736  10.455  11.105   6.753
 9354POPC   C3B55737  10.429  11.073   7.053
 9354POPC   C4B55738  10.507  11.043   7.353
 9355POPC   NC355739  11.267   5.847   5.553
 9355POPC   PO455740  11.281   5.831   5.853
 9355POPC   GL155741  11.310   5.866   6.153
 9355POPC   GL255742  11.198   5.929   6.153
 9355POPC   C1A55743  11.276   5.900   6.453
 9355POPC   D2A55744  11.290   5.831   6.753
 9355POPC   C3A55745  11.323   5.851   7.053
 9355POPC   C4A55746  11.297   5.877   7.353
 9355POPC   C1B55747  11.116   6.052   6.453
 9355POPC   C2B55748  11.120   5.987   6.753
 9355POPC   C3B55749  11.089   5.993   7.053
 9355POPC   C4B55750  11.086   6.056   7.353
 9356POPC   NC355751  32.282  39.997   5.553
 9356POPC   PO455752  32.218  39.988   5.853
 9356POPC   GL155753  32.292  40.022   6.153
 9356POPC   GL255754  32.221  39.895   6.153
 9356POPC   C1A55755  32.270  40.053   6.453
 9356POPC   D2A55756  32.280  39.987   6.753
 9356POPC   C3A55757  32.283  40.045   7.053
 9356POPC   C4A55758  32.290  40.026   7.353
 9356POPC   C1B55759  32.256  39.802   6.453
 9356POPC   C2B55760  32.233  39.734   6.753
 9356POPC   C3B55761  32.241  39.756   7.053
 9356POPC   C4B55762  32.172  39.737   7.353
 9357POPC   NC355763  36.875  14.417   5.553
 9357POPC   PO455764  36.913  14.381   5.853
 9357POPC   GL155765  36.859  14.426   6.153
 9357POPC   GL255766  36.798  14.386   6.153
 9357POPC   C1A55767  36.870  14.369   6.453
 9357POPC   D2A55768  36.935  14.376   6.753
 9357POPC   C3A55769  36.885  14.378   7.053
 9357POPC   C4A55770  36.895  14.419   7.353
 9357POPC   C1B55771  36.608  14.412   6.453
 9357POPC   C2B55772  36.669  14.371   6.753
 9357POPC   C3B55773  36.657  14.416   7.053
 9357POPC   C4B55774  36.627  14.359   7.353
 9358POPC   NC355775  21.389  18.255   5.553
 9358POPC   PO455776  21.349  18.298   5.853
 9358POPC   GL155777  21.404  18.263   6.153
 9358POPC   GL255778  21.521  18.248   6.153
 9358POPC   C1A55779  21.406  18.254   6.453
 9358POPC   D2A55780  21.386  18.259   6.753
 9358POPC   C3A55781  21.396  18.300   7.053
 9358POPC   C4A55782  21.410  18.309   7.353
 9358POPC   C1B55783  21.683  18.264   6.453
 9358POPC   C2B55784  21.618  18.320   6.753
 9358POPC   C3B55785  21.634  18.281   7.053
 9358POPC   C4B55786  21.669  18.280   7.353
 9359POPC   NC355787  24.475  22.931   5.553
 9359POPC   PO455788  24.463  22.927   5.853
 9359POPC   GL155789  24.516  22.972   6.153
 9359POPC   GL255790  24.496  22.784   6.153
 9359POPC   C1A55791  24.504  22.910   6.453
 9359POPC   D2A55792  24.472  22.928   6.753
 9359POPC   C3A55793  24.476  22.909   7.053
 9359POPC   C4A55794  24.468  22.923   7.353
 9359POPC   C1B55795  24.633  22.689   6.453
 9359POPC   C2B55796  24.561  22.673   6.753
 9359POPC   C3B55797  24.598  22.741   7.053
 9359POPC   C4B55798  24.645  22.732   7.353
 9360POPC   NC355799   6.679  39.968   5.553
 9360POPC   PO455800   6.598  39.968   5.853
 9360POPC   GL155801   6.644  39.974   6.153
 9360POPC   GL255802   6.492  40.036   6.153
 9360POPC   C1A55803   6.681  39.969   6.453
 9360POPC   D2A55804   6.693  40.015   6.753
 9360POPC   C3A55805   6.659  39.986   7.053
 9360POPC   C4A55806   6.638  39.957   7.353
 9360POPC   C1B55807   6.363  40.057   6.453
 9360POPC   C2B55808   6.421  40.030   6.753
 9360POPC   C3B55809   6.352  40.020   7.053
 9360POPC   C4B55810   6.355  40.050   7.353
 9361POPC   NC355811  13.588  19.866   5.553
 9361POPC   PO455812  13.602  19.843   5.853
 9361POPC   GL155813  13.597  19.832   6.153
 9361POPC   GL255814  13.575  19.973   6.153
 9361POPC   C1A55815  13.607  19.859   6.453
 9361POPC   D2A55816  13.611  19.798   6.753
 9361POPC   C3A55817  13.590  19.796   7.053
 9361POPC   C4A55818  13.594  19.883   7.353
 9361POPC   C1B55819  13.593  20.076   6.453
 9361POPC   C2B55820  13.658  20.101   6.753
 9361POPC   C3B55821  13.666  20.121   7.053
 9361POPC   C4B55822  13.628  20.037   7.353
 9362POPC   NC355823  10.520  19.845   5.553
 9362POPC   PO455824  10.514  19.812   5.853
 9362POPC   GL155825  10.560  19.809   6.153
 9362POPC   GL255826  10.604  19.729   6.153
 9362POPC   C1A55827  10.532  19.859   6.453
 9362POPC   D2A55828  10.497  19.814   6.753
 9362POPC   C3A55829  10.562  19.806   7.053
 9362POPC   C4A55830  10.514  19.838   7.353
 9362POPC   C1B55831  10.685  19.615   6.453
 9362POPC   C2B55832  10.685  19.698   6.753
 9362POPC   C3B55833  10.718  19.662   7.053
 9362POPC   C4B55834  10.732  19.696   7.353
 9363POPC   NC355835  19.065  33.031   5.553
 9363POPC   PO455836  19.041  33.005   5.853
 9363POPC   GL155837  19.009  33.074   6.153
 9363POPC   GL255838  18.948  32.941   6.153
 9363POPC   C1A55839  19.047  33.005   6.453
 9363POPC   D2A55840  19.075  33.004   6.753
 9363POPC   C3A55841  19.009  33.051   7.053
 9363POPC   C4A55842  19.087  32.995   7.353
 9363POPC   C1B55843  18.945  32.805   6.453
 9363POPC   C2B55844  18.941  32.797   6.753
 9363POPC   C3B55845  18.906  32.773   7.053
 9363POPC   C4B55846  18.886  32.855   7.353
 9364POPC   NC355847   5.902  19.840   5.553
 9364POPC   PO455848   5.896  19.881   5.853
 9364POPC   GL155849   5.825  19.834   6.153
 9364POPC   GL255850   5.780  19.843   6.153
 9364POPC   C1A55851   5.821  19.851   6.453
 9364POPC   D2A55852   5.897  19.865   6.753
 9364POPC   C3A55853   5.886  19.811   7.053
 9364POPC   C4A55854   5.858  19.878   7.353
 9364POPC   C1B55855   5.616  19.943   6.453
 9364POPC   C2B55856   5.647  19.865   6.753
 9364POPC   C3B55857   5.635  19.951   7.053
 9364POPC   C4B55858   5.646  19.929   7.353
 9365POPC   NC355859  15.200  39.185   5.553
 9365POPC   PO455860  15.140  39.226   5.853
 9365POPC   GL155861  15.220  39.250   6.153
 9365POPC   GL255862  15.107  39.135   6.153
 9365POPC   C1A55863  15.216  39.233   6.453
 9365POPC   D2A55864  15.222  39.279   6.753
 9365POPC   C3A55865  15.226  39.190   7.053
 9365POPC   C4A55866  15.155  39.274   7.353
 9365POPC   C1B55867  15.037  39.070   6.453
 9365POPC   C2B55868  15.015  39.049   6.753
 9365POPC   C3B55869  14.975  39.087   7.053
 9365POPC   C4B55870  15.063  39.021   7.353
 9366POPC   NC355871  22.911  27.570   5.553
 9366POPC   PO455872  22.968  27.556   5.853
 9366POPC   GL155873  22.945  27.558   6.153
 9366POPC   GL255874  22.862  27.661   6.153
 9366POPC   C1A55875  22.909  27.574   6.453
 9366POPC   D2A55876  22.890  27.594   6.753
 9366POPC   C3A55877  22.977  27.636   7.053
 9366POPC   C4A55878  22.971  27.553   7.353
 9366POPC   C1B55879  22.792  27.838   6.453
 9366POPC   C2B55880  22.820  27.777   6.753
 9366POPC   C3B55881  22.754  27.834   7.053
 9366POPC   C4B55882  22.780  27.839   7.353
 9367POPC   NC355883  17.459  32.212   5.553
 9367POPC   PO455884  17.507  32.219   5.853
 9367POPC   GL155885  17.550  32.211   6.153
 9367POPC   GL255886  17.680  32.211   6.153
 9367POPC   C1A55887  17.504  32.253   6.453
 9367POPC   D2A55888  17.462  32.282   6.753
 9367POPC   C3A55889  17.489  32.252   7.053
 9367POPC   C4A55890  17.537  32.256   7.353
 9367POPC   C1B55891  17.787  32.228   6.453
 9367POPC   C2B55892  17.806  32.275   6.753
 9367POPC   C3B55893  17.801  32.296   7.053
 9367POPC   C4B55894  17.709  32.258   7.353
 9368POPC   NC355895   8.925  33.042   5.553
 9368POPC   PO455896   8.961  33.018   5.853
 9368POPC   GL155897   8.954  32.975   6.153
 9368POPC   GL255898   8.937  33.110   6.153
 9368POPC   C1A55899   9.009  33.065   6.453
 9368POPC   D2A55900   9.008  33.045   6.753
 9368POPC   C3A55901   8.961  33.072   7.053
 9368POPC   C4A55902   8.992  32.974   7.353
 9368POPC   C1B55903   8.959  33.249   6.453
 9368POPC   C2B55904   8.927  33.308   6.753
 9368POPC   C3B55905   8.997  33.260   7.053
 9368POPC   C4B55906   8.952  33.239   7.353
 9369POPC   NC355907  15.953   2.748   5.553
 9369POPC   PO455908  15.926   2.784   5.853
 9369POPC   GL155909  15.994   2.751   6.153
 9369POPC   GL255910  15.965   2.614   6.153
 9369POPC   C1A55911  15.945   2.718   6.453
 9369POPC   D2A55912  15.913   2.784   6.753
 9369POPC   C3A55913  15.975   2.733   7.053
 9369POPC   C4A55914  15.958   2.782   7.353
 9369POPC   C1B55915  16.037   2.538   6.453
 9369POPC   C2B55916  16.038   2.496   6.753
 9369POPC   C3B55917  15.984   2.499   7.053
 9369POPC   C4B55918  15.991   2.544   7.353
 9370POPC   NC355919   4.294  43.935   5.553
 9370POPC   PO455920   4.282  43.906   5.853
 9370POPC   GL155921   4.344  43.865   6.153
 9370POPC   GL255922   4.292  43.803   6.153
 9370POPC   C1A55923   4.358  43.886   6.453
 9370POPC   D2A55924   4.366  43.916   6.753
 9370POPC   C3A55925   4.272  43.866   7.053
 9370POPC   C4A55926   4.365  43.845   7.353
 9370POPC   C1B55927   4.250  43.599   6.453
 9370POPC   C2B55928   4.276  43.675   6.753
 9370POPC   C3B55929   4.325  43.621   7.053
 9370POPC   C4B55930   4.251  43.591   7.353
 9371POPC   NC355931   2.004  29.132   5.553
 9371POPC   PO455932   1.951  29.115   5.853
 9371POPC   GL155933   1.958  29.164   6.153
 9371POPC   GL255934   1.908  29.252   6.153
 9371POPC   C1A55935   1.976  29.180   6.453
 9371POPC   D2A55936   1.942  29.176   6.753
 9371POPC   C3A55937   1.987  29.131   7.053
 9371POPC   C4A55938   1.969  29.149   7.353
 9371POPC   C1B55939   1.748  29.296   6.453
 9371POPC   C2B55940   1.779  29.262   6.753
 9371POPC   C3B55941   1.819  29.331   7.053
 9371POPC   C4B55942   1.794  29.318   7.353
 9372POPC   NC355943   1.219  29.882   5.553
 9372POPC   PO455944   1.193  29.951   5.853
 9372POPC   GL155945   1.188  29.909   6.153
 9372POPC   GL255946   1.361  29.844   6.153
 9372POPC   C1A55947   1.180  29.873   6.453
 9372POPC   D2A55948   1.202  29.937   6.753
 9372POPC   C3A55949   1.196  29.924   7.053
 9372POPC   C4A55950   1.261  29.883   7.353
 9372POPC   C1B55951   1.454  29.861   6.453
 9372POPC   C2B55952   1.491  29.815   6.753
 9372POPC   C3B55953   1.455  29.888   7.053
 9372POPC   C4B55954   1.454  29.811   7.353
 9373POPC   NC355955   2.740   8.210   5.553
 9373POPC   PO455956   2.733   8.166   5.853
 9373POPC   GL155957   2.722   8.192   6.153
 9373POPC   GL255958   2.782   8.295   6.153
 9373POPC   C1A55959   2.782   8.218   6.453
 9373POPC   D2A55960   2.732   8.225   6.753
 9373POPC   C3A55961   2.737   8.230   7.053
 9373POPC   C4A55962   2.809   8.168   7.353
 9373POPC   C1B55963   2.901   8.413   6.453
 9373POPC   C2B55964   2.928   8.401   6.753
 9373POPC   C3B55965   2.858   8.434   7.053
 9373POPC   C4B55966   2.944   8.459   7.353
 9374POPC   NC355967  24.490   7.447   5.553
 9374POPC   PO455968  24.454   7.377   5.853
 9374POPC   GL155969  24.500   7.457   6.153
 9374POPC   GL255970  24.573   7.270   6.153
 9374POPC   C1A55971  24.449   7.376   6.453
 9374POPC   D2A55972  24.485   7.462   6.753
 9374POPC   C3A55973  24.492   7.431   7.053
 9374POPC   C4A55974  24.535   7.451   7.353
 9374POPC   C1B55975  24.606   7.167   6.453
 9374POPC   C2B55976  24.647   7.208   6.753
 9374POPC   C3B55977  24.668   7.182   7.053
 9374POPC   C4B55978  24.670   7.256   7.353
 9375POPC   NC355979  38.499  43.894   5.553
 9375POPC   PO455980  38.430  43.903   5.853
 9375POPC   GL155981  38.477  43.909   6.153
 9375POPC   GL255982  38.416  43.783   6.153
 9375POPC   C1A55983  38.460  43.922   6.453
 9375POPC   D2A55984  38.467  43.902   6.753
 9375POPC   C3A55985  38.416  43.870   7.053
 9375POPC   C4A55986  38.405  43.908   7.353
 9375POPC   C1B55987  38.367  43.639   6.453
 9375POPC   C2B55988  38.322  43.641   6.753
 9375POPC   C3B55989  38.308  43.641   7.053
 9375POPC   C4B55990  38.304  43.660   7.353
 9376POPC   NC355991  31.519  41.593   5.553
 9376POPC   PO455992  31.460  41.578   5.853
 9376POPC   GL155993  31.517  41.606   6.153
 9376POPC   GL255994  31.341  41.536   6.153
 9376POPC   C1A55995  31.454  41.516   6.453
 9376POPC   D2A55996  31.499  41.576   6.753
 9376POPC   C3A55997  31.505  41.589   7.053
 9376POPC   C4A55998  31.512  41.571   7.353
 9376POPC   C1B55999  31.207  41.490   6.453
 9376POPC   C2B56000  31.211  41.470   6.753
 9376POPC   C3B56001  31.270  41.475   7.053
 9376POPC   C4B56002  31.272  41.457   7.353
 9377POPC   NC356003  13.617   9.769   5.553
 9377POPC   PO456004  13.580   9.760   5.853
 9377POPC   GL156005  13.631   9.722   6.153
 9377POPC   GL256006  13.618   9.853   6.153
 9377POPC   C1A56007  13.625   9.705   6.453
 9377POPC   D2A56008  13.630   9.776   6.753
 9377POPC   C3A56009  13.609   9.780   7.053
 9377POPC   C4A56010  13.659   9.711   7.353
 9377POPC   C1B56011  13.595  10.028   6.453
 9377POPC   C2B56012  13.571  10.011   6.753
 9377POPC   C3B56013  13.634   9.999   7.053
 9377POPC   C4B56014  13.591  10.014   7.353
 9378POPC   NC356015  27.633  27.582   5.553
 9378POPC   PO456016  27.558  27.632   5.853
 9378POPC   GL156017  27.636  27.578   6.153
 9378POPC   GL256018  27.629  27.534   6.153
 9378POPC   C1A56019  27.626  27.603   6.453
 9378POPC   D2A56020  27.600  27.564   6.753
 9378POPC   C3A56021  27.606  27.607   7.053
 9378POPC   C4A56022  27.617  27.553   7.353
 9378POPC   C1B56023  27.751  27.414   6.453
 9378POPC   C2B56024  27.757  27.388   6.753
 9378POPC   C3B56025  27.730  27.362   7.053
 9378POPC   C4B56026  27.747  27.368   7.353
 9379POPC   NC356027  17.501  20.569   5.553
 9379POPC   PO456028  17.475  20.647   5.853
 9379POPC   GL156029  17.522  20.595   6.153
 9379POPC   GL256030  17.419  20.555   6.153
 9379POPC   C1A56031  17.554  20.562   6.453
 9379POPC   D2A56032  17.496  20.659   6.753
 9379POPC   C3A56033  17.511  20.645   7.053
 9379POPC   C4A56034  17.482  20.617   7.353
 9379POPC   C1B56035  17.324  20.515   6.453
 9379POPC   C2B56036  17.260  20.523   6.753
 9379POPC   C3B56037  17.291  20.479   7.053
 9379POPC   C4B56038  17.260  20.451   7.353
 9380POPC   NC356039   3.563  18.327   5.553
 9380POPC   PO456040   3.586  18.293   5.853
 9380POPC   GL156041   3.501  18.323   6.153
 9380POPC   GL256042   3.605  18.175   6.153
 9380POPC   C1A56043   3.523  18.290   6.453
 9380POPC   D2A56044   3.557  18.275   6.753
 9380POPC   C3A56045   3.550  18.251   7.053
 9380POPC   C4A56046   3.552  18.309   7.353
 9380POPC   C1B56047   3.629  18.056   6.453
 9380POPC   C2B56048   3.621  18.023   6.753
 9380POPC   C3B56049   3.648  18.068   7.053
 9380POPC   C4B56050   3.677  18.063   7.353
 9381POPC   NC356051   9.012  15.191   5.553
 9381POPC   PO456052   9.011  15.146   5.853
 9381POPC   GL156053   8.938  15.209   6.153
 9381POPC   GL256054   9.015  15.033   6.153
 9381POPC   C1A56055   8.989  15.136   6.453
 9381POPC   D2A56056   8.987  15.167   6.753
 9381POPC   C3A56057   8.939  15.166   7.053
 9381POPC   C4A56058   8.960  15.143   7.353
 9381POPC   C1B56059   9.031  14.965   6.453
 9381POPC   C2B56060   9.005  14.924   6.753
 9381POPC   C3B56061   8.979  14.947   7.053
 9381POPC   C4B56062   8.990  14.961   7.353
 9382POPC   NC356063  36.158  43.074   5.553
 9382POPC   PO456064  36.103  43.122   5.853
 9382POPC   GL156065  36.129  43.091   6.153
 9382POPC   GL256066  36.283  43.099   6.153
 9382POPC   C1A56067  36.117  43.077   6.453
 9382POPC   D2A56068  36.139  43.145   6.753
 9382POPC   C3A56069  36.132  43.102   7.053
 9382POPC   C4A56070  36.160  43.156   7.353
 9382POPC   C1B56071  36.371  43.220   6.453
 9382POPC   C2B56072  36.403  43.139   6.753
 9382POPC   C3B56073  36.327  43.146   7.053
 9382POPC   C4B56074  36.402  43.184   7.353
 9383POPC   NC356075  31.520   4.302   5.553
 9383POPC   PO456076  31.489   4.354   5.853
 9383POPC   GL156077  31.482   4.352   6.153
 9383POPC   GL256078  31.333   4.193   6.153
 9383POPC   C1A56079  31.479   4.275   6.453
 9383POPC   D2A56080  31.491   4.299   6.753
 9383POPC   C3A56081  31.463   4.291   7.053
 9383POPC   C4A56082  31.436   4.274   7.353
 9383POPC   C1B56083  31.261   4.171   6.453
 9383POPC   C2B56084  31.315   4.097   6.753
 9383POPC   C3B56085  31.311   4.115   7.053
 9383POPC   C4B56086  31.337   4.154   7.353
 9384POPC   NC356087   8.241  15.156   5.553
 9384POPC   PO456088   8.150  15.208   5.853
 9384POPC   GL156089   8.168  15.130   6.153
 9384POPC   GL256090   8.252  15.112   6.153
 9384POPC   C1A56091   8.188  15.213   6.453
 9384POPC   D2A56092   8.165  15.158   6.753
 9384POPC   C3A56093   8.246  15.173   7.053
 9384POPC   C4A56094   8.237  15.161   7.353
 9384POPC   C1B56095   8.389  14.975   6.453
 9384POPC   C2B56096   8.315  14.992   6.753
 9384POPC   C3B56097   8.307  14.973   7.053
 9384POPC   C4B56098   8.374  15.015   7.353
 9385POPC   NC356099  16.703   5.045   5.553
 9385POPC   PO456100  16.772   5.130   5.853
 9385POPC   GL156101  16.772   5.052   6.153
 9385POPC   GL256102  16.778   4.974   6.153
 9385POPC   C1A56103  16.747   5.072   6.453
 9385POPC   D2A56104  16.710   5.101   6.753
 9385POPC   C3A56105  16.778   5.076   7.053
 9385POPC   C4A56106  16.779   5.065   7.353
 9385POPC   C1B56107  16.740   4.894   6.453
 9385POPC   C2B56108  16.766   4.826   6.753
 9385POPC   C3B56109  16.761   4.861   7.053
 9385POPC   C4B56110  16.724   4.862   7.353
 9386POPC   NC356111  26.040  13.614   5.553
 9386POPC   PO456112  26.037  13.598   5.853
 9386POPC   GL156113  26.053  13.668   6.153
 9386POPC   GL256114  26.162  13.553   6.153
 9386POPC   C1A56115  26.040  13.593   6.453
 9386POPC   D2A56116  26.054  13.598   6.753
 9386POPC   C3A56117  26.018  13.662   7.053
 9386POPC   C4A56118  26.035  13.673   7.353
 9386POPC   C1B56119  26.320  13.582   6.453
 9386POPC   C2B56120  26.289  13.588   6.753
 9386POPC   C3B56121  26.311  13.512   7.053
 9386POPC   C4B56122  26.253  13.554   7.353
 9387POPC   NC356123  19.066   9.760   5.553
 9387POPC   PO456124  19.094   9.778   5.853
 9387POPC   GL156125  19.085   9.745   6.153
 9387POPC   GL256126  18.976   9.819   6.153
 9387POPC   C1A56127  19.062   9.782   6.453
 9387POPC   D2A56128  19.030   9.791   6.753
 9387POPC   C3A56129  19.080   9.728   7.053
 9387POPC   C4A56130  19.070   9.736   7.353
 9387POPC   C1B56131  18.849   9.845   6.453
 9387POPC   C2B56132  18.766   9.809   6.753
 9387POPC   C3B56133  18.803   9.764   7.053
 9387POPC   C4B56134  18.845   9.813   7.353
 9388POPC   NC356135  28.381  36.938   5.553
 9388POPC   PO456136  28.381  36.869   5.853
 9388POPC   GL156137  28.330  36.926   6.153
 9388POPC   GL256138  28.404  36.803   6.153
 9388POPC   C1A56139  28.348  36.908   6.453
 9388POPC   D2A56140  28.335  36.914   6.753
 9388POPC   C3A56141  28.366  36.888   7.053
 9388POPC   C4A56142  28.403  36.946   7.353
 9388POPC   C1B56143  28.423  36.701   6.453
 9388POPC   C2B56144  28.430  36.670   6.753
 9388POPC   C3B56145  28.469  36.687   7.053
 9388POPC   C4B56146  28.466  36.620   7.353
 9389POPC   NC356147   6.632  19.052   5.553
 9389POPC   PO456148   6.600  19.081   5.853
 9389POPC   GL156149   6.662  19.088   6.153
 9389POPC   GL256150   6.650  18.958   6.153
 9389POPC   C1A56151   6.694  19.056   6.453
 9389POPC   D2A56152   6.651  19.046   6.753
 9389POPC   C3A56153   6.665  19.067   7.053
 9389POPC   C4A56154   6.670  19.025   7.353
 9389POPC   C1B56155   6.666  18.851   6.453
 9389POPC   C2B56156   6.697  18.795   6.753
 9389POPC   C3B56157   6.679  18.778   7.053
 9389POPC   C4B56158   6.634  18.829   7.353
 9390POPC   NC356159   5.883  26.792   5.553
 9390POPC   PO456160   5.861  26.834   5.853
 9390POPC   GL156161   5.833  26.800   6.153
 9390POPC   GL256162   5.854  26.688   6.153
 9390POPC   C1A56163   5.874  26.844   6.453
 9390POPC   D2A56164   5.876  26.856   6.753
 9390POPC   C3A56165   5.839  26.854   7.053
 9390POPC   C4A56166   5.832  26.769   7.353
 9390POPC   C1B56167   5.957  26.559   6.453
 9390POPC   C2B56168   5.943  26.527   6.753
 9390POPC   C3B56169   5.885  26.585   7.053
 9390POPC   C4B56170   5.920  26.608   7.353
 9391POPC   NC356171  43.861  20.626   5.553
 9391POPC   PO456172  43.926  20.622   5.853
 9391POPC   GL156173  43.888  20.656   6.153
 9391POPC   GL256174  43.765  20.662   6.153
 9391POPC   C1A56175  43.933  20.598   6.453
 9391POPC   D2A56176  43.914  20.590   6.753
 9391POPC   C3A56177  43.934  20.593   7.053
 9391POPC   C4A56178  43.867  20.560   7.353
 9391POPC   C1B56179  43.714  20.779   6.453
 9391POPC   C2B56180  43.723  20.758   6.753
 9391POPC   C3B56181  43.686  20.761   7.053
 9391POPC   C4B56182  43.690  20.805   7.353
 9392POPC   NC356183  20.608   6.640   5.553
 9392POPC   PO456184  20.606   6.666   5.853
 9392POPC   GL156185  20.565   6.663   6.153
 9392POPC   GL256186  20.638   6.767   6.153
 9392POPC   C1A56187  20.570   6.643   6.453
 9392POPC   D2A56188  20.564   6.690   6.753
 9392POPC   C3A56189  20.610   6.658   7.053
 9392POPC   C4A56190  20.565   6.654   7.353
 9392POPC   C1B56191  20.551   6.931   6.453
 9392POPC   C2B56192  20.602   6.864   6.753
 9392POPC   C3B56193  20.595   6.916   7.053
 9392POPC   C4B56194  20.622   6.938   7.353
 9393POPC   NC356195  19.787  17.521   5.553
 9393POPC   PO456196  19.820  17.543   5.853
 9393POPC   GL156197  19.869  17.498   6.153
 9393POPC   GL256198  19.764  17.653   6.153
 9393POPC   C1A56199  19.872  17.555   6.453
 9393POPC   D2A56200  19.801  17.474   6.753
 9393POPC   C3A56201  19.856  17.471   7.053
 9393POPC   C4A56202  19.802  17.519   7.353
 9393POPC   C1B56203  19.716  17.728   6.453
 9393POPC   C2B56204  19.665  17.713   6.753
 9393POPC   C3B56205  19.734  17.720   7.053
 9393POPC   C4B56206  19.721  17.683   7.353
 9394POPC   NC356207  38.472  25.292   5.553
 9394POPC   PO456208  38.415  25.280   5.853
 9394POPC   GL156209  38.445  25.219   6.153
 9394POPC   GL256210  38.450  25.110   6.153
 9394POPC   C1A56211  38.447  25.225   6.453
 9394POPC   D2A56212  38.441  25.305   6.753
 9394POPC   C3A56213  38.418  25.226   7.053
 9394POPC   C4A56214  38.458  25.238   7.353
 9394POPC   C1B56215  38.494  25.025   6.453
 9394POPC   C2B56216  38.560  25.041   6.753
 9394POPC   C3B56217  38.491  25.058   7.053
 9394POPC   C4B56218  38.531  25.065   7.353
 9395POPC   NC356219  10.523  36.151   5.553
 9395POPC   PO456220  10.476  36.168   5.853
 9395POPC   GL156221  10.496  36.106   6.153
 9395POPC   GL256222  10.387  36.161   6.153
 9395POPC   C1A56223  10.505  36.165   6.453
 9395POPC   D2A56224  10.511  36.096   6.753
 9395POPC   C3A56225  10.482  36.165   7.053
 9395POPC   C4A56226  10.527  36.119   7.353
 9395POPC   C1B56227  10.245  36.207   6.453
 9395POPC   C2B56228  10.323  36.145   6.753
 9395POPC   C3B56229  10.233  36.231   7.053
 9395POPC   C4B56230  10.246  36.165   7.353
 9396POPC   NC356231  14.453  44.648   5.553
 9396POPC   PO456232  14.436  44.614   5.853
 9396POPC   GL156233  14.408  44.624   6.153
 9396POPC   GL256234  14.508  44.607   6.153
 9396POPC   C1A56235  14.359  44.694   6.453
 9396POPC   D2A56236  14.376  44.640   6.753
 9396POPC   C3A56237  14.394  44.630   7.053
 9396POPC   C4A56238  14.398  44.624   7.353
 9396POPC   C1B56239  14.565  44.480   6.453
 9396POPC   C2B56240  14.551  44.506   6.753
 9396POPC   C3B56241  14.585  44.471   7.053
 9396POPC   C4B56242  14.568  44.477   7.353
 9397POPC   NC356243  13.578  35.312   5.553
 9397POPC   PO456244  13.617  35.313   5.853
 9397POPC   GL156245  13.606  35.345   6.153
 9397POPC   GL256246  13.567  35.258   6.153
 9397POPC   C1A56247  13.623  35.379   6.453
 9397POPC   D2A56248  13.603  35.338   6.753
 9397POPC   C3A56249  13.635  35.327   7.053
 9397POPC   C4A56250  13.625  35.325   7.353
 9397POPC   C1B56251  13.429  35.225   6.453
 9397POPC   C2B56252  13.480  35.173   6.753
 9397POPC   C3B56253  13.439  35.156   7.053
 9397POPC   C4B56254  13.420  35.225   7.353
 9398POPC   NC356255  32.979  29.963   5.553
 9398POPC   PO456256  33.007  29.884   5.853
 9398POPC   GL156257  32.998  29.886   6.153
 9398POPC   GL256258  32.943  29.989   6.153
 9398POPC   C1A56259  33.070  29.883   6.453
 9398POPC   D2A56260  32.979  29.962   6.753
 9398POPC   C3A56261  33.069  29.917   7.053
 9398POPC   C4A56262  33.001  29.900   7.353
 9398POPC   C1B56263  32.811  29.952   6.453
 9398POPC   C2B56264  32.823  29.993   6.753
 9398POPC   C3B56265  32.818  29.994   7.053
 9398POPC   C4B56266  32.731  29.994   7.353
 9399POPC   NC356267  13.604  27.639   5.553
 9399POPC   PO456268  13.647  27.565   5.853
 9399POPC   GL156269  13.618  27.548   6.153
 9399POPC   GL256270  13.511  27.548   6.153
 9399POPC   C1A56271  13.624  27.566   6.453
 9399POPC   D2A56272  13.578  27.583   6.753
 9399POPC   C3A56273  13.650  27.593   7.053
 9399POPC   C4A56274  13.589  27.593   7.353
 9399POPC   C1B56275  13.376  27.489   6.453
 9399POPC   C2B56276  13.366  27.452   6.753
 9399POPC   C3B56277  13.424  27.504   7.053
 9399POPC   C4B56278  13.434  27.449   7.353
 9400POPC   NC356279   4.350   8.221   5.553
 9400POPC   PO456280   4.338   8.230   5.853
 9400POPC   GL156281   4.312   8.167   6.153
 9400POPC   GL256282   4.457   8.151   6.153
 9400POPC   C1A56283   4.305   8.212   6.453
 9400POPC   D2A56284   4.300   8.176   6.753
 9400POPC   C3A56285   4.310   8.181   7.053
 9400POPC   C4A56286   4.337   8.167   7.353
 9400POPC   C1B56287   4.523   8.044   6.453
 9400POPC   C2B56288   4.535   8.090   6.753
 9400POPC   C3B56289   4.554   8.000   7.053
 9400POPC   C4B56290   4.520   8.081   7.353
 9401POPC   NC356291  19.871  36.102   5.553
 9401POPC   PO456292  19.842  36.162   5.853
 9401POPC   GL156293  19.785  36.118   6.153
 9401POPC   GL256294  19.788  36.049   6.153
 9401POPC   C1A56295  19.877  36.092   6.453
 9401POPC   D2A56296  19.831  36.134   6.753
 9401POPC   C3A56297  19.814  36.090   7.053
 9401POPC   C4A56298  19.846  36.166   7.353
 9401POPC   C1B56299  19.707  35.871   6.453
 9401POPC   C2B56300  19.726  35.869   6.753
 9401POPC   C3B56301  19.700  35.901   7.053
 9401POPC   C4B56302  19.756  35.885   7.353
 9402POPC   NC356303  26.838  26.010   5.553
 9402POPC   PO456304  26.790  26.062   5.853
 9402POPC   GL156305  26.783  26.013   6.153
 9402POPC   GL256306  26.797  25.871   6.153
 9402POPC   C1A56307  26.770  26.038   6.453
 9402POPC   D2A56308  26.852  26.060   6.753
 9402POPC   C3A56309  26.844  26.063   7.053
 9402POPC   C4A56310  26.809  26.039   7.353
 9402POPC   C1B56311  26.741  25.766   6.453
 9402POPC   C2B56312  26.742  25.750   6.753
 9402POPC   C3B56313  26.747  25.749   7.053
 9402POPC   C4B56314  26.758  25.766   7.353
 9403POPC   NC356315  25.282  19.030   5.553
 9403POPC   PO456316  25.229  19.016   5.853
 9403POPC   GL156317  25.282  19.031   6.153
 9403POPC   GL256318  25.368  18.987   6.153
 9403POPC   C1A56319  25.243  19.093   6.453
 9403POPC   D2A56320  25.298  19.077   6.753
 9403POPC   C3A56321  25.285  19.027   7.053
 9403POPC   C4A56322  25.251  19.041   7.353
 9403POPC   C1B56323  25.439  18.843   6.453
 9403POPC   C2B56324  25.391  18.848   6.753
 9403POPC   C3B56325  25.397  18.861   7.053
 9403POPC   C4B56326  25.414  18.865   7.353
 9404POPC   NC356327   7.436  39.976   5.553
 9404POPC   PO456328   7.429  40.014   5.853
 9404POPC   GL156329   7.406  40.048   6.153
 9404POPC   GL256330   7.412  40.103   6.153
 9404POPC   C1A56331   7.446  40.036   6.453
 9404POPC   D2A56332   7.424  40.044   6.753
 9404POPC   C3A56333   7.404  39.966   7.053
 9404POPC   C4A56334   7.373  39.993   7.353
 9404POPC   C1B56335   7.438  40.207   6.453
 9404POPC   C2B56336   7.449  40.264   6.753
 9404POPC   C3B56337   7.389  40.260   7.053
 9404POPC   C4B56338   7.400  40.281   7.353
 9405POPC   NC356339  26.827  38.422   5.553
 9405POPC   PO456340  26.787  38.433   5.853
 9405POPC   GL156341  26.848  38.443   6.153
 9405POPC   GL256342  26.948  38.552   6.153
 9405POPC   C1A56343  26.796  38.446   6.453
 9405POPC   D2A56344  26.808  38.413   6.753
 9405POPC   C3A56345  26.844  38.445   7.053
 9405POPC   C4A56346  26.828  38.459   7.353
 9405POPC   C1B56347  27.075  38.598   6.453
 9405POPC   C2B56348  27.003  38.576   6.753
 9405POPC   C3B56349  27.000  38.530   7.053
 9405POPC   C4B56350  27.084  38.567   7.353
 9406POPC   NC356351  10.510  26.005   5.553
 9406POPC   PO456352  10.488  26.030   5.853
 9406POPC   GL156353  10.556  25.998   6.153
 9406POPC   GL256354  10.663  26.087   6.153
 9406POPC   C1A56355  10.522  26.002   6.453
 9406POPC   D2A56356  10.527  26.043   6.753
 9406POPC   C3A56357  10.556  26.088   7.053
 9406POPC   C4A56358  10.553  25.992   7.353
 9406POPC   C1B56359  10.768  26.091   6.453
 9406POPC   C2B56360  10.726  26.052   6.753
 9406POPC   C3B56361  10.798  26.083   7.053
 9406POPC   C4B56362  10.790  26.093   7.353
 9407POPC   NC356363  33.797  26.806   5.553
 9407POPC   PO456364  33.810  26.842   5.853
 9407POPC   GL156365  33.804  26.816   6.153
 9407POPC   GL256366  33.708  26.822   6.153
 9407POPC   C1A56367  33.837  26.780   6.453
 9407POPC   D2A56368  33.845  26.828   6.753
 9407POPC   C3A56369  33.795  26.797   7.053
 9407POPC   C4A56370  33.835  26.775   7.353
 9407POPC   C1B56371  33.513  26.847   6.453
 9407POPC   C2B56372  33.563  26.847   6.753
 9407POPC   C3B56373  33.565  26.836   7.053
 9407POPC   C4B56374  33.593  26.762   7.353
 9408POPC   NC356375  42.339  40.775   5.553
 9408POPC   PO456376  42.376  40.832   5.853
 9408POPC   GL156377  42.358  40.763   6.153
 9408POPC   GL256378  42.422  40.816   6.153
 9408POPC   C1A56379  42.378  40.788   6.453
 9408POPC   D2A56380  42.330  40.795   6.753
 9408POPC   C3A56381  42.351  40.750   7.053
 9408POPC   C4A56382  42.337  40.794   7.353
 9408POPC   C1B56383  42.520  40.883   6.453
 9408POPC   C2B56384  42.545  40.919   6.753
 9408POPC   C3B56385  42.516  40.930   7.053
 9408POPC   C4B56386  42.574  40.958   7.353
 9409POPC   NC356387  39.227  16.763   5.553
 9409POPC   PO456388  39.252  16.721   5.853
 9409POPC   GL156389  39.261  16.766   6.153
 9409POPC   GL256390  39.123  16.835   6.153
 9409POPC   C1A56391  39.238  16.738   6.453
 9409POPC   D2A56392  39.218  16.726   6.753
 9409POPC   C3A56393  39.243  16.728   7.053
 9409POPC   C4A56394  39.229  16.749   7.353
 9409POPC   C1B56395  39.047  16.901   6.453
 9409POPC   C2B56396  39.080  16.870   6.753
 9409POPC   C3B56397  39.044  16.866   7.053
 9409POPC   C4B56398  39.090  16.949   7.353
 9410POPC   NC356399  22.976  22.170   5.553
 9410POPC   PO456400  22.903  22.120   5.853
 9410POPC   GL156401  22.946  22.152   6.153
 9410POPC   GL256402  22.887  22.250   6.153
 9410POPC   C1A56403  22.955  22.160   6.453
 9410POPC   D2A56404  22.963  22.192   6.753
 9410POPC   C3A56405  22.915  22.156   7.053
 9410POPC   C4A56406  22.970  22.133   7.353
 9410POPC   C1B56407  22.820  22.374   6.453
 9410POPC   C2B56408  22.786  22.374   6.753
 9410POPC   C3B56409  22.791  22.343   7.053
 9410POPC   C4B56410  22.765  22.349   7.353
 9411POPC   NC356411   5.912  35.354   5.553
 9411POPC   PO456412   5.864  35.376   5.853
 9411POPC   GL156413   5.913  35.341   6.153
 9411POPC   GL256414   5.808  35.288   6.153
 9411POPC   C1A56415   5.910  35.346   6.453
 9411POPC   D2A56416   5.909  35.358   6.753
 9411POPC   C3A56417   5.909  35.344   7.053
 9411POPC   C4A56418   5.850  35.303   7.353
 9411POPC   C1B56419   5.631  35.249   6.453
 9411POPC   C2B56420   5.655  35.187   6.753
 9411POPC   C3B56421   5.676  35.265   7.053
 9411POPC   C4B56422   5.609  35.197   7.353
 9412POPC   NC356423   9.733  33.001   5.553
 9412POPC   PO456424   9.768  33.023   5.853
 9412POPC   GL156425   9.699  33.043   6.153
 9412POPC   GL256426   9.715  33.168   6.153
 9412POPC   C1A56427   9.746  32.977   6.453
 9412POPC   D2A56428   9.769  33.034   6.753
 9412POPC   C3A56429   9.741  33.041   7.053
 9412POPC   C4A56430   9.722  33.031   7.353
 9412POPC   C1B56431   9.563  33.259   6.453
 9412POPC   C2B56432   9.613  33.231   6.753
 9412POPC   C3B56433   9.641  33.253   7.053
 9412POPC   C4B56434   9.585  33.268   7.353
 9413POPC   NC356435   7.442  36.923   5.553
 9413POPC   PO456436   7.427  36.904   5.853
 9413POPC   GL156437   7.418  36.921   6.153
 9413POPC   GL256438   7.562  36.878   6.153
 9413POPC   C1A56439   7.439  36.936   6.453
 9413POPC   D2A56440   7.398  36.916   6.753
 9413POPC   C3A56441   7.400  36.941   7.053
 9413POPC   C4A56442   7.401  36.923   7.353
 9413POPC   C1B56443   7.623  36.797   6.453
 9413POPC   C2B56444   7.680  36.855   6.753
 9413POPC   C3B56445   7.629  36.860   7.053
 9413POPC   C4B56446   7.697  36.818   7.353
 9414POPC   NC356447   1.958   4.286   5.553
 9414POPC   PO456448   1.943   4.346   5.853
 9414POPC   GL156449   1.940   4.312   6.153
 9414POPC   GL256450   1.910   4.218   6.153
 9414POPC   C1A56451   1.947   4.312   6.453
 9414POPC   D2A56452   2.012   4.287   6.753
 9414POPC   C3A56453   1.997   4.283   7.053
 9414POPC   C4A56454   1.940   4.314   7.353
 9414POPC   C1B56455   1.743   4.146   6.453
 9414POPC   C2B56456   1.764   4.207   6.753
 9414POPC   C3B56457   1.833   4.155   7.053
 9414POPC   C4B56458   1.821   4.144   7.353
 9415POPC   NC356459   9.791  36.145   5.553
 9415POPC   PO456460   9.711  36.089   5.853
 9415POPC   GL156461   9.701  36.162   6.153
 9415POPC   GL256462   9.710  36.291   6.153
 9415POPC   C1A56463   9.712  36.158   6.453
 9415POPC   D2A56464   9.757  36.167   6.753
 9415POPC   C3A56465   9.750  36.150   7.053
 9415POPC   C4A56466   9.722  36.137   7.353
 9415POPC   C1B56467   9.720  36.347   6.453
 9415POPC   C2B56468   9.677  36.407   6.753
 9415POPC   C3B56469   9.698  36.413   7.053
 9415POPC   C4B56470   9.661  36.381   7.353
 9416POPC   NC356471  43.096  22.187   5.553
 9416POPC   PO456472  43.117  22.179   5.853
 9416POPC   GL156473  43.154  22.205   6.153
 9416POPC   GL256474  43.275  22.245   6.153
 9416POPC   C1A56475  43.076  22.183   6.453
 9416POPC   D2A56476  43.071  22.212   6.753
 9416POPC   C3A56477  43.102  22.172   7.053
 9416POPC   C4A56478  43.081  22.118   7.353
 9416POPC   C1B56479  43.323  22.249   6.453
 9416POPC   C2B56480  43.346  22.273   6.753
 9416POPC   C3B56481  43.318  22.286   7.053
 9416POPC   C4B56482  43.370  22.231   7.353
 9417POPC   NC356483  44.616   5.919   5.553
 9417POPC   PO456484  44.682   5.873   5.853
 9417POPC   GL156485  44.688   5.833   6.153
 9417POPC   GL256486  44.714   5.972   6.153
 9417POPC   C1A56487  44.702   5.864   6.453
 9417POPC   D2A56488  44.701   5.821   6.753
 9417POPC   C3A56489  44.628   5.835   7.053
 9417POPC   C4A56490  44.623   5.852   7.353
 9417POPC   C1B56491  44.808   6.047   6.453
 9417POPC   C2B56492  44.848   6.105   6.753
 9417POPC   C3B56493  44.791   6.103   7.053
 9417POPC   C4B56494  44.797   6.081   7.353
 9418POPC   NC356495  25.237  38.444   5.553
 9418POPC   PO456496  25.305  38.491   5.853
 9418POPC   GL156497  25.258  38.434   6.153
 9418POPC   GL256498  25.205  38.545   6.153
 9418POPC   C1A56499  25.228  38.439   6.453
 9418POPC   D2A56500  25.298  38.417   6.753
 9418POPC   C3A56501  25.251  38.417   7.053
 9418POPC   C4A56502  25.247  38.465   7.353
 9418POPC   C1B56503  25.090  38.563   6.453
 9418POPC   C2B56504  25.060  38.606   6.753
 9418POPC   C3B56505  25.042  38.616   7.053
 9418POPC   C4B56506  25.007  38.616   7.353
 9419POPC   NC356507  21.371   4.300   5.553
 9419POPC   PO456508  21.431   4.273   5.853
 9419POPC   GL156509  21.364   4.362   6.153
 9419POPC   GL256510  21.384   4.175   6.153
 9419POPC   C1A56511  21.392   4.354   6.453
 9419POPC   D2A56512  21.375   4.342   6.753
 9419POPC   C3A56513  21.419   4.332   7.053
 9419POPC   C4A56514  21.380   4.338   7.353
 9419POPC   C1B56515  21.338   4.111   6.453
 9419POPC   C2B56516  21.296   4.028   6.753
 9419POPC   C3B56517  21.282   4.072   7.053
 9419POPC   C4B56518  21.283   4.102   7.353
 9420POPC   NC356519   5.849   8.241   5.553
 9420POPC   PO456520   5.875   8.147   5.853
 9420POPC   GL156521   5.823   8.223   6.153
 9420POPC   GL256522   5.914   8.354   6.153
 9420POPC   C1A56523   5.852   8.154   6.453
 9420POPC   D2A56524   5.851   8.184   6.753
 9420POPC   C3A56525   5.891   8.209   7.053
 9420POPC   C4A56526   5.872   8.209   7.353
 9420POPC   C1B56527   6.020   8.435   6.453
 9420POPC   C2B56528   5.938   8.393   6.753
 9420POPC   C3B56529   5.951   8.405   7.053
 9420POPC   C4B56530   5.977   8.415   7.353
 9421POPC   NC356531  37.712  19.846   5.553
 9421POPC   PO456532  37.639  19.868   5.853
 9421POPC   GL156533  37.706  19.849   6.153
 9421POPC   GL256534  37.772  19.764   6.153
 9421POPC   C1A56535  37.727  19.839   6.453
 9421POPC   D2A56536  37.674  19.828   6.753
 9421POPC   C3A56537  37.697  19.865   7.053
 9421POPC   C4A56538  37.635  19.884   7.353
 9421POPC   C1B56539  37.825  19.653   6.453
 9421POPC   C2B56540  37.825  19.652   6.753
 9421POPC   C3B56541  37.825  19.611   7.053
 9421POPC   C4B56542  37.764  19.625   7.353
 9422POPC   NC356543  38.432  21.340   5.553
 9422POPC   PO456544  38.416  21.400   5.853
 9422POPC   GL156545  38.421  21.386   6.153
 9422POPC   GL256546  38.490  21.274   6.153
 9422POPC   C1A56547  38.446  21.385   6.453
 9422POPC   D2A56548  38.472  21.345   6.753
 9422POPC   C3A56549  38.453  21.355   7.053
 9422POPC   C4A56550  38.406  21.391   7.353
 9422POPC   C1B56551  38.523  21.118   6.453
 9422POPC   C2B56552  38.538  21.095   6.753
 9422POPC   C3B56553  38.540  21.100   7.053
 9422POPC   C4B56554  38.461  21.125   7.353
 9423POPC   NC356555  40.773   1.975   5.553
 9423POPC   PO456556  40.736   1.948   5.853
 9423POPC   GL156557  40.786   2.022   6.153
 9423POPC   GL256558  40.655   2.082   6.153
 9423POPC   C1A56559  40.831   1.975   6.453
 9423POPC   D2A56560  40.782   2.010   6.753
 9423POPC   C3A56561  40.768   2.039   7.053
 9423POPC   C4A56562  40.791   2.017   7.353
 9423POPC   C1B56563  40.630   2.214   6.453
 9423POPC   C2B56564  40.577   2.169   6.753
 9423POPC   C3B56565  40.646   2.127   7.053
 9423POPC   C4B56566  40.572   2.135   7.353
 9424POPC   NC356567  15.206  16.694   5.553
 9424POPC   PO456568  15.215  16.759   5.853
 9424POPC   GL156569  15.202  16.769   6.153
 9424POPC   GL256570  15.279  16.792   6.153
 9424POPC   C1A56571  15.212  16.695   6.453
 9424POPC   D2A56572  15.168  16.702   6.753
 9424POPC   C3A56573  15.157  16.777   7.053
 9424POPC   C4A56574  15.223  16.771   7.353
 9424POPC   C1B56575  15.459  16.830   6.453
 9424POPC   C2B56576  15.412  16.763   6.753
 9424POPC   C3B56577  15.464  16.763   7.053
 9424POPC   C4B56578  15.472  16.737   7.353
 9425POPC   NC356579  41.537   5.844   5.553
 9425POPC   PO456580  41.591   5.827   5.853
 9425POPC   GL156581  41.574   5.877   6.153
 9425POPC   GL256582  41.554   5.753   6.153
 9425POPC   C1A56583  41.592   5.823   6.453
 9425POPC   D2A56584  41.532   5.831   6.753
 9425POPC   C3A56585  41.580   5.848   7.053
 9425POPC   C4A56586  41.576   5.877   7.353
 9425POPC   C1B56587  41.618   5.660   6.453
 9425POPC   C2B56588  41.631   5.602   6.753
 9425POPC   C3B56589  41.598   5.602   7.053
 9425POPC   C4B56590  41.598   5.621   7.353
 9426POPC   NC356591  22.949  34.578   5.553
 9426POPC   PO456592  22.896  34.601   5.853
 9426POPC   GL156593  22.905  34.583   6.153
 9426POPC   GL256594  22.846  34.579   6.153
 9426POPC   C1A56595  22.899  34.619   6.453
 9426POPC   D2A56596  22.926  34.566   6.753
 9426POPC   C3A56597  22.918  34.534   7.053
 9426POPC   C4A56598  22.951  34.577   7.353
 9426POPC   C1B56599  22.696  34.550   6.453
 9426POPC   C2B56600  22.640  34.646   6.753
 9426POPC   C3B56601  22.701  34.571   7.053
 9426POPC   C4B56602  22.693  34.632   7.353
 9427POPC   NC356603  33.002   2.741   5.553
 9427POPC   PO456604  33.068   2.805   5.853
 9427POPC   GL156605  32.976   2.806   6.153
 9427POPC   GL256606  33.115   2.895   6.153
 9427POPC   C1A56607  33.048   2.721   6.453
 9427POPC   D2A56608  33.039   2.758   6.753
 9427POPC   C3A56609  33.022   2.799   7.053
 9427POPC   C4A56610  33.024   2.803   7.353
 9427POPC   C1B56611  33.218   2.998   6.453
 9427POPC   C2B56612  33.178   2.938   6.753
 9427POPC   C3B56613  33.141   2.977   7.053
 9427POPC   C4B56614  33.136   2.994   7.353
 9428POPC   NC356615  21.345  16.725   5.553
 9428POPC   PO456616  21.426  16.681   5.853
 9428POPC   GL156617  21.425  16.710   6.153
 9428POPC   GL256618  21.533  16.830   6.153
 9428POPC   C1A56619  21.426  16.745   6.453
 9428POPC   D2A56620  21.416  16.684   6.753
 9428POPC   C3A56621  21.396  16.692   7.053
 9428POPC   C4A56622  21.433  16.689   7.353
 9428POPC   C1B56623  21.581  16.884   6.453
 9428POPC   C2B56624  21.542  16.857   6.753
 9428POPC   C3B56625  21.537  16.918   7.053
 9428POPC   C4B56626  21.617  16.922   7.353
 9429POPC   NC356627  29.896  21.401   5.553
 9429POPC   PO456628  29.909  21.411   5.853
 9429POPC   GL156629  29.902  21.347   6.153
 9429POPC   GL256630  29.853  21.544   6.153
 9429POPC   C1A56631  29.939  21.413   6.453
 9429POPC   D2A56632  29.925  21.422   6.753
 9429POPC   C3A56633  29.942  21.348   7.053
 9429POPC   C4A56634  29.899  21.389   7.353
 9429POPC   C1B56635  29.840  21.606   6.453
 9429POPC   C2B56636  29.856  21.619   6.753
 9429POPC   C3B56637  29.864  21.636   7.053
 9429POPC   C4B56638  29.831  21.662   7.353
 9430POPC   NC356639   2.741   1.953   5.553
 9430POPC   PO456640   2.778   1.966   5.853
 9430POPC   GL156641   2.728   1.977   6.153
 9430POPC   GL256642   2.816   2.100   6.153
 9430POPC   C1A56643   2.756   1.948   6.453
 9430POPC   D2A56644   2.738   1.969   6.753
 9430POPC   C3A56645   2.753   1.993   7.053
 9430POPC   C4A56646   2.760   2.031   7.353
 9430POPC   C1B56647   2.920   2.138   6.453
 9430POPC   C2B56648   2.912   2.189   6.753
 9430POPC   C3B56649   2.958   2.159   7.053
 9430POPC   C4B56650   2.967   2.138   7.353
 9431POPC   NC356651   1.209   0.415   5.553
 9431POPC   PO456652   1.222   0.487   5.853
 9431POPC   GL156653   1.187   0.473   6.153
 9431POPC   GL256654   1.373   0.397   6.153
 9431POPC   C1A56655   1.261   0.484   6.453
 9431POPC   D2A56656   1.170   0.469   6.753
 9431POPC   C3A56657   1.235   0.431   7.053
 9431POPC   C4A56658   1.218   0.391   7.353
 9431POPC   C1B56659   1.466   0.378   6.453
 9431POPC   C2B56660   1.412   0.334   6.753
 9431POPC   C3B56661   1.403   0.388   7.053
 9431POPC   C4B56662   1.490   0.317   7.353
 9432POPC   NC356663  35.341  42.347   5.553
 9432POPC   PO456664  35.314  42.321   5.853
 9432POPC   GL156665  35.319  42.367   6.153
 9432POPC   GL256666  35.428  42.347   6.153
 9432POPC   C1A56667  35.330  42.294   6.453
 9432POPC   D2A56668  35.310  42.307   6.753
 9432POPC   C3A56669  35.349  42.312   7.053
 9432POPC   C4A56670  35.375  42.376   7.353
 9432POPC   C1B56671  35.603  42.315   6.453
 9432POPC   C2B56672  35.624  42.306   6.753
 9432POPC   C3B56673  35.562  42.301   7.053
 9432POPC   C4B56674  35.569  42.250   7.353
 9433POPC   NC356675  38.425  14.392   5.553
 9433POPC   PO456676  38.412  14.424   5.853
 9433POPC   GL156677  38.483  14.439   6.153
 9433POPC   GL256678  38.577  14.380   6.153
 9433POPC   C1A56679  38.431  14.414   6.453
 9433POPC   D2A56680  38.429  14.373   6.753
 9433POPC   C3A56681  38.447  14.405   7.053
 9433POPC   C4A56682  38.468  14.355   7.353
 9433POPC   C1B56683  38.655  14.305   6.453
 9433POPC   C2B56684  38.741  14.368   6.753
 9433POPC   C3B56685  38.643  14.293   7.053
 9433POPC   C4B56686  38.737  14.323   7.353
 9434POPC   NC356687  15.972  29.139   5.553
 9434POPC   PO456688  15.988  29.186   5.853
 9434POPC   GL156689  15.966  29.152   6.153
 9434POPC   GL256690  15.867  29.052   6.153
 9434POPC   C1A56691  15.995  29.136   6.453
 9434POPC   D2A56692  15.977  29.180   6.753
 9434POPC   C3A56693  15.959  29.155   7.053
 9434POPC   C4A56694  15.957  29.103   7.353
 9434POPC   C1B56695  15.894  28.899   6.453
 9434POPC   C2B56696  15.835  28.873   6.753
 9434POPC   C3B56697  15.859  28.932   7.053
 9434POPC   C4B56698  15.832  28.906   7.353
 9435POPC   NC356699   0.404  39.193   5.553
 9435POPC   PO456700   0.415  39.221   5.853
 9435POPC   GL156701   0.402  39.213   6.153
 9435POPC   GL256702   0.374  39.386   6.153
 9435POPC   C1A56703   0.436  39.218   6.453
 9435POPC   D2A56704   0.478  39.262   6.753
 9435POPC   C3A56705   0.393  39.267   7.053
 9435POPC   C4A56706   0.432  39.256   7.353
 9435POPC   C1B56707   0.343  39.420   6.453
 9435POPC   C2B56708   0.336  39.467   6.753
 9435POPC   C3B56709   0.321  39.457   7.053
 9435POPC   C4B56710   0.258  39.398   7.353
 9436POPC   NC356711  39.196  42.336   5.553
 9436POPC   PO456712  39.235  42.325   5.853
 9436POPC   GL156713  39.198  42.375   6.153
 9436POPC   GL256714  39.166  42.473   6.153
 9436POPC   C1A56715  39.278  42.291   6.453
 9436POPC   D2A56716  39.238  42.345   6.753
 9436POPC   C3A56717  39.209  42.359   7.053
 9436POPC   C4A56718  39.238  42.316   7.353
 9436POPC   C1B56719  39.126  42.576   6.453
 9436POPC   C2B56720  39.089  42.504   6.753
 9436POPC   C3B56721  39.053  42.542   7.053
 9436POPC   C4B56722  39.105  42.579   7.353
 9437POPC   NC356723  43.929  14.421   5.553
 9437POPC   PO456724  43.887  14.440   5.853
 9437POPC   GL156725  43.841  14.409   6.153
 9437POPC   GL256726  43.955  14.574   6.153
 9437POPC   C1A56727  43.873  14.428   6.453
 9437POPC   D2A56728  43.855  14.449   6.753
 9437POPC   C3A56729  43.842  14.425   7.053
 9437POPC   C4A56730  43.917  14.430   7.353
 9437POPC   C1B56731  43.966  14.613   6.453
 9437POPC   C2B56732  43.885  14.620   6.753
 9437POPC   C3B56733  43.947  14.630   7.053
 9437POPC   C4B56734  43.897  14.654   7.353
 9438POPC   NC356735  19.872  12.096   5.553
 9438POPC   PO456736  19.788  12.095   5.853
 9438POPC   GL156737  19.858  12.101   6.153
 9438POPC   GL256738  19.816  11.949   6.153
 9438POPC   C1A56739  19.868  12.064   6.453
 9438POPC   D2A56740  19.848  12.122   6.753
 9438POPC   C3A56741  19.807  12.107   7.053
 9438POPC   C4A56742  19.835  12.093   7.353
 9438POPC   C1B56743  19.829  11.866   6.453
 9438POPC   C2B56744  19.810  11.806   6.753
 9438POPC   C3B56745  19.865  11.788   7.053
 9438POPC   C4B56746  19.799  11.799   7.353
 9439POPC   NC356747  40.795  11.296   5.553
 9439POPC   PO456748  40.783  11.300   5.853
 9439POPC   GL156749  40.772  11.330   6.153
 9439POPC   GL256750  40.720  11.236   6.153
 9439POPC   C1A56751  40.767  11.253   6.453
 9439POPC   D2A56752  40.781  11.283   6.753
 9439POPC   C3A56753  40.804  11.272   7.053
 9439POPC   C4A56754  40.805  11.337   7.353
 9439POPC   C1B56755  40.566  11.209   6.453
 9439POPC   C2B56756  40.578  11.141   6.753
 9439POPC   C3B56757  40.584  11.132   7.053
 9439POPC   C4B56758  40.537  11.219   7.353
 9440POPC   NC356759  38.495  32.285   5.553
 9440POPC   PO456760  38.495  32.224   5.853
 9440POPC   GL156761  38.483  32.243   6.153
 9440POPC   GL256762  38.578  32.183   6.153
 9440POPC   C1A56763  38.504  32.209   6.453
 9440POPC   D2A56764  38.473  32.238   6.753
 9440POPC   C3A56765  38.464  32.201   7.053
 9440POPC   C4A56766  38.421  32.265   7.353
 9440POPC   C1B56767  38.699  32.207   6.453
 9440POPC   C2B56768  38.686  32.185   6.753
 9440POPC   C3B56769  38.745  32.194   7.053
 9440POPC   C4B56770  38.732  32.187   7.353
 9441POPC   NC356771  42.346   8.207   5.553
 9441POPC   PO456772  42.308   8.242   5.853
 9441POPC   GL156773  42.324   8.214   6.153
 9441POPC   GL256774  42.195   8.268   6.153
 9441POPC   C1A56775  42.301   8.234   6.453
 9441POPC   D2A56776  42.361   8.197   6.753
 9441POPC   C3A56777  42.321   8.218   7.053
 9441POPC   C4A56778  42.356   8.241   7.353
 9441POPC   C1B56779  42.160   8.398   6.453
 9441POPC   C2B56780  42.176   8.388   6.753
 9441POPC   C3B56781  42.137   8.352   7.053
 9441POPC   C4B56782  42.166   8.333   7.353
 9442POPC   NC356783  15.996  42.344   5.553
 9442POPC   PO456784  15.916  42.379   5.853
 9442POPC   GL156785  15.922  42.359   6.153
 9442POPC   GL256786  16.021  42.383   6.153
 9442POPC   C1A56787  15.925  42.321   6.453
 9442POPC   D2A56788  15.908  42.309   6.753
 9442POPC   C3A56789  15.906  42.330   7.053
 9442POPC   C4A56790  15.939  42.367   7.353
 9442POPC   C1B56791  16.078  42.552   6.453
 9442POPC   C2B56792  16.083  42.506   6.753
 9442POPC   C3B56793  16.067  42.482   7.053
 9442POPC   C4B56794  16.090  42.550   7.353
 9443POPC   NC356795  26.842  36.152   5.553
 9443POPC   PO456796  26.818  36.154   5.853
 9443POPC   GL156797  26.862  36.117   6.153
 9443POPC   GL256798  26.706  36.082   6.153
 9443POPC   C1A56799  26.828  36.138   6.453
 9443POPC   D2A56800  26.777  36.103   6.753
 9443POPC   C3A56801  26.853  36.086   7.053
 9443POPC   C4A56802  26.854  36.098   7.353
 9443POPC   C1B56803  26.657  35.916   6.453
 9443POPC   C2B56804  26.597  35.975   6.753
 9443POPC   C3B56805  26.655  35.922   7.053
 9443POPC   C4B56806  26.623  35.972   7.353
 9444POPC   NC356807  29.957  33.758   5.553
 9444POPC   PO456808  29.956  33.772   5.853
 9444POPC   GL156809  29.923  33.803   6.153
 9444POPC   GL256810  29.814  33.725   6.153
 9444POPC   C1A56811  29.940  33.840   6.453
 9444POPC   D2A56812  29.918  33.801   6.753
 9444POPC   C3A56813  29.871  33.823   7.053
 9444POPC   C4A56814  29.876  33.785   7.353
 9444POPC   C1B56815  29.771  33.655   6.453
 9444POPC   C2B56816  29.697  33.608   6.753
 9444POPC   C3B56817  29.779  33.653   7.053
 9444POPC   C4B56818  29.748  33.609   7.353
 9445POPC   NC356819  42.295   5.115   5.553
 9445POPC   PO456820  42.332   5.132   5.853
 9445POPC   GL156821  42.342   5.057   6.153
 9445POPC   GL256822  42.282   5.155   6.153
 9445POPC   C1A56823  42.296   5.094   6.453
 9445POPC   D2A56824  42.372   5.059   6.753
 9445POPC   C3A56825  42.337   5.129   7.053
 9445POPC   C4A56826  42.327   5.067   7.353
 9445POPC   C1B56827  42.134   5.257   6.453
 9445POPC   C2B56828  42.181   5.258   6.753
 9445POPC   C3B56829  42.224   5.281   7.053
 9445POPC   C4B56830  42.155   5.312   7.353
 9446POPC   NC356831  36.171  31.502   5.553
 9446POPC   PO456832  36.111  31.457   5.853
 9446POPC   GL156833  36.106  31.432   6.153
 9446POPC   GL256834  36.164  31.588   6.153
 9446POPC   C1A56835  36.156  31.452   6.453
 9446POPC   D2A56836  36.097  31.425   6.753
 9446POPC   C3A56837  36.165  31.471   7.053
 9446POPC   C4A56838  36.129  31.474   7.353
 9446POPC   C1B56839  36.189  31.710   6.453
 9446POPC   C2B56840  36.202  31.662   6.753
 9446POPC   C3B56841  36.260  31.654   7.053
 9446POPC   C4B56842  36.247  31.699   7.353
 9447POPC   NC356843  26.826   4.331   5.553
 9447POPC   PO456844  26.836   4.299   5.853
 9447POPC   GL156845  26.828   4.286   6.153
 9447POPC   GL256846  26.900   4.416   6.153
 9447POPC   C1A56847  26.840   4.325   6.453
 9447POPC   D2A56848  26.839   4.364   6.753
 9447POPC   C3A56849  26.804   4.275   7.053
 9447POPC   C4A56850  26.840   4.333   7.353
 9447POPC   C1B56851  26.942   4.531   6.453
 9447POPC   C2B56852  26.981   4.533   6.753
 9447POPC   C3B56853  27.009   4.544   7.053
 9447POPC   C4B56854  27.019   4.551   7.353
 9448POPC   NC356855   8.215  43.118   5.553
 9448POPC   PO456856   8.155  43.157   5.853
 9448POPC   GL156857   8.196  43.091   6.153
 9448POPC   GL256858   8.260  43.237   6.153
 9448POPC   C1A56859   8.235  43.072   6.453
 9448POPC   D2A56860   8.197  43.119   6.753
 9448POPC   C3A56861   8.205  43.105   7.053
 9448POPC   C4A56862   8.216  43.091   7.353
 9448POPC   C1B56863   8.202  43.349   6.453
 9448POPC   C2B56864   8.276  43.339   6.753
 9448POPC   C3B56865   8.223  43.360   7.053
 9448POPC   C4B56866   8.227  43.377   7.353
 9449POPC   NC356867  13.638  39.221   5.553
 9449POPC   PO456868  13.620  39.221   5.853
 9449POPC   GL156869  13.632  39.273   6.153
 9449POPC   GL256870  13.506  39.155   6.153
 9449POPC   C1A56871  13.614  39.186   6.453
 9449POPC   D2A56872  13.611  39.222   6.753
 9449POPC   C3A56873  13.614  39.210   7.053
 9449POPC   C4A56874  13.637  39.250   7.353
 9449POPC   C1B56875  13.405  39.132   6.453
 9449POPC   C2B56876  13.388  39.181   6.753
 9449POPC   C3B56877  13.377  39.156   7.053
 9449POPC   C4B56878  13.410  39.186   7.353
 9450POPC   NC356879  11.325  22.951   5.553
 9450POPC   PO456880  11.264  22.908   5.853
 9450POPC   GL156881  11.276  22.900   6.153
 9450POPC   GL256882  11.425  22.939   6.153
 9450POPC   C1A56883  11.253  22.916   6.453
 9450POPC   D2A56884  11.335  22.985   6.753
 9450POPC   C3A56885  11.289  22.969   7.053
 9450POPC   C4A56886  11.342  22.939   7.353
 9450POPC   C1B56887  11.506  22.809   6.453
 9450POPC   C2B56888  11.507  22.819   6.753
 9450POPC   C3B56889  11.533  22.883   7.053
 9450POPC   C4B56890  11.550  22.898   7.353
 9451POPC   NC356891  29.175  20.615   5.553
 9451POPC   PO456892  29.154  20.615   5.853
 9451POPC   GL156893  29.121  20.617   6.153
 9451POPC   GL256894  29.235  20.721   6.153
 9451POPC   C1A56895  29.160  20.601   6.453
 9451POPC   D2A56896  29.150  20.649   6.753
 9451POPC   C3A56897  29.120  20.587   7.053
 9451POPC   C4A56898  29.114  20.577   7.353
 9451POPC   C1B56899  29.242  20.834   6.453
 9451POPC   C2B56900  29.192  20.884   6.753
 9451POPC   C3B56901  29.195  20.893   7.053
 9451POPC   C4B56902  29.250  20.878   7.353
 9452POPC   NC356903  30.735   0.482   5.553
 9452POPC   PO456904  30.651   0.458   5.853
 9452POPC   GL156905  30.719   0.481   6.153
 9452POPC   GL256906  30.620   0.578   6.153
 9452POPC   C1A56907  30.710   0.437   6.453
 9452POPC   D2A56908  30.664   0.396   6.753
 9452POPC   C3A56909  30.705   0.454   7.053
 9452POPC   C4A56910  30.722   0.481   7.353
 9452POPC   C1B56911  30.593   0.669   6.453
 9452POPC   C2B56912  30.636   0.691   6.753
 9452POPC   C3B56913  30.571   0.678   7.053
 9452POPC   C4B56914  30.596   0.706   7.353
 9453POPC   NC356915  33.063  23.730   5.553
 9453POPC   PO456916  33.046  23.750   5.853
 9453POPC   GL156917  33.065  23.737   6.153
 9453POPC   GL256918  33.098  23.670   6.153
 9453POPC   C1A56919  33.046  23.710   6.453
 9453POPC   D2A56920  33.002  23.720   6.753
 9453POPC   C3A56921  33.006  23.677   7.053
 9453POPC   C4A56922  32.986  23.724   7.353
 9453POPC   C1B56923  33.230  23.589   6.453
 9453POPC   C2B56924  33.289  23.607   6.753
 9453POPC   C3B56925  33.290  23.603   7.053
 9453POPC   C4B56926  33.267  23.577   7.353
 9454POPC   NC356927  39.252  33.062   5.553
 9454POPC   PO456928  39.231  33.005   5.853
 9454POPC   GL156929  39.256  33.019   6.153
 9454POPC   GL256930  39.255  33.167   6.153
 9454POPC   C1A56931  39.251  33.016   6.453
 9454POPC   D2A56932  39.266  33.012   6.753
 9454POPC   C3A56933  39.278  33.048   7.053
 9454POPC   C4A56934  39.206  33.049   7.353
 9454POPC   C1B56935  39.246  33.244   6.453
 9454POPC   C2B56936  39.327  33.294   6.753
 9454POPC   C3B56937  39.315  33.286   7.053
 9454POPC   C4B56938  39.273  33.274   7.353
 9455POPC   NC356939  19.013  27.545   5.553
 9455POPC   PO456940  19.094  27.603   5.853
 9455POPC   GL156941  19.083  27.603   6.153
 9455POPC   GL256942  18.911  27.520   6.153
 9455POPC   C1A56943  19.021  27.555   6.453
 9455POPC   D2A56944  19.029  27.575   6.753
 9455POPC   C3A56945  19.076  27.622   7.053
 9455POPC   C4A56946  19.057  27.590   7.353
 9455POPC   C1B56947  18.775  27.531   6.453
 9455POPC   C2B56948  18.860  27.553   6.753
 9455POPC   C3B56949  18.801  27.495   7.053
 9455POPC   C4B56950  18.782  27.499   7.353
 9456POPC   NC356951   3.558  38.431   5.553
 9456POPC   PO456952   3.494  38.467   5.853
 9456POPC   GL156953   3.531  38.431   6.153
 9456POPC   GL256954   3.403  38.538   6.153
 9456POPC   C1A56955   3.529  38.457   6.453
 9456POPC   D2A56956   3.570  38.495   6.753
 9456POPC   C3A56957   3.549  38.485   7.053
 9456POPC   C4A56958   3.506  38.414   7.353
 9456POPC   C1B56959   3.296  38.528   6.453
 9456POPC   C2B56960   3.336  38.544   6.753
 9456POPC   C3B56961   3.338  38.568   7.053
 9456POPC   C4B56962   3.348  38.612   7.353
 9457POPC   NC356963  16.713  12.819   5.553
 9457POPC   PO456964  16.766  12.826   5.853
 9457POPC   GL156965  16.701  12.835   6.153
 9457POPC   GL256966  16.605  12.890   6.153
 9457POPC   C1A56967  16.717  12.814   6.453
 9457POPC   D2A56968  16.729  12.889   6.753
 9457POPC   C3A56969  16.721  12.805   7.053
 9457POPC   C4A56970  16.691  12.854   7.353
 9457POPC   C1B56971  16.523  12.871   6.453
 9457POPC   C2B56972  16.527  12.873   6.753
 9457POPC   C3B56973  16.530  12.900   7.053
 9457POPC   C4B56974  16.501  12.831   7.353
 9458POPC   NC356975  12.110  33.751   5.553
 9458POPC   PO456976  12.034  33.816   5.853
 9458POPC   GL156977  12.056  33.812   6.153
 9458POPC   GL256978  12.139  33.652   6.153
 9458POPC   C1A56979  12.108  33.781   6.453
 9458POPC   D2A56980  12.044  33.755   6.753
 9458POPC   C3A56981  12.061  33.805   7.053
 9458POPC   C4A56982  12.032  33.753   7.353
 9458POPC   C1B56983  12.180  33.546   6.453
 9458POPC   C2B56984  12.122  33.554   6.753
 9458POPC   C3B56985  12.130  33.536   7.053
 9458POPC   C4B56986  12.144  33.584   7.353
 9459POPC   NC356987  44.651  16.710   5.553
 9459POPC   PO456988  44.672  16.713   5.853
 9459POPC   GL156989  44.661  16.694   6.153
 9459POPC   GL256990  44.549  16.702   6.153
 9459POPC   C1A56991  44.684  16.737   6.453
 9459POPC   D2A56992  44.677  16.758   6.753
 9459POPC   C3A56993  44.648  16.746   7.053
 9459POPC   C4A56994  44.646  16.744   7.353
 9459POPC   C1B56995  44.420  16.687   6.453
 9459POPC   C2B56996  44.384  16.736   6.753
 9459POPC   C3B56997  44.363  16.711   7.053
 9459POPC   C4B56998  44.365  16.784   7.353
 9460POPC   NC356999  39.213  29.919   5.553
 9460POPC   PO457000  39.224  29.961   5.853
 9460POPC   GL157001  39.253  29.967   6.153
 9460POPC   GL257002  39.329  30.018   6.153
 9460POPC   C1A57003  39.188  29.953   6.453
 9460POPC   D2A57004  39.232  29.878   6.753
 9460POPC   C3A57005  39.224  29.964   7.053
 9460POPC   C4A57006  39.184  29.900   7.353
 9460POPC   C1B57007  39.377  30.082   6.453
 9460POPC   C2B57008  39.413  30.123   6.753
 9460POPC   C3B57009  39.417  30.123   7.053
 9460POPC   C4B57010  39.345  30.137   7.353
 9461POPC   NC357011  21.376  19.050   5.553
 9461POPC   PO457012  21.344  19.042   5.853
 9461POPC   GL157013  21.397  19.035   6.153
 9461POPC   GL257014  21.437  19.200   6.153
 9461POPC   C1A57015  21.348  19.025   6.453
 9461POPC   D2A57016  21.371  19.025   6.753
 9461POPC   C3A57017  21.383  19.082   7.053
 9461POPC   C4A57018  21.376  19.080   7.353
 9461POPC   C1B57019  21.489  19.282   6.453
 9461POPC   C2B57020  21.483  19.309   6.753
 9461POPC   C3B57021  21.495  19.262   7.053
 9461POPC   C4B57022  21.486  19.242   7.353
 9462POPC   NC357023  35.392  21.420   5.553
 9462POPC   PO457024  35.323  21.417   5.853
 9462POPC   GL157025  35.375  21.344   6.153
 9462POPC   GL257026  35.456  21.305   6.153
 9462POPC   C1A57027  35.363  21.360   6.453
 9462POPC   D2A57028  35.334  21.411   6.753
 9462POPC   C3A57029  35.397  21.357   7.053
 9462POPC   C4A57030  35.337  21.369   7.353
 9462POPC   C1B57031  35.544  21.288   6.453
 9462POPC   C2B57032  35.578  21.272   6.753
 9462POPC   C3B57033  35.592  21.211   7.053
 9462POPC   C4B57034  35.549  21.215   7.353
 9463POPC   NC357035   7.379  31.504   5.553
 9463POPC   PO457036   7.388  31.456   5.853
 9463POPC   GL157037   7.467  31.494   6.153
 9463POPC   GL257038   7.530  31.486   6.153
 9463POPC   C1A57039   7.454  31.428   6.453
 9463POPC   D2A57040   7.413  31.508   6.753
 9463POPC   C3A57041   7.468  31.444   7.053
 9463POPC   C4A57042   7.406  31.496   7.353
 9463POPC   C1B57043   7.681  31.457   6.453
 9463POPC   C2B57044   7.702  31.407   6.753
 9463POPC   C3B57045   7.707  31.404   7.053
 9463POPC   C4B57046   7.690  31.393   7.353
 9464POPC   NC357047  41.572  15.919   5.553
 9464POPC   PO457048  41.576  15.937   5.853
 9464POPC   GL157049  41.592  15.985   6.153
 9464POPC   GL257050  41.450  15.913   6.153
 9464POPC   C1A57051  41.546  15.993   6.453
 9464POPC   D2A57052  41.607  15.981   6.753
 9464POPC   C3A57053  41.575  15.908   7.053
 9464POPC   C4A57054  41.571  15.915   7.353
 9464POPC   C1B57055  41.343  15.937   6.453
 9464POPC   C2B57056  41.274  15.853   6.753
 9464POPC   C3B57057  41.365  15.892   7.053
 9464POPC   C4B57058  41.285  15.924   7.353
 9465POPC   NC357059   5.899  27.636   5.553
 9465POPC   PO457060   5.912  27.621   5.853
 9465POPC   GL157061   5.919  27.625   6.153
 9465POPC   GL257062   5.763  27.551   6.153
 9465POPC   C1A57063   5.886  27.564   6.453
 9465POPC   D2A57064   5.869  27.576   6.753
 9465POPC   C3A57065   5.855  27.630   7.053
 9465POPC   C4A57066   5.851  27.631   7.353
 9465POPC   C1B57067   5.704  27.424   6.453
 9465POPC   C2B57068   5.676  27.441   6.753
 9465POPC   C3B57069   5.690  27.462   7.053
 9465POPC   C4B57070   5.628  27.446   7.353
 9466POPC   NC357071  33.758  34.602   5.553
 9466POPC   PO457072  33.797  34.594   5.853
 9466POPC   GL157073  33.804  34.591   6.153
 9466POPC   GL257074  33.853  34.639   6.153
 9466POPC   C1A57075  33.846  34.536   6.453
 9466POPC   D2A57076  33.790  34.617   6.753
 9466POPC   C3A57077  33.759  34.577   7.053
 9466POPC   C4A57078  33.751  34.617   7.353
 9466POPC   C1B57079  34.036  34.739   6.453
 9466POPC   C2B57080  33.992  34.669   6.753
 9466POPC   C3B57081  34.029  34.677   7.053
 9466POPC   C4B57082  34.035  34.725   7.353
 9467POPC   NC357083  43.105  26.772   5.553
 9467POPC   PO457084  43.063  26.851   5.853
 9467POPC   GL157085  43.139  26.860   6.153
 9467POPC   GL257086  43.089  26.979   6.153
 9467POPC   C1A57087  43.076  26.858   6.453
 9467POPC   D2A57088  43.075  26.825   6.753
 9467POPC   C3A57089  43.149  26.806   7.053
 9467POPC   C4A57090  43.126  26.796   7.353
 9467POPC   C1B57091  43.061  27.042   6.453
 9467POPC   C2B57092  42.984  27.079   6.753
 9467POPC   C3B57093  42.986  27.050   7.053
 9467POPC   C4B57094  42.967  27.035   7.353
 9468POPC   NC357095   7.394  17.519   5.553
 9468POPC   PO457096   7.446  17.502   5.853
 9468POPC   GL157097   7.417  17.521   6.153
 9468POPC   GL257098   7.301  17.537   6.153
 9468POPC   C1A57099   7.397  17.534   6.453
 9468POPC   D2A57100   7.423  17.460   6.753
 9468POPC   C3A57101   7.432  17.535   7.053
 9468POPC   C4A57102   7.471  17.517   7.353
 9468POPC   C1B57103   7.167  17.641   6.453
 9468POPC   C2B57104   7.163  17.609   6.753
 9468POPC   C3B57105   7.213  17.622   7.053
 9468POPC   C4B57106   7.206  17.623   7.353
 9469POPC   NC357107  42.378   1.974   5.553
 9469POPC   PO457108  42.339   2.024   5.853
 9469POPC   GL157109  42.379   1.963   6.153
 9469POPC   GL257110  42.165   2.036   6.153
 9469POPC   C1A57111  42.346   1.952   6.453
 9469POPC   D2A57112  42.310   2.023   6.753
 9469POPC   C3A57113  42.331   2.029   7.053
 9469POPC   C4A57114  42.363   1.953   7.353
 9469POPC   C1B57115  42.066   2.060   6.453
 9469POPC   C2B57116  42.066   2.042   6.753
 9469POPC   C3B57117  42.124   2.051   7.053
 9469POPC   C4B57118  42.086   2.049   7.353
 9470POPC   NC357119  40.754  16.733   5.553
 9470POPC   PO457120  40.734  16.715   5.853
 9470POPC   GL157121  40.752  16.761   6.153
 9470POPC   GL257122  40.681  16.810   6.153
 9470POPC   C1A57123  40.772  16.723   6.453
 9470POPC   D2A57124  40.741  16.742   6.753
 9470POPC   C3A57125  40.815  16.769   7.053
 9470POPC   C4A57126  40.783  16.775   7.353
 9470POPC   C1B57127  40.670  16.903   6.453
 9470POPC   C2B57128  40.573  16.919   6.753
 9470POPC   C3B57129  40.645  16.938   7.053
 9470POPC   C4B57130  40.670  16.930   7.353
 9471POPC   NC357131   9.000  29.934   5.553
 9471POPC   PO457132   8.944  29.946   5.853
 9471POPC   GL157133   9.008  29.963   6.153
 9471POPC   GL257134   9.016  29.981   6.153
 9471POPC   C1A57135   8.998  29.935   6.453
 9471POPC   D2A57136   8.980  29.914   6.753
 9471POPC   C3A57137   8.961  29.883   7.053
 9471POPC   C4A57138   8.940  29.953   7.353
 9471POPC   C1B57139   9.084  30.096   6.453
 9471POPC   C2B57140   9.112  30.071   6.753
 9471POPC   C3B57141   9.169  30.093   7.053
 9471POPC   C4B57142   9.110  30.101   7.353
 9472POPC   NC357143  32.277   2.007   5.553
 9472POPC   PO457144  32.260   2.030   5.853
 9472POPC   GL157145  32.226   1.968   6.153
 9472POPC   GL257146  32.357   1.854   6.153
 9472POPC   C1A57147  32.265   1.949   6.453
 9472POPC   D2A57148  32.234   2.013   6.753
 9472POPC   C3A57149  32.268   2.029   7.053
 9472POPC   C4A57150  32.280   2.010   7.353
 9472POPC   C1B57151  32.396   1.821   6.453
 9472POPC   C2B57152  32.392   1.793   6.753
 9472POPC   C3B57153  32.468   1.808   7.053
 9472POPC   C4B57154  32.457   1.775   7.353
 9473POPC   NC357155   8.220  37.632   5.553
 9473POPC   PO457156   8.198  37.638   5.853
 9473POPC   GL157157   8.209  37.705   6.153
 9473POPC   GL257158   8.281  37.690   6.153
 9473POPC   C1A57159   8.212  37.708   6.453
 9473POPC   D2A57160   8.224  37.699   6.753
 9473POPC   C3A57161   8.233  37.664   7.053
 9473POPC   C4A57162   8.230  37.691   7.353
 9473POPC   C1B57163   8.383  37.808   6.453
 9473POPC   C2B57164   8.453  37.759   6.753
 9473POPC   C3B57165   8.468  37.736   7.053
 9473POPC   C4B57166   8.451  37.731   7.353
 9474POPC   NC357167  28.351   2.754   5.553
 9474POPC   PO457168  28.344   2.806   5.853
 9474POPC   GL157169  28.366   2.781   6.153
 9474POPC   GL257170  28.208   2.785   6.153
 9474POPC   C1A57171  28.334   2.811   6.453
 9474POPC   D2A57172  28.412   2.774   6.753
 9474POPC   C3A57173  28.390   2.769   7.053
 9474POPC   C4A57174  28.368   2.782   7.353
 9474POPC   C1B57175  28.149   2.806   6.453
 9474POPC   C2B57176  28.137   2.834   6.753
 9474POPC   C3B57177  28.117   2.819   7.053
 9474POPC   C4B57178  28.128   2.818   7.353
 9475POPC   NC357179  13.633   8.924   5.553
 9475POPC   PO457180  13.582   9.018   5.853
 9475POPC   GL157181  13.620   8.942   6.153
 9475POPC   GL257182  13.672   8.888   6.153
 9475POPC   C1A57183  13.592   8.963   6.453
 9475POPC   D2A57184  13.661   8.993   6.753
 9475POPC   C3A57185  13.654   8.991   7.053
 9475POPC   C4A57186  13.629   8.952   7.353
 9475POPC   C1B57187  13.717   8.729   6.453
 9475POPC   C2B57188  13.806   8.752   6.753
 9475POPC   C3B57189  13.758   8.755   7.053
 9475POPC   C4B57190  13.775   8.762   7.353
 9476POPC   NC357191  37.689  42.316   5.553
 9476POPC   PO457192  37.712  42.320   5.853
 9476POPC   GL157193  37.700  42.361   6.153
 9476POPC   GL257194  37.536  42.382   6.153
 9476POPC   C1A57195  37.708  42.335   6.453
 9476POPC   D2A57196  37.635  42.296   6.753
 9476POPC   C3A57197  37.705  42.342   7.053
 9476POPC   C4A57198  37.631  42.362   7.353
 9476POPC   C1B57199  37.476  42.430   6.453
 9476POPC   C2B57200  37.496  42.427   6.753
 9476POPC   C3B57201  37.448  42.447   7.053
 9476POPC   C4B57202  37.439  42.427   7.353
 9477POPC   NC357203  21.341   8.230   5.553
 9477POPC   PO457204  21.404   8.203   5.853
 9477POPC   GL157205  21.357   8.231   6.153
 9477POPC   GL257206  21.444   8.304   6.153
 9477POPC   C1A57207  21.413   8.225   6.453
 9477POPC   D2A57208  21.407   8.183   6.753
 9477POPC   C3A57209  21.424   8.215   7.053
 9477POPC   C4A57210  21.427   8.167   7.353
 9477POPC   C1B57211  21.558   8.432   6.453
 9477POPC   C2B57212  21.499   8.362   6.753
 9477POPC   C3B57213  21.501   8.453   7.053
 9477POPC   C4B57214  21.560   8.363   7.353
 9478POPC   NC357215  12.859  13.615   5.553
 9478POPC   PO457216  12.858  13.621   5.853
 9478POPC   GL157217  12.840  13.652   6.153
 9478POPC   GL257218  12.913  13.746   6.153
 9478POPC   C1A57219  12.874  13.619   6.453
 9478POPC   D2A57220  12.822  13.674   6.753
 9478POPC   C3A57221  12.830  13.618   7.053
 9478POPC   C4A57222  12.809  13.581   7.353
 9478POPC   C1B57223  13.080  13.765   6.453
 9478POPC   C2B57224  13.069  13.815   6.753
 9478POPC   C3B57225  13.015  13.801   7.053
 9478POPC   C4B57226  13.047  13.752   7.353
 9479POPC   NC357227  34.582   8.941   5.553
 9479POPC   PO457228  34.557   8.998   5.853
 9479POPC   GL157229  34.550   8.934   6.153
 9479POPC   GL257230  34.551   9.073   6.153
 9479POPC   C1A57231  34.605   9.001   6.453
 9479POPC   D2A57232  34.559   8.981   6.753
 9479POPC   C3A57233  34.592   9.007   7.053
 9479POPC   C4A57234  34.587   9.000   7.353
 9479POPC   C1B57235  34.609   9.229   6.453
 9479POPC   C2B57236  34.606   9.182   6.753
 9479POPC   C3B57237  34.617   9.179   7.053
 9479POPC   C4B57238  34.606   9.181   7.353
 9480POPC   NC357239  33.056  27.577   5.553
 9480POPC   PO457240  33.030  27.627   5.853
 9480POPC   GL157241  33.057  27.621   6.153
 9480POPC   GL257242  33.168  27.567   6.153
 9480POPC   C1A57243  32.976  27.627   6.453
 9480POPC   D2A57244  32.994  27.574   6.753
 9480POPC   C3A57245  32.992  27.629   7.053
 9480POPC   C4A57246  33.023  27.630   7.353
 9480POPC   C1B57247  33.248  27.500   6.453
 9480POPC   C2B57248  33.276  27.486   6.753
 9480POPC   C3B57249  33.315  27.508   7.053
 9480POPC   C4B57250  33.244  27.488   7.353
 9481POPC   NC357251  15.208  11.325   5.553
 9481POPC   PO457252  15.209  11.315   5.853
 9481POPC   GL157253  15.155  11.306   6.153
 9481POPC   GL257254  15.080  11.327   6.153
 9481POPC   C1A57255  15.155  11.324   6.453
 9481POPC   D2A57256  15.206  11.296   6.753
 9481POPC   C3A57257  15.172  11.300   7.053
 9481POPC   C4A57258  15.166  11.306   7.353
 9481POPC   C1B57259  14.896  11.365   6.453
 9481POPC   C2B57260  14.911  11.292   6.753
 9481POPC   C3B57261  14.883  11.304   7.053
 9481POPC   C4B57262  14.967  11.320   7.353
 9482POPC   NC357263  35.328   2.796   5.553
 9482POPC   PO457264  35.375   2.733   5.853
 9482POPC   GL157265  35.376   2.730   6.153
 9482POPC   GL257266  35.324   2.610   6.153
 9482POPC   C1A57267  35.388   2.788   6.453
 9482POPC   D2A57268  35.352   2.792   6.753
 9482POPC   C3A57269  35.391   2.797   7.053
 9482POPC   C4A57270  35.364   2.723   7.353
 9482POPC   C1B57271  35.312   2.558   6.453
 9482POPC   C2B57272  35.315   2.534   6.753
 9482POPC   C3B57273  35.324   2.481   7.053
 9482POPC   C4B57274  35.323   2.515   7.353
 9483POPC   NC357275  16.691   3.513   5.553
 9483POPC   PO457276  16.723   3.535   5.853
 9483POPC   GL157277  16.746   3.554   6.153
 9483POPC   GL257278  16.671   3.422   6.153
 9483POPC   C1A57279  16.764   3.579   6.453
 9483POPC   D2A57280  16.731   3.537   6.753
 9483POPC   C3A57281  16.758   3.590   7.053
 9483POPC   C4A57282  16.688   3.497   7.353
 9483POPC   C1B57283  16.629   3.314   6.453
 9483POPC   C2B57284  16.638   3.300   6.753
 9483POPC   C3B57285  16.570   3.332   7.053
 9483POPC   C4B57286  16.598   3.297   7.353
 9484POPC   NC357287  16.695  40.022   5.553
 9484POPC   PO457288  16.698  40.013   5.853
 9484POPC   GL157289  16.739  39.999   6.153
 9484POPC   GL257290  16.861  39.950   6.153
 9484POPC   C1A57291  16.712  39.988   6.453
 9484POPC   D2A57292  16.709  40.052   6.753
 9484POPC   C3A57293  16.735  40.032   7.053
 9484POPC   C4A57294  16.698  39.994   7.353
 9484POPC   C1B57295  16.996  39.943   6.453
 9484POPC   C2B57296  16.935  39.957   6.753
 9484POPC   C3B57297  16.944  39.937   7.053
 9484POPC   C4B57298  16.937  39.982   7.353
 9485POPC   NC357299   6.616  21.427   5.553
 9485POPC   PO457300   6.616  21.378   5.853
 9485POPC   GL157301   6.616  21.364   6.153
 9485POPC   GL257302   6.519  21.434   6.153
 9485POPC   C1A57303   6.649  21.404   6.453
 9485POPC   D2A57304   6.603  21.429   6.753
 9485POPC   C3A57305   6.661  21.369   7.053
 9485POPC   C4A57306   6.623  21.357   7.353
 9485POPC   C1B57307   6.389  21.487   6.453
 9485POPC   C2B57308   6.430  21.411   6.753
 9485POPC   C3B57309   6.403  21.412   7.053
 9485POPC   C4B57310   6.380  21.462   7.353
 9486POPC   NC357311  28.319   0.475   5.553
 9486POPC   PO457312  28.418   0.486   5.853
 9486POPC   GL157313  28.411   0.449   6.153
 9486POPC   GL257314  28.457   0.533   6.153
 9486POPC   C1A57315  28.384   0.432   6.453
 9486POPC   D2A57316  28.414   0.436   6.753
 9486POPC   C3A57317  28.329   0.479   7.053
 9486POPC   C4A57318  28.414   0.450   7.353
 9486POPC   C1B57319  28.453   0.685   6.453
 9486POPC   C2B57320  28.485   0.621   6.753
 9486POPC   C3B57321  28.509   0.612   7.053
 9486POPC   C4B57322  28.441   0.623   7.353
 9487POPC   NC357323  21.419  27.546   5.553
 9487POPC   PO457324  21.354  27.602   5.853
 9487POPC   GL157325  21.343  27.622   6.153
 9487POPC   GL257326  21.372  27.483   6.153
 9487POPC   C1A57327  21.376  27.633   6.453
 9487POPC   D2A57328  21.358  27.620   6.753
 9487POPC   C3A57329  21.368  27.551   7.053
 9487POPC   C4A57330  21.361  27.595   7.353
 9487POPC   C1B57331  21.300  27.325   6.453
 9487POPC   C2B57332  21.283  27.381   6.753
 9487POPC   C3B57333  21.317  27.403   7.053
 9487POPC   C4B57334  21.275  27.420   7.353
 9488POPC   NC357335  29.141  27.588   5.553
 9488POPC   PO457336  29.104  27.569   5.853
 9488POPC   GL157337  29.194  27.583   6.153
 9488POPC   GL257338  29.102  27.713   6.153
 9488POPC   C1A57339  29.112  27.583   6.453
 9488POPC   D2A57340  29.148  27.608   6.753
 9488POPC   C3A57341  29.115  27.599   7.053
 9488POPC   C4A57342  29.189  27.599   7.353
 9488POPC   C1B57343  28.995  27.741   6.453
 9488POPC   C2B57344  28.974  27.765   6.753
 9488POPC   C3B57345  28.997  27.756   7.053
 9488POPC   C4B57346  28.963  27.755   7.353
 9489POPC   NC357347  29.879   3.505   5.553
 9489POPC   PO457348  29.955   3.559   5.853
 9489POPC   GL157349  29.957   3.586   6.153
 9489POPC   GL257350  29.889   3.414   6.153
 9489POPC   C1A57351  29.892   3.525   6.453
 9489POPC   D2A57352  29.905   3.497   6.753
 9489POPC   C3A57353  29.920   3.497   7.053
 9489POPC   C4A57354  29.967   3.561   7.353
 9489POPC   C1B57355  29.854   3.265   6.453
 9489POPC   C2B57356  29.846   3.305   6.753
 9489POPC   C3B57357  29.859   3.261   7.053
 9489POPC   C4B57358  29.832   3.312   7.353
 9490POPC   NC357359   1.967  17.539   5.553
 9490POPC   PO457360   1.983  17.541   5.853
 9490POPC   GL157361   1.967  17.544   6.153
 9490POPC   GL257362   1.905  17.402   6.153
 9490POPC   C1A57363   2.014  17.552   6.453
 9490POPC   D2A57364   1.988  17.488   6.753
 9490POPC   C3A57365   1.953  17.551   7.053
 9490POPC   C4A57366   1.953  17.556   7.353
 9490POPC   C1B57367   1.924  17.319   6.453
 9490POPC   C2B57368   1.933  17.261   6.753
 9490POPC   C3B57369   1.875  17.267   7.053
 9490POPC   C4B57370   1.872  17.271   7.353
 9491POPC   NC357371   0.434  41.511   5.553
 9491POPC   PO457372   0.415  41.603   5.853
 9491POPC   GL157373   0.486  41.516   6.153
 9491POPC   GL257374   0.280  41.492   6.153
 9491POPC   C1A57375   0.488  41.603   6.453
 9491POPC   D2A57376   0.475  41.573   6.753
 9491POPC   C3A57377   0.411  41.585   7.053
 9491POPC   C4A57378   0.476  41.511   7.353
 9491POPC   C1B57379   0.195  41.480   6.453
 9491POPC   C2B57380   0.194  41.460   6.753
 9491POPC   C3B57381   0.206  41.441   7.053
 9491POPC   C4B57382   0.160  41.427   7.353
 9492POPC   NC357383  29.941  17.477   5.553
 9492POPC   PO457384  29.905  17.498   5.853
 9492POPC   GL157385  29.914  17.523   6.153
 9492POPC   GL257386  29.833  17.390   6.153
 9492POPC   C1A57387  29.960  17.496   6.453
 9492POPC   D2A57388  29.878  17.459   6.753
 9492POPC   C3A57389  29.904  17.502   7.053
 9492POPC   C4A57390  29.913  17.529   7.353
 9492POPC   C1B57391  29.764  17.344   6.453
 9492POPC   C2B57392  29.774  17.321   6.753
 9492POPC   C3B57393  29.776  17.275   7.053
 9492POPC   C4B57394  29.785  17.253   7.353
 9493POPC   NC357395   4.338   3.581   5.553
 9493POPC   PO457396   4.299   3.582   5.853
 9493POPC   GL157397   4.275   3.516   6.153
 9493POPC   GL257398   4.310   3.660   6.153
 9493POPC   C1A57399   4.339   3.575   6.453
 9493POPC   D2A57400   4.357   3.561   6.753
 9493POPC   C3A57401   4.275   3.522   7.053
 9493POPC   C4A57402   4.298   3.519   7.353
 9493POPC   C1B57403   4.376   3.805   6.453
 9493POPC   C2B57404   4.367   3.800   6.753
 9493POPC   C3B57405   4.408   3.739   7.053
 9493POPC   C4B57406   4.354   3.806   7.353
 9494POPC   NC357407  36.909  40.754   5.553
 9494POPC   PO457408  36.944  40.774   5.853
 9494POPC   GL157409  36.919  40.808   6.153
 9494POPC   GL257410  36.810  40.778   6.153
 9494POPC   C1A57411  36.873  40.742   6.453
 9494POPC   D2A57412  36.907  40.829   6.753
 9494POPC   C3A57413  36.894  40.771   7.053
 9494POPC   C4A57414  36.926  40.783   7.353
 9494POPC   C1B57415  36.714  40.816   6.453
 9494POPC   C2B57416  36.691  40.823   6.753
 9494POPC   C3B57417  36.682  40.851   7.053
 9494POPC   C4B57418  36.676  40.876   7.353
 9495POPC   NC357419  40.791  43.130   5.553
 9495POPC   PO457420  40.740  43.120   5.853
 9495POPC   GL157421  40.753  43.155   6.153
 9495POPC   GL257422  40.688  43.099   6.153
 9495POPC   C1A57423  40.754  43.108   6.453
 9495POPC   D2A57424  40.833  43.120   6.753
 9495POPC   C3A57425  40.828  43.113   7.053
 9495POPC   C4A57426  40.752  43.086   7.353
 9495POPC   C1B57427  40.495  43.112   6.453
 9495POPC   C2B57428  40.566  43.191   6.753
 9495POPC   C3B57429  40.496  43.147   7.053
 9495POPC   C4B57430  40.493  43.195   7.353
 9496POPC   NC357431  16.757  15.948   5.553
 9496POPC   PO457432  16.735  15.964   5.853
 9496POPC   GL157433  16.744  15.949   6.153
 9496POPC   GL257434  16.647  16.020   6.153
 9496POPC   C1A57435  16.767  15.940   6.453
 9496POPC   D2A57436  16.691  15.951   6.753
 9496POPC   C3A57437  16.762  15.936   7.053
 9496POPC   C4A57438  16.768  15.968   7.353
 9496POPC   C1B57439  16.547  16.118   6.453
 9496POPC   C2B57440  16.518  16.169   6.753
 9496POPC   C3B57441  16.552  16.099   7.053
 9496POPC   C4B57442  16.561  16.110   7.353
 9497POPC   NC357443  43.930  25.217   5.553
 9497POPC   PO457444  43.895  25.265   5.853
 9497POPC   GL157445  43.843  25.300   6.153
 9497POPC   GL257446  44.006  25.334   6.153
 9497POPC   C1A57447  43.912  25.226   6.453
 9497POPC   D2A57448  43.914  25.261   6.753
 9497POPC   C3A57449  43.889  25.223   7.053
 9497POPC   C4A57450  43.914  25.278   7.353
 9497POPC   C1B57451  44.104  25.304   6.453
 9497POPC   C2B57452  44.077  25.371   6.753
 9497POPC   C3B57453  44.135  25.310   7.053
 9497POPC   C4B57454  44.174  25.343   7.353
 9498POPC   NC357455  29.134  28.379   5.553
 9498POPC   PO457456  29.144  28.364   5.853
 9498POPC   GL157457  29.157  28.356   6.153
 9498POPC   GL257458  29.287  28.403   6.153
 9498POPC   C1A57459  29.186  28.386   6.453
 9498POPC   D2A57460  29.115  28.407   6.753
 9498POPC   C3A57461  29.159  28.345   7.053
 9498POPC   C4A57462  29.193  28.321   7.353
 9498POPC   C1B57463  29.366  28.430   6.453
 9498POPC   C2B57464  29.356  28.477   6.753
 9498POPC   C3B57465  29.370  28.484   7.053
 9498POPC   C4B57466  29.337  28.411   7.353
 9499POPC   NC357467  28.393  40.805   5.553
 9499POPC   PO457468  28.367  40.782   5.853
 9499POPC   GL157469  28.364  40.798   6.153
 9499POPC   GL257470  28.218  40.719   6.153
 9499POPC   C1A57471  28.324  40.733   6.453
 9499POPC   D2A57472  28.343  40.760   6.753
 9499POPC   C3A57473  28.344  40.777   7.053
 9499POPC   C4A57474  28.341  40.788   7.353
 9499POPC   C1B57475  28.168  40.703   6.453
 9499POPC   C2B57476  28.144  40.642   6.753
 9499POPC   C3B57477  28.095  40.678   7.053
 9499POPC   C4B57478  28.117  40.645   7.353
 9500POPC   NC357479  21.397  43.913   5.553
 9500POPC   PO457480  21.398  43.885   5.853
 9500POPC   GL157481  21.395  43.880   6.153
 9500POPC   GL257482  21.346  43.778   6.153
 9500POPC   C1A57483  21.409  43.885   6.453
 9500POPC   D2A57484  21.352  43.847   6.753
 9500POPC   C3A57485  21.411  43.897   7.053
 9500POPC   C4A57486  21.344  43.888   7.353
 9500POPC   C1B57487  21.319  43.637   6.453
 9500POPC   C2B57488  21.291  43.688   6.753
 9500POPC   C3B57489  21.330  43.608   7.053
 9500POPC   C4B57490  21.322  43.630   7.353
 9501POPC   NC357491  18.240  15.911   5.553
 9501POPC   PO457492  18.310  15.948   5.853
 9501POPC   GL157493  18.309  15.960   6.153
 9501POPC   GL257494  18.117  15.986   6.153
 9501POPC   C1A57495  18.295  15.957   6.453
 9501POPC   D2A57496  18.234  15.927   6.753
 9501POPC   C3A57497  18.327  16.003   7.053
 9501POPC   C4A57498  18.272  15.935   7.353
 9501POPC   C1B57499  18.064  15.995   6.453
 9501POPC   C2B57500  18.042  15.983   6.753
 9501POPC   C3B57501  18.072  15.987   7.053
 9501POPC   C4B57502  18.049  15.991   7.353
 9502POPC   NC357503  43.932  38.487   5.553
 9502POPC   PO457504  43.920  38.446   5.853
 9502POPC   GL157505  43.854  38.412   6.153
 9502POPC   GL257506  43.994  38.374   6.153
 9502POPC   C1A57507  43.838  38.457   6.453
 9502POPC   D2A57508  43.898  38.453   6.753
 9502POPC   C3A57509  43.859  38.422   7.053
 9502POPC   C4A57510  43.924  38.477   7.353
 9502POPC   C1B57511  44.078  38.273   6.453
 9502POPC   C2B57512  44.042  38.252   6.753
 9502POPC   C3B57513  44.073  38.273   7.053
 9502POPC   C4B57514  44.045  38.243   7.353
 9503POPC   NC357515  22.127   5.053   5.553
 9503POPC   PO457516  22.210   5.140   5.853
 9503POPC   GL157517  22.162   5.119   6.153
 9503POPC   GL257518  22.017   5.110   6.153
 9503POPC   C1A57519  22.134   5.088   6.453
 9503POPC   D2A57520  22.192   5.079   6.753
 9503POPC   C3A57521  22.196   5.142   7.053
 9503POPC   C4A57522  22.193   5.049   7.353
 9503POPC   C1B57523  21.871   5.059   6.453
 9503POPC   C2B57524  21.915   5.014   6.753
 9503POPC   C3B57525  21.885   5.088   7.053
 9503POPC   C4B57526  21.880   5.093   7.353
 9504POPC   NC357527  15.181  10.512   5.553
 9504POPC   PO457528  15.211  10.547   5.853
 9504POPC   GL157529  15.188  10.514   6.153
 9504POPC   GL257530  15.068  10.634   6.153
 9504POPC   C1A57531  15.173  10.492   6.453
 9504POPC   D2A57532  15.228  10.569   6.753
 9504POPC   C3A57533  15.193  10.549   7.053
 9504POPC   C4A57534  15.202  10.493   7.353
 9504POPC   C1B57535  15.004  10.711   6.453
 9504POPC   C2B57536  15.001  10.662   6.753
 9504POPC   C3B57537  14.956  10.728   7.053
 9504POPC   C4B57538  14.964  10.652   7.353
 9505POPC   NC357539  18.249   2.007   5.553
 9505POPC   PO457540  18.307   2.007   5.853
 9505POPC   GL157541  18.235   2.024   6.153
 9505POPC   GL257542  18.335   1.873   6.153
 9505POPC   C1A57543  18.328   2.002   6.453
 9505POPC   D2A57544  18.303   2.020   6.753
 9505POPC   C3A57545  18.262   2.022   7.053
 9505POPC   C4A57546  18.280   1.976   7.353
 9505POPC   C1B57547  18.359   1.733   6.453
 9505POPC   C2B57548  18.399   1.791   6.753
 9505POPC   C3B57549  18.377   1.715   7.053
 9505POPC   C4B57550  18.367   1.784   7.353
 9506POPC   NC357551  28.330  22.145   5.553
 9506POPC   PO457552  28.358  22.131   5.853
 9506POPC   GL157553  28.381  22.199   6.153
 9506POPC   GL257554  28.360  22.299   6.153
 9506POPC   C1A57555  28.362  22.196   6.453
 9506POPC   D2A57556  28.413  22.125   6.753
 9506POPC   C3A57557  28.394  22.199   7.053
 9506POPC   C4A57558  28.408  22.125   7.353
 9506POPC   C1B57559  28.258  22.368   6.453
 9506POPC   C2B57560  28.262  22.438   6.753
 9506POPC   C3B57561  28.276  22.400   7.053
 9506POPC   C4B57562  28.299  22.357   7.353
 9507POPC   NC357563  27.604  38.464   5.553
 9507POPC   PO457564  27.565  38.481   5.853
 9507POPC   GL157565  27.628  38.443   6.153
 9507POPC   GL257566  27.498  38.389   6.153
 9507POPC   C1A57567  27.596  38.504   6.453
 9507POPC   D2A57568  27.570  38.465   6.753
 9507POPC   C3A57569  27.602  38.473   7.053
 9507POPC   C4A57570  27.557  38.478   7.353
 9507POPC   C1B57571  27.348  38.416   6.453
 9507POPC   C2B57572  27.355  38.397   6.753
 9507POPC   C3B57573  27.386  38.402   7.053
 9507POPC   C4B57574  27.339  38.346   7.353
 9508POPC   NC357575   2.796  39.972   5.553
 9508POPC   PO457576   2.801  40.034   5.853
 9508POPC   GL157577   2.805  40.051   6.153
 9508POPC   GL257578   2.872  40.029   6.153
 9508POPC   C1A57579   2.767  40.041   6.453
 9508POPC   D2A57580   2.737  40.022   6.753
 9508POPC   C3A57581   2.800  40.037   7.053
 9508POPC   C4A57582   2.810  39.961   7.353
 9508POPC   C1B57583   3.010  40.125   6.453
 9508POPC   C2B57584   2.952  40.130   6.753
 9508POPC   C3B57585   3.013  40.142   7.053
 9508POPC   C4B57586   2.980  40.107   7.353
 9509POPC   NC357587  37.672  32.240   5.553
 9509POPC   PO457588  37.670  32.246   5.853
 9509POPC   GL157589  37.675  32.234   6.153
 9509POPC   GL257590  37.812  32.324   6.153
 9509POPC   C1A57591  37.673  32.254   6.453
 9509POPC   D2A57592  37.678  32.260   6.753
 9509POPC   C3A57593  37.648  32.237   7.053
 9509POPC   C4A57594  37.631  32.283   7.353
 9509POPC   C1B57595  37.914  32.316   6.453
 9509POPC   C2B57596  37.949  32.360   6.753
 9509POPC   C3B57597  37.931  32.348   7.053
 9509POPC   C4B57598  37.966  32.318   7.353
 9510POPC   NC357599  10.500  33.768   5.553
 9510POPC   PO457600  10.554  33.811   5.853
 9510POPC   GL157601  10.563  33.817   6.153
 9510POPC   GL257602  10.471  33.677   6.153
 9510POPC   C1A57603  10.487  33.828   6.453
 9510POPC   D2A57604  10.554  33.810   6.753
 9510POPC   C3A57605  10.514  33.805   7.053
 9510POPC   C4A57606  10.522  33.823   7.353
 9510POPC   C1B57607  10.421  33.577   6.453
 9510POPC   C2B57608  10.369  33.613   6.753
 9510POPC   C3B57609  10.420  33.616   7.053
 9510POPC   C4B57610  10.344  33.596   7.353
 9511POPC   NC357611   6.652  30.654   5.553
 9511POPC   PO457612   6.618  30.723   5.853
 9511POPC   GL157613   6.680  30.661   6.153
 9511POPC   GL257614   6.759  30.638   6.153
 9511POPC   C1A57615   6.679  30.651   6.453
 9511POPC   D2A57616   6.674  30.688   6.753
 9511POPC   C3A57617   6.641  30.736   7.053
 9511POPC   C4A57618   6.610  30.706   7.353
 9511POPC   C1B57619   6.865  30.580   6.453
 9511POPC   C2B57620   6.859  30.562   6.753
 9511POPC   C3B57621   6.811  30.569   7.053
 9511POPC   C4B57622   6.891  30.516   7.353
 9512POPC   NC357623  19.883  16.001   5.553
 9512POPC   PO457624  19.806  15.926   5.853
 9512POPC   GL157625  19.861  15.965   6.153
 9512POPC   GL257626  19.923  15.899   6.153
 9512POPC   C1A57627  19.790  15.959   6.453
 9512POPC   D2A57628  19.876  15.975   6.753
 9512POPC   C3A57629  19.858  15.971   7.053
 9512POPC   C4A57630  19.876  15.959   7.353
 9512POPC   C1B57631  20.052  15.759   6.453
 9512POPC   C2B57632  20.013  15.789   6.753
 9512POPC   C3B57633  20.057  15.791   7.053
 9512POPC   C4B57634  20.059  15.768   7.353
 9513POPC   NC357635  12.046  11.313   5.553
 9513POPC   PO457636  12.068  11.274   5.853
 9513POPC   GL157637  12.044  11.278   6.153
 9513POPC   GL257638  12.203  11.428   6.153
 9513POPC   C1A57639  12.081  11.340   6.453
 9513POPC   D2A57640  12.115  11.313   6.753
 9513POPC   C3A57641  12.032  11.290   7.053
 9513POPC   C4A57642  12.067  11.264   7.353
 9513POPC   C1B57643  12.279  11.448   6.453
 9513POPC   C2B57644  12.247  11.464   6.753
 9513POPC   C3B57645  12.191  11.536   7.053
 9513POPC   C4B57646  12.206  11.506   7.353
 9514POPC   NC357647  40.820  29.188   5.553
 9514POPC   PO457648  40.815  29.140   5.853
 9514POPC   GL157649  40.791  29.130   6.153
 9514POPC   GL257650  40.872  29.243   6.153
 9514POPC   C1A57651  40.817  29.096   6.453
 9514POPC   D2A57652  40.810  29.177   6.753
 9514POPC   C3A57653  40.799  29.156   7.053
 9514POPC   C4A57654  40.816  29.126   7.353
 9514POPC   C1B57655  40.893  29.381   6.453
 9514POPC   C2B57656  40.951  29.339   6.753
 9514POPC   C3B57657  40.909  29.378   7.053
 9514POPC   C4B57658  40.939  29.326   7.353
 9515POPC   NC357659   5.058  40.747   5.553
 9515POPC   PO457660   5.074  40.798   5.853
 9515POPC   GL157661   5.118  40.762   6.153
 9515POPC   GL257662   4.945  40.774   6.153
 9515POPC   C1A57663   5.139  40.773   6.453
 9515POPC   D2A57664   5.134  40.752   6.753
 9515POPC   C3A57665   5.066  40.793   7.053
 9515POPC   C4A57666   5.139  40.783   7.353
 9515POPC   C1B57667   4.850  40.759   6.453
 9515POPC   C2B57668   4.806  40.713   6.753
 9515POPC   C3B57669   4.801  40.779   7.053
 9515POPC   C4B57670   4.822  40.735   7.353
 9516POPC   NC357671  15.162   9.007   5.553
 9516POPC   PO457672  15.219   9.022   5.853
 9516POPC   GL157673  15.172   8.970   6.153
 9516POPC   GL257674  15.099   8.890   6.153
 9516POPC   C1A57675  15.201   8.955   6.453
 9516POPC   D2A57676  15.196   8.974   6.753
 9516POPC   C3A57677  15.211   9.012   7.053
 9516POPC   C4A57678  15.195   9.004   7.353
 9516POPC   C1B57679  15.041   8.716   6.453
 9516POPC   C2B57680  15.029   8.780   6.753
 9516POPC   C3B57681  15.076   8.784   7.053
 9516POPC   C4B57682  15.091   8.742   7.353
 9517POPC   NC357683  15.989   5.827   5.553
 9517POPC   PO457684  15.931   5.840   5.853
 9517POPC   GL157685  15.997   5.906   6.153
 9517POPC   GL257686  15.879   5.809   6.153
 9517POPC   C1A57687  15.915   5.853   6.453
 9517POPC   D2A57688  15.948   5.845   6.753
 9517POPC   C3A57689  15.950   5.918   7.053
 9517POPC   C4A57690  15.956   5.887   7.353
 9517POPC   C1B57691  15.742   5.724   6.453
 9517POPC   C2B57692  15.707   5.763   6.753
 9517POPC   C3B57693  15.699   5.732   7.053
 9517POPC   C4B57694  15.777   5.697   7.353
 9518POPC   NC357695  14.383  21.390   5.553
 9518POPC   PO457696  14.367  21.395   5.853
 9518POPC   GL157697  14.374  21.411   6.153
 9518POPC   GL257698  14.496  21.338   6.153
 9518POPC   C1A57699  14.419  21.367   6.453
 9518POPC   D2A57700  14.366  21.355   6.753
 9518POPC   C3A57701  14.420  21.357   7.053
 9518POPC   C4A57702  14.359  21.425   7.353
 9518POPC   C1B57703  14.615  21.335   6.453
 9518POPC   C2B57704  14.642  21.298   6.753
 9518POPC   C3B57705  14.622  21.349   7.053
 9518POPC   C4B57706  14.647  21.291   7.353
 9519POPC   NC357707  13.618  37.713   5.553
 9519POPC   PO457708  13.587  37.662   5.853
 9519POPC   GL157709  13.584  37.668   6.153
 9519POPC   GL257710  13.516  37.814   6.153
 9519POPC   C1A57711  13.598  37.675   6.453
 9519POPC   D2A57712  13.654  37.723   6.753
 9519POPC   C3A57713  13.610  37.658   7.053
 9519POPC   C4A57714  13.585  37.706   7.353
 9519POPC   C1B57715  13.534  37.846   6.453
 9519POPC   C2B57716  13.470  37.909   6.753
 9519POPC   C3B57717  13.467  37.890   7.053
 9519POPC   C4B57718  13.500  37.886   7.353
 9520POPC   NC357719  13.650  18.245   5.553
 9520POPC   PO457720  13.632  18.247   5.853
 9520POPC   GL157721  13.652  18.299   6.153
 9520POPC   GL257722  13.739  18.290   6.153
 9520POPC   C1A57723  13.676  18.236   6.453
 9520POPC   D2A57724  13.664  18.240   6.753
 9520POPC   C3A57725  13.636  18.268   7.053
 9520POPC   C4A57726  13.649  18.325   7.353
 9520POPC   C1B57727  13.878  18.333   6.453
 9520POPC   C2B57728  13.908  18.381   6.753
 9520POPC   C3B57729  13.860  18.343   7.053
 9520POPC   C4B57730  13.861  18.362   7.353
 9521POPC   NC357731  28.405  29.906   5.553
 9521POPC   PO457732  28.321  29.928   5.853
 9521POPC   GL157733  28.339  29.952   6.153
 9521POPC   GL257734  28.524  29.912   6.153
 9521POPC   C1A57735  28.372  29.914   6.453
 9521POPC   D2A57736  28.321  29.913   6.753
 9521POPC   C3A57737  28.372  29.890   7.053
 9521POPC   C4A57738  28.364  29.903   7.353
 9521POPC   C1B57739  28.615  29.820   6.453
 9521POPC   C2B57740  28.575  29.850   6.753
 9521POPC   C3B57741  28.565  29.812   7.053
 9521POPC   C4B57742  28.651  29.831   7.353
 9522POPC   NC357743  36.128   5.070   5.553
 9522POPC   PO457744  36.114   5.142   5.853
 9522POPC   GL157745  36.173   5.129   6.153
 9522POPC   GL257746  36.156   4.935   6.153
 9522POPC   C1A57747  36.163   5.071   6.453
 9522POPC   D2A57748  36.116   5.126   6.753
 9522POPC   C3A57749  36.172   5.130   7.053
 9522POPC   C4A57750  36.138   5.051   7.353
 9522POPC   C1B57751  36.184   4.808   6.453
 9522POPC   C2B57752  36.165   4.893   6.753
 9522POPC   C3B57753  36.168   4.800   7.053
 9522POPC   C4B57754  36.125   4.826   7.353
 9523POPC   NC357755   1.219  39.228   5.553
 9523POPC   PO457756   1.253  39.226   5.853
 9523POPC   GL157757   1.183  39.264   6.153
 9523POPC   GL257758   1.274  39.152   6.153
 9523POPC   C1A57759   1.210  39.230   6.453
 9523POPC   D2A57760   1.192  39.227   6.753
 9523POPC   C3A57761   1.198  39.218   7.053
 9523POPC   C4A57762   1.241  39.253   7.353
 9523POPC   C1B57763   1.223  38.997   6.453
 9523POPC   C2B57764   1.281  38.970   6.753
 9523POPC   C3B57765   1.208  38.971   7.053
 9523POPC   C4B57766   1.206  39.014   7.353
 9524POPC   NC357767  24.508   8.163   5.553
 9524POPC   PO457768  24.523   8.155   5.853
 9524POPC   GL157769  24.464   8.211   6.153
 9524POPC   GL257770  24.575   8.206   6.153
 9524POPC   C1A57771  24.509   8.217   6.453
 9524POPC   D2A57772  24.449   8.169   6.753
 9524POPC   C3A57773  24.540   8.185   7.053
 9524POPC   C4A57774  24.472   8.157   7.353
 9524POPC   C1B57775  24.703   8.281   6.453
 9524POPC   C2B57776  24.664   8.307   6.753
 9524POPC   C3B57777  24.677   8.318   7.053
 9524POPC   C4B57778  24.669   8.344   7.353
 9525POPC   NC357779  24.460  11.321   5.553
 9525POPC   PO457780  24.521  11.335   5.853
 9525POPC   GL157781  24.454  11.262   6.153
 9525POPC   GL257782  24.602  11.355   6.153
 9525POPC   C1A57783  24.448  11.311   6.453
 9525POPC   D2A57784  24.475  11.313   6.753
 9525POPC   C3A57785  24.443  11.304   7.053
 9525POPC   C4A57786  24.460  11.298   7.353
 9525POPC   C1B57787  24.691  11.455   6.453
 9525POPC   C2B57788  24.640  11.455   6.753
 9525POPC   C3B57789  24.622  11.470   7.053
 9525POPC   C4B57790  24.655  11.479   7.353
 9526POPC   NC357791  28.418  27.555   5.553
 9526POPC   PO457792  28.411  27.606   5.853
 9526POPC   GL157793  28.403  27.581   6.153
 9526POPC   GL257794  28.428  27.755   6.153
 9526POPC   C1A57795  28.350  27.580   6.453
 9526POPC   D2A57796  28.365  27.626   6.753
 9526POPC   C3A57797  28.398  27.600   7.053
 9526POPC   C4A57798  28.378  27.564   7.353
 9526POPC   C1B57799  28.450  27.838   6.453
 9526POPC   C2B57800  28.418  27.864   6.753
 9526POPC   C3B57801  28.464  27.829   7.053
 9526POPC   C4B57802  28.452  27.828   7.353
 9527POPC   NC357803  22.127   0.405   5.553
 9527POPC   PO457804  22.170   0.430   5.853
 9527POPC   GL157805  22.129   0.450   6.153
 9527POPC   GL257806  22.271   0.391   6.153
 9527POPC   C1A57807  22.118   0.391   6.453
 9527POPC   D2A57808  22.171   0.437   6.753
 9527POPC   C3A57809  22.170   0.459   7.053
 9527POPC   C4A57810  22.199   0.470   7.353
 9527POPC   C1B57811  22.446   0.426   6.453
 9527POPC   C2B57812  22.412   0.473   6.753
 9527POPC   C3B57813  22.439   0.478   7.053
 9527POPC   C4B57814  22.444   0.468   7.353
 9528POPC   NC357815  43.113   1.238   5.553
 9528POPC   PO457816  43.113   1.206   5.853
 9528POPC   GL157817  43.114   1.179   6.153
 9528POPC   GL257818  43.037   1.278   6.153
 9528POPC   C1A57819  43.148   1.184   6.453
 9528POPC   D2A57820  43.157   1.235   6.753
 9528POPC   C3A57821  43.081   1.257   7.053
 9528POPC   C4A57822  43.104   1.204   7.353
 9528POPC   C1B57823  42.943   1.361   6.453
 9528POPC   C2B57824  42.924   1.387   6.753
 9528POPC   C3B57825  42.896   1.348   7.053
 9528POPC   C4B57826  42.968   1.424   7.353
 9529POPC   NC357827  43.915   8.228   5.553
 9529POPC   PO457828  43.887   8.212   5.853
 9529POPC   GL157829  43.931   8.168   6.153
 9529POPC   GL257830  43.988   8.198   6.153
 9529POPC   C1A57831  43.873   8.152   6.453
 9529POPC   D2A57832  43.845   8.159   6.753
 9529POPC   C3A57833  43.912   8.158   7.053
 9529POPC   C4A57834  43.918   8.241   7.353
 9529POPC   C1B57835  44.093   8.105   6.453
 9529POPC   C2B57836  44.181   8.112   6.753
 9529POPC   C3B57837  44.106   8.170   7.053
 9529POPC   C4B57838  44.107   8.165   7.353
 9530POPC   NC357839  34.542  27.567   5.553
 9530POPC   PO457840  34.574  27.610   5.853
 9530POPC   GL157841  34.529  27.609   6.153
 9530POPC   GL257842  34.455  27.622   6.153
 9530POPC   C1A57843  34.614  27.630   6.453
 9530POPC   D2A57844  34.579  27.636   6.753
 9530POPC   C3A57845  34.552  27.579   7.053
 9530POPC   C4A57846  34.529  27.577   7.353
 9530POPC   C1B57847  34.326  27.706   6.453
 9530POPC   C2B57848  34.376  27.714   6.753
 9530POPC   C3B57849  34.353  27.693   7.053
 9530POPC   C4B57850  34.368  27.669   7.353
 9531POPC   NC357851  22.972   0.456   5.553
 9531POPC   PO457852  22.954   0.473   5.853
 9531POPC   GL157853  22.937   0.478   6.153
 9531POPC   GL257854  22.833   0.454   6.153
 9531POPC   C1A57855  22.968   0.443   6.453
 9531POPC   D2A57856  22.923   0.436   6.753
 9531POPC   C3A57857  22.940   0.417   7.053
 9531POPC   C4A57858  22.973   0.432   7.353
 9531POPC   C1B57859  22.727   0.368   6.453
 9531POPC   C2B57860  22.699   0.369   6.753
 9531POPC   C3B57861  22.713   0.427   7.053
 9531POPC   C4B57862  22.715   0.420   7.353
 9532POPC   NC357863  37.698  19.063   5.553
 9532POPC   PO457864  37.727  19.081   5.853
 9532POPC   GL157865  37.657  19.023   6.153
 9532POPC   GL257866  37.719  18.988   6.153
 9532POPC   C1A57867  37.660  19.090   6.453
 9532POPC   D2A57868  37.655  19.102   6.753
 9532POPC   C3A57869  37.721  19.079   7.053
 9532POPC   C4A57870  37.702  19.040   7.353
 9532POPC   C1B57871  37.824  18.869   6.453
 9532POPC   C2B57872  37.869  18.917   6.753
 9532POPC   C3B57873  37.857  18.826   7.053
 9532POPC   C4B57874  37.831  18.882   7.353
 9533POPC   NC357875  40.742   0.402   5.553
 9533POPC   PO457876  40.788   0.457   5.853
 9533POPC   GL157877  40.830   0.431   6.153
 9533POPC   GL257878  40.809   0.509   6.153
 9533POPC   C1A57879  40.825   0.457   6.453
 9533POPC   D2A57880  40.776   0.479   6.753
 9533POPC   C3A57881  40.733   0.414   7.053
 9533POPC   C4A57882  40.737   0.456   7.353
 9533POPC   C1B57883  40.822   0.672   6.453
 9533POPC   C2B57884  40.834   0.719   6.753
 9533POPC   C3B57885  40.908   0.715   7.053
 9533POPC   C4B57886  40.895   0.632   7.353
 9534POPC   NC357887  19.840  16.701   5.553
 9534POPC   PO457888  19.839  16.708   5.853
 9534POPC   GL157889  19.797  16.744   6.153
 9534POPC   GL257890  19.826  16.834   6.153
 9534POPC   C1A57891  19.827  16.776   6.453
 9534POPC   D2A57892  19.806  16.747   6.753
 9534POPC   C3A57893  19.799  16.749   7.053
 9534POPC   C4A57894  19.844  16.716   7.353
 9534POPC   C1B57895  19.784  16.946   6.453
 9534POPC   C2B57896  19.771  16.988   6.753
 9534POPC   C3B57897  19.817  16.973   7.053
 9534POPC   C4B57898  19.835  16.993   7.353
 9535POPC   NC357899  11.275   5.080   5.553
 9535POPC   PO457900  11.322   5.138   5.853
 9535POPC   GL157901  11.293   5.116   6.153
 9535POPC   GL257902  11.247   4.979   6.153
 9535POPC   C1A57903  11.308   5.087   6.453
 9535POPC   D2A57904  11.314   5.111   6.753
 9535POPC   C3A57905  11.290   5.140   7.053
 9535POPC   C4A57906  11.282   5.111   7.353
 9535POPC   C1B57907  11.131   4.918   6.453
 9535POPC   C2B57908  11.134   4.916   6.753
 9535POPC   C3B57909  11.173   4.902   7.053
 9535POPC   C4B57910  11.151   4.923   7.353
 9536POPC   NC357911  21.349   5.840   5.553
 9536POPC   PO457912  21.409   5.904   5.853
 9536POPC   GL157913  21.337   5.904   6.153
 9536POPC   GL257914  21.553   5.923   6.153
 9536POPC   C1A57915  21.376   5.904   6.453
 9536POPC   D2A57916  21.410   5.879   6.753
 9536POPC   C3A57917  21.372   5.836   7.053
 9536POPC   C4A57918  21.341   5.902   7.353
 9536POPC   C1B57919  21.671   5.866   6.453
 9536POPC   C2B57920  21.585   5.948   6.753
 9536POPC   C3B57921  21.624   5.906   7.053
 9536POPC   C4B57922  21.598   5.863   7.353
 9537POPC   NC357923  13.659  40.780   5.553
 9537POPC   PO457924  13.605  40.777   5.853
 9537POPC   GL157925  13.619  40.801   6.153
 9537POPC   GL257926  13.648  40.920   6.153
 9537POPC   C1A57927  13.591  40.832   6.453
 9537POPC   D2A57928  13.652  40.811   6.753
 9537POPC   C3A57929  13.597  40.824   7.053
 9537POPC   C4A57930  13.616  40.792   7.353
 9537POPC   C1B57931  13.684  41.028   6.453
 9537POPC   C2B57932  13.642  41.069   6.753
 9537POPC   C3B57933  13.684  41.005   7.053
 9537POPC   C4B57934  13.684  41.040   7.353
 9538POPC   NC357935  44.697   2.010   5.553
 9538POPC   PO457936  44.705   1.974   5.853
 9538POPC   GL157937  44.688   1.981   6.153
 9538POPC   GL257938  44.509   1.929   6.153
 9538POPC   C1A57939  44.676   1.992   6.453
 9538POPC   D2A57940  44.616   2.039   6.753
 9538POPC   C3A57941  44.705   2.004   7.053
 9538POPC   C4A57942  44.671   1.956   7.353
 9538POPC   C1B57943  44.481   1.867   6.453
 9538POPC   C2B57944  44.383   1.874   6.753
 9538POPC   C3B57945  44.396   1.915   7.053
 9538POPC   C4B57946  44.442   1.867   7.353
 9539POPC   NC357947   8.988  26.832   5.553
 9539POPC   PO457948   8.973  26.858   5.853
 9539POPC   GL157949   8.965  26.771   6.153
 9539POPC   GL257950   8.999  26.895   6.153
 9539POPC   C1A57951   8.977  26.819   6.453
 9539POPC   D2A57952   8.972  26.835   6.753
 9539POPC   C3A57953   8.971  26.795   7.053
 9539POPC   C4A57954   9.015  26.803   7.353
 9539POPC   C1B57955   8.954  27.058   6.453
 9539POPC   C2B57956   9.024  27.042   6.753
 9539POPC   C3B57957   8.971  27.107   7.053
 9539POPC   C4B57958   8.997  27.022   7.353
 9540POPC   NC357959  43.903   5.841   5.553
 9540POPC   PO457960  43.879   5.826   5.853
 9540POPC   GL157961  43.849   5.859   6.153
 9540POPC   GL257962  43.938   5.994   6.153
 9540POPC   C1A57963  43.929   5.900   6.453
 9540POPC   D2A57964  43.885   5.846   6.753
 9540POPC   C3A57965  43.866   5.823   7.053
 9540POPC   C4A57966  43.913   5.872   7.353
 9540POPC   C1B57967  44.014   6.099   6.453
 9540POPC   C2B57968  44.101   6.030   6.753
 9540POPC   C3B57969  44.036   6.084   7.053
 9540POPC   C4B57970  44.075   6.067   7.353
 9541POPC   NC357971  37.647  26.024   5.553
 9541POPC   PO457972  37.705  26.085   5.853
 9541POPC   GL157973  37.680  26.031   6.153
 9541POPC   GL257974  37.576  26.169   6.153
 9541POPC   C1A57975  37.722  26.082   6.453
 9541POPC   D2A57976  37.639  26.005   6.753
 9541POPC   C3A57977  37.649  26.029   7.053
 9541POPC   C4A57978  37.716  26.065   7.353
 9541POPC   C1B57979  37.490  26.222   6.453
 9541POPC   C2B57980  37.469  26.240   6.753
 9541POPC   C3B57981  37.477  26.203   7.053
 9541POPC   C4B57982  37.510  26.211   7.353
 9542POPC   NC357983  43.861  10.524   5.553
 9542POPC   PO457984  43.845  10.571   5.853
 9542POPC   GL157985  43.930  10.571   6.153
 9542POPC   GL257986  43.881  10.422   6.153
 9542POPC   C1A57987  43.866  10.505   6.453
 9542POPC   D2A57988  43.923  10.529   6.753
 9542POPC   C3A57989  43.911  10.489   7.053
 9542POPC   C4A57990  43.861  10.484   7.353
 9542POPC   C1B57991  43.830  10.233   6.453
 9542POPC   C2B57992  43.876  10.236   6.753
 9542POPC   C3B57993  43.804  10.267   7.053
 9542POPC   C4B57994  43.883  10.267   7.353
 9543POPC   NC357995  14.436  39.263   5.553
 9543POPC   PO457996  14.392  39.240   5.853
 9543POPC   GL157997  14.393  39.243   6.153
 9543POPC   GL257998  14.334  39.100   6.153
 9543POPC   C1A57999  14.379  39.278   6.453
 9543POPC   D2A58000  14.452  39.264   6.753
 9543POPC   C3A58001  14.420  39.230   7.053
 9543POPC   C4A58002  14.421  39.197   7.353
 9543POPC   C1B58003  14.226  39.027   6.453
 9543POPC   C2B58004  14.252  39.100   6.753
 9543POPC   C3B58005  14.189  39.005   7.053
 9543POPC   C4B58006  14.219  39.093   7.353
 9544POPC   NC358007   8.943   4.304   5.553
 9544POPC   PO458008   8.960   4.346   5.853
 9544POPC   GL158009   8.997   4.269   6.153
 9544POPC   GL258010   8.923   4.427   6.153
 9544POPC   C1A58011   8.956   4.307   6.453
 9544POPC   D2A58012   8.936   4.303   6.753
 9544POPC   C3A58013   8.945   4.277   7.053
 9544POPC   C4A58014   8.943   4.269   7.353
 9544POPC   C1B58015   8.879   4.607   6.453
 9544POPC   C2B58016   8.897   4.532   6.753
 9544POPC   C3B58017   8.948   4.568   7.053
 9544POPC   C4B58018   8.878   4.552   7.353
 9545POPC   NC358019  17.556   1.227   5.553
 9545POPC   PO458020  17.470   1.193   5.853
 9545POPC   GL158021  17.496   1.239   6.153
 9545POPC   GL258022  17.435   1.329   6.153
 9545POPC   C1A58023  17.518   1.211   6.453
 9545POPC   D2A58024  17.521   1.231   6.753
 9545POPC   C3A58025  17.474   1.229   7.053
 9545POPC   C4A58026  17.504   1.169   7.353
 9545POPC   C1B58027  17.467   1.423   6.453
 9545POPC   C2B58028  17.423   1.419   6.753
 9545POPC   C3B58029  17.455   1.429   7.053
 9545POPC   C4B58030  17.430   1.435   7.353
 9546POPC   NC358031   6.607   7.374   5.553
 9546POPC   PO458032   6.666   7.406   5.853
 9546POPC   GL158033   6.644   7.466   6.153
 9546POPC   GL258034   6.556   7.400   6.153
 9546POPC   C1A58035   6.634   7.400   6.453
 9546POPC   D2A58036   6.604   7.432   6.753
 9546POPC   C3A58037   6.682   7.416   7.053
 9546POPC   C4A58038   6.616   7.469   7.353
 9546POPC   C1B58039   6.439   7.398   6.453
 9546POPC   C2B58040   6.361   7.337   6.753
 9546POPC   C3B58041   6.421   7.397   7.053
 9546POPC   C4B58042   6.409   7.435   7.353
 9547POPC   NC358043  24.523  21.390   5.553
 9547POPC   PO458044  24.494  21.384   5.853
 9547POPC   GL158045  24.477  21.378   6.153
 9547POPC   GL258046  24.495  21.234   6.153
 9547POPC   C1A58047  24.528  21.434   6.453
 9547POPC   D2A58048  24.518  21.381   6.753
 9547POPC   C3A58049  24.460  21.368   7.053
 9547POPC   C4A58050  24.448  21.367   7.353
 9547POPC   C1B58051  24.572  21.119   6.453
 9547POPC   C2B58052  24.563  21.153   6.753
 9547POPC   C3B58053  24.535  21.154   7.053
 9547POPC   C4B58054  24.607  21.169   7.353
 9548POPC   NC358055  14.362   4.341   5.553
 9548POPC   PO458056  14.410   4.305   5.853
 9548POPC   GL158057  14.371   4.304   6.153
 9548POPC   GL258058  14.504   4.382   6.153
 9548POPC   C1A58059  14.404   4.363   6.453
 9548POPC   D2A58060  14.438   4.366   6.753
 9548POPC   C3A58061  14.359   4.328   7.053
 9548POPC   C4A58062  14.410   4.363   7.353
 9548POPC   C1B58063  14.574   4.487   6.453
 9548POPC   C2B58064  14.628   4.529   6.753
 9548POPC   C3B58065  14.550   4.453   7.053
 9548POPC   C4B58066  14.535   4.534   7.353
 9549POPC   NC358067   4.315  40.005   5.553
 9549POPC   PO458068   4.359  39.958   5.853
 9549POPC   GL158069   4.283  39.979   6.153
 9549POPC   GL258070   4.405  40.139   6.153
 9549POPC   C1A58071   4.299  40.056   6.453
 9549POPC   D2A58072   4.304  39.973   6.753
 9549POPC   C3A58073   4.356  40.017   7.053
 9549POPC   C4A58074   4.341  40.044   7.353
 9549POPC   C1B58075   4.546  40.201   6.453
 9549POPC   C2B58076   4.470  40.212   6.753
 9549POPC   C3B58077   4.534  40.146   7.053
 9549POPC   C4B58078   4.521  40.215   7.353
 9550POPC   NC358079  26.066   5.915   5.553
 9550POPC   PO458080  26.069   5.903   5.853
 9550POPC   GL158081  26.076   5.839   6.153
 9550POPC   GL258082  25.953   5.830   6.153
 9550POPC   C1A58083  26.061   5.844   6.453
 9550POPC   D2A58084  26.000   5.831   6.753
 9550POPC   C3A58085  26.055   5.839   7.053
 9550POPC   C4A58086  26.071   5.878   7.353
 9550POPC   C1B58087  25.800   5.753   6.453
 9550POPC   C2B58088  25.776   5.730   6.753
 9550POPC   C3B58089  25.795   5.729   7.053
 9550POPC   C4B58090  25.851   5.727   7.353
 9551POPC   NC358091  43.909  21.373   5.553
 9551POPC   PO458092  43.907  21.415   5.853
 9551POPC   GL158093  43.933  21.372   6.153
 9551POPC   GL258094  43.882  21.525   6.153
 9551POPC   C1A58095  43.920  21.360   6.453
 9551POPC   D2A58096  43.851  21.409   6.753
 9551POPC   C3A58097  43.919  21.394   7.053
 9551POPC   C4A58098  43.909  21.434   7.353
 9551POPC   C1B58099  43.892  21.606   6.453
 9551POPC   C2B58100  43.837  21.608   6.753
 9551POPC   C3B58101  43.901  21.650   7.053
 9551POPC   C4B58102  43.835  21.631   7.353
 9552POPC   NC358103   6.631  33.848   5.553
 9552POPC   PO458104   6.658  33.846   5.853
 9552POPC   GL158105   6.680  33.849   6.153
 9552POPC   GL258106   6.592  33.923   6.153
 9552POPC   C1A58107   6.674  33.787   6.453
 9552POPC   D2A58108   6.602  33.834   6.753
 9552POPC   C3A58109   6.636  33.770   7.053
 9552POPC   C4A58110   6.692  33.761   7.353
 9552POPC   C1B58111   6.520  33.985   6.453
 9552POPC   C2B58112   6.519  33.987   6.753
 9552POPC   C3B58113   6.508  34.026   7.053
 9552POPC   C4B58114   6.447  34.020   7.353
 9553POPC   NC358115  19.785   9.018   5.553
 9553POPC   PO458116  19.862   9.017   5.853
 9553POPC   GL158117  19.875   8.963   6.153
 9553POPC   GL258118  19.934   9.006   6.153
 9553POPC   C1A58119  19.785   8.968   6.453
 9553POPC   D2A58120  19.794   8.979   6.753
 9553POPC   C3A58121  19.801   8.946   7.053
 9553POPC   C4A58122  19.802   8.980   7.353
 9553POPC   C1B58123  20.069   9.023   6.453
 9553POPC   C2B58124  20.047   9.093   6.753
 9553POPC   C3B58125  20.097   9.099   7.053
 9553POPC   C4B58126  20.075   9.021   7.353
 9554POPC   NC358127  23.751  36.160   5.553
 9554POPC   PO458128  23.694  36.173   5.853
 9554POPC   GL158129  23.694  36.135   6.153
 9554POPC   GL258130  23.765  36.199   6.153
 9554POPC   C1A58131  23.752  36.125   6.453
 9554POPC   D2A58132  23.757  36.104   6.753
 9554POPC   C3A58133  23.689  36.112   7.053
 9554POPC   C4A58134  23.742  36.091   7.353
 9554POPC   C1B58135  23.800  36.378   6.453
 9554POPC   C2B58136  23.819  36.400   6.753
 9554POPC   C3B58137  23.859  36.381   7.053
 9554POPC   C4B58138  23.773  36.377   7.353
 9555POPC   NC358139  43.894  15.200   5.553
 9555POPC   PO458140  43.907  15.175   5.853
 9555POPC   GL158141  43.922  15.212   6.153
 9555POPC   GL258142  43.939  15.068   6.153
 9555POPC   C1A58143  43.923  15.215   6.453
 9555POPC   D2A58144  43.917  15.139   6.753
 9555POPC   C3A58145  43.870  15.179   7.053
 9555POPC   C4A58146  43.856  15.193   7.353
 9555POPC   C1B58147  44.012  14.971   6.453
 9555POPC   C2B58148  43.970  14.915   6.753
 9555POPC   C3B58149  43.978  14.928   7.053
 9555POPC   C4B58150  43.995  14.978   7.353
 9556POPC   NC358151  31.511  24.520   5.553
 9556POPC   PO458152  31.513  24.482   5.853
 9556POPC   GL158153  31.476  24.456   6.153
 9556POPC   GL258154  31.560  24.406   6.153
 9556POPC   C1A58155  31.518  24.467   6.453
 9556POPC   D2A58156  31.502  24.443   6.753
 9556POPC   C3A58157  31.514  24.515   7.053
 9556POPC   C4A58158  31.518  24.479   7.353
 9556POPC   C1B58159  31.679  24.387   6.453
 9556POPC   C2B58160  31.633  24.402   6.753
 9556POPC   C3B58161  31.649  24.329   7.053
 9556POPC   C4B58162  31.668  24.386   7.353
 9557POPC   NC358163   7.467  28.320   5.553
 9557POPC   PO458164   7.402  28.363   5.853
 9557POPC   GL158165   7.373  28.365   6.153
 9557POPC   GL258166   7.345  28.479   6.153
 9557POPC   C1A58167   7.451  28.405   6.453
 9557POPC   D2A58168   7.388  28.344   6.753
 9557POPC   C3A58169   7.463  28.413   7.053
 9557POPC   C4A58170   7.453  28.348   7.353
 9557POPC   C1B58171   7.306  28.597   6.453
 9557POPC   C2B58172   7.283  28.585   6.753
 9557POPC   C3B58173   7.310  28.575   7.053
 9557POPC   C4B58174   7.247  28.573   7.353
 9558POPC   NC358175  25.298  41.525   5.553
 9558POPC   PO458176  25.296  41.548   5.853
 9558POPC   GL158177  25.220  41.591   6.153
 9558POPC   GL258178  25.287  41.409   6.153
 9558POPC   C1A58179  25.229  41.580   6.453
 9558POPC   D2A58180  25.226  41.541   6.753
 9558POPC   C3A58181  25.217  41.533   7.053
 9558POPC   C4A58182  25.263  41.516   7.353
 9558POPC   C1B58183  25.187  41.268   6.453
 9558POPC   C2B58184  25.241  41.302   6.753
 9558POPC   C3B58185  25.235  41.283   7.053
 9558POPC   C4B58186  25.246  41.330   7.353
 9559POPC   NC358187  43.079  29.910   5.553
 9559POPC   PO458188  43.157  29.957   5.853
 9559POPC   GL158189  43.110  29.951   6.153
 9559POPC   GL258190  43.164  29.818   6.153
 9559POPC   C1A58191  43.146  29.902   6.453
 9559POPC   D2A58192  43.064  29.965   6.753
 9559POPC   C3A58193  43.075  29.923   7.053
 9559POPC   C4A58194  43.131  29.885   7.353
 9559POPC   C1B58195  43.207  29.721   6.453
 9559POPC   C2B58196  43.207  29.715   6.753
 9559POPC   C3B58197  43.192  29.702   7.053
 9559POPC   C4B58198  43.205  29.746   7.353
 9560POPC   NC358199  25.270  28.416   5.553
 9560POPC   PO458200  25.248  28.385   5.853
 9560POPC   GL158201  25.254  28.363   6.153
 9560POPC   GL258202  25.195  28.243   6.153
 9560POPC   C1A58203  25.314  28.415   6.453
 9560POPC   D2A58204  25.236  28.373   6.753
 9560POPC   C3A58205  25.263  28.367   7.053
 9560POPC   C4A58206  25.226  28.380   7.353
 9560POPC   C1B58207  25.216  28.151   6.453
 9560POPC   C2B58208  25.181  28.119   6.753
 9560POPC   C3B58209  25.252  28.093   7.053
 9560POPC   C4B58210  25.203  28.114   7.353
 9561POPC   NC358211   8.197  36.097   5.553
 9561POPC   PO458212   8.234  36.088   5.853
 9561POPC   GL158213   8.177  36.081   6.153
 9561POPC   GL258214   8.275  36.171   6.153
 9561POPC   C1A58215   8.210  36.123   6.453
 9561POPC   D2A58216   8.151  36.084   6.753
 9561POPC   C3A58217   8.231  36.079   7.053
 9561POPC   C4A58218   8.162  36.134   7.353
 9561POPC   C1B58219   8.475  36.230   6.453
 9561POPC   C2B58220   8.475  36.231   6.753
 9561POPC   C3B58221   8.462  36.170   7.053
 9561POPC   C4B58222   8.400  36.215   7.353
 9562POPC   NC358223  31.467  26.775   5.553
 9562POPC   PO458224  31.470  26.815   5.853
 9562POPC   GL158225  31.514  26.836   6.153
 9562POPC   GL258226  31.630  26.762   6.153
 9562POPC   C1A58227  31.518  26.837   6.453
 9562POPC   D2A58228  31.509  26.785   6.753
 9562POPC   C3A58229  31.458  26.771   7.053
 9562POPC   C4A58230  31.448  26.844   7.353
 9562POPC   C1B58231  31.716  26.741   6.453
 9562POPC   C2B58232  31.671  26.750   6.753
 9562POPC   C3B58233  31.680  26.715   7.053
 9562POPC   C4B58234  31.680  26.770   7.353
 9563POPC   NC358235  22.979  11.327   5.553
 9563POPC   PO458236  22.898  11.262   5.853
 9563POPC   GL158237  22.957  11.264   6.153
 9563POPC   GL258238  22.972  11.220   6.153
 9563POPC   C1A58239  22.907  11.311   6.453
 9563POPC   D2A58240  22.975  11.257   6.753
 9563POPC   C3A58241  22.987  11.296   7.053
 9563POPC   C4A58242  22.955  11.291   7.353
 9563POPC   C1B58243  23.137  11.139   6.453
 9563POPC   C2B58244  23.055  11.094   6.753
 9563POPC   C3B58245  23.103  11.106   7.053
 9563POPC   C4B58246  23.098  11.120   7.353
 9564POPC   NC358247  32.266  19.801   5.553
 9564POPC   PO458248  32.282  19.843   5.853
 9564POPC   GL158249  32.268  19.844   6.153
 9564POPC   GL258250  32.272  19.733   6.153
 9564POPC   C1A58251  32.205  19.791   6.453
 9564POPC   D2A58252  32.223  19.790   6.753
 9564POPC   C3A58253  32.263  19.813   7.053
 9564POPC   C4A58254  32.284  19.847   7.353
 9564POPC   C1B58255  32.394  19.621   6.453
 9564POPC   C2B58256  32.396  19.613   6.753
 9564POPC   C3B58257  32.347  19.609   7.053
 9564POPC   C4B58258  32.414  19.671   7.353
 9565POPC   NC358259  43.918  22.138   5.553
 9565POPC   PO458260  43.934  22.137   5.853
 9565POPC   GL158261  43.876  22.166   6.153
 9565POPC   GL258262  43.956  22.095   6.153
 9565POPC   C1A58263  43.929  22.163   6.453
 9565POPC   D2A58264  43.859  22.172   6.753
 9565POPC   C3A58265  43.910  22.199   7.053
 9565POPC   C4A58266  43.929  22.150   7.353
 9565POPC   C1B58267  44.034  21.961   6.453
 9565POPC   C2B58268  44.077  22.021   6.753
 9565POPC   C3B58269  44.071  21.953   7.053
 9565POPC   C4B58270  44.076  21.978   7.353
 9566POPC   NC358271   0.396  11.349   5.553
 9566POPC   PO458272   0.428  11.344   5.853
 9566POPC   GL158273   0.442  11.310   6.153
 9566POPC   GL258274   0.375  11.142   6.153
 9566POPC   C1A58275   0.472  11.307   6.453
 9566POPC   D2A58276   0.408  11.304   6.753
 9566POPC   C3A58277   0.451  11.339   7.053
 9566POPC   C4A58278   0.463  11.315   7.353
 9566POPC   C1B58279   0.411  11.039   6.453
 9566POPC   C2B58280   0.425  11.044   6.753
 9566POPC   C3B58281   0.393  11.080   7.053
 9566POPC   C4B58282   0.381  11.071   7.353
 9567POPC   NC358283  28.391  42.355   5.553
 9567POPC   PO458284  28.413  42.361   5.853
 9567POPC   GL158285  28.359  42.365   6.153
 9567POPC   GL258286  28.345  42.190   6.153
 9567POPC   C1A58287  28.370  42.350   6.453
 9567POPC   D2A58288  28.319  42.304   6.753
 9567POPC   C3A58289  28.331  42.366   7.053
 9567POPC   C4A58290  28.403  42.319   7.353
 9567POPC   C1B58291  28.444  42.134   6.453
 9567POPC   C2B58292  28.409  42.056   6.753
 9567POPC   C3B58293  28.424  42.040   7.053
 9567POPC   C4B58294  28.413  42.045   7.353
 9568POPC   NC358295  39.987  22.193   5.553
 9568POPC   PO458296  39.988  22.196   5.853
 9568POPC   GL158297  40.012  22.160   6.153
 9568POPC   GL258298  40.029  22.243   6.153
 9568POPC   C1A58299  40.034  22.125   6.453
 9568POPC   D2A58300  39.986  22.136   6.753
 9568POPC   C3A58301  40.008  22.158   7.053
 9568POPC   C4A58302  39.989  22.203   7.353
 9568POPC   C1B58303  40.149  22.339   6.453
 9568POPC   C2B58304  40.145  22.387   6.753
 9568POPC   C3B58305  40.106  22.323   7.053
 9568POPC   C4B58306  40.115  22.350   7.353
 9569POPC   NC358307  36.948  25.288   5.553
 9569POPC   PO458308  36.887  25.297   5.853
 9569POPC   GL158309  36.871  25.308   6.153
 9569POPC   GL258310  36.994  25.139   6.153
 9569POPC   C1A58311  36.900  25.219   6.453
 9569POPC   D2A58312  36.937  25.312   6.753
 9569POPC   C3A58313  36.946  25.251   7.053
 9569POPC   C4A58314  36.856  25.222   7.353
 9569POPC   C1B58315  37.066  25.102   6.453
 9569POPC   C2B58316  37.076  25.106   6.753
 9569POPC   C3B58317  37.044  25.036   7.053
 9569POPC   C4B58318  37.059  25.024   7.353
 9570POPC   NC358319  27.556   4.317   5.553
 9570POPC   PO458320  27.591   4.345   5.853
 9570POPC   GL158321  27.579   4.310   6.153
 9570POPC   GL258322  27.555   4.407   6.153
 9570POPC   C1A58323  27.585   4.267   6.453
 9570POPC   D2A58324  27.604   4.323   6.753
 9570POPC   C3A58325  27.638   4.359   7.053
 9570POPC   C4A58326  27.549   4.362   7.353
 9570POPC   C1B58327  27.594   4.559   6.453
 9570POPC   C2B58328  27.545   4.547   6.753
 9570POPC   C3B58329  27.595   4.530   7.053
 9570POPC   C4B58330  27.559   4.604   7.353
 9571POPC   NC358331  32.999   4.269   5.553
 9571POPC   PO458332  32.985   4.318   5.853
 9571POPC   GL158333  33.051   4.348   6.153
 9571POPC   GL258334  32.881   4.245   6.153
 9571POPC   C1A58335  32.993   4.293   6.453
 9571POPC   D2A58336  33.064   4.360   6.753
 9571POPC   C3A58337  32.979   4.331   7.053
 9571POPC   C4A58338  33.066   4.332   7.353
 9571POPC   C1B58339  32.739   4.251   6.453
 9571POPC   C2B58340  32.794   4.224   6.753
 9571POPC   C3B58341  32.765   4.254   7.053
 9571POPC   C4B58342  32.806   4.233   7.353
 9572POPC   NC358343  21.431  33.814   5.553
 9572POPC   PO458344  21.359  33.756   5.853
 9572POPC   GL158345  21.389  33.823   6.153
 9572POPC   GL258346  21.525  33.914   6.153
 9572POPC   C1A58347  21.359  33.849   6.453
 9572POPC   D2A58348  21.409  33.762   6.753
 9572POPC   C3A58349  21.346  33.823   7.053
 9572POPC   C4A58350  21.400  33.750   7.353
 9572POPC   C1B58351  21.555  33.924   6.453
 9572POPC   C2B58352  21.552  34.014   6.753
 9572POPC   C3B58353  21.595  33.993   7.053
 9572POPC   C4B58354  21.542  33.926   7.353
 9573POPC   NC358355  13.624  44.679   5.553
 9573POPC   PO458356  13.585  44.710   5.853
 9573POPC   GL158357  13.638  44.680   6.153
 9573POPC   GL258358  13.558  44.805   6.153
 9573POPC   C1A58359  13.614  44.704   6.453
 9573POPC   D2A58360  13.582  44.671   6.753
 9573POPC   C3A58361  13.645  44.706   7.053
 9573POPC   C4A58362  13.667  44.647   7.353
 9573POPC   C1B58363  13.570  44.864   6.453
 9573POPC   C2B58364  13.540  44.895   6.753
 9573POPC   C3B58365  13.544  44.900   7.053
 9573POPC   C4B58366  13.566  44.900   7.353
 9574POPC   NC358367   6.685   0.472   5.553
 9574POPC   PO458368   6.646   0.483   5.853
 9574POPC   GL158369   6.642   0.393   6.153
 9574POPC   GL258370   6.653   0.518   6.153
 9574POPC   C1A58371   6.671   0.462   6.453
 9574POPC   D2A58372   6.671   0.474   6.753
 9574POPC   C3A58373   6.616   0.433   7.053
 9574POPC   C4A58374   6.695   0.457   7.353
 9574POPC   C1B58375   6.607   0.721   6.453
 9574POPC   C2B58376   6.633   0.709   6.753
 9574POPC   C3B58377   6.597   0.666   7.053
 9574POPC   C4B58378   6.626   0.657   7.353
 9575POPC   NC358379  24.528   5.823   5.553
 9575POPC   PO458380  24.457   5.867   5.853
 9575POPC   GL158381  24.463   5.830   6.153
 9575POPC   GL258382  24.367   5.823   6.153
 9575POPC   C1A58383  24.499   5.836   6.453
 9575POPC   D2A58384  24.506   5.837   6.753
 9575POPC   C3A58385  24.510   5.870   7.053
 9575POPC   C4A58386  24.454   5.840   7.353
 9575POPC   C1B58387  24.265   5.711   6.453
 9575POPC   C2B58388  24.321   5.688   6.753
 9575POPC   C3B58389  24.326   5.695   7.053
 9575POPC   C4B58390  24.273   5.761   7.353
 9576POPC   NC358391  30.691  28.390   5.553
 9576POPC   PO458392  30.726  28.350   5.853
 9576POPC   GL158393  30.726  28.332   6.153
 9576POPC   GL258394  30.574  28.288   6.153
 9576POPC   C1A58395  30.735  28.388   6.453
 9576POPC   D2A58396  30.735  28.370   6.753
 9576POPC   C3A58397  30.742  28.410   7.053
 9576POPC   C4A58398  30.651  28.349   7.353
 9576POPC   C1B58399  30.465  28.237   6.453
 9576POPC   C2B58400  30.522  28.205   6.753
 9576POPC   C3B58401  30.455  28.240   7.053
 9576POPC   C4B58402  30.443  28.253   7.353
 9577POPC   NC358403   9.013  36.881   5.553
 9577POPC   PO458404   9.010  36.883   5.853
 9577POPC   GL158405   8.958  36.929   6.153
 9577POPC   GL258406   8.969  36.768   6.153
 9577POPC   C1A58407   8.986  36.927   6.453
 9577POPC   D2A58408   8.965  36.855   6.753
 9577POPC   C3A58409   8.938  36.891   7.053
 9577POPC   C4A58410   8.986  36.945   7.353
 9577POPC   C1B58411   9.060  36.679   6.453
 9577POPC   C2B58412   9.062  36.664   6.753
 9577POPC   C3B58413   8.997  36.675   7.053
 9577POPC   C4B58414   9.002  36.660   7.353
 9578POPC   NC358415   9.740  17.458   5.553
 9578POPC   PO458416   9.793  17.534   5.853
 9578POPC   GL158417   9.701  17.507   6.153
 9578POPC   GL258418   9.710  17.437   6.153
 9578POPC   C1A58419   9.775  17.540   6.453
 9578POPC   D2A58420   9.796  17.530   6.753
 9578POPC   C3A58421   9.784  17.496   7.053
 9578POPC   C4A58422   9.718  17.513   7.353
 9578POPC   C1B58423   9.584  17.266   6.453
 9578POPC   C2B58424   9.652  17.277   6.753
 9578POPC   C3B58425   9.578  17.277   7.053
 9578POPC   C4B58426   9.655  17.253   7.353
 9579POPC   NC358427  16.730   8.235   5.553
 9579POPC   PO458428  16.719   8.166   5.853
 9579POPC   GL158429  16.704   8.180   6.153
 9579POPC   GL258430  16.611   8.100   6.153
 9579POPC   C1A58431  16.729   8.193   6.453
 9579POPC   D2A58432  16.735   8.245   6.753
 9579POPC   C3A58433  16.780   8.166   7.053
 9579POPC   C4A58434  16.753   8.160   7.353
 9579POPC   C1B58435  16.548   8.043   6.453
 9579POPC   C2B58436  16.507   8.017   6.753
 9579POPC   C3B58437  16.558   7.990   7.053
 9579POPC   C4B58438  16.504   8.048   7.353
 9580POPC   NC358439  19.011  18.234   5.553
 9580POPC   PO458440  19.067  18.243   5.853
 9580POPC   GL158441  19.078  18.308   6.153
 9580POPC   GL258442  18.962  18.352   6.153
 9580POPC   C1A58443  19.083  18.233   6.453
 9580POPC   D2A58444  19.015  18.280   6.753
 9580POPC   C3A58445  19.062  18.332   7.053
 9580POPC   C4A58446  19.109  18.307   7.353
 9580POPC   C1B58447  18.816  18.410   6.453
 9580POPC   C2B58448  18.776  18.370   6.753
 9580POPC   C3B58449  18.868  18.369   7.053
 9580POPC   C4B58450  18.817  18.356   7.353
 9581POPC   NC358451   8.953  19.063   5.553
 9581POPC   PO458452   9.015  19.080   5.853
 9581POPC   GL158453   8.953  19.063   6.153
 9581POPC   GL258454   8.845  19.071   6.153
 9581POPC   C1A58455   9.006  19.088   6.453
 9581POPC   D2A58456   8.940  19.066   6.753
 9581POPC   C3A58457   8.985  19.102   7.053
 9581POPC   C4A58458   8.977  19.026   7.353
 9581POPC   C1B58459   8.767  19.107   6.453
 9581POPC   C2B58460   8.752  19.149   6.753
 9581POPC   C3B58461   8.766  19.187   7.053
 9581POPC   C4B58462   8.708  19.111   7.353
 9582POPC   NC358463  26.050  17.487   5.553
 9582POPC   PO458464  26.063  17.548   5.853
 9582POPC   GL158465  26.051  17.491   6.153
 9582POPC   GL258466  26.174  17.493   6.153
 9582POPC   C1A58467  26.007  17.496   6.453
 9582POPC   D2A58468  26.057  17.523   6.753
 9582POPC   C3A58469  26.027  17.549   7.053
 9582POPC   C4A58470  26.073  17.464   7.353
 9582POPC   C1B58471  26.266  17.478   6.453
 9582POPC   C2B58472  26.289  17.495   6.753
 9582POPC   C3B58473  26.315  17.529   7.053
 9582POPC   C4B58474  26.322  17.534   7.353
 9583POPC   NC358475  11.337  25.225   5.553
 9583POPC   PO458476  11.342  25.315   5.853
 9583POPC   GL158477  11.304  25.300   6.153
 9583POPC   GL258478  11.348  25.208   6.153
 9583POPC   C1A58479  11.302  25.312   6.453
 9583POPC   D2A58480  11.317  25.298   6.753
 9583POPC   C3A58481  11.282  25.242   7.053
 9583POPC   C4A58482  11.325  25.223   7.353
 9583POPC   C1B58483  11.484  25.048   6.453
 9583POPC   C2B58484  11.456  25.076   6.753
 9583POPC   C3B58485  11.457  25.126   7.053
 9583POPC   C4B58486  11.514  25.102   7.353
 9584POPC   NC358487  15.928   8.977   5.553
 9584POPC   PO458488  15.976   8.931   5.853
 9584POPC   GL158489  15.952   8.978   6.153
 9584POPC   GL258490  15.873   9.070   6.153
 9584POPC   C1A58491  15.969   9.016   6.453
 9584POPC   D2A58492  15.926   8.991   6.753
 9584POPC   C3A58493  15.936   9.015   7.053
 9584POPC   C4A58494  15.910   8.987   7.353
 9584POPC   C1B58495  15.826   9.157   6.453
 9584POPC   C2B58496  15.769   9.208   6.753
 9584POPC   C3B58497  15.790   9.134   7.053
 9584POPC   C4B58498  15.823   9.178   7.353
 9585POPC   NC358499  37.685   4.328   5.553
 9585POPC   PO458500  37.636   4.359   5.853
 9585POPC   GL158501  37.704   4.342   6.153
 9585POPC   GL258502  37.749   4.460   6.153
 9585POPC   C1A58503  37.648   4.345   6.453
 9585POPC   D2A58504  37.710   4.311   6.753
 9585POPC   C3A58505  37.690   4.277   7.053
 9585POPC   C4A58506  37.713   4.304   7.353
 9585POPC   C1B58507  37.825   4.584   6.453
 9585POPC   C2B58508  37.829   4.516   6.753
 9585POPC   C3B58509  37.748   4.579   7.053
 9585POPC   C4B58510  37.788   4.575   7.353
 9586POPC   NC358511  18.291  42.325   5.553
 9586POPC   PO458512  18.306  42.342   5.853
 9586POPC   GL158513  18.310  42.331   6.153
 9586POPC   GL258514  18.319  42.499   6.153
 9586POPC   C1A58515  18.253  42.307   6.453
 9586POPC   D2A58516  18.280  42.334   6.753
 9586POPC   C3A58517  18.291  42.307   7.053
 9586POPC   C4A58518  18.326  42.326   7.353
 9586POPC   C1B58519  18.270  42.634   6.453
 9586POPC   C2B58520  18.297  42.537   6.753
 9586POPC   C3B58521  18.259  42.625   7.053
 9586POPC   C4B58522  18.267  42.582   7.353
 9587POPC   NC358523  31.502  23.721   5.553
 9587POPC   PO458524  31.427  23.744   5.853
 9587POPC   GL158525  31.436  23.743   6.153
 9587POPC   GL258526  31.577  23.637   6.153
 9587POPC   C1A58527  31.462  23.737   6.453
 9587POPC   D2A58528  31.422  23.706   6.753
 9587POPC   C3A58529  31.476  23.735   7.053
 9587POPC   C4A58530  31.465  23.714   7.353
 9587POPC   C1B58531  31.611  23.495   6.453
 9587POPC   C2B58532  31.581  23.518   6.753
 9587POPC   C3B58533  31.639  23.459   7.053
 9587POPC   C4B58534  31.575  23.518   7.353
 9588POPC   NC358535  35.358   5.841   5.553
 9588POPC   PO458536  35.381   5.832   5.853
 9588POPC   GL158537  35.387   5.882   6.153
 9588POPC   GL258538  35.413   5.993   6.153
 9588POPC   C1A58539  35.312   5.898   6.453
 9588POPC   D2A58540  35.381   5.823   6.753
 9588POPC   C3A58541  35.394   5.896   7.053
 9588POPC   C4A58542  35.386   5.848   7.353
 9588POPC   C1B58543  35.450   6.141   6.453
 9588POPC   C2B58544  35.413   6.100   6.753
 9588POPC   C3B58545  35.406   6.087   7.053
 9588POPC   C4B58546  35.425   6.102   7.353
 9589POPC   NC358547  32.260  11.266   5.553
 9589POPC   PO458548  32.212  11.333   5.853
 9589POPC   GL158549  32.272  11.254   6.153
 9589POPC   GL258550  32.300  11.188   6.153
 9589POPC   C1A58551  32.241  11.307   6.453
 9589POPC   D2A58552  32.209  11.274   6.753
 9589POPC   C3A58553  32.240  11.292   7.053
 9589POPC   C4A58554  32.263  11.287   7.353
 9589POPC   C1B58555  32.361  11.117   6.453
 9589POPC   C2B58556  32.300  11.064   6.753
 9589POPC   C3B58557  32.385  11.096   7.053
 9589POPC   C4B58558  32.364  11.096   7.353
 9590POPC   NC358559  29.192   5.097   5.553
 9590POPC   PO458560  29.170   5.112   5.853
 9590POPC   GL158561  29.183   5.094   6.153
 9590POPC   GL258562  29.202   5.146   6.153
 9590POPC   C1A58563  29.165   5.120   6.453
 9590POPC   D2A58564  29.175   5.063   6.753
 9590POPC   C3A58565  29.129   5.101   7.053
 9590POPC   C4A58566  29.158   5.059   7.353
 9590POPC   C1B58567  29.294   5.269   6.453
 9590POPC   C2B58568  29.265   5.325   6.753
 9590POPC   C3B58569  29.358   5.283   7.053
 9590POPC   C4B58570  29.306   5.245   7.353
 9591POPC   NC358571  22.182  13.640   5.553
 9591POPC   PO458572  22.145  13.676   5.853
 9591POPC   GL158573  22.186  13.642   6.153
 9591POPC   GL258574  22.239  13.498   6.153
 9591POPC   C1A58575  22.161  13.644   6.453
 9591POPC   D2A58576  22.135  13.591   6.753
 9591POPC   C3A58577  22.167  13.614   7.053
 9591POPC   C4A58578  22.149  13.670   7.353
 9591POPC   C1B58579  22.307  13.360   6.453
 9591POPC   C2B58580  22.309  13.441   6.753
 9591POPC   C3B58581  22.249  13.435   7.053
 9591POPC   C4B58582  22.271  13.353   7.353
 9592POPC   NC358583  42.306  30.658   5.553
 9592POPC   PO458584  42.373  30.651   5.853
 9592POPC   GL158585  42.331  30.734   6.153
 9592POPC   GL258586  42.245  30.796   6.153
 9592POPC   C1A58587  42.303  30.665   6.453
 9592POPC   D2A58588  42.334  30.659   6.753
 9592POPC   C3A58589  42.309  30.671   7.053
 9592POPC   C4A58590  42.384  30.742   7.353
 9592POPC   C1B58591  42.230  30.927   6.453
 9592POPC   C2B58592  42.287  30.889   6.753
 9592POPC   C3B58593  42.226  30.884   7.053
 9592POPC   C4B58594  42.233  30.975   7.353
 9593POPC   NC358595  23.692  44.646   5.553
 9593POPC   PO458596  23.679  44.646   5.853
 9593POPC   GL158597  23.668  44.685   6.153
 9593POPC   GL258598  23.717  44.749   6.153
 9593POPC   C1A58599  23.742  44.703   6.453
 9593POPC   D2A58600  23.690  44.626   6.753
 9593POPC   C3A58601  23.693  44.663   7.053
 9593POPC   C4A58602  23.708  44.684   7.353
 9593POPC   C1B58603  23.665  44.902   6.453
 9593POPC   C2B58604  23.687  44.877   6.753
 9593POPC   C3B58605  23.653  44.956   7.053
 9593POPC   C4B58606  23.703  44.884   7.353
 9594POPC   NC358607  33.773   0.457   5.553
 9594POPC   PO458608  33.806   0.481   5.853
 9594POPC   GL158609  33.773   0.449   6.153
 9594POPC   GL258610  33.923   0.382   6.153
 9594POPC   C1A58611  33.763   0.453   6.453
 9594POPC   D2A58612  33.752   0.402   6.753
 9594POPC   C3A58613  33.764   0.418   7.053
 9594POPC   C4A58614  33.830   0.479   7.353
 9594POPC   C1B58615  34.001   0.403   6.453
 9594POPC   C2B58616  34.030   0.352   6.753
 9594POPC   C3B58617  34.007   0.384   7.053
 9594POPC   C4B58618  34.063   0.337   7.353
 9595POPC   NC358619  22.167  20.629   5.553
 9595POPC   PO458620  22.129  20.627   5.853
 9595POPC   GL158621  22.143  20.611   6.153
 9595POPC   GL258622  22.249  20.538   6.153
 9595POPC   C1A58623  22.131  20.570   6.453
 9595POPC   D2A58624  22.175  20.581   6.753
 9595POPC   C3A58625  22.181  20.584   7.053
 9595POPC   C4A58626  22.187  20.587   7.353
 9595POPC   C1B58627  22.322  20.392   6.453
 9595POPC   C2B58628  22.304  20.423   6.753
 9595POPC   C3B58629  22.364  20.429   7.053
 9595POPC   C4B58630  22.315  20.433   7.353
 9596POPC   NC358631  20.596   7.440   5.553
 9596POPC   PO458632  20.644   7.405   5.853
 9596POPC   GL158633  20.659   7.375   6.153
 9596POPC   GL258634  20.740   7.500   6.153
 9596POPC   C1A58635  20.591   7.439   6.453
 9596POPC   D2A58636  20.599   7.445   6.753
 9596POPC   C3A58637  20.576   7.457   7.053
 9596POPC   C4A58638  20.653   7.439   7.353
 9596POPC   C1B58639  20.795   7.596   6.453
 9596POPC   C2B58640  20.810   7.551   6.753
 9596POPC   C3B58641  20.801   7.532   7.053
 9596POPC   C4B58642  20.817   7.521   7.353
 9597POPC   NC358643  23.752   5.055   5.553
 9597POPC   PO458644  23.698   5.109   5.853
 9597POPC   GL158645  23.664   5.091   6.153
 9597POPC   GL258646  23.626   5.089   6.153
 9597POPC   C1A58647  23.696   5.061   6.453
 9597POPC   D2A58648  23.685   5.085   6.753
 9597POPC   C3A58649  23.703   5.051   7.053
 9597POPC   C4A58650  23.757   5.080   7.353
 9597POPC   C1B58651  23.436   5.134   6.453
 9597POPC   C2B58652  23.510   5.086   6.753
 9597POPC   C3B58653  23.419   5.091   7.053
 9597POPC   C4B58654  23.440   5.159   7.353
 9598POPC   NC358655  16.687  19.817   5.553
 9598POPC   PO458656  16.750  19.864   5.853
 9598POPC   GL158657  16.687  19.865   6.153
 9598POPC   GL258658  16.843  19.710   6.153
 9598POPC   C1A58659  16.738  19.818   6.453
 9598POPC   D2A58660  16.779  19.838   6.753
 9598POPC   C3A58661  16.705  19.827   7.053
 9598POPC   C4A58662  16.688  19.817   7.353
 9598POPC   C1B58663  16.891  19.648   6.453
 9598POPC   C2B58664  16.819  19.662   6.753
 9598POPC   C3B58665  16.859  19.641   7.053
 9598POPC   C4B58666  16.845  19.615   7.353
 9599POPC   NC358667  11.338  21.351   5.553
 9599POPC   PO458668  11.277  21.341   5.853
 9599POPC   GL158669  11.266  21.391   6.153
 9599POPC   GL258670  11.281  21.555   6.153
 9599POPC   C1A58671  11.322  21.356   6.453
 9599POPC   D2A58672  11.294  21.355   6.753
 9599POPC   C3A58673  11.300  21.419   7.053
 9599POPC   C4A58674  11.349  21.427   7.353
 9599POPC   C1B58675  11.243  21.643   6.453
 9599POPC   C2B58676  11.304  21.632   6.753
 9599POPC   C3B58677  11.288  21.619   7.053
 9599POPC   C4B58678  11.309  21.666   7.353
 9600POPC   NC358679   0.461  17.465   5.553
 9600POPC   PO458680   0.402  17.508   5.853
 9600POPC   GL158681   0.417  17.530   6.153
 9600POPC   GL258682   0.282  17.561   6.153
 9600POPC   C1A58683   0.468  17.482   6.453
 9600POPC   D2A58684   0.451  17.467   6.753
 9600POPC   C3A58685   0.414  17.527   7.053
 9600POPC   C4A58686   0.421  17.488   7.353
 9600POPC   C1B58687   0.164  17.524   6.453
 9600POPC   C2B58688   0.189  17.521   6.753
 9600POPC   C3B58689   0.149  17.593   7.053
 9600POPC   C4B58690   0.231  17.566   7.353
 9601POPC   NC358691  35.356   2.038   5.553
 9601POPC   PO458692  35.310   2.022   5.853
 9601POPC   GL158693  35.353   1.974   6.153
 9601POPC   GL258694  35.277   2.088   6.153
 9601POPC   C1A58695  35.323   2.009   6.453
 9601POPC   D2A58696  35.399   1.962   6.753
 9601POPC   C3A58697  35.307   1.972   7.053
 9601POPC   C4A58698  35.380   1.958   7.353
 9601POPC   C1B58699  35.207   2.209   6.453
 9601POPC   C2B58700  35.171   2.183   6.753
 9601POPC   C3B58701  35.204   2.227   7.053
 9601POPC   C4B58702  35.177   2.176   7.353
 9602POPC   NC358703  40.035  37.715   5.553
 9602POPC   PO458704  40.009  37.631   5.853
 9602POPC   GL158705  39.970  37.707   6.153
 9602POPC   GL258706  40.007  37.761   6.153
 9602POPC   C1A58707  39.993  37.707   6.453
 9602POPC   D2A58708  40.028  37.670   6.753
 9602POPC   C3A58709  40.023  37.640   7.053
 9602POPC   C4A58710  39.969  37.657   7.353
 9602POPC   C1B58711  40.009  37.972   6.453
 9602POPC   C2B58712  39.968  37.890   6.753
 9602POPC   C3B58713  40.004  37.894   7.053
 9602POPC   C4B58714  39.942  37.882   7.353
 9603POPC   NC358715  14.426  15.928   5.553
 9603POPC   PO458716  14.441  15.916   5.853
 9603POPC   GL158717  14.430  15.935   6.153
 9603POPC   GL258718  14.292  15.988   6.153
 9603POPC   C1A58719  14.413  15.930   6.453
 9603POPC   D2A58720  14.412  15.973   6.753
 9603POPC   C3A58721  14.360  15.989   7.053
 9603POPC   C4A58722  14.385  16.003   7.353
 9603POPC   C1B58723  14.131  15.894   6.453
 9603POPC   C2B58724  14.188  15.950   6.753
 9603POPC   C3B58725  14.118  15.906   7.053
 9603POPC   C4B58726  14.120  15.927   7.353
 9604POPC   NC358727  26.040  39.208   5.553
 9604POPC   PO458728  26.027  39.199   5.853
 9604POPC   GL158729  26.073  39.182   6.153
 9604POPC   GL258730  25.905  39.281   6.153
 9604POPC   C1A58731  26.026  39.261   6.453
 9604POPC   D2A58732  26.066  39.227   6.753
 9604POPC   C3A58733  26.091  39.219   7.053
 9604POPC   C4A58734  26.076  39.264   7.353
 9604POPC   C1B58735  25.746  39.223   6.453
 9604POPC   C2B58736  25.838  39.226   6.753
 9604POPC   C3B58737  25.821  39.294   7.053
 9604POPC   C4B58738  25.752  39.243   7.353
 9605POPC   NC358739  42.338  35.362   5.553
 9605POPC   PO458740  42.348  35.362   5.853
 9605POPC   GL158741  42.341  35.393   6.153
 9605POPC   GL258742  42.248  35.245   6.153
 9605POPC   C1A58743  42.295  35.329   6.453
 9605POPC   D2A58744  42.285  35.316   6.753
 9605POPC   C3A58745  42.337  35.391   7.053
 9605POPC   C4A58746  42.329  35.400   7.353
 9605POPC   C1B58747  42.255  35.092   6.453
 9605POPC   C2B58748  42.296  35.141   6.753
 9605POPC   C3B58749  42.229  35.080   7.053
 9605POPC   C4B58750  42.248  35.134   7.353
 9606POPC   NC358751  30.717  32.221   5.553
 9606POPC   PO458752  30.657  32.247   5.853
 9606POPC   GL158753  30.706  32.205   6.153
 9606POPC   GL258754  30.722  32.376   6.153
 9606POPC   C1A58755  30.691  32.246   6.453
 9606POPC   D2A58756  30.745  32.285   6.753
 9606POPC   C3A58757  30.744  32.228   7.053
 9606POPC   C4A58758  30.656  32.229   7.353
 9606POPC   C1B58759  30.717  32.539   6.453
 9606POPC   C2B58760  30.739  32.525   6.753
 9606POPC   C3B58761  30.670  32.512   7.053
 9606POPC   C4B58762  30.713  32.505   7.353
 9607POPC   NC358763  42.345  13.595   5.553
 9607POPC   PO458764  42.382  13.668   5.853
 9607POPC   GL158765  42.294  13.664   6.153
 9607POPC   GL258766  42.251  13.761   6.153
 9607POPC   C1A58767  42.322  13.601   6.453
 9607POPC   D2A58768  42.302  13.653   6.753
 9607POPC   C3A58769  42.320  13.581   7.053
 9607POPC   C4A58770  42.295  13.670   7.353
 9607POPC   C1B58771  42.188  13.813   6.453
 9607POPC   C2B58772  42.157  13.847   6.753
 9607POPC   C3B58773  42.222  13.870   7.053
 9607POPC   C4B58774  42.231  13.838   7.353
 9608POPC   NC358775  11.268  44.625   5.553
 9608POPC   PO458776  11.301  44.616   5.853
 9608POPC   GL158777  11.293  44.701   6.153
 9608POPC   GL258778  11.310  44.770   6.153
 9608POPC   C1A58779  11.350  44.686   6.453
 9608POPC   D2A58780  11.255  44.693   6.753
 9608POPC   C3A58781  11.296  44.692   7.053
 9608POPC   C4A58782  11.263  44.628   7.353
 9608POPC   C1B58783  11.327  44.895   6.453
 9608POPC   C2B58784  11.336  44.885   6.753
 9608POPC   C3B58785  11.255  44.931   7.053
 9608POPC   C4B58786  11.299  44.882   7.353
 9609POPC   NC358787  21.386  26.769   5.553
 9609POPC   PO458788  21.395  26.817   5.853
 9609POPC   GL158789  21.386  26.848   6.153
 9609POPC   GL258790  21.424  26.673   6.153
 9609POPC   C1A58791  21.365  26.805   6.453
 9609POPC   D2A58792  21.336  26.780   6.753
 9609POPC   C3A58793  21.434  26.773   7.053
 9609POPC   C4A58794  21.357  26.795   7.353
 9609POPC   C1B58795  21.464  26.567   6.453
 9609POPC   C2B58796  21.374  26.539   6.753
 9609POPC   C3B58797  21.392  26.540   7.053
 9609POPC   C4B58798  21.401  26.618   7.353
 9610POPC   NC358799  20.602  16.756   5.553
 9610POPC   PO458800  20.620  16.703   5.853
 9610POPC   GL158801  20.646  16.715   6.153
 9610POPC   GL258802  20.497  16.726   6.153
 9610POPC   C1A58803  20.646  16.697   6.453
 9610POPC   D2A58804  20.640  16.730   6.753
 9610POPC   C3A58805  20.625  16.734   7.053
 9610POPC   C4A58806  20.570  16.747   7.353
 9610POPC   C1B58807  20.378  16.708   6.453
 9610POPC   C2B58808  20.391  16.628   6.753
 9610POPC   C3B58809  20.351  16.626   7.053
 9610POPC   C4B58810  20.360  16.682   7.353
 9611POPC   NC358811  31.513  30.729   5.553
 9611POPC   PO458812  31.508  30.653   5.853
 9611POPC   GL158813  31.509  30.668   6.153
 9611POPC   GL258814  31.502  30.529   6.153
 9611POPC   C1A58815  31.471  30.684   6.453
 9611POPC   D2A58816  31.467  30.700   6.753
 9611POPC   C3A58817  31.443  30.743   7.053
 9611POPC   C4A58818  31.447  30.658   7.353
 9611POPC   C1B58819  31.521  30.411   6.453
 9611POPC   C2B58820  31.534  30.416   6.753
 9611POPC   C3B58821  31.480  30.484   7.053
 9611POPC   C4B58822  31.505  30.493   7.353
 9612POPC   NC358823   0.404  35.359   5.553
 9612POPC   PO458824   0.463  35.336   5.853
 9612POPC   GL158825   0.416  35.340   6.153
 9612POPC   GL258826   0.409  35.486   6.153
 9612POPC   C1A58827   0.435  35.328   6.453
 9612POPC   D2A58828   0.399  35.380   6.753
 9612POPC   C3A58829   0.413  35.336   7.053
 9612POPC   C4A58830   0.404  35.322   7.353
 9612POPC   C1B58831   0.436  35.629   6.453
 9612POPC   C2B58832   0.439  35.644   6.753
 9612POPC   C3B58833   0.432  35.563   7.053
 9612POPC   C4B58834   0.393  35.644   7.353
 9613POPC   NC358835   3.574  31.448   5.553
 9613POPC   PO458836   3.521  31.520   5.853
 9613POPC   GL158837   3.582  31.500   6.153
 9613POPC   GL258838   3.496  31.582   6.153
 9613POPC   C1A58839   3.579  31.521   6.453
 9613POPC   D2A58840   3.562  31.458   6.753
 9613POPC   C3A58841   3.562  31.448   7.053
 9613POPC   C4A58842   3.548  31.437   7.353
 9613POPC   C1B58843   3.420  31.694   6.453
 9613POPC   C2B58844   3.370  31.694   6.753
 9613POPC   C3B58845   3.425  31.648   7.053
 9613POPC   C4B58846   3.404  31.696   7.353
 9614POPC   NC358847  23.760  21.346   5.553
 9614POPC   PO458848  23.758  21.343   5.853
 9614POPC   GL158849  23.724  21.370   6.153
 9614POPC   GL258850  23.649  21.349   6.153
 9614POPC   C1A58851  23.679  21.434   6.453
 9614POPC   D2A58852  23.712  21.341   6.753
 9614POPC   C3A58853  23.734  21.432   7.053
 9614POPC   C4A58854  23.701  21.387   7.353
 9614POPC   C1B58855  23.521  21.325   6.453
 9614POPC   C2B58856  23.535  21.266   6.753
 9614POPC   C3B58857  23.520  21.292   7.053
 9614POPC   C4B58858  23.523  21.271   7.353
 9615POPC   NC358859  22.162   4.352   5.553
 9615POPC   PO458860  22.187   4.352   5.853
 9615POPC   GL158861  22.194   4.365   6.153
 9615POPC   GL258862  22.058   4.315   6.153
 9615POPC   C1A58863  22.193   4.332   6.453
 9615POPC   D2A58864  22.134   4.322   6.753
 9615POPC   C3A58865  22.116   4.342   7.053
 9615POPC   C4A58866  22.182   4.343   7.353
 9615POPC   C1B58867  21.962   4.362   6.453
 9615POPC   C2B58868  21.908   4.410   6.753
 9615POPC   C3B58869  21.966   4.409   7.053
 9615POPC   C4B58870  21.952   4.343   7.353
 9616POPC   NC358871  32.254  41.582   5.553
 9616POPC   PO458872  32.283  41.515   5.853
 9616POPC   GL158873  32.233  41.604   6.153
 9616POPC   GL258874  32.136  41.623   6.153
 9616POPC   C1A58875  32.210  41.542   6.453
 9616POPC   D2A58876  32.231  41.541   6.753
 9616POPC   C3A58877  32.216  41.546   7.053
 9616POPC   C4A58878  32.266  41.581   7.353
 9616POPC   C1B58879  32.130  41.782   6.453
 9616POPC   C2B58880  32.148  41.786   6.753
 9616POPC   C3B58881  32.126  41.771   7.053
 9616POPC   C4B58882  32.127  41.754   7.353
 9617POPC   NC358883   8.156  10.506   5.553
 9617POPC   PO458884   8.193  10.537   5.853
 9617POPC   GL158885   8.150  10.567   6.153
 9617POPC   GL258886   8.074  10.571   6.153
 9617POPC   C1A58887   8.216  10.475   6.453
 9617POPC   D2A58888   8.212  10.570   6.753
 9617POPC   C3A58889   8.239  10.508   7.053
 9617POPC   C4A58890   8.153  10.476   7.353
 9617POPC   C1B58891   7.920  10.572   6.453
 9617POPC   C2B58892   7.910  10.509   6.753
 9617POPC   C3B58893   7.958  10.554   7.053
 9617POPC   C4B58894   7.982  10.558   7.353
 9618POPC   NC358895  42.304  43.149   5.553
 9618POPC   PO458896  42.315  43.063   5.853
 9618POPC   GL158897  42.356  43.065   6.153
 9618POPC   GL258898  42.264  43.125   6.153
 9618POPC   C1A58899  42.323  43.146   6.453
 9618POPC   D2A58900  42.291  43.071   6.753
 9618POPC   C3A58901  42.384  43.132   7.053
 9618POPC   C4A58902  42.341  43.114   7.353
 9618POPC   C1B58903  42.137  43.272   6.453
 9618POPC   C2B58904  42.126  43.286   6.753
 9618POPC   C3B58905  42.085  43.196   7.053
 9618POPC   C4B58906  42.101  43.215   7.353
 9619POPC   NC358907  28.382   1.185   5.553
 9619POPC   PO458908  28.330   1.244   5.853
 9619POPC   GL158909  28.331   1.250   6.153
 9619POPC   GL258910  28.452   1.275   6.153
 9619POPC   C1A58911  28.401   1.179   6.453
 9619POPC   D2A58912  28.380   1.187   6.753
 9619POPC   C3A58913  28.411   1.241   7.053
 9619POPC   C4A58914  28.392   1.218   7.353
 9619POPC   C1B58915  28.569   1.252   6.453
 9619POPC   C2B58916  28.629   1.254   6.753
 9619POPC   C3B58917  28.596   1.230   7.053
 9619POPC   C4B58918  28.592   1.245   7.353
 9620POPC   NC358919  30.675  34.578   5.553
 9620POPC   PO458920  30.738  34.595   5.853
 9620POPC   GL158921  30.661  34.552   6.153
 9620POPC   GL258922  30.766  34.696   6.153
 9620POPC   C1A58923  30.665  34.571   6.453
 9620POPC   D2A58924  30.711  34.590   6.753
 9620POPC   C3A58925  30.663  34.549   7.053
 9620POPC   C4A58926  30.730  34.595   7.353
 9620POPC   C1B58927  30.834  34.746   6.453
 9620POPC   C2B58928  30.826  34.752   6.753
 9620POPC   C3B58929  30.849  34.775   7.053
 9620POPC   C4B58930  30.858  34.766   7.353
 9621POPC   NC358931  29.955  34.623   5.553
 9621POPC   PO458932  29.924  34.551   5.853
 9621POPC   GL158933  29.900  34.530   6.153
 9621POPC   GL258934  29.983  34.686   6.153
 9621POPC   C1A58935  29.940  34.613   6.453
 9621POPC   D2A58936  29.922  34.582   6.753
 9621POPC   C3A58937  29.949  34.557   7.053
 9621POPC   C4A58938  29.871  34.600   7.353
 9621POPC   C1B58939  30.165  34.674   6.453
 9621POPC   C2B58940  30.176  34.755   6.753
 9621POPC   C3B58941  30.176  34.742   7.053
 9621POPC   C4B58942  30.162  34.694   7.353
 9622POPC   NC358943  12.855  42.344   5.553
 9622POPC   PO458944  12.811  42.352   5.853
 9622POPC   GL158945  12.815  42.351   6.153
 9622POPC   GL258946  12.944  42.404   6.153
 9622POPC   C1A58947  12.830  42.350   6.453
 9622POPC   D2A58948  12.888  42.319   6.753
 9622POPC   C3A58949  12.882  42.381   7.053
 9622POPC   C4A58950  12.860  42.370   7.353
 9622POPC   C1B58951  13.041  42.542   6.453
 9622POPC   C2B58952  13.067  42.509   6.753
 9622POPC   C3B58953  13.084  42.511   7.053
 9622POPC   C4B58954  13.036  42.494   7.353
 9623POPC   NC358955  18.271  18.302   5.553
 9623POPC   PO458956  18.237  18.332   5.853
 9623POPC   GL158957  18.295  18.313   6.153
 9623POPC   GL258958  18.208  18.281   6.153
 9623POPC   C1A58959  18.312  18.269   6.453
 9623POPC   D2A58960  18.288  18.271   6.753
 9623POPC   C3A58961  18.299  18.276   7.053
 9623POPC   C4A58962  18.315  18.330   7.353
 9623POPC   C1B58963  18.081  18.255   6.453
 9623POPC   C2B58964  18.037  18.235   6.753
 9623POPC   C3B58965  18.030  18.192   7.053
 9623POPC   C4B58966  18.010  18.177   7.353
 9624POPC   NC358967   9.767   8.967   5.553
 9624POPC   PO458968   9.794   8.968   5.853
 9624POPC   GL158969   9.767   8.945   6.153
 9624POPC   GL258970   9.895   8.875   6.153
 9624POPC   C1A58971   9.762   8.981   6.453
 9624POPC   D2A58972   9.728   9.003   6.753
 9624POPC   C3A58973   9.727   8.938   7.053
 9624POPC   C4A58974   9.744   8.989   7.353
 9624POPC   C1B58975  10.002   8.823   6.453
 9624POPC   C2B58976   9.987   8.897   6.753
 9624POPC   C3B58977  10.001   8.840   7.053
 9624POPC   C4B58978   9.968   8.834   7.353
 9625POPC   NC358979   2.034   8.183   5.553
 9625POPC   PO458980   2.030   8.187   5.853
 9625POPC   GL158981   1.990   8.173   6.153
 9625POPC   GL258982   2.139   8.158   6.153
 9625POPC   C1A58983   1.949   8.211   6.453
 9625POPC   D2A58984   1.984   8.242   6.753
 9625POPC   C3A58985   2.033   8.176   7.053
 9625POPC   C4A58986   1.993   8.211   7.353
 9625POPC   C1B58987   2.264   8.244   6.453
 9625POPC   C2B58988   2.265   8.193   6.753
 9625POPC   C3B58989   2.241   8.246   7.053
 9625POPC   C4B58990   2.264   8.203   7.353
 9626POPC   NC358991  21.417   2.005   5.553
 9626POPC   PO458992  21.413   1.975   5.853
 9626POPC   GL158993  21.407   1.951   6.153
 9626POPC   GL258994  21.448   2.039   6.153
 9626POPC   C1A58995  21.341   1.994   6.453
 9626POPC   D2A58996  21.420   1.997   6.753
 9626POPC   C3A58997  21.350   1.960   7.053
 9626POPC   C4A58998  21.347   2.000   7.353
 9626POPC   C1B58999  21.531   2.200   6.453
 9626POPC   C2B59000  21.539   2.140   6.753
 9626POPC   C3B59001  21.565   2.217   7.053
 9626POPC   C4B59002  21.574   2.213   7.353
 9627POPC   NC359003  29.174  31.512   5.553
 9627POPC   PO459004  29.136  31.423   5.853
 9627POPC   GL159005  29.138  31.491   6.153
 9627POPC   GL259006  29.228  31.381   6.153
 9627POPC   C1A59007  29.125  31.470   6.453
 9627POPC   D2A59008  29.177  31.476   6.753
 9627POPC   C3A59009  29.175  31.449   7.053
 9627POPC   C4A59010  29.155  31.509   7.353
 9627POPC   C1B59011  29.223  31.263   6.453
 9627POPC   C2B59012  29.246  31.229   6.753
 9627POPC   C3B59013  29.248  31.261   7.053
 9627POPC   C4B59014  29.183  31.189   7.353
 9628POPC   NC359015  39.194  17.478   5.553
 9628POPC   PO459016  39.258  17.508   5.853
 9628POPC   GL159017  39.254  17.533   6.153
 9628POPC   GL259018  39.233  17.582   6.153
 9628POPC   C1A59019  39.195  17.469   6.453
 9628POPC   D2A59020  39.185  17.532   6.753
 9628POPC   C3A59021  39.232  17.525   7.053
 9628POPC   C4A59022  39.186  17.477   7.353
 9628POPC   C1B59023  39.120  17.752   6.453
 9628POPC   C2B59024  39.115  17.701   6.753
 9628POPC   C3B59025  39.154  17.768   7.053
 9628POPC   C4B59026  39.128  17.702   7.353
 9629POPC   NC359027  35.315  22.116   5.553
 9629POPC   PO459028  35.339  22.204   5.853
 9629POPC   GL159029  35.384  22.166   6.153
 9629POPC   GL259030  35.494  22.209   6.153
 9629POPC   C1A59031  35.341  22.133   6.453
 9629POPC   D2A59032  35.359  22.152   6.753
 9629POPC   C3A59033  35.343  22.196   7.053
 9629POPC   C4A59034  35.385  22.208   7.353
 9629POPC   C1B59035  35.624  22.185   6.453
 9629POPC   C2B59036  35.590  22.194   6.753
 9629POPC   C3B59037  35.615  22.218   7.053
 9629POPC   C4B59038  35.549  22.222   7.353
 9630POPC   NC359039  10.514  21.356   5.553
 9630POPC   PO459040  10.541  21.350   5.853
 9630POPC   GL159041  10.524  21.364   6.153
 9630POPC   GL259042  10.471  21.491   6.153
 9630POPC   C1A59043  10.523  21.359   6.453
 9630POPC   D2A59044  10.523  21.353   6.753
 9630POPC   C3A59045  10.493  21.353   7.053
 9630POPC   C4A59046  10.500  21.369   7.353
 9630POPC   C1B59047  10.379  21.546   6.453
 9630POPC   C2B59048  10.342  21.563   6.753
 9630POPC   C3B59049  10.351  21.567   7.053
 9630POPC   C4B59050  10.346  21.552   7.353
 9631POPC   NC359051  18.329  44.612   5.553
 9631POPC   PO459052  18.313  44.670   5.853
 9631POPC   GL159053  18.253  44.679   6.153
 9631POPC   GL259054  18.218  44.546   6.153
 9631POPC   C1A59055  18.301  44.693   6.453
 9631POPC   D2A59056  18.268  44.670   6.753
 9631POPC   C3A59057  18.323  44.623   7.053
 9631POPC   C4A59058  18.245  44.643   7.353
 9631POPC   C1B59059  18.068  44.555   6.453
 9631POPC   C2B59060  18.053  44.519   6.753
 9631POPC   C3B59061  18.096  44.467   7.053
 9631POPC   C4B59062  18.073  44.496   7.353
 9632POPC   NC359063  36.912  28.416   5.553
 9632POPC   PO459064  36.906  28.351   5.853
 9632POPC   GL159065  36.916  28.411   6.153
 9632POPC   GL259066  36.833  28.276   6.153
 9632POPC   C1A59067  36.935  28.415   6.453
 9632POPC   D2A59068  36.921  28.414   6.753
 9632POPC   C3A59069  36.892  28.347   7.053
 9632POPC   C4A59070  36.872  28.387   7.353
 9632POPC   C1B59071  36.721  28.278   6.453
 9632POPC   C2B59072  36.700  28.249   6.753
 9632POPC   C3B59073  36.723  28.226   7.053
 9632POPC   C4B59074  36.701  28.224   7.353
 9633POPC   NC359075  37.673  15.927   5.553
 9633POPC   PO459076  37.729  15.958   5.853
 9633POPC   GL159077  37.705  15.931   6.153
 9633POPC   GL259078  37.795  16.015   6.153
 9633POPC   C1A59079  37.701  15.944   6.453
 9633POPC   D2A59080  37.697  15.960   6.753
 9633POPC   C3A59081  37.669  15.991   7.053
 9633POPC   C4A59082  37.637  15.928   7.353
 9633POPC   C1B59083  37.947  16.039   6.453
 9633POPC   C2B59084  37.954  16.036   6.753
 9633POPC   C3B59085  37.883  16.046   7.053
 9633POPC   C4B59086  37.945  16.006   7.353
 9634POPC   NC359087  34.620  22.968   5.553
 9634POPC   PO459088  34.600  22.898   5.853
 9634POPC   GL159089  34.575  22.924   6.153
 9634POPC   GL259090  34.408  22.976   6.153
 9634POPC   C1A59091  34.549  22.987   6.453
 9634POPC   D2A59092  34.619  22.986   6.753
 9634POPC   C3A59093  34.601  22.888   7.053
 9634POPC   C4A59094  34.595  22.931   7.353
 9634POPC   C1B59095  34.369  22.973   6.453
 9634POPC   C2B59096  34.360  22.999   6.753
 9634POPC   C3B59097  34.322  23.040   7.053
 9634POPC   C4B59098  34.367  23.033   7.353
 9635POPC   NC359099   8.935  12.103   5.553
 9635POPC   PO459100   8.948  12.072   5.853
 9635POPC   GL159101   8.973  12.051   6.153
 9635POPC   GL259102   9.122  12.034   6.153
 9635POPC   C1A59103   8.974  12.111   6.453
 9635POPC   D2A59104   8.952  12.037   6.753
 9635POPC   C3A59105   8.953  12.088   7.053
 9635POPC   C4A59106   8.996  12.120   7.353
 9635POPC   C1B59107   9.233  11.987   6.453
 9635POPC   C2B59108   9.167  11.895   6.753
 9635POPC   C3B59109   9.229  11.944   7.053
 9635POPC   C4B59110   9.195  11.975   7.353
 9636POPC   NC359111   9.002  22.953   5.553
 9636POPC   PO459112   8.982  22.890   5.853
 9636POPC   GL159113   9.015  22.919   6.153
 9636POPC   GL259114   8.958  22.835   6.153
 9636POPC   C1A59115   8.970  22.925   6.453
 9636POPC   D2A59116   8.975  22.981   6.753
 9636POPC   C3A59117   8.934  22.958   7.053
 9636POPC   C4A59118   8.927  22.912   7.353
 9636POPC   C1B59119   8.900  22.741   6.453
 9636POPC   C2B59120   8.875  22.656   6.753
 9636POPC   C3B59121   8.864  22.671   7.053
 9636POPC   C4B59122   8.873  22.658   7.353
 9637POPC   NC359123  36.079   1.968   5.553
 9637POPC   PO459124  36.087   2.021   5.853
 9637POPC   GL159125  36.089   1.969   6.153
 9637POPC   GL259126  35.971   2.018   6.153
 9637POPC   C1A59127  36.128   1.988   6.453
 9637POPC   D2A59128  36.131   1.999   6.753
 9637POPC   C3A59129  36.149   2.037   7.053
 9637POPC   C4A59130  36.120   2.000   7.353
 9637POPC   C1B59131  35.865   2.010   6.453
 9637POPC   C2B59132  35.882   2.013   6.753
 9637POPC   C3B59133  35.903   1.939   7.053
 9637POPC   C4B59134  35.893   2.000   7.353
 9638POPC   NC359135  37.695  44.628   5.553
 9638POPC   PO459136  37.684  44.684   5.853
 9638POPC   GL159137  37.670  44.692   6.153
 9638POPC   GL259138  37.748  44.725   6.153
 9638POPC   C1A59139  37.651  44.626   6.453
 9638POPC   D2A59140  37.682  44.629   6.753
 9638POPC   C3A59141  37.650  44.612   7.053
 9638POPC   C4A59142  37.643  44.686   7.353
 9638POPC   C1B59143  37.940  44.793   6.453
 9638POPC   C2B59144  37.945  44.760   6.753
 9638POPC   C3B59145  37.898  44.736   7.053
 9638POPC   C4B59146  37.938  44.802   7.353
 9639POPC   NC359147   1.197  30.734   5.553
 9639POPC   PO459148   1.212  30.695   5.853
 9639POPC   GL159149   1.262  30.681   6.153
 9639POPC   GL259150   1.249  30.605   6.153
 9639POPC   C1A59151   1.218  30.700   6.453
 9639POPC   D2A59152   1.176  30.703   6.753
 9639POPC   C3A59153   1.202  30.662   7.053
 9639POPC   C4A59154   1.226  30.681   7.353
 9639POPC   C1B59155   1.227  30.457   6.453
 9639POPC   C2B59156   1.200  30.414   6.753
 9639POPC   C3B59157   1.184  30.469   7.053
 9639POPC   C4B59158   1.217  30.417   7.353
 9640POPC   NC359159  12.890   0.448   5.553
 9640POPC   PO459160  12.838   0.409   5.853
 9640POPC   GL159161  12.886   0.446   6.153
 9640POPC   GL259162  12.918   0.505   6.153
 9640POPC   C1A59163  12.868   0.438   6.453
 9640POPC   D2A59164  12.830   0.445   6.753
 9640POPC   C3A59165  12.831   0.424   7.053
 9640POPC   C4A59166  12.810   0.445   7.353
 9640POPC   C1B59167  13.089   0.507   6.453
 9640POPC   C2B59168  13.117   0.536   6.753
 9640POPC   C3B59169  13.096   0.570   7.053
 9640POPC   C4B59170  13.097   0.503   7.353
 9641POPC   NC359171  39.239  19.028   5.553
 9641POPC   PO459172  39.275  19.090   5.853
 9641POPC   GL159173  39.200  19.067   6.153
 9641POPC   GL259174  39.323  18.913   6.153
 9641POPC   C1A59175  39.211  19.041   6.453
 9641POPC   D2A59176  39.192  19.097   6.753
 9641POPC   C3A59177  39.276  19.016   7.053
 9641POPC   C4A59178  39.228  19.102   7.353
 9641POPC   C1B59179  39.356  18.776   6.453
 9641POPC   C2B59180  39.320  18.782   6.753
 9641POPC   C3B59181  39.281  18.840   7.053
 9641POPC   C4B59182  39.333  18.873   7.353
 9642POPC   NC359183  36.107  26.067   5.553
 9642POPC   PO459184  36.142  26.071   5.853
 9642POPC   GL159185  36.160  26.039   6.153
 9642POPC   GL259186  36.181  26.128   6.153
 9642POPC   C1A59187  36.101  26.084   6.453
 9642POPC   D2A59188  36.152  26.034   6.753
 9642POPC   C3A59189  36.159  26.029   7.053
 9642POPC   C4A59190  36.170  26.058   7.353
 9642POPC   C1B59191  36.284  26.160   6.453
 9642POPC   C2B59192  36.270  26.199   6.753
 9642POPC   C3B59193  36.296  26.171   7.053
 9642POPC   C4B59194  36.340  26.216   7.353
 9643POPC   NC359195  43.106   8.177   5.553
 9643POPC   PO459196  43.150   8.226   5.853
 9643POPC   GL159197  43.105   8.243   6.153
 9643POPC   GL259198  43.266   8.233   6.153
 9643POPC   C1A59199  43.147   8.211   6.453
 9643POPC   D2A59200  43.128   8.240   6.753
 9643POPC   C3A59201  43.084   8.156   7.053
 9643POPC   C4A59202  43.097   8.198   7.353
 9643POPC   C1B59203  43.357   8.210   6.453
 9643POPC   C2B59204  43.344   8.204   6.753
 9643POPC   C3B59205  43.380   8.265   7.053
 9643POPC   C4B59206  43.392   8.194   7.353
 9644POPC   NC359207  17.503   0.393   5.553
 9644POPC   PO459208  17.476   0.402   5.853
 9644POPC   GL159209  17.520   0.423   6.153
 9644POPC   GL259210  17.393   0.549   6.153
 9644POPC   C1A59211  17.541   0.464   6.453
 9644POPC   D2A59212  17.459   0.469   6.753
 9644POPC   C3A59213  17.522   0.391   7.053
 9644POPC   C4A59214  17.533   0.406   7.353
 9644POPC   C1B59215  17.337   0.612   6.453
 9644POPC   C2B59216  17.388   0.632   6.753
 9644POPC   C3B59217  17.360   0.672   7.053
 9644POPC   C4B59218  17.367   0.688   7.353
 9645POPC   NC359219  14.394   5.838   5.553
 9645POPC   PO459220  14.363   5.893   5.853
 9645POPC   GL159221  14.360   5.917   6.153
 9645POPC   GL259222  14.489   5.860   6.153
 9645POPC   C1A59223  14.406   5.836   6.453
 9645POPC   D2A59224  14.394   5.894   6.753
 9645POPC   C3A59225  14.366   5.901   7.053
 9645POPC   C4A59226  14.385   5.850   7.353
 9645POPC   C1B59227  14.621   5.933   6.453
 9645POPC   C2B59228  14.604   5.949   6.753
 9645POPC   C3B59229  14.607   5.862   7.053
 9645POPC   C4B59230  14.679   5.955   7.353
 9646POPC   NC359231  28.407  26.854   5.553
 9646POPC   PO459232  28.378  26.814   5.853
 9646POPC   GL159233  28.322  26.811   6.153
 9646POPC   GL259234  28.394  26.910   6.153
 9646POPC   C1A59235  28.368  26.797   6.453
 9646POPC   D2A59236  28.345  26.835   6.753
 9646POPC   C3A59237  28.377  26.856   7.053
 9646POPC   C4A59238  28.404  26.831   7.353
 9646POPC   C1B59239  28.489  27.080   6.453
 9646POPC   C2B59240  28.504  27.054   6.753
 9646POPC   C3B59241  28.499  27.094   7.053
 9646POPC   C4B59242  28.445  27.015   7.353
 9647POPC   NC359243  28.356  13.584   5.553
 9647POPC   PO459244  28.357  13.634   5.853
 9647POPC   GL159245  28.360  13.644   6.153
 9647POPC   GL259246  28.266  13.709   6.153
 9647POPC   C1A59247  28.368  13.599   6.453
 9647POPC   D2A59248  28.345  13.617   6.753
 9647POPC   C3A59249  28.332  13.672   7.053
 9647POPC   C4A59250  28.356  13.583   7.353
 9647POPC   C1B59251  28.156  13.834   6.453
 9647POPC   C2B59252  28.232  13.771   6.753
 9647POPC   C3B59253  28.148  13.786   7.053
 9647POPC   C4B59254  28.183  13.852   7.353
 9648POPC   NC359255  15.969  12.125   5.553
 9648POPC   PO459256  15.937  12.088   5.853
 9648POPC   GL159257  16.004  12.071   6.153
 9648POPC   GL259258  16.045  12.067   6.153
 9648POPC   C1A59259  15.995  12.036   6.453
 9648POPC   D2A59260  15.986  12.112   6.753
 9648POPC   C3A59261  15.956  12.029   7.053
 9648POPC   C4A59262  15.952  12.029   7.353
 9648POPC   C1B59263  16.185  12.076   6.453
 9648POPC   C2B59264  16.223  12.043   6.753
 9648POPC   C3B59265  16.251  11.994   7.053
 9648POPC   C4B59266  16.247  12.057   7.353
 9649POPC   NC359267  29.948  22.134   5.553
 9649POPC   PO459268  29.926  22.148   5.853
 9649POPC   GL159269  29.948  22.115   6.153
 9649POPC   GL259270  29.765  22.250   6.153
 9649POPC   C1A59271  29.894  22.145   6.453
 9649POPC   D2A59272  29.915  22.161   6.753
 9649POPC   C3A59273  29.930  22.193   7.053
 9649POPC   C4A59274  29.943  22.163   7.353
 9649POPC   C1B59275  29.671  22.313   6.453
 9649POPC   C2B59276  29.683  22.293   6.753
 9649POPC   C3B59277  29.670  22.301   7.053
 9649POPC   C4B59278  29.734  22.265   7.353
 9650POPC   NC359279  10.501  43.845   5.553
 9650POPC   PO459280  10.519  43.844   5.853
 9650POPC   GL159281  10.563  43.864   6.153
 9650POPC   GL259282  10.397  43.901   6.153
 9650POPC   C1A59283  10.516  43.880   6.453
 9650POPC   D2A59284  10.551  43.908   6.753
 9650POPC   C3A59285  10.548  43.856   7.053
 9650POPC   C4A59286  10.570  43.871   7.353
 9650POPC   C1B59287  10.284  43.920   6.453
 9650POPC   C2B59288  10.307  43.949   6.753
 9650POPC   C3B59289  10.327  43.977   7.053
 9650POPC   C4B59290  10.293  43.966   7.353
 9651POPC   NC359291  44.658  19.827   5.553
 9651POPC   PO459292  44.697  19.821   5.853
 9651POPC   GL159293  44.617  19.840   6.153
 9651POPC   GL259294  44.663  19.943   6.153
 9651POPC   C1A59295  44.661  19.812   6.453
 9651POPC   D2A59296  44.637  19.842   6.753
 9651POPC   C3A59297  44.664  19.860   7.053
 9651POPC   C4A59298  44.677  19.790   7.353
 9651POPC   C1B59299  44.651  20.090   6.453
 9651POPC   C2B59300  44.614  20.049   6.753
 9651POPC   C3B59301  44.593  20.080   7.053
 9651POPC   C4B59302  44.648  20.102   7.353
 9652POPC   NC359303   9.743  39.276   5.553
 9652POPC   PO459304   9.711  39.183   5.853
 9652POPC   GL159305   9.699  39.203   6.153
 9652POPC   GL259306   9.876  39.274   6.153
 9652POPC   C1A59307   9.728  39.253   6.453
 9652POPC   D2A59308   9.720  39.185   6.753
 9652POPC   C3A59309   9.712  39.191   7.053
 9652POPC   C4A59310   9.767  39.182   7.353
 9652POPC   C1B59311  10.041  39.249   6.453
 9652POPC   C2B59312   9.981  39.309   6.753
 9652POPC   C3B59313   9.978  39.294   7.053
 9652POPC   C4B59314  10.015  39.321   7.353
 9653POPC   NC359315  16.754   7.444   5.553
 9653POPC   PO459316  16.758   7.421   5.853
 9653POPC   GL159317  16.727   7.389   6.153
 9653POPC   GL259318  16.855   7.322   6.153
 9653POPC   C1A59319  16.776   7.470   6.453
 9653POPC   D2A59320  16.780   7.387   6.753
 9653POPC   C3A59321  16.759   7.422   7.053
 9653POPC   C4A59322  16.719   7.414   7.353
 9653POPC   C1B59323  16.945   7.238   6.453
 9653POPC   C2B59324  16.943   7.243   6.753
 9653POPC   C3B59325  16.921   7.246   7.053
 9653POPC   C4B59326  16.892   7.237   7.353
 9654POPC   NC359327  30.714  22.163   5.553
 9654POPC   PO459328  30.731  22.181   5.853
 9654POPC   GL159329  30.681  22.198   6.153
 9654POPC   GL259330  30.795  22.153   6.153
 9654POPC   C1A59331  30.728  22.198   6.453
 9654POPC   D2A59332  30.668  22.136   6.753
 9654POPC   C3A59333  30.738  22.187   7.053
 9654POPC   C4A59334  30.677  22.207   7.353
 9654POPC   C1B59335  30.903  22.105   6.453
 9654POPC   C2B59336  30.973  22.151   6.753
 9654POPC   C3B59337  30.954  22.125   7.053
 9654POPC   C4B59338  30.976  22.152   7.353
 9655POPC   NC359339   9.790  15.968   5.553
 9655POPC   PO459340   9.699  16.000   5.853
 9655POPC   GL159341   9.719  15.970   6.153
 9655POPC   GL259342   9.782  16.062   6.153
 9655POPC   C1A59343   9.707  16.003   6.453
 9655POPC   D2A59344   9.770  15.946   6.753
 9655POPC   C3A59345   9.730  15.991   7.053
 9655POPC   C4A59346   9.730  15.915   7.353
 9655POPC   C1B59347   9.930  16.131   6.453
 9655POPC   C2B59348   9.907  16.123   6.753
 9655POPC   C3B59349   9.916  16.159   7.053
 9655POPC   C4B59350   9.881  16.208   7.353
 9656POPC   NC359351  41.548  32.202   5.553
 9656POPC   PO459352  41.513  32.289   5.853
 9656POPC   GL159353  41.547  32.230   6.153
 9656POPC   GL259354  41.555  32.080   6.153
 9656POPC   C1A59355  41.547  32.233   6.453
 9656POPC   D2A59356  41.595  32.266   6.753
 9656POPC   C3A59357  41.566  32.282   7.053
 9656POPC   C4A59358  41.563  32.285   7.353
 9656POPC   C1B59359  41.485  32.028   6.453
 9656POPC   C2B59360  41.568  32.047   6.753
 9656POPC   C3B59361  41.486  31.982   7.053
 9656POPC   C4B59362  41.566  32.015   7.353
 9657POPC   NC359363  33.755  32.982   5.553
 9657POPC   PO459364  33.753  32.986   5.853
 9657POPC   GL159365  33.752  33.017   6.153
 9657POPC   GL259366  33.771  32.914   6.153
 9657POPC   C1A59367  33.759  33.062   6.453
 9657POPC   D2A59368  33.806  33.037   6.753
 9657POPC   C3A59369  33.791  33.064   7.053
 9657POPC   C4A59370  33.763  33.054   7.353
 9657POPC   C1B59371  33.726  32.814   6.453
 9657POPC   C2B59372  33.725  32.813   6.753
 9657POPC   C3B59373  33.713  32.752   7.053
 9657POPC   C4B59374  33.742  32.803   7.353
 9658POPC   NC359375   2.032  30.654   5.553
 9658POPC   PO459376   2.002  30.683   5.853
 9658POPC   GL159377   2.032  30.705   6.153
 9658POPC   GL259378   1.893  30.593   6.153
 9658POPC   C1A59379   1.990  30.688   6.453
 9658POPC   D2A59380   1.949  30.647   6.753
 9658POPC   C3A59381   1.984  30.653   7.053
 9658POPC   C4A59382   2.000  30.697   7.353
 9658POPC   C1B59383   1.831  30.442   6.453
 9658POPC   C2B59384   1.874  30.505   6.753
 9658POPC   C3B59385   1.836  30.491   7.053
 9658POPC   C4B59386   1.874  30.524   7.353
 9659POPC   NC359387  22.168  26.070   5.553
 9659POPC   PO459388  22.191  26.018   5.853
 9659POPC   GL159389  22.146  26.076   6.153
 9659POPC   GL259390  22.160  25.894   6.153
 9659POPC   C1A59391  22.189  26.026   6.453
 9659POPC   D2A59392  22.164  26.035   6.753
 9659POPC   C3A59393  22.180  26.052   7.053
 9659POPC   C4A59394  22.187  26.032   7.353
 9659POPC   C1B59395  22.153  25.772   6.453
 9659POPC   C2B59396  22.224  25.791   6.753
 9659POPC   C3B59397  22.170  25.779   7.053
 9659POPC   C4B59398  22.209  25.762   7.353
 9660POPC   NC359399  17.493  10.572   5.553
 9660POPC   PO459400  17.510  10.501   5.853
 9660POPC   GL159401  17.513  10.497   6.153
 9660POPC   GL259402  17.460  10.375   6.153
 9660POPC   C1A59403  17.501  10.514   6.453
 9660POPC   D2A59404  17.529  10.523   6.753
 9660POPC   C3A59405  17.528  10.492   7.053
 9660POPC   C4A59406  17.515  10.557   7.353
 9660POPC   C1B59407  17.453  10.254   6.453
 9660POPC   C2B59408  17.456  10.243   6.753
 9660POPC   C3B59409  17.487  10.300   7.053
 9660POPC   C4B59410  17.431  10.246   7.353
 9661POPC   NC359411  35.392  22.971   5.553
 9661POPC   PO459412  35.380  22.935   5.853
 9661POPC   GL159413  35.399  22.936   6.153
 9661POPC   GL259414  35.282  23.026   6.153
 9661POPC   C1A59415  35.391  22.903   6.453
 9661POPC   D2A59416  35.383  22.890   6.753
 9661POPC   C3A59417  35.385  22.957   7.053
 9661POPC   C4A59418  35.308  22.936   7.353
 9661POPC   C1B59419  35.223  23.174   6.453
 9661POPC   C2B59420  35.222  23.113   6.753
 9661POPC   C3B59421  35.225  23.130   7.053
 9661POPC   C4B59422  35.286  23.191   7.353
 9662POPC   NC359423  12.029  38.473   5.553
 9662POPC   PO459424  12.093  38.406   5.853
 9662POPC   GL159425  12.070  38.495   6.153
 9662POPC   GL259426  11.921  38.496   6.153
 9662POPC   C1A59427  12.116  38.487   6.453
 9662POPC   D2A59428  12.041  38.420   6.753
 9662POPC   C3A59429  12.089  38.412   7.053
 9662POPC   C4A59430  12.081  38.452   7.353
 9662POPC   C1B59431  11.818  38.519   6.453
 9662POPC   C2B59432  11.814  38.533   6.753
 9662POPC   C3B59433  11.841  38.503   7.053
 9662POPC   C4B59434  11.885  38.525   7.353
 9663POPC   NC359435  34.583  42.324   5.553
 9663POPC   PO459436  34.532  42.380   5.853
 9663POPC   GL159437  34.530  42.312   6.153
 9663POPC   GL259438  34.508  42.403   6.153
 9663POPC   C1A59439  34.596  42.285   6.453
 9663POPC   D2A59440  34.559  42.351   6.753
 9663POPC   C3A59441  34.544  42.375   7.053
 9663POPC   C4A59442  34.560  42.358   7.353
 9663POPC   C1B59443  34.394  42.444   6.453
 9663POPC   C2B59444  34.314  42.453   6.753
 9663POPC   C3B59445  34.316  42.441   7.053
 9663POPC   C4B59446  34.348  42.501   7.353
 9664POPC   NC359447  19.841  42.298   5.553
 9664POPC   PO459448  19.860  42.307   5.853
 9664POPC   GL159449  19.804  42.341   6.153
 9664POPC   GL259450  19.970  42.287   6.153
 9664POPC   C1A59451  19.813  42.330   6.453
 9664POPC   D2A59452  19.859  42.382   6.753
 9664POPC   C3A59453  19.866  42.368   7.053
 9664POPC   C4A59454  19.844  42.294   7.353
 9664POPC   C1B59455  20.031  42.302   6.453
 9664POPC   C2B59456  20.053  42.310   6.753
 9664POPC   C3B59457  20.081  42.308   7.053
 9664POPC   C4B59458  20.124  42.250   7.353
 9665POPC   NC359459   5.911   8.999   5.553
 9665POPC   PO459460   5.909   8.973   5.853
 9665POPC   GL159461   5.883   9.005   6.153
 9665POPC   GL259462   5.758   8.999   6.153
 9665POPC   C1A59463   5.893   8.941   6.453
 9665POPC   D2A59464   5.882   9.013   6.753
 9665POPC   C3A59465   5.876   8.949   7.053
 9665POPC   C4A59466   5.836   8.964   7.353
 9665POPC   C1B59467   5.657   8.998   6.453
 9665POPC   C2B59468   5.603   9.042   6.753
 9665POPC   C3B59469   5.621   9.038   7.053
 9665POPC   C4B59470   5.582   9.028   7.353
 9666POPC   NC359471  15.994  15.141   5.553
 9666POPC   PO459472  15.961  15.158   5.853
 9666POPC   GL159473  15.929  15.147   6.153
 9666POPC   GL259474  15.982  15.012   6.153
 9666POPC   C1A59475  15.973  15.189   6.453
 9666POPC   D2A59476  15.926  15.181   6.753
 9666POPC   C3A59477  16.003  15.153   7.053
 9666POPC   C4A59478  15.976  15.214   7.353
 9666POPC   C1B59479  15.991  14.923   6.453
 9666POPC   C2B59480  15.970  14.911   6.753
 9666POPC   C3B59481  15.992  14.902   7.053
 9666POPC   C4B59482  15.907  14.977   7.353
 9667POPC   NC359483   9.011  10.553   5.553
 9667POPC   PO459484   8.967  10.503   5.853
 9667POPC   GL159485   8.941  10.515   6.153
 9667POPC   GL259486   8.836  10.504   6.153
 9667POPC   C1A59487   8.985  10.541   6.453
 9667POPC   D2A59488   8.996  10.499   6.753
 9667POPC   C3A59489   9.014  10.560   7.053
 9667POPC   C4A59490   9.015  10.505   7.353
 9667POPC   C1B59491   8.720  10.475   6.453
 9667POPC   C2B59492   8.722  10.431   6.753
 9667POPC   C3B59493   8.745  10.486   7.053
 9667POPC   C4B59494   8.764  10.457   7.353
 9668POPC   NC359495  21.378  13.582   5.553
 9668POPC   PO459496  21.362  13.630   5.853
 9668POPC   GL159497  21.429  13.591   6.153
 9668POPC   GL259498  21.491  13.607   6.153
 9668POPC   C1A59499  21.418  13.673   6.453
 9668POPC   D2A59500  21.385  13.600   6.753
 9668POPC   C3A59501  21.382  13.666   7.053
 9668POPC   C4A59502  21.366  13.672   7.353
 9668POPC   C1B59503  21.672  13.632   6.453
 9668POPC   C2B59504  21.596  13.608   6.753
 9668POPC   C3B59505  21.616  13.562   7.053
 9668POPC   C4B59506  21.611  13.640   7.353
 9669POPC   NC359507  20.573   9.014   5.553
 9669POPC   PO459508  20.660   9.009   5.853
 9669POPC   GL159509  20.582   8.980   6.153
 9669POPC   GL259510  20.523   8.927   6.153
 9669POPC   C1A59511  20.635   9.009   6.453
 9669POPC   D2A59512  20.619   8.976   6.753
 9669POPC   C3A59513  20.647   8.975   7.053
 9669POPC   C4A59514  20.656   9.001   7.353
 9669POPC   C1B59515  20.402   8.936   6.453
 9669POPC   C2B59516  20.389   8.927   6.753
 9669POPC   C3B59517  20.391   8.960   7.053
 9669POPC   C4B59518  20.400   8.983   7.353
 9670POPC   NC359519  26.084   1.185   5.553
 9670POPC   PO459520  26.016   1.185   5.853
 9670POPC   GL159521  26.050   1.253   6.153
 9670POPC   GL259522  26.139   1.200   6.153
 9670POPC   C1A59523  25.998   1.247   6.453
 9670POPC   D2A59524  26.006   1.236   6.753
 9670POPC   C3A59525  26.091   1.253   7.053
 9670POPC   C4A59526  26.056   1.245   7.353
 9670POPC   C1B59527  26.265   1.163   6.453
 9670POPC   C2B59528  26.243   1.119   6.753
 9670POPC   C3B59529  26.278   1.154   7.053
 9670POPC   C4B59530  26.255   1.101   7.353
 9671POPC   NC359531  21.360  12.117   5.553
 9671POPC   PO459532  21.356  12.121   5.853
 9671POPC   GL159533  21.393  12.062   6.153
 9671POPC   GL259534  21.442  12.127   6.153
 9671POPC   C1A59535  21.360  12.079   6.453
 9671POPC   D2A59536  21.409  12.083   6.753
 9671POPC   C3A59537  21.376  12.120   7.053
 9671POPC   C4A59538  21.384  12.086   7.353
 9671POPC   C1B59539  21.609  12.272   6.453
 9671POPC   C2B59540  21.603  12.229   6.753
 9671POPC   C3B59541  21.598  12.289   7.053
 9671POPC   C4B59542  21.595  12.267   7.353
 9672POPC   NC359543   2.756  42.301   5.553
 9672POPC   PO459544   2.731  42.371   5.853
 9672POPC   GL159545   2.797  42.380   6.153
 9672POPC   GL259546   2.629  42.302   6.153
 9672POPC   C1A59547   2.807  42.342   6.453
 9672POPC   D2A59548   2.743  42.348   6.753
 9672POPC   C3A59549   2.777  42.384   7.053
 9672POPC   C4A59550   2.761  42.309   7.353
 9672POPC   C1B59551   2.568  42.219   6.453
 9672POPC   C2B59552   2.540  42.271   6.753
 9672POPC   C3B59553   2.497  42.201   7.053
 9672POPC   C4B59554   2.550  42.207   7.353
 9673POPC   NC359555  15.935  17.525   5.553
 9673POPC   PO459556  15.976  17.528   5.853
 9673POPC   GL159557  15.984  17.543   6.153
 9673POPC   GL259558  15.807  17.486   6.153
 9673POPC   C1A59559  15.916  17.550   6.453
 9673POPC   D2A59560  15.976  17.531   6.753
 9673POPC   C3A59561  15.992  17.501   7.053
 9673POPC   C4A59562  15.938  17.507   7.353
 9673POPC   C1B59563  15.784  17.432   6.453
 9673POPC   C2B59564  15.740  17.406   6.753
 9673POPC   C3B59565  15.697  17.352   7.053
 9673POPC   C4B59566  15.735  17.436   7.353
 9674POPC   NC359567  37.722  29.944   5.553
 9674POPC   PO459568  37.697  29.887   5.853
 9674POPC   GL159569  37.698  29.920   6.153
 9674POPC   GL259570  37.719  30.045   6.153
 9674POPC   C1A59571  37.706  29.961   6.453
 9674POPC   D2A59572  37.728  29.930   6.753
 9674POPC   C3A59573  37.645  29.928   7.053
 9674POPC   C4A59574  37.669  29.907   7.353
 9674POPC   C1B59575  37.620  30.159   6.453
 9674POPC   C2B59576  37.630  30.220   6.753
 9674POPC   C3B59577  37.691  30.195   7.053
 9674POPC   C4B59578  37.696  30.122   7.353
 9675POPC   NC359579  33.004   8.929   5.553
 9675POPC   PO459580  33.041   8.987   5.853
 9675POPC   GL159581  33.070   8.960   6.153
 9675POPC   GL259582  32.922   9.033   6.153
 9675POPC   C1A59583  33.008   8.969   6.453
 9675POPC   D2A59584  33.012   8.949   6.753
 9675POPC   C3A59585  33.001   8.927   7.053
 9675POPC   C4A59586  33.045   8.964   7.353
 9675POPC   C1B59587  32.765   9.026   6.453
 9675POPC   C2B59588  32.760   9.034   6.753
 9675POPC   C3B59589  32.748   9.056   7.053
 9675POPC   C4B59590  32.799   9.003   7.353
 9676POPC   NC359591  26.044  18.281   5.553
 9676POPC   PO459592  26.007  18.293   5.853
 9676POPC   GL159593  26.044  18.282   6.153
 9676POPC   GL259594  26.030  18.366   6.153
 9676POPC   C1A59595  26.040  18.303   6.453
 9676POPC   D2A59596  26.070  18.268   6.753
 9676POPC   C3A59597  25.992  18.297   7.053
 9676POPC   C4A59598  26.054  18.281   7.353
 9676POPC   C1B59599  26.038  18.570   6.453
 9676POPC   C2B59600  25.984  18.531   6.753
 9676POPC   C3B59601  25.949  18.510   7.053
 9676POPC   C4B59602  25.992  18.516   7.353
 9677POPC   NC359603   9.774  29.900   5.553
 9677POPC   PO459604   9.773  29.920   5.853
 9677POPC   GL159605   9.699  29.924   6.153
 9677POPC   GL259606   9.721  29.792   6.153
 9677POPC   C1A59607   9.781  29.914   6.453
 9677POPC   D2A59608   9.790  29.886   6.753
 9677POPC   C3A59609   9.757  29.899   7.053
 9677POPC   C4A59610   9.743  29.950   7.353
 9677POPC   C1B59611   9.690  29.733   6.453
 9677POPC   C2B59612   9.644  29.657   6.753
 9677POPC   C3B59613   9.674  29.733   7.053
 9677POPC   C4B59614   9.610  29.644   7.353
 9678POPC   NC359615   7.409   9.718   5.553
 9678POPC   PO459616   7.387   9.738   5.853
 9678POPC   GL159617   7.410   9.762   6.153
 9678POPC   GL259618   7.565   9.726   6.153
 9678POPC   C1A59619   7.375   9.772   6.453
 9678POPC   D2A59620   7.413   9.754   6.753
 9678POPC   C3A59621   7.426   9.765   7.053
 9678POPC   C4A59622   7.430   9.712   7.353
 9678POPC   C1B59623   7.700   9.784   6.453
 9678POPC   C2B59624   7.653   9.753   6.753
 9678POPC   C3B59625   7.692   9.737   7.053
 9678POPC   C4B59626   7.620   9.724   7.353
 9679POPC   NC359627  26.031  40.048   5.553
 9679POPC   PO459628  26.018  39.995   5.853
 9679POPC   GL159629  26.062  39.957   6.153
 9679POPC   GL259630  25.960  40.086   6.153
 9679POPC   C1A59631  26.072  40.001   6.453
 9679POPC   D2A59632  26.046  39.991   6.753
 9679POPC   C3A59633  26.050  39.993   7.053
 9679POPC   C4A59634  25.993  39.971   7.353
 9679POPC   C1B59635  25.889  40.158   6.453
 9679POPC   C2B59636  25.837  40.212   6.753
 9679POPC   C3B59637  25.903  40.197   7.053
 9679POPC   C4B59638  25.826  40.229   7.353
 9680POPC   NC359639  15.906  19.060   5.553
 9680POPC   PO459640  15.983  19.027   5.853
 9680POPC   GL159641  15.918  19.065   6.153
 9680POPC   GL259642  15.820  19.184   6.153
 9680POPC   C1A59643  15.943  19.059   6.453
 9680POPC   D2A59644  15.974  19.082   6.753
 9680POPC   C3A59645  15.988  19.067   7.053
 9680POPC   C4A59646  15.999  19.082   7.353
 9680POPC   C1B59647  15.711  19.202   6.453
 9680POPC   C2B59648  15.770  19.193   6.753
 9680POPC   C3B59649  15.736  19.243   7.053
 9680POPC   C4B59650  15.720  19.181   7.353
 9681POPC   NC359651  19.098   5.839   5.553
 9681POPC   PO459652  19.087   5.865   5.853
 9681POPC   GL159653  19.027   5.882   6.153
 9681POPC   GL259654  19.117   5.993   6.153
 9681POPC   C1A59655  19.032   5.880   6.453
 9681POPC   D2A59656  19.017   5.901   6.753
 9681POPC   C3A59657  19.076   5.896   7.053
 9681POPC   C4A59658  19.051   5.873   7.353
 9681POPC   C1B59659  19.211   6.070   6.453
 9681POPC   C2B59660  19.241   6.070   6.753
 9681POPC   C3B59661  19.245   6.014   7.053
 9681POPC   C4B59662  19.239   6.081   7.353
 9682POPC   NC359663  11.257  26.795   5.553
 9682POPC   PO459664  11.301  26.820   5.853
 9682POPC   GL159665  11.312  26.851   6.153
 9682POPC   GL259666  11.194  26.666   6.153
 9682POPC   C1A59667  11.342  26.843   6.453
 9682POPC   D2A59668  11.321  26.809   6.753
 9682POPC   C3A59669  11.289  26.860   7.053
 9682POPC   C4A59670  11.256  26.803   7.353
 9682POPC   C1B59671  11.148  26.635   6.453
 9682POPC   C2B59672  11.190  26.618   6.753
 9682POPC   C3B59673  11.197  26.647   7.053
 9682POPC   C4B59674  11.140  26.556   7.353
 9683POPC   NC359675  15.160  36.874   5.553
 9683POPC   PO459676  15.158  36.910   5.853
 9683POPC   GL159677  15.200  36.901   6.153
 9683POPC   GL259678  15.270  37.020   6.153
 9683POPC   C1A59679  15.225  36.897   6.453
 9683POPC   D2A59680  15.195  36.884   6.753
 9683POPC   C3A59681  15.211  36.913   7.053
 9683POPC   C4A59682  15.195  36.871   7.353
 9683POPC   C1B59683  15.374  37.080   6.453
 9683POPC   C2B59684  15.291  37.098   6.753
 9683POPC   C3B59685  15.367  37.082   7.053
 9683POPC   C4B59686  15.355  37.146   7.353
 9684POPC   NC359687   5.093  30.689   5.553
 9684POPC   PO459688   5.074  30.731   5.853
 9684POPC   GL159689   5.047  30.739   6.153
 9684POPC   GL259690   5.250  30.632   6.153
 9684POPC   C1A59691   5.085  30.732   6.453
 9684POPC   D2A59692   5.053  30.662   6.753
 9684POPC   C3A59693   5.047  30.648   7.053
 9684POPC   C4A59694   5.139  30.709   7.353
 9684POPC   C1B59695   5.262  30.529   6.453
 9684POPC   C2B59696   5.269  30.620   6.753
 9684POPC   C3B59697   5.331  30.574   7.053
 9684POPC   C4B59698   5.333  30.599   7.353
 9685POPC   NC359699   7.464   4.284   5.553
 9685POPC   PO459700   7.399   4.339   5.853
 9685POPC   GL159701   7.437   4.317   6.153
 9685POPC   GL259702   7.542   4.325   6.153
 9685POPC   C1A59703   7.412   4.316   6.453
 9685POPC   D2A59704   7.428   4.335   6.753
 9685POPC   C3A59705   7.439   4.319   7.053
 9685POPC   C4A59706   7.457   4.286   7.353
 9685POPC   C1B59707   7.635   4.311   6.453
 9685POPC   C2B59708   7.709   4.304   6.753
 9685POPC   C3B59709   7.653   4.365   7.053
 9685POPC   C4B59710   7.637   4.328   7.353
 9686POPC   NC359711   5.132  39.272   5.553
 9686POPC   PO459712   5.069  39.248   5.853
 9686POPC   GL159713   5.119  39.206   6.153
 9686POPC   GL259714   5.100  39.109   6.153
 9686POPC   C1A59715   5.084  39.280   6.453
 9686POPC   D2A59716   5.088  39.194   6.753
 9686POPC   C3A59717   5.082  39.185   7.053
 9686POPC   C4A59718   5.140  39.255   7.353
 9686POPC   C1B59719   5.022  38.969   6.453
 9686POPC   C2B59720   5.087  39.033   6.753
 9686POPC   C3B59721   5.054  39.016   7.053
 9686POPC   C4B59722   5.065  39.003   7.353
 9687POPC   NC359723  36.952  32.975   5.553
 9687POPC   PO459724  36.865  33.064   5.853
 9687POPC   GL159725  36.949  33.034   6.153
 9687POPC   GL259726  36.888  32.951   6.153
 9687POPC   C1A59727  36.935  33.044   6.453
 9687POPC   D2A59728  36.916  33.022   6.753
 9687POPC   C3A59729  36.900  33.023   7.053
 9687POPC   C4A59730  36.866  33.028   7.353
 9687POPC   C1B59731  36.842  32.830   6.453
 9687POPC   C2B59732  36.836  32.757   6.753
 9687POPC   C3B59733  36.850  32.750   7.053
 9687POPC   C4B59734  36.828  32.789   7.353
 9688POPC   NC359735  38.481  28.407   5.553
 9688POPC   PO459736  38.466  28.417   5.853
 9688POPC   GL159737  38.468  28.350   6.153
 9688POPC   GL259738  38.373  28.312   6.153
 9688POPC   C1A59739  38.500  28.320   6.453
 9688POPC   D2A59740  38.464  28.390   6.753
 9688POPC   C3A59741  38.408  28.419   7.053
 9688POPC   C4A59742  38.473  28.390   7.353
 9688POPC   C1B59743  38.180  28.308   6.453
 9688POPC   C2B59744  38.167  28.309   6.753
 9688POPC   C3B59745  38.240  28.278   7.053
 9688POPC   C4B59746  38.246  28.309   7.353
 9689POPC   NC359747  13.644  43.926   5.553
 9689POPC   PO459748  13.619  43.859   5.853
 9689POPC   GL159749  13.670  43.920   6.153
 9689POPC   GL259750  13.709  43.989   6.153
 9689POPC   C1A59751  13.621  43.903   6.453
 9689POPC   D2A59752  13.676  43.878   6.753
 9689POPC   C3A59753  13.607  43.859   7.053
 9689POPC   C4A59754  13.617  43.897   7.353
 9689POPC   C1B59755  13.809  44.017   6.453
 9689POPC   C2B59756  13.800  44.055   6.753
 9689POPC   C3B59757  13.785  44.067   7.053
 9689POPC   C4B59758  13.849  44.052   7.353
 9690POPC   NC359759   1.222   7.400   5.553
 9690POPC   PO459760   1.209   7.454   5.853
 9690POPC   GL159761   1.250   7.399   6.153
 9690POPC   GL259762   1.114   7.338   6.153
 9690POPC   C1A59763   1.241   7.405   6.453
 9690POPC   D2A59764   1.237   7.458   6.753
 9690POPC   C3A59765   1.236   7.413   7.053
 9690POPC   C4A59766   1.214   7.386   7.353
 9690POPC   C1B59767   1.029   7.284   6.453
 9690POPC   C2B59768   1.002   7.226   6.753
 9690POPC   C3B59769   1.005   7.284   7.053
 9690POPC   C4B59770   1.080   7.218   7.353
 9691POPC   NC359771  22.889  13.628   5.553
 9691POPC   PO459772  22.917  13.674   5.853
 9691POPC   GL159773  22.921  13.634   6.153
 9691POPC   GL259774  23.096  13.618   6.153
 9691POPC   C1A59775  22.922  13.630   6.453
 9691POPC   D2A59776  22.897  13.633   6.753
 9691POPC   C3A59777  22.953  13.584   7.053
 9691POPC   C4A59778  22.980  13.659   7.353
 9691POPC   C1B59779  23.156  13.659   6.453
 9691POPC   C2B59780  23.225  13.680   6.753
 9691POPC   C3B59781  23.222  13.640   7.053
 9691POPC   C4B59782  23.195  13.670   7.353
 9692POPC   NC359783  32.228   2.750   5.553
 9692POPC   PO459784  32.273   2.736   5.853
 9692POPC   GL159785  32.216   2.734   6.153
 9692POPC   GL259786  32.360   2.757   6.153
 9692POPC   C1A59787  32.296   2.790   6.453
 9692POPC   D2A59788  32.201   2.751   6.753
 9692POPC   C3A59789  32.210   2.721   7.053
 9692POPC   C4A59790  32.266   2.769   7.353
 9692POPC   C1B59791  32.532   2.813   6.453
 9692POPC   C2B59792  32.457   2.808   6.753
 9692POPC   C3B59793  32.536   2.823   7.053
 9692POPC   C4B59794  32.547   2.771   7.353
 9693POPC   NC359795  37.639  14.442   5.553
 9693POPC   PO459796  37.651  14.368   5.853
 9693POPC   GL159797  37.709  14.398   6.153
 9693POPC   GL259798  37.748  14.553   6.153
 9693POPC   C1A59799  37.642  14.381   6.453
 9693POPC   D2A59800  37.712  14.385   6.753
 9693POPC   C3A59801  37.727  14.425   7.053
 9693POPC   C4A59802  37.697  14.413   7.353
 9693POPC   C1B59803  37.770  14.642   6.453
 9693POPC   C2B59804  37.772  14.611   6.753
 9693POPC   C3B59805  37.754  14.681   7.053
 9693POPC   C4B59806  37.786  14.682   7.353
 9694POPC   NC359807  15.141   5.119   5.553
 9694POPC   PO459808  15.130   5.077   5.853
 9694POPC   GL159809  15.216   5.102   6.153
 9694POPC   GL259810  15.300   5.074   6.153
 9694POPC   C1A59811  15.141   5.092   6.453
 9694POPC   D2A59812  15.203   5.109   6.753
 9694POPC   C3A59813  15.136   5.060   7.053
 9694POPC   C4A59814  15.141   5.095   7.353
 9694POPC   C1B59815  15.429   5.028   6.453
 9694POPC   C2B59816  15.400   5.022   6.753
 9694POPC   C3B59817  15.403   5.040   7.053
 9694POPC   C4B59818  15.398   4.967   7.353
 9695POPC   NC359819   8.933  12.844   5.553
 9695POPC   PO459820   9.008  12.891   5.853
 9695POPC   GL159821   8.954  12.890   6.153
 9695POPC   GL259822   8.890  12.920   6.153
 9695POPC   C1A59823   9.001  12.825   6.453
 9695POPC   D2A59824   8.949  12.843   6.753
 9695POPC   C3A59825   8.967  12.852   7.053
 9695POPC   C4A59826   9.007  12.856   7.353
 9695POPC   C1B59827   8.771  12.916   6.453
 9695POPC   C2B59828   8.729  12.987   6.753
 9695POPC   C3B59829   8.783  12.920   7.053
 9695POPC   C4B59830   8.723  12.990   7.353
 9696POPC   NC359831  41.575  14.452   5.553
 9696POPC   PO459832  41.541  14.421   5.853
 9696POPC   GL159833  41.582  14.448   6.153
 9696POPC   GL259834  41.484  14.359   6.153
 9696POPC   C1A59835  41.608  14.445   6.453
 9696POPC   D2A59836  41.600  14.376   6.753
 9696POPC   C3A59837  41.584  14.374   7.053
 9696POPC   C4A59838  41.539  14.449   7.353
 9696POPC   C1B59839  41.317  14.230   6.453
 9696POPC   C2B59840  41.349  14.221   6.753
 9696POPC   C3B59841  41.368  14.248   7.053
 9696POPC   C4B59842  41.322  14.248   7.353
 9697POPC   NC359843  36.915  24.473   5.553
 9697POPC   PO459844  36.925  24.518   5.853
 9697POPC   GL159845  36.951  24.464   6.153
 9697POPC   GL259846  36.998  24.450   6.153
 9697POPC   C1A59847  36.862  24.523   6.453
 9697POPC   D2A59848  36.903  24.440   6.753
 9697POPC   C3A59849  36.913  24.517   7.053
 9697POPC   C4A59850  36.911  24.518   7.353
 9697POPC   C1B59851  37.116  24.420   6.453
 9697POPC   C2B59852  37.109  24.508   6.753
 9697POPC   C3B59853  37.183  24.438   7.053
 9697POPC   C4B59854  37.108  24.463   7.353
 9698POPC   NC359855  27.641  20.616   5.553
 9698POPC   PO459856  27.578  20.634   5.853
 9698POPC   GL159857  27.585  20.640   6.153
 9698POPC   GL259858  27.539  20.496   6.153
 9698POPC   C1A59859  27.593  20.580   6.453
 9698POPC   D2A59860  27.592  20.626   6.753
 9698POPC   C3A59861  27.606  20.629   7.053
 9698POPC   C4A59862  27.595  20.645   7.353
 9698POPC   C1B59863  27.439  20.384   6.453
 9698POPC   C2B59864  27.472  20.378   6.753
 9698POPC   C3B59865  27.403  20.423   7.053
 9698POPC   C4B59866  27.423  20.407   7.353
 9699POPC   NC359867   2.805  38.440   5.553
 9699POPC   PO459868   2.774  38.437   5.853
 9699POPC   GL159869   2.739  38.489   6.153
 9699POPC   GL259870   2.914  38.353   6.153
 9699POPC   C1A59871   2.769  38.494   6.453
 9699POPC   D2A59872   2.770  38.465   6.753
 9699POPC   C3A59873   2.727  38.415   7.053
 9699POPC   C4A59874   2.722  38.469   7.353
 9699POPC   C1B59875   2.960  38.321   6.453
 9699POPC   C2B59876   2.987  38.365   6.753
 9699POPC   C3B59877   3.010  38.294   7.053
 9699POPC   C4B59878   3.018  38.335   7.353
 9700POPC   NC359879   2.789  36.090   5.553
 9700POPC   PO459880   2.782  36.088   5.853
 9700POPC   GL159881   2.743  36.096   6.153
 9700POPC   GL259882   2.844  36.057   6.153
 9700POPC   C1A59883   2.804  36.114   6.453
 9700POPC   D2A59884   2.720  36.118   6.753
 9700POPC   C3A59885   2.735  36.159   7.053
 9700POPC   C4A59886   2.774  36.107   7.353
 9700POPC   C1B59887   2.879  35.876   6.453
 9700POPC   C2B59888   2.827  35.897   6.753
 9700POPC   C3B59889   2.863  35.904   7.053
 9700POPC   C4B59890   2.827  35.882   7.353
 9701POPC   NC359891  28.383  32.246   5.553
 9701POPC   PO459892  28.345  32.210   5.853
 9701POPC   GL159893  28.402  32.225   6.153
 9701POPC   GL259894  28.219  32.328   6.153
 9701POPC   C1A59895  28.352  32.257   6.453
 9701POPC   D2A59896  28.358  32.287   6.753
 9701POPC   C3A59897  28.359  32.226   7.053
 9701POPC   C4A59898  28.325  32.284   7.353
 9701POPC   C1B59899  28.164  32.413   6.453
 9701POPC   C2B59900  28.167  32.419   6.753
 9701POPC   C3B59901  28.203  32.416   7.053
 9701POPC   C4B59902  28.119  32.402   7.353
 9702POPC   NC359903  18.294  40.772   5.553
 9702POPC   PO459904  18.333  40.735   5.853
 9702POPC   GL159905  18.316  40.741   6.153
 9702POPC   GL259906  18.203  40.918   6.153
 9702POPC   C1A59907  18.270  40.756   6.453
 9702POPC   D2A59908  18.280  40.821   6.753
 9702POPC   C3A59909  18.313  40.796   7.053
 9702POPC   C4A59910  18.247  40.827   7.353
 9702POPC   C1B59911  18.110  41.019   6.453
 9702POPC   C2B59912  18.181  40.944   6.753
 9702POPC   C3B59913  18.142  40.938   7.053
 9702POPC   C4B59914  18.169  41.011   7.353
 9703POPC   NC359915  39.192  26.849   5.553
 9703POPC   PO459916  39.250  26.805   5.853
 9703POPC   GL159917  39.269  26.863   6.153
 9703POPC   GL259918  39.237  26.909   6.153
 9703POPC   C1A59919  39.252  26.841   6.453
 9703POPC   D2A59920  39.189  26.857   6.753
 9703POPC   C3A59921  39.257  26.835   7.053
 9703POPC   C4A59922  39.267  26.811   7.353
 9703POPC   C1B59923  39.319  27.020   6.453
 9703POPC   C2B59924  39.303  27.093   6.753
 9703POPC   C3B59925  39.287  27.059   7.053
 9703POPC   C4B59926  39.287  27.039   7.353
 9704POPC   NC359927   6.636  31.506   5.553
 9704POPC   PO459928   6.630  31.468   5.853
 9704POPC   GL159929   6.679  31.424   6.153
 9704POPC   GL259930   6.735  31.363   6.153
 9704POPC   C1A59931   6.680  31.490   6.453
 9704POPC   D2A59932   6.613  31.483   6.753
 9704POPC   C3A59933   6.611  31.476   7.053
 9704POPC   C4A59934   6.616  31.448   7.353
 9704POPC   C1B59935   6.702  31.189   6.453
 9704POPC   C2B59936   6.689  31.207   6.753
 9704POPC   C3B59937   6.749  31.196   7.053
 9704POPC   C4B59938   6.739  31.247   7.353
 9705POPC   NC359939  12.887  19.815   5.553
 9705POPC   PO459940  12.817  19.849   5.853
 9705POPC   GL159941  12.834  19.859   6.153
 9705POPC   GL259942  12.986  19.761   6.153
 9705POPC   C1A59943  12.838  19.841   6.453
 9705POPC   D2A59944  12.843  19.811   6.753
 9705POPC   C3A59945  12.887  19.814   7.053
 9705POPC   C4A59946  12.828  19.794   7.353
 9705POPC   C1B59947  13.078  19.778   6.453
 9705POPC   C2B59948  13.047  19.731   6.753
 9705POPC   C3B59949  13.054  19.752   7.053
 9705POPC   C4B59950  13.075  19.744   7.353
 9706POPC   NC359951  26.851   1.950   5.553
 9706POPC   PO459952  26.847   1.982   5.853
 9706POPC   GL159953  26.859   2.035   6.153
 9706POPC   GL259954  26.907   1.887   6.153
 9706POPC   C1A59955  26.796   2.029   6.453
 9706POPC   D2A59956  26.859   1.973   6.753
 9706POPC   C3A59957  26.854   1.997   7.053
 9706POPC   C4A59958  26.841   1.990   7.353
 9706POPC   C1B59959  27.068   1.893   6.453
 9706POPC   C2B59960  27.066   1.803   6.753
 9706POPC   C3B59961  27.065   1.891   7.053
 9706POPC   C4B59962  27.065   1.879   7.353
 9707POPC   NC359963  44.691  35.304   5.553
 9707POPC   PO459964  44.707  35.308   5.853
 9707POPC   GL159965  44.694  35.317   6.153
 9707POPC   GL259966  44.780  35.271   6.153
 9707POPC   C1A59967  44.614  35.336   6.453
 9707POPC   D2A59968  44.657  35.308   6.753
 9707POPC   C3A59969  44.689  35.373   7.053
 9707POPC   C4A59970  44.639  35.324   7.353
 9707POPC   C1B59971  44.846  35.235   6.453
 9707POPC   C2B59972  44.878  35.273   6.753
 9707POPC   C3B59973  44.894  35.269   7.053
 9707POPC   C4B59974  44.923  35.264   7.353
 9708POPC   NC359975  14.365   5.086   5.553
 9708POPC   PO459976  14.371   5.081   5.853
 9708POPC   GL159977  14.413   5.131   6.153
 9708POPC   GL259978  14.502   5.173   6.153
 9708POPC   C1A59979  14.410   5.112   6.453
 9708POPC   D2A59980  14.392   5.051   6.753
 9708POPC   C3A59981  14.388   5.109   7.053
 9708POPC   C4A59982  14.412   5.123   7.353
 9708POPC   C1B59983  14.581   5.239   6.453
 9708POPC   C2B59984  14.573   5.235   6.753
 9708POPC   C3B59985  14.606   5.225   7.053
 9708POPC   C4B59986  14.653   5.225   7.353
 9709POPC   NC359987  14.429   8.188   5.553
 9709POPC   PO459988  14.380   8.180   5.853
 9709POPC   GL159989  14.448   8.245   6.153
 9709POPC   GL259990  14.491   8.130   6.153
 9709POPC   C1A59991  14.402   8.211   6.453
 9709POPC   D2A59992  14.404   8.221   6.753
 9709POPC   C3A59993  14.393   8.193   7.053
 9709POPC   C4A59994  14.358   8.159   7.353
 9709POPC   C1B59995  14.464   7.917   6.453
 9709POPC   C2B59996  14.446   8.000   6.753
 9709POPC   C3B59997  14.455   7.923   7.053
 9709POPC   C4B59998  14.448   7.952   7.353
 9710POPC   NC359999   9.014   5.138   5.553
 9710POPC   PO460000   8.957   5.086   5.853
 9710POPC   GL160001   9.003   5.090   6.153
 9710POPC   GL260002   9.091   5.027   6.153
 9710POPC   C1A60003   8.976   5.065   6.453
 9710POPC   D2A60004   8.955   5.126   6.753
 9710POPC   C3A60005   9.012   5.064   7.053
 9710POPC   C4A60006   8.943   5.101   7.353
 9710POPC   C1B60007   9.115   4.953   6.453
 9710POPC   C2B60008   9.167   4.893   6.753
 9710POPC   C3B60009   9.159   4.961   7.053
 9710POPC   C4B60010   9.185   4.931   7.353
 9711POPC   NC360011  34.606  21.378   5.553
 9711POPC   PO460012  34.563  21.366   5.853
 9711POPC   GL160013  34.536  21.388   6.153
 9711POPC   GL260014  34.653  21.269   6.153
 9711POPC   C1A60015  34.548  21.385   6.453
 9711POPC   D2A60016  34.575  21.406   6.753
 9711POPC   C3A60017  34.598  21.427   7.053
 9711POPC   C4A60018  34.539  21.421   7.353
 9711POPC   C1B60019  34.755  21.253   6.453
 9711POPC   C2B60020  34.737  21.197   6.753
 9711POPC   C3B60021  34.736  21.194   7.053
 9711POPC   C4B60022  34.732  21.201   7.353
 9712POPC   NC360023  15.929  39.233   5.553
 9712POPC   PO460024  15.987  39.207   5.853
 9712POPC   GL160025  15.936  39.257   6.153
 9712POPC   GL260026  15.875  39.259   6.153
 9712POPC   C1A60027  15.945  39.231   6.453
 9712POPC   D2A60028  15.946  39.262   6.753
 9712POPC   C3A60029  15.956  39.185   7.053
 9712POPC   C4A60030  15.927  39.268   7.353
 9712POPC   C1B60031  15.730  39.278   6.453
 9712POPC   C2B60032  15.680  39.312   6.753
 9712POPC   C3B60033  15.741  39.373   7.053
 9712POPC   C4B60034  15.706  39.352   7.353
 9713POPC   NC360035  36.919  22.170   5.553
 9713POPC   PO460036  36.951  22.202   5.853
 9713POPC   GL160037  36.944  22.141   6.153
 9713POPC   GL260038  36.987  22.010   6.153
 9713POPC   C1A60039  36.950  22.196   6.453
 9713POPC   D2A60040  36.856  22.172   6.753
 9713POPC   C3A60041  36.946  22.152   7.053
 9713POPC   C4A60042  36.861  22.141   7.353
 9713POPC   C1B60043  37.004  21.934   6.453
 9713POPC   C2B60044  37.038  21.975   6.753
 9713POPC   C3B60045  37.021  21.947   7.053
 9713POPC   C4B60046  36.962  21.932   7.353
 9714POPC   NC360047  41.525  15.197   5.553
 9714POPC   PO460048  41.530  15.148   5.853
 9714POPC   GL160049  41.593  15.209   6.153
 9714POPC   GL260050  41.602  15.346   6.153
 9714POPC   C1A60051  41.509  15.183   6.453
 9714POPC   D2A60052  41.561  15.204   6.753
 9714POPC   C3A60053  41.512  15.204   7.053
 9714POPC   C4A60054  41.606  15.174   7.353
 9714POPC   C1B60055  41.524  15.387   6.453
 9714POPC   C2B60056  41.567  15.438   6.753
 9714POPC   C3B60057  41.595  15.434   7.053
 9714POPC   C4B60058  41.592  15.454   7.353
 9715POPC   NC360059  23.742   8.239   5.553
 9715POPC   PO460060  23.703   8.243   5.853
 9715POPC   GL160061  23.688   8.157   6.153
 9715POPC   GL260062  23.815   8.264   6.153
 9715POPC   C1A60063  23.738   8.197   6.453
 9715POPC   D2A60064  23.741   8.178   6.753
 9715POPC   C3A60065  23.732   8.206   7.053
 9715POPC   C4A60066  23.718   8.186   7.353
 9715POPC   C1B60067  23.965   8.305   6.453
 9715POPC   C2B60068  23.988   8.280   6.753
 9715POPC   C3B60069  23.921   8.256   7.053
 9715POPC   C4B60070  23.941   8.333   7.353
 9716POPC   NC360071  40.017  13.624   5.553
 9716POPC   PO460072  39.958  13.597   5.853
 9716POPC   GL160073  40.004  13.578   6.153
 9716POPC   GL260074  39.980  13.721   6.153
 9716POPC   C1A60075  40.001  13.677   6.453
 9716POPC   D2A60076  40.056  13.659   6.753
 9716POPC   C3A60077  40.034  13.610   7.053
 9716POPC   C4A60078  40.009  13.659   7.353
 9716POPC   C1B60079  40.040  13.832   6.453
 9716POPC   C2B60080  39.964  13.884   6.753
 9716POPC   C3B60081  40.014  13.829   7.053
 9716POPC   C4B60082  40.014  13.907   7.353
 9717POPC   NC360083  39.248   5.053   5.553
 9717POPC   PO460084  39.235   5.089   5.853
 9717POPC   GL160085  39.202   5.056   6.153
 9717POPC   GL260086  39.127   5.132   6.153
 9717POPC   C1A60087  39.190   5.074   6.453
 9717POPC   D2A60088  39.269   5.115   6.753
 9717POPC   C3A60089  39.273   5.093   7.053
 9717POPC   C4A60090  39.257   5.060   7.353
 9717POPC   C1B60091  39.028   5.124   6.453
 9717POPC   C2B60092  38.979   5.134   6.753
 9717POPC   C3B60093  39.030   5.103   7.053
 9717POPC   C4B60094  39.008   5.064   7.353
 9718POPC   NC360095   5.086  29.903   5.553
 9718POPC   PO460096   5.059  29.883   5.853
 9718POPC   GL160097   5.126  29.899   6.153
 9718POPC   GL260098   5.146  29.861   6.153
 9718POPC   C1A60099   5.111  29.955   6.453
 9718POPC   D2A60100   5.068  29.962   6.753
 9718POPC   C3A60101   5.137  29.952   7.053
 9718POPC   C4A60102   5.062  29.946   7.353
 9718POPC   C1B60103   5.292  29.696   6.453
 9718POPC   C2B60104   5.297  29.726   6.753
 9718POPC   C3B60105   5.202  29.715   7.053
 9718POPC   C4B60106   5.286  29.737   7.353
 9719POPC   NC360107  12.092  43.918   5.553
 9719POPC   PO460108  12.029  43.862   5.853
 9719POPC   GL160109  12.095  43.901   6.153
 9719POPC   GL260110  12.137  44.009   6.153
 9719POPC   C1A60111  12.035  43.891   6.453
 9719POPC   D2A60112  12.086  43.888   6.753
 9719POPC   C3A60113  12.051  43.860   7.053
 9719POPC   C4A60114  12.115  43.868   7.353
 9719POPC   C1B60115  12.283  44.073   6.453
 9719POPC   C2B60116  12.203  44.106   6.753
 9719POPC   C3B60117  12.248  44.082   7.053
 9719POPC   C4B60118  12.258  44.110   7.353
 9720POPC   NC360119  20.604  22.937   5.553
 9720POPC   PO460120  20.624  22.947   5.853
 9720POPC   GL160121  20.608  22.895   6.153
 9720POPC   GL260122  20.738  22.922   6.153
 9720POPC   C1A60123  20.577  22.939   6.453
 9720POPC   D2A60124  20.623  22.977   6.753
 9720POPC   C3A60125  20.596  22.910   7.053
 9720POPC   C4A60126  20.562  22.924   7.353
 9720POPC   C1B60127  20.829  22.861   6.453
 9720POPC   C2B60128  20.858  22.800   6.753
 9720POPC   C3B60129  20.794  22.803   7.053
 9720POPC   C4B60130  20.817  22.857   7.353
 9721POPC   NC360131  26.084  24.518   5.553
 9721POPC   PO460132  26.073  24.461   5.853
 9721POPC   GL160133  26.023  24.467   6.153
 9721POPC   GL260134  26.087  24.396   6.153
 9721POPC   C1A60135  26.080  24.485   6.453
 9721POPC   D2A60136  26.020  24.478   6.753
 9721POPC   C3A60137  26.061  24.457   7.053
 9721POPC   C4A60138  26.054  24.526   7.353
 9721POPC   C1B60139  26.046  24.219   6.453
 9721POPC   C2B60140  26.013  24.216   6.753
 9721POPC   C3B60141  26.085  24.209   7.053
 9721POPC   C4B60142  26.036  24.270   7.353
 9722POPC   NC360143  40.741  43.866   5.553
 9722POPC   PO460144  40.815  43.893   5.853
 9722POPC   GL160145  40.775  43.914   6.153
 9722POPC   GL260146  40.703  43.774   6.153
 9722POPC   C1A60147  40.745  43.919   6.453
 9722POPC   D2A60148  40.823  43.888   6.753
 9722POPC   C3A60149  40.823  43.856   7.053
 9722POPC   C4A60150  40.759  43.895   7.353
 9722POPC   C1B60151  40.643  43.624   6.453
 9722POPC   C2B60152  40.616  43.685   6.753
 9722POPC   C3B60153  40.603  43.693   7.053
 9722POPC   C4B60154  40.678  43.704   7.353
 9723POPC   NC360155   3.558  12.844   5.553
 9723POPC   PO460156   3.539  12.857   5.853
 9723POPC   GL160157   3.555  12.833   6.153
 9723POPC   GL260158   3.620  12.704   6.153
 9723POPC   C1A60159   3.526  12.877   6.453
 9723POPC   D2A60160   3.496  12.812   6.753
 9723POPC   C3A60161   3.551  12.870   7.053
 9723POPC   C4A60162   3.555  12.849   7.353
 9723POPC   C1B60163   3.583  12.649   6.453
 9723POPC   C2B60164   3.597  12.592   6.753
 9723POPC   C3B60165   3.627  12.642   7.053
 9723POPC   C4B60166   3.605  12.567   7.353
 9724POPC   NC360167  39.232  25.216   5.553
 9724POPC   PO460168  39.246  25.285   5.853
 9724POPC   GL160169  39.252  25.266   6.153
 9724POPC   GL260170  39.304  25.398   6.153
 9724POPC   C1A60171  39.224  25.247   6.453
 9724POPC   D2A60172  39.269  25.313   6.753
 9724POPC   C3A60173  39.247  25.306   7.053
 9724POPC   C4A60174  39.244  25.258   7.353
 9724POPC   C1B60175  39.403  25.426   6.453
 9724POPC   C2B60176  39.433  25.410   6.753
 9724POPC   C3B60177  39.365  25.432   7.053
 9724POPC   C4B60178  39.397  25.468   7.353
 9725POPC   NC360179  28.333  43.066   5.553
 9725POPC   PO460180  28.415  43.098   5.853
 9725POPC   GL160181  28.322  43.100   6.153
 9725POPC   GL260182  28.259  42.978   6.153
 9725POPC   C1A60183  28.334  43.113   6.453
 9725POPC   D2A60184  28.356  43.114   6.753
 9725POPC   C3A60185  28.322  43.137   7.053
 9725POPC   C4A60186  28.356  43.150   7.353
 9725POPC   C1B60187  28.172  42.871   6.453
 9725POPC   C2B60188  28.208  42.865   6.753
 9725POPC   C3B60189  28.219  42.934   7.053
 9725POPC   C4B60190  28.221  42.953   7.353
 9726POPC   NC360191  15.940  40.760   5.553
 9726POPC   PO460192  16.004  40.819   5.853
 9726POPC   GL160193  15.942  40.766   6.153
 9726POPC   GL260194  15.817  40.846   6.153
 9726POPC   C1A60195  15.966  40.799   6.453
 9726POPC   D2A60196  15.993  40.783   6.753
 9726POPC   C3A60197  15.954  40.802   7.053
 9726POPC   C4A60198  16.004  40.801   7.353
 9726POPC   C1B60199  15.761  40.933   6.453
 9726POPC   C2B60200  15.742  40.920   6.753
 9726POPC   C3B60201  15.769  40.998   7.053
 9726POPC   C4B60202  15.734  40.939   7.353
 9727POPC   NC360203  41.540  42.355   5.553
 9727POPC   PO460204  41.608  42.368   5.853
 9727POPC   GL160205  41.565  42.339   6.153
 9727POPC   GL260206  41.500  42.409   6.153
 9727POPC   C1A60207  41.601  42.317   6.453
 9727POPC   D2A60208  41.552  42.355   6.753
 9727POPC   C3A60209  41.578  42.328   7.053
 9727POPC   C4A60210  41.579  42.296   7.353
 9727POPC   C1B60211  41.303  42.463   6.453
 9727POPC   C2B60212  41.386  42.502   6.753
 9727POPC   C3B60213  41.338  42.460   7.053
 9727POPC   C4B60214  41.344  42.475   7.353
 9728POPC   NC360215  40.770  38.486   5.553
 9728POPC   PO460216  40.810  38.503   5.853
 9728POPC   GL160217  40.807  38.469   6.153
 9728POPC   GL260218  40.901  38.537   6.153
 9728POPC   C1A60219  40.757  38.482   6.453
 9728POPC   D2A60220  40.776  38.426   6.753
 9728POPC   C3A60221  40.811  38.501   7.053
 9728POPC   C4A60222  40.816  38.447   7.353
 9728POPC   C1B60223  41.023  38.514   6.453
 9728POPC   C2B60224  41.068  38.534   6.753
 9728POPC   C3B60225  40.977  38.547   7.053
 9728POPC   C4B60226  40.980  38.517   7.353
 9729POPC   NC360227  17.493   6.660   5.553
 9729POPC   PO460228  17.547   6.628   5.853
 9729POPC   GL160229  17.461   6.655   6.153
 9729POPC   GL260230  17.649   6.691   6.153
 9729POPC   C1A60231  17.490   6.651   6.453
 9729POPC   D2A60232  17.459   6.671   6.753
 9729POPC   C3A60233  17.475   6.661   7.053
 9729POPC   C4A60234  17.459   6.618   7.353
 9729POPC   C1B60235  17.777   6.783   6.453
 9729POPC   C2B60236  17.762   6.792   6.753
 9729POPC   C3B60237  17.731   6.705   7.053
 9729POPC   C4B60238  17.688   6.761   7.353
 9730POPC   NC360239  26.035   7.389   5.553
 9730POPC   PO460240  26.089   7.448   5.853
 9730POPC   GL160241  26.051   7.432   6.153
 9730POPC   GL260242  25.990   7.386   6.153
 9730POPC   C1A60243  25.999   7.448   6.453
 9730POPC   D2A60244  26.091   7.384   6.753
 9730POPC   C3A60245  26.008   7.441   7.053
 9730POPC   C4A60246  26.042   7.398   7.353
 9730POPC   C1B60247  25.831   7.305   6.453
 9730POPC   C2B60248  25.862   7.306   6.753
 9730POPC   C3B60249  25.859   7.277   7.053
 9730POPC   C4B60250  25.812   7.307   7.353
 9731POPC   NC360251  13.669  13.605   5.553
 9731POPC   PO460252  13.644  13.671   5.853
 9731POPC   GL160253  13.671  13.647   6.153
 9731POPC   GL260254  13.517  13.560   6.153
 9731POPC   C1A60255  13.608  13.672   6.453
 9731POPC   D2A60256  13.624  13.594   6.753
 9731POPC   C3A60257  13.672  13.578   7.053
 9731POPC   C4A60258  13.582  13.667   7.353
 9731POPC   C1B60259  13.434  13.511   6.453
 9731POPC   C2B60260  13.354  13.560   6.753
 9731POPC   C3B60261  13.387  13.508   7.053
 9731POPC   C4B60262  13.404  13.543   7.353
 9732POPC   NC360263  10.523  19.009   5.553
 9732POPC   PO460264  10.551  19.100   5.853
 9732POPC   GL160265  10.493  19.011   6.153
 9732POPC   GL260266  10.509  19.211   6.153
 9732POPC   C1A60267  10.495  19.050   6.453
 9732POPC   D2A60268  10.490  19.032   6.753
 9732POPC   C3A60269  10.487  19.017   7.053
 9732POPC   C4A60270  10.569  19.048   7.353
 9732POPC   C1B60271  10.495  19.282   6.453
 9732POPC   C2B60272  10.566  19.347   6.753
 9732POPC   C3B60273  10.550  19.281   7.053
 9732POPC   C4B60274  10.476  19.330   7.353
 9733POPC   NC360275  43.861  39.249   5.553
 9733POPC   PO460276  43.848  39.215   5.853
 9733POPC   GL160277  43.842  39.218   6.153
 9733POPC   GL260278  44.057  39.178   6.153
 9733POPC   C1A60279  43.904  39.218   6.453
 9733POPC   D2A60280  43.872  39.210   6.753
 9733POPC   C3A60281  43.914  39.250   7.053
 9733POPC   C4A60282  43.842  39.271   7.353
 9733POPC   C1B60283  44.177  39.176   6.453
 9733POPC   C2B60284  44.165  39.238   6.753
 9733POPC   C3B60285  44.094  39.248   7.053
 9733POPC   C4B60286  44.093  39.175   7.353
 9734POPC   NC360287  44.669   7.400   5.553
 9734POPC   PO460288  44.644   7.408   5.853
 9734POPC   GL160289  44.624   7.393   6.153
 9734POPC   GL260290  44.731   7.545   6.153
 9734POPC   C1A60291  44.637   7.379   6.453
 9734POPC   D2A60292  44.649   7.424   6.753
 9734POPC   C3A60293  44.663   7.392   7.053
 9734POPC   C4A60294  44.626   7.464   7.353
 9734POPC   C1B60295  44.774   7.640   6.453
 9734POPC   C2B60296  44.780   7.628   6.753
 9734POPC   C3B60297  44.756   7.646   7.053
 9734POPC   C4B60298  44.755   7.646   7.353
 9735POPC   NC360299  26.831   0.434   5.553
 9735POPC   PO460300  26.861   0.415   5.853
 9735POPC   GL160301  26.843   0.456   6.153
 9735POPC   GL260302  26.916   0.433   6.153
 9735POPC   C1A60303  26.842   0.448   6.453
 9735POPC   D2A60304  26.772   0.435   6.753
 9735POPC   C3A60305  26.807   0.456   7.053
 9735POPC   C4A60306  26.793   0.394   7.353
 9735POPC   C1B60307  27.030   0.527   6.453
 9735POPC   C2B60308  27.080   0.533   6.753
 9735POPC   C3B60309  27.045   0.561   7.053
 9735POPC   C4B60310  27.095   0.494   7.353
 9736POPC   NC360311  15.913  12.880   5.553
 9736POPC   PO460312  15.944  12.831   5.853
 9736POPC   GL160313  15.946  12.854   6.153
 9736POPC   GL260314  15.879  12.980   6.153
 9736POPC   C1A60315  15.992  12.806   6.453
 9736POPC   D2A60316  15.932  12.863   6.753
 9736POPC   C3A60317  15.986  12.880   7.053
 9736POPC   C4A60318  15.991  12.812   7.353
 9736POPC   C1B60319  15.770  12.995   6.453
 9736POPC   C2B60320  15.761  12.965   6.753
 9736POPC   C3B60321  15.764  13.059   7.053
 9736POPC   C4B60322  15.720  12.991   7.353
 9737POPC   NC360323  36.171  27.588   5.553
 9737POPC   PO460324  36.108  27.606   5.853
 9737POPC   GL160325  36.084  27.587   6.153
 9737POPC   GL260326  36.113  27.694   6.153
 9737POPC   C1A60327  36.094  27.566   6.453
 9737POPC   D2A60328  36.153  27.589   6.753
 9737POPC   C3A60329  36.110  27.616   7.053
 9737POPC   C4A60330  36.125  27.547   7.353
 9737POPC   C1B60331  36.068  27.805   6.453
 9737POPC   C2B60332  36.035  27.813   6.753
 9737POPC   C3B60333  36.025  27.828   7.053
 9737POPC   C4B60334  36.069  27.864   7.353
 9738POPC   NC360335  35.337  32.999   5.553
 9738POPC   PO460336  35.397  33.001   5.853
 9738POPC   GL160337  35.385  32.999   6.153
 9738POPC   GL260338  35.304  32.935   6.153
 9738POPC   C1A60339  35.394  32.979   6.453
 9738POPC   D2A60340  35.310  33.012   6.753
 9738POPC   C3A60341  35.365  33.067   7.053
 9738POPC   C4A60342  35.304  33.005   7.353
 9738POPC   C1B60343  35.137  32.858   6.453
 9738POPC   C2B60344  35.182  32.816   6.753
 9738POPC   C3B60345  35.186  32.897   7.053
 9738POPC   C4B60346  35.198  32.836   7.353
 9739POPC   NC360347  25.247  15.163   5.553
 9739POPC   PO460348  25.243  15.168   5.853
 9739POPC   GL160349  25.274  15.201   6.153
 9739POPC   GL260350  25.105  15.162   6.153
 9739POPC   C1A60351  25.239  15.189   6.453
 9739POPC   D2A60352  25.236  15.136   6.753
 9739POPC   C3A60353  25.280  15.195   7.053
 9739POPC   C4A60354  25.308  15.163   7.353
 9739POPC   C1B60355  25.081  15.029   6.453
 9739POPC   C2B60356  25.063  15.063   6.753
 9739POPC   C3B60357  25.037  15.098   7.053
 9739POPC   C4B60358  25.084  15.019   7.353
 9740POPC   NC360359  37.665  32.981   5.553
 9740POPC   PO460360  37.637  33.014   5.853
 9740POPC   GL160361  37.661  33.026   6.153
 9740POPC   GL260362  37.735  33.164   6.153
 9740POPC   C1A60363  37.676  33.040   6.453
 9740POPC   D2A60364  37.648  32.986   6.753
 9740POPC   C3A60365  37.664  33.063   7.053
 9740POPC   C4A60366  37.726  32.995   7.353
 9740POPC   C1B60367  37.872  33.206   6.453
 9740POPC   C2B60368  37.818  33.181   6.753
 9740POPC   C3B60369  37.840  33.258   7.053
 9740POPC   C4B60370  37.806  33.248   7.353
 9741POPC   NC360371  25.286  15.919   5.553
 9741POPC   PO460372  25.263  16.001   5.853
 9741POPC   GL160373  25.238  15.909   6.153
 9741POPC   GL260374  25.212  15.892   6.153
 9741POPC   C1A60375  25.252  15.931   6.453
 9741POPC   D2A60376  25.239  15.915   6.753
 9741POPC   C3A60377  25.288  15.953   7.053
 9741POPC   C4A60378  25.265  15.916   7.353
 9741POPC   C1B60379  25.093  15.791   6.453
 9741POPC   C2B60380  25.104  15.721   6.753
 9741POPC   C3B60381  25.080  15.758   7.053
 9741POPC   C4B60382  25.088  15.719   7.353
 9742POPC   NC360383  43.916   3.518   5.553
 9742POPC   PO460384  43.907   3.517   5.853
 9742POPC   GL160385  43.886   3.492   6.153
 9742POPC   GL260386  43.997   3.468   6.153
 9742POPC   C1A60387  43.880   3.566   6.453
 9742POPC   D2A60388  43.882   3.589   6.753
 9742POPC   C3A60389  43.867   3.558   7.053
 9742POPC   C4A60390  43.848   3.495   7.353
 9742POPC   C1B60391  44.140   3.496   6.453
 9742POPC   C2B60392  44.093   3.409   6.753
 9742POPC   C3B60393  44.155   3.419   7.053
 9742POPC   C4B60394  44.111   3.458   7.353
 9743POPC   NC360395  14.407  41.522   5.553
 9743POPC   PO460396  14.426  41.559   5.853
 9743POPC   GL160397  14.446  41.580   6.153
 9743POPC   GL260398  14.232  41.581   6.153
 9743POPC   C1A60399  14.436  41.586   6.453
 9743POPC   D2A60400  14.370  41.514   6.753
 9743POPC   C3A60401  14.451  41.527   7.053
 9743POPC   C4A60402  14.356  41.544   7.353
 9743POPC   C1B60403  14.134  41.477   6.453
 9743POPC   C2B60404  14.180  41.550   6.753
 9743POPC   C3B60405  14.136  41.538   7.053
 9743POPC   C4B60406  14.138  41.479   7.353
 9744POPC   NC360407  20.611  13.612   5.553
 9744POPC   PO460408  20.617  13.616   5.853
 9744POPC   GL160409  20.617  13.599   6.153
 9744POPC   GL260410  20.496  13.681   6.153
 9744POPC   C1A60411  20.625  13.579   6.453
 9744POPC   D2A60412  20.647  13.614   6.753
 9744POPC   C3A60413  20.592  13.642   7.053
 9744POPC   C4A60414  20.633  13.612   7.353
 9744POPC   C1B60415  20.318  13.648   6.453
 9744POPC   C2B60416  20.331  13.690   6.753
 9744POPC   C3B60417  20.359  13.724   7.053
 9744POPC   C4B60418  20.409  13.720   7.353
 9745POPC   NC360419   4.311  16.701   5.553
 9745POPC   PO460420   4.301  16.753   5.853
 9745POPC   GL160421   4.322  16.781   6.153
 9745POPC   GL260422   4.373  16.794   6.153
 9745POPC   C1A60423   4.364  16.748   6.453
 9745POPC   D2A60424   4.300  16.706   6.753
 9745POPC   C3A60425   4.293  16.749   7.053
 9745POPC   C4A60426   4.292  16.724   7.353
 9745POPC   C1B60427   4.429  16.981   6.453
 9745POPC   C2B60428   4.486  16.957   6.753
 9745POPC   C3B60429   4.511  16.951   7.053
 9745POPC   C4B60430   4.454  16.892   7.353
 9746POPC   NC360431  15.955  15.989   5.553
 9746POPC   PO460432  15.914  15.956   5.853
 9746POPC   GL160433  15.938  15.987   6.153
 9746POPC   GL260434  16.046  16.023   6.153
 9746POPC   C1A60435  15.923  15.949   6.453
 9746POPC   D2A60436  15.948  15.983   6.753
 9746POPC   C3A60437  15.960  15.918   7.053
 9746POPC   C4A60438  15.917  15.998   7.353
 9746POPC   C1B60439  16.134  16.063   6.453
 9746POPC   C2B60440  16.194  16.097   6.753
 9746POPC   C3B60441  16.113  16.079   7.053
 9746POPC   C4B60442  16.199  16.143   7.353
 9747POPC   NC360443  44.653  43.926   5.553
 9747POPC   PO460444  44.687  43.870   5.853
 9747POPC   GL160445  44.686  43.931   6.153
 9747POPC   GL260446  44.766  43.910   6.153
 9747POPC   C1A60447  44.656  43.842   6.453
 9747POPC   D2A60448  44.695  43.847   6.753
 9747POPC   C3A60449  44.622  43.933   7.053
 9747POPC   C4A60450  44.665  43.911   7.353
 9747POPC   C1B60451  44.942  43.927   6.453
 9747POPC   C2B60452  44.918  43.954   6.753
 9747POPC   C3B60453  44.859  43.895   7.053
 9747POPC   C4B60454  44.896  43.948   7.353
 9748POPC   NC360455   8.183   9.014   5.553
 9748POPC   PO460456   8.240   8.956   5.853
 9748POPC   GL160457   8.177   8.957   6.153
 9748POPC   GL260458   8.130   9.136   6.153
 9748POPC   C1A60459   8.159   9.015   6.453
 9748POPC   D2A60460   8.221   8.967   6.753
 9748POPC   C3A60461   8.187   8.948   7.053
 9748POPC   C4A60462   8.201   8.946   7.353
 9748POPC   C1B60463   8.129   9.248   6.453
 9748POPC   C2B60464   8.161   9.235   6.753
 9748POPC   C3B60465   8.074   9.233   7.053
 9748POPC   C4B60466   8.116   9.174   7.353
 9749POPC   NC360467  28.347  19.790   5.553
 9749POPC   PO460468  28.390  19.877   5.853
 9749POPC   GL160469  28.335  19.838   6.153
 9749POPC   GL260470  28.347  19.678   6.153
 9749POPC   C1A60471  28.399  19.850   6.453
 9749POPC   D2A60472  28.392  19.884   6.753
 9749POPC   C3A60473  28.326  19.852   7.053
 9749POPC   C4A60474  28.340  19.794   7.353
 9749POPC   C1B60475  28.322  19.546   6.453
 9749POPC   C2B60476  28.290  19.549   6.753
 9749POPC   C3B60477  28.293  19.587   7.053
 9749POPC   C4B60478  28.296  19.638   7.353
 9750POPC   NC360479  25.313   1.204   5.553
 9750POPC   PO460480  25.272   1.227   5.853
 9750POPC   GL160481  25.219   1.231   6.153
 9750POPC   GL260482  25.281   1.134   6.153
 9750POPC   C1A60483  25.261   1.180   6.453
 9750POPC   D2A60484  25.237   1.215   6.753
 9750POPC   C3A60485  25.246   1.214   7.053
 9750POPC   C4A60486  25.310   1.228   7.353
 9750POPC   C1B60487  25.211   0.926   6.453
 9750POPC   C2B60488  25.189   0.995   6.753
 9750POPC   C3B60489  25.272   0.964   7.053
 9750POPC   C4B60490  25.262   0.992   7.353
 9751POPC   NC360491   7.408  40.824   5.553
 9751POPC   PO460492   7.406  40.772   5.853
 9751POPC   GL160493   7.396  40.819   6.153
 9751POPC   GL260494   7.442  40.905   6.153
 9751POPC   C1A60495   7.430  40.796   6.453
 9751POPC   D2A60496   7.454  40.784   6.753
 9751POPC   C3A60497   7.451  40.737   7.053
 9751POPC   C4A60498   7.468  40.823   7.353
 9751POPC   C1B60499   7.350  40.998   6.453
 9751POPC   C2B60500   7.413  41.068   6.753
 9751POPC   C3B60501   7.345  40.990   7.053
 9751POPC   C4B60502   7.367  40.999   7.353
 9752POPC   NC360503   8.938  20.571   5.553
 9752POPC   PO460504   8.963  20.618   5.853
 9752POPC   GL160505   8.951  20.598   6.153
 9752POPC   GL260506   8.872  20.650   6.153
 9752POPC   C1A60507   8.929  20.619   6.453
 9752POPC   D2A60508   9.009  20.588   6.753
 9752POPC   C3A60509   8.941  20.587   7.053
 9752POPC   C4A60510   9.005  20.626   7.353
 9752POPC   C1B60511   8.780  20.732   6.453
 9752POPC   C2B60512   8.737  20.726   6.753
 9752POPC   C3B60513   8.787  20.689   7.053
 9752POPC   C4B60514   8.784  20.718   7.353
 9753POPC   NC360515   5.901  10.479   5.553
 9753POPC   PO460516   5.845  10.541   5.853
 9753POPC   GL160517   5.878  10.477   6.153
 9753POPC   GL260518   5.900  10.362   6.153
 9753POPC   C1A60519   5.830  10.569   6.453
 9753POPC   D2A60520   5.884  10.502   6.753
 9753POPC   C3A60521   5.909  10.508   7.053
 9753POPC   C4A60522   5.863  10.540   7.353
 9753POPC   C1B60523   5.888  10.320   6.453
 9753POPC   C2B60524   5.850  10.297   6.753
 9753POPC   C3B60525   5.847  10.311   7.053
 9753POPC   C4B60526   5.858  10.317   7.353
 9754POPC   NC360527   2.013  35.323   5.553
 9754POPC   PO460528   1.959  35.341   5.853
 9754POPC   GL160529   1.972  35.311   6.153
 9754POPC   GL260530   2.126  35.375   6.153
 9754POPC   C1A60531   1.954  35.390   6.453
 9754POPC   D2A60532   2.020  35.351   6.753
 9754POPC   C3A60533   2.028  35.399   7.053
 9754POPC   C4A60534   1.975  35.379   7.353
 9754POPC   C1B60535   2.193  35.457   6.453
 9754POPC   C2B60536   2.253  35.433   6.753
 9754POPC   C3B60537   2.190  35.500   7.053
 9754POPC   C4B60538   2.229  35.440   7.353
 9755POPC   NC360539   7.440  12.836   5.553
 9755POPC   PO460540   7.422  12.892   5.853
 9755POPC   GL160541   7.396  12.826   6.153
 9755POPC   GL260542   7.567  12.816   6.153
 9755POPC   C1A60543   7.407  12.846   6.453
 9755POPC   D2A60544   7.447  12.851   6.753
 9755POPC   C3A60545   7.384  12.901   7.053
 9755POPC   C4A60546   7.372  12.808   7.353
 9755POPC   C1B60547   7.661  12.749   6.453
 9755POPC   C2B60548   7.659  12.725   6.753
 9755POPC   C3B60549   7.634  12.754   7.053
 9755POPC   C4B60550   7.699  12.760   7.353
 9756POPC   NC360551  42.341  32.999   5.553
 9756POPC   PO460552  42.354  33.054   5.853
 9756POPC   GL160553  42.363  33.069   6.153
 9756POPC   GL260554  42.367  33.074   6.153
 9756POPC   C1A60555  42.347  33.021   6.453
 9756POPC   D2A60556  42.296  33.012   6.753
 9756POPC   C3A60557  42.352  32.979   7.053
 9756POPC   C4A60558  42.342  32.977   7.353
 9756POPC   C1B60559  42.471  33.208   6.453
 9756POPC   C2B60560  42.506  33.267   6.753
 9756POPC   C3B60561  42.466  33.171   7.053
 9756POPC   C4B60562  42.476  33.177   7.353
 9757POPC   NC360563  40.767  15.983   5.553
 9757POPC   PO460564  40.747  15.921   5.853
 9757POPC   GL160565  40.743  15.933   6.153
 9757POPC   GL260566  40.860  16.035   6.153
 9757POPC   C1A60567  40.737  15.988   6.453
 9757POPC   D2A60568  40.809  15.990   6.753
 9757POPC   C3A60569  40.764  15.958   7.053
 9757POPC   C4A60570  40.770  15.972   7.353
 9757POPC   C1B60571  40.955  16.154   6.453
 9757POPC   C2B60572  40.935  16.095   6.753
 9757POPC   C3B60573  40.920  16.127   7.053
 9757POPC   C4B60574  40.915  16.172   7.353
 9758POPC   NC360575  25.262   5.883   5.553
 9758POPC   PO460576  25.231   5.869   5.853
 9758POPC   GL160577  25.273   5.862   6.153
 9758POPC   GL260578  25.276   5.948   6.153
 9758POPC   C1A60579  25.304   5.844   6.453
 9758POPC   D2A60580  25.257   5.878   6.753
 9758POPC   C3A60581  25.253   5.846   7.053
 9758POPC   C4A60582  25.251   5.848   7.353
 9758POPC   C1B60583  25.272   6.092   6.453
 9758POPC   C2B60584  25.266   6.121   6.753
 9758POPC   C3B60585  25.263   6.108   7.053
 9758POPC   C4B60586  25.307   6.134   7.353
 9759POPC   NC360587  18.265   1.169   5.553
 9759POPC   PO460588  18.293   1.245   5.853
 9759POPC   GL160589  18.272   1.173   6.153
 9759POPC   GL260590  18.147   1.247   6.153
 9759POPC   C1A60591  18.242   1.263   6.453
 9759POPC   D2A60592  18.243   1.166   6.753
 9759POPC   C3A60593  18.304   1.222   7.053
 9759POPC   C4A60594  18.250   1.217   7.353
 9759POPC   C1B60595  18.033   1.305   6.453
 9759POPC   C2B60596  18.047   1.266   6.753
 9759POPC   C3B60597  18.019   1.299   7.053
 9759POPC   C4B60598  18.055   1.290   7.353
 9760POPC   NC360599   8.186  26.076   5.553
 9760POPC   PO460600   8.240  26.059   5.853
 9760POPC   GL160601   8.189  26.049   6.153
 9760POPC   GL260602   8.304  25.931   6.153
 9760POPC   C1A60603   8.243  26.074   6.453
 9760POPC   D2A60604   8.199  25.998   6.753
 9760POPC   C3A60605   8.147  25.994   7.053
 9760POPC   C4A60606   8.147  26.037   7.353
 9760POPC   C1B60607   8.405  25.890   6.453
 9760POPC   C2B60608   8.426  25.931   6.753
 9760POPC   C3B60609   8.358  25.851   7.053
 9760POPC   C4B60610   8.377  25.922   7.353
 9761POPC   NC360611  44.679  28.418   5.553
 9761POPC   PO460612  44.617  28.407   5.853
 9761POPC   GL160613  44.631  28.332   6.153
 9761POPC   GL260614  44.816  28.338   6.153
 9761POPC   C1A60615  44.614  28.329   6.453
 9761POPC   D2A60616  44.658  28.346   6.753
 9761POPC   C3A60617  44.709  28.419   7.053
 9761POPC   C4A60618  44.712  28.408   7.353
 9761POPC   C1B60619  44.936  28.216   6.453
 9761POPC   C2B60620  44.899  28.270   6.753
 9761POPC   C3B60621  44.862  28.294   7.053
 9761POPC   C4B60622  44.851  28.240   7.353
 9762POPC   NC360623   5.063  14.354   5.553
 9762POPC   PO460624   5.068  14.450   5.853
 9762POPC   GL160625   5.057  14.436   6.153
 9762POPC   GL260626   5.052  14.304   6.153
 9762POPC   C1A60627   5.121  14.440   6.453
 9762POPC   D2A60628   5.078  14.451   6.753
 9762POPC   C3A60629   5.117  14.399   7.053
 9762POPC   C4A60630   5.063  14.355   7.353
 9762POPC   C1B60631   5.003  14.158   6.453
 9762POPC   C2B60632   5.048  14.199   6.753
 9762POPC   C3B60633   4.986  14.154   7.053
 9762POPC   C4B60634   4.974  14.152   7.353
 9763POPC   NC360635   3.511  32.266   5.553
 9763POPC   PO460636   3.584  32.222   5.853
 9763POPC   GL160637   3.573  32.243   6.153
 9763POPC   GL260638   3.645  32.399   6.153
 9763POPC   C1A60639   3.549  32.251   6.453
 9763POPC   D2A60640   3.570  32.252   6.753
 9763POPC   C3A60641   3.533  32.278   7.053
 9763POPC   C4A60642   3.553  32.217   7.353
 9763POPC   C1B60643   3.637  32.462   6.453
 9763POPC   C2B60644   3.668  32.429   6.753
 9763POPC   C3B60645   3.668  32.458   7.053
 9763POPC   C4B60646   3.687  32.423   7.353
 9764POPC   NC360647  14.443  10.490   5.553
 9764POPC   PO460648  14.442  10.488   5.853
 9764POPC   GL160649  14.429  10.516   6.153
 9764POPC   GL260650  14.316  10.446   6.153
 9764POPC   C1A60651  14.389  10.514   6.453
 9764POPC   D2A60652  14.379  10.533   6.753
 9764POPC   C3A60653  14.405  10.549   7.053
 9764POPC   C4A60654  14.397  10.475   7.353
 9764POPC   C1B60655  14.260  10.273   6.453
 9764POPC   C2B60656  14.304  10.288   6.753
 9764POPC   C3B60657  14.298  10.338   7.053
 9764POPC   C4B60658  14.334  10.255   7.353
 9765POPC   NC360659   7.410  21.388   5.553
 9765POPC   PO460660   7.427  21.424   5.853
 9765POPC   GL160661   7.459  21.436   6.153
 9765POPC   GL260662   7.443  21.523   6.153
 9765POPC   C1A60663   7.445  21.354   6.453
 9765POPC   D2A60664   7.465  21.424   6.753
 9765POPC   C3A60665   7.465  21.417   7.053
 9765POPC   C4A60666   7.372  21.338   7.353
 9765POPC   C1B60667   7.396  21.632   6.453
 9765POPC   C2B60668   7.341  21.675   6.753
 9765POPC   C3B60669   7.345  21.657   7.053
 9765POPC   C4B60670   7.354  21.632   7.353
 9766POPC   NC360671  41.592   2.795   5.553
 9766POPC   PO460672  41.534   2.783   5.853
 9766POPC   GL160673  41.538   2.813   6.153
 9766POPC   GL260674  41.518   2.917   6.153
 9766POPC   C1A60675  41.605   2.772   6.453
 9766POPC   D2A60676  41.527   2.804   6.753
 9766POPC   C3A60677  41.586   2.768   7.053
 9766POPC   C4A60678  41.539   2.786   7.353
 9766POPC   C1B60679  41.520   2.971   6.453
 9766POPC   C2B60680  41.495   2.983   6.753
 9766POPC   C3B60681  41.475   2.967   7.053
 9766POPC   C4B60682  41.446   3.049   7.353
 9767POPC   NC360683  39.269  23.706   5.553
 9767POPC   PO460684  39.245  23.758   5.853
 9767POPC   GL160685  39.259  23.724   6.153
 9767POPC   GL260686  39.369  23.829   6.153
 9767POPC   C1A60687  39.229  23.726   6.453
 9767POPC   D2A60688  39.213  23.719   6.753
 9767POPC   C3A60689  39.183  23.705   7.053
 9767POPC   C4A60690  39.205  23.701   7.353
 9767POPC   C1B60691  39.420  23.853   6.453
 9767POPC   C2B60692  39.391  23.857   6.753
 9767POPC   C3B60693  39.376  23.867   7.053
 9767POPC   C4B60694  39.389  23.875   7.353
 9768POPC   NC360695  19.865  14.427   5.553
 9768POPC   PO460696  19.881  14.419   5.853
 9768POPC   GL160697  19.797  14.379   6.153
 9768POPC   GL260698  19.884  14.258   6.153
 9768POPC   C1A60699  19.850  14.361   6.453
 9768POPC   D2A60700  19.814  14.444   6.753
 9768POPC   C3A60701  19.865  14.397   7.053
 9768POPC   C4A60702  19.868  14.426   7.353
 9768POPC   C1B60703  19.960  14.207   6.453
 9768POPC   C2B60704  19.926  14.198   6.753
 9768POPC   C3B60705  19.918  14.215   7.053
 9768POPC   C4B60706  19.965  14.195   7.353
 9769POPC   NC360707  29.885  14.381   5.553
 9769POPC   PO460708  29.875  14.444   5.853
 9769POPC   GL160709  29.911  14.419   6.153
 9769POPC   GL260710  30.043  14.548   6.153
 9769POPC   C1A60711  29.936  14.447   6.453
 9769POPC   D2A60712  29.877  14.435   6.753
 9769POPC   C3A60713  29.883  14.356   7.053
 9769POPC   C4A60714  29.888  14.363   7.353
 9769POPC   C1B60715  30.098  14.656   6.453
 9769POPC   C2B60716  30.043  14.586   6.753
 9769POPC   C3B60717  30.045  14.569   7.053
 9769POPC   C4B60718  30.071  14.640   7.353
 9770POPC   NC360719  29.126  22.977   5.553
 9770POPC   PO460720  29.185  22.970   5.853
 9770POPC   GL160721  29.159  22.892   6.153
 9770POPC   GL260722  29.245  23.043   6.153
 9770POPC   C1A60723  29.170  22.942   6.453
 9770POPC   D2A60724  29.103  22.903   6.753
 9770POPC   C3A60725  29.167  22.926   7.053
 9770POPC   C4A60726  29.115  22.916   7.353
 9770POPC   C1B60727  29.327  23.142   6.453
 9770POPC   C2B60728  29.295  23.168   6.753
 9770POPC   C3B60729  29.289  23.099   7.053
 9770POPC   C4B60730  29.258  23.165   7.353
 9771POPC   NC360731  19.055  34.530   5.553
 9771POPC   PO460732  19.071  34.546   5.853
 9771POPC   GL160733  19.019  34.561   6.153
 9771POPC   GL260734  18.894  34.609   6.153
 9771POPC   C1A60735  19.074  34.567   6.453
 9771POPC   D2A60736  19.049  34.569   6.753
 9771POPC   C3A60737  19.010  34.598   7.053
 9771POPC   C4A60738  19.041  34.571   7.353
 9771POPC   C1B60739  18.812  34.549   6.453
 9771POPC   C2B60740  18.795  34.575   6.753
 9771POPC   C3B60741  18.774  34.561   7.053
 9771POPC   C4B60742  18.835  34.608   7.353
 9772POPC   NC360743  43.099  14.371   5.553
 9772POPC   PO460744  43.144  14.412   5.853
 9772POPC   GL160745  43.146  14.377   6.153
 9772POPC   GL260746  42.971  14.383   6.153
 9772POPC   C1A60747  43.141  14.401   6.453
 9772POPC   D2A60748  43.083  14.440   6.753
 9772POPC   C3A60749  43.124  14.376   7.053
 9772POPC   C4A60750  43.107  14.360   7.353
 9772POPC   C1B60751  42.828  14.384   6.453
 9772POPC   C2B60752  42.835  14.395   6.753
 9772POPC   C3B60753  42.887  14.444   7.053
 9772POPC   C4B60754  42.871  14.418   7.353
 9773POPC   NC360755  15.912   7.470   5.553
 9773POPC   PO460756  15.984   7.389   5.853
 9773POPC   GL160757  15.997   7.412   6.153
 9773POPC   GL260758  15.884   7.524   6.153
 9773POPC   C1A60759  15.925   7.408   6.453
 9773POPC   D2A60760  15.951   7.403   6.753
 9773POPC   C3A60761  15.968   7.441   7.053
 9773POPC   C4A60762  15.995   7.398   7.353
 9773POPC   C1B60763  15.766   7.615   6.453
 9773POPC   C2B60764  15.810   7.608   6.753
 9773POPC   C3B60765  15.732   7.590   7.053
 9773POPC   C4B60766  15.733   7.549   7.353
 9774POPC   NC360767   5.917  20.630   5.553
 9774POPC   PO460768   5.871  20.598   5.853
 9774POPC   GL160769   5.891  20.585   6.153
 9774POPC   GL260770   5.943  20.491   6.153
 9774POPC   C1A60771   5.826  20.583   6.453
 9774POPC   D2A60772   5.903  20.657   6.753
 9774POPC   C3A60773   5.820  20.627   7.053
 9774POPC   C4A60774   5.899  20.627   7.353
 9774POPC   C1B60775   5.950  20.419   6.453
 9774POPC   C2B60776   6.011  20.413   6.753
 9774POPC   C3B60777   5.959  20.360   7.053
 9774POPC   C4B60778   5.962  20.406   7.353
 9775POPC   NC360779   8.213  26.845   5.553
 9775POPC   PO460780   8.162  26.785   5.853
 9775POPC   GL160781   8.244  26.835   6.153
 9775POPC   GL260782   8.322  26.815   6.153
 9775POPC   C1A60783   8.210  26.811   6.453
 9775POPC   D2A60784   8.219  26.848   6.753
 9775POPC   C3A60785   8.181  26.801   7.053
 9775POPC   C4A60786   8.151  26.834   7.353
 9775POPC   C1B60787   8.433  26.677   6.453
 9775POPC   C2B60788   8.471  26.721   6.753
 9775POPC   C3B60789   8.466  26.735   7.053
 9775POPC   C4B60790   8.376  26.720   7.353
 9776POPC   NC360791  20.657  27.618   5.553
 9776POPC   PO460792  20.634  27.592   5.853
 9776POPC   GL160793  20.607  27.586   6.153
 9776POPC   GL260794  20.647  27.659   6.153
 9776POPC   C1A60795  20.656  27.639   6.453
 9776POPC   D2A60796  20.642  27.642   6.753
 9776POPC   C3A60797  20.562  27.630   7.053
 9776POPC   C4A60798  20.575  27.586   7.353
 9776POPC   C1B60799  20.698  27.845   6.453
 9776POPC   C2B60800  20.745  27.804   6.753
 9776POPC   C3B60801  20.690  27.801   7.053
 9776POPC   C4B60802  20.710  27.846   7.353
 9777POPC   NC360803  40.734  26.083   5.553
 9777POPC   PO460804  40.829  26.029   5.853
 9777POPC   GL160805  40.741  25.994   6.153
 9777POPC   GL260806  40.623  26.126   6.153
 9777POPC   C1A60807  40.807  26.039   6.453
 9777POPC   D2A60808  40.753  26.077   6.753
 9777POPC   C3A60809  40.752  26.079   7.053
 9777POPC   C4A60810  40.777  26.084   7.353
 9777POPC   C1B60811  40.548  26.161   6.453
 9777POPC   C2B60812  40.546  26.126   6.753
 9777POPC   C3B60813  40.541  26.156   7.053
 9777POPC   C4B60814  40.597  26.147   7.353
 9778POPC   NC360815  39.972   4.309   5.553
 9778POPC   PO460816  39.985   4.296   5.853
 9778POPC   GL160817  40.042   4.351   6.153
 9778POPC   GL260818  40.099   4.245   6.153
 9778POPC   C1A60819  40.035   4.339   6.453
 9778POPC   D2A60820  40.046   4.278   6.753
 9778POPC   C3A60821  40.022   4.282   7.053
 9778POPC   C4A60822  39.957   4.340   7.353
 9778POPC   C1B60823  40.165   4.057   6.453
 9778POPC   C2B60824  40.089   4.054   6.753
 9778POPC   C3B60825  40.161   4.129   7.053
 9778POPC   C4B60826  40.133   4.129   7.353
 9779POPC   NC360827  26.788  19.824   5.553
 9779POPC   PO460828  26.837  19.859   5.853
 9779POPC   GL160829  26.773  19.837   6.153
 9779POPC   GL260830  26.701  19.766   6.153
 9779POPC   C1A60831  26.813  19.805   6.453
 9779POPC   D2A60832  26.861  19.795   6.753
 9779POPC   C3A60833  26.790  19.802   7.053
 9779POPC   C4A60834  26.853  19.794   7.353
 9779POPC   C1B60835  26.630  19.724   6.453
 9779POPC   C2B60836  26.672  19.648   6.753
 9779POPC   C3B60837  26.670  19.666   7.053
 9779POPC   C4B60838  26.635  19.708   7.353
 9780POPC   NC360839  29.957   2.779   5.553
 9780POPC   PO460840  29.959   2.740   5.853
 9780POPC   GL160841  29.942   2.732   6.153
 9780POPC   GL260842  29.789   2.851   6.153
 9780POPC   C1A60843  29.872   2.801   6.453
 9780POPC   D2A60844  29.949   2.782   6.753
 9780POPC   C3A60845  29.968   2.723   7.053
 9780POPC   C4A60846  29.969   2.815   7.353
 9780POPC   C1B60847  29.734   2.888   6.453
 9780POPC   C2B60848  29.654   2.825   6.753
 9780POPC   C3B60849  29.659   2.887   7.053
 9780POPC   C4B60850  29.711   2.857   7.353
 9781POPC   NC360851  20.572  21.360   5.553
 9781POPC   PO460852  20.605  21.391   5.853
 9781POPC   GL160853  20.652  21.378   6.153
 9781POPC   GL260854  20.663  21.296   6.153
 9781POPC   C1A60855  20.607  21.339   6.453
 9781POPC   D2A60856  20.627  21.431   6.753
 9781POPC   C3A60857  20.623  21.386   7.053
 9781POPC   C4A60858  20.637  21.377   7.353
 9781POPC   C1B60859  20.680  21.141   6.453
 9781POPC   C2B60860  20.703  21.149   6.753
 9781POPC   C3B60861  20.649  21.122   7.053
 9781POPC   C4B60862  20.721  21.126   7.353
 9782POPC   NC360863  19.793  34.580   5.553
 9782POPC   PO460864  19.874  34.529   5.853
 9782POPC   GL160865  19.831  34.612   6.153
 9782POPC   GL260866  19.971  34.681   6.153
 9782POPC   C1A60867  19.792  34.579   6.453
 9782POPC   D2A60868  19.881  34.599   6.753
 9782POPC   C3A60869  19.803  34.555   7.053
 9782POPC   C4A60870  19.821  34.540   7.353
 9782POPC   C1B60871  20.043  34.706   6.453
 9782POPC   C2B60872  20.062  34.685   6.753
 9782POPC   C3B60873  20.099  34.673   7.053
 9782POPC   C4B60874  20.020  34.713   7.353
 9783POPC   NC360875  36.110  26.834   5.553
 9783POPC   PO460876  36.105  26.814   5.853
 9783POPC   GL160877  36.120  26.769   6.153
 9783POPC   GL260878  36.072  26.657   6.153
 9783POPC   C1A60879  36.139  26.853   6.453
 9783POPC   D2A60880  36.089  26.845   6.753
 9783POPC   C3A60881  36.126  26.809   7.053
 9783POPC   C4A60882  36.156  26.795   7.353
 9783POPC   C1B60883  36.047  26.536   6.453
 9783POPC   C2B60884  36.046  26.613   6.753
 9783POPC   C3B60885  36.069  26.544   7.053
 9783POPC   C4B60886  36.135  26.564   7.353
 9784POPC   NC360887  37.718  23.737   5.553
 9784POPC   PO460888  37.636  23.697   5.853
 9784POPC   GL160889  37.713  23.707   6.153
 9784POPC   GL260890  37.713  23.655   6.153
 9784POPC   C1A60891  37.638  23.680   6.453
 9784POPC   D2A60892  37.694  23.705   6.753
 9784POPC   C3A60893  37.709  23.746   7.053
 9784POPC   C4A60894  37.659  23.715   7.353
 9784POPC   C1B60895  37.845  23.552   6.453
 9784POPC   C2B60896  37.780  23.511   6.753
 9784POPC   C3B60897  37.795  23.471   7.053
 9784POPC   C4B60898  37.805  23.483   7.353
 9785POPC   NC360899  25.310  25.995   5.553
 9785POPC   PO460900  25.292  26.043   5.853
 9785POPC   GL160901  25.307  26.039   6.153
 9785POPC   GL260902  25.153  25.993   6.153
 9785POPC   C1A60903  25.226  26.059   6.453
 9785POPC   D2A60904  25.243  26.075   6.753
 9785POPC   C3A60905  25.306  26.021   7.053
 9785POPC   C4A60906  25.245  26.072   7.353
 9785POPC   C1B60907  25.157  25.867   6.453
 9785POPC   C2B60908  25.071  25.807   6.753
 9785POPC   C3B60909  25.109  25.804   7.053
 9785POPC   C4B60910  25.141  25.831   7.353
 9786POPC   NC360911  30.654  22.911   5.553
 9786POPC   PO460912  30.655  22.959   5.853
 9786POPC   GL160913  30.711  22.894   6.153
 9786POPC   GL260914  30.597  23.085   6.153
 9786POPC   C1A60915  30.688  22.905   6.453
 9786POPC   D2A60916  30.656  22.918   6.753
 9786POPC   C3A60917  30.679  22.908   7.053
 9786POPC   C4A60918  30.657  22.912   7.353
 9786POPC   C1B60919  30.610  23.137   6.453
 9786POPC   C2B60920  30.634  23.200   6.753
 9786POPC   C3B60921  30.550  23.126   7.053
 9786POPC   C4B60922  30.589  23.129   7.353
 9787POPC   NC360923  20.623   2.748   5.553
 9787POPC   PO460924  20.647   2.747   5.853
 9787POPC   GL160925  20.586   2.761   6.153
 9787POPC   GL260926  20.710   2.714   6.153
 9787POPC   C1A60927  20.655   2.811   6.453
 9787POPC   D2A60928  20.597   2.767   6.753
 9787POPC   C3A60929  20.639   2.717   7.053
 9787POPC   C4A60930  20.640   2.729   7.353
 9787POPC   C1B60931  20.818   2.548   6.453
 9787POPC   C2B60932  20.740   2.580   6.753
 9787POPC   C3B60933  20.773   2.529   7.053
 9787POPC   C4B60934  20.786   2.578   7.353
 9788POPC   NC360935  15.920  21.435   5.553
 9788POPC   PO460936  15.957  21.339   5.853
 9788POPC   GL160937  15.955  21.377   6.153
 9788POPC   GL260938  16.065  21.362   6.153
 9788POPC   C1A60939  15.995  21.435   6.453
 9788POPC   D2A60940  15.982  21.398   6.753
 9788POPC   C3A60941  15.944  21.342   7.053
 9788POPC   C4A60942  15.971  21.390   7.353
 9788POPC   C1B60943  16.170  21.252   6.453
 9788POPC   C2B60944  16.119  21.208   6.753
 9788POPC   C3B60945  16.210  21.299   7.053
 9788POPC   C4B60946  16.145  21.301   7.353
 9789POPC   NC360947  31.426  20.623   5.553
 9789POPC   PO460948  31.429  20.584   5.853
 9789POPC   GL160949  31.445  20.623   6.153
 9789POPC   GL260950  31.392  20.511   6.153
 9789POPC   C1A60951  31.450  20.656   6.453
 9789POPC   D2A60952  31.446  20.655   6.753
 9789POPC   C3A60953  31.429  20.581   7.053
 9789POPC   C4A60954  31.485  20.579   7.353
 9789POPC   C1B60955  31.275  20.417   6.453
 9789POPC   C2B60956  31.281  20.444   6.753
 9789POPC   C3B60957  31.297  20.436   7.053
 9789POPC   C4B60958  31.340  20.453   7.353
 9790POPC   NC360959  33.013  43.903   5.553
 9790POPC   PO460960  33.015  43.842   5.853
 9790POPC   GL160961  32.992  43.854   6.153
 9790POPC   GL260962  33.190  43.877   6.153
 9790POPC   C1A60963  32.990  43.866   6.453
 9790POPC   D2A60964  33.065  43.907   6.753
 9790POPC   C3A60965  32.980  43.912   7.053
 9790POPC   C4A60966  33.050  43.873   7.353
 9790POPC   C1B60967  33.306  43.979   6.453
 9790POPC   C2B60968  33.261  43.916   6.753
 9790POPC   C3B60969  33.295  43.970   7.053
 9790POPC   C4B60970  33.257  43.965   7.353
 9791POPC   NC360971   6.686  37.667   5.553
 9791POPC   PO460972   6.646  37.660   5.853
 9791POPC   GL160973   6.642  37.705   6.153
 9791POPC   GL260974   6.774  37.792   6.153
 9791POPC   C1A60975   6.683  37.725   6.453
 9791POPC   D2A60976   6.606  37.688   6.753
 9791POPC   C3A60977   6.689  37.641   7.053
 9791POPC   C4A60978   6.627  37.683   7.353
 9791POPC   C1B60979   6.897  37.810   6.453
 9791POPC   C2B60980   6.891  37.784   6.753
 9791POPC   C3B60981   6.858  37.836   7.053
 9791POPC   C4B60982   6.864  37.790   7.353
 9792POPC   NC360983  22.908  12.858   5.553
 9792POPC   PO460984  22.902  12.809   5.853
 9792POPC   GL160985  22.936  12.880   6.153
 9792POPC   GL260986  23.011  12.950   6.153
 9792POPC   C1A60987  22.930  12.870   6.453
 9792POPC   D2A60988  22.915  12.821   6.753
 9792POPC   C3A60989  22.981  12.870   7.053
 9792POPC   C4A60990  22.912  12.894   7.353
 9792POPC   C1B60991  23.026  13.044   6.453
 9792POPC   C2B60992  23.025  13.040   6.753
 9792POPC   C3B60993  23.012  13.121   7.053
 9792POPC   C4B60994  23.026  13.061   7.353
 9793POPC   NC360995  27.608  14.441   5.553
 9793POPC   PO460996  27.573  14.425   5.853
 9793POPC   GL160997  27.554  14.363   6.153
 9793POPC   GL260998  27.435  14.369   6.153
 9793POPC   C1A60999  27.565  14.377   6.453
 9793POPC   D2A61000  27.618  14.440   6.753
 9793POPC   C3A61001  27.564  14.354   7.053
 9793POPC   C4A61002  27.593  14.357   7.353
 9793POPC   C1B61003  27.318  14.334   6.453
 9793POPC   C2B61004  27.383  14.297   6.753
 9793POPC   C3B61005  27.330  14.318   7.053
 9793POPC   C4B61006  27.356  14.335   7.353
 9794POPC   NC361007  22.118  33.043   5.553
 9794POPC   PO461008  22.149  33.044   5.853
 9794POPC   GL161009  22.155  33.007   6.153
 9794POPC   GL261010  22.230  33.129   6.153
 9794POPC   C1A61011  22.196  33.018   6.453
 9794POPC   D2A61012  22.124  33.063   6.753
 9794POPC   C3A61013  22.153  33.042   7.053
 9794POPC   C4A61014  22.140  33.048   7.353
 9794POPC   C1B61015  22.279  33.205   6.453
 9794POPC   C2B61016  22.363  33.179   6.753
 9794POPC   C3B61017  22.324  33.264   7.053
 9794POPC   C4B61018  22.289  33.213   7.353
 9795POPC   NC361019  14.397   2.010   5.553
 9795POPC   PO461020  14.376   1.959   5.853
 9795POPC   GL161021  14.375   1.957   6.153
 9795POPC   GL261022  14.317   1.945   6.153
 9795POPC   C1A61023  14.414   2.022   6.453
 9795POPC   D2A61024  14.377   1.984   6.753
 9795POPC   C3A61025  14.426   1.987   7.053
 9795POPC   C4A61026  14.405   1.974   7.353
 9795POPC   C1B61027  14.188   1.982   6.453
 9795POPC   C2B61028  14.131   1.973   6.753
 9795POPC   C3B61029  14.124   2.024   7.053
 9795POPC   C4B61030  14.203   1.976   7.353
 9796POPC   NC361031   7.444  11.275   5.553
 9796POPC   PO461032   7.440  11.299   5.853
 9796POPC   GL161033   7.441  11.294   6.153
 9796POPC   GL261034   7.350  11.209   6.153
 9796POPC   C1A61035   7.398  11.262   6.453
 9796POPC   D2A61036   7.467  11.331   6.753
 9796POPC   C3A61037   7.401  11.283   7.053
 9796POPC   C4A61038   7.426  11.304   7.353
 9796POPC   C1B61039   7.137  11.237   6.453
 9796POPC   C2B61040   7.189  11.188   6.753
 9796POPC   C3B61041   7.147  11.202   7.053
 9796POPC   C4B61042   7.146  11.205   7.353
 9797POPC   NC361043  39.206  22.185   5.553
 9797POPC   PO461044  39.227  22.130   5.853
 9797POPC   GL161045  39.219  22.179   6.153
 9797POPC   GL261046  39.191  22.062   6.153
 9797POPC   C1A61047  39.252  22.195   6.453
 9797POPC   D2A61048  39.251  22.119   6.753
 9797POPC   C3A61049  39.206  22.176   7.053
 9797POPC   C4A61050  39.228  22.151   7.353
 9797POPC   C1B61051  39.071  21.899   6.453
 9797POPC   C2B61052  39.136  21.952   6.753
 9797POPC   C3B61053  39.105  21.924   7.053
 9797POPC   C4B61054  39.069  21.977   7.353
 9798POPC   NC361055  40.786  33.073   5.553
 9798POPC   PO461056  40.789  33.021   5.853
 9798POPC   GL161057  40.788  33.057   6.153
 9798POPC   GL261058  40.692  33.036   6.153
 9798POPC   C1A61059  40.806  33.032   6.453
 9798POPC   D2A61060  40.751  32.977   6.753
 9798POPC   C3A61061  40.756  33.008   7.053
 9798POPC   C4A61062  40.830  33.044   7.353
 9798POPC   C1B61063  40.505  33.047   6.453
 9798POPC   C2B61064  40.495  33.085   6.753
 9798POPC   C3B61065  40.499  33.099   7.053
 9798POPC   C4B61066  40.580  33.090   7.353
 9799POPC   NC361067  17.510  11.337   5.553
 9799POPC   PO461068  17.530  11.317   5.853
 9799POPC   GL161069  17.507  11.300   6.153
 9799POPC   GL261070  17.338  11.342   6.153
 9799POPC   C1A61071  17.464  11.297   6.453
 9799POPC   D2A61072  17.506  11.301   6.753
 9799POPC   C3A61073  17.489  11.299   7.053
 9799POPC   C4A61074  17.542  11.259   7.353
 9799POPC   C1B61075  17.304  11.317   6.453
 9799POPC   C2B61076  17.272  11.264   6.753
 9799POPC   C3B61077  17.273  11.260   7.053
 9799POPC   C4B61078  17.293  11.250   7.353
 9800POPC   NC361079  42.338  12.042   5.553
 9800POPC   PO461080  42.343  12.050   5.853
 9800POPC   GL161081  42.347  12.039   6.153
 9800POPC   GL261082  42.477  12.045   6.153
 9800POPC   C1A61083  42.321  12.100   6.453
 9800POPC   D2A61084  42.338  12.080   6.753
 9800POPC   C3A61085  42.363  12.050   7.053
 9800POPC   C4A61086  42.289  12.106   7.353
 9800POPC   C1B61087  42.504  11.989   6.453
 9800POPC   C2B61088  42.584  11.963   6.753
 9800POPC   C3B61089  42.548  11.994   7.053
 9800POPC   C4B61090  42.569  11.970   7.353
 9801POPC   NC361091  37.712  28.321   5.553
 9801POPC   PO461092  37.707  28.362   5.853
 9801POPC   GL161093  37.729  28.372   6.153
 9801POPC   GL261094  37.801  28.513   6.153
 9801POPC   C1A61095  37.718  28.363   6.453
 9801POPC   D2A61096  37.659  28.393   6.753
 9801POPC   C3A61097  37.727  28.381   7.053
 9801POPC   C4A61098  37.683  28.360   7.353
 9801POPC   C1B61099  37.858  28.540   6.453
 9801POPC   C2B61100  37.821  28.549   6.753
 9801POPC   C3B61101  37.869  28.604   7.053
 9801POPC   C4B61102  37.882  28.573   7.353
 9802POPC   NC361103  20.631  19.079   5.553
 9802POPC   PO461104  20.618  19.089   5.853
 9802POPC   GL161105  20.631  19.076   6.153
 9802POPC   GL261106  20.699  19.005   6.153
 9802POPC   C1A61107  20.656  19.021   6.453
 9802POPC   D2A61108  20.588  19.052   6.753
 9802POPC   C3A61109  20.653  19.040   7.053
 9802POPC   C4A61110  20.586  19.025   7.353
 9802POPC   C1B61111  20.715  18.891   6.453
 9802POPC   C2B61112  20.765  18.846   6.753
 9802POPC   C3B61113  20.703  18.858   7.053
 9802POPC   C4B61114  20.762  18.819   7.353
 9803POPC   NC361115  18.276  11.320   5.553
 9803POPC   PO461116  18.300  11.273   5.853
 9803POPC   GL161117  18.261  11.339   6.153
 9803POPC   GL261118  18.374  11.277   6.153
 9803POPC   C1A61119  18.313  11.340   6.453
 9803POPC   D2A61120  18.267  11.301   6.753
 9803POPC   C3A61121  18.316  11.291   7.053
 9803POPC   C4A61122  18.268  11.251   7.353
 9803POPC   C1B61123  18.533  11.277   6.453
 9803POPC   C2B61124  18.550  11.272   6.753
 9803POPC   C3B61125  18.543  11.304   7.053
 9803POPC   C4B61126  18.497  11.269   7.353
 9804POPC   NC361127  43.112  28.415   5.553
 9804POPC   PO461128  43.111  28.410   5.853
 9804POPC   GL161129  43.106  28.419   6.153
 9804POPC   GL261130  43.052  28.307   6.153
 9804POPC   C1A61131  43.075  28.345   6.453
 9804POPC   D2A61132  43.102  28.417   6.753
 9804POPC   C3A61133  43.111  28.405   7.053
 9804POPC   C4A61134  43.096  28.338   7.353
 9804POPC   C1B61135  42.900  28.164   6.453
 9804POPC   C2B61136  42.904  28.244   6.753
 9804POPC   C3B61137  42.925  28.191   7.053
 9804POPC   C4B61138  42.881  28.171   7.353
 9805POPC   NC361139   1.941  11.272   5.553
 9805POPC   PO461140   1.951  11.321   5.853
 9805POPC   GL161141   1.963  11.265   6.153
 9805POPC   GL261142   2.118  11.350   6.153
 9805POPC   C1A61143   1.946  11.332   6.453
 9805POPC   D2A61144   1.961  11.318   6.753
 9805POPC   C3A61145   2.019  11.314   7.053
 9805POPC   C4A61146   1.964  11.282   7.353
 9805POPC   C1B61147   2.212  11.429   6.453
 9805POPC   C2B61148   2.226  11.348   6.753
 9805POPC   C3B61149   2.183  11.362   7.053
 9805POPC   C4B61150   2.250  11.347   7.353
 9806POPC   NC361151   9.760  26.079   5.553
 9806POPC   PO461152   9.709  26.017   5.853
 9806POPC   GL161153   9.713  26.068   6.153
 9806POPC   GL261154   9.778  26.150   6.153
 9806POPC   C1A61155   9.766  26.041   6.453
 9806POPC   D2A61156   9.780  26.034   6.753
 9806POPC   C3A61157   9.772  26.058   7.053
 9806POPC   C4A61158   9.728  26.026   7.353
 9806POPC   C1B61159   9.900  26.270   6.453
 9806POPC   C2B61160   9.883  26.232   6.753
 9806POPC   C3B61161   9.854  26.250   7.053
 9806POPC   C4B61162   9.887  26.200   7.353
 9807POPC   NC361163  26.816  14.362   5.553
 9807POPC   PO461164  26.816  14.370   5.853
 9807POPC   GL161165  26.845  14.423   6.153
 9807POPC   GL261166  26.811  14.257   6.153
 9807POPC   C1A61167  26.767  14.449   6.453
 9807POPC   D2A61168  26.808  14.404   6.753
 9807POPC   C3A61169  26.805  14.451   7.053
 9807POPC   C4A61170  26.855  14.386   7.353
 9807POPC   C1B61171  26.788  14.175   6.453
 9807POPC   C2B61172  26.784  14.154   6.753
 9807POPC   C3B61173  26.785  14.104   7.053
 9807POPC   C4B61174  26.847  14.145   7.353
 9808POPC   NC361175  27.573  36.097   5.553
 9808POPC   PO461176  27.622  36.115   5.853
 9808POPC   GL161177  27.611  36.085   6.153
 9808POPC   GL261178  27.520  36.137   6.153
 9808POPC   C1A61179  27.640  36.165   6.453
 9808POPC   D2A61180  27.616  36.134   6.753
 9808POPC   C3A61181  27.548  36.135   7.053
 9808POPC   C4A61182  27.626  36.114   7.353
 9808POPC   C1B61183  27.393  36.210   6.453
 9808POPC   C2B61184  27.328  36.221   6.753
 9808POPC   C3B61185  27.360  36.244   7.053
 9808POPC   C4B61186  27.316  36.259   7.353
 9809POPC   NC361187  16.709   4.294   5.553
 9809POPC   PO461188  16.726   4.335   5.853
 9809POPC   GL161189  16.703   4.366   6.153
 9809POPC   GL261190  16.668   4.438   6.153
 9809POPC   C1A61191  16.703   4.300   6.453
 9809POPC   D2A61192  16.700   4.336   6.753
 9809POPC   C3A61193  16.714   4.310   7.053
 9809POPC   C4A61194  16.710   4.342   7.353
 9809POPC   C1B61195  16.564   4.471   6.453
 9809POPC   C2B61196  16.607   4.547   6.753
 9809POPC   C3B61197  16.616   4.514   7.053
 9809POPC   C4B61198  16.561   4.516   7.353
 9810POPC   NC361199  12.120  22.921   5.553
 9810POPC   PO461200  12.028  22.978   5.853
 9810POPC   GL161201  12.119  22.915   6.153
 9810POPC   GL261202  12.095  22.861   6.153
 9810POPC   C1A61203  12.074  22.942   6.453
 9810POPC   D2A61204  12.109  22.939   6.753
 9810POPC   C3A61205  12.081  22.937   7.053
 9810POPC   C4A61206  12.121  22.905   7.353
 9810POPC   C1B61207  12.042  22.647   6.453
 9810POPC   C2B61208  11.979  22.715   6.753
 9810POPC   C3B61209  12.016  22.685   7.053
 9810POPC   C4B61210  12.007  22.694   7.353
 9811POPC   NC361211  16.702  27.553   5.553
 9811POPC   PO461212  16.750  27.629   5.853
 9811POPC   GL161213  16.689  27.603   6.153
 9811POPC   GL261214  16.657  27.649   6.153
 9811POPC   C1A61215  16.747  27.583   6.453
 9811POPC   D2A61216  16.713  27.624   6.753
 9811POPC   C3A61217  16.760  27.632   7.053
 9811POPC   C4A61218  16.708  27.551   7.353
 9811POPC   C1B61219  16.536  27.705   6.453
 9811POPC   C2B61220  16.469  27.711   6.753
 9811POPC   C3B61221  16.517  27.679   7.053
 9811POPC   C4B61222  16.457  27.635   7.353
 9812POPC   NC361223  20.613  26.009   5.553
 9812POPC   PO461224  20.573  26.084   5.853
 9812POPC   GL161225  20.563  26.027   6.153
 9812POPC   GL261226  20.595  25.923   6.153
 9812POPC   C1A61227  20.638  26.047   6.453
 9812POPC   D2A61228  20.615  26.074   6.753
 9812POPC   C3A61229  20.624  26.008   7.053
 9812POPC   C4A61230  20.567  26.023   7.353
 9812POPC   C1B61231  20.584  25.758   6.453
 9812POPC   C2B61232  20.595  25.785   6.753
 9812POPC   C3B61233  20.562  25.840   7.053
 9812POPC   C4B61234  20.578  25.834   7.353
 9813POPC   NC361235  19.823   6.680   5.553
 9813POPC   PO461236  19.868   6.625   5.853
 9813POPC   GL161237  19.826   6.623   6.153
 9813POPC   GL261238  19.993   6.665   6.153
 9813POPC   C1A61239  19.859   6.627   6.453
 9813POPC   D2A61240  19.804   6.601   6.753
 9813POPC   C3A61241  19.817   6.679   7.053
 9813POPC   C4A61242  19.880   6.639   7.353
 9813POPC   C1B61243  20.084   6.564   6.453
 9813POPC   C2B61244  20.080   6.602   6.753
 9813POPC   C3B61245  20.125   6.579   7.053
 9813POPC   C4B61246  20.065   6.623   7.353
 9814POPC   NC361247   6.668  10.488   5.553
 9814POPC   PO461248   6.689  10.532   5.853
 9814POPC   GL161249   6.653  10.512   6.153
 9814POPC   GL261250   6.750  10.434   6.153
 9814POPC   C1A61251   6.620  10.515   6.453
 9814POPC   D2A61252   6.640  10.492   6.753
 9814POPC   C3A61253   6.660  10.569   7.053
 9814POPC   C4A61254   6.606  10.549   7.353
 9814POPC   C1B61255   6.816  10.403   6.453
 9814POPC   C2B61256   6.860  10.429   6.753
 9814POPC   C3B61257   6.848  10.353   7.053
 9814POPC   C4B61258   6.824  10.399   7.353
 9815POPC   NC361259  15.130  19.034   5.553
 9815POPC   PO461260  15.209  19.068   5.853
 9815POPC   GL161261  15.175  19.019   6.153
 9815POPC   GL261262  15.136  18.988   6.153
 9815POPC   C1A61263  15.193  19.043   6.453
 9815POPC   D2A61264  15.173  19.019   6.753
 9815POPC   C3A61265  15.166  19.084   7.053
 9815POPC   C4A61266  15.154  19.063   7.353
 9815POPC   C1B61267  15.072  18.844   6.453
 9815POPC   C2B61268  15.030  18.787   6.753
 9815POPC   C3B61269  15.066  18.809   7.053
 9815POPC   C4B61270  15.044  18.815   7.353
 9816POPC   NC361271  40.743   5.121   5.553
 9816POPC   PO461272  40.832   5.093   5.853
 9816POPC   GL161273  40.793   5.057   6.153
 9816POPC   GL261274  40.870   5.198   6.153
 9816POPC   C1A61275  40.798   5.134   6.453
 9816POPC   D2A61276  40.780   5.090   6.753
 9816POPC   C3A61277  40.737   5.062   7.053
 9816POPC   C4A61278  40.794   5.080   7.353
 9816POPC   C1B61279  41.004   5.231   6.453
 9816POPC   C2B61280  41.007   5.283   6.753
 9816POPC   C3B61281  40.966   5.277   7.053
 9816POPC   C4B61282  40.950   5.264   7.353
 9817POPC   NC361283   9.790  33.753   5.553
 9817POPC   PO461284   9.765  33.795   5.853
 9817POPC   GL161285   9.785  33.822   6.153
 9817POPC   GL261286   9.738  33.683   6.153
 9817POPC   C1A61287   9.714  33.818   6.453
 9817POPC   D2A61288   9.762  33.758   6.753
 9817POPC   C3A61289   9.721  33.836   7.053
 9817POPC   C4A61290   9.702  33.840   7.353
 9817POPC   C1B61291   9.742  33.531   6.453
 9817POPC   C2B61292   9.787  33.527   6.753
 9817POPC   C3B61293   9.744  33.594   7.053
 9817POPC   C4B61294   9.708  33.574   7.353
 9818POPC   NC361295   5.880  13.668   5.553
 9818POPC   PO461296   5.879  13.584   5.853
 9818POPC   GL161297   5.905  13.666   6.153
 9818POPC   GL261298   5.926  13.767   6.153
 9818POPC   C1A61299   5.871  13.585   6.453
 9818POPC   D2A61300   5.886  13.636   6.753
 9818POPC   C3A61301   5.846  13.612   7.053
 9818POPC   C4A61302   5.828  13.594   7.353
 9818POPC   C1B61303   5.984  13.821   6.453
 9818POPC   C2B61304   6.029  13.867   6.753
 9818POPC   C3B61305   5.988  13.793   7.053
 9818POPC   C4B61306   6.015  13.845   7.353
 9819POPC   NC361307  33.849  25.288   5.553
 9819POPC   PO461308  33.813  25.227   5.853
 9819POPC   GL161309  33.786  25.242   6.153
 9819POPC   GL261310  33.753  25.208   6.153
 9819POPC   C1A61311  33.781  25.314   6.453
 9819POPC   D2A61312  33.839  25.259   6.753
 9819POPC   C3A61313  33.831  25.294   7.053
 9819POPC   C4A61314  33.837  25.230   7.353
 9819POPC   C1B61315  33.707  25.089   6.453
 9819POPC   C2B61316  33.643  25.095   6.753
 9819POPC   C3B61317  33.630  25.022   7.053
 9819POPC   C4B61318  33.634  25.035   7.353
 9820POPC   NC361319  11.277  22.132   5.553
 9820POPC   PO461320  11.303  22.189   5.853
 9820POPC   GL161321  11.281  22.138   6.153
 9820POPC   GL261322  11.210  22.105   6.153
 9820POPC   C1A61323  11.345  22.133   6.453
 9820POPC   D2A61324  11.300  22.155   6.753
 9820POPC   C3A61325  11.347  22.193   7.053
 9820POPC   C4A61326  11.277  22.152   7.353
 9820POPC   C1B61327  11.106  22.047   6.453
 9820POPC   C2B61328  11.058  21.971   6.753
 9820POPC   C3B61329  11.145  22.018   7.053
 9820POPC   C4B61330  11.123  22.035   7.353
 9821POPC   NC361331  19.087  15.922   5.553
 9821POPC   PO461332  19.035  15.912   5.853
 9821POPC   GL161333  19.089  15.991   6.153
 9821POPC   GL261334  18.969  15.922   6.153
 9821POPC   C1A61335  19.016  15.909   6.453
 9821POPC   D2A61336  19.021  15.998   6.753
 9821POPC   C3A61337  19.098  15.928   7.053
 9821POPC   C4A61338  19.047  15.924   7.353
 9821POPC   C1B61339  18.829  15.824   6.453
 9821POPC   C2B61340  18.867  15.798   6.753
 9821POPC   C3B61341  18.884  15.789   7.053
 9821POPC   C4B61342  18.896  15.756   7.353
 9822POPC   NC361343  40.013  43.891   5.553
 9822POPC   PO461344  40.022  43.868   5.853
 9822POPC   GL161345  40.014  43.898   6.153
 9822POPC   GL261346  39.990  43.991   6.153
 9822POPC   C1A61347  39.985  43.928   6.453
 9822POPC   D2A61348  40.001  43.929   6.753
 9822POPC   C3A61349  39.968  43.901   7.053
 9822POPC   C4A61350  40.032  43.851   7.353
 9822POPC   C1B61351  40.070  44.138   6.453
 9822POPC   C2B61352  40.035  44.123   6.753
 9822POPC   C3B61353  40.014  44.093   7.053
 9822POPC   C4B61354  40.003  44.145   7.353
 9823POPC   NC361355  17.529  38.410   5.553
 9823POPC   PO461356  17.482  38.478   5.853
 9823POPC   GL161357  17.551  38.456   6.153
 9823POPC   GL261358  17.467  38.550   6.153
 9823POPC   C1A61359  17.457  38.457   6.453
 9823POPC   D2A61360  17.495  38.411   6.753
 9823POPC   C3A61361  17.522  38.446   7.053
 9823POPC   C4A61362  17.483  38.485   7.353
 9823POPC   C1B61363  17.381  38.632   6.453
 9823POPC   C2B61364  17.333  38.693   6.753
 9823POPC   C3B61365  17.310  38.612   7.053
 9823POPC   C4B61366  17.340  38.639   7.353
 9824POPC   NC361367   3.563  43.151   5.553
 9824POPC   PO461368   3.525  43.090   5.853
 9824POPC   GL161369   3.560  43.092   6.153
 9824POPC   GL261370   3.680  43.172   6.153
 9824POPC   C1A61371   3.492  43.093   6.453
 9824POPC   D2A61372   3.510  43.080   6.753
 9824POPC   C3A61373   3.565  43.124   7.053
 9824POPC   C4A61374   3.513  43.129   7.353
 9824POPC   C1B61375   3.744  43.221   6.453
 9824POPC   C2B61376   3.776  43.216   6.753
 9824POPC   C3B61377   3.752  43.223   7.053
 9824POPC   C4B61378   3.742  43.273   7.353
 9825POPC   NC361379   5.913  21.420   5.553
 9825POPC   PO461380   5.916  21.347   5.853
 9825POPC   GL161381   5.887  21.366   6.153
 9825POPC   GL261382   5.948  21.517   6.153
 9825POPC   C1A61383   5.833  21.433   6.453
 9825POPC   D2A61384   5.838  21.410   6.753
 9825POPC   C3A61385   5.896  21.350   7.053
 9825POPC   C4A61386   5.871  21.383   7.353
 9825POPC   C1B61387   5.953  21.606   6.453
 9825POPC   C2B61388   5.921  21.649   6.753
 9825POPC   C3B61389   5.897  21.589   7.053
 9825POPC   C4B61390   5.888  21.602   7.353
 9826POPC   NC361391  41.516  29.182   5.553
 9826POPC   PO461392  41.596  29.129   5.853
 9826POPC   GL161393  41.563  29.159   6.153
 9826POPC   GL261394  41.467  29.198   6.153
 9826POPC   C1A61395  41.531  29.112   6.453
 9826POPC   D2A61396  41.540  29.135   6.753
 9826POPC   C3A61397  41.552  29.101   7.053
 9826POPC   C4A61398  41.584  29.165   7.353
 9826POPC   C1B61399  41.418  29.381   6.453
 9826POPC   C2B61400  41.418  29.344   6.753
 9826POPC   C3B61401  41.364  29.370   7.053
 9826POPC   C4B61402  41.441  29.324   7.353
 9827POPC   NC361403  11.253  13.594   5.553
 9827POPC   PO461404  11.273  13.588   5.853
 9827POPC   GL161405  11.337  13.641   6.153
 9827POPC   GL261406  11.288  13.526   6.153
 9827POPC   C1A61407  11.295  13.604   6.453
 9827POPC   D2A61408  11.333  13.659   6.753
 9827POPC   C3A61409  11.288  13.591   7.053
 9827POPC   C4A61410  11.333  13.663   7.353
 9827POPC   C1B61411  11.277  13.380   6.453
 9827POPC   C2B61412  11.269  13.359   6.753
 9827POPC   C3B61413  11.285  13.343   7.053
 9827POPC   C4B61414  11.279  13.405   7.353
 9828POPC   NC361415   1.239  29.102   5.553
 9828POPC   PO461416   1.167  29.098   5.853
 9828POPC   GL161417   1.213  29.184   6.153
 9828POPC   GL261418   1.071  29.094   6.153
 9828POPC   C1A61419   1.226  29.177   6.453
 9828POPC   D2A61420   1.226  29.195   6.753
 9828POPC   C3A61421   1.191  29.168   7.053
 9828POPC   C4A61422   1.256  29.127   7.353
 9828POPC   C1B61423   1.018  29.031   6.453
 9828POPC   C2B61424   0.959  29.033   6.753
 9828POPC   C3B61425   1.021  29.000   7.053
 9828POPC   C4B61426   1.002  28.966   7.353
 9829POPC   NC361427  10.482  23.717   5.553
 9829POPC   PO461428  10.482  23.671   5.853
 9829POPC   GL161429  10.486  23.707   6.153
 9829POPC   GL261430  10.448  23.677   6.153
 9829POPC   C1A61431  10.501  23.710   6.453
 9829POPC   D2A61432  10.533  23.685   6.753
 9829POPC   C3A61433  10.492  23.696   7.053
 9829POPC   C4A61434  10.548  23.716   7.353
 9829POPC   C1B61435  10.252  23.655   6.453
 9829POPC   C2B61436  10.293  23.651   6.753
 9829POPC   C3B61437  10.231  23.648   7.053
 9829POPC   C4B61438  10.259  23.687   7.353
 9830POPC   NC361439  10.522  16.736   5.553
 9830POPC   PO461440  10.475  16.766   5.853
 9830POPC   GL161441  10.517  16.711   6.153
 9830POPC   GL261442  10.584  16.610   6.153
 9830POPC   C1A61443  10.487  16.682   6.453
 9830POPC   D2A61444  10.510  16.705   6.753
 9830POPC   C3A61445  10.512  16.691   7.053
 9830POPC   C4A61446  10.562  16.751   7.353
 9830POPC   C1B61447  10.542  16.493   6.453
 9830POPC   C2B61448  10.537  16.535   6.753
 9830POPC   C3B61449  10.578  16.448   7.053
 9830POPC   C4B61450  10.536  16.522   7.353
 9831POPC   NC361451   8.189  25.237   5.553
 9831POPC   PO461452   8.182  25.266   5.853
 9831POPC   GL161453   8.182  25.259   6.153
 9831POPC   GL261454   8.331  25.329   6.153
 9831POPC   C1A61455   8.167  25.278   6.453
 9831POPC   D2A61456   8.245  25.228   6.753
 9831POPC   C3A61457   8.165  25.222   7.053
 9831POPC   C4A61458   8.184  25.219   7.353
 9831POPC   C1B61459   8.405  25.312   6.453
 9831POPC   C2B61460   8.456  25.371   6.753
 9831POPC   C3B61461   8.454  25.374   7.053
 9831POPC   C4B61462   8.415  25.293   7.353
 9832POPC   NC361463  37.639  27.624   5.553
 9832POPC   PO461464  37.691  27.640   5.853
 9832POPC   GL161465  37.694  27.604   6.153
 9832POPC   GL261466  37.602  27.631   6.153
 9832POPC   C1A61467  37.686  27.592   6.453
 9832POPC   D2A61468  37.677  27.563   6.753
 9832POPC   C3A61469  37.711  27.549   7.053
 9832POPC   C4A61470  37.644  27.601   7.353
 9832POPC   C1B61471  37.476  27.610   6.453
 9832POPC   C2B61472  37.458  27.698   6.753
 9832POPC   C3B61473  37.467  27.666   7.053
 9832POPC   C4B61474  37.443  27.632   7.353
 9833POPC   NC361475   5.081  41.606   5.553
 9833POPC   PO461476   5.045  41.562   5.853
 9833POPC   GL161477   5.130  41.518   6.153
 9833POPC   GL261478   5.138  41.407   6.153
 9833POPC   C1A61479   5.099  41.515   6.453
 9833POPC   D2A61480   5.130  41.546   6.753
 9833POPC   C3A61481   5.130  41.551   7.053
 9833POPC   C4A61482   5.080  41.576   7.353
 9833POPC   C1B61483   5.212  41.359   6.453
 9833POPC   C2B61484   5.172  41.351   6.753
 9833POPC   C3B61485   5.195  41.369   7.053
 9833POPC   C4B61486   5.140  41.280   7.353
 9834POPC   NC361487   2.000  19.877   5.553
 9834POPC   PO461488   1.967  19.823   5.853
 9834POPC   GL161489   2.037  19.828   6.153
 9834POPC   GL261490   2.114  19.971   6.153
 9834POPC   C1A61491   1.958  19.813   6.453
 9834POPC   D2A61492   1.996  19.843   6.753
 9834POPC   C3A61493   2.007  19.858   7.053
 9834POPC   C4A61494   2.003  19.825   7.353
 9834POPC   C1B61495   2.119  20.045   6.453
 9834POPC   C2B61496   2.112  20.058   6.753
 9834POPC   C3B61497   2.201  19.984   7.053
 9834POPC   C4B61498   2.114  20.013   7.353
 9835POPC   NC361499  19.009   1.224   5.553
 9835POPC   PO461500  19.075   1.248   5.853
 9835POPC   GL161501  19.041   1.204   6.153
 9835POPC   GL261502  19.179   1.070   6.153
 9835POPC   C1A61503  19.047   1.258   6.453
 9835POPC   D2A61504  19.010   1.183   6.753
 9835POPC   C3A61505  19.029   1.259   7.053
 9835POPC   C4A61506  19.102   1.241   7.353
 9835POPC   C1B61507  19.246   1.013   6.453
 9835POPC   C2B61508  19.223   1.059   6.753
 9835POPC   C3B61509  19.241   1.025   7.053
 9835POPC   C4B61510  19.261   1.072   7.353
 9836POPC   NC361511  36.925   2.781   5.553
 9836POPC   PO461512  36.906   2.723   5.853
 9836POPC   GL161513  36.926   2.736   6.153
 9836POPC   GL261514  36.916   2.685   6.153
 9836POPC   C1A61515  36.877   2.749   6.453
 9836POPC   D2A61516  36.906   2.733   6.753
 9836POPC   C3A61517  36.928   2.792   7.053
 9836POPC   C4A61518  36.879   2.759   7.353
 9836POPC   C1B61519  36.994   2.563   6.453
 9836POPC   C2B61520  36.983   2.546   6.753
 9836POPC   C3B61521  37.016   2.483   7.053
 9836POPC   C4B61522  36.938   2.528   7.353
 9837POPC   NC361523   8.974  17.501   5.553
 9837POPC   PO461524   9.008  17.491   5.853
 9837POPC   GL161525   8.952  17.473   6.153
 9837POPC   GL261526   9.123  17.494   6.153
 9837POPC   C1A61527   8.940  17.517   6.453
 9837POPC   D2A61528   8.965  17.514   6.753
 9837POPC   C3A61529   8.942  17.550   7.053
 9837POPC   C4A61530   8.985  17.468   7.353
 9837POPC   C1B61531   9.175  17.461   6.453
 9837POPC   C2B61532   9.166  17.423   6.753
 9837POPC   C3B61533   9.246  17.379   7.053
 9837POPC   C4B61534   9.186  17.410   7.353
 9838POPC   NC361535   8.148  39.999   5.553
 9838POPC   PO461536   8.154  40.032   5.853
 9838POPC   GL161537   8.202  40.001   6.153
 9838POPC   GL261538   8.136  40.107   6.153
 9838POPC   C1A61539   8.224  39.998   6.453
 9838POPC   D2A61540   8.160  40.043   6.753
 9838POPC   C3A61541   8.161  40.015   7.053
 9838POPC   C4A61542   8.203  39.984   7.353
 9838POPC   C1B61543   8.115  40.257   6.453
 9838POPC   C2B61544   8.095  40.286   6.753
 9838POPC   C3B61545   8.129  40.267   7.053
 9838POPC   C4B61546   8.139  40.238   7.353
 9839POPC   NC361547   9.793  20.593   5.553
 9839POPC   PO461548   9.784  20.602   5.853
 9839POPC   GL161549   9.773  20.569   6.153
 9839POPC   GL261550   9.817  20.485   6.153
 9839POPC   C1A61551   9.796  20.587   6.453
 9839POPC   D2A61552   9.765  20.648   6.753
 9839POPC   C3A61553   9.715  20.609   7.053
 9839POPC   C4A61554   9.752  20.561   7.353
 9839POPC   C1B61555   9.961  20.483   6.453
 9839POPC   C2B61556   9.959  20.414   6.753
 9839POPC   C3B61557   9.931  20.453   7.053
 9839POPC   C4B61558   9.930  20.408   7.353
 9840POPC   NC361559   7.393  44.614   5.553
 9840POPC   PO461560   7.430  44.615   5.853
 9840POPC   GL161561   7.407  44.668   6.153
 9840POPC   GL261562   7.462  44.739   6.153
 9840POPC   C1A61563   7.391  44.660   6.453
 9840POPC   D2A61564   7.410  44.621   6.753
 9840POPC   C3A61565   7.386  44.657   7.053
 9840POPC   C4A61566   7.464  44.669   7.353
 9840POPC   C1B61567   7.414  44.934   6.453
 9840POPC   C2B61568   7.442  44.922   6.753
 9840POPC   C3B61569   7.478  44.895   7.053
 9840POPC   C4B61570   7.499  44.924   7.353
 9841POPC   NC361571  18.259   0.436   5.553
 9841POPC   PO461572  18.313   0.461   5.853
 9841POPC   GL161573  18.258   0.446   6.153
 9841POPC   GL261574  18.339   0.324   6.153
 9841POPC   C1A61575  18.253   0.477   6.453
 9841POPC   D2A61576  18.282   0.444   6.753
 9841POPC   C3A61577  18.321   0.414   7.053
 9841POPC   C4A61578  18.260   0.421   7.353
 9841POPC   C1B61579  18.381   0.210   6.453
 9841POPC   C2B61580  18.376   0.149   6.753
 9841POPC   C3B61581  18.338   0.216   7.053
 9841POPC   C4B61582  18.361   0.213   7.353
 9842POPC   NC361583  39.274  28.373   5.553
 9842POPC   PO461584  39.185  28.374   5.853
 9842POPC   GL161585  39.193  28.339   6.153
 9842POPC   GL261586  39.326  28.469   6.153
 9842POPC   C1A61587  39.221  28.322   6.453
 9842POPC   D2A61588  39.250  28.322   6.753
 9842POPC   C3A61589  39.235  28.410   7.053
 9842POPC   C4A61590  39.214  28.389   7.353
 9842POPC   C1B61591  39.443  28.588   6.453
 9842POPC   C2B61592  39.402  28.550   6.753
 9842POPC   C3B61593  39.441  28.522   7.053
 9842POPC   C4B61594  39.414  28.597   7.353
 9843POPC   NC361595   9.752  35.357   5.553
 9843POPC   PO461596   9.749  35.354   5.853
 9843POPC   GL161597   9.760  35.384   6.153
 9843POPC   GL261598   9.664  35.499   6.153
 9843POPC   C1A61599   9.793  35.310   6.453
 9843POPC   D2A61600   9.721  35.307   6.753
 9843POPC   C3A61601   9.703  35.303   7.053
 9843POPC   C4A61602   9.792  35.308   7.353
 9843POPC   C1B61603   9.657  35.557   6.453
 9843POPC   C2B61604   9.710  35.590   6.753
 9843POPC   C3B61605   9.623  35.617   7.053
 9843POPC   C4B61606   9.704  35.571   7.353
 9844POPC   NC361607  43.881  19.806   5.553
 9844POPC   PO461608  43.895  19.848   5.853
 9844POPC   GL161609  43.888  19.843   6.153
 9844POPC   GL261610  43.800  19.816   6.153
 9844POPC   C1A61611  43.863  19.815   6.453
 9844POPC   D2A61612  43.914  19.860   6.753
 9844POPC   C3A61613  43.887  19.814   7.053
 9844POPC   C4A61614  43.916  19.809   7.353
 9844POPC   C1B61615  43.692  19.743   6.453
 9844POPC   C2B61616  43.690  19.713   6.753
 9844POPC   C3B61617  43.651  19.736   7.053
 9844POPC   C4B61618  43.664  19.751   7.353
 9845POPC   NC361619  24.511  43.912   5.553
 9845POPC   PO461620  24.500  43.854   5.853
 9845POPC   GL161621  24.481  43.935   6.153
 9845POPC   GL261622  24.373  43.795   6.153
 9845POPC   C1A61623  24.531  43.926   6.453
 9845POPC   D2A61624  24.487  43.928   6.753
 9845POPC   C3A61625  24.509  43.932   7.053
 9845POPC   C4A61626  24.459  43.910   7.353
 9845POPC   C1B61627  24.303  43.642   6.453
 9845POPC   C2B61628  24.340  43.731   6.753
 9845POPC   C3B61629  24.389  43.682   7.053
 9845POPC   C4B61630  24.309  43.712   7.353
 9846POPC   NC361631  40.831  13.603   5.553
 9846POPC   PO461632  40.746  13.606   5.853
 9846POPC   GL161633  40.766  13.642   6.153
 9846POPC   GL261634  40.672  13.633   6.153
 9846POPC   C1A61635  40.742  13.668   6.453
 9846POPC   D2A61636  40.746  13.587   6.753
 9846POPC   C3A61637  40.797  13.593   7.053
 9846POPC   C4A61638  40.754  13.630   7.353
 9846POPC   C1B61639  40.541  13.695   6.453
 9846POPC   C2B61640  40.583  13.733   6.753
 9846POPC   C3B61641  40.600  13.734   7.053
 9846POPC   C4B61642  40.554  13.740   7.353
 9847POPC   NC361643  41.509  39.970   5.553
 9847POPC   PO461644  41.516  39.997   5.853
 9847POPC   GL161645  41.511  39.990   6.153
 9847POPC   GL261646  41.505  40.085   6.153
 9847POPC   C1A61647  41.540  39.961   6.453
 9847POPC   D2A61648  41.524  40.043   6.753
 9847POPC   C3A61649  41.540  39.999   7.053
 9847POPC   C4A61650  41.515  40.001   7.353
 9847POPC   C1B61651  41.470  40.282   6.453
 9847POPC   C2B61652  41.476  40.198   6.753
 9847POPC   C3B61653  41.480  40.292   7.053
 9847POPC   C4B61654  41.474  40.284   7.353
 9848POPC   NC361655  12.103  37.630   5.553
 9848POPC   PO461656  12.031  37.719   5.853
 9848POPC   GL161657  12.044  37.704   6.153
 9848POPC   GL261658  11.950  37.676   6.153
 9848POPC   C1A61659  12.121  37.658   6.453
 9848POPC   D2A61660  12.065  37.728   6.753
 9848POPC   C3A61661  12.105  37.642   7.053
 9848POPC   C4A61662  12.035  37.659   7.353
 9848POPC   C1B61663  11.787  37.596   6.453
 9848POPC   C2B61664  11.798  37.639   6.753
 9848POPC   C3B61665  11.800  37.657   7.053
 9848POPC   C4B61666  11.831  37.655   7.353
 9849POPC   NC361667  16.704  36.106   5.553
 9849POPC   PO461668  16.696  36.097   5.853
 9849POPC   GL161669  16.745  36.174   6.153
 9849POPC   GL261670  16.683  36.225   6.153
 9849POPC   C1A61671  16.760  36.099   6.453
 9849POPC   D2A61672  16.743  36.166   6.753
 9849POPC   C3A61673  16.692  36.113   7.053
 9849POPC   C4A61674  16.773  36.108   7.353
 9849POPC   C1B61675  16.657  36.396   6.453
 9849POPC   C2B61676  16.624  36.394   6.753
 9849POPC   C3B61677  16.656  36.364   7.053
 9849POPC   C4B61678  16.618  36.325   7.353
 9850POPC   NC361679   9.008   7.400   5.553
 9850POPC   PO461680   8.991   7.394   5.853
 9850POPC   GL161681   8.944   7.372   6.153
 9850POPC   GL261682   9.049   7.411   6.153
 9850POPC   C1A61683   8.977   7.453   6.453
 9850POPC   D2A61684   8.926   7.415   6.753
 9850POPC   C3A61685   9.012   7.439   7.053
 9850POPC   C4A61686   8.970   7.460   7.353
 9850POPC   C1B61687   9.178   7.356   6.453
 9850POPC   C2B61688   9.214   7.375   6.753
 9850POPC   C3B61689   9.176   7.384   7.053
 9850POPC   C4B61690   9.240   7.310   7.353
 9851POPC   NC361691  22.894  17.532   5.553
 9851POPC   PO461692  22.983  17.482   5.853
 9851POPC   GL161693  22.946  17.498   6.153
 9851POPC   GL261694  23.056  17.499   6.153
 9851POPC   C1A61695  22.898  17.536   6.453
 9851POPC   D2A61696  22.980  17.504   6.753
 9851POPC   C3A61697  22.962  17.521   7.053
 9851POPC   C4A61698  22.943  17.483   7.353
 9851POPC   C1B61699  23.159  17.566   6.453
 9851POPC   C2B61700  23.179  17.626   6.753
 9851POPC   C3B61701  23.206  17.601   7.053
 9851POPC   C4B61702  23.196  17.537   7.353
 9852POPC   NC361703  27.635  26.014   5.553
 9852POPC   PO461704  27.579  26.043   5.853
 9852POPC   GL161705  27.568  25.993   6.153
 9852POPC   GL261706  27.583  25.884   6.153
 9852POPC   C1A61707  27.623  26.018   6.453
 9852POPC   D2A61708  27.581  26.091   6.753
 9852POPC   C3A61709  27.616  26.035   7.053
 9852POPC   C4A61710  27.633  25.999   7.353
 9852POPC   C1B61711  27.591  25.818   6.453
 9852POPC   C2B61712  27.618  25.747   6.753
 9852POPC   C3B61713  27.599  25.781   7.053
 9852POPC   C4B61714  27.593  25.794   7.353
 9853POPC   NC361715  41.522   0.390   5.553
 9853POPC   PO461716  41.569   0.469   5.853
 9853POPC   GL161717  41.597   0.466   6.153
 9853POPC   GL261718  41.671   0.561   6.153
 9853POPC   C1A61719  41.567   0.480   6.453
 9853POPC   D2A61720  41.512   0.438   6.753
 9853POPC   C3A61721  41.604   0.403   7.053
 9853POPC   C4A61722  41.607   0.428   7.353
 9853POPC   C1B61723  41.733   0.643   6.453
 9853POPC   C2B61724  41.774   0.608   6.753
 9853POPC   C3B61725  41.696   0.601   7.053
 9853POPC   C4B61726  41.700   0.661   7.353
 9854POPC   NC361727  29.903  36.132   5.553
 9854POPC   PO461728  29.928  36.092   5.853
 9854POPC   GL161729  29.942  36.103   6.153
 9854POPC   GL261730  29.797  36.081   6.153
 9854POPC   C1A61731  29.898  36.174   6.453
 9854POPC   D2A61732  29.920  36.141   6.753
 9854POPC   C3A61733  29.934  36.114   7.053
 9854POPC   C4A61734  29.955  36.150   7.353
 9854POPC   C1B61735  29.687  36.177   6.453
 9854POPC   C2B61736  29.700  36.155   6.753
 9854POPC   C3B61737  29.640  36.155   7.053
 9854POPC   C4B61738  29.712  36.146   7.353
 9855POPC   NC361739  44.635  44.674   5.553
 9855POPC   PO461740  44.616  44.693   5.853
 9855POPC   GL161741  44.633  44.633   6.153
 9855POPC   GL261742  44.553  44.737   6.153
 9855POPC   C1A61743  44.711  44.699   6.453
 9855POPC   D2A61744  44.656  44.656   6.753
 9855POPC   C3A61745  44.676  44.663   7.053
 9855POPC   C4A61746  44.625  44.639   7.353
 9855POPC   C1B61747  44.449  44.792   6.453
 9855POPC   C2B61748  44.471  44.778   6.753
 9855POPC   C3B61749  44.491  44.837   7.053
 9855POPC   C4B61750  44.461  44.853   7.353
 9856POPC   NC361751   4.270  34.567   5.553
 9856POPC   PO461752   4.333  34.574   5.853
 9856POPC   GL161753   4.283  34.616   6.153
 9856POPC   GL261754   4.418  34.658   6.153
 9856POPC   C1A61755   4.331  34.585   6.453
 9856POPC   D2A61756   4.290  34.532   6.753
 9856POPC   C3A61757   4.317  34.621   7.053
 9856POPC   C4A61758   4.330  34.571   7.353
 9856POPC   C1B61759   4.417  34.779   6.453
 9856POPC   C2B61760   4.487  34.801   6.753
 9856POPC   C3B61761   4.405  34.799   7.053
 9856POPC   C4B61762   4.476  34.741   7.353
 9857POPC   NC361763  16.744   1.165   5.553
 9857POPC   PO461764  16.700   1.259   5.853
 9857POPC   GL161765  16.700   1.182   6.153
 9857POPC   GL261766  16.729   1.068   6.153
 9857POPC   C1A61767  16.737   1.172   6.453
 9857POPC   D2A61768  16.766   1.209   6.753
 9857POPC   C3A61769  16.704   1.219   7.053
 9857POPC   C4A61770  16.691   1.225   7.353
 9857POPC   C1B61771  16.838   0.990   6.453
 9857POPC   C2B61772  16.854   1.001   6.753
 9857POPC   C3B61773  16.773   0.984   7.053
 9857POPC   C4B61774  16.764   0.961   7.353
 9858POPC   NC361775   6.665  13.612   5.553
 9858POPC   PO461776   6.604  13.614   5.853
 9858POPC   GL161777   6.648  13.601   6.153
 9858POPC   GL261778   6.580  13.743   6.153
 9858POPC   C1A61779   6.642  13.583   6.453
 9858POPC   D2A61780   6.606  13.629   6.753
 9858POPC   C3A61781   6.646  13.659   7.053
 9858POPC   C4A61782   6.624  13.674   7.353
 9858POPC   C1B61783   6.553  13.810   6.453
 9858POPC   C2B61784   6.487  13.853   6.753
 9858POPC   C3B61785   6.477  13.824   7.053
 9858POPC   C4B61786   6.538  13.885   7.353
 9859POPC   NC361787  18.266   8.245   5.553
 9859POPC   PO461788  18.300   8.164   5.853
 9859POPC   GL161789  18.301   8.205   6.153
 9859POPC   GL261790  18.284   8.121   6.153
 9859POPC   C1A61791  18.242   8.147   6.453
 9859POPC   D2A61792  18.242   8.190   6.753
 9859POPC   C3A61793  18.320   8.176   7.053
 9859POPC   C4A61794  18.324   8.152   7.353
 9859POPC   C1B61795  18.167   7.951   6.453
 9859POPC   C2B61796  18.192   7.957   6.753
 9859POPC   C3B61797  18.240   7.970   7.053
 9859POPC   C4B61798  18.183   7.925   7.353
 9860POPC   NC361799  43.085  44.698   5.553
 9860POPC   PO461800  43.121  44.672   5.853
 9860POPC   GL161801  43.092  44.659   6.153
 9860POPC   GL261802  43.143  44.791   6.153
 9860POPC   C1A61803  43.128  44.657   6.453
 9860POPC   D2A61804  43.091  44.707   6.753
 9860POPC   C3A61805  43.132  44.632   7.053
 9860POPC   C4A61806  43.072  44.670   7.353
 9860POPC   C1B61807  43.213  44.912   6.453
 9860POPC   C2B61808  43.304  44.837   6.753
 9860POPC   C3B61809  43.214  44.871   7.053
 9860POPC   C4B61810  43.292  44.851   7.353
 9861POPC   NC361811   9.768  14.408   5.553
 9861POPC   PO461812   9.704  14.399   5.853
 9861POPC   GL161813   9.779  14.385   6.153
 9861POPC   GL261814   9.649  14.501   6.153
 9861POPC   C1A61815   9.781  14.426   6.453
 9861POPC   D2A61816   9.703  14.393   6.753
 9861POPC   C3A61817   9.725  14.415   7.053
 9861POPC   C4A61818   9.746  14.445   7.353
 9861POPC   C1B61819   9.625  14.617   6.453
 9861POPC   C2B61820   9.657  14.637   6.753
 9861POPC   C3B61821   9.663  14.620   7.053
 9861POPC   C4B61822   9.673  14.638   7.353
 9862POPC   NC361823  16.704   5.868   5.553
 9862POPC   PO461824  16.716   5.856   5.853
 9862POPC   GL161825  16.733   5.885   6.153
 9862POPC   GL261826  16.728   5.951   6.153
 9862POPC   C1A61827  16.766   5.884   6.453
 9862POPC   D2A61828  16.714   5.870   6.753
 9862POPC   C3A61829  16.757   5.896   7.053
 9862POPC   C4A61830  16.749   5.844   7.353
 9862POPC   C1B61831  16.675   6.134   6.453
 9862POPC   C2B61832  16.650   6.100   6.753
 9862POPC   C3B61833  16.685   6.161   7.053
 9862POPC   C4B61834  16.698   6.117   7.353
 9863POPC   NC361835   7.415  30.691   5.553
 9863POPC   PO461836   7.389  30.672   5.853
 9863POPC   GL161837   7.416  30.739   6.153
 9863POPC   GL261838   7.564  30.691   6.153
 9863POPC   C1A61839   7.427  30.687   6.453
 9863POPC   D2A61840   7.390  30.706   6.753
 9863POPC   C3A61841   7.459  30.693   7.053
 9863POPC   C4A61842   7.398  30.711   7.353
 9863POPC   C1B61843   7.695  30.574   6.453
 9863POPC   C2B61844   7.673  30.651   6.753
 9863POPC   C3B61845   7.621  30.568   7.053
 9863POPC   C4B61846   7.704  30.618   7.353
 9864POPC   NC361847   8.933  31.429   5.553
 9864POPC   PO461848   8.989  31.452   5.853
 9864POPC   GL161849   9.019  31.444   6.153
 9864POPC   GL261850   9.007  31.341   6.153
 9864POPC   C1A61851   9.013  31.497   6.453
 9864POPC   D2A61852   8.985  31.459   6.753
 9864POPC   C3A61853   9.011  31.485   7.053
 9864POPC   C4A61854   8.971  31.466   7.353
 9864POPC   C1B61855   9.005  31.282   6.453
 9864POPC   C2B61856   9.078  31.260   6.753
 9864POPC   C3B61857   9.016  31.245   7.053
 9864POPC   C4B61858   9.063  31.221   7.353
 9865POPC   NC361859  44.658  18.264   5.553
 9865POPC   PO461860  44.702  18.276   5.853
 9865POPC   GL161861  44.693  18.288   6.153
 9865POPC   GL261862  44.721  18.329   6.153
 9865POPC   C1A61863  44.656  18.252   6.453
 9865POPC   D2A61864  44.685  18.244   6.753
 9865POPC   C3A61865  44.651  18.331   7.053
 9865POPC   C4A61866  44.651  18.263   7.353
 9865POPC   C1B61867  44.823  18.503   6.453
 9865POPC   C2B61868  44.791  18.467   6.753
 9865POPC   C3B61869  44.846  18.509   7.053
 9865POPC   C4B61870  44.825  18.459   7.353
 9866POPC   NC361871  39.255  19.799   5.553
 9866POPC   PO461872  39.208  19.788   5.853
 9866POPC   GL161873  39.182  19.808   6.153
 9866POPC   GL261874  39.127  19.774   6.153
 9866POPC   C1A61875  39.195  19.835   6.453
 9866POPC   D2A61876  39.254  19.859   6.753
 9866POPC   C3A61877  39.250  19.827   7.053
 9866POPC   C4A61878  39.198  19.820   7.353
 9866POPC   C1B61879  38.985  19.768   6.453
 9866POPC   C2B61880  38.992  19.770   6.753
 9866POPC   C3B61881  38.959  19.734   7.053
 9866POPC   C4B61882  39.050  19.717   7.353
 9867POPC   NC361883   5.843  31.505   5.553
 9867POPC   PO461884   5.914  31.493   5.853
 9867POPC   GL161885   5.861  31.517   6.153
 9867POPC   GL261886   5.920  31.427   6.153
 9867POPC   C1A61887   5.836  31.457   6.453
 9867POPC   D2A61888   5.884  31.470   6.753
 9867POPC   C3A61889   5.908  31.434   7.053
 9867POPC   C4A61890   5.891  31.457   7.353
 9867POPC   C1B61891   6.088  31.298   6.453
 9867POPC   C2B61892   6.073  31.269   6.753
 9867POPC   C3B61893   6.050  31.277   7.053
 9867POPC   C4B61894   6.067  31.297   7.353
 9868POPC   NC361895  27.607  43.119   5.553
 9868POPC   PO461896  27.598  43.100   5.853
 9868POPC   GL161897  27.606  43.108   6.153
 9868POPC   GL261898  27.613  42.944   6.153
 9868POPC   C1A61899  27.567  43.134   6.453
 9868POPC   D2A61900  27.544  43.091   6.753
 9868POPC   C3A61901  27.574  43.107   7.053
 9868POPC   C4A61902  27.595  43.085   7.353
 9868POPC   C1B61903  27.624  42.828   6.453
 9868POPC   C2B61904  27.601  42.840   6.753
 9868POPC   C3B61905  27.608  42.849   7.053
 9868POPC   C4B61906  27.590  42.911   7.353
 9869POPC   NC361907  33.751  43.900   5.553
 9869POPC   PO461908  33.818  43.917   5.853
 9869POPC   GL161909  33.843  43.912   6.153
 9869POPC   GL261910  33.893  43.909   6.153
 9869POPC   C1A61911  33.753  43.850   6.453
 9869POPC   D2A61912  33.838  43.917   6.753
 9869POPC   C3A61913  33.782  43.893   7.053
 9869POPC   C4A61914  33.818  43.892   7.353
 9869POPC   C1B61915  34.081  43.891   6.453
 9869POPC   C2B61916  34.011  43.960   6.753
 9869POPC   C3B61917  34.041  43.927   7.053
 9869POPC   C4B61918  34.025  43.957   7.353
 9870POPC   NC361919  43.933   2.034   5.553
 9870POPC   PO461920  43.853   1.995   5.853
 9870POPC   GL161921  43.874   2.034   6.153
 9870POPC   GL261922  44.013   1.942   6.153
 9870POPC   C1A61923  43.894   1.973   6.453
 9870POPC   D2A61924  43.933   2.026   6.753
 9870POPC   C3A61925  43.858   1.958   7.053
 9870POPC   C4A61926  43.919   2.001   7.353
 9870POPC   C1B61927  44.088   1.935   6.453
 9870POPC   C2B61928  44.166   1.884   6.753
 9870POPC   C3B61929  44.127   1.941   7.053
 9870POPC   C4B61930  44.123   1.910   7.353
 9871POPC   NC361931  29.885  28.331   5.553
 9871POPC   PO461932  29.945  28.320   5.853
 9871POPC   GL161933  29.892  28.409   6.153
 9871POPC   GL261934  29.894  28.251   6.153
 9871POPC   C1A61935  29.873  28.337   6.453
 9871POPC   D2A61936  29.902  28.391   6.753
 9871POPC   C3A61937  29.963  28.334   7.053
 9871POPC   C4A61938  29.876  28.374   7.353
 9871POPC   C1B61939  29.827  28.113   6.453
 9871POPC   C2B61940  29.815  28.197   6.753
 9871POPC   C3B61941  29.765  28.171   7.053
 9871POPC   C4B61942  29.813  28.112   7.353
 9872POPC   NC361943   0.477  30.693   5.553
 9872POPC   PO461944   0.483  30.680   5.853
 9872POPC   GL161945   0.468  30.671   6.153
 9872POPC   GL261946   0.544  30.613   6.153
 9872POPC   C1A61947   0.475  30.669   6.453
 9872POPC   D2A61948   0.403  30.706   6.753
 9872POPC   C3A61949   0.405  30.729   7.053
 9872POPC   C4A61950   0.478  30.702   7.353
 9872POPC   C1B61951   0.625  30.560   6.453
 9872POPC   C2B61952   0.688  30.563   6.753
 9872POPC   C3B61953   0.645  30.555   7.053
 9872POPC   C4B61954   0.629  30.580   7.353
 9873POPC   NC361955  43.862   5.141   5.553
 9873POPC   PO461956  43.907   5.104   5.853
 9873POPC   GL161957  43.899   5.074   6.153
 9873POPC   GL261958  43.930   5.023   6.153
 9873POPC   C1A61959  43.844   5.044   6.453
 9873POPC   D2A61960  43.864   5.117   6.753
 9873POPC   C3A61961  43.876   5.099   7.053
 9873POPC   C4A61962  43.916   5.048   7.353
 9873POPC   C1B61963  43.933   4.865   6.453
 9873POPC   C2B61964  43.987   4.903   6.753
 9873POPC   C3B61965  43.983   4.892   7.053
 9873POPC   C4B61966  43.960   4.891   7.353
 9874POPC   NC361967  15.220  15.203   5.553
 9874POPC   PO461968  15.226  15.162   5.853
 9874POPC   GL161969  15.165  15.155   6.153
 9874POPC   GL261970  15.022  15.130   6.153
 9874POPC   C1A61971  15.218  15.174   6.453
 9874POPC   D2A61972  15.192  15.165   6.753
 9874POPC   C3A61973  15.168  15.224   7.053
 9874POPC   C4A61974  15.196  15.193   7.353
 9874POPC   C1B61975  14.975  15.087   6.453
 9874POPC   C2B61976  14.944  15.019   6.753
 9874POPC   C3B61977  14.937  15.080   7.053
 9874POPC   C4B61978  14.933  15.042   7.353
 9875POPC   NC361979  17.481  19.048   5.553
 9875POPC   PO461980  17.471  19.085   5.853
 9875POPC   GL161981  17.546  19.035   6.153
 9875POPC   GL261982  17.578  19.072   6.153
 9875POPC   C1A61983  17.500  19.050   6.453
 9875POPC   D2A61984  17.546  19.082   6.753
 9875POPC   C3A61985  17.459  19.013   7.053
 9875POPC   C4A61986  17.490  19.089   7.353
 9875POPC   C1B61987  17.685  19.215   6.453
 9875POPC   C2B61988  17.734  19.134   6.753
 9875POPC   C3B61989  17.731  19.143   7.053
 9875POPC   C4B61990  17.773  19.219   7.353
 9876POPC   NC361991  15.132  20.628   5.553
 9876POPC   PO461992  15.182  20.571   5.853
 9876POPC   GL161993  15.165  20.641   6.153
 9876POPC   GL261994  15.267  20.675   6.153
 9876POPC   C1A61995  15.141  20.641   6.453
 9876POPC   D2A61996  15.170  20.654   6.753
 9876POPC   C3A61997  15.217  20.659   7.053
 9876POPC   C4A61998  15.199  20.580   7.353
 9876POPC   C1B61999  15.339  20.795   6.453
 9876POPC   C2B62000  15.322  20.787   6.753
 9876POPC   C3B62001  15.294  20.817   7.053
 9876POPC   C4B62002  15.318  20.854   7.353
 9877POPC   NC362003  39.993   1.261   5.553
 9877POPC   PO462004  39.994   1.166   5.853
 9877POPC   GL162005  40.055   1.260   6.153
 9877POPC   GL262006  39.889   1.166   6.153
 9877POPC   C1A62007  39.976   1.191   6.453
 9877POPC   D2A62008  40.022   1.226   6.753
 9877POPC   C3A62009  39.968   1.257   7.053
 9877POPC   C4A62010  39.990   1.247   7.353
 9877POPC   C1B62011  39.761   1.116   6.453
 9877POPC   C2B62012  39.824   1.060   6.753
 9877POPC   C3B62013  39.787   1.051   7.053
 9877POPC   C4B62014  39.753   1.123   7.353
 9878POPC   NC362015  19.877  19.864   5.553
 9878POPC   PO462016  19.807  19.858   5.853
 9878POPC   GL162017  19.834  19.799   6.153
 9878POPC   GL262018  19.701  19.884   6.153
 9878POPC   C1A62019  19.876  19.837   6.453
 9878POPC   D2A62020  19.802  19.828   6.753
 9878POPC   C3A62021  19.801  19.861   7.053
 9878POPC   C4A62022  19.821  19.882   7.353
 9878POPC   C1B62023  19.601  19.986   6.453
 9878POPC   C2B62024  19.584  19.961   6.753
 9878POPC   C3B62025  19.641  19.994   7.053
 9878POPC   C4B62026  19.638  19.998   7.353
 9879POPC   NC362027   7.409  22.928   5.553
 9879POPC   PO462028   7.387  22.916   5.853
 9879POPC   GL162029   7.444  22.986   6.153
 9879POPC   GL262030   7.435  22.821   6.153
 9879POPC   C1A62031   7.382  22.983   6.453
 9879POPC   D2A62032   7.464  22.926   6.753
 9879POPC   C3A62033   7.384  22.963   7.053
 9879POPC   C4A62034   7.401  22.946   7.353
 9879POPC   C1B62035   7.319  22.653   6.453
 9879POPC   C2B62036   7.381  22.681   6.753
 9879POPC   C3B62037   7.351  22.696   7.053
 9879POPC   C4B62038   7.378  22.715   7.353
 9880POPC   NC362039  36.855   5.849   5.553
 9880POPC   PO462040  36.873   5.862   5.853
 9880POPC   GL162041  36.889   5.897   6.153
 9880POPC   GL262042  36.792   6.005   6.153
 9880POPC   C1A62043  36.915   5.868   6.453
 9880POPC   D2A62044  36.947   5.863   6.753
 9880POPC   C3A62045  36.883   5.860   7.053
 9880POPC   C4A62046  36.910   5.854   7.353
 9880POPC   C1B62047  36.752   6.019   6.453
 9880POPC   C2B62048  36.800   6.028   6.753
 9880POPC   C3B62049  36.762   6.098   7.053
 9880POPC   C4B62050  36.763   6.113   7.353
 9881POPC   NC362051   2.007   9.747   5.553
 9881POPC   PO462052   1.943   9.757   5.853
 9881POPC   GL162053   1.983   9.706   6.153
 9881POPC   GL262054   2.042   9.834   6.153
 9881POPC   C1A62055   1.971   9.740   6.453
 9881POPC   D2A62056   1.957   9.773   6.753
 9881POPC   C3A62057   2.010   9.781   7.053
 9881POPC   C4A62058   1.952   9.779   7.353
 9881POPC   C1B62059   2.088   9.959   6.453
 9881POPC   C2B62060   2.146   9.959   6.753
 9881POPC   C3B62061   2.112   9.919   7.053
 9881POPC   C4B62062   2.108   9.970   7.353
 9882POPC   NC362063   3.513   3.553   5.553
 9882POPC   PO462064   3.524   3.582   5.853
 9882POPC   GL162065   3.568   3.524   6.153
 9882POPC   GL262066   3.651   3.650   6.153
 9882POPC   C1A62067   3.527   3.510   6.453
 9882POPC   D2A62068   3.508   3.518   6.753
 9882POPC   C3A62069   3.522   3.524   7.053
 9882POPC   C4A62070   3.581   3.543   7.353
 9882POPC   C1B62071   3.758   3.673   6.453
 9882POPC   C2B62072   3.780   3.716   6.753
 9882POPC   C3B62073   3.763   3.703   7.053
 9882POPC   C4B62074   3.744   3.653   7.353
 9883POPC   NC362075  12.873  44.697   5.553
 9883POPC   PO462076  12.882  44.694   5.853
 9883POPC   GL162077  12.831  44.639   6.153
 9883POPC   GL262078  12.916  44.586   6.153
 9883POPC   C1A62079  12.876  44.649   6.453
 9883POPC   D2A62080  12.867  44.669   6.753
 9883POPC   C3A62081  12.883  44.653   7.053
 9883POPC   C4A62082  12.847  44.691   7.353
 9883POPC   C1B62083  12.939  44.454   6.453
 9883POPC   C2B62084  12.896  44.451   6.753
 9883POPC   C3B62085  12.934  44.472   7.053
 9883POPC   C4B62086  12.975  44.417   7.353
 9884POPC   NC362087   1.258  32.225   5.553
 9884POPC   PO462088   1.166  32.257   5.853
 9884POPC   GL162089   1.210  32.247   6.153
 9884POPC   GL262090   1.112  32.344   6.153
 9884POPC   C1A62091   1.246  32.254   6.453
 9884POPC   D2A62092   1.230  32.289   6.753
 9884POPC   C3A62093   1.220  32.298   7.053
 9884POPC   C4A62094   1.236  32.266   7.353
 9884POPC   C1B62095   1.037  32.336   6.453
 9884POPC   C2B62096   0.990  32.402   6.753
 9884POPC   C3B62097   0.994  32.410   7.053
 9884POPC   C4B62098   0.980  32.398   7.353
 9885POPC   NC362099  25.998  32.980   5.553
 9885POPC   PO462100  26.001  33.027   5.853
 9885POPC   GL162101  26.059  32.995   6.153
 9885POPC   GL262102  26.096  33.176   6.153
 9885POPC   C1A62103  26.003  32.996   6.453
 9885POPC   D2A62104  26.077  32.990   6.753
 9885POPC   C3A62105  26.059  32.983   7.053
 9885POPC   C4A62106  25.993  32.999   7.353
 9885POPC   C1B62107  26.153  33.298   6.453
 9885POPC   C2B62108  26.105  33.291   6.753
 9885POPC   C3B62109  26.113  33.293   7.053
 9885POPC   C4B62110  26.104  33.244   7.353
 9886POPC   NC362111  15.229  34.604   5.553
 9886POPC   PO462112  15.216  34.589   5.853
 9886POPC   GL162113  15.132  34.573   6.153
 9886POPC   GL262114  15.170  34.691   6.153
 9886POPC   C1A62115  15.149  34.580   6.453
 9886POPC   D2A62116  15.143  34.550   6.753
 9886POPC   C3A62117  15.208  34.595   7.053
 9886POPC   C4A62118  15.154  34.572   7.353
 9886POPC   C1B62119  15.272  34.800   6.453
 9886POPC   C2B62120  15.197  34.822   6.753
 9886POPC   C3B62121  15.239  34.800   7.053
 9886POPC   C4B62122  15.281  34.809   7.353
 9887POPC   NC362123  39.202  18.264   5.553
 9887POPC   PO462124  39.264  18.272   5.853
 9887POPC   GL162125  39.223  18.276   6.153
 9887POPC   GL262126  39.261  18.120   6.153
 9887POPC   C1A62127  39.199  18.309   6.453
 9887POPC   D2A62128  39.191  18.317   6.753
 9887POPC   C3A62129  39.268  18.306   7.053
 9887POPC   C4A62130  39.209  18.238   7.353
 9887POPC   C1B62131  39.270  17.989   6.453
 9887POPC   C2B62132  39.209  18.018   6.753
 9887POPC   C3B62133  39.247  18.081   7.053
 9887POPC   C4B62134  39.307  18.068   7.353
 9888POPC   NC362135   4.318  26.818   5.553
 9888POPC   PO462136   4.278  26.796   5.853
 9888POPC   GL162137   4.332  26.768   6.153
 9888POPC   GL262138   4.291  26.973   6.153
 9888POPC   C1A62139   4.349  26.774   6.453
 9888POPC   D2A62140   4.331  26.855   6.753
 9888POPC   C3A62141   4.364  26.790   7.053
 9888POPC   C4A62142   4.341  26.817   7.353
 9888POPC   C1B62143   4.373  27.026   6.453
 9888POPC   C2B62144   4.353  27.056   6.753
 9888POPC   C3B62145   4.377  27.086   7.053
 9888POPC   C4B62146   4.293  27.035   7.353
 9889POPC   NC362147  16.688  44.674   5.553
 9889POPC   PO462148  16.738  44.636   5.853
 9889POPC   GL162149  16.743  44.694   6.153
 9889POPC   GL262150  16.786  44.541   6.153
 9889POPC   C1A62151  16.710  44.705   6.453
 9889POPC   D2A62152  16.692  44.662   6.753
 9889POPC   C3A62153  16.739  44.712   7.053
 9889POPC   C4A62154  16.715  44.671   7.353
 9889POPC   C1B62155  16.762  44.386   6.453
 9889POPC   C2B62156  16.774  44.403   6.753
 9889POPC   C3B62157  16.839  44.453   7.053
 9889POPC   C4B62158  16.780  44.387   7.353
 9890POPC   NC362159  43.895  13.627   5.553
 9890POPC   PO462160  43.874  13.633   5.853
 9890POPC   GL162161  43.869  13.616   6.153
 9890POPC   GL262162  43.967  13.637   6.153
 9890POPC   C1A62163  43.907  13.584   6.453
 9890POPC   D2A62164  43.861  13.644   6.753
 9890POPC   C3A62165  43.924  13.615   7.053
 9890POPC   C4A62166  43.872  13.654   7.353
 9890POPC   C1B62167  44.077  13.662   6.453
 9890POPC   C2B62168  44.161  13.740   6.753
 9890POPC   C3B62169  44.144  13.705   7.053
 9890POPC   C4B62170  44.080  13.669   7.353
 9891POPC   NC362171  24.443  36.095   5.553
 9891POPC   PO462172  24.467  36.117   5.853
 9891POPC   GL162173  24.457  36.162   6.153
 9891POPC   GL262174  24.451  35.963   6.153
 9891POPC   C1A62175  24.461  36.105   6.453
 9891POPC   D2A62176  24.501  36.172   6.753
 9891POPC   C3A62177  24.467  36.116   7.053
 9891POPC   C4A62178  24.501  36.148   7.353
 9891POPC   C1B62179  24.484  35.852   6.453
 9891POPC   C2B62180  24.449  35.901   6.753
 9891POPC   C3B62181  24.540  35.905   7.053
 9891POPC   C4B62182  24.464  35.893   7.353
 9892POPC   NC362183   5.871  33.774   5.553
 9892POPC   PO462184   5.855  33.811   5.853
 9892POPC   GL162185   5.847  33.847   6.153
 9892POPC   GL262186   5.933  33.820   6.153
 9892POPC   C1A62187   5.855  33.785   6.453
 9892POPC   D2A62188   5.896  33.805   6.753
 9892POPC   C3A62189   5.857  33.802   7.053
 9892POPC   C4A62190   5.858  33.824   7.353
 9892POPC   C1B62191   6.118  33.960   6.453
 9892POPC   C2B62192   6.114  33.878   6.753
 9892POPC   C3B62193   6.039  33.876   7.053
 9892POPC   C4B62194   6.098  33.931   7.353
 9893POPC   NC362195  42.313   5.858   5.553
 9893POPC   PO462196  42.287   5.829   5.853
 9893POPC   GL162197  42.366   5.867   6.153
 9893POPC   GL262198  42.335   5.703   6.153
 9893POPC   C1A62199  42.325   5.842   6.453
 9893POPC   D2A62200  42.347   5.910   6.753
 9893POPC   C3A62201  42.371   5.827   7.053
 9893POPC   C4A62202  42.307   5.887   7.353
 9893POPC   C1B62203  42.359   5.631   6.453
 9893POPC   C2B62204  42.319   5.577   6.753
 9893POPC   C3B62205  42.347   5.661   7.053
 9893POPC   C4B62206  42.370   5.630   7.353
 9894POPC   NC362207  32.210   4.311   5.553
 9894POPC   PO462208  32.204   4.358   5.853
 9894POPC   GL162209  32.233   4.280   6.153
 9894POPC   GL262210  32.115   4.313   6.153
 9894POPC   C1A62211  32.240   4.287   6.453
 9894POPC   D2A62212  32.247   4.356   6.753
 9894POPC   C3A62213  32.204   4.302   7.053
 9894POPC   C4A62214  32.279   4.305   7.353
 9894POPC   C1B62215  31.981   4.182   6.453
 9894POPC   C2B62216  32.062   4.246   6.753
 9894POPC   C3B62217  32.060   4.207   7.053
 9894POPC   C4B62218  32.030   4.161   7.353
 9895POPC   NC362219  12.844  12.034   5.553
 9895POPC   PO462220  12.864  12.120   5.853
 9895POPC   GL162221  12.835  12.027   6.153
 9895POPC   GL262222  12.890  12.213   6.153
 9895POPC   C1A62223  12.877  12.039   6.453
 9895POPC   D2A62224  12.807  12.041   6.753
 9895POPC   C3A62225  12.884  12.090   7.053
 9895POPC   C4A62226  12.832  12.044   7.353
 9895POPC   C1B62227  12.959  12.271   6.453
 9895POPC   C2B62228  12.992  12.354   6.753
 9895POPC   C3B62229  12.949  12.281   7.053
 9895POPC   C4B62230  12.982  12.317   7.353
 9896POPC   NC362231  22.146  18.257   5.553
 9896POPC   PO462232  22.124  18.306   5.853
 9896POPC   GL162233  22.116  18.294   6.153
 9896POPC   GL262234  22.236  18.375   6.153
 9896POPC   C1A62235  22.190  18.282   6.453
 9896POPC   D2A62236  22.125  18.241   6.753
 9896POPC   C3A62237  22.189  18.329   7.053
 9896POPC   C4A62238  22.199  18.310   7.353
 9896POPC   C1B62239  22.368  18.412   6.453
 9896POPC   C2B62240  22.363  18.470   6.753
 9896POPC   C3B62241  22.356  18.441   7.053
 9896POPC   C4B62242  22.373  18.458   7.353
 9897POPC   NC362243  42.352   2.790   5.553
 9897POPC   PO462244  42.327   2.724   5.853
 9897POPC   GL162245  42.355   2.731   6.153
 9897POPC   GL262246  42.409   2.908   6.153
 9897POPC   C1A62247  42.369   2.748   6.453
 9897POPC   D2A62248  42.360   2.720   6.753
 9897POPC   C3A62249  42.323   2.763   7.053
 9897POPC   C4A62250  42.338   2.797   7.353
 9897POPC   C1B62251  42.347   3.008   6.453
 9897POPC   C2B62252  42.417   3.048   6.753
 9897POPC   C3B62253  42.401   3.036   7.053
 9897POPC   C4B62254  42.390   3.050   7.353
 9898POPC   NC362255  44.701   1.222   5.553
 9898POPC   PO462256  44.700   1.240   5.853
 9898POPC   GL162257  44.617   1.262   6.153
 9898POPC   GL262258  44.776   1.241   6.153
 9898POPC   C1A62259  44.691   1.199   6.453
 9898POPC   D2A62260  44.677   1.210   6.753
 9898POPC   C3A62261  44.639   1.228   7.053
 9898POPC   C4A62262  44.657   1.167   7.353
 9898POPC   C1B62263  44.921   1.150   6.453
 9898POPC   C2B62264  44.865   1.174   6.753
 9898POPC   C3B62265  44.949   1.211   7.053
 9898POPC   C4B62266  44.939   1.234   7.353
 9899POPC   NC362267  41.545  37.635   5.553
 9899POPC   PO462268  41.512  37.632   5.853
 9899POPC   GL162269  41.575  37.629   6.153
 9899POPC   GL262270  41.710  37.707   6.153
 9899POPC   C1A62271  41.516  37.663   6.453
 9899POPC   D2A62272  41.558  37.643   6.753
 9899POPC   C3A62273  41.574  37.636   7.053
 9899POPC   C4A62274  41.517  37.714   7.353
 9899POPC   C1B62275  41.853  37.752   6.453
 9899POPC   C2B62276  41.757  37.755   6.753
 9899POPC   C3B62277  41.819  37.686   7.053
 9899POPC   C4B62278  41.843  37.776   7.353
 9900POPC   NC362279  19.866   8.160   5.553
 9900POPC   PO462280  19.845   8.196   5.853
 9900POPC   GL162281  19.874   8.189   6.153
 9900POPC   GL262282  19.880   8.047   6.153
 9900POPC   C1A62283  19.821   8.224   6.453
 9900POPC   D2A62284  19.841   8.164   6.753
 9900POPC   C3A62285  19.863   8.175   7.053
 9900POPC   C4A62286  19.831   8.218   7.353
 9900POPC   C1B62287  19.841   7.962   6.453
 9900POPC   C2B62288  19.849   7.951   6.753
 9900POPC   C3B62289  19.852   7.986   7.053
 9900POPC   C4B62290  19.882   7.987   7.353
 9901POPC   NC362291   1.971  43.150   5.553
 9901POPC   PO462292   2.020  43.138   5.853
 9901POPC   GL162293   2.024  43.079   6.153
 9901POPC   GL262294   1.890  43.065   6.153
 9901POPC   C1A62295   2.005  43.127   6.453
 9901POPC   D2A62296   1.982  43.071   6.753
 9901POPC   C3A62297   1.972  43.079   7.053
 9901POPC   C4A62298   1.943  43.079   7.353
 9901POPC   C1B62299   1.732  42.997   6.453
 9901POPC   C2B62300   1.745  43.005   6.753
 9901POPC   C3B62301   1.773  43.025   7.053
 9901POPC   C4B62302   1.789  43.032   7.353
 9902POPC   NC362303  38.409  17.468   5.553
 9902POPC   PO462304  38.427  17.525   5.853
 9902POPC   GL162305  38.473  17.499   6.153
 9902POPC   GL262306  38.306  17.433   6.153
 9902POPC   C1A62307  38.450  17.470   6.453
 9902POPC   D2A62308  38.451  17.465   6.753
 9902POPC   C3A62309  38.481  17.506   7.053
 9902POPC   C4A62310  38.442  17.545   7.353
 9902POPC   C1B62311  38.237  17.366   6.453
 9902POPC   C2B62312  38.231  17.324   6.753
 9902POPC   C3B62313  38.250  17.370   7.053
 9902POPC   C4B62314  38.301  17.368   7.353
 9903POPC   NC362315   1.986   8.991   5.553
 9903POPC   PO462316   2.015   8.987   5.853
 9903POPC   GL162317   2.007   9.011   6.153
 9903POPC   GL262318   2.087   8.982   6.153
 9903POPC   C1A62319   1.944   8.945   6.453
 9903POPC   D2A62320   1.977   9.022   6.753
 9903POPC   C3A62321   1.953   8.949   7.053
 9903POPC   C4A62322   2.037   8.938   7.353
 9903POPC   C1B62323   2.188   8.946   6.453
 9903POPC   C2B62324   2.242   8.874   6.753
 9903POPC   C3B62325   2.190   8.871   7.053
 9903POPC   C4B62326   2.210   8.864   7.353
 9904POPC   NC362327  34.590  26.837   5.553
 9904POPC   PO462328  34.558  26.774   5.853
 9904POPC   GL162329  34.613  26.846   6.153
 9904POPC   GL262330  34.499  26.743   6.153
 9904POPC   C1A62331  34.552  26.784   6.453
 9904POPC   D2A62332  34.595  26.804   6.753
 9904POPC   C3A62333  34.611  26.789   7.053
 9904POPC   C4A62334  34.550  26.774   7.353
 9904POPC   C1B62335  34.463  26.583   6.453
 9904POPC   C2B62336  34.452  26.661   6.753
 9904POPC   C3B62337  34.389  26.644   7.053
 9904POPC   C4B62338  34.371  26.637   7.353
 9905POPC   NC362339   9.787   8.160   5.553
 9905POPC   PO462340   9.710   8.245   5.853
 9905POPC   GL162341   9.711   8.236   6.153
 9905POPC   GL262342   9.776   8.282   6.153
 9905POPC   C1A62343   9.733   8.154   6.453
 9905POPC   D2A62344   9.715   8.229   6.753
 9905POPC   C3A62345   9.744   8.197   7.053
 9905POPC   C4A62346   9.762   8.225   7.353
 9905POPC   C1B62347   9.692   8.457   6.453
 9905POPC   C2B62348   9.720   8.417   6.753
 9905POPC   C3B62349   9.738   8.421   7.053
 9905POPC   C4B62350   9.768   8.442   7.353
 9906POPC   NC362351   1.203  33.002   5.553
 9906POPC   PO462352   1.223  33.023   5.853
 9906POPC   GL162353   1.193  33.062   6.153
 9906POPC   GL262354   1.180  33.109   6.153
 9906POPC   C1A62355   1.248  33.056   6.453
 9906POPC   D2A62356   1.257  33.019   6.753
 9906POPC   C3A62357   1.232  33.008   7.053
 9906POPC   C4A62358   1.245  33.020   7.353
 9906POPC   C1B62359   1.191  33.260   6.453
 9906POPC   C2B62360   1.133  33.302   6.753
 9906POPC   C3B62361   1.132  33.295   7.053
 9906POPC   C4B62362   1.141  33.272   7.353
 9907POPC   NC362363   5.047   4.366   5.553
 9907POPC   PO462364   5.093   4.359   5.853
 9907POPC   GL162365   5.097   4.317   6.153
 9907POPC   GL262366   5.149   4.190   6.153
 9907POPC   C1A62367   5.044   4.338   6.453
 9907POPC   D2A62368   5.138   4.348   6.753
 9907POPC   C3A62369   5.117   4.313   7.053
 9907POPC   C4A62370   5.124   4.315   7.353
 9907POPC   C1B62371   5.265   4.086   6.453
 9907POPC   C2B62372   5.177   4.149   6.753
 9907POPC   C3B62373   5.181   4.103   7.053
 9907POPC   C4B62374   5.238   4.072   7.353
 9908POPC   NC362375  15.942  35.356   5.553
 9908POPC   PO462376  15.954  35.350   5.853
 9908POPC   GL162377  15.941  35.402   6.153
 9908POPC   GL262378  15.821  35.282   6.153
 9908POPC   C1A62379  15.914  35.375   6.453
 9908POPC   D2A62380  15.955  35.390   6.753
 9908POPC   C3A62381  15.931  35.381   7.053
 9908POPC   C4A62382  15.935  35.372   7.353
 9908POPC   C1B62383  15.790  35.208   6.453
 9908POPC   C2B62384  15.790  35.165   6.753
 9908POPC   C3B62385  15.789  35.239   7.053
 9908POPC   C4B62386  15.700  35.226   7.353
 9909POPC   NC362387  17.523  33.771   5.553
 9909POPC   PO462388  17.485  33.782   5.853
 9909POPC   GL162389  17.513  33.845   6.153
 9909POPC   GL262390  17.574  33.666   6.153
 9909POPC   C1A62391  17.521  33.768   6.453
 9909POPC   D2A62392  17.520  33.758   6.753
 9909POPC   C3A62393  17.465  33.795   7.053
 9909POPC   C4A62394  17.514  33.837   7.353
 9909POPC   C1B62395  17.661  33.586   6.453
 9909POPC   C2B62396  17.615  33.587   6.753
 9909POPC   C3B62397  17.616  33.582   7.053
 9909POPC   C4B62398  17.674  33.641   7.353
 9910POPC   NC362399  43.121  40.785   5.553
 9910POPC   PO462400  43.105  40.750   5.853
 9910POPC   GL162401  43.142  40.769   6.153
 9910POPC   GL262402  43.182  40.820   6.153
 9910POPC   C1A62403  43.107  40.777   6.453
 9910POPC   D2A62404  43.071  40.818   6.753
 9910POPC   C3A62405  43.112  40.832   7.053
 9910POPC   C4A62406  43.130  40.781   7.353
 9910POPC   C1B62407  43.369  40.880   6.453
 9910POPC   C2B62408  43.326  40.864   6.753
 9910POPC   C3B62409  43.330  40.820   7.053
 9910POPC   C4B62410  43.370  40.828   7.353
 9911POPC   NC362411  36.924   1.193   5.553
 9911POPC   PO462412  36.913   1.175   5.853
 9911POPC   GL162413  36.943   1.174   6.153
 9911POPC   GL262414  36.839   1.115   6.153
 9911POPC   C1A62415  36.945   1.255   6.453
 9911POPC   D2A62416  36.933   1.250   6.753
 9911POPC   C3A62417  36.858   1.263   7.053
 9911POPC   C4A62418  36.953   1.173   7.353
 9911POPC   C1B62419  36.776   0.970   6.453
 9911POPC   C2B62420  36.784   1.022   6.753
 9911POPC   C3B62421  36.805   0.974   7.053
 9911POPC   C4B62422  36.800   1.026   7.353
 9912POPC   NC362423  18.283   5.142   5.553
 9912POPC   PO462424  18.258   5.118   5.853
 9912POPC   GL162425  18.267   5.096   6.153
 9912POPC   GL262426  18.338   5.239   6.153
 9912POPC   C1A62427  18.315   5.077   6.453
 9912POPC   D2A62428  18.247   5.056   6.753
 9912POPC   C3A62429  18.320   5.143   7.053
 9912POPC   C4A62430  18.246   5.051   7.353
 9912POPC   C1B62431  18.260   5.385   6.453
 9912POPC   C2B62432  18.308   5.333   6.753
 9912POPC   C3B62433  18.268   5.393   7.053
 9912POPC   C4B62434  18.331   5.381   7.353
 9913POPC   NC362435  29.146  18.282   5.553
 9913POPC   PO462436  29.124  18.307   5.853
 9913POPC   GL162437  29.192  18.264   6.153
 9913POPC   GL262438  29.154  18.113   6.153
 9913POPC   C1A62439  29.146  18.252   6.453
 9913POPC   D2A62440  29.121  18.240   6.753
 9913POPC   C3A62441  29.145  18.235   7.053
 9913POPC   C4A62442  29.143  18.322   7.353
 9913POPC   C1B62443  29.136  18.048   6.453
 9913POPC   C2B62444  29.125  18.031   6.753
 9913POPC   C3B62445  29.098  18.027   7.053
 9913POPC   C4B62446  29.087  18.025   7.353
 9914POPC   NC362447  13.620  10.479   5.553
 9914POPC   PO462448  13.579  10.533   5.853
 9914POPC   GL162449  13.611  10.557   6.153
 9914POPC   GL262450  13.737  10.633   6.153
 9914POPC   C1A62451  13.642  10.500   6.453
 9914POPC   D2A62452  13.625  10.477   6.753
 9914POPC   C3A62453  13.623  10.564   7.053
 9914POPC   C4A62454  13.641  10.512   7.353
 9914POPC   C1B62455  13.826  10.744   6.453
 9914POPC   C2B62456  13.802  10.721   6.753
 9914POPC   C3B62457  13.778  10.670   7.053
 9914POPC   C4B62458  13.850  10.716   7.353
 9915POPC   NC362459  33.768  29.960   5.553
 9915POPC   PO462460  33.840  29.891   5.853
 9915POPC   GL162461  33.759  29.879   6.153
 9915POPC   GL262462  33.719  29.902   6.153
 9915POPC   C1A62463  33.765  29.900   6.453
 9915POPC   D2A62464  33.810  29.912   6.753
 9915POPC   C3A62465  33.829  29.968   7.053
 9915POPC   C4A62466  33.776  29.965   7.353
 9915POPC   C1B62467  33.604  29.778   6.453
 9915POPC   C2B62468  33.559  29.777   6.753
 9915POPC   C3B62469  33.569  29.778   7.053
 9915POPC   C4B62470  33.581  29.853   7.353
 9916POPC   NC362471  20.610   0.462   5.553
 9916POPC   PO462472  20.595   0.431   5.853
 9916POPC   GL162473  20.654   0.397   6.153
 9916POPC   GL262474  20.567   0.606   6.153
 9916POPC   C1A62475  20.647   0.393   6.453
 9916POPC   D2A62476  20.580   0.456   6.753
 9916POPC   C3A62477  20.616   0.452   7.053
 9916POPC   C4A62478  20.600   0.410   7.353
 9916POPC   C1B62479  20.546   0.650   6.453
 9916POPC   C2B62480  20.566   0.639   6.753
 9916POPC   C3B62481  20.553   0.716   7.053
 9916POPC   C4B62482  20.551   0.704   7.353
 9917POPC   NC362483   1.962   2.736   5.553
 9917POPC   PO462484   1.974   2.716   5.853
 9917POPC   GL162485   1.954   2.728   6.153
 9917POPC   GL262486   2.131   2.724   6.153
 9917POPC   C1A62487   1.943   2.744   6.453
 9917POPC   D2A62488   2.026   2.787   6.753
 9917POPC   C3A62489   1.943   2.721   7.053
 9917POPC   C4A62490   2.030   2.726   7.353
 9917POPC   C1B62491   2.177   2.665   6.453
 9917POPC   C2B62492   2.146   2.574   6.753
 9917POPC   C3B62493   2.196   2.599   7.053
 9917POPC   C4B62494   2.182   2.576   7.353
 9918POPC   NC362495  42.332  38.450   5.553
 9918POPC   PO462496  42.305  38.433   5.853
 9918POPC   GL162497  42.378  38.428   6.153
 9918POPC   GL262498  42.489  38.566   6.153
 9918POPC   C1A62499  42.326  38.450   6.453
 9918POPC   D2A62500  42.322  38.451   6.753
 9918POPC   C3A62501  42.373  38.490   7.053
 9918POPC   C4A62502  42.293  38.454   7.353
 9918POPC   C1B62503  42.575  38.568   6.453
 9918POPC   C2B62504  42.598  38.583   6.753
 9918POPC   C3B62505  42.528  38.580   7.053
 9918POPC   C4B62506  42.581  38.568   7.353
 9919POPC   NC362507   4.275  31.516   5.553
 9919POPC   PO462508   4.274  31.506   5.853
 9919POPC   GL162509   4.351  31.466   6.153
 9919POPC   GL262510   4.364  31.626   6.153
 9919POPC   C1A62511   4.285  31.507   6.453
 9919POPC   D2A62512   4.302  31.512   6.753
 9919POPC   C3A62513   4.344  31.518   7.053
 9919POPC   C4A62514   4.279  31.441   7.353
 9919POPC   C1B62515   4.363  31.668   6.453
 9919POPC   C2B62516   4.411  31.670   6.753
 9919POPC   C3B62517   4.421  31.748   7.053
 9919POPC   C4B62518   4.351  31.690   7.353
 9920POPC   NC362519  16.736   0.467   5.553
 9920POPC   PO462520  16.681   0.462   5.853
 9920POPC   GL162521  16.711   0.396   6.153
 9920POPC   GL262522  16.731   0.530   6.153
 9920POPC   C1A62523  16.759   0.418   6.453
 9920POPC   D2A62524  16.773   0.466   6.753
 9920POPC   C3A62525  16.698   0.478   7.053
 9920POPC   C4A62526  16.774   0.437   7.353
 9920POPC   C1B62527  16.602   0.709   6.453
 9920POPC   C2B62528  16.624   0.669   6.753
 9920POPC   C3B62529  16.623   0.629   7.053
 9920POPC   C4B62530  16.602   0.650   7.353
 9921POPC   NC362531   2.727   5.867   5.553
 9921POPC   PO462532   2.809   5.908   5.853
 9921POPC   GL162533   2.755   5.840   6.153
 9921POPC   GL262534   2.881   5.966   6.153
 9921POPC   C1A62535   2.808   5.907   6.453
 9921POPC   D2A62536   2.810   5.823   6.753
 9921POPC   C3A62537   2.764   5.860   7.053
 9921POPC   C4A62538   2.721   5.855   7.353
 9921POPC   C1B62539   2.931   5.960   6.453
 9921POPC   C2B62540   2.965   6.045   6.753
 9921POPC   C3B62541   3.023   5.996   7.053
 9921POPC   C4B62542   3.010   6.029   7.353
 9922POPC   NC362543  30.694  44.663   5.553
 9922POPC   PO462544  30.722  44.622   5.853
 9922POPC   GL162545  30.717  44.630   6.153
 9922POPC   GL262546  30.781  44.503   6.153
 9922POPC   C1A62547  30.671  44.658   6.453
 9922POPC   D2A62548  30.694  44.649   6.753
 9922POPC   C3A62549  30.647  44.665   7.053
 9922POPC   C4A62550  30.684  44.706   7.353
 9922POPC   C1B62551  30.818  44.426   6.453
 9922POPC   C2B62552  30.773  44.468   6.753
 9922POPC   C3B62553  30.722  44.425   7.053
 9922POPC   C4B62554  30.778  44.376   7.353
 9923POPC   NC362555  16.734  13.595   5.553
 9923POPC   PO462556  16.739  13.604   5.853
 9923POPC   GL162557  16.689  13.645   6.153
 9923POPC   GL262558  16.748  13.729   6.153
 9923POPC   C1A62559  16.725  13.638   6.453
 9923POPC   D2A62560  16.775  13.599   6.753
 9923POPC   C3A62561  16.734  13.640   7.053
 9923POPC   C4A62562  16.774  13.650   7.353
 9923POPC   C1B62563  16.774  13.863   6.453
 9923POPC   C2B62564  16.792  13.869   6.753
 9923POPC   C3B62565  16.796  13.915   7.053
 9923POPC   C4B62566  16.822  13.888   7.353
 9924POPC   NC362567  42.368  18.283   5.553
 9924POPC   PO462568  42.340  18.320   5.853
 9924POPC   GL162569  42.358  18.280   6.153
 9924POPC   GL262570  42.265  18.341   6.153
 9924POPC   C1A62571  42.356  18.267   6.453
 9924POPC   D2A62572  42.379  18.271   6.753
 9924POPC   C3A62573  42.337  18.280   7.053
 9924POPC   C4A62574  42.353  18.311   7.353
 9924POPC   C1B62575  42.073  18.337   6.453
 9924POPC   C2B62576  42.088  18.336   6.753
 9924POPC   C3B62577  42.127  18.339   7.053
 9924POPC   C4B62578  42.053  18.372   7.353
 9925POPC   NC362579  38.454  26.781   5.553
 9925POPC   PO462580  38.421  26.815   5.853
 9925POPC   GL162581  38.435  26.769   6.153
 9925POPC   GL262582  38.544  26.871   6.153
 9925POPC   C1A62583  38.483  26.839   6.453
 9925POPC   D2A62584  38.485  26.857   6.753
 9925POPC   C3A62585  38.425  26.801   7.053
 9925POPC   C4A62586  38.462  26.812   7.353
 9925POPC   C1B62587  38.714  26.871   6.453
 9925POPC   C2B62588  38.678  26.799   6.753
 9925POPC   C3B62589  38.678  26.809   7.053
 9925POPC   C4B62590  38.661  26.797   7.353
 9926POPC   NC362591  12.811  40.823   5.553
 9926POPC   PO462592  12.847  40.776   5.853
 9926POPC   GL162593  12.867  40.745   6.153
 9926POPC   GL262594  12.960  40.725   6.153
 9926POPC   C1A62595  12.870  40.745   6.453
 9926POPC   D2A62596  12.895  40.827   6.753
 9926POPC   C3A62597  12.830  40.764   7.053
 9926POPC   C4A62598  12.867  40.740   7.353
 9926POPC   C1B62599  13.008  40.602   6.453
 9926POPC   C2B62600  13.074  40.619   6.753
 9926POPC   C3B62601  12.994  40.562   7.053
 9926POPC   C4B62602  13.021  40.558   7.353
 9927POPC   NC362603  36.889  21.427   5.553
 9927POPC   PO462604  36.928  21.373   5.853
 9927POPC   GL162605  36.952  21.402   6.153
 9927POPC   GL262606  36.844  21.324   6.153
 9927POPC   C1A62607  36.888  21.347   6.453
 9927POPC   D2A62608  36.949  21.349   6.753
 9927POPC   C3A62609  36.877  21.355   7.053
 9927POPC   C4A62610  36.875  21.371   7.353
 9927POPC   C1B62611  36.668  21.234   6.453
 9927POPC   C2B62612  36.697  21.253   6.753
 9927POPC   C3B62613  36.673  21.258   7.053
 9927POPC   C4B62614  36.727  21.263   7.353
 9928POPC   NC362615   5.108  40.014   5.553
 9928POPC   PO462616   5.103  40.009   5.853
 9928POPC   GL162617   5.141  39.963   6.153
 9928POPC   GL262618   5.256  39.965   6.153
 9928POPC   C1A62619   5.062  39.978   6.453
 9928POPC   D2A62620   5.053  39.997   6.753
 9928POPC   C3A62621   5.086  40.042   7.053
 9928POPC   C4A62622   5.102  40.030   7.353
 9928POPC   C1B62623   5.303  40.028   6.453
 9928POPC   C2B62624   5.352  40.004   6.753
 9928POPC   C3B62625   5.296  39.961   7.053
 9928POPC   C4B62626   5.373  39.952   7.353
 9929POPC   NC362627  12.822  35.322   5.553
 9929POPC   PO462628  12.834  35.335   5.853
 9929POPC   GL162629  12.860  35.323   6.153
 9929POPC   GL262630  12.747  35.293   6.153
 9929POPC   C1A62631  12.814  35.399   6.453
 9929POPC   D2A62632  12.874  35.339   6.753
 9929POPC   C3A62633  12.809  35.306   7.053
 9929POPC   C4A62634  12.815  35.395   7.353
 9929POPC   C1B62635  12.585  35.337   6.453
 9929POPC   C2B62636  12.577  35.357   6.753
 9929POPC   C3B62637  12.593  35.306   7.053
 9929POPC   C4B62638  12.632  35.345   7.353
 9930POPC   NC362639   6.658   8.210   5.553
 9930POPC   PO462640   6.673   8.190   5.853
 9930POPC   GL162641   6.624   8.234   6.153
 9930POPC   GL262642   6.543   8.244   6.153
 9930POPC   C1A62643   6.641   8.190   6.453
 9930POPC   D2A62644   6.638   8.227   6.753
 9930POPC   C3A62645   6.610   8.147   7.053
 9930POPC   C4A62646   6.637   8.187   7.353
 9930POPC   C1B62647   6.372   8.245   6.453
 9930POPC   C2B62648   6.421   8.302   6.753
 9930POPC   C3B62649   6.380   8.303   7.053
 9930POPC   C4B62650   6.448   8.258   7.353
 9931POPC   NC362651  40.744  26.802   5.553
 9931POPC   PO462652  40.744  26.857   5.853
 9931POPC   GL162653  40.793  26.832   6.153
 9931POPC   GL262654  40.904  26.882   6.153
 9931POPC   C1A62655  40.778  26.866   6.453
 9931POPC   D2A62656  40.743  26.848   6.753
 9931POPC   C3A62657  40.828  26.856   7.053
 9931POPC   C4A62658  40.815  26.788   7.353
 9931POPC   C1B62659  41.017  26.905   6.453
 9931POPC   C2B62660  40.988  26.886   6.753
 9931POPC   C3B62661  41.026  26.959   7.053
 9931POPC   C4B62662  41.042  26.892   7.353
 9932POPC   NC362663   6.687  15.130   5.553
 9932POPC   PO462664   6.662  15.221   5.853
 9932POPC   GL162665   6.636  15.154   6.153
 9932POPC   GL262666   6.560  15.122   6.153
 9932POPC   C1A62667   6.689  15.149   6.453
 9932POPC   D2A62668   6.657  15.175   6.753
 9932POPC   C3A62669   6.619  15.160   7.053
 9932POPC   C4A62670   6.692  15.149   7.353
 9932POPC   C1B62671   6.424  14.993   6.453
 9932POPC   C2B62672   6.453  15.060   6.753
 9932POPC   C3B62673   6.497  15.032   7.053
 9932POPC   C4B62674   6.449  14.979   7.353
 9933POPC   NC362675  42.302  29.931   5.553
 9933POPC   PO462676  42.309  29.904   5.853
 9933POPC   GL162677  42.293  29.916   6.153
 9933POPC   GL262678  42.453  29.878   6.153
 9933POPC   C1A62679  42.290  29.911   6.453
 9933POPC   D2A62680  42.337  29.942   6.753
 9933POPC   C3A62681  42.317  29.945   7.053
 9933POPC   C4A62682  42.293  29.950   7.353
 9933POPC   C1B62683  42.609  29.907   6.453
 9933POPC   C2B62684  42.587  29.899   6.753
 9933POPC   C3B62685  42.560  29.840   7.053
 9933POPC   C4B62686  42.536  29.848   7.353
 9934POPC   NC362687  10.507  15.205   5.553
 9934POPC   PO462688  10.537  15.221   5.853
 9934POPC   GL162689  10.479  15.146   6.153
 9934POPC   GL262690  10.620  15.305   6.153
 9934POPC   C1A62691  10.566  15.218   6.453
 9934POPC   D2A62692  10.500  15.178   6.753
 9934POPC   C3A62693  10.531  15.182   7.053
 9934POPC   C4A62694  10.531  15.213   7.353
 9934POPC   C1B62695  10.667  15.365   6.453
 9934POPC   C2B62696  10.652  15.334   6.753
 9934POPC   C3B62697  10.737  15.394   7.053
 9934POPC   C4B62698  10.708  15.378   7.353
 9935POPC   NC362699   1.213  36.164   5.553
 9935POPC   PO462700   1.221  36.095   5.853
 9935POPC   GL162701   1.259  36.119   6.153
 9935POPC   GL262702   1.296  35.984   6.153
 9935POPC   C1A62703   1.196  36.101   6.453
 9935POPC   D2A62704   1.254  36.082   6.753
 9935POPC   C3A62705   1.188  36.106   7.053
 9935POPC   C4A62706   1.180  36.135   7.353
 9935POPC   C1B62707   1.290  35.884   6.453
 9935POPC   C2B62708   1.329  35.932   6.753
 9935POPC   C3B62709   1.325  35.913   7.053
 9935POPC   C4B62710   1.269  35.898   7.353
 9936POPC   NC362711  21.350  29.141   5.553
 9936POPC   PO462712  21.344  29.142   5.853
 9936POPC   GL162713  21.365  29.179   6.153
 9936POPC   GL262714  21.507  29.046   6.153
 9936POPC   C1A62715  21.422  29.160   6.453
 9936POPC   D2A62716  21.342  29.128   6.753
 9936POPC   C3A62717  21.346  29.111   7.053
 9936POPC   C4A62718  21.344  29.104   7.353
 9936POPC   C1B62719  21.516  28.959   6.453
 9936POPC   C2B62720  21.504  28.951   6.753
 9936POPC   C3B62721  21.530  28.989   7.053
 9936POPC   C4B62722  21.543  28.908   7.353
 9937POPC   NC362723  41.598  23.679   5.553
 9937POPC   PO462724  41.534  23.748   5.853
 9937POPC   GL162725  41.549  23.679   6.153
 9937POPC   GL262726  41.474  23.847   6.153
 9937POPC   C1A62727  41.556  23.691   6.453
 9937POPC   D2A62728  41.583  23.729   6.753
 9937POPC   C3A62729  41.565  23.692   7.053
 9937POPC   C4A62730  41.535  23.745   7.353
 9937POPC   C1B62731  41.422  23.907   6.453
 9937POPC   C2B62732  41.394  23.943   6.753
 9937POPC   C3B62733  41.423  23.859   7.053
 9937POPC   C4B62734  41.437  23.861   7.353
 9938POPC   NC362735  11.298  35.385   5.553
 9938POPC   PO462736  11.272  35.381   5.853
 9938POPC   GL162737  11.313  35.374   6.153
 9938POPC   GL262738  11.285  35.196   6.153
 9938POPC   C1A62739  11.308  35.396   6.453
 9938POPC   D2A62740  11.263  35.344   6.753
 9938POPC   C3A62741  11.344  35.322   7.053
 9938POPC   C4A62742  11.252  35.370   7.353
 9938POPC   C1B62743  11.252  35.101   6.453
 9938POPC   C2B62744  11.320  35.145   6.753
 9938POPC   C3B62745  11.235  35.134   7.053
 9938POPC   C4B62746  11.231  35.105   7.353
 9939POPC   NC362747  12.071   7.400   5.553
 9939POPC   PO462748  12.062   7.420   5.853
 9939POPC   GL162749  12.104   7.390   6.153
 9939POPC   GL262750  12.074   7.537   6.153
 9939POPC   C1A62751  12.077   7.376   6.453
 9939POPC   D2A62752  12.110   7.413   6.753
 9939POPC   C3A62753  12.071   7.374   7.053
 9939POPC   C4A62754  12.109   7.468   7.353
 9939POPC   C1B62755  12.036   7.686   6.453
 9939POPC   C2B62756  12.024   7.675   6.753
 9939POPC   C3B62757  12.045   7.697   7.053
 9939POPC   C4B62758  12.036   7.685   7.353
 9940POPC   NC362759  23.698  22.145   5.553
 9940POPC   PO462760  23.678  22.208   5.853
 9940POPC   GL162761  23.757  22.194   6.153
 9940POPC   GL262762  23.832  22.105   6.153
 9940POPC   C1A62763  23.762  22.115   6.453
 9940POPC   D2A62764  23.669  22.138   6.753
 9940POPC   C3A62765  23.745  22.195   7.053
 9940POPC   C4A62766  23.679  22.115   7.353
 9940POPC   C1B62767  23.989  22.182   6.453
 9940POPC   C2B62768  23.914  22.139   6.753
 9940POPC   C3B62769  23.923  22.139   7.053
 9940POPC   C4B62770  23.994  22.175   7.353
 9941POPC   NC362771  32.297  33.792   5.553
 9941POPC   PO462772  32.274  33.834   5.853
 9941POPC   GL162773  32.290  33.829   6.153
 9941POPC   GL262774  32.296  33.887   6.153
 9941POPC   C1A62775  32.231  33.844   6.453
 9941POPC   D2A62776  32.284  33.796   6.753
 9941POPC   C3A62777  32.239  33.840   7.053
 9941POPC   C4A62778  32.264  33.780   7.353
 9941POPC   C1B62779  32.366  34.013   6.453
 9941POPC   C2B62780  32.311  34.066   6.753
 9941POPC   C3B62781  32.325  34.022   7.053
 9941POPC   C4B62782  32.332  34.003   7.353
 9942POPC   NC362783  17.487  37.695   5.553
 9942POPC   PO462784  17.518  37.685   5.853
 9942POPC   GL162785  17.498  37.725   6.153
 9942POPC   GL262786  17.388  37.637   6.153
 9942POPC   C1A62787  17.556  37.638   6.453
 9942POPC   D2A62788  17.458  37.663   6.753
 9942POPC   C3A62789  17.468  37.706   7.053
 9942POPC   C4A62790  17.551  37.692   7.353
 9942POPC   C1B62791  17.249  37.640   6.453
 9942POPC   C2B62792  17.306  37.597   6.753
 9942POPC   C3B62793  17.272  37.631   7.053
 9942POPC   C4B62794  17.233  37.638   7.353
 9943POPC   NC362795  28.339  22.908   5.553
 9943POPC   PO462796  28.353  22.955   5.853
 9943POPC   GL162797  28.359  22.916   6.153
 9943POPC   GL262798  28.378  23.052   6.153
 9943POPC   C1A62799  28.417  22.960   6.453
 9943POPC   D2A62800  28.407  22.969   6.753
 9943POPC   C3A62801  28.358  22.956   7.053
 9943POPC   C4A62802  28.413  22.956   7.353
 9943POPC   C1B62803  28.396  23.211   6.453
 9943POPC   C2B62804  28.391  23.196   6.753
 9943POPC   C3B62805  28.440  23.144   7.053
 9943POPC   C4B62806  28.459  23.148   7.353
 9944POPC   NC362807  36.133  13.587   5.553
 9944POPC   PO462808  36.173  13.623   5.853
 9944POPC   GL162809  36.157  13.660   6.153
 9944POPC   GL262810  36.276  13.648   6.153
 9944POPC   C1A62811  36.166  13.648   6.453
 9944POPC   D2A62812  36.151  13.637   6.753
 9944POPC   C3A62813  36.079  13.631   7.053
 9944POPC   C4A62814  36.094  13.608   7.353
 9944POPC   C1B62815  36.351  13.746   6.453
 9944POPC   C2B62816  36.373  13.722   6.753
 9944POPC   C3B62817  36.396  13.688   7.053
 9944POPC   C4B62818  36.322  13.701   7.353
 9945POPC   NC362819   4.358  19.016   5.553
 9945POPC   PO462820   4.334  19.062   5.853
 9945POPC   GL162821   4.342  19.080   6.153
 9945POPC   GL262822   4.346  19.231   6.153
 9945POPC   C1A62823   4.300  19.028   6.453
 9945POPC   D2A62824   4.345  19.037   6.753
 9945POPC   C3A62825   4.364  19.096   7.053
 9945POPC   C4A62826   4.330  19.087   7.353
 9945POPC   C1B62827   4.273  19.323   6.453
 9945POPC   C2B62828   4.300  19.336   6.753
 9945POPC   C3B62829   4.366  19.336   7.053
 9945POPC   C4B62830   4.310  19.267   7.353
 9946POPC   NC362831  21.344  24.488   5.553
 9946POPC   PO462832  21.344  24.448   5.853
 9946POPC   GL162833  21.434  24.491   6.153
 9946POPC   GL262834  21.544  24.499   6.153
 9946POPC   C1A62835  21.430  24.518   6.453
 9946POPC   D2A62836  21.400  24.461   6.753
 9946POPC   C3A62837  21.399  24.458   7.053
 9946POPC   C4A62838  21.371  24.474   7.353
 9946POPC   C1B62839  21.601  24.475   6.453
 9946POPC   C2B62840  21.638  24.454   6.753
 9946POPC   C3B62841  21.648  24.474   7.053
 9946POPC   C4B62842  21.599  24.468   7.353
 9947POPC   NC362843  36.927   6.622   5.553
 9947POPC   PO462844  36.937   6.644   5.853
 9947POPC   GL162845  36.891   6.650   6.153
 9947POPC   GL262846  36.830   6.754   6.153
 9947POPC   C1A62847  36.859   6.631   6.453
 9947POPC   D2A62848  36.855   6.650   6.753
 9947POPC   C3A62849  36.876   6.618   7.053
 9947POPC   C4A62850  36.886   6.624   7.353
 9947POPC   C1B62851  36.742   6.818   6.453
 9947POPC   C2B62852  36.761   6.857   6.753
 9947POPC   C3B62853  36.691   6.816   7.053
 9947POPC   C4B62854  36.716   6.776   7.353
 9948POPC   NC362855  40.031  38.487   5.553
 9948POPC   PO462856  40.030  38.427   5.853
 9948POPC   GL162857  40.043  38.406   6.153
 9948POPC   GL262858  40.102  38.498   6.153
 9948POPC   C1A62859  40.051  38.463   6.453
 9948POPC   D2A62860  40.003  38.445   6.753
 9948POPC   C3A62861  39.966  38.458   7.053
 9948POPC   C4A62862  39.978  38.472   7.353
 9948POPC   C1B62863  40.264  38.571   6.453
 9948POPC   C2B62864  40.217  38.565   6.753
 9948POPC   C3B62865  40.278  38.574   7.053
 9948POPC   C4B62866  40.232  38.576   7.353
 9949POPC   NC362867  27.578  41.580   5.553
 9949POPC   PO462868  27.564  41.593   5.853
 9949POPC   GL162869  27.580  41.543   6.153
 9949POPC   GL262870  27.675  41.620   6.153
 9949POPC   C1A62871  27.580  41.513   6.453
 9949POPC   D2A62872  27.635  41.534   6.753
 9949POPC   C3A62873  27.612  41.514   7.053
 9949POPC   C4A62874  27.561  41.554   7.353
 9949POPC   C1B62875  27.841  41.608   6.453
 9949POPC   C2B62876  27.804  41.601   6.753
 9949POPC   C3B62877  27.845  41.651   7.053
 9949POPC   C4B62878  27.837  41.587   7.353
 9950POPC   NC362879  40.748  36.154   5.553
 9950POPC   PO462880  40.762  36.139   5.853
 9950POPC   GL162881  40.741  36.133   6.153
 9950POPC   GL262882  40.727  36.065   6.153
 9950POPC   C1A62883  40.782  36.135   6.453
 9950POPC   D2A62884  40.808  36.107   6.753
 9950POPC   C3A62885  40.769  36.114   7.053
 9950POPC   C4A62886  40.832  36.095   7.353
 9950POPC   C1B62887  40.624  35.880   6.453
 9950POPC   C2B62888  40.635  35.914   6.753
 9950POPC   C3B62889  40.684  35.934   7.053
 9950POPC   C4B62890  40.611  35.898   7.353
 9951POPC   NC362891  19.861  30.719   5.553
 9951POPC   PO462892  19.806  30.695   5.853
 9951POPC   GL162893  19.794  30.650   6.153
 9951POPC   GL262894  19.711  30.764   6.153
 9951POPC   C1A62895  19.873  30.666   6.453
 9951POPC   D2A62896  19.869  30.656   6.753
 9951POPC   C3A62897  19.852  30.678   7.053
 9951POPC   C4A62898  19.821  30.719   7.353
 9951POPC   C1B62899  19.676  30.899   6.453
 9951POPC   C2B62900  19.613  30.801   6.753
 9951POPC   C3B62901  19.669  30.865   7.053
 9951POPC   C4B62902  19.657  30.809   7.353
 9952POPC   NC362903  30.735  33.762   5.553
 9952POPC   PO462904  30.741  33.766   5.853
 9952POPC   GL162905  30.739  33.774   6.153
 9952POPC   GL262906  30.854  33.824   6.153
 9952POPC   C1A62907  30.699  33.794   6.453
 9952POPC   D2A62908  30.697  33.795   6.753
 9952POPC   C3A62909  30.690  33.804   7.053
 9952POPC   C4A62910  30.657  33.849   7.353
 9952POPC   C1B62911  30.970  33.800   6.453
 9952POPC   C2B62912  30.964  33.776   6.753
 9952POPC   C3B62913  30.930  33.772   7.053
 9952POPC   C4B62914  30.982  33.776   7.353
 9953POPC   NC362915  15.964  26.035   5.553
 9953POPC   PO462916  16.004  26.047   5.853
 9953POPC   GL162917  15.949  26.028   6.153
 9953POPC   GL262918  16.125  26.060   6.153
 9953POPC   C1A62919  15.935  26.054   6.453
 9953POPC   D2A62920  15.926  26.073   6.753
 9953POPC   C3A62921  15.956  26.032   7.053
 9953POPC   C4A62922  15.968  26.029   7.353
 9953POPC   C1B62923  16.153  26.049   6.453
 9953POPC   C2B62924  16.206  26.040   6.753
 9953POPC   C3B62925  16.192  26.123   7.053
 9953POPC   C4B62926  16.190  26.077   7.353
 9954POPC   NC362927   4.364  32.209   5.553
 9954POPC   PO462928   4.279  32.265   5.853
 9954POPC   GL162929   4.359  32.270   6.153
 9954POPC   GL262930   4.448  32.178   6.153
 9954POPC   C1A62931   4.305  32.228   6.453
 9954POPC   D2A62932   4.366  32.276   6.753
 9954POPC   C3A62933   4.341  32.288   7.053
 9954POPC   C4A62934   4.276  32.221   7.353
 9954POPC   C1B62935   4.525  32.090   6.453
 9954POPC   C2B62936   4.499  32.069   6.753
 9954POPC   C3B62937   4.570  32.105   7.053
 9954POPC   C4B62938   4.498  32.070   7.353
 9955POPC   NC362939  19.881   3.526   5.553
 9955POPC   PO462940  19.866   3.508   5.853
 9955POPC   GL162941  19.867   3.494   6.153
 9955POPC   GL262942  19.967   3.555   6.153
 9955POPC   C1A62943  19.828   3.495   6.453
 9955POPC   D2A62944  19.862   3.540   6.753
 9955POPC   C3A62945  19.813   3.496   7.053
 9955POPC   C4A62946  19.856   3.525   7.353
 9955POPC   C1B62947  20.091   3.667   6.453
 9955POPC   C2B62948  20.024   3.632   6.753
 9955POPC   C3B62949  20.041   3.687   7.053
 9955POPC   C4B62950  20.071   3.668   7.353
 9956POPC   NC362951   5.074   2.799   5.553
 9956POPC   PO462952   5.095   2.727   5.853
 9956POPC   GL162953   5.049   2.737   6.153
 9956POPC   GL262954   5.060   2.886   6.153
 9956POPC   C1A62955   5.100   2.772   6.453
 9956POPC   D2A62956   5.084   2.742   6.753
 9956POPC   C3A62957   5.056   2.781   7.053
 9956POPC   C4A62958   5.053   2.795   7.353
 9956POPC   C1B62959   4.967   2.983   6.453
 9956POPC   C2B62960   4.930   2.995   6.753
 9956POPC   C3B62961   4.895   2.986   7.053
 9956POPC   C4B62962   4.969   2.930   7.353
 9957POPC   NC362963   8.989   8.931   5.553
 9957POPC   PO462964   9.021   8.961   5.853
 9957POPC   GL162965   8.970   9.009   6.153
 9957POPC   GL262966   8.814   9.059   6.153
 9957POPC   C1A62967   9.000   8.969   6.453
 9957POPC   D2A62968   9.022   9.014   6.753
 9957POPC   C3A62969   8.960   9.022   7.053
 9957POPC   C4A62970   8.924   8.999   7.353
 9957POPC   C1B62971   8.696   9.095   6.453
 9957POPC   C2B62972   8.784   9.117   6.753
 9957POPC   C3B62973   8.749   9.035   7.053
 9957POPC   C4B62974   8.737   9.061   7.353
 9958POPC   NC362975  32.237  35.397   5.553
 9958POPC   PO462976  32.267  35.314   5.853
 9958POPC   GL162977  32.265  35.362   6.153
 9958POPC   GL262978  32.334  35.288   6.153
 9958POPC   C1A62979  32.218  35.324   6.453
 9958POPC   D2A62980  32.207  35.328   6.753
 9958POPC   C3A62981  32.240  35.391   7.053
 9958POPC   C4A62982  32.298  35.311   7.353
 9958POPC   C1B62983  32.466  35.224   6.453
 9958POPC   C2B62984  32.440  35.293   6.753
 9958POPC   C3B62985  32.481  35.226   7.053
 9958POPC   C4B62986  32.459  35.254   7.353
 9959POPC   NC362987  18.316  41.600   5.553
 9959POPC   PO462988  18.325  41.588   5.853
 9959POPC   GL162989  18.261  41.606   6.153
 9959POPC   GL262990  18.328  41.662   6.153
 9959POPC   C1A62991  18.294  41.606   6.453
 9959POPC   D2A62992  18.296  41.550   6.753
 9959POPC   C3A62993  18.291  41.574   7.053
 9959POPC   C4A62994  18.239  41.584   7.353
 9959POPC   C1B62995  18.294  41.815   6.453
 9959POPC   C2B62996  18.233  41.850   6.753
 9959POPC   C3B62997  18.326  41.777   7.053
 9959POPC   C4B62998  18.329  41.836   7.353
 9960POPC   NC362999  24.535   6.694   5.553
 9960POPC   PO463000  24.522   6.624   5.853
 9960POPC   GL163001  24.494   6.617   6.153
 9960POPC   GL263002  24.407   6.550   6.153
 9960POPC   C1A63003  24.497   6.655   6.453
 9960POPC   D2A63004  24.488   6.653   6.753
 9960POPC   C3A63005  24.452   6.644   7.053
 9960POPC   C4A63006  24.472   6.666   7.353
 9960POPC   C1B63007  24.381   6.430   6.453
 9960POPC   C2B63008  24.387   6.426   6.753
 9960POPC   C3B63009  24.349   6.393   7.053
 9960POPC   C4B63010  24.392   6.443   7.353
 9961POPC   NC363011  15.206   1.262   5.553
 9961POPC   PO463012  15.169   1.238   5.853
 9961POPC   GL163013  15.172   1.188   6.153
 9961POPC   GL263014  15.333   1.178   6.153
 9961POPC   C1A63015  15.187   1.183   6.453
 9961POPC   D2A63016  15.180   1.245   6.753
 9961POPC   C3A63017  15.213   1.215   7.053
 9961POPC   C4A63018  15.176   1.228   7.353
 9961POPC   C1B63019  15.442   1.077   6.453
 9961POPC   C2B63020  15.389   1.108   6.753
 9961POPC   C3B63021  15.399   1.048   7.053
 9961POPC   C4B63022  15.406   1.055   7.353
 9962POPC   NC363023   5.049  43.840   5.553
 9962POPC   PO463024   5.079  43.873   5.853
 9962POPC   GL163025   5.137  43.921   6.153
 9962POPC   GL263026   5.019  43.970   6.153
 9962POPC   C1A63027   5.056  43.892   6.453
 9962POPC   D2A63028   5.100  43.908   6.753
 9962POPC   C3A63029   5.141  43.856   7.053
 9962POPC   C4A63030   5.085  43.868   7.353
 9962POPC   C1B63031   5.062  44.148   6.453
 9962POPC   C2B63032   5.001  44.101   6.753
 9962POPC   C3B63033   4.993  44.126   7.053
 9962POPC   C4B63034   5.004  44.174   7.353
 9963POPC   NC363035  36.905  20.560   5.553
 9963POPC   PO463036  36.947  20.586   5.853
 9963POPC   GL163037  36.866  20.636   6.153
 9963POPC   GL263038  36.891  20.750   6.153
 9963POPC   C1A63039  36.894  20.572   6.453
 9963POPC   D2A63040  36.866  20.581   6.753
 9963POPC   C3A63041  36.896  20.634   7.053
 9963POPC   C4A63042  36.890  20.579   7.353
 9963POPC   C1B63043  36.767  20.824   6.453
 9963POPC   C2B63044  36.809  20.805   6.753
 9963POPC   C3B63045  36.770  20.857   7.053
 9963POPC   C4B63046  36.853  20.847   7.353
 9964POPC   NC363047  14.431  28.338   5.553
 9964POPC   PO463048  14.394  28.346   5.853
 9964POPC   GL163049  14.374  28.364   6.153
 9964POPC   GL263050  14.340  28.450   6.153
 9964POPC   C1A63051  14.358  28.348   6.453
 9964POPC   D2A63052  14.422  28.325   6.753
 9964POPC   C3A63053  14.452  28.340   7.053
 9964POPC   C4A63054  14.414  28.417   7.353
 9964POPC   C1B63055  14.358  28.592   6.453
 9964POPC   C2B63056  14.279  28.581   6.753
 9964POPC   C3B63057  14.371  28.620   7.053
 9964POPC   C4B63058  14.309  28.587   7.353
 9965POPC   NC363059   8.236  22.971   5.553
 9965POPC   PO463060   8.150  22.933   5.853
 9965POPC   GL163061   8.158  22.902   6.153
 9965POPC   GL263062   8.289  22.964   6.153
 9965POPC   C1A63063   8.239  22.949   6.453
 9965POPC   D2A63064   8.166  22.890   6.753
 9965POPC   C3A63065   8.161  22.976   7.053
 9965POPC   C4A63066   8.174  22.920   7.353
 9965POPC   C1B63067   8.416  22.952   6.453
 9965POPC   C2B63068   8.424  22.889   6.753
 9965POPC   C3B63069   8.417  22.915   7.053
 9965POPC   C4B63070   8.464  22.949   7.353
 9966POPC   NC363071  40.827  28.356   5.553
 9966POPC   PO463072  40.766  28.373   5.853
 9966POPC   GL163073  40.788  28.389   6.153
 9966POPC   GL263074  40.734  28.253   6.153
 9966POPC   C1A63075  40.762  28.387   6.453
 9966POPC   D2A63076  40.825  28.381   6.753
 9966POPC   C3A63077  40.744  28.370   7.053
 9966POPC   C4A63078  40.815  28.393   7.353
 9966POPC   C1B63079  40.682  28.146   6.453
 9966POPC   C2B63080  40.680  28.160   6.753
 9966POPC   C3B63081  40.668  28.085   7.053
 9966POPC   C4B63082  40.730  28.084   7.353
 9967POPC   NC363083  29.951  23.674   5.553
 9967POPC   PO463084  29.876  23.717   5.853
 9967POPC   GL163085  29.872  23.696   6.153
 9967POPC   GL263086  29.921  23.813   6.153
 9967POPC   C1A63087  29.956  23.680   6.453
 9967POPC   D2A63088  29.932  23.750   6.753
 9967POPC   C3A63089  29.919  23.725   7.053
 9967POPC   C4A63090  29.910  23.759   7.353
 9967POPC   C1B63091  29.875  23.921   6.453
 9967POPC   C2B63092  29.798  23.909   6.753
 9967POPC   C3B63093  29.868  23.945   7.053
 9967POPC   C4B63094  29.883  23.991   7.353
 9968POPC   NC363095   2.801  12.863   5.553
 9968POPC   PO463096   2.750  12.864   5.853
 9968POPC   GL163097   2.776  12.866   6.153
 9968POPC   GL263098   2.848  12.782   6.153
 9968POPC   C1A63099   2.784  12.832   6.453
 9968POPC   D2A63100   2.810  12.893   6.753
 9968POPC   C3A63101   2.797  12.806   7.053
 9968POPC   C4A63102   2.729  12.850   7.353
 9968POPC   C1B63103   2.935  12.668   6.453
 9968POPC   C2B63104   2.948  12.664   6.753
 9968POPC   C3B63105   2.889  12.642   7.053
 9968POPC   C4B63106   2.878  12.698   7.353
 9969POPC   NC363107  30.671  19.010   5.553
 9969POPC   PO463108  30.715  19.042   5.853
 9969POPC   GL163109  30.709  19.072   6.153
 9969POPC   GL263110  30.711  18.927   6.153
 9969POPC   C1A63111  30.688  19.035   6.453
 9969POPC   D2A63112  30.666  19.073   6.753
 9969POPC   C3A63113  30.671  19.072   7.053
 9969POPC   C4A63114  30.700  19.024   7.353
 9969POPC   C1B63115  30.798  18.879   6.453
 9969POPC   C2B63116  30.820  18.819   6.753
 9969POPC   C3B63117  30.809  18.870   7.053
 9969POPC   C4B63118  30.767  18.816   7.353
 9970POPC   NC363119  22.964  44.637   5.553
 9970POPC   PO463120  22.917  44.656   5.853
 9970POPC   GL163121  22.937  44.637   6.153
 9970POPC   GL263122  23.019  44.574   6.153
 9970POPC   C1A63123  22.959  44.652   6.453
 9970POPC   D2A63124  22.937  44.645   6.753
 9970POPC   C3A63125  22.930  44.627   7.053
 9970POPC   C4A63126  22.894  44.667   7.353
 9970POPC   C1B63127  23.105  44.490   6.453
 9970POPC   C2B63128  23.071  44.437   6.753
 9970POPC   C3B63129  23.060  44.428   7.053
 9970POPC   C4B63130  23.064  44.436   7.353
 9971POPC   NC363131  16.686  12.041   5.553
 9971POPC   PO463132  16.702  12.075   5.853
 9971POPC   GL163133  16.778  12.066   6.153
 9971POPC   GL263134  16.804  11.941   6.153
 9971POPC   C1A63135  16.723  12.047   6.453
 9971POPC   D2A63136  16.745  12.059   6.753
 9971POPC   C3A63137  16.705  12.107   7.053
 9971POPC   C4A63138  16.752  12.065   7.353
 9971POPC   C1B63139  16.821  11.853   6.453
 9971POPC   C2B63140  16.820  11.890   6.753
 9971POPC   C3B63141  16.825  11.881   7.053
 9971POPC   C4B63142  16.834  11.864   7.353
 9972POPC   NC363143   1.179  11.271   5.553
 9972POPC   PO463144   1.175  11.294   5.853
 9972POPC   GL163145   1.219  11.332   6.153
 9972POPC   GL263146   1.209  11.180   6.153
 9972POPC   C1A63147   1.175  11.295   6.453
 9972POPC   D2A63148   1.262  11.342   6.753
 9972POPC   C3A63149   1.197  11.275   7.053
 9972POPC   C4A63150   1.251  11.345   7.353
 9972POPC   C1B63151   1.188  11.028   6.453
 9972POPC   C2B63152   1.167  11.028   6.753
 9972POPC   C3B63153   1.122  11.076   7.053
 9972POPC   C4B63154   1.156  11.060   7.353
 9973POPC   NC363155  17.550  29.901   5.553
 9973POPC   PO463156  17.552  29.893   5.853
 9973POPC   GL163157  17.545  29.952   6.153
 9973POPC   GL263158  17.439  29.768   6.153
 9973POPC   C1A63159  17.515  29.921   6.453
 9973POPC   D2A63160  17.508  29.887   6.753
 9973POPC   C3A63161  17.484  29.956   7.053
 9973POPC   C4A63162  17.481  29.913   7.353
 9973POPC   C1B63163  17.504  29.715   6.453
 9973POPC   C2B63164  17.460  29.686   6.753
 9973POPC   C3B63165  17.509  29.639   7.053
 9973POPC   C4B63166  17.450  29.715   7.353
 9974POPC   NC363167   5.045  33.813   5.553
 9974POPC   PO463168   5.119  33.795   5.853
 9974POPC   GL163169   5.052  33.762   6.153
 9974POPC   GL263170   5.002  33.756   6.153
 9974POPC   C1A63171   5.099  33.827   6.453
 9974POPC   D2A63172   5.088  33.842   6.753
 9974POPC   C3A63173   5.137  33.775   7.053
 9974POPC   C4A63174   5.049  33.820   7.353
 9974POPC   C1B63175   4.834  33.732   6.453
 9974POPC   C2B63176   4.916  33.675   6.753
 9974POPC   C3B63177   4.819  33.712   7.053
 9974POPC   C4B63178   4.818  33.682   7.353
 9975POPC   NC363179  24.466  19.096   5.553
 9975POPC   PO463180  24.480  19.026   5.853
 9975POPC   GL163181  24.529  19.107   6.153
 9975POPC   GL263182  24.594  19.188   6.153
 9975POPC   C1A63183  24.446  19.047   6.453
 9975POPC   D2A63184  24.488  19.013   6.753
 9975POPC   C3A63185  24.516  19.094   7.053
 9975POPC   C4A63186  24.537  19.085   7.353
 9975POPC   C1B63187  24.606  19.290   6.453
 9975POPC   C2B63188  24.669  19.289   6.753
 9975POPC   C3B63189  24.604  19.228   7.053
 9975POPC   C4B63190  24.647  19.269   7.353
 9976POPC   NC363191   2.785  37.668   5.553
 9976POPC   PO463192   2.754  37.728   5.853
 9976POPC   GL163193   2.727  37.675   6.153
 9976POPC   GL263194   2.843  37.805   6.153
 9976POPC   C1A63195   2.744  37.636   6.453
 9976POPC   D2A63196   2.729  37.659   6.753
 9976POPC   C3A63197   2.724  37.681   7.053
 9976POPC   C4A63198   2.746  37.642   7.353
 9976POPC   C1B63199   2.867  37.922   6.453
 9976POPC   C2B63200   2.848  37.906   6.753
 9976POPC   C3B63201   2.815  37.881   7.053
 9976POPC   C4B63202   2.813  37.951   7.353
 9977POPC   NC363203  14.389  36.951   5.553
 9977POPC   PO463204  14.388  36.948   5.853
 9977POPC   GL163205  14.416  36.871   6.153
 9977POPC   GL263206  14.412  36.832   6.153
 9977POPC   C1A63207  14.401  36.940   6.453
 9977POPC   D2A63208  14.412  36.924   6.753
 9977POPC   C3A63209  14.383  36.918   7.053
 9977POPC   C4A63210  14.410  36.899   7.353
 9977POPC   C1B63211  14.485  36.629   6.453
 9977POPC   C2B63212  14.458  36.659   6.753
 9977POPC   C3B63213  14.449  36.633   7.053
 9977POPC   C4B63214  14.499  36.707   7.353
 9978POPC   NC363215  44.676   5.121   5.553
 9978POPC   PO463216  44.641   5.136   5.853
 9978POPC   GL163217  44.629   5.065   6.153
 9978POPC   GL263218  44.648   5.237   6.153
 9978POPC   C1A63219  44.639   5.078   6.453
 9978POPC   D2A63220  44.633   5.122   6.753
 9978POPC   C3A63221  44.634   5.057   7.053
 9978POPC   C4A63222  44.650   5.138   7.353
 9978POPC   C1B63223  44.540   5.296   6.453
 9978POPC   C2B63224  44.587   5.334   6.753
 9978POPC   C3B63225  44.610   5.293   7.053
 9978POPC   C4B63226  44.588   5.284   7.353
 9979POPC   NC363227  31.426   3.567   5.553
 9979POPC   PO463228  31.423   3.537   5.853
 9979POPC   GL163229  31.485   3.585   6.153
 9979POPC   GL263230  31.486   3.650   6.153
 9979POPC   C1A63231  31.480   3.518   6.453
 9979POPC   D2A63232  31.437   3.518   6.753
 9979POPC   C3A63233  31.489   3.502   7.053
 9979POPC   C4A63234  31.484   3.531   7.353
 9979POPC   C1B63235  31.475   3.831   6.453
 9979POPC   C2B63236  31.468   3.761   6.753
 9979POPC   C3B63237  31.516   3.774   7.053
 9979POPC   C4B63238  31.557   3.774   7.353
 9980POPC   NC363239  29.149  16.738   5.553
 9980POPC   PO463240  29.182  16.692   5.853
 9980POPC   GL163241  29.102  16.731   6.153
 9980POPC   GL263242  29.219  16.743   6.153
 9980POPC   C1A63243  29.161  16.765   6.453
 9980POPC   D2A63244  29.185  16.730   6.753
 9980POPC   C3A63245  29.123  16.696   7.053
 9980POPC   C4A63246  29.188  16.697   7.353
 9980POPC   C1B63247  29.405  16.796   6.453
 9980POPC   C2B63248  29.371  16.858   6.753
 9980POPC   C3B63249  29.404  16.860   7.053
 9980POPC   C4B63250  29.330  16.821   7.353
 9981POPC   NC363251  15.151  28.376   5.553
 9981POPC   PO463252  15.199  28.373   5.853
 9981POPC   GL163253  15.187  28.350   6.153
 9981POPC   GL263254  15.190  28.521   6.153
 9981POPC   C1A63255  15.145  28.399   6.453
 9981POPC   D2A63256  15.139  28.338   6.753
 9981POPC   C3A63257  15.153  28.331   7.053
 9981POPC   C4A63258  15.211  28.352   7.353
 9981POPC   C1B63259  15.143  28.632   6.453
 9981POPC   C2B63260  15.097  28.647   6.753
 9981POPC   C3B63261  15.107  28.643   7.053
 9981POPC   C4B63262  15.153  28.640   7.353
 9982POPC   NC363263  21.347   6.597   5.553
 9982POPC   PO463264  21.392   6.650   5.853
 9982POPC   GL163265  21.337   6.692   6.153
 9982POPC   GL263266  21.480   6.731   6.153
 9982POPC   C1A63267  21.434   6.656   6.453
 9982POPC   D2A63268  21.409   6.645   6.753
 9982POPC   C3A63269  21.350   6.652   7.053
 9982POPC   C4A63270  21.348   6.602   7.353
 9982POPC   C1B63271  21.550   6.819   6.453
 9982POPC   C2B63272  21.582   6.847   6.753
 9982POPC   C3B63273  21.559   6.819   7.053
 9982POPC   C4B63274  21.534   6.838   7.353
 9983POPC   NC363275  25.282  34.580   5.553
 9983POPC   PO463276  25.268  34.569   5.853
 9983POPC   GL163277  25.231  34.559   6.153
 9983POPC   GL263278  25.341  34.512   6.153
 9983POPC   C1A63279  25.234  34.581   6.453
 9983POPC   D2A63280  25.235  34.614   6.753
 9983POPC   C3A63281  25.241  34.563   7.053
 9983POPC   C4A63282  25.225  34.556   7.353
 9983POPC   C1B63283  25.433  34.388   6.453
 9983POPC   C2B63284  25.443  34.416   6.753
 9983POPC   C3B63285  25.388  34.378   7.053
 9983POPC   C4B63286  25.391  34.402   7.353
 9984POPC   NC363287   5.125  21.402   5.553
 9984POPC   PO463288   5.064  21.395   5.853
 9984POPC   GL163289   5.061  21.368   6.153
 9984POPC   GL263290   5.020  21.418   6.153
 9984POPC   C1A63291   5.086  21.399   6.453
 9984POPC   D2A63292   5.110  21.410   6.753
 9984POPC   C3A63293   5.087  21.382   7.053
 9984POPC   C4A63294   5.063  21.430   7.353
 9984POPC   C1B63295   4.900  21.476   6.453
 9984POPC   C2B63296   4.822  21.483   6.753
 9984POPC   C3B63297   4.832  21.496   7.053
 9984POPC   C4B63298   4.849  21.423   7.353
 9985POPC   NC363299  29.194  23.746   5.553
 9985POPC   PO463300  29.174  23.714   5.853
 9985POPC   GL163301  29.191  23.719   6.153
 9985POPC   GL263302  29.134  23.597   6.153
 9985POPC   C1A63303  29.132  23.742   6.453
 9985POPC   D2A63304  29.168  23.738   6.753
 9985POPC   C3A63305  29.191  23.694   7.053
 9985POPC   C4A63306  29.151  23.725   7.353
 9985POPC   C1B63307  29.219  23.460   6.453
 9985POPC   C2B63308  29.164  23.429   6.753
 9985POPC   C3B63309  29.227  23.454   7.053
 9985POPC   C4B63310  29.228  23.428   7.353
 9986POPC   NC363311   7.427  13.666   5.553
 9986POPC   PO463312   7.378  13.593   5.853
 9986POPC   GL163313   7.403  13.595   6.153
 9986POPC   GL263314   7.580  13.657   6.153
 9986POPC   C1A63315   7.409  13.642   6.453
 9986POPC   D2A63316   7.397  13.651   6.753
 9986POPC   C3A63317   7.448  13.651   7.053
 9986POPC   C4A63318   7.408  13.585   7.353
 9986POPC   C1B63319   7.686  13.658   6.453
 9986POPC   C2B63320   7.645  13.676   6.753
 9986POPC   C3B63321   7.670  13.629   7.053
 9986POPC   C4B63322   7.669  13.691   7.353
 9987POPC   NC363323   0.481   8.172   5.553
 9987POPC   PO463324   0.472   8.180   5.853
 9987POPC   GL163325   0.415   8.163   6.153
 9987POPC   GL263326   0.327   8.294   6.153
 9987POPC   C1A63327   0.475   8.197   6.453
 9987POPC   D2A63328   0.412   8.229   6.753
 9987POPC   C3A63329   0.484   8.198   7.053
 9987POPC   C4A63330   0.460   8.212   7.353
 9987POPC   C1B63331   0.288   8.418   6.453
 9987POPC   C2B63332   0.237   8.394   6.753
 9987POPC   C3B63333   0.318   8.347   7.053
 9987POPC   C4B63334   0.240   8.388   7.353
 9988POPC   NC363335  10.500  15.941   5.553
 9988POPC   PO463336  10.525  15.970   5.853
 9988POPC   GL163337  10.525  15.989   6.153
 9988POPC   GL263338  10.447  15.846   6.153
 9988POPC   C1A63339  10.491  15.950   6.453
 9988POPC   D2A63340  10.514  15.912   6.753
 9988POPC   C3A63341  10.539  15.965   7.053
 9988POPC   C4A63342  10.485  15.909   7.353
 9988POPC   C1B63343  10.383  15.687   6.453
 9988POPC   C2B63344  10.430  15.722   6.753
 9988POPC   C3B63345  10.380  15.764   7.053
 9988POPC   C4B63346  10.473  15.730   7.353
 9989POPC   NC363347   5.059  33.046   5.553
 9989POPC   PO463348   5.086  33.061   5.853
 9989POPC   GL163349   5.091  33.009   6.153
 9989POPC   GL263350   5.165  32.909   6.153
 9989POPC   C1A63351   5.113  33.074   6.453
 9989POPC   D2A63352   5.063  32.995   6.753
 9989POPC   C3A63353   5.137  33.069   7.053
 9989POPC   C4A63354   5.135  33.029   7.353
 9989POPC   C1B63355   5.163  32.807   6.453
 9989POPC   C2B63356   5.122  32.797   6.753
 9989POPC   C3B63357   5.165  32.828   7.053
 9989POPC   C4B63358   5.127  32.738   7.353
 9990POPC   NC363359  36.865   4.323   5.553
 9990POPC   PO463360  36.868   4.273   5.853
 9990POPC   GL163361  36.913   4.294   6.153
 9990POPC   GL263362  36.763   4.423   6.153
 9990POPC   C1A63363  36.952   4.276   6.453
 9990POPC   D2A63364  36.857   4.278   6.753
 9990POPC   C3A63365  36.953   4.308   7.053
 9990POPC   C4A63366  36.898   4.367   7.353
 9990POPC   C1B63367  36.681   4.449   6.453
 9990POPC   C2B63368  36.679   4.399   6.753
 9990POPC   C3B63369  36.687   4.478   7.053
 9990POPC   C4B63370  36.734   4.486   7.353
 9991POPC   NC363371  10.511   8.944   5.553
 9991POPC   PO463372  10.524   8.994   5.853
 9991POPC   GL163373  10.543   8.957   6.153
 9991POPC   GL263374  10.502   8.833   6.153
 9991POPC   C1A63375  10.525   9.019   6.453
 9991POPC   D2A63376  10.505   9.007   6.753
 9991POPC   C3A63377  10.486   8.928   7.053
 9991POPC   C4A63378  10.555   8.973   7.353
 9991POPC   C1B63379  10.549   8.764   6.453
 9991POPC   C2B63380  10.553   8.699   6.753
 9991POPC   C3B63381  10.531   8.737   7.053
 9991POPC   C4B63382  10.564   8.757   7.353
 9992POPC   NC363383  29.119  30.677   5.553
 9992POPC   PO463384  29.162  30.704   5.853
 9992POPC   GL163385  29.129  30.695   6.153
 9992POPC   GL263386  29.085  30.770   6.153
 9992POPC   C1A63387  29.192  30.686   6.453
 9992POPC   D2A63388  29.156  30.740   6.753
 9992POPC   C3A63389  29.167  30.655   7.053
 9992POPC   C4A63390  29.145  30.747   7.353
 9992POPC   C1B63391  29.156  30.904   6.453
 9992POPC   C2B63392  29.096  30.940   6.753
 9992POPC   C3B63393  29.121  30.933   7.053
 9992POPC   C4B63394  29.091  30.926   7.353
 9993POPC   NC363395  26.040  25.241   5.553
 9993POPC   PO463396  26.073  25.231   5.853
 9993POPC   GL163397  26.088  25.216   6.153
 9993POPC   GL263398  26.047  25.332   6.153
 9993POPC   C1A63399  26.003  25.253   6.453
 9993POPC   D2A63400  26.080  25.248   6.753
 9993POPC   C3A63401  25.995  25.277   7.053
 9993POPC   C4A63402  26.018  25.293   7.353
 9993POPC   C1B63403  26.167  25.450   6.453
 9993POPC   C2B63404  26.122  25.447   6.753
 9993POPC   C3B63405  26.104  25.485   7.053
 9993POPC   C4B63406  26.105  25.453   7.353
 9994POPC   NC363407  39.258  39.196   5.553
 9994POPC   PO463408  39.254  39.221   5.853
 9994POPC   GL163409  39.255  39.202   6.153
 9994POPC   GL263410  39.247  39.074   6.153
 9994POPC   C1A63411  39.182  39.196   6.453
 9994POPC   D2A63412  39.198  39.224   6.753
 9994POPC   C3A63413  39.206  39.190   7.053
 9994POPC   C4A63414  39.216  39.183   7.353
 9994POPC   C1B63415  39.312  38.966   6.453
 9994POPC   C2B63416  39.338  38.986   6.753
 9994POPC   C3B63417  39.291  38.951   7.053
 9994POPC   C4B63418  39.341  38.959   7.353
 9995POPC   NC363419   6.687  34.617   5.553
 9995POPC   PO463420   6.604  34.613   5.853
 9995POPC   GL163421   6.650  34.556   6.153
 9995POPC   GL263422   6.794  34.687   6.153
 9995POPC   C1A63423   6.596  34.534   6.453
 9995POPC   D2A63424   6.692  34.603   6.753
 9995POPC   C3A63425   6.609  34.562   7.053
 9995POPC   C4A63426   6.654  34.578   7.353
 9995POPC   C1B63427   6.831  34.694   6.453
 9995POPC   C2B63428   6.846  34.709   6.753
 9995POPC   C3B63429   6.865  34.672   7.053
 9995POPC   C4B63430   6.826  34.701   7.353
 9996POPC   NC363431  12.862  43.109   5.553
 9996POPC   PO463432  12.899  43.121   5.853
 9996POPC   GL163433  12.826  43.108   6.153
 9996POPC   GL263434  12.859  42.950   6.153
 9996POPC   C1A63435  12.900  43.150   6.453
 9996POPC   D2A63436  12.838  43.086   6.753
 9996POPC   C3A63437  12.870  43.062   7.053
 9996POPC   C4A63438  12.889  43.155   7.353
 9996POPC   C1B63439  12.895  42.856   6.453
 9996POPC   C2B63440  12.980  42.912   6.753
 9996POPC   C3B63441  12.936  42.914   7.053
 9996POPC   C4B63442  12.919  42.863   7.353
 9997POPC   NC363443  16.767  16.780   5.553
 9997POPC   PO463444  16.740  16.712   5.853
 9997POPC   GL163445  16.721  16.716   6.153
 9997POPC   GL263446  16.837  16.691   6.153
 9997POPC   C1A63447  16.704  16.753   6.453
 9997POPC   D2A63448  16.704  16.727   6.753
 9997POPC   C3A63449  16.753  16.690   7.053
 9997POPC   C4A63450  16.711  16.751   7.353
 9997POPC   C1B63451  16.921  16.683   6.453
 9997POPC   C2B63452  16.975  16.608   6.753
 9997POPC   C3B63453  16.993  16.646   7.053
 9997POPC   C4B63454  16.931  16.673   7.353
 9998POPC   NC363455  39.227  36.871   5.553
 9998POPC   PO463456  39.199  36.919   5.853
 9998POPC   GL163457  39.211  36.918   6.153
 9998POPC   GL263458  39.129  37.001   6.153
 9998POPC   C1A63459  39.229  36.895   6.453
 9998POPC   D2A63460  39.211  36.930   6.753
 9998POPC   C3A63461  39.245  36.921   7.053
 9998POPC   C4A63462  39.256  36.938   7.353
 9998POPC   C1B63463  39.080  37.136   6.453
 9998POPC   C2B63464  39.110  37.088   6.753
 9998POPC   C3B63465  39.139  37.081   7.053
 9998POPC   C4B63466  39.075  37.079   7.353
 9999POPC   NC363467  40.812  30.661   5.553
 9999POPC   PO463468  40.815  30.680   5.853
 9999POPC   GL163469  40.750  30.712   6.153
 9999POPC   GL263470  40.725  30.797   6.153
 9999POPC   C1A63471  40.756  30.692   6.453
 9999POPC   D2A63472  40.792  30.736   6.753
 9999POPC   C3A63473  40.759  30.723   7.053
 9999POPC   C4A63474  40.780  30.653   7.353
 9999POPC   C1B63475  40.626  30.862   6.453
 9999POPC   C2B63476  40.572  30.929   6.753
 9999POPC   C3B63477  40.657  30.887   7.053
 9999POPC   C4B63478  40.610  30.880   7.353
10000POPC   NC363479  33.824  26.027   5.553
10000POPC   PO463480  33.846  26.038   5.853
10000POPC   GL163481  33.787  26.037   6.153
10000POPC   GL263482  33.733  26.192   6.153
10000POPC   C1A63483  33.849  26.032   6.453
10000POPC   D2A63484  33.811  26.064   6.753
10000POPC   C3A63485  33.803  26.079   7.053
10000POPC   C4A63486  33.805  25.995   7.353
10000POPC   C1B63487  33.736  26.260   6.453
10000POPC   C2B63488  33.705  26.264   6.753
10000POPC   C3B63489  33.682  26.252   7.053
10000POPC   C4B63490  33.683  26.291   7.353
10001POPC   NC363491  12.108  25.242   5.553
10001POPC   PO463492  12.097  25.218   5.853
10001POPC   GL163493  12.078  25.281   6.153
10001POPC   GL263494  12.221  25.381   6.153
10001POPC   C1A63495  12.101  25.272   6.453
10001POPC   D2A63496  12.120  25.274   6.753
10001POPC   C3A63497  12.073  25.248   7.053
10001POPC   C4A63498  12.067  25.245   7.353
10001POPC   C1B63499  12.270  25.379   6.453
10001POPC   C2B63500  12.294  25.467   6.753
10001POPC   C3B63501  12.273  25.448   7.053
10001POPC   C4B63502  12.297  25.382   7.353
10002POPC   NC363503   6.622  26.792   5.553
10002POPC   PO463504   6.631  26.797   5.853
10002POPC   GL163505   6.608  26.850   6.153
10002POPC   GL263506   6.582  26.956   6.153
10002POPC   C1A63507   6.652  26.775   6.453
10002POPC   D2A63508   6.605  26.811   6.753
10002POPC   C3A63509   6.686  26.848   7.053
10002POPC   C4A63510   6.654  26.793   7.353
10002POPC   C1B63511   6.560  27.023   6.453
10002POPC   C2B63512   6.563  27.057   6.753
10002POPC   C3B63513   6.618  27.029   7.053
10002POPC   C4B63514   6.545  27.060   7.353
10003POPC   NC363515   3.498  33.758   5.553
10003POPC   PO463516   3.554  33.814   5.853
10003POPC   GL163517   3.499  33.819   6.153
10003POPC   GL263518   3.541  33.677   6.153
10003POPC   C1A63519   3.554  33.782   6.453
10003POPC   D2A63520   3.536  33.772   6.753
10003POPC   C3A63521   3.547  33.836   7.053
10003POPC   C4A63522   3.556  33.804   7.353
10003POPC   C1B63523   3.458  33.584   6.453
10003POPC   C2B63524   3.489  33.503   6.753
10003POPC   C3B63525   3.470  33.569   7.053
10003POPC   C4B63526   3.476  33.563   7.353
10004POPC   NC363527   3.548  40.735   5.553
10004POPC   PO463528   3.565  40.830   5.853
10004POPC   GL163529   3.523  40.816   6.153
10004POPC   GL263530   3.612  40.718   6.153
10004POPC   C1A63531   3.495  40.814   6.453
10004POPC   D2A63532   3.507  40.760   6.753
10004POPC   C3A63533   3.583  40.743   7.053
10004POPC   C4A63534   3.498  40.768   7.353
10004POPC   C1B63535   3.748  40.593   6.453
10004POPC   C2B63536   3.667  40.596   6.753
10004POPC   C3B63537   3.678  40.609   7.053
10004POPC   C4B63538   3.667  40.579   7.353
10005POPC   NC363539  39.988   5.900   5.553
10005POPC   PO463540  40.004   5.825   5.853
10005POPC   GL163541  40.021   5.887   6.153
10005POPC   GL263542  39.938   5.832   6.153
10005POPC   C1A63543  39.989   5.834   6.453
10005POPC   D2A63544  40.039   5.851   6.753
10005POPC   C3A63545  39.984   5.875   7.053
10005POPC   C4A63546  40.004   5.883   7.353
10005POPC   C1B63547  39.745   5.707   6.453
10005POPC   C2B63548  39.820   5.778   6.753
10005POPC   C3B63549  39.793   5.764   7.053
10005POPC   C4B63550  39.741   5.758   7.353
10006POPC   NC363551   6.644  43.868   5.553
10006POPC   PO463552   6.609  43.857   5.853
10006POPC   GL163553   6.652  43.892   6.153
10006POPC   GL263554   6.701  44.046   6.153
10006POPC   C1A63555   6.633  43.884   6.453
10006POPC   D2A63556   6.670  43.883   6.753
10006POPC   C3A63557   6.626  43.841   7.053
10006POPC   C4A63558   6.648  43.879   7.353
10006POPC   C1B63559   6.673  44.163   6.453
10006POPC   C2B63560   6.736  44.156   6.753
10006POPC   C3B63561   6.756  44.153   7.053
10006POPC   C4B63562   6.737  44.159   7.353
10007POPC   NC363563  40.055   6.647   5.553
10007POPC   PO463564  39.998   6.601   5.853
10007POPC   GL163565  39.982   6.641   6.153
10007POPC   GL263566  39.857   6.687   6.153
10007POPC   C1A63567  40.029   6.629   6.453
10007POPC   D2A63568  39.986   6.677   6.753
10007POPC   C3A63569  39.997   6.601   7.053
10007POPC   C4A63570  40.023   6.606   7.353
10007POPC   C1B63571  39.761   6.700   6.453
10007POPC   C2B63572  39.735   6.696   6.753
10007POPC   C3B63573  39.773   6.672   7.053
10007POPC   C4B63574  39.737   6.636   7.353
10008POPC   NC363575  33.044  25.225   5.553
10008POPC   PO463576  32.978  25.292   5.853
10008POPC   GL163577  33.039  25.293   6.153
10008POPC   GL263578  32.930  25.207   6.153
10008POPC   C1A63579  32.983  25.274   6.453
10008POPC   D2A63580  32.986  25.266   6.753
10008POPC   C3A63581  33.022  25.308   7.053
10008POPC   C4A63582  33.059  25.271   7.353
10008POPC   C1B63583  32.891  25.060   6.453
10008POPC   C2B63584  32.892  25.103   6.753
10008POPC   C3B63585  32.900  25.109   7.053
10008POPC   C4B63586  32.834  25.116   7.353
10009POPC   NC363587   5.130  17.511   5.553
10009POPC   PO463588   5.107  17.509   5.853
10009POPC   GL163589   5.079  17.471   6.153
10009POPC   GL263590   5.220  17.475   6.153
10009POPC   C1A63591   5.119  17.465   6.453
10009POPC   D2A63592   5.048  17.553   6.753
10009POPC   C3A63593   5.093  17.533   7.053
10009POPC   C4A63594   5.077  17.477   7.353
10009POPC   C1B63595   5.293  17.504   6.453
10009POPC   C2B63596   5.332  17.432   6.753
10009POPC   C3B63597   5.376  17.474   7.053
10009POPC   C4B63598   5.338  17.482   7.353
10010POPC   NC363599  31.437  12.099   5.553
10010POPC   PO463600  31.491  12.104   5.853
10010POPC   GL163601  31.461  12.125   6.153
10010POPC   GL263602  31.427  11.967   6.153
10010POPC   C1A63603  31.515  12.084   6.453
10010POPC   D2A63604  31.458  12.033   6.753
10010POPC   C3A63605  31.434  12.026   7.053
10010POPC   C4A63606  31.515  12.074   7.353
10010POPC   C1B63607  31.449  11.796   6.453
10010POPC   C2B63608  31.397  11.833   6.753
10010POPC   C3B63609  31.388  11.835   7.053
10010POPC   C4B63610  31.478  11.849   7.353
10011POPC   NC363611  15.967  28.399   5.553
10011POPC   PO463612  15.958  28.403   5.853
10011POPC   GL163613  16.001  28.403   6.153
10011POPC   GL263614  15.911  28.232   6.153
10011POPC   C1A63615  15.948  28.400   6.453
10011POPC   D2A63616  15.992  28.338   6.753
10011POPC   C3A63617  15.932  28.371   7.053
10011POPC   C4A63618  15.973  28.390   7.353
10011POPC   C1B63619  15.903  28.139   6.453
10011POPC   C2B63620  15.834  28.135   6.753
10011POPC   C3B63621  15.827  28.183   7.053
10011POPC   C4B63622  15.857  28.179   7.353
10012POPC   NC363623  11.341  16.749   5.553
10012POPC   PO463624  11.325  16.734   5.853
10012POPC   GL163625  11.301  16.742   6.153
10012POPC   GL263626  11.431  16.687   6.153
10012POPC   C1A63627  11.350  16.775   6.453
10012POPC   D2A63628  11.321  16.707   6.753
10012POPC   C3A63629  11.291  16.734   7.053
10012POPC   C4A63630  11.275  16.759   7.353
10012POPC   C1B63631  11.560  16.647   6.453
10012POPC   C2B63632  11.581  16.670   6.753
10012POPC   C3B63633  11.591  16.714   7.053
10012POPC   C4B63634  11.503  16.670   7.353
10013POPC   NC363635   5.096  32.258   5.553
10013POPC   PO463636   5.138  32.281   5.853
10013POPC   GL163637   5.117  32.270   6.153
10013POPC   GL263638   4.947  32.183   6.153
10013POPC   C1A63639   5.078  32.274   6.453
10013POPC   D2A63640   5.066  32.292   6.753
10013POPC   C3A63641   5.080  32.231   7.053
10013POPC   C4A63642   5.128  32.232   7.353
10013POPC   C1B63643   4.856  32.169   6.453
10013POPC   C2B63644   4.845  32.137   6.753
10013POPC   C3B63645   4.838  32.135   7.053
10013POPC   C4B63646   4.845  32.096   7.353
10014POPC   NC363647  12.088  27.609   5.553
10014POPC   PO463648  12.058  27.637   5.853
10014POPC   GL163649  12.051  27.571   6.153
10014POPC   GL263650  12.201  27.654   6.153
10014POPC   C1A63651  12.103  27.615   6.453
10014POPC   D2A63652  12.117  27.605   6.753
10014POPC   C3A63653  12.119  27.624   7.053
10014POPC   C4A63654  12.098  27.628   7.353
10014POPC   C1B63655  12.199  27.770   6.453
10014POPC   C2B63656  12.202  27.807   6.753
10014POPC   C3B63657  12.245  27.825   7.053
10014POPC   C4B63658  12.211  27.795   7.353
10015POPC   NC363659  33.804  22.963   5.553
10015POPC   PO463660  33.762  22.984   5.853
10015POPC   GL163661  33.837  22.966   6.153
10015POPC   GL263662  33.756  23.102   6.153
10015POPC   C1A63663  33.773  22.970   6.453
10015POPC   D2A63664  33.764  22.970   6.753
10015POPC   C3A63665  33.764  22.902   7.053
10015POPC   C4A63666  33.754  22.898   7.353
10015POPC   C1B63667  33.818  23.183   6.453
10015POPC   C2B63668  33.752  23.181   6.753
10015POPC   C3B63669  33.751  23.236   7.053
10015POPC   C4B63670  33.809  23.167   7.353
10016POPC   NC363671   5.905  29.950   5.553
10016POPC   PO463672   5.865  29.947   5.853
10016POPC   GL163673   5.830  29.942   6.153
10016POPC   GL263674   5.716  29.862   6.153
10016POPC   C1A63675   5.911  29.880   6.453
10016POPC   D2A63676   5.897  29.899   6.753
10016POPC   C3A63677   5.828  29.943   7.053
10016POPC   C4A63678   5.839  29.926   7.353
10016POPC   C1B63679   5.649  29.895   6.453
10016POPC   C2B63680   5.639  29.938   6.753
10016POPC   C3B63681   5.653  29.858   7.053
10016POPC   C4B63682   5.602  29.864   7.353
10017POPC   NC363683  19.840  19.082   5.553
10017POPC   PO463684  19.881  19.093   5.853
10017POPC   GL163685  19.795  19.095   6.153
10017POPC   GL263686  19.868  19.192   6.153
10017POPC   C1A63687  19.832  19.019   6.453
10017POPC   D2A63688  19.832  19.024   6.753
10017POPC   C3A63689  19.815  19.016   7.053
10017POPC   C4A63690  19.808  19.024   7.353
10017POPC   C1B63691  19.817  19.318   6.453
10017POPC   C2B63692  19.826  19.300   6.753
10017POPC   C3B63693  19.882  19.276   7.053
10017POPC   C4B63694  19.867  19.266   7.353
10018POPC   NC363695  41.533  12.830   5.553
10018POPC   PO463696  41.511  12.849   5.853
10018POPC   GL163697  41.562  12.827   6.153
10018POPC   GL263698  41.468  12.723   6.153
10018POPC   C1A63699  41.540  12.877   6.453
10018POPC   D2A63700  41.586  12.838   6.753
10018POPC   C3A63701  41.534  12.840   7.053
10018POPC   C4A63702  41.517  12.846   7.353
10018POPC   C1B63703  41.420  12.625   6.453
10018POPC   C2B63704  41.393  12.613   6.753
10018POPC   C3B63705  41.414  12.690   7.053
10018POPC   C4B63706  41.446  12.661   7.353
10019POPC   NC363707   3.569  30.738   5.553
10019POPC   PO463708   3.587  30.709   5.853
10019POPC   GL163709   3.514  30.696   6.153
10019POPC   GL263710   3.688  30.668   6.153
10019POPC   C1A63711   3.511  30.683   6.453
10019POPC   D2A63712   3.500  30.703   6.753
10019POPC   C3A63713   3.521  30.676   7.053
10019POPC   C4A63714   3.515  30.743   7.353
10019POPC   C1B63715   3.815  30.685   6.453
10019POPC   C2B63716   3.754  30.682   6.753
10019POPC   C3B63717   3.805  30.765   7.053
10019POPC   C4B63718   3.742  30.720   7.353
10020POPC   NC363719  36.952  29.181   5.553
10020POPC   PO463720  36.920  29.096   5.853
10020POPC   GL163721  36.924  29.100   6.153
10020POPC   GL263722  37.034  29.173   6.153
10020POPC   C1A63723  36.949  29.102   6.453
10020POPC   D2A63724  36.947  29.166   6.753
10020POPC   C3A63725  36.861  29.102   7.053
10020POPC   C4A63726  36.916  29.126   7.353
10020POPC   C1B63727  37.127  29.308   6.453
10020POPC   C2B63728  37.150  29.309   6.753
10020POPC   C3B63729  37.074  29.266   7.053
10020POPC   C4B63730  37.136  29.291   7.353
10021POPC   NC363731  15.969  20.618   5.553
10021POPC   PO463732  15.956  20.631   5.853
10021POPC   GL163733  15.980  20.567   6.153
10021POPC   GL263734  16.044  20.727   6.153
10021POPC   C1A63735  15.951  20.585   6.453
10021POPC   D2A63736  15.918  20.611   6.753
10021POPC   C3A63737  15.979  20.599   7.053
10021POPC   C4A63738  15.941  20.604   7.353
10021POPC   C1B63739  16.108  20.877   6.453
10021POPC   C2B63740  16.026  20.885   6.753
10021POPC   C3B63741  16.082  20.817   7.053
10021POPC   C4B63742  16.016  20.879   7.353
10022POPC   NC363743   0.474  18.299   5.553
10022POPC   PO463744   0.478  18.272   5.853
10022POPC   GL163745   0.403  18.318   6.153
10022POPC   GL263746   0.336  18.208   6.153
10022POPC   C1A63747   0.468  18.286   6.453
10022POPC   D2A63748   0.426  18.234   6.753
10022POPC   C3A63749   0.409  18.262   7.053
10022POPC   C4A63750   0.458  18.281   7.353
10022POPC   C1B63751   0.316  18.078   6.453
10022POPC   C2B63752   0.368  18.042   6.753
10022POPC   C3B63753   0.322  18.021   7.053
10022POPC   C4B63754   0.314  18.055   7.353
10023POPC   NC363755   4.298  43.151   5.553
10023POPC   PO463756   4.308  43.135   5.853
10023POPC   GL163757   4.285  43.131   6.153
10023POPC   GL263758   4.304  42.956   6.153
10023POPC   C1A63759   4.322  43.152   6.453
10023POPC   D2A63760   4.298  43.121   6.753
10023POPC   C3A63761   4.310  43.152   7.053
10023POPC   C4A63762   4.320  43.117   7.353
10023POPC   C1B63763   4.249  42.824   6.453
10023POPC   C2B63764   4.230  42.897   6.753
10023POPC   C3B63765   4.221  42.891   7.053
10023POPC   C4B63766   4.267  42.825   7.353
10024POPC   NC363767  43.868  22.945   5.553
10024POPC   PO463768  43.892  22.971   5.853
10024POPC   GL163769  43.905  22.951   6.153
10024POPC   GL263770  43.947  23.060   6.153
10024POPC   C1A63771  43.857  22.912   6.453
10024POPC   D2A63772  43.879  22.952   6.753
10024POPC   C3A63773  43.860  22.933   7.053
10024POPC   C4A63774  43.837  22.931   7.353
10024POPC   C1B63775  43.996  23.136   6.453
10024POPC   C2B63776  44.074  23.103   6.753
10024POPC   C3B63777  44.024  23.135   7.053
10024POPC   C4B63778  44.079  23.102   7.353
10025POPC   NC363779  11.299  43.875   5.553
10025POPC   PO463780  11.306  43.920   5.853
10025POPC   GL163781  11.279  43.921   6.153
10025POPC   GL263782  11.372  43.778   6.153
10025POPC   C1A63783  11.286  43.931   6.453
10025POPC   D2A63784  11.314  43.899   6.753
10025POPC   C3A63785  11.305  43.885   7.053
10025POPC   C4A63786  11.333  43.931   7.353
10025POPC   C1B63787  11.464  43.712   6.453
10025POPC   C2B63788  11.440  43.694   6.753
10025POPC   C3B63789  11.473  43.699   7.053
10025POPC   C4B63790  11.486  43.702   7.353
10026POPC   NC363791  28.408  41.555   5.553
10026POPC   PO463792  28.376  41.555   5.853
10026POPC   GL163793  28.336  41.553   6.153
10026POPC   GL263794  28.333  41.441   6.153
10026POPC   C1A63795  28.349  41.529   6.453
10026POPC   D2A63796  28.327  41.548   6.753
10026POPC   C3A63797  28.413  41.591   7.053
10026POPC   C4A63798  28.332  41.529   7.353
10026POPC   C1B63799  28.188  41.311   6.453
10026POPC   C2B63800  28.194  41.311   6.753
10026POPC   C3B63801  28.220  41.391   7.053
10026POPC   C4B63802  28.208  41.406   7.353
10027POPC   NC363803  26.769  15.133   5.553
10027POPC   PO463804  26.782  15.153   5.853
10027POPC   GL163805  26.845  15.218   6.153
10027POPC   GL263806  26.750  15.102   6.153
10027POPC   C1A63807  26.801  15.177   6.453
10027POPC   D2A63808  26.788  15.186   6.753
10027POPC   C3A63809  26.803  15.217   7.053
10027POPC   C4A63810  26.795  15.196   7.353
10027POPC   C1B63811  26.731  14.987   6.453
10027POPC   C2B63812  26.739  15.004   6.753
10027POPC   C3B63813  26.669  14.970   7.053
10027POPC   C4B63814  26.709  14.930   7.353
10028POPC   NC363815   8.211  41.513   5.553
10028POPC   PO463816   8.187  41.586   5.853
10028POPC   GL163817   8.172  41.550   6.153
10028POPC   GL263818   8.102  41.456   6.153
10028POPC   C1A63819   8.165  41.584   6.453
10028POPC   D2A63820   8.148  41.515   6.753
10028POPC   C3A63821   8.211  41.578   7.053
10028POPC   C4A63822   8.154  41.589   7.353
10028POPC   C1B63823   8.148  41.314   6.453
10028POPC   C2B63824   8.137  41.308   6.753
10028POPC   C3B63825   8.098  41.295   7.053
10028POPC   C4B63826   8.077  41.358   7.353
10029POPC   NC363827   3.583   0.473   5.553
10029POPC   PO463828   3.513   0.442   5.853
10029POPC   GL163829   3.561   0.469   6.153
10029POPC   GL263830   3.547   0.558   6.153
10029POPC   C1A63831   3.582   0.421   6.453
10029POPC   D2A63832   3.576   0.477   6.753
10029POPC   C3A63833   3.582   0.437   7.053
10029POPC   C4A63834   3.518   0.466   7.353
10029POPC   C1B63835   3.457   0.637   6.453
10029POPC   C2B63836   3.505   0.635   6.753
10029POPC   C3B63837   3.439   0.661   7.053
10029POPC   C4B63838   3.496   0.716   7.353
10030POPC   NC363839   6.691  36.874   5.553
10030POPC   PO463840   6.695  36.933   5.853
10030POPC   GL163841   6.692  36.939   6.153
10030POPC   GL263842   6.616  36.813   6.153
10030POPC   C1A63843   6.612  36.856   6.453
10030POPC   D2A63844   6.642  36.947   6.753
10030POPC   C3A63845   6.687  36.876   7.053
10030POPC   C4A63846   6.654  36.886   7.353
10030POPC   C1B63847   6.652  36.677   6.453
10030POPC   C2B63848   6.623  36.618   6.753
10030POPC   C3B63849   6.683  36.638   7.053
10030POPC   C4B63850   6.645  36.625   7.353
10031POPC   NC363851  37.640  16.724   5.553
10031POPC   PO463852  37.668  16.768   5.853
10031POPC   GL163853  37.720  16.733   6.153
10031POPC   GL263854  37.704  16.839   6.153
10031POPC   C1A63855  37.669  16.717   6.453
10031POPC   D2A63856  37.647  16.769   6.753
10031POPC   C3A63857  37.667  16.751   7.053
10031POPC   C4A63858  37.727  16.715   7.353
10031POPC   C1B63859  37.773  16.959   6.453
10031POPC   C2B63860  37.799  17.009   6.753
10031POPC   C3B63861  37.738  17.012   7.053
10031POPC   C4B63862  37.737  17.017   7.353
10032POPC   NC363863  29.164  43.124   5.553
10032POPC   PO463864  29.096  43.105   5.853
10032POPC   GL163865  29.163  43.081   6.153
10032POPC   GL263866  29.234  43.141   6.153
10032POPC   C1A63867  29.164  43.134   6.453
10032POPC   D2A63868  29.148  43.099   6.753
10032POPC   C3A63869  29.168  43.127   7.053
10032POPC   C4A63870  29.191  43.156   7.353
10032POPC   C1B63871  29.352  43.133   6.453
10032POPC   C2B63872  29.437  43.142   6.753
10032POPC   C3B63873  29.360  43.138   7.053
10032POPC   C4B63874  29.374  43.060   7.353
10033POPC   NC363875   8.162  21.407   5.553
10033POPC   PO463876   8.196  21.351   5.853
10033POPC   GL163877   8.194  21.361   6.153
10033POPC   GL263878   8.306  21.371   6.153
10033POPC   C1A63879   8.238  21.341   6.453
10033POPC   D2A63880   8.213  21.429   6.753
10033POPC   C3A63881   8.191  21.421   7.053
10033POPC   C4A63882   8.179  21.431   7.353
10033POPC   C1B63883   8.424  21.459   6.453
10033POPC   C2B63884   8.429  21.495   6.753
10033POPC   C3B63885   8.489  21.472   7.053
10033POPC   C4B63886   8.392  21.489   7.353
10034POPC   NC363887  40.777  39.971   5.553
10034POPC   PO463888  40.746  40.038   5.853
10034POPC   GL163889  40.780  39.958   6.153
10034POPC   GL263890  40.958  40.031   6.153
10034POPC   C1A63891  40.772  40.011   6.453
10034POPC   D2A63892  40.748  40.029   6.753
10034POPC   C3A63893  40.773  39.987   7.053
10034POPC   C4A63894  40.824  39.984   7.353
10034POPC   C1B63895  41.022  39.999   6.453
10034POPC   C2B63896  40.989  39.966   6.753
10034POPC   C3B63897  41.031  40.022   7.053
10034POPC   C4B63898  40.998  39.994   7.353
10035POPC   NC363899  43.137  17.518   5.553
10035POPC   PO463900  43.138  17.480   5.853
10035POPC   GL163901  43.093  17.492   6.153
10035POPC   GL263902  43.116  17.622   6.153
10035POPC   C1A63903  43.128  17.531   6.453
10035POPC   D2A63904  43.115  17.529   6.753
10035POPC   C3A63905  43.133  17.466   7.053
10035POPC   C4A63906  43.127  17.530   7.353
10035POPC   C1B63907  43.226  17.778   6.453
10035POPC   C2B63908  43.197  17.722   6.753
10035POPC   C3B63909  43.190  17.732   7.053
10035POPC   C4B63910  43.230  17.722   7.353
10036POPC   NC363911   6.595  15.970   5.553
10036POPC   PO463912   6.669  16.002   5.853
10036POPC   GL163913   6.631  15.994   6.153
10036POPC   GL263914   6.563  15.831   6.153
10036POPC   C1A63915   6.621  15.931   6.453
10036POPC   D2A63916   6.614  15.960   6.753
10036POPC   C3A63917   6.599  15.992   7.053
10036POPC   C4A63918   6.690  15.987   7.353
10036POPC   C1B63919   6.594  15.732   6.453
10036POPC   C2B63920   6.548  15.751   6.753
10036POPC   C3B63921   6.548  15.686   7.053
10036POPC   C4B63922   6.577  15.670   7.353
10037POPC   NC363923  40.809  21.407   5.553
10037POPC   PO463924  40.814  21.343   5.853
10037POPC   GL163925  40.741  21.340   6.153
10037POPC   GL263926  40.740  21.237   6.153
10037POPC   C1A63927  40.766  21.427   6.453
10037POPC   D2A63928  40.809  21.402   6.753
10037POPC   C3A63929  40.808  21.412   7.053
10037POPC   C4A63930  40.795  21.346   7.353
10037POPC   C1B63931  40.654  21.176   6.453
10037POPC   C2B63932  40.671  21.221   6.753
10037POPC   C3B63933  40.622  21.221   7.053
10037POPC   C4B63934  40.685  21.170   7.353
10038POPC   NC363935  13.636  24.537   5.553
10038POPC   PO463936  13.661  24.538   5.853
10038POPC   GL163937  13.670  24.468   6.153
10038POPC   GL263938  13.601  24.392   6.153
10038POPC   C1A63939  13.647  24.443   6.453
10038POPC   D2A63940  13.655  24.502   6.753
10038POPC   C3A63941  13.586  24.540   7.053
10038POPC   C4A63942  13.626  24.514   7.353
10038POPC   C1B63943  13.623  24.222   6.453
10038POPC   C2B63944  13.662  24.214   6.753
10038POPC   C3B63945  13.629  24.223   7.053
10038POPC   C4B63946  13.601  24.215   7.353
10039POPC   NC363947  19.880   4.335   5.553
10039POPC   PO463948  19.826   4.339   5.853
10039POPC   GL163949  19.836   4.320   6.153
10039POPC   GL263950  19.765   4.254   6.153
10039POPC   C1A63951  19.842   4.302   6.453
10039POPC   D2A63952  19.794   4.348   6.753
10039POPC   C3A63953  19.864   4.296   7.053
10039POPC   C4A63954  19.859   4.344   7.353
10039POPC   C1B63955  19.717   4.158   6.453
10039POPC   C2B63956  19.724   4.130   6.753
10039POPC   C3B63957  19.688   4.130   7.053
10039POPC   C4B63958  19.691   4.098   7.353
10040POPC   NC363959  29.132  26.835   5.553
10040POPC   PO463960  29.134  26.847   5.853
10040POPC   GL163961  29.189  26.847   6.153
10040POPC   GL263962  29.091  26.950   6.153
10040POPC   C1A63963  29.098  26.847   6.453
10040POPC   D2A63964  29.110  26.795   6.753
10040POPC   C3A63965  29.102  26.867   7.053
10040POPC   C4A63966  29.118  26.810   7.353
10040POPC   C1B63967  29.023  27.042   6.453
10040POPC   C2B63968  28.991  27.079   6.753
10040POPC   C3B63969  29.027  27.081   7.053
10040POPC   C4B63970  28.970  27.004   7.353
10041POPC   NC363971  38.455  18.239   5.553
10041POPC   PO463972  38.461  18.312   5.853
10041POPC   GL163973  38.494  18.270   6.153
10041POPC   GL263974  38.568  18.195   6.153
10041POPC   C1A63975  38.445  18.300   6.453
10041POPC   D2A63976  38.459  18.267   6.753
10041POPC   C3A63977  38.497  18.264   7.053
10041POPC   C4A63978  38.484  18.256   7.353
10041POPC   C1B63979  38.657  18.146   6.453
10041POPC   C2B63980  38.664  18.185   6.753
10041POPC   C3B63981  38.628  18.197   7.053
10041POPC   C4B63982  38.714  18.205   7.353
10042POPC   NC363983  30.738  12.901   5.553
10042POPC   PO463984  30.663  12.876   5.853
10042POPC   GL163985  30.733  12.838   6.153
10042POPC   GL263986  30.590  12.804   6.153
10042POPC   C1A63987  30.720  12.851   6.453
10042POPC   D2A63988  30.740  12.841   6.753
10042POPC   C3A63989  30.743  12.806   7.053
10042POPC   C4A63990  30.681  12.843   7.353
10042POPC   C1B63991  30.417  12.863   6.453
10042POPC   C2B63992  30.441  12.880   6.753
10042POPC   C3B63993  30.486  12.873   7.053
10042POPC   C4B63994  30.407  12.886   7.353
10043POPC   NC363995  14.379  34.532   5.553
10043POPC   PO463996  14.383  34.601   5.853
10043POPC   GL163997  14.375  34.554   6.153
10043POPC   GL263998  14.480  34.662   6.153
10043POPC   C1A63999  14.432  34.619   6.453
10043POPC   D2A64000  14.355  34.571   6.753
10043POPC   C3A64001  14.395  34.540   7.053
10043POPC   C4A64002  14.391  34.530   7.353
10043POPC   C1B64003  14.576  34.789   6.453
10043POPC   C2B64004  14.612  34.731   6.753
10043POPC   C3B64005  14.556  34.749   7.053
10043POPC   C4B64006  14.514  34.785   7.353
10044POPC   NC364007   5.910  41.515   5.553
10044POPC   PO464008   5.901  41.529   5.853
10044POPC   GL164009   5.827  41.593   6.153
10044POPC   GL264010   5.898  41.644   6.153
10044POPC   C1A64011   5.870  41.531   6.453
10044POPC   D2A64012   5.867  41.551   6.753
10044POPC   C3A64013   5.858  41.567   7.053
10044POPC   C4A64014   5.894  41.551   7.353
10044POPC   C1B64015   5.849  41.849   6.453
10044POPC   C2B64016   5.808  41.805   6.753
10044POPC   C3B64017   5.877  41.796   7.053
10044POPC   C4B64018   5.860  41.808   7.353
10045POPC   NC364019   1.965   3.588   5.553
10045POPC   PO464020   2.035   3.523   5.853
10045POPC   GL164021   1.945   3.521   6.153
10045POPC   GL264022   2.003   3.405   6.153
10045POPC   C1A64023   2.039   3.580   6.453
10045POPC   D2A64024   1.992   3.587   6.753
10045POPC   C3A64025   2.019   3.571   7.053
10045POPC   C4A64026   1.984   3.524   7.353
10045POPC   C1B64027   1.957   3.328   6.453
10045POPC   C2B64028   1.959   3.325   6.753
10045POPC   C3B64029   1.931   3.258   7.053
10045POPC   C4B64030   1.921   3.271   7.353
10046POPC   NC364031  34.569  30.711   5.553
10046POPC   PO464032  34.575  30.664   5.853
10046POPC   GL164033  34.623  30.724   6.153
10046POPC   GL264034  34.601  30.608   6.153
10046POPC   C1A64035  34.579  30.705   6.453
10046POPC   D2A64036  34.582  30.672   6.753
10046POPC   C3A64037  34.532  30.702   7.053
10046POPC   C4A64038  34.597  30.697   7.353
10046POPC   C1B64039  34.590  30.493   6.453
10046POPC   C2B64040  34.581  30.403   6.753
10046POPC   C3B64041  34.556  30.412   7.053
10046POPC   C4B64042  34.588  30.412   7.353
10047POPC   NC364043  29.970  41.581   5.553
10047POPC   PO464044  29.947  41.547   5.853
10047POPC   GL164045  29.931  41.567   6.153
10047POPC   GL264046  30.021  41.532   6.153
10047POPC   C1A64047  29.958  41.552   6.453
10047POPC   D2A64048  29.877  41.585   6.753
10047POPC   C3A64049  29.907  41.572   7.053
10047POPC   C4A64050  29.924  41.573   7.353
10047POPC   C1B64051  30.120  41.380   6.453
10047POPC   C2B64052  30.108  41.380   6.753
10047POPC   C3B64053  30.108  41.376   7.053
10047POPC   C4B64054  30.074  41.382   7.353
10048POPC   NC364055   0.423  15.926   5.553
10048POPC   PO464056   0.443  15.951   5.853
10048POPC   GL164057   0.441  15.938   6.153
10048POPC   GL264058   0.578  15.997   6.153
10048POPC   C1A64059   0.420  15.920   6.453
10048POPC   D2A64060   0.458  15.957   6.753
10048POPC   C3A64061   0.411  15.980   7.053
10048POPC   C4A64062   0.440  15.955   7.353
10048POPC   C1B64063   0.697  16.025   6.453
10048POPC   C2B64064   0.697  15.992   6.753
10048POPC   C3B64065   0.661  16.047   7.053
10048POPC   C4B64066   0.721  16.013   7.353
10049POPC   NC364067  19.803  15.211   5.553
10049POPC   PO464068  19.874  15.208   5.853
10049POPC   GL164069  19.824  15.160   6.153
10049POPC   GL264070  19.745  15.204   6.153
10049POPC   C1A64071  19.847  15.167   6.453
10049POPC   D2A64072  19.857  15.130   6.753
10049POPC   C3A64073  19.814  15.174   7.053
10049POPC   C4A64074  19.845  15.149   7.353
10049POPC   C1B64075  19.547  15.163   6.453
10049POPC   C2B64076  19.585  15.147   6.753
10049POPC   C3B64077  19.590  15.133   7.053
10049POPC   C4B64078  19.550  15.189   7.353
10050POPC   NC364079  36.931  43.923   5.553
10050POPC   PO464080  36.949  43.904   5.853
10050POPC   GL164081  36.899  43.934   6.153
10050POPC   GL264082  36.736  43.845   6.153
10050POPC   C1A64083  36.926  43.857   6.453
10050POPC   D2A64084  36.889  43.907   6.753
10050POPC   C3A64085  36.906  43.870   7.053
10050POPC   C4A64086  36.925  43.914   7.353
10050POPC   C1B64087  36.635  43.881   6.453
10050POPC   C2B64088  36.619  43.849   6.753
10050POPC   C3B64089  36.648  43.861   7.053
10050POPC   C4B64090  36.662  43.820   7.353
10051POPC   NC364091  13.664  16.764   5.553
10051POPC   PO464092  13.636  16.749   5.853
10051POPC   GL164093  13.608  16.684   6.153
10051POPC   GL264094  13.576  16.666   6.153
10051POPC   C1A64095  13.605  16.747   6.453
10051POPC   D2A64096  13.612  16.704   6.753
10051POPC   C3A64097  13.586  16.707   7.053
10051POPC   C4A64098  13.611  16.746   7.353
10051POPC   C1B64099  13.478  16.507   6.453
10051POPC   C2B64100  13.437  16.548   6.753
10051POPC   C3B64101  13.437  16.500   7.053
10051POPC   C4B64102  13.513  16.558   7.353
10052POPC   NC364103   1.247  43.900   5.553
10052POPC   PO464104   1.223  43.881   5.853
10052POPC   GL164105   1.171  43.901   6.153
10052POPC   GL264106   1.173  44.001   6.153
10052POPC   C1A64107   1.241  43.843   6.453
10052POPC   D2A64108   1.174  43.904   6.753
10052POPC   C3A64109   1.236  43.860   7.053
10052POPC   C4A64110   1.196  43.930   7.353
10052POPC   C1B64111   1.107  44.043   6.453
10052POPC   C2B64112   1.121  44.077   6.753
10052POPC   C3B64113   1.029  44.042   7.053
10052POPC   C4B64114   1.039  44.063   7.353
10053POPC   NC364115   5.057  27.628   5.553
10053POPC   PO464116   5.067  27.599   5.853
10053POPC   GL164117   5.080  27.637   6.153
10053POPC   GL264118   5.186  27.594   6.153
10053POPC   C1A64119   5.055  27.547   6.453
10053POPC   D2A64120   5.069  27.623   6.753
10053POPC   C3A64121   5.130  27.562   7.053
10053POPC   C4A64122   5.125  27.632   7.353
10053POPC   C1B64123   5.388  27.660   6.453
10053POPC   C2B64124   5.335  27.621   6.753
10053POPC   C3B64125   5.324  27.605   7.053
10053POPC   C4B64126   5.289  27.648   7.353
10054POPC   NC364127  12.820  17.494   5.553
10054POPC   PO464128  12.833  17.524   5.853
10054POPC   GL164129  12.839  17.544   6.153
10054POPC   GL264130  12.701  17.432   6.153
10054POPC   C1A64131  12.854  17.469   6.453
10054POPC   D2A64132  12.899  17.483   6.753
10054POPC   C3A64133  12.882  17.488   7.053
10054POPC   C4A64134  12.858  17.536   7.353
10054POPC   C1B64135  12.599  17.436   6.453
10054POPC   C2B64136  12.607  17.379   6.753
10054POPC   C3B64137  12.652  17.368   7.053
10054POPC   C4B64138  12.658  17.372   7.353
10055POPC   NC364139  40.791   7.373   5.553
10055POPC   PO464140  40.826   7.470   5.853
10055POPC   GL164141  40.771   7.393   6.153
10055POPC   GL264142  40.758   7.521   6.153
10055POPC   C1A64143  40.743   7.448   6.453
10055POPC   D2A64144  40.802   7.412   6.753
10055POPC   C3A64145  40.790   7.412   7.053
10055POPC   C4A64146  40.795   7.416   7.353
10055POPC   C1B64147  40.633   7.622   6.453
10055POPC   C2B64148  40.703   7.643   6.753
10055POPC   C3B64149  40.697   7.659   7.053
10055POPC   C4B64150  40.617   7.634   7.353
10056POPC   NC364151  30.647  26.814   5.553
10056POPC   PO464152  30.697  26.847   5.853
10056POPC   GL164153  30.665  26.775   6.153
10056POPC   GL264154  30.601  26.852   6.153
10056POPC   C1A64155  30.723  26.813   6.453
10056POPC   D2A64156  30.701  26.830   6.753
10056POPC   C3A64157  30.733  26.826   7.053
10056POPC   C4A64158  30.674  26.794   7.353
10056POPC   C1B64159  30.472  26.781   6.453
10056POPC   C2B64160  30.451  26.850   6.753
10056POPC   C3B64161  30.435  26.846   7.053
10056POPC   C4B64162  30.399  26.859   7.353
10057POPC   NC364163   8.180   7.464   5.553
10057POPC   PO464164   8.229   7.405   5.853
10057POPC   GL164165   8.172   7.410   6.153
10057POPC   GL264166   8.082   7.441   6.153
10057POPC   C1A64167   8.232   7.458   6.453
10057POPC   D2A64168   8.213   7.466   6.753
10057POPC   C3A64169   8.161   7.440   7.053
10057POPC   C4A64170   8.228   7.412   7.353
10057POPC   C1B64171   7.957   7.440   6.453
10057POPC   C2B64172   7.929   7.435   6.753
10057POPC   C3B64173   7.956   7.420   7.053
10057POPC   C4B64174   7.957   7.428   7.353
10058POPC   NC364175   3.549  10.574   5.553
10058POPC   PO464176   3.584  10.561   5.853
10058POPC   GL164177   3.513  10.551   6.153
10058POPC   GL264178   3.461  10.395   6.153
10058POPC   C1A64179   3.565  10.509   6.453
10058POPC   D2A64180   3.573  10.560   6.753
10058POPC   C3A64181   3.551  10.539   7.053
10058POPC   C4A64182   3.524  10.548   7.353
10058POPC   C1B64183   3.451  10.325   6.453
10058POPC   C2B64184   3.395  10.291   6.753
10058POPC   C3B64185   3.478  10.247   7.053
10058POPC   C4B64186   3.488  10.345   7.353
10059POPC   NC364187  12.041  16.765   5.553
10059POPC   PO464188  12.101  16.721   5.853
10059POPC   GL164189  12.093  16.764   6.153
10059POPC   GL264190  12.014  16.582   6.153
10059POPC   C1A64191  12.070  16.766   6.453
10059POPC   D2A64192  12.029  16.710   6.753
10059POPC   C3A64193  12.118  16.728   7.053
10059POPC   C4A64194  12.083  16.764   7.353
10059POPC   C1B64195  11.979  16.525   6.453
10059POPC   C2B64196  12.023  16.472   6.753
10059POPC   C3B64197  12.024  16.442   7.053
10059POPC   C4B64198  12.031  16.481   7.353
10060POPC   NC364199   7.414  41.525   5.553
10060POPC   PO464200   7.379  41.552   5.853
10060POPC   GL164201   7.446  41.567   6.153
10060POPC   GL264202   7.533  41.509   6.153
10060POPC   C1A64203   7.431  41.564   6.453
10060POPC   D2A64204   7.390  41.553   6.753
10060POPC   C3A64205   7.461  41.514   7.053
10060POPC   C4A64206   7.387  41.528   7.353
10060POPC   C1B64207   7.682  41.433   6.453
10060POPC   C2B64208   7.597  41.445   6.753
10060POPC   C3B64209   7.602  41.466   7.053
10060POPC   C4B64210   7.626  41.473   7.353
10061POPC   NC364211   1.949  15.944   5.553
10061POPC   PO464212   1.987  15.962   5.853
10061POPC   GL164213   1.992  15.971   6.153
10061POPC   GL264214   2.059  16.045   6.153
10061POPC   C1A64215   2.009  15.927   6.453
10061POPC   D2A64216   1.987  15.961   6.753
10061POPC   C3A64217   1.994  15.918   7.053
10061POPC   C4A64218   2.017  15.972   7.353
10061POPC   C1B64219   2.133  16.154   6.453
10061POPC   C2B64220   2.128  16.123   6.753
10061POPC   C3B64221   2.179  16.190   7.053
10061POPC   C4B64222   2.101  16.108   7.353
10062POPC   NC364223  19.049  31.444   5.553
10062POPC   PO464224  19.029  31.520   5.853
10062POPC   GL164225  19.052  31.488   6.153
10062POPC   GL264226  18.902  31.526   6.153
10062POPC   C1A64227  19.107  31.462   6.453
10062POPC   D2A64228  19.013  31.507   6.753
10062POPC   C3A64229  19.038  31.444   7.053
10062POPC   C4A64230  19.022  31.500   7.353
10062POPC   C1B64231  18.852  31.536   6.453
10062POPC   C2B64232  18.861  31.562   6.753
10062POPC   C3B64233  18.873  31.529   7.053
10062POPC   C4B64234  18.844  31.524   7.353
10063POPC   NC364235  15.168  21.405   5.553
10063POPC   PO464236  15.154  21.401   5.853
10063POPC   GL164237  15.180  21.403   6.153
10063POPC   GL264238  15.291  21.266   6.153
10063POPC   C1A64239  15.185  21.354   6.453
10063POPC   D2A64240  15.137  21.375   6.753
10063POPC   C3A64241  15.199  21.382   7.053
10063POPC   C4A64242  15.213  21.368   7.353
10063POPC   C1B64243  15.335  21.225   6.453
10063POPC   C2B64244  15.350  21.253   6.753
10063POPC   C3B64245  15.358  21.197   7.053
10063POPC   C4B64246  15.378  21.199   7.353
10064POPC   NC364247  36.912  43.084   5.553
10064POPC   PO464248  36.905  43.123   5.853
10064POPC   GL164249  36.890  43.090   6.153
10064POPC   GL264250  36.898  42.948   6.153
10064POPC   C1A64251  36.943  43.110   6.453
10064POPC   D2A64252  36.871  43.094   6.753
10064POPC   C3A64253  36.859  43.097   7.053
10064POPC   C4A64254  36.896  43.143   7.353
10064POPC   C1B64255  36.922  42.900   6.453
10064POPC   C2B64256  36.939  42.867   6.753
10064POPC   C3B64257  36.987  42.881   7.053
10064POPC   C4B64258  36.976  42.822   7.353
10065POPC   NC364259  41.539  16.716   5.553
10065POPC   PO464260  41.580  16.768   5.853
10065POPC   GL164261  41.580  16.705   6.153
10065POPC   GL264262  41.617  16.630   6.153
10065POPC   C1A64263  41.589  16.724   6.453
10065POPC   D2A64264  41.525  16.761   6.753
10065POPC   C3A64265  41.573  16.733   7.053
10065POPC   C4A64266  41.578  16.759   7.353
10065POPC   C1B64267  41.663  16.561   6.453
10065POPC   C2B64268  41.739  16.532   6.753
10065POPC   C3B64269  41.663  16.486   7.053
10065POPC   C4B64270  41.683  16.479   7.353
10066POPC   NC364271  12.887   1.943   5.553
10066POPC   PO464272  12.847   2.022   5.853
10066POPC   GL164273  12.831   2.016   6.153
10066POPC   GL264274  12.968   2.016   6.153
10066POPC   C1A64275  12.874   1.992   6.453
10066POPC   D2A64276  12.810   1.994   6.753
10066POPC   C3A64277  12.880   1.951   7.053
10066POPC   C4A64278  12.838   1.981   7.353
10066POPC   C1B64279  13.061   2.092   6.453
10066POPC   C2B64280  13.068   2.120   6.753
10066POPC   C3B64281  13.062   2.093   7.053
10066POPC   C4B64282  13.105   2.130   7.353
10067POPC   NC364283  14.380  18.318   5.553
10067POPC   PO464284  14.429  18.316   5.853
10067POPC   GL164285  14.377  18.273   6.153
10067POPC   GL264286  14.276  18.182   6.153
10067POPC   C1A64287  14.445  18.235   6.453
10067POPC   D2A64288  14.369  18.308   6.753
10067POPC   C3A64289  14.445  18.285   7.053
10067POPC   C4A64290  14.435  18.258   7.353
10067POPC   C1B64291  14.259  18.139   6.453
10067POPC   C2B64292  14.281  18.109   6.753
10067POPC   C3B64293  14.270  18.138   7.053
10067POPC   C4B64294  14.256  18.082   7.353
10068POPC   NC364295  23.719  25.315   5.553
10068POPC   PO464296  23.738  25.288   5.853
10068POPC   GL164297  23.737  25.312   6.153
10068POPC   GL264298  23.689  25.392   6.153
10068POPC   C1A64299  23.692  25.223   6.453
10068POPC   D2A64300  23.758  25.245   6.753
10068POPC   C3A64301  23.760  25.293   7.053
10068POPC   C4A64302  23.675  25.282   7.353
10068POPC   C1B64303  23.557  25.460   6.453
10068POPC   C2B64304  23.591  25.512   6.753
10068POPC   C3B64305  23.592  25.488   7.053
10068POPC   C4B64306  23.606  25.471   7.353
10069POPC   NC364307  40.014  26.080   5.553
10069POPC   PO464308  39.957  26.016   5.853
10069POPC   GL164309  39.996  26.052   6.153
10069POPC   GL264310  40.098  26.107   6.153
10069POPC   C1A64311  39.978  26.046   6.453
10069POPC   D2A64312  40.001  26.042   6.753
10069POPC   C3A64313  40.009  26.033   7.053
10069POPC   C4A64314  39.974  26.007   7.353
10069POPC   C1B64315  40.260  26.103   6.453
10069POPC   C2B64316  40.234  26.112   6.753
10069POPC   C3B64317  40.222  26.078   7.053
10069POPC   C4B64318  40.209  26.123   7.353
10070POPC   NC364319  44.688  10.496   5.553
10070POPC   PO464320  44.692  10.571   5.853
10070POPC   GL164321  44.710  10.541   6.153
10070POPC   GL264322  44.604  10.442   6.153
10070POPC   C1A64323  44.685  10.544   6.453
10070POPC   D2A64324  44.693  10.505   6.753
10070POPC   C3A64325  44.638  10.551   7.053
10070POPC   C4A64326  44.687  10.569   7.353
10070POPC   C1B64327  44.583  10.274   6.453
10070POPC   C2B64328  44.575  10.241   6.753
10070POPC   C3B64329  44.610  10.281   7.053
10070POPC   C4B64330  44.603  10.312   7.353
10071POPC   NC364331  15.216   3.562   5.553
10071POPC   PO464332  15.204   3.544   5.853
10071POPC   GL164333  15.220   3.528   6.153
10071POPC   GL264334  15.177   3.664   6.153
10071POPC   C1A64335  15.130   3.568   6.453
10071POPC   D2A64336  15.211   3.522   6.753
10071POPC   C3A64337  15.133   3.587   7.053
10071POPC   C4A64338  15.219   3.551   7.353
10071POPC   C1B64339  15.126   3.787   6.453
10071POPC   C2B64340  15.154   3.760   6.753
10071POPC   C3B64341  15.174   3.793   7.053
10071POPC   C4B64342  15.118   3.751   7.353
10072POPC   NC364343  29.185  37.723   5.553
10072POPC   PO464344  29.123  37.670   5.853
10072POPC   GL164345  29.137  37.720   6.153
10072POPC   GL264346  29.028  37.630   6.153
10072POPC   C1A64347  29.153  37.728   6.453
10072POPC   D2A64348  29.171  37.633   6.753
10072POPC   C3A64349  29.144  37.703   7.053
10072POPC   C4A64350  29.195  37.634   7.353
10072POPC   C1B64351  28.960  37.463   6.453
10072POPC   C2B64352  28.958  37.549   6.753
10072POPC   C3B64353  29.006  37.495   7.053
10072POPC   C4B64354  28.914  37.502   7.353
10073POPC   NC364355  17.493  16.752   5.553
10073POPC   PO464356  17.462  16.759   5.853
10073POPC   GL164357  17.457  16.779   6.153
10073POPC   GL264358  17.591  16.802   6.153
10073POPC   C1A64359  17.481  16.699   6.453
10073POPC   D2A64360  17.499  16.715   6.753
10073POPC   C3A64361  17.523  16.757   7.053
10073POPC   C4A64362  17.481  16.699   7.353
10073POPC   C1B64363  17.722  16.896   6.453
10073POPC   C2B64364  17.664  16.857   6.753
10073POPC   C3B64365  17.662  16.920   7.053
10073POPC   C4B64366  17.709  16.908   7.353
10074POPC   NC364367  37.663  30.682   5.553
10074POPC   PO464368  37.718  30.682   5.853
10074POPC   GL164369  37.641  30.730   6.153
10074POPC   GL264370  37.575  30.837   6.153
10074POPC   C1A64371  37.655  30.705   6.453
10074POPC   D2A64372  37.686  30.693   6.753
10074POPC   C3A64373  37.671  30.705   7.053
10074POPC   C4A64374  37.643  30.736   7.353
10074POPC   C1B64375  37.526  30.932   6.453
10074POPC   C2B64376  37.508  30.900   6.753
10074POPC   C3B64377  37.496  30.939   7.053
10074POPC   C4B64378  37.522  30.925   7.353
10075POPC   NC364379   8.976  24.463   5.553
10075POPC   PO464380   8.938  24.452   5.853
10075POPC   GL164381   9.014  24.442   6.153
10075POPC   GL264382   8.986  24.644   6.153
10075POPC   C1A64383   8.957  24.451   6.453
10075POPC   D2A64384   9.021  24.497   6.753
10075POPC   C3A64385   9.000  24.445   7.053
10075POPC   C4A64386   8.994  24.511   7.353
10075POPC   C1B64387   8.943  24.783   6.453
10075POPC   C2B64388   8.945  24.740   6.753
10075POPC   C3B64389   8.949  24.718   7.053
10075POPC   C4B64390   8.925  24.764   7.353
10076POPC   NC364391  34.621   5.123   5.553
10076POPC   PO464392  34.531   5.094   5.853
10076POPC   GL164393  34.534   5.067   6.153
10076POPC   GL264394  34.660   5.197   6.153
10076POPC   C1A64395  34.535   5.048   6.453
10076POPC   D2A64396  34.555   5.129   6.753
10076POPC   C3A64397  34.589   5.053   7.053
10076POPC   C4A64398  34.529   5.143   7.353
10076POPC   C1B64399  34.681   5.300   6.453
10076POPC   C2B64400  34.712   5.353   6.753
10076POPC   C3B64401  34.669   5.271   7.053
10076POPC   C4B64402  34.744   5.339   7.353
10077POPC   NC364403  43.852  34.578   5.553
10077POPC   PO464404  43.847  34.624   5.853
10077POPC   GL164405  43.862  34.599   6.153
10077POPC   GL264406  44.037  34.660   6.153
10077POPC   C1A64407  43.934  34.580   6.453
10077POPC   D2A64408  43.890  34.602   6.753
10077POPC   C3A64409  43.899  34.545   7.053
10077POPC   C4A64410  43.930  34.527   7.353
10077POPC   C1B64411  44.135  34.747   6.453
10077POPC   C2B64412  44.086  34.690   6.753
10077POPC   C3B64413  44.132  34.726   7.053
10077POPC   C4B64414  44.067  34.739   7.353
10078POPC   NC364415  30.677  25.265   5.553
10078POPC   PO464416  30.740  25.241   5.853
10078POPC   GL164417  30.680  25.221   6.153
10078POPC   GL264418  30.728  25.145   6.153
10078POPC   C1A64419  30.681  25.315   6.453
10078POPC   D2A64420  30.676  25.313   6.753
10078POPC   C3A64421  30.665  25.239   7.053
10078POPC   C4A64422  30.677  25.247   7.353
10078POPC   C1B64423  30.700  24.985   6.453
10078POPC   C2B64424  30.644  25.026   6.753
10078POPC   C3B64425  30.658  24.975   7.053
10078POPC   C4B64426  30.680  24.999   7.353
10079POPC   NC364427  33.758  21.385   5.553
10079POPC   PO464428  33.810  21.367   5.853
10079POPC   GL164429  33.798  21.425   6.153
10079POPC   GL264430  33.902  21.426   6.153
10079POPC   C1A64431  33.802  21.385   6.453
10079POPC   D2A64432  33.767  21.353   6.753
10079POPC   C3A64433  33.792  21.430   7.053
10079POPC   C4A64434  33.813  21.397   7.353
10079POPC   C1B64435  34.038  21.407   6.453
10079POPC   C2B64436  34.043  21.441   6.753
10079POPC   C3B64437  34.082  21.433   7.053
10079POPC   C4B64438  34.091  21.424   7.353
10080POPC   NC364439  13.670  25.311   5.553
10080POPC   PO464440  13.608  25.304   5.853
10080POPC   GL164441  13.597  25.313   6.153
10080POPC   GL264442  13.779  25.316   6.153
10080POPC   C1A64443  13.593  25.241   6.453
10080POPC   D2A64444  13.592  25.278   6.753
10080POPC   C3A64445  13.578  25.315   7.053
10080POPC   C4A64446  13.587  25.230   7.353
10080POPC   C1B64447  13.923  25.273   6.453
10080POPC   C2B64448  13.912  25.316   6.753
10080POPC   C3B64449  13.858  25.296   7.053
10080POPC   C4B64450  13.828  25.300   7.353
10081POPC   NC364451  37.675  35.317   5.553
10081POPC   PO464452  37.686  35.316   5.853
10081POPC   GL164453  37.686  35.363   6.153
10081POPC   GL264454  37.629  35.448   6.153
10081POPC   C1A64455  37.689  35.395   6.453
10081POPC   D2A64456  37.630  35.340   6.753
10081POPC   C3A64457  37.703  35.330   7.053
10081POPC   C4A64458  37.704  35.348   7.353
10081POPC   C1B64459  37.582  35.592   6.453
10081POPC   C2B64460  37.536  35.546   6.753
10081POPC   C3B64461  37.602  35.606   7.053
10081POPC   C4B64462  37.580  35.546   7.353
10082POPC   NC364463  25.297  37.658   5.553
10082POPC   PO464464  25.272  37.633   5.853
10082POPC   GL164465  25.279  37.677   6.153
10082POPC   GL264466  25.370  37.738   6.153
10082POPC   C1A64467  25.217  37.653   6.453
10082POPC   D2A64468  25.269  37.720   6.753
10082POPC   C3A64469  25.262  37.661   7.053
10082POPC   C4A64470  25.245  37.666   7.353
10082POPC   C1B64471  25.454  37.870   6.453
10082POPC   C2B64472  25.461  37.900   6.753
10082POPC   C3B64473  25.398  37.890   7.053
10082POPC   C4B64474  25.420  37.862   7.353
10083POPC   NC364475  28.323  18.304   5.553
10083POPC   PO464476  28.377  18.245   5.853
10083POPC   GL164477  28.372  18.233   6.153
10083POPC   GL264478  28.479  18.213   6.153
10083POPC   C1A64479  28.361  18.296   6.453
10083POPC   D2A64480  28.376  18.236   6.753
10083POPC   C3A64481  28.345  18.324   7.053
10083POPC   C4A64482  28.386  18.294   7.353
10083POPC   C1B64483  28.499  18.112   6.453
10083POPC   C2B64484  28.579  18.109   6.753
10083POPC   C3B64485  28.492  18.133   7.053
10083POPC   C4B64486  28.579  18.064   7.353
10084POPC   NC364487  43.095  39.990   5.553
10084POPC   PO464488  43.139  40.005   5.853
10084POPC   GL164489  43.160  40.027   6.153
10084POPC   GL264490  43.125  39.930   6.153
10084POPC   C1A64491  43.076  39.988   6.453
10084POPC   D2A64492  43.106  40.048   6.753
10084POPC   C3A64493  43.065  40.044   7.053
10084POPC   C4A64494  43.062  40.049   7.353
10084POPC   C1B64495  43.141  39.746   6.453
10084POPC   C2B64496  43.067  39.763   6.753
10084POPC   C3B64497  43.127  39.767   7.053
10084POPC   C4B64498  43.093  39.731   7.353
10085POPC   NC364499  29.905  15.932   5.553
10085POPC   PO464500  29.948  15.948   5.853
10085POPC   GL164501  29.945  15.919   6.153
10085POPC   GL264502  30.032  16.031   6.153
10085POPC   C1A64503  29.877  15.963   6.453
10085POPC   D2A64504  29.940  16.005   6.753
10085POPC   C3A64505  29.875  15.922   7.053
10085POPC   C4A64506  29.877  15.974   7.353
10085POPC   C1B64507  30.062  16.097   6.453
10085POPC   C2B64508  30.066  16.127   6.753
10085POPC   C3B64509  30.077  16.104   7.053
10085POPC   C4B64510  30.040  16.099   7.353
10086POPC   NC364511  19.058  30.704   5.553
10086POPC   PO464512  19.072  30.731   5.853
10086POPC   GL164513  19.022  30.676   6.153
10086POPC   GL264514  18.954  30.617   6.153
10086POPC   C1A64515  19.062  30.735   6.453
10086POPC   D2A64516  19.094  30.690   6.753
10086POPC   C3A64517  19.032  30.687   7.053
10086POPC   C4A64518  19.015  30.665   7.353
10086POPC   C1B64519  18.865  30.683   6.453
10086POPC   C2B64520  18.782  30.614   6.753
10086POPC   C3B64521  18.780  30.591   7.053
10086POPC   C4B64522  18.830  30.684   7.353
10087POPC   NC364523  21.411  19.875   5.553
10087POPC   PO464524  21.396  19.786   5.853
10087POPC   GL164525  21.395  19.794   6.153
10087POPC   GL264526  21.271  19.919   6.153
10087POPC   C1A64527  21.415  19.827   6.453
10087POPC   D2A64528  21.391  19.800   6.753
10087POPC   C3A64529  21.387  19.879   7.053
10087POPC   C4A64530  21.367  19.873   7.353
10087POPC   C1B64531  21.106  19.918   6.453
10087POPC   C2B64532  21.146  19.869   6.753
10087POPC   C3B64533  21.125  19.919   7.053
10087POPC   C4B64534  21.148  19.872   7.353
10088POPC   NC364535  38.478  19.088   5.553
10088POPC   PO464536  38.418  19.078   5.853
10088POPC   GL164537  38.455  19.092   6.153
10088POPC   GL264538  38.538  19.167   6.153
10088POPC   C1A64539  38.461  19.061   6.453
10088POPC   D2A64540  38.479  19.014   6.753
10088POPC   C3A64541  38.496  19.052   7.053
10088POPC   C4A64542  38.449  19.098   7.353
10088POPC   C1B64543  38.641  19.225   6.453
10088POPC   C2B64544  38.583  19.270   6.753
10088POPC   C3B64545  38.601  19.256   7.053
10088POPC   C4B64546  38.611  19.244   7.353
10089POPC   NC364547  33.760  30.739   5.553
10089POPC   PO464548  33.753  30.705   5.853
10089POPC   GL164549  33.819  30.674   6.153
10089POPC   GL264550  33.694  30.656   6.153
10089POPC   C1A64551  33.790  30.717   6.453
10089POPC   D2A64552  33.758  30.706   6.753
10089POPC   C3A64553  33.754  30.679   7.053
10089POPC   C4A64554  33.773  30.718   7.353
10089POPC   C1B64555  33.607  30.532   6.453
10089POPC   C2B64556  33.637  30.482   6.753
10089POPC   C3B64557  33.654  30.553   7.053
10089POPC   C4B64558  33.646  30.554   7.353
10090POPC   NC364559  22.956  12.113   5.553
10090POPC   PO464560  22.898  12.119   5.853
10090POPC   GL164561  22.971  12.095   6.153
10090POPC   GL264562  23.032  11.952   6.153
10090POPC   C1A64563  22.957  12.082   6.453
10090POPC   D2A64564  22.905  12.125   6.753
10090POPC   C3A64565  22.890  12.065   7.053
10090POPC   C4A64566  22.955  12.095   7.353
10090POPC   C1B64567  23.096  11.904   6.453
10090POPC   C2B64568  23.026  11.820   6.753
10090POPC   C3B64569  23.054  11.873   7.053
10090POPC   C4B64570  23.027  11.830   7.353
10091POPC   NC364571  28.401  19.015   5.553
10091POPC   PO464572  28.387  19.017   5.853
10091POPC   GL164573  28.369  19.021   6.153
10091POPC   GL264574  28.258  19.113   6.153
10091POPC   C1A64575  28.336  19.084   6.453
10091POPC   D2A64576  28.417  19.080   6.753
10091POPC   C3A64577  28.380  19.090   7.053
10091POPC   C4A64578  28.346  19.108   7.353
10091POPC   C1B64579  28.229  19.292   6.453
10091POPC   C2B64580  28.233  19.204   6.753
10091POPC   C3B64581  28.197  19.215   7.053
10091POPC   C4B64582  28.189  19.210   7.353
10092POPC   NC364583   0.484  28.348   5.553
10092POPC   PO464584   0.409  28.359   5.853
10092POPC   GL164585   0.393  28.385   6.153
10092POPC   GL264586   0.360  28.367   6.153
10092POPC   C1A64587   0.438  28.385   6.453
10092POPC   D2A64588   0.419  28.380   6.753
10092POPC   C3A64589   0.475  28.348   7.053
10092POPC   C4A64590   0.469  28.365   7.353
10092POPC   C1B64591   0.186  28.267   6.453
10092POPC   C2B64592   0.151  28.316   6.753
10092POPC   C3B64593   0.214  28.254   7.053
10092POPC   C4B64594   0.177  28.308   7.353
10093POPC   NC364595  36.864   5.114   5.553
10093POPC   PO464596  36.890   5.135   5.853
10093POPC   GL164597  36.886   5.099   6.153
10093POPC   GL264598  36.808   5.033   6.153
10093POPC   C1A64599  36.924   5.109   6.453
10093POPC   D2A64600  36.872   5.106   6.753
10093POPC   C3A64601  36.879   5.096   7.053
10093POPC   C4A64602  36.871   5.050   7.353
10093POPC   C1B64603  36.704   4.903   6.453
10093POPC   C2B64604  36.720   4.932   6.753
10093POPC   C3B64605  36.722   4.884   7.053
10093POPC   C4B64606  36.758   4.958   7.353
10094POPC   NC364607   4.345  28.322   5.553
10094POPC   PO464608   4.367  28.405   5.853
10094POPC   GL164609   4.354  28.380   6.153
10094POPC   GL264610   4.319  28.533   6.153
10094POPC   C1A64611   4.346  28.326   6.453
10094POPC   D2A64612   4.355  28.396   6.753
10094POPC   C3A64613   4.333  28.350   7.053
10094POPC   C4A64614   4.360  28.361   7.353
10094POPC   C1B64615   4.375  28.568   6.453
10094POPC   C2B64616   4.394  28.623   6.753
10094POPC   C3B64617   4.442  28.575   7.053
10094POPC   C4B64618   4.351  28.564   7.353
10095POPC   NC364619  11.262   6.628   5.553
10095POPC   PO464620  11.330   6.690   5.853
10095POPC   GL164621  11.329   6.601   6.153
10095POPC   GL264622  11.166   6.686   6.153
10095POPC   C1A64623  11.333   6.653   6.453
10095POPC   D2A64624  11.277   6.597   6.753
10095POPC   C3A64625  11.284   6.671   7.053
10095POPC   C4A64626  11.341   6.656   7.353
10095POPC   C1B64627  11.067   6.793   6.453
10095POPC   C2B64628  11.102   6.781   6.753
10095POPC   C3B64629  11.069   6.850   7.053
10095POPC   C4B64630  11.069   6.814   7.353
10096POPC   NC364631  27.603   0.480   5.553
10096POPC   PO464632  27.623   0.435   5.853
10096POPC   GL164633  27.588   0.435   6.153
10096POPC   GL264634  27.577   0.562   6.153
10096POPC   C1A64635  27.572   0.443   6.453
10096POPC   D2A64636  27.587   0.475   6.753
10096POPC   C3A64637  27.631   0.407   7.053
10096POPC   C4A64638  27.597   0.396   7.353
10096POPC   C1B64639  27.602   0.727   6.453
10096POPC   C2B64640  27.634   0.700   6.753
10096POPC   C3B64641  27.644   0.647   7.053
10096POPC   C4B64642  27.596   0.736   7.353
10097POPC   NC364643  42.349   4.276   5.553
10097POPC   PO464644  42.316   4.355   5.853
10097POPC   GL164645  42.377   4.349   6.153
10097POPC   GL264646  42.292   4.218   6.153
10097POPC   C1A64647  42.325   4.329   6.453
10097POPC   D2A64648  42.339   4.287   6.753
10097POPC   C3A64649  42.381   4.267   7.053
10097POPC   C4A64650  42.353   4.324   7.353
10097POPC   C1B64651  42.307   4.111   6.453
10097POPC   C2B64652  42.295   4.033   6.753
10097POPC   C3B64653  42.268   4.058   7.053
10097POPC   C4B64654  42.305   4.096   7.353
10098POPC   NC364655  42.339   1.200   5.553
10098POPC   PO464656  42.353   1.230   5.853
10098POPC   GL164657  42.341   1.168   6.153
10098POPC   GL264658  42.463   1.173   6.153
10098POPC   C1A64659  42.369   1.184   6.453
10098POPC   D2A64660  42.341   1.227   6.753
10098POPC   C3A64661  42.328   1.171   7.053
10098POPC   C4A64662  42.379   1.215   7.353
10098POPC   C1B64663  42.583   1.142   6.453
10098POPC   C2B64664  42.589   1.131   6.753
10098POPC   C3B64665  42.523   1.099   7.053
10098POPC   C4B64666  42.590   1.143   7.353
10099POPC   NC364667   1.213  15.198   5.553
10099POPC   PO464668   1.251  15.199   5.853
10099POPC   GL164669   1.239  15.178   6.153
10099POPC   GL264670   1.135  15.253   6.153
10099POPC   C1A64671   1.215  15.176   6.453
10099POPC   D2A64672   1.248  15.184   6.753
10099POPC   C3A64673   1.212  15.144   7.053
10099POPC   C4A64674   1.221  15.197   7.353
10099POPC   C1B64675   1.032  15.408   6.453
10099POPC   C2B64676   1.100  15.332   6.753
10099POPC   C3B64677   1.057  15.363   7.053
10099POPC   C4B64678   1.007  15.355   7.353
10100POPC   NC364679  29.162  42.335   5.553
10100POPC   PO464680  29.138  42.370   5.853
10100POPC   GL164681  29.146  42.299   6.153
10100POPC   GL264682  29.075  42.496   6.153
10100POPC   C1A64683  29.131  42.321   6.453
10100POPC   D2A64684  29.100  42.376   6.753
10100POPC   C3A64685  29.119  42.309   7.053
10100POPC   C4A64686  29.157  42.351   7.353
10100POPC   C1B64687  29.099  42.593   6.453
10100POPC   C2B64688  29.096  42.588   6.753
10100POPC   C3B64689  29.038  42.600   7.053
10100POPC   C4B64690  29.054  42.544   7.353
10101POPC   NC364691   0.487  42.292   5.553
10101POPC   PO464692   0.442  42.381   5.853
10101POPC   GL164693   0.393  42.348   6.153
10101POPC   GL264694   0.566  42.296   6.153
10101POPC   C1A64695   0.483  42.330   6.453
10101POPC   D2A64696   0.460  42.382   6.753
10101POPC   C3A64697   0.453  42.301   7.053
10101POPC   C4A64698   0.389  42.353   7.353
10101POPC   C1B64699   0.721  42.223   6.453
10101POPC   C2B64700   0.657  42.247   6.753
10101POPC   C3B64701   0.679  42.268   7.053
10101POPC   C4B64702   0.708  42.272   7.353
10102POPC   NC364703  12.833   9.720   5.553
10102POPC   PO464704  12.841   9.742   5.853
10102POPC   GL164705  12.895   9.787   6.153
10102POPC   GL264706  12.767   9.805   6.153
10102POPC   C1A64707  12.809   9.720   6.453
10102POPC   D2A64708  12.891   9.737   6.753
10102POPC   C3A64709  12.821   9.733   7.053
10102POPC   C4A64710  12.826   9.709   7.353
10102POPC   C1B64711  12.687   9.936   6.453
10102POPC   C2B64712  12.726   9.976   6.753
10102POPC   C3B64713  12.698   9.945   7.053
10102POPC   C4B64714  12.642   9.907   7.353
10103POPC   NC364715   1.940  38.464   5.553
10103POPC   PO464716   2.026  38.413   5.853
10103POPC   GL164717   1.970  38.416   6.153
10103POPC   GL264718   1.913  38.406   6.153
10103POPC   C1A64719   1.978  38.421   6.453
10103POPC   D2A64720   1.989  38.413   6.753
10103POPC   C3A64721   1.993  38.430   7.053
10103POPC   C4A64722   2.030  38.408   7.353
10103POPC   C1B64723   1.725  38.410   6.453
10103POPC   C2B64724   1.744  38.430   6.753
10103POPC   C3B64725   1.696  38.380   7.053
10103POPC   C4B64726   1.693  38.373   7.353
10104POPC   NC364727  31.510  32.988   5.553
10104POPC   PO464728  31.466  33.022   5.853
10104POPC   GL164729  31.462  32.985   6.153
10104POPC   GL264730  31.305  32.989   6.153
10104POPC   C1A64731  31.447  33.039   6.453
10104POPC   D2A64732  31.439  33.034   6.753
10104POPC   C3A64733  31.447  33.053   7.053
10104POPC   C4A64734  31.449  33.015   7.353
10104POPC   C1B64735  31.209  32.953   6.453
10104POPC   C2B64736  31.260  33.005   6.753
10104POPC   C3B64737  31.204  33.000   7.053
10104POPC   C4B64738  31.210  32.974   7.353
10105POPC   NC364739  19.834  32.241   5.553
10105POPC   PO464740  19.822  32.241   5.853
10105POPC   GL164741  19.884  32.214   6.153
10105POPC   GL264742  19.874  32.322   6.153
10105POPC   C1A64743  19.883  32.287   6.453
10105POPC   D2A64744  19.791  32.293   6.753
10105POPC   C3A64745  19.787  32.232   7.053
10105POPC   C4A64746  19.857  32.251   7.353
10105POPC   C1B64747  19.988  32.410   6.453
10105POPC   C2B64748  19.986  32.415   6.753
10105POPC   C3B64749  20.028  32.503   7.053
10105POPC   C4B64750  19.974  32.484   7.353
10106POPC   NC364751  33.801  24.512   5.553
10106POPC   PO464752  33.792  24.521   5.853
10106POPC   GL164753  33.806  24.515   6.153
10106POPC   GL264754  33.716  24.539   6.153
10106POPC   C1A64755  33.768  24.516   6.453
10106POPC   D2A64756  33.805  24.513   6.753
10106POPC   C3A64757  33.759  24.527   7.053
10106POPC   C4A64758  33.839  24.501   7.353
10106POPC   C1B64759  33.558  24.563   6.453
10106POPC   C2B64760  33.536  24.497   6.753
10106POPC   C3B64761  33.514  24.516   7.053
10106POPC   C4B64762  33.586  24.505   7.353
10107POPC   NC364763  14.365  36.127   5.553
10107POPC   PO464764  14.369  36.149   5.853
10107POPC   GL164765  14.402  36.101   6.153
10107POPC   GL264766  14.351  36.047   6.153
10107POPC   C1A64767  14.451  36.158   6.453
10107POPC   D2A64768  14.435  36.111   6.753
10107POPC   C3A64769  14.362  36.176   7.053
10107POPC   C4A64770  14.445  36.088   7.353
10107POPC   C1B64771  14.150  36.006   6.453
10107POPC   C2B64772  14.152  35.994   6.753
10107POPC   C3B64773  14.185  35.980   7.053
10107POPC   C4B64774  14.222  35.974   7.353
10108POPC   NC364775  43.113  27.578   5.553
10108POPC   PO464776  43.114  27.610   5.853
10108POPC   GL164777  43.118  27.553   6.153
10108POPC   GL264778  43.149  27.476   6.153
10108POPC   C1A64779  43.158  27.614   6.453
10108POPC   D2A64780  43.102  27.564   6.753
10108POPC   C3A64781  43.087  27.551   7.053
10108POPC   C4A64782  43.132  27.559   7.353
10108POPC   C1B64783  43.219  27.314   6.453
10108POPC   C2B64784  43.165  27.404   6.753
10108POPC   C3B64785  43.167  27.394   7.053
10108POPC   C4B64786  43.138  27.402   7.353
10109POPC   NC364787  27.579  25.301   5.553
10109POPC   PO464788  27.571  25.249   5.853
10109POPC   GL164789  27.559  25.298   6.153
10109POPC   GL264790  27.560  25.352   6.153
10109POPC   C1A64791  27.562  25.242   6.453
10109POPC   D2A64792  27.571  25.235   6.753
10109POPC   C3A64793  27.642  25.282   7.053
10109POPC   C4A64794  27.582  25.254   7.353
10109POPC   C1B64795  27.470  25.442   6.453
10109POPC   C2B64796  27.493  25.522   6.753
10109POPC   C3B64797  27.524  25.457   7.053
10109POPC   C4B64798  27.448  25.450   7.353
10110POPC   NC364799  12.864  26.086   5.553
10110POPC   PO464800  12.803  26.006   5.853
10110POPC   GL164801  12.838  26.037   6.153
10110POPC   GL264802  12.829  26.161   6.153
10110POPC   C1A64803  12.848  26.067   6.453
10110POPC   D2A64804  12.846  26.082   6.753
10110POPC   C3A64805  12.829  26.063   7.053
10110POPC   C4A64806  12.839  26.023   7.353
10110POPC   C1B64807  12.809  26.301   6.453
10110POPC   C2B64808  12.760  26.272   6.753
10110POPC   C3B64809  12.851  26.238   7.053
10110POPC   C4B64810  12.780  26.334   7.353
10111POPC   NC364811   5.832   1.244   5.553
10111POPC   PO464812   5.859   1.192   5.853
10111POPC   GL164813   5.854   1.203   6.153
10111POPC   GL264814   6.011   1.265   6.153
10111POPC   C1A64815   5.833   1.224   6.453
10111POPC   D2A64816   5.858   1.177   6.753
10111POPC   C3A64817   5.836   1.185   7.053
10111POPC   C4A64818   5.878   1.188   7.353
10111POPC   C1B64819   6.089   1.307   6.453
10111POPC   C2B64820   6.125   1.363   6.753
10111POPC   C3B64821   6.111   1.351   7.053
10111POPC   C4B64822   6.055   1.312   7.353
10112POPC   NC364823  19.815  44.649   5.553
10112POPC   PO464824  19.832  44.669   5.853
10112POPC   GL164825  19.852  44.682   6.153
10112POPC   GL264826  19.926  44.753   6.153
10112POPC   C1A64827  19.830  44.675   6.453
10112POPC   D2A64828  19.803  44.670   6.753
10112POPC   C3A64829  19.873  44.640   7.053
10112POPC   C4A64830  19.825  44.692   7.353
10112POPC   C1B64831  19.925  44.880   6.453
10112POPC   C2B64832  19.944  44.870   6.753
10112POPC   C3B64833  19.961  44.857   7.053
10112POPC   C4B64834  19.906  44.867   7.353
10113POPC   NC364835  20.614  33.834   5.553
10113POPC   PO464836  20.639  33.837   5.853
10113POPC   GL164837  20.586  33.760   6.153
10113POPC   GL264838  20.629  33.942   6.153
10113POPC   C1A64839  20.588  33.751   6.453
10113POPC   D2A64840  20.613  33.769   6.753
10113POPC   C3A64841  20.586  33.816   7.053
10113POPC   C4A64842  20.657  33.770   7.353
10113POPC   C1B64843  20.737  34.003   6.453
10113POPC   C2B64844  20.671  34.070   6.753
10113POPC   C3B64845  20.711  34.087   7.053
10113POPC   C4B64846  20.730  34.054   7.353
10114POPC   NC364847  38.481  20.574   5.553
10114POPC   PO464848  38.475  20.564   5.853
10114POPC   GL164849  38.442  20.624   6.153
10114POPC   GL264850  38.382  20.589   6.153
10114POPC   C1A64851  38.412  20.581   6.453
10114POPC   D2A64852  38.471  20.573   6.753
10114POPC   C3A64853  38.452  20.655   7.053
10114POPC   C4A64854  38.421  20.563   7.353
10114POPC   C1B64855  38.213  20.549   6.453
10114POPC   C2B64856  38.202  20.529   6.753
10114POPC   C3B64857  38.208  20.598   7.053
10114POPC   C4B64858  38.199  20.555   7.353
10115POPC   NC364859  27.617  13.623   5.553
10115POPC   PO464860  27.636  13.597   5.853
10115POPC   GL164861  27.545  13.591   6.153
10115POPC   GL264862  27.471  13.492   6.153
10115POPC   C1A64863  27.635  13.648   6.453
10115POPC   D2A64864  27.562  13.579   6.753
10115POPC   C3A64865  27.628  13.639   7.053
10115POPC   C4A64866  27.592  13.659   7.353
10115POPC   C1B64867  27.436  13.394   6.453
10115POPC   C2B64868  27.424  13.391   6.753
10115POPC   C3B64869  27.458  13.461   7.053
10115POPC   C4B64870  27.434  13.466   7.353
10116POPC   NC364871  17.461   3.588   5.553
10116POPC   PO464872  17.491   3.535   5.853
10116POPC   GL164873  17.519   3.587   6.153
10116POPC   GL264874  17.577   3.404   6.153
10116POPC   C1A64875  17.495   3.557   6.453
10116POPC   D2A64876  17.457   3.500   6.753
10116POPC   C3A64877  17.551   3.534   7.053
10116POPC   C4A64878  17.514   3.538   7.353
10116POPC   C1B64879  17.668   3.313   6.453
10116POPC   C2B64880  17.605   3.313   6.753
10116POPC   C3B64881  17.595   3.355   7.053
10116POPC   C4B64882  17.671   3.343   7.353
10117POPC   NC364883   1.977  40.778   5.553
10117POPC   PO464884   2.012  40.827   5.853
10117POPC   GL164885   1.959  40.818   6.153
10117POPC   GL264886   2.050  40.682   6.153
10117POPC   C1A64887   1.976  40.762   6.453
10117POPC   D2A64888   1.969  40.765   6.753
10117POPC   C3A64889   2.036  40.774   7.053
10117POPC   C4A64890   1.972  40.768   7.353
10117POPC   C1B64891   2.169  40.624   6.453
10117POPC   C2B64892   2.106  40.614   6.753
10117POPC   C3B64893   2.134  40.626   7.053
10117POPC   C4B64894   2.170  40.619   7.353
10118POPC   NC364895  34.594  23.749   5.553
10118POPC   PO464896  34.531  23.735   5.853
10118POPC   GL164897  34.581  23.664   6.153
10118POPC   GL264898  34.499  23.764   6.153
10118POPC   C1A64899  34.569  23.685   6.453
10118POPC   D2A64900  34.559  23.718   6.753
10118POPC   C3A64901  34.545  23.741   7.053
10118POPC   C4A64902  34.562  23.683   7.353
10118POPC   C1B64903  34.354  23.780   6.453
10118POPC   C2B64904  34.302  23.766   6.753
10118POPC   C3B64905  34.361  23.780   7.053
10118POPC   C4B64906  34.342  23.772   7.353
10119POPC   NC364907  32.291   1.186   5.553
10119POPC   PO464908  32.199   1.199   5.853
10119POPC   GL164909  32.201   1.168   6.153
10119POPC   GL264910  32.100   1.192   6.153
10119POPC   C1A64911  32.258   1.174   6.453
10119POPC   D2A64912  32.266   1.189   6.753
10119POPC   C3A64913  32.219   1.200   7.053
10119POPC   C4A64914  32.237   1.167   7.353
10119POPC   C1B64915  32.006   1.272   6.453
10119POPC   C2B64916  32.001   1.235   6.753
10119POPC   C3B64917  32.025   1.229   7.053
10119POPC   C4B64918  31.970   1.251   7.353
10120POPC   NC364919   0.468   5.086   5.553
10120POPC   PO464920   0.434   5.111   5.853
10120POPC   GL164921   0.418   5.141   6.153
10120POPC   GL264922   0.330   5.004   6.153
10120POPC   C1A64923   0.398   5.058   6.453
10120POPC   D2A64924   0.447   5.079   6.753
10120POPC   C3A64925   0.451   5.078   7.053
10120POPC   C4A64926   0.457   5.073   7.353
10120POPC   C1B64927   0.246   5.007   6.453
10120POPC   C2B64928   0.228   4.945   6.753
10120POPC   C3B64929   0.208   4.980   7.053
10120POPC   C4B64930   0.221   4.963   7.353
10121POPC   NC364931   4.367   5.894   5.553
10121POPC   PO464932   4.309   5.868   5.853
10121POPC   GL164933   4.295   5.891   6.153
10121POPC   GL264934   4.354   5.772   6.153
10121POPC   C1A64935   4.290   5.824   6.453
10121POPC   D2A64936   4.318   5.913   6.753
10121POPC   C3A64937   4.277   5.878   7.053
10121POPC   C4A64938   4.334   5.891   7.353
10121POPC   C1B64939   4.333   5.656   6.453
10121POPC   C2B64940   4.326   5.628   6.753
10121POPC   C3B64941   4.310   5.574   7.053
10121POPC   C4B64942   4.339   5.627   7.353
10122POPC   NC364943   0.481  19.792   5.553
10122POPC   PO464944   0.481  19.792   5.853
10122POPC   GL164945   0.444  19.859   6.153
10122POPC   GL264946   0.582  19.722   6.153
10122POPC   C1A64947   0.406  19.854   6.453
10122POPC   D2A64948   0.397  19.802   6.753
10122POPC   C3A64949   0.454  19.879   7.053
10122POPC   C4A64950   0.463  19.854   7.353
10122POPC   C1B64951   0.616  19.714   6.453
10122POPC   C2B64952   0.664  19.670   6.753
10122POPC   C3B64953   0.630  19.676   7.053
10122POPC   C4B64954   0.614  19.669   7.353
10123POPC   NC364955   4.325   2.017   5.553
10123POPC   PO464956   4.269   2.038   5.853
10123POPC   GL164957   4.340   1.991   6.153
10123POPC   GL264958   4.345   2.095   6.153
10123POPC   C1A64959   4.340   1.996   6.453
10123POPC   D2A64960   4.329   1.954   6.753
10123POPC   C3A64961   4.285   2.009   7.053
10123POPC   C4A64962   4.288   2.005   7.353
10123POPC   C1B64963   4.270   2.204   6.453
10123POPC   C2B64964   4.270   2.212   6.753
10123POPC   C3B64965   4.266   2.204   7.053
10123POPC   C4B64966   4.273   2.253   7.353
10124POPC   NC364967   2.807  34.562   5.553
10124POPC   PO464968   2.716  34.586   5.853
10124POPC   GL164969   2.742  34.590   6.153
10124POPC   GL264970   2.685  34.509   6.153
10124POPC   C1A64971   2.782  34.550   6.453
10124POPC   D2A64972   2.726  34.571   6.753
10124POPC   C3A64973   2.767  34.620   7.053
10124POPC   C4A64974   2.785  34.622   7.353
10124POPC   C1B64975   2.595  34.366   6.453
10124POPC   C2B64976   2.607  34.386   6.753
10124POPC   C3B64977   2.612  34.329   7.053
10124POPC   C4B64978   2.611  34.376   7.353
10125POPC   NC364979  41.533  36.917   5.553
10125POPC   PO464980  41.558  36.901   5.853
10125POPC   GL164981  41.524  36.924   6.153
10125POPC   GL264982  41.595  37.074   6.153
10125POPC   C1A64983  41.595  36.936   6.453
10125POPC   D2A64984  41.511  36.870   6.753
10125POPC   C3A64985  41.547  36.869   7.053
10125POPC   C4A64986  41.527  36.901   7.353
10125POPC   C1B64987  41.602  37.144   6.453
10125POPC   C2B64988  41.614  37.195   6.753
10125POPC   C3B64989  41.570  37.161   7.053
10125POPC   C4B64990  41.618  37.133   7.353
10126POPC   NC364991  31.483  19.808   5.553
10126POPC   PO464992  31.464  19.880   5.853
10126POPC   GL164993  31.499  19.865   6.153
10126POPC   GL264994  31.376  19.808   6.153
10126POPC   C1A64995  31.455  19.808   6.453
10126POPC   D2A64996  31.507  19.811   6.753
10126POPC   C3A64997  31.454  19.790   7.053
10126POPC   C4A64998  31.439  19.804   7.353
10126POPC   C1B64999  31.220  19.842   6.453
10126POPC   C2B65000  31.216  19.821   6.753
10126POPC   C3B65001  31.221  19.802   7.053
10126POPC   C4B65002  31.184  19.795   7.353
10127POPC   NC365003  29.153  36.147   5.553
10127POPC   PO465004  29.158  36.176   5.853
10127POPC   GL165005  29.143  36.080   6.153
10127POPC   GL265006  29.204  36.022   6.153
10127POPC   C1A65007  29.129  36.082   6.453
10127POPC   D2A65008  29.150  36.160   6.753
10127POPC   C3A65009  29.186  36.164   7.053
10127POPC   C4A65010  29.186  36.125   7.353
10127POPC   C1B65011  29.179  35.879   6.453
10127POPC   C2B65012  29.194  35.901   6.753
10127POPC   C3B65013  29.188  35.870   7.053
10127POPC   C4B65014  29.186  35.857   7.353
10128POPC   NC365015  18.255  35.367   5.553
10128POPC   PO465016  18.266  35.339   5.853
10128POPC   GL165017  18.302  35.311   6.153
10128POPC   GL265018  18.195  35.241   6.153
10128POPC   C1A65019  18.298  35.307   6.453
10128POPC   D2A65020  18.241  35.313   6.753
10128POPC   C3A65021  18.309  35.375   7.053
10128POPC   C4A65022  18.285  35.303   7.353
10128POPC   C1B65023  18.091  35.192   6.453
10128POPC   C2B65024  18.052  35.249   6.753
10128POPC   C3B65025  18.058  35.218   7.053
10128POPC   C4B65026  18.047  35.221   7.353
10129POPC   NC365027   8.243  29.934   5.553
10129POPC   PO465028   8.241  29.958   5.853
10129POPC   GL165029   8.209  29.965   6.153
10129POPC   GL265030   8.106  30.041   6.153
10129POPC   C1A65031   8.157  29.970   6.453
10129POPC   D2A65032   8.172  29.881   6.753
10129POPC   C3A65033   8.239  29.902   7.053
10129POPC   C4A65034   8.230  29.909   7.353
10129POPC   C1B65035   8.066  30.096   6.453
10129POPC   C2B65036   7.975  30.088   6.753
10129POPC   C3B65037   8.064  30.101   7.053
10129POPC   C4B65038   8.069  30.104   7.353
10130POPC   NC365039  21.414   2.729   5.553
10130POPC   PO465040  21.351   2.745   5.853
10130POPC   GL165041  21.387   2.773   6.153
10130POPC   GL265042  21.314   2.642   6.153
10130POPC   C1A65043  21.378   2.758   6.453
10130POPC   D2A65044  21.359   2.792   6.753
10130POPC   C3A65045  21.429   2.762   7.053
10130POPC   C4A65046  21.338   2.801   7.353
10130POPC   C1B65047  21.309   2.475   6.453
10130POPC   C2B65048  21.375   2.481   6.753
10130POPC   C3B65049  21.314   2.479   7.053
10130POPC   C4B65050  21.357   2.484   7.353
10131POPC   NC365051  28.349  17.483   5.553
10131POPC   PO465052  28.359  17.466   5.853
10131POPC   GL165053  28.398  17.497   6.153
10131POPC   GL265054  28.306  17.472   6.153
10131POPC   C1A65055  28.325  17.551   6.453
10131POPC   D2A65056  28.320  17.512   6.753
10131POPC   C3A65057  28.349  17.557   7.053
10131POPC   C4A65058  28.412  17.472   7.353
10131POPC   C1B65059  28.124  17.352   6.453
10131POPC   C2B65060  28.189  17.392   6.753
10131POPC   C3B65061  28.117  17.432   7.053
10131POPC   C4B65062  28.151  17.357   7.353
10132POPC   NC365063  36.152  24.442   5.553
10132POPC   PO465064  36.164  24.512   5.853
10132POPC   GL165065  36.130  24.489   6.153
10132POPC   GL265066  36.275  24.530   6.153
10132POPC   C1A65067  36.174  24.474   6.453
10132POPC   D2A65068  36.175  24.464   6.753
10132POPC   C3A65069  36.153  24.486   7.053
10132POPC   C4A65070  36.118  24.533   7.353
10132POPC   C1B65071  36.375  24.480   6.453
10132POPC   C2B65072  36.379  24.482   6.753
10132POPC   C3B65073  36.343  24.475   7.053
10132POPC   C4B65074  36.374  24.453   7.353
10133POPC   NC365075  35.323  29.936   5.553
10133POPC   PO465076  35.399  29.937   5.853
10133POPC   GL165077  35.302  29.969   6.153
10133POPC   GL265078  35.305  30.001   6.153
10133POPC   C1A65079  35.400  29.919   6.453
10133POPC   D2A65080  35.326  29.963   6.753
10133POPC   C3A65081  35.329  29.920   7.053
10133POPC   C4A65082  35.337  29.897   7.353
10133POPC   C1B65083  35.224  30.152   6.453
10133POPC   C2B65084  35.184  30.121   6.753
10133POPC   C3B65085  35.270  30.146   7.053
10133POPC   C4B65086  35.187  30.169   7.353
10134POPC   NC365087  40.766   9.716   5.553
10134POPC   PO465088  40.760   9.783   5.853
10134POPC   GL165089  40.743   9.733   6.153
10134POPC   GL265090  40.714   9.827   6.153
10134POPC   C1A65091  40.744   9.778   6.453
10134POPC   D2A65092  40.740   9.775   6.753
10134POPC   C3A65093  40.767   9.756   7.053
10134POPC   C4A65094  40.801   9.779   7.353
10134POPC   C1B65095  40.611   9.892   6.453
10134POPC   C2B65096  40.615   9.942   6.753
10134POPC   C3B65097  40.536   9.895   7.053
10134POPC   C4B65098  40.564   9.883   7.353
10135POPC   NC365099  23.726  15.919   5.553
10135POPC   PO465100  23.696  15.950   5.853
10135POPC   GL165101  23.664  15.971   6.153
10135POPC   GL265102  23.661  15.829   6.153
10135POPC   C1A65103  23.674  16.003   6.453
10135POPC   D2A65104  23.760  15.908   6.753
10135POPC   C3A65105  23.746  15.987   7.053
10135POPC   C4A65106  23.704  15.966   7.353
10135POPC   C1B65107  23.556  15.757   6.453
10135POPC   C2B65108  23.527  15.755   6.753
10135POPC   C3B65109  23.558  15.773   7.053
10135POPC   C4B65110  23.566  15.819   7.353
10136POPC   NC365111   0.473  32.982   5.553
10136POPC   PO465112   0.400  32.996   5.853
10136POPC   GL165113   0.403  33.006   6.153
10136POPC   GL265114   0.537  33.106   6.153
10136POPC   C1A65115   0.440  32.987   6.453
10136POPC   D2A65116   0.477  33.028   6.753
10136POPC   C3A65117   0.390  32.988   7.053
10136POPC   C4A65118   0.403  32.995   7.353
10136POPC   C1B65119   0.673  33.112   6.453
10136POPC   C2B65120   0.639  33.165   6.753
10136POPC   C3B65121   0.626  33.123   7.053
10136POPC   C4B65122   0.616  33.168   7.353
10137POPC   NC365123  13.615  38.461   5.553
10137POPC   PO465124  13.638  38.423   5.853
10137POPC   GL165125  13.587  38.477   6.153
10137POPC   GL265126  13.460  38.449   6.153
10137POPC   C1A65127  13.598  38.408   6.453
10137POPC   D2A65128  13.673  38.476   6.753
10137POPC   C3A65129  13.673  38.413   7.053
10137POPC   C4A65130  13.602  38.465   7.353
10137POPC   C1B65131  13.403  38.496   6.453
10137POPC   C2B65132  13.377  38.500   6.753
10137POPC   C3B65133  13.410  38.479   7.053
10137POPC   C4B65134  13.411  38.457   7.353
10138POPC   NC365135  28.341  24.509   5.553
10138POPC   PO465136  28.356  24.479   5.853
10138POPC   GL165137  28.359  24.490   6.153
10138POPC   GL265138  28.343  24.354   6.153
10138POPC   C1A65139  28.357  24.505   6.453
10138POPC   D2A65140  28.334  24.450   6.753
10138POPC   C3A65141  28.391  24.470   7.053
10138POPC   C4A65142  28.320  24.459   7.353
10138POPC   C1B65143  28.314  24.199   6.453
10138POPC   C2B65144  28.345  24.260   6.753
10138POPC   C3B65145  28.294  24.275   7.053
10138POPC   C4B65146  28.355  24.217   7.353
10139POPC   NC365147  32.980  12.041   5.553
10139POPC   PO465148  33.036  12.120   5.853
10139POPC   GL165149  33.062  12.081   6.153
10139POPC   GL265150  33.119  12.087   6.153
10139POPC   C1A65151  33.050  12.034   6.453
10139POPC   D2A65152  33.003  12.032   6.753
10139POPC   C3A65153  32.979  12.078   7.053
10139POPC   C4A65154  33.019  12.041   7.353
10139POPC   C1B65155  33.315  12.080   6.453
10139POPC   C2B65156  33.254  12.063   6.753
10139POPC   C3B65157  33.239  12.079   7.053
10139POPC   C4B65158  33.255  12.129   7.353
10140POPC   NC365159  12.105   9.795   5.553
10140POPC   PO465160  12.058   9.782   5.853
10140POPC   GL165161  12.122   9.738   6.153
10140POPC   GL265162  12.078   9.683   6.153
10140POPC   C1A65163  12.087   9.788   6.453
10140POPC   D2A65164  12.027   9.717   6.753
10140POPC   C3A65165  12.114   9.754   7.053
10140POPC   C4A65166  12.109   9.785   7.353
10140POPC   C1B65167  12.151   9.547   6.453
10140POPC   C2B65168  12.193   9.563   6.753
10140POPC   C3B65169  12.181   9.548   7.053
10140POPC   C4B65170  12.193   9.515   7.353
10141POPC   NC365171  35.324  10.539   5.553
10141POPC   PO465172  35.388  10.546   5.853
10141POPC   GL165173  35.386  10.515   6.153
10141POPC   GL265174  35.213  10.525   6.153
10141POPC   C1A65175  35.359  10.475   6.453
10141POPC   D2A65176  35.342  10.506   6.753
10141POPC   C3A65177  35.354  10.542   7.053
10141POPC   C4A65178  35.376  10.479   7.353
10141POPC   C1B65179  35.106  10.500   6.453
10141POPC   C2B65180  35.068  10.521   6.753
10141POPC   C3B65181  35.073  10.530   7.053
10141POPC   C4B65182  35.119  10.495   7.353
10142POPC   NC365183  39.275  34.578   5.553
10142POPC   PO465184  39.230  34.620   5.853
10142POPC   GL165185  39.233  34.623   6.153
10142POPC   GL265186  39.122  34.485   6.153
10142POPC   C1A65187  39.207  34.555   6.453
10142POPC   D2A65188  39.200  34.563   6.753
10142POPC   C3A65189  39.234  34.543   7.053
10142POPC   C4A65190  39.222  34.536   7.353
10142POPC   C1B65191  38.999  34.421   6.453
10142POPC   C2B65192  38.996  34.485   6.753
10142POPC   C3B65193  38.971  34.455   7.053
10142POPC   C4B65194  38.964  34.447   7.353
10143POPC   NC365195  23.728  43.858   5.553
10143POPC   PO465196  23.690  43.865   5.853
10143POPC   GL165197  23.723  43.860   6.153
10143POPC   GL265198  23.592  43.827   6.153
10143POPC   C1A65199  23.676  43.935   6.453
10143POPC   D2A65200  23.737  43.860   6.753
10143POPC   C3A65201  23.667  43.856   7.053
10143POPC   C4A65202  23.705  43.923   7.353
10143POPC   C1B65203  23.524  43.780   6.453
10143POPC   C2B65204  23.535  43.811   6.753
10143POPC   C3B65205  23.527  43.760   7.053
10143POPC   C4B65206  23.473  43.765   7.353
10144POPC   NC365207  31.507  26.091   5.553
10144POPC   PO465208  31.458  26.019   5.853
10144POPC   GL165209  31.482  26.017   6.153
10144POPC   GL265210  31.505  26.162   6.153
10144POPC   C1A65211  31.458  26.086   6.453
10144POPC   D2A65212  31.428  26.017   6.753
10144POPC   C3A65213  31.464  26.070   7.053
10144POPC   C4A65214  31.456  26.059   7.353
10144POPC   C1B65215  31.534  26.285   6.453
10144POPC   C2B65216  31.516  26.314   6.753
10144POPC   C3B65217  31.558  26.293   7.053
10144POPC   C4B65218  31.475  26.260   7.353
10145POPC   NC365219  23.684  24.479   5.553
10145POPC   PO465220  23.762  24.538   5.853
10145POPC   GL165221  23.736  24.446   6.153
10145POPC   GL265222  23.796  24.573   6.153
10145POPC   C1A65223  23.727  24.459   6.453
10145POPC   D2A65224  23.703  24.507   6.753
10145POPC   C3A65225  23.698  24.471   7.053
10145POPC   C4A65226  23.687  24.491   7.353
10145POPC   C1B65227  23.890  24.667   6.453
10145POPC   C2B65228  23.810  24.741   6.753
10145POPC   C3B65229  23.814  24.722   7.053
10145POPC   C4B65230  23.818  24.703   7.353
10146POPC   NC365231  26.793  20.660   5.553
10146POPC   PO465232  26.841  20.618   5.853
10146POPC   GL165233  26.837  20.571   6.153
10146POPC   GL265234  26.926  20.585   6.153
10146POPC   C1A65235  26.786  20.599   6.453
10146POPC   D2A65236  26.843  20.647   6.753
10146POPC   C3A65237  26.780  20.566   7.053
10146POPC   C4A65238  26.830  20.615   7.353
10146POPC   C1B65239  27.079  20.563   6.453
10146POPC   C2B65240  27.028  20.531   6.753
10146POPC   C3B65241  27.105  20.596   7.053
10146POPC   C4B65242  27.074  20.564   7.353
10147POPC   NC365243   8.974  43.126   5.553
10147POPC   PO465244   8.965  43.080   5.853
10147POPC   GL165245   8.926  43.138   6.153
10147POPC   GL265246   8.870  43.030   6.153
10147POPC   C1A65247   8.994  43.155   6.453
10147POPC   D2A65248   8.965  43.075   6.753
10147POPC   C3A65249   9.020  43.152   7.053
10147POPC   C4A65250   8.961  43.063   7.353
10147POPC   C1B65251   8.729  43.044   6.453
10147POPC   C2B65252   8.770  43.068   6.753
10147POPC   C3B65253   8.742  43.048   7.053
10147POPC   C4B65254   8.754  43.053   7.353
10148POPC   NC365255   2.035   0.456   5.553
10148POPC   PO465256   2.030   0.453   5.853
10148POPC   GL165257   1.998   0.415   6.153
10148POPC   GL265258   1.977   0.352   6.153
10148POPC   C1A65259   1.982   0.450   6.453
10148POPC   D2A65260   2.010   0.433   6.753
10148POPC   C3A65261   2.024   0.433   7.053
10148POPC   C4A65262   1.966   0.451   7.353
10148POPC   C1B65263   2.082   0.243   6.453
10148POPC   C2B65264   2.014   0.236   6.753
10148POPC   C3B65265   2.065   0.180   7.053
10148POPC   C4B65266   2.102   0.159   7.353
10149POPC   NC365267   1.943  28.331   5.553
10149POPC   PO465268   2.036  28.383   5.853
10149POPC   GL165269   1.940  28.360   6.153
10149POPC   GL265270   2.152  28.354   6.153
10149POPC   C1A65271   2.034  28.361   6.453
10149POPC   D2A65272   1.980  28.403   6.753
10149POPC   C3A65273   2.035  28.364   7.053
10149POPC   C4A65274   2.010  28.418   7.353
10149POPC   C1B65275   2.276  28.323   6.453
10149POPC   C2B65276   2.198  28.380   6.753
10149POPC   C3B65277   2.232  28.313   7.053
10149POPC   C4B65278   2.255  28.379   7.353
10150POPC   NC365279  10.567  40.794   5.553
10150POPC   PO465280  10.547  40.795   5.853
10150POPC   GL165281  10.571  40.819   6.153
10150POPC   GL265282  10.418  40.726   6.153
10150POPC   C1A65283  10.526  40.765   6.453
10150POPC   D2A65284  10.568  40.788   6.753
10150POPC   C3A65285  10.503  40.777   7.053
10150POPC   C4A65286  10.574  40.761   7.353
10150POPC   C1B65287  10.256  40.754   6.453
10150POPC   C2B65288  10.304  40.767   6.753
10150POPC   C3B65289  10.291  40.787   7.053
10150POPC   C4B65290  10.257  40.761   7.353
10151POPC   NC365291  24.510   1.945   5.553
10151POPC   PO465292  24.537   1.967   5.853
10151POPC   GL165293  24.535   1.996   6.153
10151POPC   GL265294  24.421   2.086   6.153
10151POPC   C1A65295  24.483   2.038   6.453
10151POPC   D2A65296  24.518   1.963   6.753
10151POPC   C3A65297  24.465   2.030   7.053
10151POPC   C4A65298  24.496   1.991   7.353
10151POPC   C1B65299  24.263   2.098   6.453
10151POPC   C2B65300  24.279   2.090   6.753
10151POPC   C3B65301  24.232   2.130   7.053
10151POPC   C4B65302  24.212   2.036   7.353
10152POPC   NC365303  19.023   1.961   5.553
10152POPC   PO465304  19.009   1.999   5.853
10152POPC   GL165305  19.063   2.022   6.153
10152POPC   GL265306  18.971   2.060   6.153
10152POPC   C1A65307  19.050   2.015   6.453
10152POPC   D2A65308  19.025   1.994   6.753
10152POPC   C3A65309  19.067   1.974   7.053
10152POPC   C4A65310  19.098   2.038   7.353
10152POPC   C1B65311  18.892   2.136   6.453
10152POPC   C2B65312  18.899   2.109   6.753
10152POPC   C3B65313  18.872   2.090   7.053
10152POPC   C4B65314  18.828   2.168   7.353
10153POPC   NC365315  43.082  15.983   5.553
10153POPC   PO465316  43.137  15.915   5.853
10153POPC   GL165317  43.099  15.950   6.153
10153POPC   GL265318  43.025  15.998   6.153
10153POPC   C1A65319  43.108  15.913   6.453
10153POPC   D2A65320  43.160  15.959   6.753
10153POPC   C3A65321  43.132  15.960   7.053
10153POPC   C4A65322  43.125  15.985   7.353
10153POPC   C1B65323  42.894  16.026   6.453
10153POPC   C2B65324  42.918  16.092   6.753
10153POPC   C3B65325  42.842  16.048   7.053
10153POPC   C4B65326  42.912  16.006   7.353
10154POPC   NC365327  19.062  10.478   5.553
10154POPC   PO465328  19.066  10.529   5.853
10154POPC   GL165329  19.059  10.495   6.153
10154POPC   GL265330  19.180  10.587   6.153
10154POPC   C1A65331  19.108  10.477   6.453
10154POPC   D2A65332  19.046  10.542   6.753
10154POPC   C3A65333  19.019  10.515   7.053
10154POPC   C4A65334  19.088  10.513   7.353
10154POPC   C1B65335  19.315  10.605   6.453
10154POPC   C2B65336  19.335  10.557   6.753
10154POPC   C3B65337  19.350  10.604   7.053
10154POPC   C4B65338  19.337  10.548   7.353
10155POPC   NC365339  10.543  12.884   5.553
10155POPC   PO465340  10.555  12.817   5.853
10155POPC   GL165341  10.520  12.866   6.153
10155POPC   GL265342  10.641  12.809   6.153
10155POPC   C1A65343  10.485  12.867   6.453
10155POPC   D2A65344  10.474  12.881   6.753
10155POPC   C3A65345  10.511  12.885   7.053
10155POPC   C4A65346  10.501  12.847   7.353
10155POPC   C1B65347  10.765  12.863   6.453
10155POPC   C2B65348  10.784  12.808   6.753
10155POPC   C3B65349  10.727  12.818   7.053
10155POPC   C4B65350  10.766  12.902   7.353
10156POPC   NC365351   7.440  32.278   5.553
10156POPC   PO465352   7.440  32.208   5.853
10156POPC   GL165353   7.443  32.221   6.153
10156POPC   GL265354   7.543  32.175   6.153
10156POPC   C1A65355   7.454  32.200   6.453
10156POPC   D2A65356   7.424  32.296   6.753
10156POPC   C3A65357   7.429  32.218   7.053
10156POPC   C4A65358   7.397  32.276   7.353
10156POPC   C1B65359   7.626  32.148   6.453
10156POPC   C2B65360   7.669  32.121   6.753
10156POPC   C3B65361   7.622  32.173   7.053
10156POPC   C4B65362   7.688  32.171   7.353
10157POPC   NC365363  12.057  35.364   5.553
10157POPC   PO465364  12.048  35.315   5.853
10157POPC   GL165365  12.112  35.302   6.153
10157POPC   GL265366  11.965  35.287   6.153
10157POPC   C1A65367  12.112  35.329   6.453
10157POPC   D2A65368  12.120  35.367   6.753
10157POPC   C3A65369  12.041  35.307   7.053
10157POPC   C4A65370  12.026  35.364   7.353
10157POPC   C1B65371  11.894  35.187   6.453
10157POPC   C2B65372  11.841  35.181   6.753
10157POPC   C3B65373  11.880  35.207   7.053
10157POPC   C4B65374  11.850  35.183   7.353
10158POPC   NC365375  44.638  29.159   5.553
10158POPC   PO465376  44.619  29.113   5.853
10158POPC   GL165377  44.701  29.112   6.153
10158POPC   GL265378  44.675  29.257   6.153
10158POPC   C1A65379  44.643  29.120   6.453
10158POPC   D2A65380  44.640  29.095   6.753
10158POPC   C3A65381  44.674  29.099   7.053
10158POPC   C4A65382  44.675  29.176   7.353
10158POPC   C1B65383  44.612  29.433   6.453
10158POPC   C2B65384  44.570  29.405   6.753
10158POPC   C3B65385  44.607  29.417   7.053
10158POPC   C4B65386  44.576  29.415   7.353
10159POPC   NC365387  26.828  39.965   5.553
10159POPC   PO465388  26.848  40.001   5.853
10159POPC   GL165389  26.857  40.006   6.153
10159POPC   GL265390  26.736  39.931   6.153
10159POPC   C1A65391  26.855  39.957   6.453
10159POPC   D2A65392  26.820  39.972   6.753
10159POPC   C3A65393  26.808  40.032   7.053
10159POPC   C4A65394  26.822  40.028   7.353
10159POPC   C1B65395  26.704  39.839   6.453
10159POPC   C2B65396  26.673  39.775   6.753
10159POPC   C3B65397  26.642  39.823   7.053
10159POPC   C4B65398  26.718  39.811   7.353
10160POPC   NC365399  30.716  43.920   5.553
10160POPC   PO465400  30.740  43.933   5.853
10160POPC   GL165401  30.685  43.905   6.153
10160POPC   GL265402  30.620  44.001   6.153
10160POPC   C1A65403  30.678  43.878   6.453
10160POPC   D2A65404  30.739  43.853   6.753
10160POPC   C3A65405  30.668  43.854   7.053
10160POPC   C4A65406  30.663  43.844   7.353
10160POPC   C1B65407  30.568  44.060   6.453
10160POPC   C2B65408  30.564  44.135   6.753
10160POPC   C3B65409  30.569  44.088   7.053
10160POPC   C4B65410  30.562  44.145   7.353
10161POPC   NC365411  40.052  23.739   5.553
10161POPC   PO465412  39.985  23.676   5.853
10161POPC   GL165413  40.027  23.756   6.153
10161POPC   GL265414  39.918  23.626   6.153
10161POPC   C1A65415  40.010  23.675   6.453
10161POPC   D2A65416  40.042  23.720   6.753
10161POPC   C3A65417  40.034  23.717   7.053
10161POPC   C4A65418  40.051  23.668   7.353
10161POPC   C1B65419  39.840  23.484   6.453
10161POPC   C2B65420  39.828  23.557   6.753
10161POPC   C3B65421  39.909  23.531   7.053
10161POPC   C4B65422  39.852  23.541   7.353
10162POPC   NC365423  25.294  18.270   5.553
10162POPC   PO465424  25.238  18.325   5.853
10162POPC   GL165425  25.254  18.293   6.153
10162POPC   GL265426  25.379  18.244   6.153
10162POPC   C1A65427  25.219  18.285   6.453
10162POPC   D2A65428  25.308  18.234   6.753
10162POPC   C3A65429  25.306  18.241   7.053
10162POPC   C4A65430  25.261  18.271   7.353
10162POPC   C1B65431  25.449  18.112   6.453
10162POPC   C2B65432  25.452  18.184   6.753
10162POPC   C3B65433  25.527  18.116   7.053
10162POPC   C4B65434  25.474  18.119   7.353
10163POPC   NC365435  43.128  33.827   5.553
10163POPC   PO465436  43.144  33.805   5.853
10163POPC   GL165437  43.120  33.768   6.153
10163POPC   GL265438  43.127  33.649   6.153
10163POPC   C1A65439  43.113  33.814   6.453
10163POPC   D2A65440  43.144  33.819   6.753
10163POPC   C3A65441  43.103  33.804   7.053
10163POPC   C4A65442  43.077  33.798   7.353
10163POPC   C1B65443  43.032  33.580   6.453
10163POPC   C2B65444  43.022  33.539   6.753
10163POPC   C3B65445  43.005  33.509   7.053
10163POPC   C4B65446  43.027  33.532   7.353
10164POPC   NC365447  26.044  41.537   5.553
10164POPC   PO465448  26.003  41.543   5.853
10164POPC   GL165449  26.058  41.511   6.153
10164POPC   GL265450  25.934  41.631   6.153
10164POPC   C1A65451  26.083  41.511   6.453
10164POPC   D2A65452  26.027  41.525   6.753
10164POPC   C3A65453  26.089  41.574   7.053
10164POPC   C4A65454  26.025  41.553   7.353
10164POPC   C1B65455  25.874  41.776   6.453
10164POPC   C2B65456  25.843  41.713   6.753
10164POPC   C3B65457  25.879  41.732   7.053
10164POPC   C4B65458  25.880  41.766   7.353
10165POPC   NC365459   0.427  38.457   5.553
10165POPC   PO465460   0.406  38.448   5.853
10165POPC   GL165461   0.413  38.447   6.153
10165POPC   GL265462   0.412  38.334   6.153
10165POPC   C1A65463   0.453  38.494   6.453
10165POPC   D2A65464   0.434  38.405   6.753
10165POPC   C3A65465   0.454  38.461   7.053
10165POPC   C4A65466   0.398  38.460   7.353
10165POPC   C1B65467   0.330  38.230   6.453
10165POPC   C2B65468   0.343  38.264   6.753
10165POPC   C3B65469   0.380  38.191   7.053
10165POPC   C4B65470   0.316  38.195   7.353
10166POPC   NC365471  13.625   3.510   5.553
10166POPC   PO465472  13.601   3.569   5.853
10166POPC   GL165473  13.631   3.509   6.153
10166POPC   GL265474  13.692   3.624   6.153
10166POPC   C1A65475  13.633   3.589   6.453
10166POPC   D2A65476  13.626   3.552   6.753
10166POPC   C3A65477  13.622   3.535   7.053
10166POPC   C4A65478  13.633   3.549   7.353
10166POPC   C1B65479  13.822   3.693   6.453
10166POPC   C2B65480  13.766   3.743   6.753
10166POPC   C3B65481  13.828   3.737   7.053
10166POPC   C4B65482  13.789   3.779   7.353
10167POPC   NC365483   6.600  14.417   5.553
10167POPC   PO465484   6.650  14.387   5.853
10167POPC   GL165485   6.616  14.356   6.153
10167POPC   GL265486   6.715  14.307   6.153
10167POPC   C1A65487   6.661  14.372   6.453
10167POPC   D2A65488   6.694  14.376   6.753
10167POPC   C3A65489   6.691  14.393   7.053
10167POPC   C4A65490   6.657  14.438   7.353
10167POPC   C1B65491   6.765  14.135   6.453
10167POPC   C2B65492   6.704  14.219   6.753
10167POPC   C3B65493   6.705  14.218   7.053
10167POPC   C4B65494   6.706  14.165   7.353
10168POPC   NC365495  30.678  13.660   5.553
10168POPC   PO465496  30.742  13.593   5.853
10168POPC   GL165497  30.653  13.641   6.153
10168POPC   GL265498  30.667  13.454   6.153
10168POPC   C1A65499  30.701  13.586   6.453
10168POPC   D2A65500  30.699  13.587   6.753
10168POPC   C3A65501  30.648  13.597   7.053
10168POPC   C4A65502  30.692  13.609   7.353
10168POPC   C1B65503  30.670  13.421   6.453
10168POPC   C2B65504  30.729  13.337   6.753
10168POPC   C3B65505  30.700  13.424   7.053
10168POPC   C4B65506  30.694  13.366   7.353
10169POPC   NC365507  43.103  13.604   5.553
10169POPC   PO465508  43.115  13.588   5.853
10169POPC   GL165509  43.147  13.674   6.153
10169POPC   GL265510  43.147  13.546   6.153
10169POPC   C1A65511  43.130  13.619   6.453
10169POPC   D2A65512  43.107  13.647   6.753
10169POPC   C3A65513  43.111  13.619   7.053
10169POPC   C4A65514  43.116  13.672   7.353
10169POPC   C1B65515  43.182  13.386   6.453
10169POPC   C2B65516  43.095  13.379   6.753
10169POPC   C3B65517  43.158  13.405   7.053
10169POPC   C4B65518  43.160  13.358   7.353
10170POPC   NC365519  15.905  11.286   5.553
10170POPC   PO465520  15.942  11.294   5.853
10170POPC   GL165521  15.989  11.345   6.153
10170POPC   GL265522  15.953  11.229   6.153
10170POPC   C1A65523  15.973  11.341   6.453
10170POPC   D2A65524  15.932  11.252   6.753
10170POPC   C3A65525  15.966  11.333   7.053
10170POPC   C4A65526  15.963  11.309   7.353
10170POPC   C1B65527  16.021  11.027   6.453
10170POPC   C2B65528  16.017  11.029   6.753
10170POPC   C3B65529  16.097  11.108   7.053
10170POPC   C4B65530  16.052  11.091   7.353
10171POPC   NC365531  35.347  27.638   5.553
10171POPC   PO465532  35.350  27.547   5.853
10171POPC   GL165533  35.352  27.547   6.153
10171POPC   GL265534  35.450  27.607   6.153
10171POPC   C1A65535  35.401  27.574   6.453
10171POPC   D2A65536  35.375  27.560   6.753
10171POPC   C3A65537  35.341  27.640   7.053
10171POPC   C4A65538  35.397  27.600   7.353
10171POPC   C1B65539  35.554  27.631   6.453
10171POPC   C2B65540  35.560  27.686   6.753
10171POPC   C3B65541  35.618  27.653   7.053
10171POPC   C4B65542  35.576  27.649   7.353
10172POPC   NC365543  19.799  20.622   5.553
10172POPC   PO465544  19.848  20.646   5.853
10172POPC   GL165545  19.839  20.592   6.153
10172POPC   GL265546  19.929  20.666   6.153
10172POPC   C1A65547  19.854  20.604   6.453
10172POPC   D2A65548  19.850  20.608   6.753
10172POPC   C3A65549  19.883  20.566   7.053
10172POPC   C4A65550  19.799  20.632   7.353
10172POPC   C1B65551  20.077  20.729   6.453
10172POPC   C2B65552  20.062  20.775   6.753
10172POPC   C3B65553  20.054  20.709   7.053
10172POPC   C4B65554  20.033  20.722   7.353
10173POPC   NC365555  39.960  41.543   5.553
10173POPC   PO465556  40.000  41.514   5.853
10173POPC   GL165557  40.014  41.522   6.153
10173POPC   GL265558  40.087  41.411   6.153
10173POPC   C1A65559  39.998  41.540   6.453
10173POPC   D2A65560  39.966  41.597   6.753
10173POPC   C3A65561  40.041  41.587   7.053
10173POPC   C4A65562  40.046  41.538   7.353
10173POPC   C1B65563  40.154  41.378   6.453
10173POPC   C2B65564  40.147  41.338   6.753
10173POPC   C3B65565  40.182  41.308   7.053
10173POPC   C4B65566  40.172  41.333   7.353
10174POPC   NC365567  40.752  12.861   5.553
10174POPC   PO465568  40.802  12.873   5.853
10174POPC   GL165569  40.733  12.896   6.153
10174POPC   GL265570  40.642  12.797   6.153
10174POPC   C1A65571  40.819  12.836   6.453
10174POPC   D2A65572  40.770  12.817   6.753
10174POPC   C3A65573  40.781  12.898   7.053
10174POPC   C4A65574  40.805  12.809   7.353
10174POPC   C1B65575  40.592  12.706   6.453
10174POPC   C2B65576  40.565  12.720   6.753
10174POPC   C3B65577  40.613  12.679   7.053
10174POPC   C4B65578  40.567  12.716   7.353
10175POPC   NC365579  17.488  12.863   5.553
10175POPC   PO465580  17.470  12.834   5.853
10175POPC   GL165581  17.502  12.887   6.153
10175POPC   GL265582  17.577  12.781   6.153
10175POPC   C1A65583  17.458  12.818   6.453
10175POPC   D2A65584  17.465  12.829   6.753
10175POPC   C3A65585  17.465  12.822   7.053
10175POPC   C4A65586  17.538  12.817   7.353
10175POPC   C1B65587  17.724  12.803   6.453
10175POPC   C2B65588  17.697  12.742   6.753
10175POPC   C3B65589  17.754  12.773   7.053
10175POPC   C4B65590  17.695  12.750   7.353
10176POPC   NC365591  38.418  42.312   5.553
10176POPC   PO465592  38.412  42.334   5.853
10176POPC   GL165593  38.476  42.316   6.153
10176POPC   GL265594  38.455  42.469   6.153
10176POPC   C1A65595  38.445  42.353   6.453
10176POPC   D2A65596  38.430  42.328   6.753
10176POPC   C3A65597  38.458  42.373   7.053
10176POPC   C4A65598  38.458  42.351   7.353
10176POPC   C1B65599  38.439  42.537   6.453
10176POPC   C2B65600  38.355  42.530   6.753
10176POPC   C3B65601  38.386  42.530   7.053
10176POPC   C4B65602  38.403  42.588   7.353
10177POPC   NC365603  32.242  44.687   5.553
10177POPC   PO465604  32.266  44.655   5.853
10177POPC   GL165605  32.232  44.699   6.153
10177POPC   GL265606  32.139  44.807   6.153
10177POPC   C1A65607  32.247  44.631   6.453
10177POPC   D2A65608  32.237  44.680   6.753
10177POPC   C3A65609  32.230  44.684   7.053
10177POPC   C4A65610  32.295  44.624   7.353
10177POPC   C1B65611  32.051  44.886   6.453
10177POPC   C2B65612  32.130  44.845   6.753
10177POPC   C3B65613  32.140  44.911   7.053
10177POPC   C4B65614  32.126  44.820   7.353
10178POPC   NC365615   1.236  44.617   5.553
10178POPC   PO465616   1.177  44.626   5.853
10178POPC   GL165617   1.200  44.676   6.153
10178POPC   GL265618   1.065  44.703   6.153
10178POPC   C1A65619   1.217  44.633   6.453
10178POPC   D2A65620   1.264  44.695   6.753
10178POPC   C3A65621   1.165  44.648   7.053
10178POPC   C4A65622   1.190  44.659   7.353
10178POPC   C1B65623   1.001  44.738   6.453
10178POPC   C2B65624   1.012  44.785   6.753
10178POPC   C3B65625   0.983  44.815   7.053
10178POPC   C4B65626   0.947  44.744   7.353
10179POPC   NC365627  15.223  42.286   5.553
10179POPC   PO465628  15.133  42.341   5.853
10179POPC   GL165629  15.193  42.292   6.153
10179POPC   GL265630  15.122  42.229   6.153
10179POPC   C1A65631  15.223  42.363   6.453
10179POPC   D2A65632  15.175  42.289   6.753
10179POPC   C3A65633  15.223  42.320   7.053
10179POPC   C4A65634  15.182  42.316   7.353
10179POPC   C1B65635  15.085  42.069   6.453
10179POPC   C2B65636  15.153  42.082   6.753
10179POPC   C3B65637  15.103  42.081   7.053
10179POPC   C4B65638  15.111  42.074   7.353
10180POPC   NC365639  19.013  28.354   5.553
10180POPC   PO465640  19.100  28.370   5.853
10180POPC   GL165641  19.099  28.372   6.153
10180POPC   GL265642  19.083  28.218   6.153
10180POPC   C1A65643  19.104  28.394   6.453
10180POPC   D2A65644  19.087  28.375   6.753
10180POPC   C3A65645  19.023  28.407   7.053
10180POPC   C4A65646  19.013  28.355   7.353
10180POPC   C1B65647  18.999  28.072   6.453
10180POPC   C2B65648  19.081  28.127   6.753
10180POPC   C3B65649  19.043  28.155   7.053
10180POPC   C4B65650  18.991  28.092   7.353
10181POPC   NC365651  15.963  44.706   5.553
10181POPC   PO465652  15.937  44.705   5.853
10181POPC   GL165653  15.951  44.647   6.153
10181POPC   GL265654  15.867  44.625   6.153
10181POPC   C1A65655  16.000  44.621   6.453
10181POPC   D2A65656  15.959  44.633   6.753
10181POPC   C3A65657  15.971  44.702   7.053
10181POPC   C4A65658  16.001  44.708   7.353
10181POPC   C1B65659  15.689  44.656   6.453
10181POPC   C2B65660  15.707  44.597   6.753
10181POPC   C3B65661  15.657  44.664   7.053
10181POPC   C4B65662  15.687  44.643   7.353
10182POPC   NC365663  15.228  44.651   5.553
10182POPC   PO465664  15.216  44.617   5.853
10182POPC   GL165665  15.182  44.696   6.153
10182POPC   GL265666  15.058  44.671   6.153
10182POPC   C1A65667  15.219  44.612   6.453
10182POPC   D2A65668  15.220  44.688   6.753
10182POPC   C3A65669  15.221  44.690   7.053
10182POPC   C4A65670  15.179  44.688   7.353
10182POPC   C1B65671  14.897  44.598   6.453
10182POPC   C2B65672  14.976  44.601   6.753
10182POPC   C3B65673  14.925  44.594   7.053
10182POPC   C4B65674  14.957  44.549   7.353
10183POPC   NC365675  44.629   3.542   5.553
10183POPC   PO465676  44.621   3.562   5.853
10183POPC   GL165677  44.648   3.584   6.153
10183POPC   GL265678  44.492   3.552   6.153
10183POPC   C1A65679  44.692   3.510   6.453
10183POPC   D2A65680  44.686   3.526   6.753
10183POPC   C3A65681  44.700   3.492   7.053
10183POPC   C4A65682  44.694   3.515   7.353
10183POPC   C1B65683  44.375   3.545   6.453
10183POPC   C2B65684  44.422   3.484   6.753
10183POPC   C3B65685  44.423   3.549   7.053
10183POPC   C4B65686  44.433   3.525   7.353
10184POPC   NC365687  24.533  12.887   5.553
10184POPC   PO465688  24.443  12.882   5.853
10184POPC   GL165689  24.478  12.811   6.153
10184POPC   GL265690  24.502  12.929   6.153
10184POPC   C1A65691  24.456  12.864   6.453
10184POPC   D2A65692  24.460  12.829   6.753
10184POPC   C3A65693  24.534  12.863   7.053
10184POPC   C4A65694  24.463  12.896   7.353
10184POPC   C1B65695  24.518  13.084   6.453
10184POPC   C2B65696  24.593  13.053   6.753
10184POPC   C3B65697  24.577  13.065   7.053
10184POPC   C4B65698  24.566  13.118   7.353
10185POPC   NC365699  17.513  15.222   5.553
10185POPC   PO465700  17.510  15.221   5.853
10185POPC   GL165701  17.534  15.159   6.153
10185POPC   GL265702  17.419  15.287   6.153
10185POPC   C1A65703  17.476  15.187   6.453
10185POPC   D2A65704  17.543  15.178   6.753
10185POPC   C3A65705  17.473  15.148   7.053
10185POPC   C4A65706  17.514  15.135   7.353
10185POPC   C1B65707  17.397  15.344   6.453
10185POPC   C2B65708  17.377  15.344   6.753
10185POPC   C3B65709  17.351  15.427   7.053
10185POPC   C4B65710  17.357  15.394   7.353
10186POPC   NC365711   9.779  42.290   5.553
10186POPC   PO465712   9.740  42.295   5.853
10186POPC   GL165713   9.753  42.313   6.153
10186POPC   GL265714   9.656  42.362   6.153
10186POPC   C1A65715   9.754  42.350   6.453
10186POPC   D2A65716   9.789  42.351   6.753
10186POPC   C3A65717   9.740  42.310   7.053
10186POPC   C4A65718   9.763  42.328   7.353
10186POPC   C1B65719   9.467  42.428   6.453
10186POPC   C2B65720   9.518  42.417   6.753
10186POPC   C3B65721   9.484  42.388   7.053
10186POPC   C4B65722   9.476  42.398   7.353
10187POPC   NC365723   1.994  16.709   5.553
10187POPC   PO465724   1.951  16.713   5.853
10187POPC   GL165725   2.007  16.775   6.153
10187POPC   GL265726   2.069  16.883   6.153
10187POPC   C1A65727   2.033  16.749   6.453
10187POPC   D2A65728   1.965  16.738   6.753
10187POPC   C3A65729   1.981  16.772   7.053
10187POPC   C4A65730   1.972  16.727   7.353
10187POPC   C1B65731   2.052  16.917   6.453
10187POPC   C2B65732   2.065  16.957   6.753
10187POPC   C3B65733   2.052  16.928   7.053
10187POPC   C4B65734   2.067  16.955   7.353
10188POPC   NC365735  44.626  13.648   5.553
10188POPC   PO465736  44.620  13.659   5.853
10188POPC   GL165737  44.681  13.616   6.153
10188POPC   GL265738  44.795  13.704   6.153
10188POPC   C1A65739  44.702  13.615   6.453
10188POPC   D2A65740  44.679  13.609   6.753
10188POPC   C3A65741  44.688  13.593   7.053
10188POPC   C4A65742  44.641  13.666   7.353
10188POPC   C1B65743  44.880  13.734   6.453
10188POPC   C2B65744  44.868  13.751   6.753
10188POPC   C3B65745  44.887  13.787   7.053
10188POPC   C4B65746  44.917  13.752   7.353
10189POPC   NC365747  30.691  19.876   5.553
10189POPC   PO465748  30.678  19.839   5.853
10189POPC   GL165749  30.706  19.865   6.153
10189POPC   GL265750  30.631  19.714   6.153
10189POPC   C1A65751  30.705  19.836   6.453
10189POPC   D2A65752  30.685  19.859   6.753
10189POPC   C3A65753  30.708  19.815   7.053
10189POPC   C4A65754  30.736  19.796   7.353
10189POPC   C1B65755  30.551  19.644   6.453
10189POPC   C2B65756  30.553  19.585   6.753
10189POPC   C3B65757  30.529  19.610   7.053
10189POPC   C4B65758  30.594  19.656   7.353
10190POPC   NC365759  17.504   4.346   5.553
10190POPC   PO465760  17.520   4.320   5.853
10190POPC   GL165761  17.510   4.324   6.153
10190POPC   GL265762  17.565   4.410   6.153
10190POPC   C1A65763  17.544   4.315   6.453
10190POPC   D2A65764  17.553   4.287   6.753
10190POPC   C3A65765  17.488   4.304   7.053
10190POPC   C4A65766  17.549   4.283   7.353
10190POPC   C1B65767  17.524   4.538   6.453
10190POPC   C2B65768  17.516   4.601   6.753
10190POPC   C3B65769  17.508   4.603   7.053
10190POPC   C4B65770  17.587   4.612   7.353
10191POPC   NC365771   8.994  25.278   5.553
10191POPC   PO465772   8.963  25.309   5.853
10191POPC   GL165773   8.986  25.261   6.153
10191POPC   GL265774   9.029  25.139   6.153
10191POPC   C1A65775   8.992  25.245   6.453
10191POPC   D2A65776   9.009  25.260   6.753
10191POPC   C3A65777   8.972  25.238   7.053
10191POPC   C4A65778   9.019  25.243   7.353
10191POPC   C1B65779   9.127  25.101   6.453
10191POPC   C2B65780   9.166  25.065   6.753
10191POPC   C3B65781   9.113  25.087   7.053
10191POPC   C4B65782   9.100  25.027   7.353
10192POPC   NC365783  14.403   9.004   5.553
10192POPC   PO465784  14.382   8.953   5.853
10192POPC   GL165785  14.440   8.923   6.153
10192POPC   GL265786  14.549   8.930   6.153
10192POPC   C1A65787  14.411   8.985   6.453
10192POPC   D2A65788  14.433   9.014   6.753
10192POPC   C3A65789  14.430   8.969   7.053
10192POPC   C4A65790  14.425   8.972   7.353
10192POPC   C1B65791  14.596   8.853   6.453
10192POPC   C2B65792  14.609   8.827   6.753
10192POPC   C3B65793  14.662   8.869   7.053
10192POPC   C4B65794  14.596   8.899   7.353
10193POPC   NC365795  35.338   5.075   5.553
10193POPC   PO465796  35.378   5.109   5.853
10193POPC   GL165797  35.371   5.048   6.153
10193POPC   GL265798  35.375   5.191   6.153
10193POPC   C1A65799  35.324   5.088   6.453
10193POPC   D2A65800  35.332   5.126   6.753
10193POPC   C3A65801  35.397   5.045   7.053
10193POPC   C4A65802  35.312   5.069   7.353
10193POPC   C1B65803  35.355   5.337   6.453
10193POPC   C2B65804  35.380   5.344   6.753
10193POPC   C3B65805  35.356   5.318   7.053
10193POPC   C4B65806  35.348   5.374   7.353
10194POPC   NC365807   7.434  29.162   5.553
10194POPC   PO465808   7.419  29.163   5.853
10194POPC   GL165809   7.430  29.171   6.153
10194POPC   GL265810   7.274  29.102   6.153
10194POPC   C1A65811   7.373  29.191   6.453
10194POPC   D2A65812   7.432  29.146   6.753
10194POPC   C3A65813   7.371  29.151   7.053
10194POPC   C4A65814   7.444  29.154   7.353
10194POPC   C1B65815   7.177  29.100   6.453
10194POPC   C2B65816   7.149  29.178   6.753
10194POPC   C3B65817   7.157  29.099   7.053
10194POPC   C4B65818   7.132  29.126   7.353
10195POPC   NC365819  35.372  28.397   5.553
10195POPC   PO465820  35.328  28.337   5.853
10195POPC   GL165821  35.315  28.414   6.153
10195POPC   GL265822  35.343  28.214   6.153
10195POPC   C1A65823  35.382  28.343   6.453
10195POPC   D2A65824  35.338  28.385   6.753
10195POPC   C3A65825  35.374  28.411   7.053
10195POPC   C4A65826  35.326  28.404   7.353
10195POPC   C1B65827  35.258  28.098   6.453
10195POPC   C2B65828  35.234  28.150   6.753
10195POPC   C3B65829  35.281  28.131   7.053
10195POPC   C4B65830  35.283  28.118   7.353
10196POPC   NC365831  12.110  14.355   5.553
10196POPC   PO465832  12.063  14.422   5.853
10196POPC   GL165833  12.053  14.408   6.153
10196POPC   GL265834  12.055  14.291   6.153
10196POPC   C1A65835  12.111  14.401   6.453
10196POPC   D2A65836  12.104  14.379   6.753
10196POPC   C3A65837  12.060  14.445   7.053
10196POPC   C4A65838  12.051  14.413   7.353
10196POPC   C1B65839  12.169  14.188   6.453
10196POPC   C2B65840  12.121  14.173   6.753
10196POPC   C3B65841  12.138  14.156   7.053
10196POPC   C4B65842  12.086  14.168   7.353
10197POPC   NC365843  31.432  39.183   5.553
10197POPC   PO465844  31.501  39.263   5.853
10197POPC   GL165845  31.467  39.201   6.153
10197POPC   GL265846  31.441  39.124   6.153
10197POPC   C1A65847  31.495  39.216   6.453
10197POPC   D2A65848  31.435  39.231   6.753
10197POPC   C3A65849  31.472  39.201   7.053
10197POPC   C4A65850  31.445  39.237   7.353
10197POPC   C1B65851  31.503  38.995   6.453
10197POPC   C2B65852  31.498  39.025   6.753
10197POPC   C3B65853  31.451  38.978   7.053
10197POPC   C4B65854  31.549  38.992   7.353
10198POPC   NC365855  12.843  11.304   5.553
10198POPC   PO465856  12.818  11.317   5.853
10198POPC   GL165857  12.836  11.323   6.153
10198POPC   GL265858  12.796  11.372   6.153
10198POPC   C1A65859  12.827  11.265   6.453
10198POPC   D2A65860  12.901  11.279   6.753
10198POPC   C3A65861  12.884  11.264   7.053
10198POPC   C4A65862  12.803  11.326   7.353
10198POPC   C1B65863  12.752  11.486   6.453
10198POPC   C2B65864  12.762  11.486   6.753
10198POPC   C3B65865  12.709  11.543   7.053
10198POPC   C4B65866  12.695  11.540   7.353
10199POPC   NC365867  29.153  33.831   5.553
10199POPC   PO465868  29.140  33.775   5.853
10199POPC   GL165869  29.134  33.830   6.153
10199POPC   GL265870  29.019  33.758   6.153
10199POPC   C1A65871  29.145  33.833   6.453
10199POPC   D2A65872  29.121  33.820   6.753
10199POPC   C3A65873  29.179  33.792   7.053
10199POPC   C4A65874  29.101  33.751   7.353
10199POPC   C1B65875  28.871  33.705   6.453
10199POPC   C2B65876  28.879  33.727   6.753
10199POPC   C3B65877  28.944  33.705   7.053
10199POPC   C4B65878  28.876  33.684   7.353
10200POPC   NC365879  18.310   3.531   5.553
10200POPC   PO465880  18.261   3.521   5.853
10200POPC   GL165881  18.256   3.502   6.153
10200POPC   GL265882  18.381   3.483   6.153
10200POPC   C1A65883  18.312   3.535   6.453
10200POPC   D2A65884  18.280   3.548   6.753
10200POPC   C3A65885  18.245   3.545   7.053
10200POPC   C4A65886  18.332   3.533   7.353
10200POPC   C1B65887  18.420   3.318   6.453
10200POPC   C2B65888  18.427   3.373   6.753
10200POPC   C3B65889  18.414   3.323   7.053
10200POPC   C4B65890  18.449   3.353   7.353
10201POPC   NC365891  44.700  27.603   5.553
10201POPC   PO465892  44.696  27.575   5.853
10201POPC   GL165893  44.673  27.597   6.153
10201POPC   GL265894  44.629  27.492   6.153
10201POPC   C1A65895  44.694  27.566   6.453
10201POPC   D2A65896  44.700  27.573   6.753
10201POPC   C3A65897  44.644  27.637   7.053
10201POPC   C4A65898  44.619  27.583   7.353
10201POPC   C1B65899  44.582  27.339   6.453
10201POPC   C2B65900  44.533  27.337   6.753
10201POPC   C3B65901  44.552  27.368   7.053
10201POPC   C4B65902  44.539  27.385   7.353
10202POPC   NC365903  19.059  35.385   5.553
10202POPC   PO465904  19.020  35.317   5.853
10202POPC   GL165905  19.099  35.318   6.153
10202POPC   GL265906  19.169  35.419   6.153
10202POPC   C1A65907  19.010  35.399   6.453
10202POPC   D2A65908  19.009  35.325   6.753
10202POPC   C3A65909  19.082  35.322   7.053
10202POPC   C4A65910  19.103  35.375   7.353
10202POPC   C1B65911  19.271  35.397   6.453
10202POPC   C2B65912  19.314  35.370   6.753
10202POPC   C3B65913  19.350  35.407   7.053
10202POPC   C4B65914  19.345  35.420   7.353
10203POPC   NC365915  40.040  17.519   5.553
10203POPC   PO465916  39.994  17.508   5.853
10203POPC   GL165917  39.965  17.493   6.153
10203POPC   GL265918  39.960  17.660   6.153
10203POPC   C1A65919  40.025  17.482   6.453
10203POPC   D2A65920  40.003  17.530   6.753
10203POPC   C3A65921  39.966  17.499   7.053
10203POPC   C4A65922  39.999  17.534   7.353
10203POPC   C1B65923  39.925  17.793   6.453
10203POPC   C2B65924  39.967  17.708   6.753
10203POPC   C3B65925  39.942  17.726   7.053
10203POPC   C4B65926  40.022  17.744   7.353
10204POPC   NC365927  33.761  19.873   5.553
10204POPC   PO465928  33.821  19.875   5.853
10204POPC   GL165929  33.845  19.836   6.153
10204POPC   GL265930  33.860  19.732   6.153
10204POPC   C1A65931  33.771  19.811   6.453
10204POPC   D2A65932  33.795  19.816   6.753
10204POPC   C3A65933  33.844  19.830   7.053
10204POPC   C4A65934  33.849  19.838   7.353
10204POPC   C1B65935  33.932  19.678   6.453
10204POPC   C2B65936  34.001  19.602   6.753
10204POPC   C3B65937  33.917  19.653   7.053
10204POPC   C4B65938  33.918  19.608   7.353
10205POPC   NC365939   8.221  33.817   5.553
10205POPC   PO465940   8.204  33.782   5.853
10205POPC   GL165941   8.172  33.820   6.153
10205POPC   GL265942   8.165  33.907   6.153
10205POPC   C1A65943   8.212  33.806   6.453
10205POPC   D2A65944   8.151  33.841   6.753
10205POPC   C3A65945   8.161  33.814   7.053
10205POPC   C4A65946   8.221  33.795   7.353
10205POPC   C1B65947   8.223  34.056   6.453
10205POPC   C2B65948   8.231  34.021   6.753
10205POPC   C3B65949   8.259  34.064   7.053
10205POPC   C4B65950   8.244  34.085   7.353
10206POPC   NC365951  22.965  43.065   5.553
10206POPC   PO465952  22.978  43.093   5.853
10206POPC   GL165953  22.906  43.132   6.153
10206POPC   GL265954  22.822  43.141   6.153
10206POPC   C1A65955  22.927  43.084   6.453
10206POPC   D2A65956  22.894  43.114   6.753
10206POPC   C3A65957  22.956  43.085   7.053
10206POPC   C4A65958  22.981  43.122   7.353
10206POPC   C1B65959  22.679  43.206   6.453
10206POPC   C2B65960  22.721  43.140   6.753
10206POPC   C3B65961  22.728  43.179   7.053
10206POPC   C4B65962  22.685  43.114   7.353
10207POPC   NC365963   9.743   9.712   5.553
10207POPC   PO465964   9.782   9.791   5.853
10207POPC   GL165965   9.775   9.768   6.153
10207POPC   GL265966   9.755   9.821   6.153
10207POPC   C1A65967   9.777   9.719   6.453
10207POPC   D2A65968   9.792   9.769   6.753
10207POPC   C3A65969   9.729   9.772   7.053
10207POPC   C4A65970   9.713   9.787   7.353
10207POPC   C1B65971   9.781   9.997   6.453
10207POPC   C2B65972   9.804  10.033   6.753
10207POPC   C3B65973   9.785  10.021   7.053
10207POPC   C4B65974   9.790   9.975   7.353
10208POPC   NC365975  15.991  39.961   5.553
10208POPC   PO465976  15.984  40.034   5.853
10208POPC   GL165977  15.946  40.026   6.153
10208POPC   GL265978  16.075  40.013   6.153
10208POPC   C1A65979  15.950  39.968   6.453
10208POPC   D2A65980  15.911  40.043   6.753
10208POPC   C3A65981  15.960  40.054   7.053
10208POPC   C4A65982  15.925  40.050   7.353
10208POPC   C1B65983  16.155  40.103   6.453
10208POPC   C2B65984  16.212  40.082   6.753
10208POPC   C3B65985  16.217  40.131   7.053
10208POPC   C4B65986  16.167  40.080   7.353
10209POPC   NC365987  40.035  39.248   5.553
10209POPC   PO465988  40.038  39.213   5.853
10209POPC   GL165989  40.008  39.271   6.153
10209POPC   GL265990  40.098  39.102   6.153
10209POPC   C1A65991  40.026  39.245   6.453
10209POPC   D2A65992  39.993  39.183   6.753
10209POPC   C3A65993  39.959  39.188   7.053
10209POPC   C4A65994  40.025  39.237   7.353
10209POPC   C1B65995  40.140  39.090   6.453
10209POPC   C2B65996  40.226  39.068   6.753
10209POPC   C3B65997  40.227  39.063   7.053
10209POPC   C4B65998  40.219  39.020   7.353
10210POPC   NC365999  26.790  16.738   5.553
10210POPC   PO466000  26.839  16.767   5.853
10210POPC   GL166001  26.827  16.701   6.153
10210POPC   GL266002  26.896  16.610   6.153
10210POPC   C1A66003  26.837  16.704   6.453
10210POPC   D2A66004  26.824  16.743   6.753
10210POPC   C3A66005  26.835  16.770   7.053
10210POPC   C4A66006  26.807  16.737   7.353
10210POPC   C1B66007  26.846  16.537   6.453
10210POPC   C2B66008  26.907  16.510   6.753
10210POPC   C3B66009  26.865  16.508   7.053
10210POPC   C4B66010  26.839  16.446   7.353
10211POPC   NC366011  28.388  33.752   5.553
10211POPC   PO466012  28.321  33.849   5.853
10211POPC   GL166013  28.327  33.811   6.153
10211POPC   GL266014  28.335  33.705   6.153
10211POPC   C1A66015  28.340  33.779   6.453
10211POPC   D2A66016  28.389  33.772   6.753
10211POPC   C3A66017  28.324  33.846   7.053
10211POPC   C4A66018  28.418  33.750   7.353
10211POPC   C1B66019  28.253  33.579   6.453
10211POPC   C2B66020  28.245  33.578   6.753
10211POPC   C3B66021  28.253  33.621   7.053
10211POPC   C4B66022  28.251  33.587   7.353
10212POPC   NC366023  26.799  43.063   5.553
10212POPC   PO466024  26.825  43.137   5.853
10212POPC   GL166025  26.820  43.118   6.153
10212POPC   GL266026  26.802  43.265   6.153
10212POPC   C1A66027  26.865  43.096   6.453
10212POPC   D2A66028  26.810  43.136   6.753
10212POPC   C3A66029  26.781  43.080   7.053
10212POPC   C4A66030  26.774  43.118   7.353
10212POPC   C1B66031  26.862  43.314   6.453
10212POPC   C2B66032  26.880  43.367   6.753
10212POPC   C3B66033  26.849  43.364   7.053
10212POPC   C4B66034  26.832  43.401   7.353
10213POPC   NC366035  39.251  39.992   5.553
10213POPC   PO466036  39.230  40.020   5.853
10213POPC   GL166037  39.212  40.008   6.153
10213POPC   GL266038  39.258  39.860   6.153
10213POPC   C1A66039  39.192  39.990   6.453
10213POPC   D2A66040  39.212  40.040   6.753
10213POPC   C3A66041  39.268  39.999   7.053
10213POPC   C4A66042  39.187  39.969   7.353
10213POPC   C1B66043  39.374  39.787   6.453
10213POPC   C2B66044  39.368  39.753   6.753
10213POPC   C3B66045  39.389  39.777   7.053
10213POPC   C4B66046  39.370  39.771   7.353
10214POPC   NC366047  19.021  29.102   5.553
10214POPC   PO466048  19.046  29.105   5.853
10214POPC   GL166049  19.050  29.191   6.153
10214POPC   GL266050  19.035  29.019   6.153
10214POPC   C1A66051  19.107  29.133   6.453
10214POPC   D2A66052  19.096  29.154   6.753
10214POPC   C3A66053  19.106  29.110   7.053
10214POPC   C4A66054  19.062  29.126   7.353
10214POPC   C1B66055  19.022  28.923   6.453
10214POPC   C2B66056  19.013  28.948   6.753
10214POPC   C3B66057  19.006  28.943   7.053
10214POPC   C4B66058  18.929  28.868   7.353
10215POPC   NC366059   8.155  38.438   5.553
10215POPC   PO466060   8.203  38.494   5.853
10215POPC   GL166061   8.212  38.441   6.153
10215POPC   GL266062   8.307  38.575   6.153
10215POPC   C1A66063   8.214  38.458   6.453
10215POPC   D2A66064   8.197  38.452   6.753
10215POPC   C3A66065   8.197  38.502   7.053
10215POPC   C4A66066   8.183  38.430   7.353
10215POPC   C1B66067   8.414  38.666   6.453
10215POPC   C2B66068   8.417  38.678   6.753
10215POPC   C3B66069   8.356  38.670   7.053
10215POPC   C4B66070   8.416  38.651   7.353
10216POPC   NC366071  35.375  43.883   5.553
10216POPC   PO466072  35.331  43.858   5.853
10216POPC   GL166073  35.365  43.846   6.153
10216POPC   GL266074  35.445  43.804   6.153
10216POPC   C1A66075  35.306  43.855   6.453
10216POPC   D2A66076  35.357  43.870   6.753
10216POPC   C3A66077  35.321  43.888   7.053
10216POPC   C4A66078  35.394  43.844   7.353
10216POPC   C1B66079  35.536  43.717   6.453
10216POPC   C2B66080  35.570  43.688   6.753
10216POPC   C3B66081  35.549  43.759   7.053
10216POPC   C4B66082  35.503  43.689   7.353
10217POPC   NC366083   2.773  43.851   5.553
10217POPC   PO466084   2.777  43.872   5.853
10217POPC   GL166085   2.723  43.924   6.153
10217POPC   GL266086   2.903  43.852   6.153
10217POPC   C1A66087   2.746  43.907   6.453
10217POPC   D2A66088   2.766  43.913   6.753
10217POPC   C3A66089   2.808  43.879   7.053
10217POPC   C4A66090   2.788  43.849   7.353
10217POPC   C1B66091   3.046  43.872   6.453
10217POPC   C2B66092   3.033  43.795   6.753
10217POPC   C3B66093   3.002  43.796   7.053
10217POPC   C4B66094   2.975  43.887   7.353
10218POPC   NC366095   5.871  18.250   5.553
10218POPC   PO466096   5.825  18.320   5.853
10218POPC   GL166097   5.839  18.307   6.153
10218POPC   GL266098   5.696  18.306   6.153
10218POPC   C1A66099   5.830  18.251   6.453
10218POPC   D2A66100   5.882  18.286   6.753
10218POPC   C3A66101   5.873  18.269   7.053
10218POPC   C4A66102   5.896  18.285   7.353
10218POPC   C1B66103   5.653  18.269   6.453
10218POPC   C2B66104   5.601  18.319   6.753
10218POPC   C3B66105   5.642  18.355   7.053
10218POPC   C4B66106   5.636  18.299   7.353
10219POPC   NC366107  38.447  22.953   5.553
10219POPC   PO466108  38.505  22.963   5.853
10219POPC   GL166109  38.479  22.953   6.153
10219POPC   GL266110  38.512  22.829   6.153
10219POPC   C1A66111  38.481  22.931   6.453
10219POPC   D2A66112  38.451  22.921   6.753
10219POPC   C3A66113  38.411  22.898   7.053
10219POPC   C4A66114  38.472  22.975   7.353
10219POPC   C1B66115  38.491  22.729   6.453
10219POPC   C2B66116  38.450  22.688   6.753
10219POPC   C3B66117  38.473  22.643   7.053
10219POPC   C4B66118  38.518  22.675   7.353
10220POPC   NC366119  20.609   5.916   5.553
10220POPC   PO466120  20.581   5.877   5.853
10220POPC   GL166121  20.604   5.843   6.153
10220POPC   GL266122  20.755   5.929   6.153
10220POPC   C1A66123  20.635   5.889   6.453
10220POPC   D2A66124  20.575   5.844   6.753
10220POPC   C3A66125  20.562   5.858   7.053
10220POPC   C4A66126  20.610   5.906   7.353
10220POPC   C1B66127  20.882   5.959   6.453
10220POPC   C2B66128  20.882   5.892   6.753
10220POPC   C3B66129  20.825   5.971   7.053
10220POPC   C4B66130  20.819   5.954   7.353
10221POPC   NC366131  10.537   7.458   5.553
10221POPC   PO466132  10.489   7.403   5.853
10221POPC   GL166133  10.513   7.417   6.153
10221POPC   GL266134  10.606   7.562   6.153
10221POPC   C1A66135  10.552   7.429   6.453
10221POPC   D2A66136  10.486   7.375   6.753
10221POPC   C3A66137  10.500   7.411   7.053
10221POPC   C4A66138  10.486   7.430   7.353
10221POPC   C1B66139  10.567   7.650   6.453
10221POPC   C2B66140  10.636   7.694   6.753
10221POPC   C3B66141  10.629   7.647   7.053
10221POPC   C4B66142  10.584   7.628   7.353
10222POPC   NC366143  12.816  37.697   5.553
10222POPC   PO466144  12.844  37.666   5.853
10222POPC   GL166145  12.860  37.709   6.153
10222POPC   GL266146  12.746  37.744   6.153
10222POPC   C1A66147  12.859  37.715   6.453
10222POPC   D2A66148  12.845  37.699   6.753
10222POPC   C3A66149  12.874  37.716   7.053
10222POPC   C4A66150  12.848  37.684   7.353
10222POPC   C1B66151  12.682  37.923   6.453
10222POPC   C2B66152  12.720  37.853   6.753
10222POPC   C3B66153  12.713  37.860   7.053
10222POPC   C4B66154  12.751  37.909   7.353
10223POPC   NC366155  40.040   0.448   5.553
10223POPC   PO466156  40.018   0.476   5.853
10223POPC   GL166157  40.055   0.427   6.153
10223POPC   GL266158  39.876   0.530   6.153
10223POPC   C1A66159  39.978   0.485   6.453
10223POPC   D2A66160  40.027   0.456   6.753
10223POPC   C3A66161  39.972   0.394   7.053
10223POPC   C4A66162  40.025   0.437   7.353
10223POPC   C1B66163  39.748   0.515   6.453
10223POPC   C2B66164  39.798   0.528   6.753
10223POPC   C3B66165  39.789   0.568   7.053
10223POPC   C4B66166  39.754   0.525   7.353
10224POPC   NC366167  16.776  26.829   5.553
10224POPC   PO466168  16.744  26.810   5.853
10224POPC   GL166169  16.777  26.812   6.153
10224POPC   GL266170  16.740  26.688   6.153
10224POPC   C1A66171  16.749  26.829   6.453
10224POPC   D2A66172  16.717  26.799   6.753
10224POPC   C3A66173  16.721  26.775   7.053
10224POPC   C4A66174  16.742  26.802   7.353
10224POPC   C1B66175  16.788  26.602   6.453
10224POPC   C2B66176  16.829  26.612   6.753
10224POPC   C3B66177  16.799  26.619   7.053
10224POPC   C4B66178  16.765  26.593   7.353
10225POPC   NC366179  22.173  10.529   5.553
10225POPC   PO466180  22.125  10.496   5.853
10225POPC   GL166181  22.156  10.549   6.153
10225POPC   GL266182  22.223  10.408   6.153
10225POPC   C1A66183  22.156  10.550   6.453
10225POPC   D2A66184  22.161  10.518   6.753
10225POPC   C3A66185  22.147  10.497   7.053
10225POPC   C4A66186  22.178  10.486   7.353
10225POPC   C1B66187  22.318  10.342   6.453
10225POPC   C2B66188  22.243  10.294   6.753
10225POPC   C3B66189  22.278  10.358   7.053
10225POPC   C4B66190  22.317  10.269   7.353
10226POPC   NC366191  32.266  34.597   5.553
10226POPC   PO466192  32.291  34.572   5.853
10226POPC   GL166193  32.210  34.529   6.153
10226POPC   GL266194  32.353  34.682   6.153
10226POPC   C1A66195  32.297  34.582   6.453
10226POPC   D2A66196  32.274  34.544   6.753
10226POPC   C3A66197  32.237  34.591   7.053
10226POPC   C4A66198  32.213  34.600   7.353
10226POPC   C1B66199  32.472  34.744   6.453
10226POPC   C2B66200  32.459  34.733   6.753
10226POPC   C3B66201  32.476  34.704   7.053
10226POPC   C4B66202  32.464  34.729   7.353
10227POPC   NC366203  44.683  17.518   5.553
10227POPC   PO466204  44.649  17.509   5.853
10227POPC   GL166205  44.634  17.475   6.153
10227POPC   GL266206  44.690  17.400   6.153
10227POPC   C1A66207  44.643  17.505   6.453
10227POPC   D2A66208  44.702  17.525   6.753
10227POPC   C3A66209  44.631  17.516   7.053
10227POPC   C4A66210  44.689  17.499   7.353
10227POPC   C1B66211  44.764  17.316   6.453
10227POPC   C2B66212  44.745  17.279   6.753
10227POPC   C3B66213  44.737  17.250   7.053
10227POPC   C4B66214  44.728  17.323   7.353
10228POPC   NC366215  14.416  22.200   5.553
10228POPC   PO466216  14.383  22.195   5.853
10228POPC   GL166217  14.421  22.139   6.153
10228POPC   GL266218  14.362  22.052   6.153
10228POPC   C1A66219  14.365  22.119   6.453
10228POPC   D2A66220  14.442  22.181   6.753
10228POPC   C3A66221  14.408  22.189   7.053
10228POPC   C4A66222  14.380  22.150   7.353
10228POPC   C1B66223  14.398  21.899   6.453
10228POPC   C2B66224  14.383  21.875   6.753
10228POPC   C3B66225  14.332  21.915   7.053
10228POPC   C4B66226  14.346  21.867   7.353
10229POPC   NC366227   5.864  39.252   5.553
10229POPC   PO466228   5.863  39.277   5.853
10229POPC   GL166229   5.847  39.259   6.153
10229POPC   GL266230   5.980  39.353   6.153
10229POPC   C1A66231   5.861  39.241   6.453
10229POPC   D2A66232   5.828  39.280   6.753
10229POPC   C3A66233   5.871  39.212   7.053
10229POPC   C4A66234   5.899  39.223   7.353
10229POPC   C1B66235   5.990  39.482   6.453
10229POPC   C2B66236   6.000  39.487   6.753
10229POPC   C3B66237   6.024  39.441   7.053
10229POPC   C4B66238   6.004  39.455   7.353
10230POPC   NC366239  15.923  34.619   5.553
10230POPC   PO466240  15.914  34.536   5.853
10230POPC   GL166241  15.944  34.566   6.153
10230POPC   GL266242  15.888  34.643   6.153
10230POPC   C1A66243  15.919  34.553   6.453
10230POPC   D2A66244  15.955  34.614   6.753
10230POPC   C3A66245  15.906  34.607   7.053
10230POPC   C4A66246  15.911  34.609   7.353
10230POPC   C1B66247  15.741  34.702   6.453
10230POPC   C2B66248  15.759  34.762   6.753
10230POPC   C3B66249  15.798  34.695   7.053
10230POPC   C4B66250  15.726  34.685   7.353
10231POPC   NC366251   2.734  19.810   5.553
10231POPC   PO466252   2.794  19.855   5.853
10231POPC   GL166253   2.790  19.842   6.153
10231POPC   GL266254   2.861  19.812   6.153
10231POPC   C1A66255   2.717  19.826   6.453
10231POPC   D2A66256   2.733  19.819   6.753
10231POPC   C3A66257   2.740  19.860   7.053
10231POPC   C4A66258   2.801  19.861   7.353
10231POPC   C1B66259   2.975  19.720   6.453
10231POPC   C2B66260   2.991  19.720   6.753
10231POPC   C3B66261   3.023  19.762   7.053
10231POPC   C4B66262   3.018  19.740   7.353
10232POPC   NC366263  18.255  29.136   5.553
10232POPC   PO466264  18.332  29.121   5.853
10232POPC   GL166265  18.255  29.138   6.153
10232POPC   GL266266  18.407  29.143   6.153
10232POPC   C1A66267  18.277  29.148   6.453
10232POPC   D2A66268  18.329  29.145   6.753
10232POPC   C3A66269  18.274  29.103   7.053
10232POPC   C4A66270  18.304  29.101   7.353
10232POPC   C1B66271  18.570  29.122   6.453
10232POPC   C2B66272  18.557  29.138   6.753
10232POPC   C3B66273  18.515  29.113   7.053
10232POPC   C4B66274  18.579  29.119   7.353
10233POPC   NC366275   9.766  15.152   5.553
10233POPC   PO466276   9.759  15.165   5.853
10233POPC   GL166277   9.720  15.219   6.153
10233POPC   GL266278   9.630  15.138   6.153
10233POPC   C1A66279   9.767  15.226   6.453
10233POPC   D2A66280   9.794  15.137   6.753
10233POPC   C3A66281   9.713  15.194   7.053
10233POPC   C4A66282   9.746  15.144   7.353
10233POPC   C1B66283   9.547  15.068   6.453
10233POPC   C2B66284   9.468  15.065   6.753
10233POPC   C3B66285   9.501  15.099   7.053
10233POPC   C4B66286   9.540  15.098   7.353
10234POPC   NC366287  29.143   1.955   5.553
10234POPC   PO466288  29.177   1.995   5.853
10234POPC   GL166289  29.106   2.036   6.153
10234POPC   GL266290  29.103   2.086   6.153
10234POPC   C1A66291  29.103   1.969   6.453
10234POPC   D2A66292  29.118   2.030   6.753
10234POPC   C3A66293  29.161   2.017   7.053
10234POPC   C4A66294  29.132   1.952   7.353
10234POPC   C1B66295  29.021   2.249   6.453
10234POPC   C2B66296  29.031   2.219   6.753
10234POPC   C3B66297  29.045   2.250   7.053
10234POPC   C4B66298  29.033   2.234   7.353
10235POPC   NC366299  19.807  11.284   5.553
10235POPC   PO466300  19.865  11.316   5.853
10235POPC   GL166301  19.809  11.341   6.153
10235POPC   GL266302  19.686  11.281   6.153
10235POPC   C1A66303  19.785  11.272   6.453
10235POPC   D2A66304  19.794  11.344   6.753
10235POPC   C3A66305  19.854  11.276   7.053
10235POPC   C4A66306  19.793  11.331   7.353
10235POPC   C1B66307  19.549  11.339   6.453
10235POPC   C2B66308  19.613  11.294   6.753
10235POPC   C3B66309  19.584  11.302   7.053
10235POPC   C4B66310  19.595  11.259   7.353
10236POPC   NC366311  23.724  14.452   5.553
10236POPC   PO466312  23.681  14.446   5.853
10236POPC   GL166313  23.720  14.380   6.153
10236POPC   GL266314  23.706  14.293   6.153
10236POPC   C1A66315  23.744  14.437   6.453
10236POPC   D2A66316  23.703  14.412   6.753
10236POPC   C3A66317  23.706  14.359   7.053
10236POPC   C4A66318  23.671  14.422   7.353
10236POPC   C1B66319  23.685  14.153   6.453
10236POPC   C2B66320  23.739  14.158   6.753
10236POPC   C3B66321  23.704  14.145   7.053
10236POPC   C4B66322  23.754  14.160   7.353
10237POPC   NC366323  20.654  30.688   5.553
10237POPC   PO466324  20.619  30.651   5.853
10237POPC   GL166325  20.630  30.668   6.153
10237POPC   GL266326  20.493  30.685   6.153
10237POPC   C1A66327  20.580  30.689   6.453
10237POPC   D2A66328  20.617  30.734   6.753
10237POPC   C3A66329  20.569  30.736   7.053
10237POPC   C4A66330  20.632  30.722   7.353
10237POPC   C1B66331  20.412  30.527   6.453
10237POPC   C2B66332  20.436  30.559   6.753
10237POPC   C3B66333  20.342  30.607   7.053
10237POPC   C4B66334  20.430  30.589   7.353
10238POPC   NC366335  28.409  36.108   5.553
10238POPC   PO466336  28.368  36.122   5.853
10238POPC   GL166337  28.354  36.105   6.153
10238POPC   GL266338  28.379  36.213   6.153
10238POPC   C1A66339  28.330  36.161   6.453
10238POPC   D2A66340  28.361  36.138   6.753
10238POPC   C3A66341  28.361  36.160   7.053
10238POPC   C4A66342  28.396  36.100   7.353
10238POPC   C1B66343  28.358  36.390   6.453
10238POPC   C2B66344  28.292  36.395   6.753
10238POPC   C3B66345  28.270  36.421   7.053
10238POPC   C4B66346  28.275  36.381   7.353
10239POPC   NC366347  34.538   4.305   5.553
10239POPC   PO466348  34.534   4.303   5.853
10239POPC   GL166349  34.586   4.354   6.153
10239POPC   GL266350  34.431   4.296   6.153
10239POPC   C1A66351  34.600   4.309   6.453
10239POPC   D2A66352  34.571   4.293   6.753
10239POPC   C3A66353  34.575   4.350   7.053
10239POPC   C4A66354  34.621   4.273   7.353
10239POPC   C1B66355  34.369   4.209   6.453
10239POPC   C2B66356  34.323   4.259   6.753
10239POPC   C3B66357  34.302   4.263   7.053
10239POPC   C4B66358  34.349   4.243   7.353
10240POPC   NC366359   4.351  36.948   5.553
10240POPC   PO466360   4.308  36.894   5.853
10240POPC   GL166361   4.319  36.943   6.153
10240POPC   GL266362   4.346  36.801   6.153
10240POPC   C1A66363   4.274  36.900   6.453
10240POPC   D2A66364   4.347  36.858   6.753
10240POPC   C3A66365   4.303  36.898   7.053
10240POPC   C4A66366   4.331  36.921   7.353
10240POPC   C1B66367   4.424  36.697   6.453
10240POPC   C2B66368   4.372  36.684   6.753
10240POPC   C3B66369   4.396  36.630   7.053
10240POPC   C4B66370   4.423  36.668   7.353
10241POPC   NC366371  12.863   7.426   5.553
10241POPC   PO466372  12.805   7.408   5.853
10241POPC   GL166373  12.804   7.386   6.153
10241POPC   GL266374  12.924   7.296   6.153
10241POPC   C1A66375  12.849   7.428   6.453
10241POPC   D2A66376  12.898   7.384   6.753
10241POPC   C3A66377  12.808   7.451   7.053
10241POPC   C4A66378  12.803   7.403   7.353
10241POPC   C1B66379  12.959   7.136   6.453
10241POPC   C2B66380  12.956   7.168   6.753
10241POPC   C3B66381  12.922   7.229   7.053
10241POPC   C4B66382  12.908   7.185   7.353
10242POPC   NC366383  22.208  26.806   5.553
10242POPC   PO466384  22.176  26.844   5.853
10242POPC   GL166385  22.121  26.808   6.153
10242POPC   GL266386  22.153  26.972   6.153
10242POPC   C1A66387  22.191  26.839   6.453
10242POPC   D2A66388  22.147  26.848   6.753
10242POPC   C3A66389  22.210  26.788   7.053
10242POPC   C4A66390  22.176  26.844   7.353
10242POPC   C1B66391  22.103  27.067   6.453
10242POPC   C2B66392  22.100  27.107   6.753
10242POPC   C3B66393  22.106  27.056   7.053
10242POPC   C4B66394  22.167  27.075   7.353
10243POPC   NC366395  42.375  32.231   5.553
10243POPC   PO466396  42.376  32.289   5.853
10243POPC   GL166397  42.343  32.276   6.153
10243POPC   GL266398  42.352  32.112   6.153
10243POPC   C1A66399  42.364  32.219   6.453
10243POPC   D2A66400  42.325  32.266   6.753
10243POPC   C3A66401  42.342  32.231   7.053
10243POPC   C4A66402  42.351  32.257   7.353
10243POPC   C1B66403  42.468  32.007   6.453
10243POPC   C2B66404  42.432  32.038   6.753
10243POPC   C3B66405  42.492  32.047   7.053
10243POPC   C4B66406  42.469  32.015   7.353
10244POPC   NC366407  39.277  44.619   5.553
10244POPC   PO466408  39.201  44.676   5.853
10244POPC   GL166409  39.262  44.648   6.153
10244POPC   GL266410  39.141  44.522   6.153
10244POPC   C1A66411  39.211  44.617   6.453
10244POPC   D2A66412  39.259  44.696   6.753
10244POPC   C3A66413  39.214  44.633   7.053
10244POPC   C4A66414  39.238  44.636   7.353
10244POPC   C1B66415  39.088  44.484   6.453
10244POPC   C2B66416  39.046  44.466   6.753
10244POPC   C3B66417  39.041  44.443   7.053
10244POPC   C4B66418  39.039  44.438   7.353
10245POPC   NC366419  10.554  13.667   5.553
10245POPC   PO466420  10.531  13.589   5.853
10245POPC   GL166421  10.539  13.659   6.153
10245POPC   GL266422  10.595  13.557   6.153
10245POPC   C1A66423  10.572  13.644   6.453
10245POPC   D2A66424  10.510  13.600   6.753
10245POPC   C3A66425  10.574  13.584   7.053
10245POPC   C4A66426  10.549  13.631   7.353
10245POPC   C1B66427  10.685  13.395   6.453
10245POPC   C2B66428  10.705  13.467   6.753
10245POPC   C3B66429  10.644  13.470   7.053
10245POPC   C4B66430  10.713  13.428   7.353
10246POPC   NC366431   4.324  21.339   5.553
10246POPC   PO466432   4.324  21.399   5.853
10246POPC   GL166433   4.277  21.345   6.153
10246POPC   GL266434   4.446  21.420   6.153
10246POPC   C1A66435   4.291  21.430   6.453
10246POPC   D2A66436   4.321  21.403   6.753
10246POPC   C3A66437   4.363  21.365   7.053
10246POPC   C4A66438   4.285  21.414   7.353
10246POPC   C1B66439   4.579  21.374   6.453
10246POPC   C2B66440   4.527  21.362   6.753
10246POPC   C3B66441   4.576  21.363   7.053
10246POPC   C4B66442   4.575  21.378   7.353
10247POPC   NC366443  19.807  29.101   5.553
10247POPC   PO466444  19.863  29.177   5.853
10247POPC   GL166445  19.867  29.192   6.153
10247POPC   GL266446  19.853  29.046   6.153
10247POPC   C1A66447  19.786  29.108   6.453
10247POPC   D2A66448  19.822  29.176   6.753
10247POPC   C3A66449  19.802  29.115   7.053
10247POPC   C4A66450  19.803  29.185   7.353
10247POPC   C1B66451  19.878  28.904   6.453
10247POPC   C2B66452  19.809  28.861   6.753
10247POPC   C3B66453  19.807  28.912   7.053
10247POPC   C4B66454  19.804  28.865   7.353
10248POPC   NC366455  44.650   0.488   5.553
10248POPC   PO466456  44.619   0.487   5.853
10248POPC   GL166457  44.661   0.398   6.153
10248POPC   GL266458  44.614   0.372   6.153
10248POPC   C1A66459  44.625   0.425   6.453
10248POPC   D2A66460  44.681   0.425   6.753
10248POPC   C3A66461  44.632   0.394   7.053
10248POPC   C4A66462  44.671   0.467   7.353
10248POPC   C1B66463  44.537   0.210   6.453
10248POPC   C2B66464  44.547   0.185   6.753
10248POPC   C3B66465  44.529   0.174   7.053
10248POPC   C4B66466  44.584   0.205   7.353
10249POPC   NC366467  41.534  41.568   5.553
10249POPC   PO466468  41.559  41.586   5.853
10249POPC   GL166469  41.540  41.536   6.153
10249POPC   GL266470  41.544  41.435   6.153
10249POPC   C1A66471  41.545  41.596   6.453
10249POPC   D2A66472  41.579  41.594   6.753
10249POPC   C3A66473  41.584  41.543   7.053
10249POPC   C4A66474  41.598  41.533   7.353
10249POPC   C1B66475  41.418  41.359   6.453
10249POPC   C2B66476  41.437  41.322   6.753
10249POPC   C3B66477  41.463  41.391   7.053
10249POPC   C4B66478  41.418  41.390   7.353
10250POPC   NC366479  25.294  40.815   5.553
10250POPC   PO466480  25.261  40.740   5.853
10250POPC   GL166481  25.309  40.810   6.153
10250POPC   GL266482  25.402  40.789   6.153
10250POPC   C1A66483  25.225  40.755   6.453
10250POPC   D2A66484  25.283  40.751   6.753
10250POPC   C3A66485  25.260  40.814   7.053
10250POPC   C4A66486  25.306  40.783   7.353
10250POPC   C1B66487  25.529  40.765   6.453
10250POPC   C2B66488  25.512  40.769   6.753
10250POPC   C3B66489  25.517  40.809   7.053
10250POPC   C4B66490  25.469  40.787   7.353
10251POPC   NC366491  22.897  19.093   5.553
10251POPC   PO466492  22.901  19.105   5.853
10251POPC   GL166493  22.923  19.104   6.153
10251POPC   GL266494  22.773  19.064   6.153
10251POPC   C1A66495  22.971  19.042   6.453
10251POPC   D2A66496  22.905  19.086   6.753
10251POPC   C3A66497  22.921  19.040   7.053
10251POPC   C4A66498  22.969  19.069   7.353
10251POPC   C1B66499  22.690  19.010   6.453
10251POPC   C2B66500  22.722  18.947   6.753
10251POPC   C3B66501  22.650  18.958   7.053
10251POPC   C4B66502  22.659  18.964   7.353
10252POPC   NC366503  24.520  42.306   5.553
10252POPC   PO466504  24.449  42.368   5.853
10252POPC   GL166505  24.456  42.350   6.153
10252POPC   GL266506  24.492  42.441   6.153
10252POPC   C1A66507  24.513  42.321   6.453
10252POPC   D2A66508  24.515  42.377   6.753
10252POPC   C3A66509  24.487  42.363   7.053
10252POPC   C4A66510  24.515  42.300   7.353
10252POPC   C1B66511  24.523  42.546   6.453
10252POPC   C2B66512  24.585  42.532   6.753
10252POPC   C3B66513  24.582  42.559   7.053
10252POPC   C4B66514  24.494  42.568   7.353
10253POPC   NC366515  10.537   9.797   5.553
10253POPC   PO466516  10.515   9.742   5.853
10253POPC   GL166517  10.541   9.724   6.153
10253POPC   GL266518  10.610   9.767   6.153
10253POPC   C1A66519  10.508   9.754   6.453
10253POPC   D2A66520  10.527   9.754   6.753
10253POPC   C3A66521  10.500   9.763   7.053
10253POPC   C4A66522  10.567   9.715   7.353
10253POPC   C1B66523  10.799   9.880   6.453
10253POPC   C2B66524  10.760   9.836   6.753
10253POPC   C3B66525  10.737   9.876   7.053
10253POPC   C4B66526  10.773   9.847   7.353
10254POPC   NC366527  39.263  24.502   5.553
10254POPC   PO466528  39.268  24.529   5.853
10254POPC   GL166529  39.218  24.531   6.153
10254POPC   GL266530  39.126  24.480   6.153
10254POPC   C1A66531  39.268  24.442   6.453
10254POPC   D2A66532  39.188  24.446   6.753
10254POPC   C3A66533  39.245  24.442   7.053
10254POPC   C4A66534  39.195  24.504   7.353
10254POPC   C1B66535  38.997  24.549   6.453
10254POPC   C2B66536  38.970  24.482   6.753
10254POPC   C3B66537  38.940  24.489   7.053
10254POPC   C4B66538  38.983  24.562   7.353
10255POPC   NC366539  26.810  27.623   5.553
10255POPC   PO466540  26.776  27.564   5.853
10255POPC   GL166541  26.818  27.629   6.153
10255POPC   GL266542  26.915  27.617   6.153
10255POPC   C1A66543  26.780  27.628   6.453
10255POPC   D2A66544  26.771  27.615   6.753
10255POPC   C3A66545  26.825  27.568   7.053
10255POPC   C4A66546  26.800  27.547   7.353
10255POPC   C1B66547  27.032  27.627   6.453
10255POPC   C2B66548  27.070  27.667   6.753
10255POPC   C3B66549  27.083  27.597   7.053
10255POPC   C4B66550  27.040  27.638   7.353
10256POPC   NC366551   4.360  36.177   5.553
10256POPC   PO466552   4.299  36.152   5.853
10256POPC   GL166553   4.337  36.157   6.153
10256POPC   GL266554   4.260  36.263   6.153
10256POPC   C1A66555   4.364  36.138   6.453
10256POPC   D2A66556   4.303  36.098   6.753
10256POPC   C3A66557   4.317  36.078   7.053
10256POPC   C4A66558   4.333  36.154   7.353
10256POPC   C1B66559   4.274  36.333   6.453
10256POPC   C2B66560   4.258  36.371   6.753
10256POPC   C3B66561   4.215  36.401   7.053
10256POPC   C4B66562   4.236  36.383   7.353
10257POPC   NC366563  39.237  37.678   5.553
10257POPC   PO466564  39.265  37.649   5.853
10257POPC   GL166565  39.255  37.708   6.153
10257POPC   GL266566  39.205  37.528   6.153
10257POPC   C1A66567  39.264  37.637   6.453
10257POPC   D2A66568  39.259  37.664   6.753
10257POPC   C3A66569  39.245  37.673   7.053
10257POPC   C4A66570  39.236  37.684   7.353
10257POPC   C1B66571  39.139  37.409   6.453
10257POPC   C2B66572  39.130  37.455   6.753
10257POPC   C3B66573  39.124  37.422   7.053
10257POPC   C4B66574  39.152  37.477   7.353
10258POPC   NC366575  30.675  39.270   5.553
10258POPC   PO466576  30.727  39.275   5.853
10258POPC   GL166577  30.745  39.222   6.153
10258POPC   GL266578  30.788  39.164   6.153
10258POPC   C1A66579  30.670  39.249   6.453
10258POPC   D2A66580  30.688  39.206   6.753
10258POPC   C3A66581  30.650  39.216   7.053
10258POPC   C4A66582  30.745  39.187   7.353
10258POPC   C1B66583  30.929  39.118   6.453
10258POPC   C2B66584  30.893  39.118   6.753
10258POPC   C3B66585  30.891  39.127   7.053
10258POPC   C4B66586  30.899  39.169   7.353
10259POPC   NC366587   9.792  40.818   5.553
10259POPC   PO466588   9.707  40.735   5.853
10259POPC   GL166589   9.703  40.814   6.153
10259POPC   GL266590   9.734  40.871   6.153
10259POPC   C1A66591   9.746  40.772   6.453
10259POPC   D2A66592   9.721  40.828   6.753
10259POPC   C3A66593   9.741  40.784   7.053
10259POPC   C4A66594   9.766  40.791   7.353
10259POPC   C1B66595   9.746  41.051   6.453
10259POPC   C2B66596   9.759  41.018   6.753
10259POPC   C3B66597   9.744  41.065   7.053
10259POPC   C4B66598   9.707  41.030   7.353
10260POPC   NC366599   5.854  42.317   5.553
10260POPC   PO466600   5.820  42.336   5.853
10260POPC   GL166601   5.862  42.372   6.153
10260POPC   GL266602   5.920  42.437   6.153
10260POPC   C1A66603   5.870  42.312   6.453
10260POPC   D2A66604   5.830  42.297   6.753
10260POPC   C3A66605   5.824  42.333   7.053
10260POPC   C4A66606   5.880  42.343   7.353
10260POPC   C1B66607   5.969  42.593   6.453
10260POPC   C2B66608   5.978  42.589   6.753
10260POPC   C3B66609   5.951  42.594   7.053
10260POPC   C4B66610   5.963  42.578   7.353
10261POPC   NC366611  14.360   2.773   5.553
10261POPC   PO466612  14.445   2.723   5.853
10261POPC   GL166613  14.435   2.742   6.153
10261POPC   GL266614  14.463   2.852   6.153
10261POPC   C1A66615  14.404   2.719   6.453
10261POPC   D2A66616  14.358   2.792   6.753
10261POPC   C3A66617  14.437   2.742   7.053
10261POPC   C4A66618  14.429   2.728   7.353
10261POPC   C1B66619  14.661   2.941   6.453
10261POPC   C2B66620  14.562   2.863   6.753
10261POPC   C3B66621  14.584   2.925   7.053
10261POPC   C4B66622  14.618   2.947   7.353
10262POPC   NC366623  43.863  29.133   5.553
10262POPC   PO466624  43.911  29.154   5.853
10262POPC   GL166625  43.883  29.160   6.153
10262POPC   GL266626  43.833  29.000   6.153
10262POPC   C1A66627  43.898  29.179   6.453
10262POPC   D2A66628  43.862  29.124   6.753
10262POPC   C3A66629  43.926  29.145   7.053
10262POPC   C4A66630  43.880  29.145   7.353
10262POPC   C1B66631  43.797  28.946   6.453
10262POPC   C2B66632  43.806  28.908   6.753
10262POPC   C3B66633  43.712  28.884   7.053
10262POPC   C4B66634  43.726  28.928   7.353
10263POPC   NC366635   4.290   2.758   5.553
10263POPC   PO466636   4.360   2.764   5.853
10263POPC   GL166637   4.339   2.737   6.153
10263POPC   GL266638   4.318   2.670   6.153
10263POPC   C1A66639   4.333   2.740   6.453
10263POPC   D2A66640   4.346   2.789   6.753
10263POPC   C3A66641   4.338   2.761   7.053
10263POPC   C4A66642   4.274   2.803   7.353
10263POPC   C1B66643   4.199   2.504   6.453
10263POPC   C2B66644   4.273   2.517   6.753
10263POPC   C3B66645   4.188   2.510   7.053
10263POPC   C4B66646   4.251   2.515   7.353
10264POPC   NC366647  20.623  18.265   5.553
10264POPC   PO466648  20.562  18.274   5.853
10264POPC   GL166649  20.651  18.237   6.153
10264POPC   GL266650  20.603  18.133   6.153
10264POPC   C1A66651  20.620  18.263   6.453
10264POPC   D2A66652  20.637  18.270   6.753
10264POPC   C3A66653  20.620  18.273   7.053
10264POPC   C4A66654  20.606  18.273   7.353
10264POPC   C1B66655  20.564  18.058   6.453
10264POPC   C2B66656  20.609  18.000   6.753
10264POPC   C3B66657  20.592  18.071   7.053
10264POPC   C4B66658  20.607  18.063   7.353
10265POPC   NC366659  38.493  43.155   5.553
10265POPC   PO466660  38.420  43.103   5.853
10265POPC   GL166661  38.471  43.112   6.153
10265POPC   GL266662  38.585  43.165   6.153
10265POPC   C1A66663  38.423  43.062   6.453
10265POPC   D2A66664  38.453  43.101   6.753
10265POPC   C3A66665  38.421  43.081   7.053
10265POPC   C4A66666  38.411  43.138   7.353
10265POPC   C1B66667  38.630  43.300   6.453
10265POPC   C2B66668  38.651  43.293   6.753
10265POPC   C3B66669  38.640  43.272   7.053
10265POPC   C4B66670  38.618  43.325   7.353
10266POPC   NC366671   0.429  32.285   5.553
10266POPC   PO466672   0.471  32.215   5.853
10266POPC   GL166673   0.484  32.213   6.153
10266POPC   GL266674   0.395  32.085   6.153
10266POPC   C1A66675   0.480  32.212   6.453
10266POPC   D2A66676   0.462  32.239   6.753
10266POPC   C3A66677   0.467  32.227   7.053
10266POPC   C4A66678   0.406  32.263   7.353
10266POPC   C1B66679   0.424  32.008   6.453
10266POPC   C2B66680   0.410  32.040   6.753
10266POPC   C3B66681   0.451  32.009   7.053
10266POPC   C4B66682   0.455  32.042   7.353
10267POPC   NC366683   8.932  26.045   5.553
10267POPC   PO466684   8.991  26.042   5.853
10267POPC   GL166685   9.003  26.045   6.153
10267POPC   GL266686   9.034  26.117   6.153
10267POPC   C1A66687   8.993  26.080   6.453
10267POPC   D2A66688   8.999  26.023   6.753
10267POPC   C3A66689   8.999  26.067   7.053
10267POPC   C4A66690   9.001  26.022   7.353
10267POPC   C1B66691   9.033  26.222   6.453
10267POPC   C2B66692   9.035  26.223   6.753
10267POPC   C3B66693   9.033  26.279   7.053
10267POPC   C4B66694   9.079  26.227   7.353
10268POPC   NC366695  37.675   0.482   5.553
10268POPC   PO466696  37.663   0.410   5.853
10268POPC   GL166697  37.632   0.393   6.153
10268POPC   GL266698  37.565   0.410   6.153
10268POPC   C1A66699  37.634   0.463   6.453
10268POPC   D2A66700  37.671   0.474   6.753
10268POPC   C3A66701  37.687   0.441   7.053
10268POPC   C4A66702  37.703   0.458   7.353
10268POPC   C1B66703  37.421   0.405   6.453
10268POPC   C2B66704  37.434   0.436   6.753
10268POPC   C3B66705  37.465   0.436   7.053
10268POPC   C4B66706  37.389   0.462   7.353
10269POPC   NC366707  33.010   1.196   5.553
10269POPC   PO466708  33.063   1.186   5.853
10269POPC   GL166709  32.980   1.237   6.153
10269POPC   GL266710  33.083   1.130   6.153
10269POPC   C1A66711  32.988   1.164   6.453
10269POPC   D2A66712  33.009   1.242   6.753
10269POPC   C3A66713  32.983   1.198   7.053
10269POPC   C4A66714  33.044   1.223   7.353
10269POPC   C1B66715  33.130   1.022   6.453
10269POPC   C2B66716  33.191   1.042   6.753
10269POPC   C3B66717  33.222   0.990   7.053
10269POPC   C4B66718  33.127   0.968   7.353
10270POPC   NC366719  32.231  36.110   5.553
10270POPC   PO466720  32.230  36.160   5.853
10270POPC   GL166721  32.253  36.124   6.153
10270POPC   GL266722  32.353  36.212   6.153
10270POPC   C1A66723  32.228  36.086   6.453
10270POPC   D2A66724  32.232  36.097   6.753
10270POPC   C3A66725  32.211  36.161   7.053
10270POPC   C4A66726  32.217  36.095   7.353
10270POPC   C1B66727  32.462  36.239   6.453
10270POPC   C2B66728  32.498  36.273   6.753
10270POPC   C3B66729  32.498  36.229   7.053
10270POPC   C4B66730  32.445  36.231   7.353
10271POPC   NC366731  28.400  25.995   5.553
10271POPC   PO466732  28.320  26.056   5.853
10271POPC   GL166733  28.378  26.016   6.153
10271POPC   GL266734  28.251  26.020   6.153
10271POPC   C1A66735  28.407  25.994   6.453
10271POPC   D2A66736  28.399  26.081   6.753
10271POPC   C3A66737  28.345  26.064   7.053
10271POPC   C4A66738  28.417  26.021   7.353
10271POPC   C1B66739  28.153  25.959   6.453
10271POPC   C2B66740  28.109  25.924   6.753
10271POPC   C3B66741  28.150  25.954   7.053
10271POPC   C4B66742  28.098  26.007   7.353
10272POPC   NC366743  11.312  42.299   5.553
10272POPC   PO466744  11.338  42.359   5.853
10272POPC   GL166745  11.253  42.357   6.153
10272POPC   GL266746  11.254  42.479   6.153
10272POPC   C1A66747  11.324  42.350   6.453
10272POPC   D2A66748  11.254  42.374   6.753
10272POPC   C3A66749  11.260  42.306   7.053
10272POPC   C4A66750  11.339  42.307   7.353
10272POPC   C1B66751  11.103  42.545   6.453
10272POPC   C2B66752  11.193  42.496   6.753
10272POPC   C3B66753  11.190  42.538   7.053
10272POPC   C4B66754  11.144  42.575   7.353
10273POPC   NC366755   3.563  29.891   5.553
10273POPC   PO466756   3.564  29.889   5.853
10273POPC   GL166757   3.558  29.936   6.153
10273POPC   GL266758   3.669  29.881   6.153
10273POPC   C1A66759   3.557  29.879   6.453
10273POPC   D2A66760   3.492  29.949   6.753
10273POPC   C3A66761   3.513  29.881   7.053
10273POPC   C4A66762   3.502  29.882   7.353
10273POPC   C1B66763   3.823  29.857   6.453
10273POPC   C2B66764   3.781  29.881   6.753
10273POPC   C3B66765   3.753  29.919   7.053
10273POPC   C4B66766   3.828  29.882   7.353
10274POPC   NC366767  12.817  18.318   5.553
10274POPC   PO466768  12.822  18.325   5.853
10274POPC   GL166769  12.822  18.291   6.153
10274POPC   GL266770  12.757  18.297   6.153
10274POPC   C1A66771  12.898  18.242   6.453
10274POPC   D2A66772  12.866  18.326   6.753
10274POPC   C3A66773  12.873  18.297   7.053
10274POPC   C4A66774  12.816  18.307   7.353
10274POPC   C1B66775  12.574  18.345   6.453
10274POPC   C2B66776  12.559  18.310   6.753
10274POPC   C3B66777  12.645  18.322   7.053
10274POPC   C4B66778  12.647  18.359   7.353
10275POPC   NC366779  40.024  15.168   5.553
10275POPC   PO466780  39.996  15.132   5.853
10275POPC   GL166781  40.001  15.214   6.153
10275POPC   GL266782  40.047  15.333   6.153
10275POPC   C1A66783  40.008  15.139   6.453
10275POPC   D2A66784  40.009  15.183   6.753
10275POPC   C3A66785  40.052  15.183   7.053
10275POPC   C4A66786  40.051  15.146   7.353
10275POPC   C1B66787  40.027  15.417   6.453
10275POPC   C2B66788  40.022  15.440   6.753
10275POPC   C3B66789  40.048  15.477   7.053
10275POPC   C4B66790  40.033  15.381   7.353
10276POPC   NC366791  15.154  26.858   5.553
10276POPC   PO466792  15.226  26.847   5.853
10276POPC   GL166793  15.226  26.850   6.153
10276POPC   GL266794  15.029  26.736   6.153
10276POPC   C1A66795  15.188  26.856   6.453
10276POPC   D2A66796  15.149  26.810   6.753
10276POPC   C3A66797  15.222  26.815   7.053
10276POPC   C4A66798  15.180  26.769   7.353
10276POPC   C1B66799  14.909  26.735   6.453
10276POPC   C2B66800  14.911  26.748   6.753
10276POPC   C3B66801  14.979  26.703   7.053
10276POPC   C4B66802  14.893  26.754   7.353
10277POPC   NC366803  29.951  43.134   5.553
10277POPC   PO466804  29.969  43.068   5.853
10277POPC   GL166805  29.890  43.155   6.153
10277POPC   GL266806  29.875  43.268   6.153
10277POPC   C1A66807  29.918  43.103   6.453
10277POPC   D2A66808  29.871  43.084   6.753
10277POPC   C3A66809  29.960  43.071   7.053
10277POPC   C4A66810  29.938  43.157   7.353
10277POPC   C1B66811  29.861  43.387   6.453
10277POPC   C2B66812  29.886  43.401   6.753
10277POPC   C3B66813  29.850  43.346   7.053
10277POPC   C4B66814  29.870  43.370   7.353
10278POPC   NC366815  32.260  36.943   5.553
10278POPC   PO466816  32.287  36.865   5.853
10278POPC   GL166817  32.234  36.938   6.153
10278POPC   GL266818  32.255  37.075   6.153
10278POPC   C1A66819  32.231  36.946   6.453
10278POPC   D2A66820  32.292  36.875   6.753
10278POPC   C3A66821  32.253  36.943   7.053
10278POPC   C4A66822  32.218  36.861   7.353
10278POPC   C1B66823  32.271  37.188   6.453
10278POPC   C2B66824  32.245  37.127   6.753
10278POPC   C3B66825  32.201  37.187   7.053
10278POPC   C4B66826  32.229  37.160   7.353
10279POPC   NC366827  22.951   1.241   5.553
10279POPC   PO466828  22.908   1.166   5.853
10279POPC   GL166829  22.926   1.241   6.153
10279POPC   GL266830  22.873   1.258   6.153
10279POPC   C1A66831  22.891   1.239   6.453
10279POPC   D2A66832  22.916   1.245   6.753
10279POPC   C3A66833  22.979   1.206   7.053
10279POPC   C4A66834  22.951   1.188   7.353
10279POPC   C1B66835  22.727   1.334   6.453
10279POPC   C2B66836  22.695   1.287   6.753
10279POPC   C3B66837  22.668   1.303   7.053
10279POPC   C4B66838  22.734   1.331   7.353
10280POPC   NC366839   5.118   8.154   5.553
10280POPC   PO466840   5.094   8.240   5.853
10280POPC   GL166841   5.098   8.191   6.153
10280POPC   GL266842   5.013   8.295   6.153
10280POPC   C1A66843   5.125   8.185   6.453
10280POPC   D2A66844   5.107   8.208   6.753
10280POPC   C3A66845   5.100   8.161   7.053
10280POPC   C4A66846   5.124   8.177   7.353
10280POPC   C1B66847   4.952   8.367   6.453
10280POPC   C2B66848   4.986   8.426   6.753
10280POPC   C3B66849   4.933   8.442   7.053
10280POPC   C4B66850   4.928   8.378   7.353
10281POPC   NC366851  40.007  42.373   5.553
10281POPC   PO466852  39.974  42.361   5.853
10281POPC   GL166853  40.030  42.289   6.153
10281POPC   GL266854  39.967  42.425   6.153
10281POPC   C1A66855  40.002  42.341   6.453
10281POPC   D2A66856  40.049  42.379   6.753
10281POPC   C3A66857  40.039  42.361   7.053
10281POPC   C4A66858  40.042  42.315   7.353
10281POPC   C1B66859  39.953  42.560   6.453
10281POPC   C2B66860  39.940  42.609   6.753
10281POPC   C3B66861  39.948  42.572   7.053
10281POPC   C4B66862  39.995  42.546   7.353
10282POPC   NC366863  19.878   9.720   5.553
10282POPC   PO466864  19.818   9.762   5.853
10282POPC   GL166865  19.859   9.725   6.153
10282POPC   GL266866  19.804   9.862   6.153
10282POPC   C1A66867  19.811   9.753   6.453
10282POPC   D2A66868  19.849   9.705   6.753
10282POPC   C3A66869  19.794   9.728   7.053
10282POPC   C4A66870  19.792   9.740   7.353
10282POPC   C1B66871  19.643   9.955   6.453
10282POPC   C2B66872  19.711   9.904   6.753
10282POPC   C3B66873  19.644   9.898   7.053
10282POPC   C4B66874  19.680   9.970   7.353
10283POPC   NC366875  39.988  28.376   5.553
10283POPC   PO466876  40.009  28.323   5.853
10283POPC   GL166877  40.051  28.353   6.153
10283POPC   GL266878  40.029  28.283   6.153
10283POPC   C1A66879  40.057  28.335   6.453
10283POPC   D2A66880  40.026  28.403   6.753
10283POPC   C3A66881  39.979  28.345   7.053
10283POPC   C4A66882  39.980  28.372   7.353
10283POPC   C1B66883  40.097  28.094   6.453
10283POPC   C2B66884  40.063  28.176   6.753
10283POPC   C3B66885  40.125  28.119   7.053
10283POPC   C4B66886  40.130  28.172   7.353
10284POPC   NC366887  40.774  42.325   5.553
10284POPC   PO466888  40.738  42.287   5.853
10284POPC   GL166889  40.745  42.353   6.153
10284POPC   GL266890  40.636  42.372   6.153
10284POPC   C1A66891  40.813  42.360   6.453
10284POPC   D2A66892  40.738  42.335   6.753
10284POPC   C3A66893  40.752  42.288   7.053
10284POPC   C4A66894  40.759  42.304   7.353
10284POPC   C1B66895  40.555  42.403   6.453
10284POPC   C2B66896  40.518  42.469   6.753
10284POPC   C3B66897  40.604  42.407   7.053
10284POPC   C4B66898  40.573  42.446   7.353
10285POPC   NC366899  16.777  20.579   5.553
10285POPC   PO466900  16.740  20.622   5.853
10285POPC   GL166901  16.691  20.609   6.153
10285POPC   GL266902  16.770  20.746   6.153
10285POPC   C1A66903  16.726  20.611   6.453
10285POPC   D2A66904  16.683  20.621   6.753
10285POPC   C3A66905  16.685  20.607   7.053
10285POPC   C4A66906  16.763  20.654   7.353
10285POPC   C1B66907  16.871  20.845   6.453
10285POPC   C2B66908  16.829  20.816   6.753
10285POPC   C3B66909  16.828  20.822   7.053
10285POPC   C4B66910  16.846  20.863   7.353
10286POPC   NC366911  22.143  22.161   5.553
10286POPC   PO466912  22.157  22.173   5.853
10286POPC   GL166913  22.178  22.164   6.153
10286POPC   GL266914  22.232  22.201   6.153
10286POPC   C1A66915  22.184  22.193   6.453
10286POPC   D2A66916  22.176  22.182   6.753
10286POPC   C3A66917  22.195  22.121   7.053
10286POPC   C4A66918  22.172  22.188   7.353
10286POPC   C1B66919  22.322  22.282   6.453
10286POPC   C2B66920  22.316  22.287   6.753
10286POPC   C3B66921  22.333  22.329   7.053
10286POPC   C4B66922  22.319  22.336   7.353
10287POPC   NC366923  37.660  22.921   5.553
10287POPC   PO466924  37.682  22.923   5.853
10287POPC   GL166925  37.657  22.950   6.153
10287POPC   GL266926  37.551  23.007   6.153
10287POPC   C1A66927  37.667  22.983   6.453
10287POPC   D2A66928  37.647  22.969   6.753
10287POPC   C3A66929  37.718  22.966   7.053
10287POPC   C4A66930  37.688  22.928   7.353
10287POPC   C1B66931  37.467  23.118   6.453
10287POPC   C2B66932  37.506  23.149   6.753
10287POPC   C3B66933  37.565  23.154   7.053
10287POPC   C4B66934  37.521  23.162   7.353
10288POPC   NC366935  43.114  29.184   5.553
10288POPC   PO466936  43.066  29.166   5.853
10288POPC   GL166937  43.153  29.127   6.153
10288POPC   GL266938  42.976  29.023   6.153
10288POPC   C1A66939  43.125  29.108   6.453
10288POPC   D2A66940  43.107  29.134   6.753
10288POPC   C3A66941  43.073  29.138   7.053
10288POPC   C4A66942  43.064  29.193   7.353
10288POPC   C1B66943  42.952  29.008   6.453
10288POPC   C2B66944  42.913  29.008   6.753
10288POPC   C3B66945  42.889  28.997   7.053
10288POPC   C4B66946  42.944  29.015   7.353
10289POPC   NC366947  25.219  21.397   5.553
10289POPC   PO466948  25.292  21.370   5.853
10289POPC   GL166949  25.309  21.436   6.153
10289POPC   GL266950  25.382  21.311   6.153
10289POPC   C1A66951  25.292  21.425   6.453
10289POPC   D2A66952  25.279  21.375   6.753
10289POPC   C3A66953  25.266  21.372   7.053
10289POPC   C4A66954  25.312  21.353   7.353
10289POPC   C1B66955  25.408  21.160   6.453
10289POPC   C2B66956  25.457  21.147   6.753
10289POPC   C3B66957  25.429  21.215   7.053
10289POPC   C4B66958  25.412  21.209   7.353
10290POPC   NC366959  22.203  22.930   5.553
10290POPC   PO466960  22.137  22.946   5.853
10290POPC   GL166961  22.114  22.960   6.153
10290POPC   GL266962  22.246  22.957   6.153
10290POPC   C1A66963  22.163  22.910   6.453
10290POPC   D2A66964  22.154  22.987   6.753
10290POPC   C3A66965  22.152  22.965   7.053
10290POPC   C4A66966  22.149  22.964   7.353
10290POPC   C1B66967  22.414  23.032   6.453
10290POPC   C2B66968  22.411  23.029   6.753
10290POPC   C3B66969  22.367  23.042   7.053
10290POPC   C4B66970  22.403  23.002   7.353
10291POPC   NC366971   7.374  34.532   5.553
10291POPC   PO466972   7.399  34.606   5.853
10291POPC   GL166973   7.407  34.619   6.153
10291POPC   GL266974   7.331  34.599   6.153
10291POPC   C1A66975   7.423  34.607   6.453
10291POPC   D2A66976   7.401  34.554   6.753
10291POPC   C3A66977   7.444  34.577   7.053
10291POPC   C4A66978   7.426  34.589   7.353
10291POPC   C1B66979   7.166  34.689   6.453
10291POPC   C2B66980   7.249  34.664   6.753
10291POPC   C3B66981   7.208  34.739   7.053
10291POPC   C4B66982   7.157  34.653   7.353
10292POPC   NC366983  14.405  12.870   5.553
10292POPC   PO466984  14.363  12.815   5.853
10292POPC   GL166985  14.384  12.837   6.153
10292POPC   GL266986  14.456  12.819   6.153
10292POPC   C1A66987  14.395  12.823   6.453
10292POPC   D2A66988  14.437  12.868   6.753
10292POPC   C3A66989  14.384  12.832   7.053
10292POPC   C4A66990  14.383  12.811   7.353
10292POPC   C1B66991  14.630  12.679   6.453
10292POPC   C2B66992  14.603  12.682   6.753
10292POPC   C3B66993  14.612  12.729   7.053
10292POPC   C4B66994  14.616  12.676   7.353
10293POPC   NC366995   5.827  12.880   5.553
10293POPC   PO466996   5.882  12.894   5.853
10293POPC   GL166997   5.840  12.837   6.153
10293POPC   GL266998   5.936  12.748   6.153
10293POPC   C1A66999   5.915  12.854   6.453
10293POPC   D2A67000   5.884  12.859   6.753
10293POPC   C3A67001   5.853  12.872   7.053
10293POPC   C4A67002   5.831  12.851   7.353
10293POPC   C1B67003   6.042  12.707   6.453
10293POPC   C2B67004   6.049  12.723   6.753
10293POPC   C3B67005   6.023  12.713   7.053
10293POPC   C4B67006   6.049  12.680   7.353
10294POPC   NC367007   6.613   9.738   5.553
10294POPC   PO467008   6.638   9.777   5.853
10294POPC   GL167009   6.667   9.746   6.153
10294POPC   GL267010   6.742   9.881   6.153
10294POPC   C1A67011   6.616   9.714   6.453
10294POPC   D2A67012   6.684   9.765   6.753
10294POPC   C3A67013   6.657   9.752   7.053
10294POPC   C4A67014   6.629   9.795   7.353
10294POPC   C1B67015   6.706   9.962   6.453
10294POPC   C2B67016   6.745  10.001   6.753
10294POPC   C3B67017   6.741   9.927   7.053
10294POPC   C4B67018   6.763   9.986   7.353
10295POPC   NC367019  40.776  44.686   5.553
10295POPC   PO467020  40.795  44.642   5.853
10295POPC   GL167021  40.761  44.648   6.153
10295POPC   GL267022  40.731  44.784   6.153
10295POPC   C1A67023  40.820  44.701   6.453
10295POPC   D2A67024  40.768  44.637   6.753
10295POPC   C3A67025  40.800  44.687   7.053
10295POPC   C4A67026  40.760  44.623   7.353
10295POPC   C1B67027  40.566  44.798   6.453
10295POPC   C2B67028  40.566  44.869   6.753
10295POPC   C3B67029  40.578  44.867   7.053
10295POPC   C4B67030  40.599  44.867   7.353
10296POPC   NC367031  36.142  22.919   5.553
10296POPC   PO467032  36.143  22.917   5.853
10296POPC   GL167033  36.136  22.898   6.153
10296POPC   GL267034  36.029  22.928   6.153
10296POPC   C1A67035  36.139  22.902   6.453
10296POPC   D2A67036  36.173  22.953   6.753
10296POPC   C3A67037  36.138  22.907   7.053
10296POPC   C4A67038  36.090  22.888   7.353
10296POPC   C1B67039  35.881  22.952   6.453
10296POPC   C2B67040  35.861  22.946   6.753
10296POPC   C3B67041  35.873  22.978   7.053
10296POPC   C4B67042  35.906  22.944   7.353
10297POPC   NC367043  15.170  24.513   5.553
10297POPC   PO467044  15.207  24.463   5.853
10297POPC   GL167045  15.154  24.452   6.153
10297POPC   GL267046  15.279  24.469   6.153
10297POPC   C1A67047  15.151  24.461   6.453
10297POPC   D2A67048  15.209  24.497   6.753
10297POPC   C3A67049  15.181  24.485   7.053
10297POPC   C4A67050  15.129  24.510   7.353
10297POPC   C1B67051  15.391  24.447   6.453
10297POPC   C2B67052  15.393  24.445   6.753
10297POPC   C3B67053  15.415  24.401   7.053
10297POPC   C4B67054  15.411  24.450   7.353
10298POPC   NC367055  12.827  22.977   5.553
10298POPC   PO467056  12.879  22.903   5.853
10298POPC   GL167057  12.855  22.960   6.153
10298POPC   GL267058  12.681  22.928   6.153
10298POPC   C1A67059  12.833  22.904   6.453
10298POPC   D2A67060  12.810  22.894   6.753
10298POPC   C3A67061  12.838  22.932   7.053
10298POPC   C4A67062  12.813  22.932   7.353
10298POPC   C1B67063  12.623  22.988   6.453
10298POPC   C2B67064  12.579  22.928   6.753
10298POPC   C3B67065  12.616  22.932   7.053
10298POPC   C4B67066  12.571  22.934   7.353
10299POPC   NC367067   4.313  22.143   5.553
10299POPC   PO467068   4.276  22.171   5.853
10299POPC   GL167069   4.302  22.144   6.153
10299POPC   GL267070   4.438  22.115   6.153
10299POPC   C1A67071   4.341  22.176   6.453
10299POPC   D2A67072   4.341  22.187   6.753
10299POPC   C3A67073   4.315  22.173   7.053
10299POPC   C4A67074   4.366  22.125   7.353
10299POPC   C1B67075   4.532  22.096   6.453
10299POPC   C2B67076   4.543  22.115   6.753
10299POPC   C3B67077   4.568  22.154   7.053
10299POPC   C4B67078   4.599  22.116   7.353
10300POPC   NC367079  15.929   1.185   5.553
10300POPC   PO467080  15.990   1.210   5.853
10300POPC   GL167081  15.965   1.218   6.153
10300POPC   GL267082  16.048   1.259   6.153
10300POPC   C1A67083  15.937   1.215   6.453
10300POPC   D2A67084  15.921   1.203   6.753
10300POPC   C3A67085  15.959   1.201   7.053
10300POPC   C4A67086  15.956   1.260   7.353
10300POPC   C1B67087  16.162   1.255   6.453
10300POPC   C2B67088  16.200   1.262   6.753
10300POPC   C3B67089  16.252   1.234   7.053
10300POPC   C4B67090  16.203   1.271   7.353
10301POPC   NC367091  22.143  44.708   5.553
10301POPC   PO467092  22.200  44.681   5.853
10301POPC   GL167093  22.116  44.681   6.153
10301POPC   GL267094  22.054  44.683   6.153
10301POPC   C1A67095  22.199  44.690   6.453
10301POPC   D2A67096  22.159  44.711   6.753
10301POPC   C3A67097  22.155  44.698   7.053
10301POPC   C4A67098  22.146  44.662   7.353
10301POPC   C1B67099  21.941  44.763   6.453
10301POPC   C2B67100  21.903  44.799   6.753
10301POPC   C3B67101  21.946  44.795   7.053
10301POPC   C4B67102  21.930  44.784   7.353
10302POPC   NC367103  32.216  42.310   5.553
10302POPC   PO467104  32.267  42.291   5.853
10302POPC   GL167105  32.224  42.300   6.153
10302POPC   GL267106  32.138  42.318   6.153
10302POPC   C1A67107  32.271  42.369   6.453
10302POPC   D2A67108  32.268  42.379   6.753
10302POPC   C3A67109  32.220  42.289   7.053
10302POPC   C4A67110  32.291  42.363   7.353
10302POPC   C1B67111  32.049  42.282   6.453
10302POPC   C2B67112  32.040  42.232   6.753
10302POPC   C3B67113  32.052  42.232   7.053
10302POPC   C4B67114  32.048  42.215   7.353
10303POPC   NC367115  11.291  11.252   5.553
10303POPC   PO467116  11.299  11.273   5.853
10303POPC   GL167117  11.297  11.346   6.153
10303POPC   GL267118  11.355  11.362   6.153
10303POPC   C1A67119  11.343  11.309   6.453
10303POPC   D2A67120  11.302  11.314   6.753
10303POPC   C3A67121  11.334  11.252   7.053
10303POPC   C4A67122  11.273  11.299   7.353
10303POPC   C1B67123  11.500  11.445   6.453
10303POPC   C2B67124  11.471  11.430   6.753
10303POPC   C3B67125  11.520  11.520   7.053
10303POPC   C4B67126  11.433  11.449   7.353
10304POPC   NC367127  32.206  29.967   5.553
10304POPC   PO467128  32.253  29.963   5.853
10304POPC   GL167129  32.213  29.915   6.153
10304POPC   GL267130  32.363  29.864   6.153
10304POPC   C1A67131  32.246  29.894   6.453
10304POPC   D2A67132  32.256  29.879   6.753
10304POPC   C3A67133  32.291  29.904   7.053
10304POPC   C4A67134  32.257  29.887   7.353
10304POPC   C1B67135  32.444  29.789   6.453
10304POPC   C2B67136  32.433  29.759   6.753
10304POPC   C3B67137  32.474  29.730   7.053
10304POPC   C4B67138  32.449  29.776   7.353
10305POPC   NC367139  40.033  39.969   5.553
10305POPC   PO467140  39.964  40.043   5.853
10305POPC   GL167141  40.009  39.984   6.153
10305POPC   GL267142  40.148  39.900   6.153
10305POPC   C1A67143  40.036  40.030   6.453
10305POPC   D2A67144  40.041  40.015   6.753
10305POPC   C3A67145  39.998  40.055   7.053
10305POPC   C4A67146  39.972  40.039   7.353
10305POPC   C1B67147  40.163  39.881   6.453
10305POPC   C2B67148  40.168  39.904   6.753
10305POPC   C3B67149  40.217  39.904   7.053
10305POPC   C4B67150  40.246  39.898   7.353
10306POPC   NC367151   3.528   7.372   5.553
10306POPC   PO467152   3.535   7.394   5.853
10306POPC   GL167153   3.535   7.378   6.153
10306POPC   GL267154   3.649   7.479   6.153
10306POPC   C1A67155   3.582   7.438   6.453
10306POPC   D2A67156   3.560   7.460   6.753
10306POPC   C3A67157   3.570   7.431   7.053
10306POPC   C4A67158   3.510   7.448   7.353
10306POPC   C1B67159   3.728   7.519   6.453
10306POPC   C2B67160   3.785   7.544   6.753
10306POPC   C3B67161   3.736   7.520   7.053
10306POPC   C4B67162   3.812   7.525   7.353
10307POPC   NC367163  29.920  36.944   5.553
10307POPC   PO467164  29.881  36.874   5.853
10307POPC   GL167165  29.947  36.865   6.153
10307POPC   GL267166  29.868  36.788   6.153
10307POPC   C1A67167  29.958  36.885   6.453
10307POPC   D2A67168  29.967  36.923   6.753
10307POPC   C3A67169  29.918  36.940   7.053
10307POPC   C4A67170  29.886  36.899   7.353
10307POPC   C1B67171  29.786  36.760   6.453
10307POPC   C2B67172  29.788  36.708   6.753
10307POPC   C3B67173  29.693  36.689   7.053
10307POPC   C4B67174  29.765  36.682   7.353
10308POPC   NC367175  23.710  12.812   5.553
10308POPC   PO467176  23.711  12.810   5.853
10308POPC   GL167177  23.680  12.888   6.153
10308POPC   GL267178  23.717  12.925   6.153
10308POPC   C1A67179  23.752  12.806   6.453
10308POPC   D2A67180  23.752  12.816   6.753
10308POPC   C3A67181  23.719  12.825   7.053
10308POPC   C4A67182  23.670  12.899   7.353
10308POPC   C1B67183  23.649  13.124   6.453
10308POPC   C2B67184  23.671  13.070   6.753
10308POPC   C3B67185  23.692  13.141   7.053
10308POPC   C4B67186  23.605  13.121   7.353
10309POPC   NC367187  28.330  44.629   5.553
10309POPC   PO467188  28.387  44.691   5.853
10309POPC   GL167189  28.363  44.644   6.153
10309POPC   GL267190  28.397  44.826   6.153
10309POPC   C1A67191  28.356  44.625   6.453
10309POPC   D2A67192  28.354  44.709   6.753
10309POPC   C3A67193  28.394  44.647   7.053
10309POPC   C4A67194  28.376  44.627   7.353
10309POPC   C1B67195  28.370  44.921   6.453
10309POPC   C2B67196  28.423  44.875   6.753
10309POPC   C3B67197  28.415  44.906   7.053
10309POPC   C4B67198  28.355  44.939   7.353
10310POPC   NC367199  42.362  12.884   5.553
10310POPC   PO467200  42.330  12.858   5.853
10310POPC   GL167201  42.328  12.822   6.153
10310POPC   GL267202  42.347  12.735   6.153
10310POPC   C1A67203  42.304  12.869   6.453
10310POPC   D2A67204  42.353  12.879   6.753
10310POPC   C3A67205  42.381  12.875   7.053
10310POPC   C4A67206  42.375  12.888   7.353
10310POPC   C1B67207  42.450  12.633   6.453
10310POPC   C2B67208  42.373  12.622   6.753
10310POPC   C3B67209  42.445  12.575   7.053
10310POPC   C4B67210  42.376  12.564   7.353
10311POPC   NC367211   4.306  33.051   5.553
10311POPC   PO467212   4.284  33.052   5.853
10311POPC   GL167213   4.299  33.028   6.153
10311POPC   GL267214   4.458  32.988   6.153
10311POPC   C1A67215   4.322  32.992   6.453
10311POPC   D2A67216   4.309  33.016   6.753
10311POPC   C3A67217   4.359  33.026   7.053
10311POPC   C4A67218   4.275  33.072   7.353
10311POPC   C1B67219   4.611  33.084   6.453
10311POPC   C2B67220   4.539  33.029   6.753
10311POPC   C3B67221   4.553  33.064   7.053
10311POPC   C4B67222   4.523  33.035   7.353
10312POPC   NC367223  22.939   7.390   5.553
10312POPC   PO467224  22.909   7.400   5.853
10312POPC   GL167225  22.968   7.460   6.153
10312POPC   GL267226  22.984   7.333   6.153
10312POPC   C1A67227  22.973   7.381   6.453
10312POPC   D2A67228  22.920   7.432   6.753
10312POPC   C3A67229  22.986   7.426   7.053
10312POPC   C4A67230  22.889   7.444   7.353
10312POPC   C1B67231  23.067   7.181   6.453
10312POPC   C2B67232  23.003   7.193   6.753
10312POPC   C3B67233  23.036   7.167   7.053
10312POPC   C4B67234  23.034   7.220   7.353
10313POPC   NC367235   2.780  31.424   5.553
10313POPC   PO467236   2.738  31.475   5.853
10313POPC   GL167237   2.806  31.444   6.153
10313POPC   GL267238   2.852  31.426   6.153
10313POPC   C1A67239   2.784  31.440   6.453
10313POPC   D2A67240   2.730  31.475   6.753
10313POPC   C3A67241   2.752  31.512   7.053
10313POPC   C4A67242   2.809  31.490   7.353
10313POPC   C1B67243   3.040  31.435   6.453
10313POPC   C2B67244   3.052  31.379   6.753
10313POPC   C3B67245   2.999  31.378   7.053
10313POPC   C4B67246   3.038  31.411   7.353
10314POPC   NC367247   4.340   7.406   5.553
10314POPC   PO467248   4.361   7.402   5.853
10314POPC   GL167249   4.313   7.433   6.153
10314POPC   GL267250   4.236   7.480   6.153
10314POPC   C1A67251   4.279   7.457   6.453
10314POPC   D2A67252   4.339   7.373   6.753
10314POPC   C3A67253   4.278   7.460   7.053
10314POPC   C4A67254   4.364   7.432   7.353
10314POPC   C1B67255   4.026   7.505   6.453
10314POPC   C2B67256   4.108   7.461   6.753
10314POPC   C3B67257   4.041   7.420   7.053
10314POPC   C4B67258   4.120   7.471   7.353
10315POPC   NC367259   2.779  10.504   5.553
10315POPC   PO467260   2.783  10.555   5.853
10315POPC   GL167261   2.753  10.477   6.153
10315POPC   GL267262   2.721  10.401   6.153
10315POPC   C1A67263   2.807  10.509   6.453
10315POPC   D2A67264   2.796  10.554   6.753
10315POPC   C3A67265   2.805  10.554   7.053
10315POPC   C4A67266   2.796  10.480   7.353
10315POPC   C1B67267   2.650  10.282   6.453
10315POPC   C2B67268   2.639  10.259   6.753
10315POPC   C3B67269   2.601  10.285   7.053
10315POPC   C4B67270   2.661  10.350   7.353
10316POPC   NC367271   0.478  19.086   5.553
10316POPC   PO467272   0.458  19.082   5.853
10316POPC   GL167273   0.428  19.010   6.153
10316POPC   GL267274   0.399  18.947   6.153
10316POPC   C1A67275   0.429  19.062   6.453
10316POPC   D2A67276   0.479  19.100   6.753
10316POPC   C3A67277   0.481  19.036   7.053
10316POPC   C4A67278   0.404  19.070   7.353
10316POPC   C1B67279   0.298  18.869   6.453
10316POPC   C2B67280   0.336  18.814   6.753
10316POPC   C3B67281   0.255  18.877   7.053
10316POPC   C4B67282   0.318  18.894   7.353
10317POPC   NC367283  37.728  20.599   5.553
10317POPC   PO467284  37.671  20.642   5.853
10317POPC   GL167285  37.722  20.639   6.153
10317POPC   GL267286  37.596  20.693   6.153
10317POPC   C1A67287  37.641  20.578   6.453
10317POPC   D2A67288  37.696  20.655   6.753
10317POPC   C3A67289  37.727  20.644   7.053
10317POPC   C4A67290  37.674  20.566   7.353
10317POPC   C1B67291  37.559  20.821   6.453
10317POPC   C2B67292  37.534  20.863   6.753
10317POPC   C3B67293  37.552  20.783   7.053
10317POPC   C4B67294  37.585  20.814   7.353
10318POPC   NC367295  14.394   0.470   5.553
10318POPC   PO467296  14.375   0.455   5.853
10318POPC   GL167297  14.379   0.447   6.153
10318POPC   GL267298  14.261   0.462   6.153
10318POPC   C1A67299  14.415   0.392   6.453
10318POPC   D2A67300  14.368   0.408   6.753
10318POPC   C3A67301  14.378   0.481   7.053
10318POPC   C4A67302  14.379   0.400   7.353
10318POPC   C1B67303  14.228   0.525   6.453
10318POPC   C2B67304  14.210   0.555   6.753
10318POPC   C3B67305  14.158   0.545   7.053
10318POPC   C4B67306  14.190   0.579   7.353
10319POPC   NC367307  22.952  19.810   5.553
10319POPC   PO467308  22.896  19.788   5.853
10319POPC   GL167309  22.930  19.787   6.153
10319POPC   GL267310  23.081  19.945   6.153
10319POPC   C1A67311  22.911  19.846   6.453
10319POPC   D2A67312  22.969  19.880   6.753
10319POPC   C3A67313  22.966  19.878   7.053
10319POPC   C4A67314  22.920  19.803   7.353
10319POPC   C1B67315  23.175  20.012   6.453
10319POPC   C2B67316  23.152  19.958   6.753
10319POPC   C3B67317  23.172  19.996   7.053
10319POPC   C4B67318  23.096  20.007   7.353
10320POPC   NC367319  28.333  23.741   5.553
10320POPC   PO467320  28.363  23.694   5.853
10320POPC   GL167321  28.369  23.721   6.153
10320POPC   GL267322  28.472  23.685   6.153
10320POPC   C1A67323  28.389  23.712   6.453
10320POPC   D2A67324  28.331  23.759   6.753
10320POPC   C3A67325  28.325  23.723   7.053
10320POPC   C4A67326  28.373  23.712   7.353
10320POPC   C1B67327  28.623  23.673   6.453
10320POPC   C2B67328  28.581  23.659   6.753
10320POPC   C3B67329  28.575  23.678   7.053
10320POPC   C4B67330  28.641  23.658   7.353
10321POPC   NC367331  43.131  32.990   5.553
10321POPC   PO467332  43.152  33.044   5.853
10321POPC   GL167333  43.125  32.994   6.153
10321POPC   GL267334  43.037  33.065   6.153
10321POPC   C1A67335  43.094  33.007   6.453
10321POPC   D2A67336  43.139  33.005   6.753
10321POPC   C3A67337  43.094  33.058   7.053
10321POPC   C4A67338  43.099  32.977   7.353
10321POPC   C1B67339  42.904  33.206   6.453
10321POPC   C2B67340  42.921  33.162   6.753
10321POPC   C3B67341  42.920  33.199   7.053
10321POPC   C4B67342  42.906  33.157   7.353
10322POPC   NC367343  33.050  26.059   5.553
10322POPC   PO467344  33.060  25.995   5.853
10322POPC   GL167345  32.977  26.061   6.153
10322POPC   GL267346  33.134  26.004   6.153
10322POPC   C1A67347  33.002  26.083   6.453
10322POPC   D2A67348  33.019  26.036   6.753
10322POPC   C3A67349  33.053  26.009   7.053
10322POPC   C4A67350  32.980  26.019   7.353
10322POPC   C1B67351  33.266  25.892   6.453
10322POPC   C2B67352  33.256  25.875   6.753
10322POPC   C3B67353  33.199  25.934   7.053
10322POPC   C4B67354  33.283  25.953   7.353
10323POPC   NC367355  41.600  10.539   5.553
10323POPC   PO467356  41.540  10.550   5.853
10323POPC   GL167357  41.593  10.500   6.153
10323POPC   GL267358  41.398  10.459   6.153
10323POPC   C1A67359  41.523  10.527   6.453
10323POPC   D2A67360  41.572  10.544   6.753
10323POPC   C3A67361  41.546  10.505   7.053
10323POPC   C4A67362  41.601  10.492   7.353
10323POPC   C1B67363  41.279  10.445   6.453
10323POPC   C2B67364  41.315  10.409   6.753
10323POPC   C3B67365  41.328  10.498   7.053
10323POPC   C4B67366  41.289  10.471   7.353
10324POPC   NC367367  38.478  40.758   5.553
10324POPC   PO467368  38.406  40.736   5.853
10324POPC   GL167369  38.445  40.736   6.153
10324POPC   GL267370  38.363  40.878   6.153
10324POPC   C1A67371  38.406  40.808   6.453
10324POPC   D2A67372  38.493  40.828   6.753
10324POPC   C3A67373  38.442  40.814   7.053
10324POPC   C4A67374  38.456  40.812   7.353
10324POPC   C1B67375  38.267  40.981   6.453
10324POPC   C2B67376  38.240  40.896   6.753
10324POPC   C3B67377  38.273  40.907   7.053
10324POPC   C4B67378  38.257  40.898   7.353
10325POPC   NC367379  29.143  29.906   5.553
10325POPC   PO467380  29.174  29.957   5.853
10325POPC   GL167381  29.163  29.921   6.153
10325POPC   GL267382  29.132  29.784   6.153
10325POPC   C1A67383  29.109  29.904   6.453
10325POPC   D2A67384  29.095  29.913   6.753
10325POPC   C3A67385  29.148  29.886   7.053
10325POPC   C4A67386  29.117  29.911   7.353
10325POPC   C1B67387  29.175  29.673   6.453
10325POPC   C2B67388  29.117  29.705   6.753
10325POPC   C3B67389  29.146  29.654   7.053
10325POPC   C4B67390  29.173  29.667   7.353
10326POPC   NC367391  36.132  29.901   5.553
10326POPC   PO467392  36.117  29.910   5.853
10326POPC   GL167393  36.105  29.967   6.153
10326POPC   GL267394  36.094  29.800   6.153
10326POPC   C1A67395  36.169  29.895   6.453
10326POPC   D2A67396  36.107  29.948   6.753
10326POPC   C3A67397  36.090  29.919   7.053
10326POPC   C4A67398  36.156  29.886   7.353
10326POPC   C1B67399  36.201  29.690   6.453
10326POPC   C2B67400  36.185  29.703   6.753
10326POPC   C3B67401  36.117  29.631   7.053
10326POPC   C4B67402  36.199  29.641   7.353
10327POPC   NC367403   9.005  11.327   5.553
10327POPC   PO467404   8.926  11.305   5.853
10327POPC   GL167405   8.978  11.282   6.153
10327POPC   GL267406   8.999  11.140   6.153
10327POPC   C1A67407   8.961  11.339   6.453
10327POPC   D2A67408   8.971  11.272   6.753
10327POPC   C3A67409   8.976  11.331   7.053
10327POPC   C4A67410   8.958  11.278   7.353
10327POPC   C1B67411   9.089  11.031   6.453
10327POPC   C2B67412   9.049  11.070   6.753
10327POPC   C3B67413   9.084  11.032   7.053
10327POPC   C4B67414   9.101  11.087   7.353
10328POPC   NC367415   1.261  12.046   5.553
10328POPC   PO467416   1.183  12.059   5.853
10328POPC   GL167417   1.175  12.044   6.153
10328POPC   GL267418   1.087  12.141   6.153
10328POPC   C1A67419   1.262  12.035   6.453
10328POPC   D2A67420   1.262  12.121   6.753
10328POPC   C3A67421   1.251  12.114   7.053
10328POPC   C4A67422   1.191  12.117   7.353
10328POPC   C1B67423   1.006  12.160   6.453
10328POPC   C2B67424   0.956  12.176   6.753
10328POPC   C3B67425   0.992  12.146   7.053
10328POPC   C4B67426   0.949  12.201   7.353
10329POPC   NC367427  39.258  33.765   5.553
10329POPC   PO467428  39.195  33.823   5.853
10329POPC   GL167429  39.280  33.811   6.153
10329POPC   GL267430  39.137  33.762   6.153
10329POPC   C1A67431  39.280  33.750   6.453
10329POPC   D2A67432  39.209  33.786   6.753
10329POPC   C3A67433  39.224  33.832   7.053
10329POPC   C4A67434  39.204  33.790   7.353
10329POPC   C1B67435  39.027  33.770   6.453
10329POPC   C2B67436  39.013  33.789   6.753
10329POPC   C3B67437  38.977  33.746   7.053
10329POPC   C4B67438  39.017  33.804   7.353
10330POPC   NC367439   1.166   5.865   5.553
10330POPC   PO467440   1.237   5.910   5.853
10330POPC   GL167441   1.254   5.894   6.153
10330POPC   GL267442   1.275   5.954   6.153
10330POPC   C1A67443   1.230   5.907   6.453
10330POPC   D2A67444   1.206   5.891   6.753
10330POPC   C3A67445   1.172   5.842   7.053
10330POPC   C4A67446   1.255   5.856   7.353
10330POPC   C1B67447   1.325   6.152   6.453
10330POPC   C2B67448   1.236   6.091   6.753
10330POPC   C3B67449   1.304   6.123   7.053
10330POPC   C4B67450   1.248   6.124   7.353
10331POPC   NC367451  23.669  12.044   5.553
10331POPC   PO467452  23.713  12.126   5.853
10331POPC   GL167453  23.715  12.071   6.153
10331POPC   GL267454  23.828  11.964   6.153
10331POPC   C1A67455  23.669  12.051   6.453
10331POPC   D2A67456  23.748  12.072   6.753
10331POPC   C3A67457  23.681  12.106   7.053
10331POPC   C4A67458  23.746  12.100   7.353
10331POPC   C1B67459  23.887  11.849   6.453
10331POPC   C2B67460  23.851  11.905   6.753
10331POPC   C3B67461  23.908  11.908   7.053
10331POPC   C4B67462  23.893  11.931   7.353
10332POPC   NC367463  21.340  23.699   5.553
10332POPC   PO467464  21.415  23.688   5.853
10332POPC   GL167465  21.360  23.751   6.153
10332POPC   GL267466  21.261  23.726   6.153
10332POPC   C1A67467  21.406  23.667   6.453
10332POPC   D2A67468  21.377  23.683   6.753
10332POPC   C3A67469  21.354  23.681   7.053
10332POPC   C4A67470  21.369  23.670   7.353
10332POPC   C1B67471  21.092  23.731   6.453
10332POPC   C2B67472  21.158  23.757   6.753
10332POPC   C3B67473  21.097  23.769   7.053
10332POPC   C4B67474  21.185  23.708   7.353
10333POPC   NC367475   9.718  37.705   5.553
10333POPC   PO467476   9.771  37.698   5.853
10333POPC   GL167477   9.749  37.681   6.153
10333POPC   GL267478   9.873  37.665   6.153
10333POPC   C1A67479   9.792  37.663   6.453
10333POPC   D2A67480   9.747  37.690   6.753
10333POPC   C3A67481   9.772  37.708   7.053
10333POPC   C4A67482   9.752  37.668   7.353
10333POPC   C1B67483   9.983  37.680   6.453
10333POPC   C2B67484   9.984  37.716   6.753
10333POPC   C3B67485   9.958  37.743   7.053
10333POPC   C4B67486   9.974  37.658   7.353
10334POPC   NC367487  31.458  11.255   5.553
10334POPC   PO467488  31.494  11.294   5.853
10334POPC   GL167489  31.502  11.313   6.153
10334POPC   GL267490  31.479  11.426   6.153
10334POPC   C1A67491  31.442  11.270   6.453
10334POPC   D2A67492  31.441  11.345   6.753
10334POPC   C3A67493  31.517  11.342   7.053
10334POPC   C4A67494  31.431  11.309   7.353
10334POPC   C1B67495  31.499  11.563   6.453
10334POPC   C2B67496  31.555  11.520   6.753
10334POPC   C3B67497  31.481  11.565   7.053
10334POPC   C4B67498  31.495  11.536   7.353
10335POPC   NC367499  32.213  32.232   5.553
10335POPC   PO467500  32.273  32.279   5.853
10335POPC   GL167501  32.276  32.205   6.153
10335POPC   GL267502  32.133  32.159   6.153
10335POPC   C1A67503  32.283  32.210   6.453
10335POPC   D2A67504  32.260  32.278   6.753
10335POPC   C3A67505  32.238  32.230   7.053
10335POPC   C4A67506  32.240  32.251   7.353
10335POPC   C1B67507  32.069  32.125   6.453
10335POPC   C2B67508  32.017  32.117   6.753
10335POPC   C3B67509  32.039  32.133   7.053
10335POPC   C4B67510  31.991  32.084   7.353
10336POPC   NC367511  32.294  26.055   5.553
10336POPC   PO467512  32.272  26.006   5.853
10336POPC   GL167513  32.252  26.025   6.153
10336POPC   GL267514  32.340  25.929   6.153
10336POPC   C1A67515  32.293  26.045   6.453
10336POPC   D2A67516  32.222  26.020   6.753
10336POPC   C3A67517  32.260  26.034   7.053
10336POPC   C4A67518  32.218  26.039   7.353
10336POPC   C1B67519  32.504  25.930   6.453
10336POPC   C2B67520  32.505  25.957   6.753
10336POPC   C3B67521  32.456  25.948   7.053
10336POPC   C4B67522  32.496  25.917   7.353
10337POPC   NC367523   3.493  43.886   5.553
10337POPC   PO467524   3.517  43.845   5.853
10337POPC   GL167525   3.526  43.836   6.153
10337POPC   GL267526   3.437  43.995   6.153
10337POPC   C1A67527   3.507  43.842   6.453
10337POPC   D2A67528   3.510  43.890   6.753
10337POPC   C3A67529   3.541  43.931   7.053
10337POPC   C4A67530   3.501  43.880   7.353
10337POPC   C1B67531   3.417  44.080   6.453
10337POPC   C2B67532   3.396  44.049   6.753
10337POPC   C3B67533   3.400  44.095   7.053
10337POPC   C4B67534   3.388  44.065   7.353
10338POPC   NC367535  35.371  24.525   5.553
10338POPC   PO467536  35.391  24.513   5.853
10338POPC   GL167537  35.350  24.520   6.153
10338POPC   GL267538  35.519  24.511   6.153
10338POPC   C1A67539  35.367  24.442   6.453
10338POPC   D2A67540  35.366  24.519   6.753
10338POPC   C3A67541  35.400  24.502   7.053
10338POPC   C4A67542  35.356  24.487   7.353
10338POPC   C1B67543  35.642  24.475   6.453
10338POPC   C2B67544  35.626  24.455   6.753
10338POPC   C3B67545  35.581  24.422   7.053
10338POPC   C4B67546  35.642  24.453   7.353
10339POPC   NC367547  14.392  27.634   5.553
10339POPC   PO467548  14.445  27.638   5.853
10339POPC   GL167549  14.391  27.642   6.153
10339POPC   GL267550  14.311  27.546   6.153
10339POPC   C1A67551  14.387  27.641   6.453
10339POPC   D2A67552  14.366  27.643   6.753
10339POPC   C3A67553  14.415  27.584   7.053
10339POPC   C4A67554  14.374  27.596   7.353
10339POPC   C1B67555  14.279  27.441   6.453
10339POPC   C2B67556  14.267  27.380   6.753
10339POPC   C3B67557  14.282  27.372   7.053
10339POPC   C4B67558  14.228  27.432   7.353
10340POPC   NC367559  12.082  17.490   5.553
10340POPC   PO467560  12.045  17.516   5.853
10340POPC   GL167561  12.116  17.536   6.153
10340POPC   GL267562  12.145  17.413   6.153
10340POPC   C1A67563  12.084  17.481   6.453
10340POPC   D2A67564  12.080  17.459   6.753
10340POPC   C3A67565  12.047  17.502   7.053
10340POPC   C4A67566  12.120  17.514   7.353
10340POPC   C1B67567  12.231  17.346   6.453
10340POPC   C2B67568  12.248  17.340   6.753
10340POPC   C3B67569  12.279  17.301   7.053
10340POPC   C4B67570  12.254  17.314   7.353
10341POPC   NC367571  15.939   0.395   5.553
10341POPC   PO467572  15.933   0.428   5.853
10341POPC   GL167573  15.927   0.407   6.153
10341POPC   GL267574  16.009   0.322   6.153
10341POPC   C1A67575  15.923   0.427   6.453
10341POPC   D2A67576  15.924   0.478   6.753
10341POPC   C3A67577  15.920   0.484   7.053
10341POPC   C4A67578  15.924   0.484   7.353
10341POPC   C1B67579  16.100   0.261   6.453
10341POPC   C2B67580  16.136   0.238   6.753
10341POPC   C3B67581  16.074   0.218   7.053
10341POPC   C4B67582  16.132   0.272   7.353
10342POPC   NC367583   1.195  19.066   5.553
10342POPC   PO467584   1.244  19.096   5.853
10342POPC   GL167585   1.177  19.073   6.153
10342POPC   GL267586   1.207  18.975   6.153
10342POPC   C1A67587   1.208  19.099   6.453
10342POPC   D2A67588   1.230  19.072   6.753
10342POPC   C3A67589   1.182  19.042   7.053
10342POPC   C4A67590   1.217  19.015   7.353
10342POPC   C1B67591   1.231  18.857   6.453
10342POPC   C2B67592   1.207  18.779   6.753
10342POPC   C3B67593   1.144  18.808   7.053
10342POPC   C4B67594   1.179  18.766   7.353
10343POPC   NC367595  43.119  12.115   5.553
10343POPC   PO467596  43.097  12.076   5.853
10343POPC   GL167597  43.068  12.038   6.153
10343POPC   GL267598  43.217  12.003   6.153
10343POPC   C1A67599  43.105  12.102   6.453
10343POPC   D2A67600  43.072  12.048   6.753
10343POPC   C3A67601  43.126  12.064   7.053
10343POPC   C4A67602  43.079  12.069   7.353
10343POPC   C1B67603  43.199  11.901   6.453
10343POPC   C2B67604  43.273  11.870   6.753
10343POPC   C3B67605  43.273  11.910   7.053
10343POPC   C4B67606  43.203  11.908   7.353
10344POPC   NC367607  12.093   5.878   5.553
10344POPC   PO467608  12.051   5.872   5.853
10344POPC   GL167609  12.074   5.832   6.153
10344POPC   GL267610  12.236   5.782   6.153
10344POPC   C1A67611  12.061   5.823   6.453
10344POPC   D2A67612  12.041   5.864   6.753
10344POPC   C3A67613  12.077   5.845   7.053
10344POPC   C4A67614  12.053   5.881   7.353
10344POPC   C1B67615  12.279   5.733   6.453
10344POPC   C2B67616  12.349   5.752   6.753
10344POPC   C3B67617  12.348   5.788   7.053
10344POPC   C4B67618  12.322   5.746   7.353
10345POPC   NC367619  31.427   5.828   5.553
10345POPC   PO467620  31.459   5.819   5.853
10345POPC   GL167621  31.455   5.849   6.153
10345POPC   GL267622  31.579   5.959   6.153
10345POPC   C1A67623  31.455   5.840   6.453
10345POPC   D2A67624  31.470   5.849   6.753
10345POPC   C3A67625  31.486   5.824   7.053
10345POPC   C4A67626  31.517   5.858   7.353
10345POPC   C1B67627  31.737   5.997   6.453
10345POPC   C2B67628  31.742   6.000   6.753
10345POPC   C3B67629  31.664   5.928   7.053
10345POPC   C4B67630  31.666   5.982   7.353
10346POPC   NC367631  16.712  35.375   5.553
10346POPC   PO467632  16.741  35.316   5.853
10346POPC   GL167633  16.726  35.399   6.153
10346POPC   GL267634  16.752  35.276   6.153
10346POPC   C1A67635  16.780  35.306   6.453
10346POPC   D2A67636  16.781  35.398   6.753
10346POPC   C3A67637  16.723  35.361   7.053
10346POPC   C4A67638  16.780  35.310   7.353
10346POPC   C1B67639  16.718  35.117   6.453
10346POPC   C2B67640  16.757  35.104   6.753
10346POPC   C3B67641  16.741  35.146   7.053
10346POPC   C4B67642  16.752  35.132   7.353
10347POPC   NC367643  12.876  10.529   5.553
10347POPC   PO467644  12.808  10.574   5.853
10347POPC   GL167645  12.883  10.513   6.153
10347POPC   GL267646  12.768  10.575   6.153
10347POPC   C1A67647  12.889  10.570   6.453
10347POPC   D2A67648  12.837  10.565   6.753
10347POPC   C3A67649  12.860  10.485   7.053
10347POPC   C4A67650  12.817  10.507   7.353
10347POPC   C1B67651  12.627  10.709   6.453
10347POPC   C2B67652  12.706  10.666   6.753
10347POPC   C3B67653  12.652  10.730   7.053
10347POPC   C4B67654  12.690  10.722   7.353
10348POPC   NC367655  37.680   5.839   5.553
10348POPC   PO467656  37.725   5.916   5.853
10348POPC   GL167657  37.640   5.821   6.153
10348POPC   GL267658  37.696   6.019   6.153
10348POPC   C1A67659  37.701   5.912   6.453
10348POPC   D2A67660  37.710   5.863   6.753
10348POPC   C3A67661  37.683   5.896   7.053
10348POPC   C4A67662  37.662   5.859   7.353
10348POPC   C1B67663  37.753   6.099   6.453
10348POPC   C2B67664  37.700   6.156   6.753
10348POPC   C3B67665  37.799   6.157   7.053
10348POPC   C4B67666  37.733   6.118   7.353
10349POPC   NC367667  29.191  36.921   5.553
10349POPC   PO467668  29.163  36.897   5.853
10349POPC   GL167669  29.150  36.940   6.153
10349POPC   GL267670  29.069  36.779   6.153
10349POPC   C1A67671  29.122  36.948   6.453
10349POPC   D2A67672  29.185  36.908   6.753
10349POPC   C3A67673  29.157  36.869   7.053
10349POPC   C4A67674  29.163  36.896   7.353
10349POPC   C1B67675  29.026  36.700   6.453
10349POPC   C2B67676  29.029  36.717   6.753
10349POPC   C3B67677  29.066  36.651   7.053
10349POPC   C4B67678  29.095  36.676   7.353
10350POPC   NC367679   1.207  36.873   5.553
10350POPC   PO467680   1.196  36.940   5.853
10350POPC   GL167681   1.206  36.883   6.153
10350POPC   GL267682   1.303  36.831   6.153
10350POPC   C1A67683   1.248  36.949   6.453
10350POPC   D2A67684   1.221  36.938   6.753
10350POPC   C3A67685   1.245  36.870   7.053
10350POPC   C4A67686   1.166  36.917   7.353
10350POPC   C1B67687   1.474  36.825   6.453
10350POPC   C2B67688   1.473  36.849   6.753
10350POPC   C3B67689   1.458  36.849   7.053
10350POPC   C4B67690   1.433  36.805   7.353
10351POPC   NC367691  42.364  39.225   5.553
10351POPC   PO467692  42.349  39.216   5.853
10351POPC   GL167693  42.316  39.243   6.153
10351POPC   GL267694  42.377  39.165   6.153
10351POPC   C1A67695  42.295  39.268   6.453
10351POPC   D2A67696  42.289  39.212   6.753
10351POPC   C3A67697  42.357  39.253   7.053
10351POPC   C4A67698  42.349  39.219   7.353
10351POPC   C1B67699  42.445  39.001   6.453
10351POPC   C2B67700  42.471  38.989   6.753
10351POPC   C3B67701  42.432  39.030   7.053
10351POPC   C4B67702  42.483  38.998   7.353
10352POPC   NC367703  15.221  14.451   5.553
10352POPC   PO467704  15.208  14.437   5.853
10352POPC   GL167705  15.208  14.421   6.153
10352POPC   GL267706  15.026  14.448   6.153
10352POPC   C1A67707  15.227  14.430   6.453
10352POPC   D2A67708  15.164  14.392   6.753
10352POPC   C3A67709  15.153  14.378   7.053
10352POPC   C4A67710  15.141  14.381   7.353
10352POPC   C1B67711  14.939  14.440   6.453
10352POPC   C2B67712  14.918  14.426   6.753
10352POPC   C3B67713  14.973  14.417   7.053
10352POPC   C4B67714  14.918  14.387   7.353
10353POPC   NC367715   4.296  38.460   5.553
10353POPC   PO467716   4.268  38.468   5.853
10353POPC   GL167717   4.367  38.482   6.153
10353POPC   GL267718   4.204  38.459   6.153
10353POPC   C1A67719   4.345  38.504   6.453
10353POPC   D2A67720   4.348  38.501   6.753
10353POPC   C3A67721   4.319  38.469   7.053
10353POPC   C4A67722   4.352  38.426   7.353
10353POPC   C1B67723   4.109  38.475   6.453
10353POPC   C2B67724   4.041  38.475   6.753
10353POPC   C3B67725   4.059  38.452   7.053
10353POPC   C4B67726   4.045  38.493   7.353
10354POPC   NC367727  31.510  31.512   5.553
10354POPC   PO467728  31.465  31.460   5.853
10354POPC   GL167729  31.504  31.430   6.153
10354POPC   GL267730  31.462  31.601   6.153
10354POPC   C1A67731  31.482  31.518   6.453
10354POPC   D2A67732  31.477  31.483   6.753
10354POPC   C3A67733  31.460  31.506   7.053
10354POPC   C4A67734  31.461  31.435   7.353
10354POPC   C1B67735  31.378  31.711   6.453
10354POPC   C2B67736  31.400  31.754   6.753
10354POPC   C3B67737  31.399  31.753   7.053
10354POPC   C4B67738  31.409  31.691   7.353
10355POPC   NC367739  33.753   3.583   5.553
10355POPC   PO467740  33.816   3.537   5.853
10355POPC   GL167741  33.798   3.545   6.153
10355POPC   GL267742  33.908   3.449   6.153
10355POPC   C1A67743  33.785   3.539   6.453
10355POPC   D2A67744  33.752   3.534   6.753
10355POPC   C3A67745  33.829   3.589   7.053
10355POPC   C4A67746  33.814   3.565   7.353
10355POPC   C1B67747  34.016   3.478   6.453
10355POPC   C2B67748  34.071   3.419   6.753
10355POPC   C3B67749  34.051   3.476   7.053
10355POPC   C4B67750  34.075   3.429   7.353
10356POPC   NC367751   8.162  12.886   5.553
10356POPC   PO467752   8.174  12.880   5.853
10356POPC   GL167753   8.237  12.866   6.153
10356POPC   GL267754   8.317  12.815   6.153
10356POPC   C1A67755   8.245  12.848   6.453
10356POPC   D2A67756   8.177  12.848   6.753
10356POPC   C3A67757   8.172  12.818   7.053
10356POPC   C4A67758   8.148  12.806   7.353
10356POPC   C1B67759   8.468  12.895   6.453
10356POPC   C2B67760   8.451  12.869   6.753
10356POPC   C3B67761   8.402  12.921   7.053
10356POPC   C4B67762   8.468  12.876   7.353
10357POPC   NC367763  42.378  41.561   5.553
10357POPC   PO467764  42.308  41.532   5.853
10357POPC   GL167765  42.364  41.592   6.153
10357POPC   GL267766  42.236  41.472   6.153
10357POPC   C1A67767  42.316  41.547   6.453
10357POPC   D2A67768  42.317  41.564   6.753
10357POPC   C3A67769  42.288  41.532   7.053
10357POPC   C4A67770  42.314  41.519   7.353
10357POPC   C1B67771  42.168  41.381   6.453
10357POPC   C2B67772  42.207  41.335   6.753
10357POPC   C3B67773  42.213  41.393   7.053
10357POPC   C4B67774  42.251  41.308   7.353
10358POPC   NC367775  32.987   6.626   5.553
10358POPC   PO467776  33.023   6.688   5.853
10358POPC   GL167777  33.005   6.599   6.153
10358POPC   GL267778  33.088   6.606   6.153
10358POPC   C1A67779  33.000   6.662   6.453
10358POPC   D2A67780  33.005   6.680   6.753
10358POPC   C3A67781  33.053   6.615   7.053
10358POPC   C4A67782  32.981   6.615   7.353
10358POPC   C1B67783  33.183   6.490   6.453
10358POPC   C2B67784  33.242   6.546   6.753
10358POPC   C3B67785  33.185   6.550   7.053
10358POPC   C4B67786  33.200   6.518   7.353
10359POPC   NC367787  41.601   1.232   5.553
10359POPC   PO467788  41.524   1.165   5.853
10359POPC   GL167789  41.574   1.204   6.153
10359POPC   GL267790  41.545   1.075   6.153
10359POPC   C1A67791  41.602   1.237   6.453
10359POPC   D2A67792  41.554   1.255   6.753
10359POPC   C3A67793  41.513   1.199   7.053
10359POPC   C4A67794  41.565   1.252   7.353
10359POPC   C1B67795  41.593   0.959   6.453
10359POPC   C2B67796  41.573   0.956   6.753
10359POPC   C3B67797  41.621   0.986   7.053
10359POPC   C4B67798  41.618   0.971   7.353
10360POPC   NC367799  10.491  10.527   5.553
10360POPC   PO467800  10.492  10.555   5.853
10360POPC   GL167801  10.564  10.499   6.153
10360POPC   GL267802  10.589  10.656   6.153
10360POPC   C1A67803  10.527  10.522   6.453
10360POPC   D2A67804  10.528  10.508   6.753
10360POPC   C3A67805  10.550  10.557   7.053
10360POPC   C4A67806  10.513  10.516   7.353
10360POPC   C1B67807  10.650  10.755   6.453
10360POPC   C2B67808  10.626  10.771   6.753
10360POPC   C3B67809  10.690  10.744   7.053
10360POPC   C4B67810  10.619  10.710   7.353
10361POPC   NC367811   5.067  37.704   5.553
10361POPC   PO467812   5.108  37.694   5.853
10361POPC   GL167813   5.110  37.651   6.153
10361POPC   GL267814   5.082  37.577   6.153
10361POPC   C1A67815   5.115  37.667   6.453
10361POPC   D2A67816   5.123  37.718   6.753
10361POPC   C3A67817   5.069  37.710   7.053
10361POPC   C4A67818   5.142  37.710   7.353
10361POPC   C1B67819   5.201  37.429   6.453
10361POPC   C2B67820   5.120  37.398   6.753
10361POPC   C3B67821   5.140  37.483   7.053
10361POPC   C4B67822   5.123  37.457   7.353
10362POPC   NC367823  43.884  26.053   5.553
10362POPC   PO467824  43.873  26.080   5.853
10362POPC   GL167825  43.900  26.087   6.153
10362POPC   GL267826  43.722  26.131   6.153
10362POPC   C1A67827  43.907  26.036   6.453
10362POPC   D2A67828  43.862  26.079   6.753
10362POPC   C3A67829  43.863  26.043   7.053
10362POPC   C4A67830  43.852  26.090   7.353
10362POPC   C1B67831  43.640  26.102   6.453
10362POPC   C2B67832  43.686  26.099   6.753
10362POPC   C3B67833  43.616  26.124   7.053
10362POPC   C4B67834  43.667  26.128   7.353
10363POPC   NC367835   7.373  10.561   5.553
10363POPC   PO467836   7.431  10.570   5.853
10363POPC   GL167837   7.382  10.483   6.153
10363POPC   GL267838   7.547  10.567   6.153
10363POPC   C1A67839   7.404  10.483   6.453
10363POPC   D2A67840   7.433  10.521   6.753
10363POPC   C3A67841   7.417  10.558   7.053
10363POPC   C4A67842   7.435  10.531   7.353
10363POPC   C1B67843   7.693  10.517   6.453
10363POPC   C2B67844   7.673  10.507   6.753
10363POPC   C3B67845   7.627  10.568   7.053
10363POPC   C4B67846   7.706  10.572   7.353
10364POPC   NC367847   5.875  38.450   5.553
10364POPC   PO467848   5.874  38.429   5.853
10364POPC   GL167849   5.844  38.479   6.153
10364POPC   GL267850   5.946  38.426   6.153
10364POPC   C1A67851   5.918  38.427   6.453
10364POPC   D2A67852   5.872  38.471   6.753
10364POPC   C3A67853   5.866  38.416   7.053
10364POPC   C4A67854   5.862  38.481   7.353
10364POPC   C1B67855   6.096  38.421   6.453
10364POPC   C2B67856   6.084  38.348   6.753
10364POPC   C3B67857   6.064  38.414   7.053
10364POPC   C4B67858   6.080  38.423   7.353
10365POPC   NC367859  24.482  22.210   5.553
10365POPC   PO467860  24.492  22.190   5.853
10365POPC   GL167861  24.505  22.124   6.153
10365POPC   GL267862  24.586  22.036   6.153
10365POPC   C1A67863  24.469  22.154   6.453
10365POPC   D2A67864  24.440  22.153   6.753
10365POPC   C3A67865  24.479  22.188   7.053
10365POPC   C4A67866  24.521  22.114   7.353
10365POPC   C1B67867  24.704  21.962   6.453
10365POPC   C2B67868  24.715  21.946   6.753
10365POPC   C3B67869  24.627  22.036   7.053
10365POPC   C4B67870  24.684  22.017   7.353
10366POPC   NC367871  22.122  43.894   5.553
10366POPC   PO467872  22.193  43.871   5.853
10366POPC   GL167873  22.136  43.879   6.153
10366POPC   GL267874  22.217  43.809   6.153
10366POPC   C1A67875  22.126  43.927   6.453
10366POPC   D2A67876  22.168  43.883   6.753
10366POPC   C3A67877  22.158  43.909   7.053
10366POPC   C4A67878  22.135  43.918   7.353
10366POPC   C1B67879  22.211  43.621   6.453
10366POPC   C2B67880  22.200  43.667   6.753
10366POPC   C3B67881  22.163  43.594   7.053
10366POPC   C4B67882  22.159  43.657   7.353
10367POPC   NC367883  17.545  28.336   5.553
10367POPC   PO467884  17.533  28.333   5.853
10367POPC   GL167885  17.497  28.328   6.153
10367POPC   GL267886  17.475  28.264   6.153
10367POPC   C1A67887  17.527  28.358   6.453
10367POPC   D2A67888  17.528  28.320   6.753
10367POPC   C3A67889  17.477  28.418   7.053
10367POPC   C4A67890  17.521  28.327   7.353
10367POPC   C1B67891  17.520  28.161   6.453
10367POPC   C2B67892  17.481  28.132   6.753
10367POPC   C3B67893  17.432  28.140   7.053
10367POPC   C4B67894  17.434  28.151   7.353
10368POPC   NC367895   5.901  30.658   5.553
10368POPC   PO467896   5.845  30.668   5.853
10368POPC   GL167897   5.901  30.655   6.153
10368POPC   GL267898   5.753  30.689   6.153
10368POPC   C1A67899   5.899  30.700   6.453
10368POPC   D2A67900   5.891  30.707   6.753
10368POPC   C3A67901   5.860  30.664   7.053
10368POPC   C4A67902   5.854  30.674   7.353
10368POPC   C1B67903   5.639  30.598   6.453
10368POPC   C2B67904   5.667  30.582   6.753
10368POPC   C3B67905   5.643  30.635   7.053
10368POPC   C4B67906   5.616  30.651   7.353
10369POPC   NC367907  35.400  29.183   5.553
10369POPC   PO467908  35.316  29.117   5.853
10369POPC   GL167909  35.392  29.161   6.153
10369POPC   GL267910  35.453  29.210   6.153
10369POPC   C1A67911  35.344  29.166   6.453
10369POPC   D2A67912  35.372  29.115   6.753
10369POPC   C3A67913  35.386  29.159   7.053
10369POPC   C4A67914  35.358  29.157   7.353
10369POPC   C1B67915  35.610  29.221   6.453
10369POPC   C2B67916  35.624  29.287   6.753
10369POPC   C3B67917  35.541  29.234   7.053
10369POPC   C4B67918  35.543  29.241   7.353
10370POPC   NC367919  24.468  37.672   5.553
10370POPC   PO467920  24.503  37.729   5.853
10370POPC   GL167921  24.452  37.644   6.153
10370POPC   GL267922  24.416  37.679   6.153
10370POPC   C1A67923  24.459  37.671   6.453
10370POPC   D2A67924  24.473  37.695   6.753
10370POPC   C3A67925  24.490  37.685   7.053
10370POPC   C4A67926  24.492  37.681   7.353
10370POPC   C1B67927  24.205  37.716   6.453
10370POPC   C2B67928  24.211  37.771   6.753
10370POPC   C3B67929  24.231  37.691   7.053
10370POPC   C4B67930  24.262  37.754   7.353
10371POPC   NC367931  12.878  41.583   5.553
10371POPC   PO467932  12.816  41.543   5.853
10371POPC   GL167933  12.828  41.538   6.153
10371POPC   GL267934  12.851  41.706   6.153
10371POPC   C1A67935  12.807  41.565   6.453
10371POPC   D2A67936  12.809  41.549   6.753
10371POPC   C3A67937  12.826  41.518   7.053
10371POPC   C4A67938  12.831  41.537   7.353
10371POPC   C1B67939  12.825  41.772   6.453
10371POPC   C2B67940  12.860  41.858   6.753
10371POPC   C3B67941  12.852  41.848   7.053
10371POPC   C4B67942  12.855  41.846   7.353
10372POPC   NC367943  35.357   7.456   5.553
10372POPC   PO467944  35.402   7.423   5.853
10372POPC   GL167945  35.343   7.439   6.153
10372POPC   GL267946  35.413   7.563   6.153
10372POPC   C1A67947  35.396   7.415   6.453
10372POPC   D2A67948  35.347   7.458   6.753
10372POPC   C3A67949  35.361   7.393   7.053
10372POPC   C4A67950  35.376   7.449   7.353
10372POPC   C1B67951  35.440   7.675   6.453
10372POPC   C2B67952  35.413   7.646   6.753
10372POPC   C3B67953  35.366   7.623   7.053
10372POPC   C4B67954  35.360   7.662   7.353
10373POPC   NC367955   4.268  29.971   5.553
10373POPC   PO467956   4.274  29.882   5.853
10373POPC   GL167957   4.273  29.898   6.153
10373POPC   GL267958   4.212  29.882   6.153
10373POPC   C1A67959   4.288  29.942   6.453
10373POPC   D2A67960   4.277  29.927   6.753
10373POPC   C3A67961   4.292  29.965   7.053
10373POPC   C4A67962   4.300  29.899   7.353
10373POPC   C1B67963   4.084  29.701   6.453
10373POPC   C2B67964   4.091  29.703   6.753
10373POPC   C3B67965   4.096  29.801   7.053
10373POPC   C4B67966   4.092  29.784   7.353
10374POPC   NC367967  40.741  33.754   5.553
10374POPC   PO467968  40.799  33.759   5.853
10374POPC   GL167969  40.828  33.792   6.153
10374POPC   GL267970  40.787  33.663   6.153
10374POPC   C1A67971  40.754  33.810   6.453
10374POPC   D2A67972  40.790  33.770   6.753
10374POPC   C3A67973  40.803  33.846   7.053
10374POPC   C4A67974  40.751  33.808   7.353
10374POPC   C1B67975  40.833  33.528   6.453
10374POPC   C2B67976  40.864  33.515   6.753
10374POPC   C3B67977  40.833  33.602   7.053
10374POPC   C4B67978  40.836  33.520   7.353
10375POPC   NC367979  34.527  10.513   5.553
10375POPC   PO467980  34.558  10.546   5.853
10375POPC   GL167981  34.569  10.549   6.153
10375POPC   GL267982  34.586  10.366   6.153
10375POPC   C1A67983  34.596  10.512   6.453
10375POPC   D2A67984  34.576  10.513   6.753
10375POPC   C3A67985  34.581  10.539   7.053
10375POPC   C4A67986  34.609  10.511   7.353
10375POPC   C1B67987  34.625  10.298   6.453
10375POPC   C2B67988  34.672  10.331   6.753
10375POPC   C3B67989  34.676  10.241   7.053
10375POPC   C4B67990  34.626  10.308   7.353
10376POPC   NC367991  32.295  20.565   5.553
10376POPC   PO467992  32.201  20.616   5.853
10376POPC   GL167993  32.224  20.606   6.153
10376POPC   GL267994  32.214  20.526   6.153
10376POPC   C1A67995  32.247  20.628   6.453
10376POPC   D2A67996  32.237  20.606   6.753
10376POPC   C3A67997  32.200  20.642   7.053
10376POPC   C4A67998  32.273  20.612   7.353
10376POPC   C1B67999  32.221  20.334   6.453
10376POPC   C2B68000  32.277  20.346   6.753
10376POPC   C3B68001  32.264  20.407   7.053
10376POPC   C4B68002  32.239  20.336   7.353
10377POPC   NC368003  23.708   8.924   5.553
10377POPC   PO468004  23.667   8.990   5.853
10377POPC   GL168005  23.759   8.924   6.153
10377POPC   GL268006  23.707   9.118   6.153
10377POPC   C1A68007  23.705   8.990   6.453
10377POPC   D2A68008  23.685   8.977   6.753
10377POPC   C3A68009  23.673   8.991   7.053
10377POPC   C4A68010  23.687   9.013   7.353
10377POPC   C1B68011  23.747   9.242   6.453
10377POPC   C2B68012  23.808   9.170   6.753
10377POPC   C3B68013  23.750   9.188   7.053
10377POPC   C4B68014  23.768   9.239   7.353
10378POPC   NC368015   8.973  18.288   5.553
10378POPC   PO468016   8.992  18.305   5.853
10378POPC   GL168017   8.946  18.299   6.153
10378POPC   GL268018   9.110  18.299   6.153
10378POPC   C1A68019   8.973  18.242   6.453
10378POPC   D2A68020   8.995  18.292   6.753
10378POPC   C3A68021   8.970  18.253   7.053
10378POPC   C4A68022   8.969  18.295   7.353
10378POPC   C1B68023   9.181  18.219   6.453
10378POPC   C2B68024   9.228  18.260   6.753
10378POPC   C3B68025   9.250  18.227   7.053
10378POPC   C4B68026   9.211  18.249   7.353
10379POPC   NC368027  16.706  33.775   5.553
10379POPC   PO468028  16.762  33.833   5.853
10379POPC   GL168029  16.768  33.762   6.153
10379POPC   GL268030  16.586  33.908   6.153
10379POPC   C1A68031  16.745  33.805   6.453
10379POPC   D2A68032  16.686  33.836   6.753
10379POPC   C3A68033  16.730  33.770   7.053
10379POPC   C4A68034  16.777  33.813   7.353
10379POPC   C1B68035  16.556  33.897   6.453
10379POPC   C2B68036  16.542  33.926   6.753
10379POPC   C3B68037  16.517  33.923   7.053
10379POPC   C4B68038  16.546  33.979   7.353
10380POPC   NC368039   2.773  14.401   5.553
10380POPC   PO468040   2.760  14.449   5.853
10380POPC   GL168041   2.790  14.426   6.153
10380POPC   GL268042   2.681  14.507   6.153
10380POPC   C1A68043   2.785  14.358   6.453
10380POPC   D2A68044   2.744  14.389   6.753
10380POPC   C3A68045   2.799  14.357   7.053
10380POPC   C4A68046   2.735  14.416   7.353
10380POPC   C1B68047   2.659  14.618   6.453
10380POPC   C2B68048   2.607  14.641   6.753
10380POPC   C3B68049   2.632  14.639   7.053
10380POPC   C4B68050   2.631  14.591   7.353
10381POPC   NC368051   5.911  15.937   5.553
10381POPC   PO468052   5.911  15.951   5.853
10381POPC   GL168053   5.917  15.972   6.153
10381POPC   GL268054   6.004  15.859   6.153
10381POPC   C1A68055   5.824  15.966   6.453
10381POPC   D2A68056   5.846  15.948   6.753
10381POPC   C3A68057   5.913  15.942   7.053
10381POPC   C4A68058   5.878  15.943   7.353
10381POPC   C1B68059   6.029  15.755   6.453
10381POPC   C2B68060   6.021  15.777   6.753
10381POPC   C3B68061   6.071  15.773   7.053
10381POPC   C4B68062   6.114  15.770   7.353
10382POPC   NC368063  41.552  44.679   5.553
10382POPC   PO468064  41.571  44.692   5.853
10382POPC   GL168065  41.544  44.669   6.153
10382POPC   GL268066  41.556  44.533   6.153
10382POPC   C1A68067  41.529  44.637   6.453
10382POPC   D2A68068  41.594  44.650   6.753
10382POPC   C3A68069  41.524  44.662   7.053
10382POPC   C4A68070  41.570  44.693   7.353
10382POPC   C1B68071  41.503  44.445   6.453
10382POPC   C2B68072  41.541  44.368   6.753
10382POPC   C3B68073  41.492  44.424   7.053
10382POPC   C4B68074  41.519  44.372   7.353
10383POPC   NC368075  29.883  37.662   5.553
10383POPC   PO468076  29.917  37.721   5.853
10383POPC   GL168077  29.901  37.662   6.153
10383POPC   GL268078  29.931  37.796   6.153
10383POPC   C1A68079  29.935  37.662   6.453
10383POPC   D2A68080  29.915  37.671   6.753
10383POPC   C3A68081  29.914  37.729   7.053
10383POPC   C4A68082  29.882  37.720   7.353
10383POPC   C1B68083  29.936  37.923   6.453
10383POPC   C2B68084  29.977  37.958   6.753
10383POPC   C3B68085  29.947  37.976   7.053
10383POPC   C4B68086  29.977  37.962   7.353
10384POPC   NC368087  32.240  29.142   5.553
10384POPC   PO468088  32.237  29.127   5.853
10384POPC   GL168089  32.236  29.137   6.153
10384POPC   GL268090  32.399  29.128   6.153
10384POPC   C1A68091  32.215  29.185   6.453
10384POPC   D2A68092  32.274  29.143   6.753
10384POPC   C3A68093  32.284  29.170   7.053
10384POPC   C4A68094  32.251  29.117   7.353
10384POPC   C1B68095  32.502  29.110   6.453
10384POPC   C2B68096  32.494  29.187   6.753
10384POPC   C3B68097  32.522  29.131   7.053
10384POPC   C4B68098  32.520  29.173   7.353
10385POPC   NC368099   8.978  37.650   5.553
10385POPC   PO468100   9.007  37.724   5.853
10385POPC   GL168101   8.966  37.718   6.153
10385POPC   GL268102   8.935  37.529   6.153
10385POPC   C1A68103   8.971  37.642   6.453
10385POPC   D2A68104   8.947  37.664   6.753
10385POPC   C3A68105   8.980  37.717   7.053
10385POPC   C4A68106   8.975  37.692   7.353
10385POPC   C1B68107   8.866  37.502   6.453
10385POPC   C2B68108   8.806  37.463   6.753
10385POPC   C3B68109   8.861  37.503   7.053
10385POPC   C4B68110   8.793  37.469   7.353
10386POPC   NC368111  16.689  15.162   5.553
10386POPC   PO468112  16.761  15.200   5.853
10386POPC   GL168113  16.703  15.179   6.153
10386POPC   GL268114  16.801  15.034   6.153
10386POPC   C1A68115  16.731  15.213   6.453
10386POPC   D2A68116  16.719  15.155   6.753
10386POPC   C3A68117  16.721  15.217   7.053
10386POPC   C4A68118  16.719  15.172   7.353
10386POPC   C1B68119  16.859  14.993   6.453
10386POPC   C2B68120  16.850  14.938   6.753
10386POPC   C3B68121  16.869  14.996   7.053
10386POPC   C4B68122  16.863  14.995   7.353
10387POPC   NC368123  39.199   3.504   5.553
10387POPC   PO468124  39.198   3.512   5.853
10387POPC   GL168125  39.240   3.555   6.153
10387POPC   GL268126  39.312   3.601   6.153
10387POPC   C1A68127  39.195   3.566   6.453
10387POPC   D2A68128  39.209   3.524   6.753
10387POPC   C3A68129  39.219   3.578   7.053
10387POPC   C4A68130  39.211   3.555   7.353
10387POPC   C1B68131  39.408   3.686   6.453
10387POPC   C2B68132  39.443   3.693   6.753
10387POPC   C3B68133  39.482   3.660   7.053
10387POPC   C4B68134  39.482   3.660   7.353
10388POPC   NC368135  28.403  11.308   5.553
10388POPC   PO468136  28.347  11.262   5.853
10388POPC   GL168137  28.418  11.280   6.153
10388POPC   GL268138  28.258  11.289   6.153
10388POPC   C1A68139  28.349  11.300   6.453
10388POPC   D2A68140  28.414  11.314   6.753
10388POPC   C3A68141  28.361  11.311   7.053
10388POPC   C4A68142  28.396  11.327   7.353
10388POPC   C1B68143  28.118  11.290   6.453
10388POPC   C2B68144  28.130  11.226   6.753
10388POPC   C3B68145  28.112  11.287   7.053
10388POPC   C4B68146  28.169  11.242   7.353
10389POPC   NC368147  22.921  32.199   5.553
10389POPC   PO468148  22.963  32.206   5.853
10389POPC   GL168149  22.897  32.221   6.153
10389POPC   GL268150  22.993  32.084   6.153
10389POPC   C1A68151  22.895  32.229   6.453
10389POPC   D2A68152  22.893  32.216   6.753
10389POPC   C3A68153  22.892  32.276   7.053
10389POPC   C4A68154  22.920  32.249   7.353
10389POPC   C1B68155  23.022  32.025   6.453
10389POPC   C2B68156  23.066  31.995   6.753
10389POPC   C3B68157  23.052  32.060   7.053
10389POPC   C4B68158  23.035  32.062   7.353
10390POPC   NC368159   4.308  11.299   5.553
10390POPC   PO468160   4.269  11.310   5.853
10390POPC   GL168161   4.275  11.279   6.153
10390POPC   GL268162   4.166  11.178   6.153
10390POPC   C1A68163   4.298  11.321   6.453
10390POPC   D2A68164   4.271  11.255   6.753
10390POPC   C3A68165   4.328  11.333   7.053
10390POPC   C4A68166   4.323  11.270   7.353
10390POPC   C1B68167   4.104  11.152   6.453
10390POPC   C2B68168   4.089  11.153   6.753
10390POPC   C3B68169   4.151  11.186   7.053
10390POPC   C4B68170   4.068  11.166   7.353
10391POPC   NC368171   8.933  28.343   5.553
10391POPC   PO468172   8.935  28.359   5.853
10391POPC   GL168173   8.946  28.373   6.153
10391POPC   GL268174   8.918  28.513   6.153
10391POPC   C1A68175   8.981  28.336   6.453
10391POPC   D2A68176   8.960  28.319   6.753
10391POPC   C3A68177   8.966  28.363   7.053
10391POPC   C4A68178   8.966  28.409   7.353
10391POPC   C1B68179   8.989  28.632   6.453
10391POPC   C2B68180   8.986  28.614   6.753
10391POPC   C3B68181   8.919  28.644   7.053
10391POPC   C4B68182   8.927  28.665   7.353
10392POPC   NC368183  21.368  30.655   5.553
10392POPC   PO468184  21.340  30.650   5.853
10392POPC   GL168185  21.396  30.648   6.153
10392POPC   GL268186  21.285  30.697   6.153
10392POPC   C1A68187  21.344  30.647   6.453
10392POPC   D2A68188  21.344  30.702   6.753
10392POPC   C3A68189  21.413  30.717   7.053
10392POPC   C4A68190  21.407  30.723   7.353
10392POPC   C1B68191  21.186  30.803   6.453
10392POPC   C2B68192  21.140  30.748   6.753
10392POPC   C3B68193  21.128  30.742   7.053
10392POPC   C4B68194  21.142  30.799   7.353
10393POPC   NC368195  28.324  30.721   5.553
10393POPC   PO468196  28.325  30.744   5.853
10393POPC   GL168197  28.395  30.661   6.153
10393POPC   GL268198  28.420  30.843   6.153
10393POPC   C1A68199  28.339  30.652   6.453
10393POPC   D2A68200  28.362  30.655   6.753
10393POPC   C3A68201  28.374  30.724   7.053
10393POPC   C4A68202  28.362  30.649   7.353
10393POPC   C1B68203  28.541  30.884   6.453
10393POPC   C2B68204  28.530  30.852   6.753
10393POPC   C3B68205  28.479  30.943   7.053
10393POPC   C4B68206  28.530  30.880   7.353
10394POPC   NC368207  18.251   8.997   5.553
10394POPC   PO468208  18.283   8.987   5.853
10394POPC   GL168209  18.296   8.955   6.153
10394POPC   GL268210  18.154   8.995   6.153
10394POPC   C1A68211  18.249   9.006   6.453
10394POPC   D2A68212  18.238   8.964   6.753
10394POPC   C3A68213  18.270   8.998   7.053
10394POPC   C4A68214  18.239   8.923   7.353
10394POPC   C1B68215  18.000   9.011   6.453
10394POPC   C2B68216  18.079   9.015   6.753
10394POPC   C3B68217  17.994   8.935   7.053
10394POPC   C4B68218  18.052   9.006   7.353
10395POPC   NC368219  42.306  43.842   5.553
10395POPC   PO468220  42.332  43.904   5.853
10395POPC   GL168221  42.383  43.876   6.153
10395POPC   GL268222  42.391  43.779   6.153
10395POPC   C1A68223  42.303  43.851   6.453
10395POPC   D2A68224  42.298  43.865   6.753
10395POPC   C3A68225  42.291  43.865   7.053
10395POPC   C4A68226  42.308  43.844   7.353
10395POPC   C1B68227  42.478  43.646   6.453
10395POPC   C2B68228  42.478  43.678   6.753
10395POPC   C3B68229  42.485  43.670   7.053
10395POPC   C4B68230  42.507  43.671   7.353
10396POPC   NC368231  14.406  33.806   5.553
10396POPC   PO468232  14.431  33.819   5.853
10396POPC   GL168233  14.384  33.789   6.153
10396POPC   GL268234  14.380  33.934   6.153
10396POPC   C1A68235  14.433  33.808   6.453
10396POPC   D2A68236  14.368  33.796   6.753
10396POPC   C3A68237  14.426  33.847   7.053
10396POPC   C4A68238  14.433  33.807   7.353
10396POPC   C1B68239  14.303  34.033   6.453
10396POPC   C2B68240  14.249  34.056   6.753
10396POPC   C3B68241  14.257  33.964   7.053
10396POPC   C4B68242  14.298  33.966   7.353
10397POPC   NC368243   2.031  43.857   5.553
10397POPC   PO468244   1.955  43.875   5.853
10397POPC   GL168245   1.974  43.886   6.153
10397POPC   GL268246   1.920  43.844   6.153
10397POPC   C1A68247   1.947  43.864   6.453
10397POPC   D2A68248   1.963  43.889   6.753
10397POPC   C3A68249   1.950  43.894   7.053
10397POPC   C4A68250   2.039  43.896   7.353
10397POPC   C1B68251   1.812  43.703   6.453
10397POPC   C2B68252   1.850  43.717   6.753
10397POPC   C3B68253   1.817  43.748   7.053
10397POPC   C4B68254   1.833  43.703   7.353
10398POPC   NC368255  43.932   4.314   5.553
10398POPC   PO468256  43.838   4.341   5.853
10398POPC   GL168257  43.932   4.359   6.153
10398POPC   GL268258  43.943   4.482   6.153
10398POPC   C1A68259  43.851   4.330   6.453
10398POPC   D2A68260  43.883   4.296   6.753
10398POPC   C3A68261  43.851   4.317   7.053
10398POPC   C4A68262  43.862   4.356   7.353
10398POPC   C1B68263  43.950   4.535   6.453
10398POPC   C2B68264  43.901   4.517   6.753
10398POPC   C3B68265  43.916   4.532   7.053
10398POPC   C4B68266  43.952   4.570   7.353
10399POPC   NC368267  43.099  24.508   5.553
10399POPC   PO468268  43.094  24.501   5.853
10399POPC   GL168269  43.115  24.453   6.153
10399POPC   GL268270  43.064  24.606   6.153
10399POPC   C1A68271  43.151  24.498   6.453
10399POPC   D2A68272  43.124  24.468   6.753
10399POPC   C3A68273  43.134  24.476   7.053
10399POPC   C4A68274  43.080  24.485   7.353
10399POPC   C1B68275  43.015  24.694   6.453
10399POPC   C2B68276  42.982  24.713   6.753
10399POPC   C3B68277  42.968  24.731   7.053
10399POPC   C4B68278  43.033  24.680   7.353
10400POPC   NC368279  22.941   5.046   5.553
10400POPC   PO468280  22.935   5.076   5.853
10400POPC   GL168281  22.897   5.113   6.153
10400POPC   GL268282  22.791   5.152   6.153
10400POPC   C1A68283  22.927   5.115   6.453
10400POPC   D2A68284  22.943   5.140   6.753
10400POPC   C3A68285  22.937   5.064   7.053
10400POPC   C4A68286  22.977   5.092   7.353
10400POPC   C1B68287  22.705   5.239   6.453
10400POPC   C2B68288  22.683   5.264   6.753
10400POPC   C3B68289  22.711   5.257   7.053
10400POPC   C4B68290  22.731   5.191   7.353
10401POPC   NC368291  26.027  33.828   5.553
10401POPC   PO468292  26.069  33.753   5.853
10401POPC   GL168293  26.045  33.819   6.153
10401POPC   GL268294  26.045  33.921   6.153
10401POPC   C1A68295  26.037  33.846   6.453
10401POPC   D2A68296  26.038  33.840   6.753
10401POPC   C3A68297  26.088  33.786   7.053
10401POPC   C4A68298  26.009  33.776   7.353
10401POPC   C1B68299  25.943  33.984   6.453
10401POPC   C2B68300  25.917  34.056   6.753
10401POPC   C3B68301  25.973  34.003   7.053
10401POPC   C4B68302  25.974  34.015   7.353
10402POPC   NC368303  23.741  11.271   5.553
10402POPC   PO468304  23.727  11.316   5.853
10402POPC   GL168305  23.685  11.331   6.153
10402POPC   GL268306  23.759  11.421   6.153
10402POPC   C1A68307  23.749  11.254   6.453
10402POPC   D2A68308  23.672  11.346   6.753
10402POPC   C3A68309  23.674  11.307   7.053
10402POPC   C4A68310  23.701  11.337   7.353
10402POPC   C1B68311  23.861  11.475   6.453
10402POPC   C2B68312  23.793  11.572   6.753
10402POPC   C3B68313  23.823  11.572   7.053
10402POPC   C4B68314  23.824  11.568   7.353
10403POPC   NC368315   5.868  32.205   5.553
10403POPC   PO468316   5.856  32.212   5.853
10403POPC   GL168317   5.839  32.206   6.153
10403POPC   GL268318   5.788  32.292   6.153
10403POPC   C1A68319   5.913  32.205   6.453
10403POPC   D2A68320   5.831  32.203   6.753
10403POPC   C3A68321   5.887  32.272   7.053
10403POPC   C4A68322   5.874  32.262   7.353
10403POPC   C1B68323   5.603  32.291   6.453
10403POPC   C2B68324   5.589  32.298   6.753
10403POPC   C3B68325   5.586  32.332   7.053
10403POPC   C4B68326   5.653  32.378   7.353
10404POPC   NC368327  26.055  43.916   5.553
10404POPC   PO468328  26.066  43.865   5.853
10404POPC   GL168329  26.091  43.868   6.153
10404POPC   GL268330  25.985  44.019   6.153
10404POPC   C1A68331  26.041  43.934   6.453
10404POPC   D2A68332  26.035  43.910   6.753
10404POPC   C3A68333  26.023  43.930   7.053
10404POPC   C4A68334  25.992  43.916   7.353
10404POPC   C1B68335  25.904  44.063   6.453
10404POPC   C2B68336  25.869  44.076   6.753
10404POPC   C3B68337  25.865  44.069   7.053
10404POPC   C4B68338  25.932  44.081   7.353
10405POPC   NC368339  31.449  29.888   5.553
10405POPC   PO468340  31.457  29.875   5.853
10405POPC   GL168341  31.457  29.911   6.153
10405POPC   GL268342  31.546  29.798   6.153
10405POPC   C1A68343  31.432  29.960   6.453
10405POPC   D2A68344  31.429  29.966   6.753
10405POPC   C3A68345  31.442  29.892   7.053
10405POPC   C4A68346  31.480  29.874   7.353
10405POPC   C1B68347  31.555  29.739   6.453
10405POPC   C2B68348  31.565  29.706   6.753
10405POPC   C3B68349  31.623  29.739   7.053
10405POPC   C4B68350  31.580  29.665   7.353
10406POPC   NC368351   5.045   7.453   5.553
10406POPC   PO468352   5.125   7.401   5.853
10406POPC   GL168353   5.093   7.469   6.153
10406POPC   GL268354   4.959   7.420   6.153
10406POPC   C1A68355   5.067   7.439   6.453
10406POPC   D2A68356   5.056   7.463   6.753
10406POPC   C3A68357   5.078   7.411   7.053
10406POPC   C4A68358   5.080   7.396   7.353
10406POPC   C1B68359   4.891   7.504   6.453
10406POPC   C2B68360   4.871   7.496   6.753
10406POPC   C3B68361   4.870   7.437   7.053
10406POPC   C4B68362   4.885   7.448   7.353
10407POPC   NC368363  25.281  44.626   5.553
10407POPC   PO468364  25.253  44.653   5.853
10407POPC   GL168365  25.284  44.663   6.153
10407POPC   GL268366  25.396  44.676   6.153
10407POPC   C1A68367  25.233  44.616   6.453
10407POPC   D2A68368  25.307  44.616   6.753
10407POPC   C3A68369  25.304  44.652   7.053
10407POPC   C4A68370  25.309  44.639   7.353
10407POPC   C1B68371  25.543  44.710   6.453
10407POPC   C2B68372  25.553  44.746   6.753
10407POPC   C3B68373  25.471  44.733   7.053
10407POPC   C4B68374  25.554  44.721   7.353
10408POPC   NC368375  15.188  36.153   5.553
10408POPC   PO468376  15.132  36.145   5.853
10408POPC   GL168377  15.152  36.140   6.153
10408POPC   GL268378  15.205  36.261   6.153
10408POPC   C1A68379  15.152  36.152   6.453
10408POPC   D2A68380  15.177  36.121   6.753
10408POPC   C3A68381  15.134  36.175   7.053
10408POPC   C4A68382  15.185  36.119   7.353
10408POPC   C1B68383  15.276  36.365   6.453
10408POPC   C2B68384  15.332  36.374   6.753
10408POPC   C3B68385  15.248  36.393   7.053
10408POPC   C4B68386  15.299  36.307   7.353
10409POPC   NC368387  15.212  40.825   5.553
10409POPC   PO468388  15.180  40.737   5.853
10409POPC   GL168389  15.156  40.802   6.153
10409POPC   GL268390  15.112  40.834   6.153
10409POPC   C1A68391  15.217  40.765   6.453
10409POPC   D2A68392  15.191  40.768   6.753
10409POPC   C3A68393  15.167  40.745   7.053
10409POPC   C4A68394  15.136  40.805   7.353
10409POPC   C1B68395  14.905  40.885   6.453
10409POPC   C2B68396  14.975  40.853   6.753
10409POPC   C3B68397  14.953  40.834   7.053
10409POPC   C4B68398  14.915  40.852   7.353
10410POPC   NC368399  23.740  16.714   5.553
10410POPC   PO468400  23.721  16.780   5.853
10410POPC   GL168401  23.740  16.730   6.153
10410POPC   GL268402  23.748  16.627   6.153
10410POPC   C1A68403  23.694  16.729   6.453
10410POPC   D2A68404  23.690  16.714   6.753
10410POPC   C3A68405  23.723  16.698   7.053
10410POPC   C4A68406  23.674  16.722   7.353
10410POPC   C1B68407  23.898  16.567   6.453
10410POPC   C2B68408  23.825  16.564   6.753
10410POPC   C3B68409  23.847  16.568   7.053
10410POPC   C4B68410  23.858  16.536   7.353
10411POPC   NC368411  42.321   7.425   5.553
10411POPC   PO468412  42.360   7.457   5.853
10411POPC   GL168413  42.313   7.468   6.153
10411POPC   GL268414  42.263   7.314   6.153
10411POPC   C1A68415  42.347   7.461   6.453
10411POPC   D2A68416  42.290   7.469   6.753
10411POPC   C3A68417  42.359   7.417   7.053
10411POPC   C4A68418  42.331   7.397   7.353
10411POPC   C1B68419  42.196   7.144   6.453
10411POPC   C2B68420  42.258   7.198   6.753
10411POPC   C3B68421  42.276   7.232   7.053
10411POPC   C4B68422  42.199   7.169   7.353
10412POPC   NC368423  10.482  14.380   5.553
10412POPC   PO468424  10.522  14.371   5.853
10412POPC   GL168425  10.482  14.422   6.153
10412POPC   GL268426  10.406  14.396   6.153
10412POPC   C1A68427  10.545  14.423   6.453
10412POPC   D2A68428  10.481  14.398   6.753
10412POPC   C3A68429  10.520  14.443   7.053
10412POPC   C4A68430  10.482  14.411   7.353
10412POPC   C1B68431  10.243  14.387   6.453
10412POPC   C2B68432  10.233  14.337   6.753
10412POPC   C3B68433  10.318  14.405   7.053
10412POPC   C4B68434  10.265  14.413   7.353
10413POPC   NC368435  43.152  12.838   5.553
10413POPC   PO468436  43.076  12.888   5.853
10413POPC   GL168437  43.108  12.818   6.153
10413POPC   GL268438  43.032  12.939   6.153
10413POPC   C1A68439  43.152  12.808   6.453
10413POPC   D2A68440  43.159  12.872   6.753
10413POPC   C3A68441  43.088  12.814   7.053
10413POPC   C4A68442  43.090  12.803   7.353
10413POPC   C1B68443  42.878  12.896   6.453
10413POPC   C2B68444  42.902  12.900   6.753
10413POPC   C3B68445  42.899  12.939   7.053
10413POPC   C4B68446  42.851  12.925   7.353
10414POPC   NC368447  18.257  15.209   5.553
10414POPC   PO468448  18.261  15.176   5.853
10414POPC   GL168449  18.312  15.173   6.153
10414POPC   GL268450  18.334  15.072   6.153
10414POPC   C1A68451  18.279  15.221   6.453
10414POPC   D2A68452  18.317  15.183   6.753
10414POPC   C3A68453  18.330  15.216   7.053
10414POPC   C4A68454  18.284  15.199   7.353
10414POPC   C1B68455  18.343  14.960   6.453
10414POPC   C2B68456  18.334  14.922   6.753
10414POPC   C3B68457  18.354  14.916   7.053
10414POPC   C4B68458  18.298  14.917   7.353
10415POPC   NC368459  24.455  35.328   5.553
10415POPC   PO468460  24.468  35.382   5.853
10415POPC   GL168461  24.526  35.348   6.153
10415POPC   GL268462  24.430  35.381   6.153
10415POPC   C1A68463  24.502  35.334   6.453
10415POPC   D2A68464  24.533  35.350   6.753
10415POPC   C3A68465  24.523  35.354   7.053
10415POPC   C4A68466  24.453  35.312   7.353
10415POPC   C1B68467  24.287  35.492   6.453
10415POPC   C2B68468  24.308  35.525   6.753
10415POPC   C3B68469  24.250  35.529   7.053
10415POPC   C4B68470  24.308  35.530   7.353
10416POPC   NC368471   0.416   2.794   5.553
10416POPC   PO468472   0.463   2.770   5.853
10416POPC   GL168473   0.429   2.799   6.153
10416POPC   GL268474   0.447   2.921   6.153
10416POPC   C1A68475   0.416   2.733   6.453
10416POPC   D2A68476   0.448   2.776   6.753
10416POPC   C3A68477   0.442   2.758   7.053
10416POPC   C4A68478   0.397   2.731   7.353
10416POPC   C1B68479   0.500   2.976   6.453
10416POPC   C2B68480   0.541   2.954   6.753
10416POPC   C3B68481   0.543   2.973   7.053
10416POPC   C4B68482   0.502   3.003   7.353
10417POPC   NC368483  32.202  19.023   5.553
10417POPC   PO468484  32.268  19.017   5.853
10417POPC   GL168485  32.211  19.066   6.153
10417POPC   GL268486  32.187  18.975   6.153
10417POPC   C1A68487  32.236  19.083   6.453
10417POPC   D2A68488  32.291  19.077   6.753
10417POPC   C3A68489  32.266  19.067   7.053
10417POPC   C4A68490  32.281  19.020   7.353
10417POPC   C1B68491  32.034  18.903   6.453
10417POPC   C2B68492  32.043  18.851   6.753
10417POPC   C3B68493  32.043  18.882   7.053
10417POPC   C4B68494  32.092  18.846   7.353
10418POPC   NC368495  19.095  12.041   5.553
10418POPC   PO468496  19.037  12.082   5.853
10418POPC   GL168497  19.090  12.057   6.153
10418POPC   GL268498  19.082  12.248   6.153
10418POPC   C1A68499  19.065  12.111   6.453
10418POPC   D2A68500  19.077  12.085   6.753
10418POPC   C3A68501  19.098  12.054   7.053
10418POPC   C4A68502  19.009  12.071   7.353
10418POPC   C1B68503  19.089  12.295   6.453
10418POPC   C2B68504  19.091  12.352   6.753
10418POPC   C3B68505  19.074  12.286   7.053
10418POPC   C4B68506  19.081  12.355   7.353
10419POPC   NC368507   8.981  40.774   5.553
10419POPC   PO468508   8.994  40.810   5.853
10419POPC   GL168509   8.966  40.783   6.153
10419POPC   GL268510   8.933  40.906   6.153
10419POPC   C1A68511   8.986  40.828   6.453
10419POPC   D2A68512   9.017  40.771   6.753
10419POPC   C3A68513   8.996  40.757   7.053
10419POPC   C4A68514   9.021  40.818   7.353
10419POPC   C1B68515   8.980  40.986   6.453
10419POPC   C2B68516   8.982  41.062   6.753
10419POPC   C3B68517   8.916  41.031   7.053
10419POPC   C4B68518   8.917  40.985   7.353
10420POPC   NC368519   6.596  12.896   5.553
10420POPC   PO468520   6.677  12.865   5.853
10420POPC   GL168521   6.667  12.832   6.153
10420POPC   GL268522   6.547  12.849   6.153
10420POPC   C1A68523   6.607  12.822   6.453
10420POPC   D2A68524   6.598  12.873   6.753
10420POPC   C3A68525   6.675  12.887   7.053
10420POPC   C4A68526   6.678  12.833   7.353
10420POPC   C1B68527   6.424  12.822   6.453
10420POPC   C2B68528   6.388  12.831   6.753
10420POPC   C3B68529   6.372  12.839   7.053
10420POPC   C4B68530   6.405  12.824   7.353
10421POPC   NC368531  32.221   5.866   5.553
10421POPC   PO468532  32.259   5.833   5.853
10421POPC   GL168533  32.263   5.848   6.153
10421POPC   GL268534  32.162   5.991   6.153
10421POPC   C1A68535  32.245   5.895   6.453
10421POPC   D2A68536  32.272   5.825   6.753
10421POPC   C3A68537  32.202   5.828   7.053
10421POPC   C4A68538  32.285   5.823   7.353
10421POPC   C1B68539  32.194   6.079   6.453
10421POPC   C2B68540  32.206   6.100   6.753
10421POPC   C3B68541  32.139   6.067   7.053
10421POPC   C4B68542  32.139   6.136   7.353
10422POPC   NC368543   6.666  18.251   5.553
10422POPC   PO468544   6.631  18.267   5.853
10422POPC   GL168545   6.642  18.295   6.153
10422POPC   GL268546   6.735  18.370   6.153
10422POPC   C1A68547   6.673  18.237   6.453
10422POPC   D2A68548   6.660  18.280   6.753
10422POPC   C3A68549   6.607  18.236   7.053
10422POPC   C4A68550   6.675  18.256   7.353
10422POPC   C1B68551   6.855  18.455   6.453
10422POPC   C2B68552   6.846  18.439   6.753
10422POPC   C3B68553   6.777  18.504   7.053
10422POPC   C4B68554   6.764  18.473   7.353
10423POPC   NC368555   1.216  18.326   5.553
10423POPC   PO468556   1.198  18.310   5.853
10423POPC   GL168557   1.181  18.249   6.153
10423POPC   GL268558   1.105  18.150   6.153
10423POPC   C1A68559   1.242  18.262   6.453
10423POPC   D2A68560   1.218  18.247   6.753
10423POPC   C3A68561   1.240  18.243   7.053
10423POPC   C4A68562   1.222  18.320   7.353
10423POPC   C1B68563   1.106  18.089   6.453
10423POPC   C2B68564   1.078  18.036   6.753
10423POPC   C3B68565   1.024  18.076   7.053
10423POPC   C4B68566   1.089  18.122   7.353
10424POPC   NC368567  24.457  39.249   5.553
10424POPC   PO468568  24.488  39.236   5.853
10424POPC   GL168569  24.508  39.243   6.153
10424POPC   GL268570  24.594  39.298   6.153
10424POPC   C1A68571  24.458  39.267   6.453
10424POPC   D2A68572  24.466  39.230   6.753
10424POPC   C3A68573  24.490  39.235   7.053
10424POPC   C4A68574  24.450  39.241   7.353
10424POPC   C1B68575  24.786  39.240   6.453
10424POPC   C2B68576  24.737  39.310   6.753
10424POPC   C3B68577  24.768  39.222   7.053
10424POPC   C4B68578  24.731  39.284   7.353
10425POPC   NC368579  11.289  15.197   5.553
10425POPC   PO468580  11.313  15.210   5.853
10425POPC   GL168581  11.271  15.220   6.153
10425POPC   GL268582  11.367  15.081   6.153
10425POPC   C1A68583  11.317  15.135   6.453
10425POPC   D2A68584  11.257  15.190   6.753
10425POPC   C3A68585  11.290  15.188   7.053
10425POPC   C4A68586  11.349  15.180   7.353
10425POPC   C1B68587  11.525  15.043   6.453
10425POPC   C2B68588  11.497  15.027   6.753
10425POPC   C3B68589  11.561  15.045   7.053
10425POPC   C4B68590  11.484  15.046   7.353
10426POPC   NC368591  26.805  18.239   5.553
10426POPC   PO468592  26.845  18.258   5.853
10426POPC   GL168593  26.855  18.251   6.153
10426POPC   GL268594  26.942  18.328   6.153
10426POPC   C1A68595  26.782  18.282   6.453
10426POPC   D2A68596  26.768  18.253   6.753
10426POPC   C3A68597  26.857  18.306   7.053
10426POPC   C4A68598  26.865  18.259   7.353
10426POPC   C1B68599  27.070  18.379   6.453
10426POPC   C2B68600  27.046  18.380   6.753
10426POPC   C3B68601  27.094  18.396   7.053
10426POPC   C4B68602  27.102  18.369   7.353
10427POPC   NC368603  19.051  32.270   5.553
10427POPC   PO468604  19.045  32.280   5.853
10427POPC   GL168605  19.059  32.240   6.153
10427POPC   GL268606  18.935  32.298   6.153
10427POPC   C1A68607  19.039  32.274   6.453
10427POPC   D2A68608  19.071  32.251   6.753
10427POPC   C3A68609  19.031  32.283   7.053
10427POPC   C4A68610  19.045  32.296   7.353
10427POPC   C1B68611  18.770  32.275   6.453
10427POPC   C2B68612  18.866  32.323   6.753
10427POPC   C3B68613  18.840  32.365   7.053
10427POPC   C4B68614  18.776  32.308   7.353
10428POPC   NC368615  29.873  31.429   5.553
10428POPC   PO468616  29.960  31.514   5.853
10428POPC   GL168617  29.888  31.445   6.153
10428POPC   GL268618  29.874  31.397   6.153
10428POPC   C1A68619  29.913  31.513   6.453
10428POPC   D2A68620  29.966  31.510   6.753
10428POPC   C3A68621  29.874  31.493   7.053
10428POPC   C4A68622  29.894  31.443   7.353
10428POPC   C1B68623  29.757  31.350   6.453
10428POPC   C2B68624  29.731  31.336   6.753
10428POPC   C3B68625  29.694  31.334   7.053
10428POPC   C4B68626  29.773  31.346   7.353
10429POPC   NC368627  11.275  17.479   5.553
10429POPC   PO468628  11.294  17.533   5.853
10429POPC   GL168629  11.319  17.514   6.153
10429POPC   GL268630  11.191  17.402   6.153
10429POPC   C1A68631  11.251  17.465   6.453
10429POPC   D2A68632  11.251  17.535   6.753
10429POPC   C3A68633  11.265  17.486   7.053
10429POPC   C4A68634  11.313  17.462   7.353
10429POPC   C1B68635  11.126  17.373   6.453
10429POPC   C2B68636  11.092  17.295   6.753
10429POPC   C3B68637  11.081  17.288   7.053
10429POPC   C4B68638  11.112  17.305   7.353
10430POPC   NC368639   9.700  22.173   5.553
10430POPC   PO468640   9.722  22.171   5.853
10430POPC   GL168641   9.757  22.175   6.153
10430POPC   GL268642   9.662  22.277   6.153
10430POPC   C1A68643   9.778  22.122   6.453
10430POPC   D2A68644   9.741  22.133   6.753
10430POPC   C3A68645   9.764  22.166   7.053
10430POPC   C4A68646   9.751  22.165   7.353
10430POPC   C1B68647   9.638  22.348   6.453
10430POPC   C2B68648   9.697  22.362   6.753
10430POPC   C3B68649   9.671  22.349   7.053
10430POPC   C4B68650   9.599  22.399   7.353
10431POPC   NC368651  41.559  43.136   5.553
10431POPC   PO468652  41.542  43.081   5.853
10431POPC   GL168653  41.575  43.067   6.153
10431POPC   GL268654  41.562  43.219   6.153
10431POPC   C1A68655  41.599  43.112   6.453
10431POPC   D2A68656  41.563  43.088   6.753
10431POPC   C3A68657  41.566  43.121   7.053
10431POPC   C4A68658  41.595  43.094   7.353
10431POPC   C1B68659  41.622  43.394   6.453
10431POPC   C2B68660  41.546  43.348   6.753
10431POPC   C3B68661  41.600  43.404   7.053
10431POPC   C4B68662  41.557  43.363   7.353
10432POPC   NC368663  24.463  25.284   5.553
10432POPC   PO468664  24.477  25.235   5.853
10432POPC   GL168665  24.452  25.282   6.153
10432POPC   GL268666  24.569  25.136   6.153
10432POPC   C1A68667  24.518  25.285   6.453
10432POPC   D2A68668  24.495  25.290   6.753
10432POPC   C3A68669  24.461  25.313   7.053
10432POPC   C4A68670  24.529  25.290   7.353
10432POPC   C1B68671  24.639  25.004   6.453
10432POPC   C2B68672  24.632  25.063   6.753
10432POPC   C3B68673  24.613  25.029   7.053
10432POPC   C4B68674  24.629  25.096   7.353
10433POPC   NC368675  17.459  31.509   5.553
10433POPC   PO468676  17.472  31.501   5.853
10433POPC   GL168677  17.512  31.522   6.153
10433POPC   GL268678  17.377  31.374   6.153
10433POPC   C1A68679  17.459  31.447   6.453
10433POPC   D2A68680  17.510  31.509   6.753
10433POPC   C3A68681  17.480  31.512   7.053
10433POPC   C4A68682  17.460  31.437   7.353
10433POPC   C1B68683  17.324  31.291   6.453
10433POPC   C2B68684  17.272  31.329   6.753
10433POPC   C3B68685  17.359  31.274   7.053
10433POPC   C4B68686  17.322  31.275   7.353
10434POPC   NC368687  43.110  31.469   5.553
10434POPC   PO468688  43.106  31.432   5.853
10434POPC   GL168689  43.062  31.499   6.153
10434POPC   GL268690  43.015  31.500   6.153
10434POPC   C1A68691  43.073  31.477   6.453
10434POPC   D2A68692  43.107  31.521   6.753
10434POPC   C3A68693  43.110  31.499   7.053
10434POPC   C4A68694  43.071  31.430   7.353
10434POPC   C1B68695  42.928  31.632   6.453
10434POPC   C2B68696  42.853  31.652   6.753
10434POPC   C3B68697  42.848  31.643   7.053
10434POPC   C4B68698  42.940  31.629   7.353
10435POPC   NC368699  25.997  35.313   5.553
10435POPC   PO468700  26.031  35.325   5.853
10435POPC   GL168701  25.999  35.346   6.153
10435POPC   GL268702  26.145  35.424   6.153
10435POPC   C1A68703  26.065  35.362   6.453
10435POPC   D2A68704  26.084  35.377   6.753
10435POPC   C3A68705  26.066  35.340   7.053
10435POPC   C4A68706  26.009  35.368   7.353
10435POPC   C1B68707  26.234  35.385   6.453
10435POPC   C2B68708  26.285  35.471   6.753
10435POPC   C3B68709  26.236  35.437   7.053
10435POPC   C4B68710  26.311  35.466   7.353
10436POPC   NC368711   6.597  29.887   5.553
10436POPC   PO468712   6.624  29.913   5.853
10436POPC   GL168713   6.612  29.901   6.153
10436POPC   GL268714   6.497  29.936   6.153
10436POPC   C1A68715   6.641  29.936   6.453
10436POPC   D2A68716   6.680  29.874   6.753
10436POPC   C3A68717   6.694  29.965   7.053
10436POPC   C4A68718   6.661  29.921   7.353
10436POPC   C1B68719   6.444  30.044   6.453
10436POPC   C2B68720   6.405  30.000   6.753
10436POPC   C3B68721   6.402  30.077   7.053
10436POPC   C4B68722   6.386  30.031   7.353
10437POPC   NC368723  31.494  44.664   5.553
10437POPC   PO468724  31.486  44.633   5.853
10437POPC   GL168725  31.477  44.692   6.153
10437POPC   GL268726  31.606  44.770   6.153
10437POPC   C1A68727  31.469  44.701   6.453
10437POPC   D2A68728  31.465  44.664   6.753
10437POPC   C3A68729  31.518  44.636   7.053
10437POPC   C4A68730  31.522  44.704   7.353
10437POPC   C1B68731  31.677  44.863   6.453
10437POPC   C2B68732  31.688  44.857   6.753
10437POPC   C3B68733  31.699  44.800   7.053
10437POPC   C4B68734  31.630  44.805   7.353
10438POPC   NC368735   9.787  16.734   5.553
10438POPC   PO468736   9.761  16.770   5.853
10438POPC   GL168737   9.791  16.741   6.153
10438POPC   GL268738   9.584  16.735   6.153
10438POPC   C1A68739   9.719  16.720   6.453
10438POPC   D2A68740   9.780  16.778   6.753
10438POPC   C3A68741   9.755  16.729   7.053
10438POPC   C4A68742   9.778  16.715   7.353
10438POPC   C1B68743   9.539  16.788   6.453
10438POPC   C2B68744   9.564  16.788   6.753
10438POPC   C3B68745   9.489  16.841   7.053
10438POPC   C4B68746   9.537  16.800   7.353
10439POPC   NC368747  20.655  43.146   5.553
10439POPC   PO468748  20.606  43.133   5.853
10439POPC   GL168749  20.615  43.061   6.153
10439POPC   GL268750  20.590  42.983   6.153
10439POPC   C1A68751  20.639  43.151   6.453
10439POPC   D2A68752  20.649  43.119   6.753
10439POPC   C3A68753  20.633  43.069   7.053
10439POPC   C4A68754  20.579  43.114   7.353
10439POPC   C1B68755  20.709  42.831   6.453
10439POPC   C2B68756  20.642  42.834   6.753
10439POPC   C3B68757  20.652  42.827   7.053
10439POPC   C4B68758  20.701  42.894   7.353
10440POPC   NC368759  31.491   2.741   5.553
10440POPC   PO468760  31.463   2.782   5.853
10440POPC   GL168761  31.430   2.767   6.153
10440POPC   GL268762  31.412   2.830   6.153
10440POPC   C1A68763  31.477   2.727   6.453
10440POPC   D2A68764  31.478   2.763   6.753
10440POPC   C3A68765  31.450   2.805   7.053
10440POPC   C4A68766  31.451   2.741   7.353
10440POPC   C1B68767  31.411   2.958   6.453
10440POPC   C2B68768  31.410   3.033   6.753
10440POPC   C3B68769  31.341   2.988   7.053
10440POPC   C4B68770  31.382   2.984   7.353
10441POPC   NC368771  15.222   5.854   5.553
10441POPC   PO468772  15.197   5.856   5.853
10441POPC   GL168773  15.160   5.875   6.153
10441POPC   GL268774  15.267   5.959   6.153
10441POPC   C1A68775  15.216   5.822   6.453
10441POPC   D2A68776  15.142   5.875   6.753
10441POPC   C3A68777  15.194   5.890   7.053
10441POPC   C4A68778  15.175   5.823   7.353
10441POPC   C1B68779  15.313   6.090   6.453
10441POPC   C2B68780  15.369   6.019   6.753
10441POPC   C3B68781  15.331   6.008   7.053
10441POPC   C4B68782  15.316   6.087   7.353
10442POPC   NC368783   8.989   9.721   5.553
10442POPC   PO468784   8.945   9.784   5.853
10442POPC   GL168785   9.018   9.710   6.153
10442POPC   GL268786   8.860   9.657   6.153
10442POPC   C1A68787   8.996   9.766   6.453
10442POPC   D2A68788   9.019   9.728   6.753
10442POPC   C3A68789   8.943   9.790   7.053
10442POPC   C4A68790   9.006   9.703   7.353
10442POPC   C1B68791   8.779   9.535   6.453
10442POPC   C2B68792   8.873   9.524   6.753
10442POPC   C3B68793   8.865   9.555   7.053
10442POPC   C4B68794   8.838   9.591   7.353
10443POPC   NC368795  32.248  40.773   5.553
10443POPC   PO468796  32.270  40.786   5.853
10443POPC   GL168797  32.236  40.794   6.153
10443POPC   GL268798  32.310  40.878   6.153
10443POPC   C1A68799  32.220  40.806   6.453
10443POPC   D2A68800  32.204  40.774   6.753
10443POPC   C3A68801  32.233  40.832   7.053
10443POPC   C4A68802  32.264  40.788   7.353
10443POPC   C1B68803  32.300  41.020   6.453
10443POPC   C2B68804  32.236  40.997   6.753
10443POPC   C3B68805  32.322  41.077   7.053
10443POPC   C4B68806  32.246  41.046   7.353
10444POPC   NC368807   8.219   8.238   5.553
10444POPC   PO468808   8.241   8.237   5.853
10444POPC   GL168809   8.218   8.212   6.153
10444POPC   GL268810   8.272   8.189   6.153
10444POPC   C1A68811   8.158   8.233   6.453
10444POPC   D2A68812   8.198   8.181   6.753
10444POPC   C3A68813   8.219   8.162   7.053
10444POPC   C4A68814   8.159   8.159   7.353
10444POPC   C1B68815   8.481   8.178   6.453
10444POPC   C2B68816   8.493   8.161   6.753
10444POPC   C3B68817   8.458   8.190   7.053
10444POPC   C4B68818   8.484   8.241   7.353
10445POPC   NC368819  31.504  29.166   5.553
10445POPC   PO468820  31.479  29.194   5.853
10445POPC   GL168821  31.518  29.177   6.153
10445POPC   GL268822  31.382  29.029   6.153
10445POPC   C1A68823  31.469  29.188   6.453
10445POPC   D2A68824  31.438  29.145   6.753
10445POPC   C3A68825  31.434  29.129   7.053
10445POPC   C4A68826  31.498  29.155   7.353
10445POPC   C1B68827  31.370  28.936   6.453
10445POPC   C2B68828  31.332  28.920   6.753
10445POPC   C3B68829  31.369  28.979   7.053
10445POPC   C4B68830  31.296  28.962   7.353
10446POPC   NC368831  29.968  32.246   5.553
10446POPC   PO468832  29.890  32.258   5.853
10446POPC   GL168833  29.930  32.250   6.153
10446POPC   GL268834  29.796  32.278   6.153
10446POPC   C1A68835  29.913  32.237   6.453
10446POPC   D2A68836  29.899  32.200   6.753
10446POPC   C3A68837  29.877  32.237   7.053
10446POPC   C4A68838  29.881  32.214   7.353
10446POPC   C1B68839  29.698  32.284   6.453
10446POPC   C2B68840  29.717  32.332   6.753
10446POPC   C3B68841  29.658  32.319   7.053
10446POPC   C4B68842  29.646  32.276   7.353
10447POPC   NC368843  19.831  18.300   5.553
10447POPC   PO468844  19.852  18.248   5.853
10447POPC   GL168845  19.871  18.281   6.153
10447POPC   GL268846  19.888  18.423   6.153
10447POPC   C1A68847  19.789  18.332   6.453
10447POPC   D2A68848  19.803  18.243   6.753
10447POPC   C3A68849  19.861  18.255   7.053
10447POPC   C4A68850  19.827  18.263   7.353
10447POPC   C1B68851  19.812  18.525   6.453
10447POPC   C2B68852  19.822  18.515   6.753
10447POPC   C3B68853  19.884  18.488   7.053
10447POPC   C4B68854  19.826  18.538   7.353
10448POPC   NC368855  27.578  23.679   5.553
10448POPC   PO468856  27.593  23.704   5.853
10448POPC   GL168857  27.605  23.712   6.153
10448POPC   GL268858  27.439  23.756   6.153
10448POPC   C1A68859  27.609  23.670   6.453
10448POPC   D2A68860  27.573  23.743   6.753
10448POPC   C3A68861  27.611  23.729   7.053
10448POPC   C4A68862  27.629  23.759   7.353
10448POPC   C1B68863  27.333  23.717   6.453
10448POPC   C2B68864  27.338  23.690   6.753
10448POPC   C3B68865  27.360  23.742   7.053
10448POPC   C4B68866  27.349  23.665   7.353
10449POPC   NC368867  30.735  27.631   5.553
10449POPC   PO468868  30.736  27.611   5.853
10449POPC   GL168869  30.654  27.566   6.153
10449POPC   GL268870  30.740  27.671   6.153
10449POPC   C1A68871  30.719  27.547   6.453
10449POPC   D2A68872  30.651  27.598   6.753
10449POPC   C3A68873  30.654  27.591   7.053
10449POPC   C4A68874  30.658  27.591   7.353
10449POPC   C1B68875  30.846  27.781   6.453
10449POPC   C2B68876  30.842  27.837   6.753
10449POPC   C3B68877  30.823  27.799   7.053
10449POPC   C4B68878  30.781  27.813   7.353
10450POPC   NC368879  43.890  12.066   5.553
10450POPC   PO468880  43.887  12.057   5.853
10450POPC   GL168881  43.923  12.091   6.153
10450POPC   GL268882  43.956  12.015   6.153
10450POPC   C1A68883  43.841  12.084   6.453
10450POPC   D2A68884  43.914  12.119   6.753
10450POPC   C3A68885  43.856  12.032   7.053
10450POPC   C4A68886  43.864  12.097   7.353
10450POPC   C1B68887  44.129  11.979   6.453
10450POPC   C2B68888  44.114  11.977   6.753
10450POPC   C3B68889  44.067  11.952   7.053
10450POPC   C4B68890  44.077  11.994   7.353
10451POPC   NC368891  13.602  19.051   5.553
10451POPC   PO468892  13.616  19.073   5.853
10451POPC   GL168893  13.672  19.057   6.153
10451POPC   GL268894  13.617  18.974   6.153
10451POPC   C1A68895  13.653  19.068   6.453
10451POPC   D2A68896  13.588  19.038   6.753
10451POPC   C3A68897  13.673  19.088   7.053
10451POPC   C4A68898  13.633  19.057   7.353
10451POPC   C1B68899  13.594  18.760   6.453
10451POPC   C2B68900  13.646  18.834   6.753
10451POPC   C3B68901  13.602  18.834   7.053
10451POPC   C4B68902  13.623  18.798   7.353
10452POPC   NC368903  22.908  15.190   5.553
10452POPC   PO468904  22.975  15.204   5.853
10452POPC   GL168905  22.916  15.192   6.153
10452POPC   GL268906  23.106  15.141   6.153
10452POPC   C1A68907  22.959  15.157   6.453
10452POPC   D2A68908  22.902  15.136   6.753
10452POPC   C3A68909  22.970  15.204   7.053
10452POPC   C4A68910  22.986  15.200   7.353
10452POPC   C1B68911  23.169  15.133   6.453
10452POPC   C2B68912  23.201  15.201   6.753
10452POPC   C3B68913  23.183  15.151   7.053
10452POPC   C4B68914  23.162  15.144   7.353
10453POPC   NC368915   8.242  20.594   5.553
10453POPC   PO468916   8.160  20.600   5.853
10453POPC   GL168917   8.153  20.597   6.153
10453POPC   GL268918   8.352  20.604   6.153
10453POPC   C1A68919   8.158  20.602   6.453
10453POPC   D2A68920   8.198  20.628   6.753
10453POPC   C3A68921   8.240  20.601   7.053
10453POPC   C4A68922   8.176  20.591   7.353
10453POPC   C1B68923   8.464  20.527   6.453
10453POPC   C2B68924   8.456  20.468   6.753
10453POPC   C3B68925   8.463  20.495   7.053
10453POPC   C4B68926   8.478  20.515   7.353
10454POPC   NC368927   5.822  26.058   5.553
10454POPC   PO468928   5.831  26.083   5.853
10454POPC   GL168929   5.915  26.045   6.153
10454POPC   GL268930   5.747  26.126   6.153
10454POPC   C1A68931   5.820  26.045   6.453
10454POPC   D2A68932   5.881  26.031   6.753
10454POPC   C3A68933   5.884  25.998   7.053
10454POPC   C4A68934   5.862  26.021   7.353
10454POPC   C1B68935   5.651  26.172   6.453
10454POPC   C2B68936   5.654  26.215   6.753
10454POPC   C3B68937   5.638  26.175   7.053
10454POPC   C4B68938   5.666  26.138   7.353
10455POPC   NC368939  17.468  36.079   5.553
10455POPC   PO468940  17.542  36.101   5.853
10455POPC   GL168941  17.555  36.138   6.153
10455POPC   GL268942  17.342  36.194   6.153
10455POPC   C1A68943  17.529  36.146   6.453
10455POPC   D2A68944  17.540  36.125   6.753
10455POPC   C3A68945  17.522  36.139   7.053
10455POPC   C4A68946  17.552  36.140   7.353
10455POPC   C1B68947  17.231  36.193   6.453
10455POPC   C2B68948  17.230  36.170   6.753
10455POPC   C3B68949  17.311  36.190   7.053
10455POPC   C4B68950  17.237  36.176   7.353
10456POPC   NC368951  31.464  36.856   5.553
10456POPC   PO468952  31.458  36.952   5.853
10456POPC   GL168953  31.513  36.924   6.153
10456POPC   GL268954  31.522  36.791   6.153
10456POPC   C1A68955  31.436  36.953   6.453
10456POPC   D2A68956  31.517  36.862   6.753
10456POPC   C3A68957  31.465  36.939   7.053
10456POPC   C4A68958  31.477  36.868   7.353
10456POPC   C1B68959  31.558  36.625   6.453
10456POPC   C2B68960  31.567  36.667   6.753
10456POPC   C3B68961  31.535  36.676   7.053
10456POPC   C4B68962  31.568  36.639   7.353
10457POPC   NC368963   8.214   5.918   5.553
10457POPC   PO468964   8.215   5.858   5.853
10457POPC   GL168965   8.152   5.899   6.153
10457POPC   GL268966   8.134   5.800   6.153
10457POPC   C1A68967   8.192   5.834   6.453
10457POPC   D2A68968   8.215   5.854   6.753
10457POPC   C3A68969   8.204   5.822   7.053
10457POPC   C4A68970   8.182   5.876   7.353
10457POPC   C1B68971   8.070   5.702   6.453
10457POPC   C2B68972   8.079   5.626   6.753
10457POPC   C3B68973   8.077   5.671   7.053
10457POPC   C4B68974   8.056   5.702   7.353
10458POPC   NC368975  26.079  38.486   5.553
10458POPC   PO468976  26.030  38.438   5.853
10458POPC   GL168977  26.048  38.471   6.153
10458POPC   GL268978  26.055  38.583   6.153
10458POPC   C1A68979  26.037  38.431   6.453
10458POPC   D2A68980  26.040  38.440   6.753
10458POPC   C3A68981  26.063  38.459   7.053
10458POPC   C4A68982  26.032  38.405   7.353
10458POPC   C1B68983  26.138  38.697   6.453
10458POPC   C2B68984  26.069  38.704   6.753
10458POPC   C3B68985  26.128  38.685   7.053
10458POPC   C4B68986  26.061  38.738   7.353
10459POPC   NC368987   8.993  16.746   5.553
10459POPC   PO468988   8.983  16.737   5.853
10459POPC   GL168989   8.944  16.685   6.153
10459POPC   GL268990   9.100  16.710   6.153
10459POPC   C1A68991   8.947  16.695   6.453
10459POPC   D2A68992   8.970  16.764   6.753
10459POPC   C3A68993   8.961  16.772   7.053
10459POPC   C4A68994   8.991  16.720   7.353
10459POPC   C1B68995   9.202  16.757   6.453
10459POPC   C2B68996   9.247  16.744   6.753
10459POPC   C3B68997   9.240  16.776   7.053
10459POPC   C4B68998   9.179  16.792   7.353
10460POPC   NC368999  11.269  10.541   5.553
10460POPC   PO469000  11.318  10.550   5.853
10460POPC   GL169001  11.271  10.491   6.153
10460POPC   GL269002  11.205  10.444   6.153
10460POPC   C1A69003  11.321  10.521   6.453
10460POPC   D2A69004  11.260  10.509   6.753
10460POPC   C3A69005  11.254  10.506   7.053
10460POPC   C4A69006  11.259  10.562   7.353
10460POPC   C1B69007  11.152  10.332   6.453
10460POPC   C2B69008  11.171  10.318   6.753
10460POPC   C3B69009  11.132  10.386   7.053
10460POPC   C4B69010  11.096  10.360   7.353
10461POPC   NC369011  43.131  37.660   5.553
10461POPC   PO469012  43.151  37.725   5.853
10461POPC   GL169013  43.090  37.642   6.153
10461POPC   GL269014  43.035  37.641   6.153
10461POPC   C1A69015  43.083  37.633   6.453
10461POPC   D2A69016  43.096  37.687   6.753
10461POPC   C3A69017  43.098  37.656   7.053
10461POPC   C4A69018  43.143  37.720   7.353
10461POPC   C1B69019  42.881  37.657   6.453
10461POPC   C2B69020  42.902  37.657   6.753
10461POPC   C3B69021  42.832  37.584   7.053
10461POPC   C4B69022  42.842  37.594   7.353
10462POPC   NC369023  37.699  31.471   5.553
10462POPC   PO469024  37.671  31.436   5.853
10462POPC   GL169025  37.716  31.436   6.153
10462POPC   GL269026  37.738  31.622   6.153
10462POPC   C1A69027  37.664  31.462   6.453
10462POPC   D2A69028  37.711  31.449   6.753
10462POPC   C3A69029  37.696  31.495   7.053
10462POPC   C4A69030  37.683  31.520   7.353
10462POPC   C1B69031  37.807  31.658   6.453
10462POPC   C2B69032  37.778  31.718   6.753
10462POPC   C3B69033  37.843  31.700   7.053
10462POPC   C4B69034  37.807  31.726   7.353
10463POPC   NC369035  42.342  22.164   5.553
10463POPC   PO469036  42.286  22.187   5.853
10463POPC   GL169037  42.379  22.201   6.153
10463POPC   GL269038  42.360  22.019   6.153
10463POPC   C1A69039  42.372  22.211   6.453
10463POPC   D2A69040  42.339  22.156   6.753
10463POPC   C3A69041  42.366  22.205   7.053
10463POPC   C4A69042  42.316  22.163   7.353
10463POPC   C1B69043  42.308  21.869   6.453
10463POPC   C2B69044  42.324  21.943   6.753
10463POPC   C3B69045  42.301  21.937   7.053
10463POPC   C4B69046  42.342  21.958   7.353
10464POPC   NC369047  36.110  29.155   5.553
10464POPC   PO469048  36.104  29.097   5.853
10464POPC   GL169049  36.089  29.154   6.153
10464POPC   GL269050  36.157  29.020   6.153
10464POPC   C1A69051  36.136  29.149   6.453
10464POPC   D2A69052  36.124  29.139   6.753
10464POPC   C3A69053  36.111  29.178   7.053
10464POPC   C4A69054  36.167  29.159   7.353
10464POPC   C1B69055  36.134  28.873   6.453
10464POPC   C2B69056  36.119  28.944   6.753
10464POPC   C3B69057  36.085  28.894   7.053
10464POPC   C4B69058  36.100  28.860   7.353
10465POPC   NC369059  12.813  19.108   5.553
10465POPC   PO469060  12.812  19.019   5.853
10465POPC   GL169061  12.849  19.070   6.153
10465POPC   GL269062  12.781  18.982   6.153
10465POPC   C1A69063  12.881  19.103   6.453
10465POPC   D2A69064  12.849  19.049   6.753
10465POPC   C3A69065  12.827  19.045   7.053
10465POPC   C4A69066  12.865  19.076   7.353
10465POPC   C1B69067  12.621  18.913   6.453
10465POPC   C2B69068  12.590  18.969   6.753
10465POPC   C3B69069  12.673  18.970   7.053
10465POPC   C4B69070  12.656  18.930   7.353
10466POPC   NC369071  28.407  37.630   5.553
10466POPC   PO469072  28.321  37.708   5.853
10466POPC   GL169073  28.365  37.681   6.153
10466POPC   GL269074  28.475  37.769   6.153
10466POPC   C1A69075  28.340  37.675   6.453
10466POPC   D2A69076  28.371  37.696   6.753
10466POPC   C3A69077  28.360  37.636   7.053
10466POPC   C4A69078  28.386  37.713   7.353
10466POPC   C1B69079  28.587  37.717   6.453
10466POPC   C2B69080  28.572  37.739   6.753
10466POPC   C3B69081  28.588  37.779   7.053
10466POPC   C4B69082  28.626  37.777   7.353
10467POPC   NC369083   8.185  15.920   5.553
10467POPC   PO469084   8.189  15.945   5.853
10467POPC   GL169085   8.225  15.996   6.153
10467POPC   GL269086   8.240  15.848   6.153
10467POPC   C1A69087   8.182  15.944   6.453
10467POPC   D2A69088   8.185  15.949   6.753
10467POPC   C3A69089   8.185  15.915   7.053
10467POPC   C4A69090   8.150  16.004   7.353
10467POPC   C1B69091   8.386  15.762   6.453
10467POPC   C2B69092   8.360  15.782   6.753
10467POPC   C3B69093   8.399  15.784   7.053
10467POPC   C4B69094   8.351  15.814   7.353
10468POPC   NC369095  22.200  25.270   5.553
10468POPC   PO469096  22.123  25.241   5.853
10468POPC   GL169097  22.145  25.303   6.153
10468POPC   GL269098  22.203  25.202   6.153
10468POPC   C1A69099  22.133  25.226   6.453
10468POPC   D2A69100  22.181  25.271   6.753
10468POPC   C3A69101  22.179  25.231   7.053
10468POPC   C4A69102  22.126  25.247   7.353
10468POPC   C1B69103  22.330  25.024   6.453
10468POPC   C2B69104  22.341  25.023   6.753
10468POPC   C3B69105  22.264  25.020   7.053
10468POPC   C4B69106  22.351  25.081   7.353
10469POPC   NC369107   4.285  33.787   5.553
10469POPC   PO469108   4.311  33.759   5.853
10469POPC   GL169109   4.346  33.826   6.153
10469POPC   GL269110   4.386  33.688   6.153
10469POPC   C1A69111   4.334  33.832   6.453
10469POPC   D2A69112   4.308  33.848   6.753
10469POPC   C3A69113   4.332  33.829   7.053
10469POPC   C4A69114   4.287  33.755   7.353
10469POPC   C1B69115   4.409  33.535   6.453
10469POPC   C2B69116   4.375  33.602   6.753
10469POPC   C3B69117   4.350  33.570   7.053
10469POPC   C4B69118   4.408  33.611   7.353
10470POPC   NC369119  41.517   7.452   5.553
10470POPC   PO469120  41.518   7.380   5.853
10470POPC   GL169121  41.552   7.433   6.153
10470POPC   GL269122  41.470   7.317   6.153
10470POPC   C1A69123  41.574   7.399   6.453
10470POPC   D2A69124  41.557   7.448   6.753
10470POPC   C3A69125  41.601   7.409   7.053
10470POPC   C4A69126  41.550   7.389   7.353
10470POPC   C1B69127  41.318   7.315   6.453
10470POPC   C2B69128  41.355   7.291   6.753
10470POPC   C3B69129  41.315   7.340   7.053
10470POPC   C4B69130  41.297   7.273   7.353
10471POPC   NC369131  39.214  41.515   5.553
10471POPC   PO469132  39.276  41.511   5.853
10471POPC   GL169133  39.262  41.565   6.153
10471POPC   GL269134  39.095  41.641   6.153
10471POPC   C1A69135  39.244  41.578   6.453
10471POPC   D2A69136  39.189  41.539   6.753
10471POPC   C3A69137  39.278  41.573   7.053
10471POPC   C4A69138  39.226  41.516   7.353
10471POPC   C1B69139  39.050  41.691   6.453
10471POPC   C2B69140  39.045  41.668   6.753
10471POPC   C3B69141  38.988  41.726   7.053
10471POPC   C4B69142  39.061  41.704   7.353
10472POPC   NC369143  30.648  29.137   5.553
10472POPC   PO469144  30.673  29.101   5.853
10472POPC   GL169145  30.689  29.100   6.153
10472POPC   GL269146  30.684  29.235   6.153
10472POPC   C1A69147  30.671  29.127   6.453
10472POPC   D2A69148  30.746  29.140   6.753
10472POPC   C3A69149  30.660  29.137   7.053
10472POPC   C4A69150  30.728  29.165   7.353
10472POPC   C1B69151  30.660  29.414   6.453
10472POPC   C2B69152  30.640  29.359   6.753
10472POPC   C3B69153  30.622  29.442   7.053
10472POPC   C4B69154  30.664  29.416   7.353
10473POPC   NC369155  37.634  17.496   5.553
10473POPC   PO469156  37.662  17.488   5.853
10473POPC   GL169157  37.706  17.458   6.153
10473POPC   GL269158  37.843  17.518   6.153
10473POPC   C1A69159  37.711  17.516   6.453
10473POPC   D2A69160  37.701  17.552   6.753
10473POPC   C3A69161  37.642  17.522   7.053
10473POPC   C4A69162  37.664  17.549   7.353
10473POPC   C1B69163  37.902  17.544   6.453
10473POPC   C2B69164  37.941  17.548   6.753
10473POPC   C3B69165  37.921  17.474   7.053
10473POPC   C4B69166  37.913  17.525   7.353
10474POPC   NC369167   8.938  14.432   5.553
10474POPC   PO469168   8.981  14.399   5.853
10474POPC   GL169169   8.983  14.421   6.153
10474POPC   GL269170   8.944  14.258   6.153
10474POPC   C1A69171   8.993  14.377   6.453
10474POPC   D2A69172   8.962  14.360   6.753
10474POPC   C3A69173   8.924  14.403   7.053
10474POPC   C4A69174   8.995  14.401   7.353
10474POPC   C1B69175   9.025  14.139   6.453
10474POPC   C2B69176   9.017  14.194   6.753
10474POPC   C3B69177   8.950  14.140   7.053
10474POPC   C4B69178   8.941  14.196   7.353
10475POPC   NC369179  19.826   2.754   5.553
10475POPC   PO469180  19.841   2.723   5.853
10475POPC   GL169181  19.862   2.757   6.153
10475POPC   GL269182  19.953   2.670   6.153
10475POPC   C1A69183  19.865   2.796   6.453
10475POPC   D2A69184  19.820   2.744   6.753
10475POPC   C3A69185  19.813   2.785   7.053
10475POPC   C4A69186  19.869   2.747   7.353
10475POPC   C1B69187  19.999   2.583   6.453
10475POPC   C2B69188  20.043   2.594   6.753
10475POPC   C3B69189  19.997   2.542   7.053
10475POPC   C4B69190  19.974   2.565   7.353
10476POPC   NC369191  30.695   3.541   5.553
10476POPC   PO469192  30.690   3.495   5.853
10476POPC   GL169193  30.693   3.517   6.153
10476POPC   GL269194  30.656   3.702   6.153
10476POPC   C1A69195  30.670   3.510   6.453
10476POPC   D2A69196  30.702   3.497   6.753
10476POPC   C3A69197  30.661   3.556   7.053
10476POPC   C4A69198  30.744   3.578   7.353
10476POPC   C1B69199  30.691   3.810   6.453
10476POPC   C2B69200  30.660   3.750   6.753
10476POPC   C3B69201  30.651   3.803   7.053
10476POPC   C4B69202  30.657   3.808   7.353
10477POPC   NC369203  16.689  43.935   5.553
10477POPC   PO469204  16.707  43.844   5.853
10477POPC   GL169205  16.751  43.913   6.153
10477POPC   GL269206  16.760  44.022   6.153
10477POPC   C1A69207  16.688  43.862   6.453
10477POPC   D2A69208  16.763  43.897   6.753
10477POPC   C3A69209  16.764  43.924   7.053
10477POPC   C4A69210  16.745  43.867   7.353
10477POPC   C1B69211  16.751  44.104   6.453
10477POPC   C2B69212  16.833  44.093   6.753
10477POPC   C3B69213  16.756  44.104   7.053
10477POPC   C4B69214  16.791  44.088   7.353
10478POPC   NC369215  12.114  19.017   5.553
10478POPC   PO469216  12.049  19.077   5.853
10478POPC   GL169217  12.063  19.013   6.153
10478POPC   GL269218  12.163  19.094   6.153
10478POPC   C1A69219  12.068  19.016   6.453
10478POPC   D2A69220  12.082  19.034   6.753
10478POPC   C3A69221  12.064  19.064   7.053
10478POPC   C4A69222  12.084  19.104   7.353
10478POPC   C1B69223  12.316  19.029   6.453
10478POPC   C2B69224  12.371  19.067   6.753
10478POPC   C3B69225  12.297  19.119   7.053
10478POPC   C4B69226  12.312  19.103   7.353
10479POPC   NC369227  34.616   1.997   5.553
10479POPC   PO469228  34.550   1.941   5.853
10479POPC   GL169229  34.624   1.998   6.153
10479POPC   GL269230  34.679   1.878   6.153
10479POPC   C1A69231  34.589   1.947   6.453
10479POPC   D2A69232  34.528   1.962   6.753
10479POPC   C3A69233  34.533   1.970   7.053
10479POPC   C4A69234  34.600   2.010   7.353
10479POPC   C1B69235  34.745   1.797   6.453
10479POPC   C2B69236  34.704   1.790   6.753
10479POPC   C3B69237  34.772   1.761   7.053
10479POPC   C4B69238  34.725   1.762   7.353
10480POPC   NC369239  15.187  39.963   5.553
10480POPC   PO469240  15.132  40.043   5.853
10480POPC   GL169241  15.166  40.049   6.153
10480POPC   GL269242  15.029  39.952   6.153
10480POPC   C1A69243  15.176  40.004   6.453
10480POPC   D2A69244  15.157  40.036   6.753
10480POPC   C3A69245  15.140  39.997   7.053
10480POPC   C4A69246  15.156  39.996   7.353
10480POPC   C1B69247  14.997  39.932   6.453
10480POPC   C2B69248  15.010  39.882   6.753
10480POPC   C3B69249  14.916  39.929   7.053
10480POPC   C4B69250  14.982  39.836   7.353
10481POPC   NC369251  37.671   6.596   5.553
10481POPC   PO469252  37.712   6.675   5.853
10481POPC   GL169253  37.707   6.610   6.153
10481POPC   GL269254  37.833   6.602   6.153
10481POPC   C1A69255  37.701   6.613   6.453
10481POPC   D2A69256  37.690   6.690   6.753
10481POPC   C3A69257  37.701   6.615   7.053
10481POPC   C4A69258  37.666   6.616   7.353
10481POPC   C1B69259  37.917   6.524   6.453
10481POPC   C2B69260  37.893   6.537   6.753
10481POPC   C3B69261  37.945   6.563   7.053
10481POPC   C4B69262  37.928   6.528   7.353
10482POPC   NC369263  32.988  42.374   5.553
10482POPC   PO469264  33.057  42.352   5.853
10482POPC   GL169265  33.059  42.319   6.153
10482POPC   GL269266  32.910  42.442   6.153
10482POPC   C1A69267  33.014  42.316   6.453
10482POPC   D2A69268  33.033  42.377   6.753
10482POPC   C3A69269  33.045  42.312   7.053
10482POPC   C4A69270  32.994  42.381   7.353
10482POPC   C1B69271  32.896  42.526   6.453
10482POPC   C2B69272  32.862  42.543   6.753
10482POPC   C3B69273  32.832  42.495   7.053
10482POPC   C4B69274  32.843  42.505   7.353
10483POPC   NC369275  26.840  44.649   5.553
10483POPC   PO469276  26.833  44.658   5.853
10483POPC   GL169277  26.786  44.614   6.153
10483POPC   GL269278  26.812  44.529   6.153
10483POPC   C1A69279  26.848  44.702   6.453
10483POPC   D2A69280  26.776  44.623   6.753
10483POPC   C3A69281  26.839  44.696   7.053
10483POPC   C4A69282  26.823  44.657   7.353
10483POPC   C1B69283  26.765  44.455   6.453
10483POPC   C2B69284  26.744  44.431   6.753
10483POPC   C3B69285  26.764  44.472   7.053
10483POPC   C4B69286  26.705  44.387   7.353
10484POPC   NC369287  42.351  26.055   5.553
10484POPC   PO469288  42.318  26.027   5.853
10484POPC   GL169289  42.315  26.071   6.153
10484POPC   GL269290  42.203  25.948   6.153
10484POPC   C1A69291  42.358  25.997   6.453
10484POPC   D2A69292  42.325  26.079   6.753
10484POPC   C3A69293  42.342  26.030   7.053
10484POPC   C4A69294  42.350  26.057   7.353
10484POPC   C1B69295  42.170  25.868   6.453
10484POPC   C2B69296  42.156  25.865   6.753
10484POPC   C3B69297  42.171  25.895   7.053
10484POPC   C4B69298  42.159  25.874   7.353
10485POPC   NC369299  22.117  30.714   5.553
10485POPC   PO469300  22.200  30.675   5.853
10485POPC   GL169301  22.178  30.701   6.153
10485POPC   GL269302  22.010  30.630   6.153
10485POPC   C1A69303  22.148  30.685   6.453
10485POPC   D2A69304  22.207  30.708   6.753
10485POPC   C3A69305  22.132  30.713   7.053
10485POPC   C4A69306  22.176  30.707   7.353
10485POPC   C1B69307  21.891  30.573   6.453
10485POPC   C2B69308  21.967  30.616   6.753
10485POPC   C3B69309  21.907  30.600   7.053
10485POPC   C4B69310  21.885  30.643   7.353
10486POPC   NC369311  40.008  27.546   5.553
10486POPC   PO469312  40.011  27.544   5.853
10486POPC   GL169313  40.012  27.584   6.153
10486POPC   GL269314  40.007  27.740   6.153
10486POPC   C1A69315  39.987  27.545   6.453
10486POPC   D2A69316  39.976  27.578   6.753
10486POPC   C3A69317  40.052  27.592   7.053
10486POPC   C4A69318  40.051  27.563   7.353
10486POPC   C1B69319  40.082  27.803   6.453
10486POPC   C2B69320  40.060  27.786   6.753
10486POPC   C3B69321  40.115  27.837   7.053
10486POPC   C4B69322  40.076  27.784   7.353
10487POPC   NC369323  28.330  16.771   5.553
10487POPC   PO469324  28.406  16.748   5.853
10487POPC   GL169325  28.355  16.775   6.153
10487POPC   GL269326  28.293  16.767   6.153
10487POPC   C1A69327  28.361  16.747   6.453
10487POPC   D2A69328  28.386  16.768   6.753
10487POPC   C3A69329  28.387  16.774   7.053
10487POPC   C4A69330  28.338  16.736   7.353
10487POPC   C1B69331  28.129  16.910   6.453
10487POPC   C2B69332  28.191  16.878   6.753
10487POPC   C3B69333  28.187  16.848   7.053
10487POPC   C4B69334  28.188  16.893   7.353
10488POPC   NC369335  43.890   1.190   5.553
10488POPC   PO469336  43.872   1.195   5.853
10488POPC   GL169337  43.912   1.173   6.153
10488POPC   GL269338  43.956   1.330   6.153
10488POPC   C1A69339  43.912   1.244   6.453
10488POPC   D2A69340  43.908   1.252   6.753
10488POPC   C3A69341  43.903   1.181   7.053
10488POPC   C4A69342  43.848   1.223   7.353
10488POPC   C1B69343  44.059   1.415   6.453
10488POPC   C2B69344  44.054   1.460   6.753
10488POPC   C3B69345  44.052   1.425   7.053
10488POPC   C4B69346  44.034   1.421   7.353
10489POPC   NC369347  36.087  30.682   5.553
10489POPC   PO469348  36.171  30.688   5.853
10489POPC   GL169349  36.154  30.672   6.153
10489POPC   GL269350  36.068  30.627   6.153
10489POPC   C1A69351  36.128  30.718   6.453
10489POPC   D2A69352  36.167  30.686   6.753
10489POPC   C3A69353  36.105  30.719   7.053
10489POPC   C4A69354  36.162  30.745   7.353
10489POPC   C1B69355  35.956  30.435   6.453
10489POPC   C2B69356  36.022  30.482   6.753
10489POPC   C3B69357  35.971  30.456   7.053
10489POPC   C4B69358  36.008  30.472   7.353
10490POPC   NC369359  11.304  36.947   5.553
10490POPC   PO469360  11.292  36.881   5.853
10490POPC   GL169361  11.264  36.887   6.153
10490POPC   GL269362  11.400  36.972   6.153
10490POPC   C1A69363  11.328  36.866   6.453
10490POPC   D2A69364  11.342  36.926   6.753
10490POPC   C3A69365  11.322  36.909   7.053
10490POPC   C4A69366  11.299  36.886   7.353
10490POPC   C1B69367  11.528  36.990   6.453
10490POPC   C2B69368  11.521  37.031   6.753
10490POPC   C3B69369  11.497  36.979   7.053
10490POPC   C4B69370  11.534  36.992   7.353
10491POPC   NC369371   8.991  15.956   5.553
10491POPC   PO469372   8.954  15.912   5.853
10491POPC   GL169373   8.983  15.965   6.153
10491POPC   GL269374   8.998  16.086   6.153
10491POPC   C1A69375   8.932  15.989   6.453
10491POPC   D2A69376   8.970  15.912   6.753
10491POPC   C3A69377   8.968  15.951   7.053
10491POPC   C4A69378   9.011  15.949   7.353
10491POPC   C1B69379   8.938  16.229   6.453
10491POPC   C2B69380   9.020  16.180   6.753
10491POPC   C3B69381   8.957  16.225   7.053
10491POPC   C4B69382   8.985  16.161   7.353
10492POPC   NC369383  17.500  14.394   5.553
10492POPC   PO469384  17.506  14.429   5.853
10492POPC   GL169385  17.532  14.420   6.153
10492POPC   GL269386  17.399  14.424   6.153
10492POPC   C1A69387  17.495  14.407   6.453
10492POPC   D2A69388  17.487  14.424   6.753
10492POPC   C3A69389  17.520  14.452   7.053
10492POPC   C4A69390  17.523  14.420   7.353
10492POPC   C1B69391  17.317  14.565   6.453
10492POPC   C2B69392  17.257  14.576   6.753
10492POPC   C3B69393  17.265  14.547   7.053
10492POPC   C4B69394  17.315  14.544   7.353
10493POPC   NC369395  10.543  29.125   5.553
10493POPC   PO469396  10.550  29.193   5.853
10493POPC   GL169397  10.522  29.120   6.153
10493POPC   GL269398  10.420  29.133   6.153
10493POPC   C1A69399  10.488  29.104   6.453
10493POPC   D2A69400  10.476  29.144   6.753
10493POPC   C3A69401  10.475  29.131   7.053
10493POPC   C4A69402  10.529  29.097   7.353
10493POPC   C1B69403  10.294  29.077   6.453
10493POPC   C2B69404  10.245  29.056   6.753
10493POPC   C3B69405  10.274  29.077   7.053
10493POPC   C4B69406  10.326  29.034   7.353
10494POPC   NC369407  42.350  10.517   5.553
10494POPC   PO469408  42.365  10.508   5.853
10494POPC   GL169409  42.359  10.540   6.153
10494POPC   GL269410  42.323  10.427   6.153
10494POPC   C1A69411  42.299  10.498   6.453
10494POPC   D2A69412  42.334  10.524   6.753
10494POPC   C3A69413  42.330  10.552   7.053
10494POPC   C4A69414  42.298  10.513   7.353
10494POPC   C1B69415  42.308  10.266   6.453
10494POPC   C2B69416  42.254  10.286   6.753
10494POPC   C3B69417  42.231  10.313   7.053
10494POPC   C4B69418  42.265  10.308   7.353
10495POPC   NC369419  33.055  22.123   5.553
10495POPC   PO469420  33.068  22.143   5.853
10495POPC   GL169421  33.067  22.139   6.153
10495POPC   GL269422  32.925  22.309   6.153
10495POPC   C1A69423  33.031  22.176   6.453
10495POPC   D2A69424  33.015  22.170   6.753
10495POPC   C3A69425  32.985  22.183   7.053
10495POPC   C4A69426  32.977  22.160   7.353
10495POPC   C1B69427  32.886  22.402   6.453
10495POPC   C2B69428  32.891  22.341   6.753
10495POPC   C3B69429  32.958  22.437   7.053
10495POPC   C4B69430  32.934  22.365   7.353
10496POPC   NC369431  29.122  44.681   5.553
10496POPC   PO469432  29.185  44.617   5.853
10496POPC   GL169433  29.139  44.712   6.153
10496POPC   GL269434  29.057  44.729   6.153
10496POPC   C1A69435  29.145  44.655   6.453
10496POPC   D2A69436  29.194  44.617   6.753
10496POPC   C3A69437  29.181  44.643   7.053
10496POPC   C4A69438  29.130  44.702   7.353
10496POPC   C1B69439  28.903  44.742   6.453
10496POPC   C2B69440  28.872  44.748   6.753
10496POPC   C3B69441  28.880  44.718   7.053
10496POPC   C4B69442  28.862  44.742   7.353
10497POPC   NC369443  32.232  30.665   5.553
10497POPC   PO469444  32.244  30.726   5.853
10497POPC   GL169445  32.242  30.694   6.153
10497POPC   GL269446  32.404  30.712   6.153
10497POPC   C1A69447  32.206  30.742   6.453
10497POPC   D2A69448  32.222  30.716   6.753
10497POPC   C3A69449  32.234  30.721   7.053
10497POPC   C4A69450  32.214  30.701   7.353
10497POPC   C1B69451  32.467  30.741   6.453
10497POPC   C2B69452  32.497  30.755   6.753
10497POPC   C3B69453  32.495  30.758   7.053
10497POPC   C4B69454  32.474  30.796   7.353
10498POPC   NC369455   4.357   6.600   5.553
10498POPC   PO469456   4.268   6.670   5.853
10498POPC   GL169457   4.292   6.687   6.153
10498POPC   GL269458   4.397   6.563   6.153
10498POPC   C1A69459   4.317   6.605   6.453
10498POPC   D2A69460   4.341   6.639   6.753
10498POPC   C3A69461   4.279   6.693   7.053
10498POPC   C4A69462   4.302   6.617   7.353
10498POPC   C1B69463   4.416   6.397   6.453
10498POPC   C2B69464   4.486   6.440   6.753
10498POPC   C3B69465   4.478   6.459   7.053
10498POPC   C4B69466   4.457   6.436   7.353
10499POPC   NC369467  11.306  23.756   5.553
10499POPC   PO469468  11.256  23.721   5.853
10499POPC   GL169469  11.348  23.760   6.153
10499POPC   GL269470  11.425  23.784   6.153
10499POPC   C1A69471  11.273  23.707   6.453
10499POPC   D2A69472  11.348  23.734   6.753
10499POPC   C3A69473  11.294  23.720   7.053
10499POPC   C4A69474  11.326  23.762   7.353
10499POPC   C1B69475  11.449  23.931   6.453
10499POPC   C2B69476  11.496  23.858   6.753
10499POPC   C3B69477  11.495  23.894   7.053
10499POPC   C4B69478  11.442  23.929   7.353
10500POPC   NC369479  29.904   5.102   5.553
10500POPC   PO469480  29.963   5.076   5.853
10500POPC   GL169481  29.915   5.107   6.153
10500POPC   GL269482  29.900   5.016   6.153
10500POPC   C1A69483  29.876   5.128   6.453
10500POPC   D2A69484  29.937   5.062   6.753
10500POPC   C3A69485  29.903   5.124   7.053
10500POPC   C4A69486  29.904   5.048   7.353
10500POPC   C1B69487  29.951   4.845   6.453
10500POPC   C2B69488  29.927   4.884   6.753
10500POPC   C3B69489  29.884   4.795   7.053
10500POPC   C4B69490  29.972   4.892   7.353
10501POPC   NC369491  12.031  12.846   5.553
10501POPC   PO469492  12.081  12.874   5.853
10501POPC   GL169493  12.085  12.893   6.153
10501POPC   GL269494  11.922  12.791   6.153
10501POPC   C1A69495  12.027  12.805   6.453
10501POPC   D2A69496  12.109  12.823   6.753
10501POPC   C3A69497  12.064  12.808   7.053
10501POPC   C4A69498  12.072  12.863   7.353
10501POPC   C1B69499  11.824  12.817   6.453
10501POPC   C2B69500  11.878  12.809   6.753
10501POPC   C3B69501  11.838  12.778   7.053
10501POPC   C4B69502  11.787  12.779   7.353
10502POPC   NC369503  16.003   6.636   5.553
10502POPC   PO469504  15.968   6.670   5.853
10502POPC   GL169505  15.941   6.635   6.153
10502POPC   GL269506  16.101   6.638   6.153
10502POPC   C1A69507  15.921   6.634   6.453
10502POPC   D2A69508  15.918   6.649   6.753
10502POPC   C3A69509  15.914   6.603   7.053
10502POPC   C4A69510  15.943   6.604   7.353
10502POPC   C1B69511  16.185   6.684   6.453
10502POPC   C2B69512  16.235   6.754   6.753
10502POPC   C3B69513  16.210   6.688   7.053
10502POPC   C4B69514  16.227   6.717   7.353
10503POPC   NC369515  12.035  12.071   5.553
10503POPC   PO469516  12.103  12.030   5.853
10503POPC   GL169517  12.117  12.055   6.153
10503POPC   GL269518  12.144  12.147   6.153
10503POPC   C1A69519  12.113  12.043   6.453
10503POPC   D2A69520  12.068  12.040   6.753
10503POPC   C3A69521  12.052  12.046   7.053
10503POPC   C4A69522  12.120  12.089   7.353
10503POPC   C1B69523  12.184  12.343   6.453
10503POPC   C2B69524  12.197  12.300   6.753
10503POPC   C3B69525  12.229  12.289   7.053
10503POPC   C4B69526  12.180  12.316   7.353
10504POPC   NC369527  34.612  31.504   5.553
10504POPC   PO469528  34.569  31.473   5.853
10504POPC   GL169529  34.597  31.459   6.153
10504POPC   GL269530  34.652  31.425   6.153
10504POPC   C1A69531  34.589  31.501   6.453
10504POPC   D2A69532  34.565  31.440   6.753
10504POPC   C3A69533  34.611  31.439   7.053
10504POPC   C4A69534  34.584  31.456   7.353
10504POPC   C1B69535  34.753  31.350   6.453
10504POPC   C2B69536  34.733  31.295   6.753
10504POPC   C3B69537  34.796  31.377   7.053
10504POPC   C4B69538  34.823  31.303   7.353
10505POPC   NC369539  17.459  30.711   5.553
10505POPC   PO469540  17.476  30.687   5.853
10505POPC   GL169541  17.514  30.729   6.153
10505POPC   GL269542  17.424  30.746   6.153
10505POPC   C1A69543  17.502  30.738   6.453
10505POPC   D2A69544  17.529  30.736   6.753
10505POPC   C3A69545  17.495  30.729   7.053
10505POPC   C4A69546  17.545  30.648   7.353
10505POPC   C1B69547  17.310  30.726   6.453
10505POPC   C2B69548  17.238  30.743   6.753
10505POPC   C3B69549  17.212  30.720   7.053
10505POPC   C4B69550  17.300  30.785   7.353
10506POPC   NC369551   5.859   2.724   5.553
10506POPC   PO469552   5.908   2.755   5.853
10506POPC   GL169553   5.893   2.735   6.153
10506POPC   GL269554   6.006   2.767   6.153
10506POPC   C1A69555   5.835   2.756   6.453
10506POPC   D2A69556   5.864   2.793   6.753
10506POPC   C3A69557   5.884   2.719   7.053
10506POPC   C4A69558   5.898   2.722   7.353
10506POPC   C1B69559   6.087   2.727   6.453
10506POPC   C2B69560   6.130   2.738   6.753
10506POPC   C3B69561   6.106   2.654   7.053
10506POPC   C4B69562   6.107   2.733   7.353
10507POPC   NC369563  16.757  33.033   5.553
10507POPC   PO469564  16.703  32.980   5.853
10507POPC   GL169565  16.780  32.990   6.153
10507POPC   GL269566  16.860  33.124   6.153
10507POPC   C1A69567  16.683  33.060   6.453
10507POPC   D2A69568  16.752  32.990   6.753
10507POPC   C3A69569  16.767  32.976   7.053
10507POPC   C4A69570  16.780  33.004   7.353
10507POPC   C1B69571  16.900  33.139   6.453
10507POPC   C2B69572  16.904  33.176   6.753
10507POPC   C3B69573  16.975  33.120   7.053
10507POPC   C4B69574  16.960  33.177   7.353
10508POPC   NC369575  36.875  26.090   5.553
10508POPC   PO469576  36.925  26.068   5.853
10508POPC   GL169577  36.915  26.022   6.153
10508POPC   GL269578  37.046  26.082   6.153
10508POPC   C1A69579  36.883  26.030   6.453
10508POPC   D2A69580  36.953  26.031   6.753
10508POPC   C3A69581  36.951  26.089   7.053
10508POPC   C4A69582  36.891  25.998   7.353
10508POPC   C1B69583  37.136  26.191   6.453
10508POPC   C2B69584  37.139  26.151   6.753
10508POPC   C3B69585  37.131  26.199   7.053
10508POPC   C4B69586  37.078  26.120   7.353
10509POPC   NC369587  14.402  40.794   5.553
10509POPC   PO469588  14.427  40.744   5.853
10509POPC   GL169589  14.415  40.762   6.153
10509POPC   GL269590  14.345  40.921   6.153
10509POPC   C1A69591  14.376  40.813   6.453
10509POPC   D2A69592  14.439  40.749   6.753
10509POPC   C3A69593  14.435  40.739   7.053
10509POPC   C4A69594  14.447  40.789   7.353
10509POPC   C1B69595  14.236  40.984   6.453
10509POPC   C2B69596  14.189  40.968   6.753
10509POPC   C3B69597  14.273  40.969   7.053
10509POPC   C4B69598  14.207  40.982   7.353
10510POPC   NC369599  26.776  22.178   5.553
10510POPC   PO469600  26.859  22.145   5.853
10510POPC   GL169601  26.843  22.171   6.153
10510POPC   GL269602  26.818  22.319   6.153
10510POPC   C1A69603  26.840  22.176   6.453
10510POPC   D2A69604  26.845  22.196   6.753
10510POPC   C3A69605  26.791  22.194   7.053
10510POPC   C4A69606  26.829  22.124   7.353
10510POPC   C1B69607  26.747  22.381   6.453
10510POPC   C2B69608  26.709  22.392   6.753
10510POPC   C3B69609  26.748  22.420   7.053
10510POPC   C4B69610  26.714  22.437   7.353
10511POPC   NC369611  22.123   7.430   5.553
10511POPC   PO469612  22.203   7.402   5.853
10511POPC   GL169613  22.179   7.410   6.153
10511POPC   GL269614  22.272   7.330   6.153
10511POPC   C1A69615  22.146   7.407   6.453
10511POPC   D2A69616  22.198   7.429   6.753
10511POPC   C3A69617  22.165   7.436   7.053
10511POPC   C4A69618  22.157   7.388   7.353
10511POPC   C1B69619  22.344   7.206   6.453
10511POPC   C2B69620  22.264   7.200   6.753
10511POPC   C3B69621  22.320   7.266   7.053
10511POPC   C4B69622  22.315   7.260   7.353
10512POPC   NC369623  29.140   2.770   5.553
10512POPC   PO469624  29.127   2.745   5.853
10512POPC   GL169625  29.098   2.760   6.153
10512POPC   GL269626  29.144   2.690   6.153
10512POPC   C1A69627  29.124   2.803   6.453
10512POPC   D2A69628  29.108   2.745   6.753
10512POPC   C3A69629  29.130   2.730   7.053
10512POPC   C4A69630  29.180   2.797   7.353
10512POPC   C1B69631  29.229   2.558   6.453
10512POPC   C2B69632  29.152   2.470   6.753
10512POPC   C3B69633  29.156   2.520   7.053
10512POPC   C4B69634  29.206   2.561   7.353
10513POPC   NC369635  13.631  26.772   5.553
10513POPC   PO469636  13.586  26.774   5.853
10513POPC   GL169637  13.627  26.855   6.153
10513POPC   GL269638  13.518  26.700   6.153
10513POPC   C1A69639  13.657  26.837   6.453
10513POPC   D2A69640  13.586  26.831   6.753
10513POPC   C3A69641  13.671  26.851   7.053
10513POPC   C4A69642  13.655  26.848   7.353
10513POPC   C1B69643  13.399  26.668   6.453
10513POPC   C2B69644  13.429  26.642   6.753
10513POPC   C3B69645  13.399  26.712   7.053
10513POPC   C4B69646  13.411  26.717   7.353
10514POPC   NC369647  29.872  12.863   5.553
10514POPC   PO469648  29.927  12.844   5.853
10514POPC   GL169649  29.876  12.865   6.153
10514POPC   GL269650  29.929  12.946   6.153
10514POPC   C1A69651  29.901  12.828   6.453
10514POPC   D2A69652  29.921  12.865   6.753
10514POPC   C3A69653  29.901  12.805   7.053
10514POPC   C4A69654  29.947  12.893   7.353
10514POPC   C1B69655  29.861  13.079   6.453
10514POPC   C2B69656  29.912  13.082   6.753
10514POPC   C3B69657  29.922  13.130   7.053
10514POPC   C4B69658  29.865  13.068   7.353
10515POPC   NC369659  33.814   1.250   5.553
10515POPC   PO469660  33.831   1.199   5.853
10515POPC   GL169661  33.802   1.262   6.153
10515POPC   GL269662  33.713   1.299   6.153
10515POPC   C1A69663  33.831   1.218   6.453
10515POPC   D2A69664  33.773   1.199   6.753
10515POPC   C3A69665  33.826   1.206   7.053
10515POPC   C4A69666  33.811   1.204   7.353
10515POPC   C1B69667  33.704   1.497   6.453
10515POPC   C2B69668  33.668   1.456   6.753
10515POPC   C3B69669  33.759   1.413   7.053
10515POPC   C4B69670  33.716   1.443   7.353
10516POPC   NC369671  11.273  41.542   5.553
10516POPC   PO469672  11.277  41.599   5.853
10516POPC   GL169673  11.341  41.545   6.153
10516POPC   GL269674  11.302  41.417   6.153
10516POPC   C1A69675  11.274  41.546   6.453
10516POPC   D2A69676  11.261  41.585   6.753
10516POPC   C3A69677  11.329  41.569   7.053
10516POPC   C4A69678  11.282  41.560   7.353
10516POPC   C1B69679  11.352  41.268   6.453
10516POPC   C2B69680  11.301  41.348   6.753
10516POPC   C3B69681  11.355  41.335   7.053
10516POPC   C4B69682  11.290  41.356   7.353
10517POPC   NC369683   2.011  37.680   5.553
10517POPC   PO469684   1.976  37.666   5.853
10517POPC   GL169685   2.021  37.632   6.153
10517POPC   GL269686   1.852  37.682   6.153
10517POPC   C1A69687   2.037  37.704   6.453
10517POPC   D2A69688   1.981  37.679   6.753
10517POPC   C3A69689   1.941  37.672   7.053
10517POPC   C4A69690   1.946  37.649   7.353
10517POPC   C1B69691   1.755  37.621   6.453
10517POPC   C2B69692   1.724  37.631   6.753
10517POPC   C3B69693   1.738  37.684   7.053
10517POPC   C4B69694   1.763  37.677   7.353
10518POPC   NC369695  22.923  36.085   5.553
10518POPC   PO469696  22.931  36.121   5.853
10518POPC   GL169697  22.905  36.149   6.153
10518POPC   GL269698  23.039  36.037   6.153
10518POPC   C1A69699  22.925  36.152   6.453
10518POPC   D2A69700  22.941  36.126   6.753
10518POPC   C3A69701  22.986  36.111   7.053
10518POPC   C4A69702  22.913  36.098   7.353
10518POPC   C1B69703  23.088  35.873   6.453
10518POPC   C2B69704  23.043  35.950   6.753
10518POPC   C3B69705  23.051  35.861   7.053
10518POPC   C4B69706  23.047  35.859   7.353
10519POPC   NC369707  36.887   3.534   5.553
10519POPC   PO469708  36.934   3.498   5.853
10519POPC   GL169709  36.907   3.544   6.153
10519POPC   GL269710  36.990   3.590   6.153
10519POPC   C1A69711  36.879   3.504   6.453
10519POPC   D2A69712  36.939   3.584   6.753
10519POPC   C3A69713  36.951   3.493   7.053
10519POPC   C4A69714  36.867   3.535   7.353
10519POPC   C1B69715  37.039   3.715   6.453
10519POPC   C2B69716  37.128   3.722   6.753
10519POPC   C3B69717  37.119   3.742   7.053
10519POPC   C4B69718  37.096   3.678   7.353
10520POPC   NC369719  10.538  38.445   5.553
10520POPC   PO469720  10.540  38.459   5.853
10520POPC   GL169721  10.519  38.439   6.153
10520POPC   GL269722  10.584  38.518   6.153
10520POPC   C1A69723  10.516  38.502   6.453
10520POPC   D2A69724  10.543  38.406   6.753
10520POPC   C3A69725  10.547  38.495   7.053
10520POPC   C4A69726  10.483  38.488   7.353
10520POPC   C1B69727  10.662  38.669   6.453
10520POPC   C2B69728  10.679  38.665   6.753
10520POPC   C3B69729  10.709  38.616   7.053
10520POPC   C4B69730  10.680  38.622   7.353
10521POPC   NC369731  19.847  43.842   5.553
10521POPC   PO469732  19.856  43.878   5.853
10521POPC   GL169733  19.822  43.929   6.153
10521POPC   GL269734  19.718  43.832   6.153
10521POPC   C1A69735  19.818  43.928   6.453
10521POPC   D2A69736  19.813  43.891   6.753
10521POPC   C3A69737  19.814  43.850   7.053
10521POPC   C4A69738  19.799  43.894   7.353
10521POPC   C1B69739  19.548  43.842   6.453
10521POPC   C2B69740  19.610  43.819   6.753
10521POPC   C3B69741  19.632  43.872   7.053
10521POPC   C4B69742  19.624  43.843   7.353
10522POPC   NC369743  19.097   8.987   5.553
10522POPC   PO469744  19.063   8.977   5.853
10522POPC   GL169745  19.039   9.014   6.153
10522POPC   GL269746  19.037   8.837   6.153
10522POPC   C1A69747  19.104   8.970   6.453
10522POPC   D2A69748  19.087   9.020   6.753
10522POPC   C3A69749  19.052   8.967   7.053
10522POPC   C4A69750  19.026   8.950   7.353
10522POPC   C1B69751  18.979   8.757   6.453
10522POPC   C2B69752  18.969   8.704   6.753
10522POPC   C3B69753  18.946   8.776   7.053
10522POPC   C4B69754  18.960   8.705   7.353
10523POPC   NC369755  36.171   0.453   5.553
10523POPC   PO469756  36.157   0.455   5.853
10523POPC   GL169757  36.091   0.472   6.153
10523POPC   GL269758  36.075   0.337   6.153
10523POPC   C1A69759  36.124   0.436   6.453
10523POPC   D2A69760  36.130   0.453   6.753
10523POPC   C3A69761  36.170   0.442   7.053
10523POPC   C4A69762  36.130   0.414   7.353
10523POPC   C1B69763  35.940   0.253   6.453
10523POPC   C2B69764  35.957   0.258   6.753
10523POPC   C3B69765  35.992   0.252   7.053
10523POPC   C4B69766  35.973   0.292   7.353
10524POPC   NC369767   9.741  38.453   5.553
10524POPC   PO469768   9.738  38.425   5.853
10524POPC   GL169769   9.705  38.435   6.153
10524POPC   GL269770   9.680  38.410   6.153
10524POPC   C1A69771   9.713  38.441   6.453
10524POPC   D2A69772   9.790  38.486   6.753
10524POPC   C3A69773   9.751  38.486   7.053
10524POPC   C4A69774   9.746  38.437   7.353
10524POPC   C1B69775   9.597  38.263   6.453
10524POPC   C2B69776   9.592  38.226   6.753
10524POPC   C3B69777   9.590  38.294   7.053
10524POPC   C4B69778   9.615  38.233   7.353
10525POPC   NC369779  29.933  27.551   5.553
10525POPC   PO469780  29.953  27.550   5.853
10525POPC   GL169781  29.876  27.613   6.153
10525POPC   GL269782  29.805  27.666   6.153
10525POPC   C1A69783  29.922  27.554   6.453
10525POPC   D2A69784  29.889  27.575   6.753
10525POPC   C3A69785  29.940  27.551   7.053
10525POPC   C4A69786  29.969  27.575   7.353
10525POPC   C1B69787  29.741  27.823   6.453
10525POPC   C2B69788  29.782  27.766   6.753
10525POPC   C3B69789  29.754  27.835   7.053
10525POPC   C4B69790  29.756  27.760   7.353
10526POPC   NC369791  33.005   5.871   5.553
10526POPC   PO469792  33.004   5.880   5.853
10526POPC   GL169793  33.007   5.918   6.153
10526POPC   GL269794  32.993   6.005   6.153
10526POPC   C1A69795  33.047   5.861   6.453
10526POPC   D2A69796  33.044   5.915   6.753
10526POPC   C3A69797  33.035   5.909   7.053
10526POPC   C4A69798  32.977   5.901   7.353
10526POPC   C1B69799  32.955   6.116   6.453
10526POPC   C2B69800  33.024   6.158   6.753
10526POPC   C3B69801  32.953   6.153   7.053
10526POPC   C4B69802  32.985   6.141   7.353
10527POPC   NC369803  11.318  12.865   5.553
10527POPC   PO469804  11.291  12.881   5.853
10527POPC   GL169805  11.251  12.871   6.153
10527POPC   GL269806  11.359  12.934   6.153
10527POPC   C1A69807  11.327  12.824   6.453
10527POPC   D2A69808  11.340  12.867   6.753
10527POPC   C3A69809  11.287  12.828   7.053
10527POPC   C4A69810  11.252  12.831   7.353
10527POPC   C1B69811  11.406  13.096   6.453
10527POPC   C2B69812  11.410  13.097   6.753
10527POPC   C3B69813  11.414  13.076   7.053
10527POPC   C4B69814  11.459  13.061   7.353
10528POPC   NC369815  17.505  17.508   5.553
10528POPC   PO469816  17.529  17.529   5.853
10528POPC   GL169817  17.514  17.491   6.153
10528POPC   GL269818  17.567  17.618   6.153
10528POPC   C1A69819  17.458  17.500   6.453
10528POPC   D2A69820  17.466  17.549   6.753
10528POPC   C3A69821  17.488  17.517   7.053
10528POPC   C4A69822  17.555  17.460   7.353
10528POPC   C1B69823  17.542  17.747   6.453
10528POPC   C2B69824  17.575  17.794   6.753
10528POPC   C3B69825  17.612  17.769   7.053
10528POPC   C4B69826  17.628  17.761   7.353
10529POPC   NC369827   8.214  36.913   5.553
10529POPC   PO469828   8.185  36.932   5.853
10529POPC   GL169829   8.207  36.869   6.153
10529POPC   GL269830   8.114  36.790   6.153
10529POPC   C1A69831   8.219  36.914   6.453
10529POPC   D2A69832   8.238  36.885   6.753
10529POPC   C3A69833   8.230  36.891   7.053
10529POPC   C4A69834   8.214  36.890   7.353
10529POPC   C1B69835   8.039  36.773   6.453
10529POPC   C2B69836   8.034  36.790   6.753
10529POPC   C3B69837   7.958  36.738   7.053
10529POPC   C4B69838   7.968  36.776   7.353
10530POPC   NC369839  40.757  37.670   5.553
10530POPC   PO469840  40.822  37.671   5.853
10530POPC   GL169841  40.784  37.671   6.153
10530POPC   GL269842  40.716  37.768   6.153
10530POPC   C1A69843  40.746  37.648   6.453
10530POPC   D2A69844  40.735  37.632   6.753
10530POPC   C3A69845  40.748  37.683   7.053
10530POPC   C4A69846  40.770  37.688   7.353
10530POPC   C1B69847  40.573  37.836   6.453
10530POPC   C2B69848  40.604  37.872   6.753
10530POPC   C3B69849  40.580  37.855   7.053
10530POPC   C4B69850  40.596  37.868   7.353
10531POPC   NC369851  33.781  12.095   5.553
10531POPC   PO469852  33.840  12.120   5.853
10531POPC   GL169853  33.841  12.107   6.153
10531POPC   GL269854  33.929  12.050   6.153
10531POPC   C1A69855  33.766  12.115   6.453
10531POPC   D2A69856  33.829  12.058   6.753
10531POPC   C3A69857  33.766  12.120   7.053
10531POPC   C4A69858  33.776  12.032   7.353
10531POPC   C1B69859  34.072  12.132   6.453
10531POPC   C2B69860  34.043  12.118   6.753
10531POPC   C3B69861  34.051  12.123   7.053
10531POPC   C4B69862  34.034  12.128   7.353
10532POPC   NC369863   6.600  16.711   5.553
10532POPC   PO469864   6.683  16.697   5.853
10532POPC   GL169865   6.656  16.708   6.153
10532POPC   GL269866   6.588  16.648   6.153
10532POPC   C1A69867   6.603  16.709   6.453
10532POPC   D2A69868   6.607  16.749   6.753
10532POPC   C3A69869   6.670  16.747   7.053
10532POPC   C4A69870   6.612  16.716   7.353
10532POPC   C1B69871   6.581  16.465   6.453
10532POPC   C2B69872   6.523  16.471   6.753
10532POPC   C3B69873   6.601  16.483   7.053
10532POPC   C4B69874   6.594  16.461   7.353
10533POPC   NC369875   6.614  33.066   5.553
10533POPC   PO469876   6.688  33.052   5.853
10533POPC   GL169877   6.631  33.043   6.153
10533POPC   GL269878   6.617  32.942   6.153
10533POPC   C1A69879   6.674  32.990   6.453
10533POPC   D2A69880   6.658  33.035   6.753
10533POPC   C3A69881   6.663  33.001   7.053
10533POPC   C4A69882   6.647  32.975   7.353
10533POPC   C1B69883   6.635  32.761   6.453
10533POPC   C2B69884   6.639  32.804   6.753
10533POPC   C3B69885   6.632  32.816   7.053
10533POPC   C4B69886   6.676  32.773   7.353
10534POPC   NC369887  28.356  43.899   5.553
10534POPC   PO469888  28.385  43.885   5.853
10534POPC   GL169889  28.399  43.930   6.153
10534POPC   GL269890  28.444  43.857   6.153
10534POPC   C1A69891  28.391  43.879   6.453
10534POPC   D2A69892  28.375  43.861   6.753
10534POPC   C3A69893  28.395  43.902   7.053
10534POPC   C4A69894  28.341  43.836   7.353
10534POPC   C1B69895  28.650  43.782   6.453
10534POPC   C2B69896  28.577  43.837   6.753
10534POPC   C3B69897  28.611  43.834   7.053
10534POPC   C4B69898  28.607  43.819   7.353
10535POPC   NC369899  24.476  41.526   5.553
10535POPC   PO469900  24.483  41.509   5.853
10535POPC   GL169901  24.500  41.597   6.153
10535POPC   GL269902  24.604  41.593   6.153
10535POPC   C1A69903  24.511  41.591   6.453
10535POPC   D2A69904  24.477  41.543   6.753
10535POPC   C3A69905  24.514  41.556   7.053
10535POPC   C4A69906  24.489  41.600   7.353
10535POPC   C1B69907  24.777  41.549   6.453
10535POPC   C2B69908  24.768  41.603   6.753
10535POPC   C3B69909  24.701  41.566   7.053
10535POPC   C4B69910  24.716  41.619   7.353
10536POPC   NC369911  29.102   1.260   5.553
10536POPC   PO469912  29.124   1.191   5.853
10536POPC   GL169913  29.120   1.229   6.153
10536POPC   GL269914  29.128   1.083   6.153
10536POPC   C1A69915  29.104   1.240   6.453
10536POPC   D2A69916  29.185   1.224   6.753
10536POPC   C3A69917  29.114   1.232   7.053
10536POPC   C4A69918  29.142   1.203   7.353
10536POPC   C1B69919  29.111   1.013   6.453
10536POPC   C2B69920  29.102   0.943   6.753
10536POPC   C3B69921  29.107   0.919   7.053
10536POPC   C4B69922  29.194   0.974   7.353
10537POPC   NC369923  18.241  20.638   5.553
10537POPC   PO469924  18.239  20.577   5.853
10537POPC   GL169925  18.233  20.591   6.153
10537POPC   GL269926  18.232  20.676   6.153
10537POPC   C1A69927  18.272  20.591   6.453
10537POPC   D2A69928  18.284  20.628   6.753
10537POPC   C3A69929  18.304  20.574   7.053
10537POPC   C4A69930  18.281  20.564   7.353
10537POPC   C1B69931  18.157  20.781   6.453
10537POPC   C2B69932  18.137  20.784   6.753
10537POPC   C3B69933  18.180  20.822   7.053
10537POPC   C4B69934  18.096  20.788   7.353
10538POPC   NC369935   7.409  33.786   5.553
10538POPC   PO469936   7.416  33.788   5.853
10538POPC   GL169937   7.392  33.838   6.153
10538POPC   GL269938   7.537  33.753   6.153
10538POPC   C1A69939   7.414  33.753   6.453
10538POPC   D2A69940   7.420  33.789   6.753
10538POPC   C3A69941   7.466  33.831   7.053
10538POPC   C4A69942   7.459  33.818   7.353
10538POPC   C1B69943   7.631  33.684   6.453
10538POPC   C2B69944   7.595  33.668   6.753
10538POPC   C3B69945   7.676  33.701   7.053
10538POPC   C4B69946   7.671  33.656   7.353
10539POPC   NC369947  43.848  23.673   5.553
10539POPC   PO469948  43.896  23.703   5.853
10539POPC   GL169949  43.904  23.676   6.153
10539POPC   GL269950  43.774  23.704   6.153
10539POPC   C1A69951  43.886  23.681   6.453
10539POPC   D2A69952  43.853  23.702   6.753
10539POPC   C3A69953  43.919  23.687   7.053
10539POPC   C4A69954  43.856  23.677   7.353
10539POPC   C1B69955  43.611  23.762   6.453
10539POPC   C2B69956  43.597  23.823   6.753
10539POPC   C3B69957  43.687  23.787   7.053
10539POPC   C4B69958  43.616  23.751   7.353
10540POPC   NC369959  33.776   5.848   5.553
10540POPC   PO469960  33.771   5.901   5.853
10540POPC   GL169961  33.760   5.874   6.153
10540POPC   GL269962  33.931   5.866   6.153
10540POPC   C1A69963  33.752   5.892   6.453
10540POPC   D2A69964  33.757   5.861   6.753
10540POPC   C3A69965  33.800   5.827   7.053
10540POPC   C4A69966  33.842   5.830   7.353
10540POPC   C1B69967  34.004   5.832   6.453
10540POPC   C2B69968  33.995   5.774   6.753
10540POPC   C3B69969  34.091   5.857   7.053
10540POPC   C4B69970  34.015   5.762   7.353
10541POPC   NC369971   9.707  10.513   5.553
10541POPC   PO469972   9.763  10.573   5.853
10541POPC   GL169973   9.764  10.475   6.153
10541POPC   GL269974   9.814  10.563   6.153
10541POPC   C1A69975   9.763  10.574   6.453
10541POPC   D2A69976   9.783  10.515   6.753
10541POPC   C3A69977   9.731  10.478   7.053
10541POPC   C4A69978   9.747  10.544   7.353
10541POPC   C1B69979   9.931  10.674   6.453
10541POPC   C2B69980   9.940  10.641   6.753
10541POPC   C3B69981   9.990  10.686   7.053
10541POPC   C4B69982  10.021  10.679   7.353
10542POPC   NC369983  29.191  39.217   5.553
10542POPC   PO469984  29.167  39.209   5.853
10542POPC   GL169985  29.144  39.223   6.153
10542POPC   GL269986  29.110  39.308   6.153
10542POPC   C1A69987  29.172  39.274   6.453
10542POPC   D2A69988  29.105  39.240   6.753
10542POPC   C3A69989  29.185  39.220   7.053
10542POPC   C4A69990  29.138  39.227   7.353
10542POPC   C1B69991  29.098  39.482   6.453
10542POPC   C2B69992  29.143  39.456   6.753
10542POPC   C3B69993  29.064  39.497   7.053
10542POPC   C4B69994  29.132  39.428   7.353
10543POPC   NC369995  10.524  31.488   5.553
10543POPC   PO469996  10.542  31.455   5.853
10543POPC   GL169997  10.479  31.485   6.153
10543POPC   GL269998  10.583  31.302   6.153
10543POPC   C1A69999  10.555  31.472   6.453
10543POPC   D2A70000  10.527  31.505   6.753
10543POPC   C3A70001  10.494  31.470   7.053
10543POPC   C4A70002  10.570  31.491   7.353
10543POPC   C1B70003  10.516  31.178   6.453
10543POPC   C2B70004  10.576  31.182   6.753
10543POPC   C3B70005  10.522  31.256   7.053
10543POPC   C4B70006  10.539  31.246   7.353
10544POPC   NC370007  35.358  41.545   5.553
10544POPC   PO470008  35.322  41.577   5.853
10544POPC   GL170009  35.392  41.587   6.153
10544POPC   GL270010  35.504  41.512   6.153
10544POPC   C1A70011  35.344  41.561   6.453
10544POPC   D2A70012  35.312  41.522   6.753
10544POPC   C3A70013  35.331  41.607   7.053
10544POPC   C4A70014  35.322  41.589   7.353
10544POPC   C1B70015  35.616  41.518   6.453
10544POPC   C2B70016  35.573  41.481   6.753
10544POPC   C3B70017  35.554  41.506   7.053
10544POPC   C4B70018  35.634  41.471   7.353
10545POPC   NC370019  29.918  39.993   5.553
10545POPC   PO470020  29.968  40.023   5.853
10545POPC   GL170021  29.965  40.045   6.153
10545POPC   GL270022  30.031  39.924   6.153
10545POPC   C1A70023  29.917  40.039   6.453
10545POPC   D2A70024  29.884  40.008   6.753
10545POPC   C3A70025  29.916  40.027   7.053
10545POPC   C4A70026  29.913  40.000   7.353
10545POPC   C1B70027  30.110  39.949   6.453
10545POPC   C2B70028  30.201  39.943   6.753
10545POPC   C3B70029  30.110  39.886   7.053
10545POPC   C4B70030  30.181  39.942   7.353
10546POPC   NC370031  25.302  25.304   5.553
10546POPC   PO470032  25.299  25.256   5.853
10546POPC   GL170033  25.216  25.308   6.153
10546POPC   GL270034  25.378  25.282   6.153
10546POPC   C1A70035  25.228  25.312   6.453
10546POPC   D2A70036  25.314  25.303   6.753
10546POPC   C3A70037  25.294  25.263   7.053
10546POPC   C4A70038  25.293  25.252   7.353
10546POPC   C1B70039  25.487  25.345   6.453
10546POPC   C2B70040  25.434  25.393   6.753
10546POPC   C3B70041  25.520  25.376   7.053
10546POPC   C4B70042  25.531  25.378   7.353
10547POPC   NC370043  23.702  19.795   5.553
10547POPC   PO470044  23.694  19.791   5.853
10547POPC   GL170045  23.732  19.816   6.153
10547POPC   GL270046  23.573  19.810   6.153
10547POPC   C1A70047  23.670  19.864   6.453
10547POPC   D2A70048  23.753  19.843   6.753
10547POPC   C3A70049  23.754  19.851   7.053
10547POPC   C4A70050  23.689  19.807   7.353
10547POPC   C1B70051  23.548  19.719   6.453
10547POPC   C2B70052  23.514  19.678   6.753
10547POPC   C3B70053  23.476  19.651   7.053
10547POPC   C4B70054  23.493  19.667   7.353
10548POPC   NC370055   0.459  33.790   5.553
10548POPC   PO470056   0.392  33.801   5.853
10548POPC   GL170057   0.437  33.788   6.153
10548POPC   GL270058   0.410  33.949   6.153
10548POPC   C1A70059   0.419  33.808   6.453
10548POPC   D2A70060   0.477  33.786   6.753
10548POPC   C3A70061   0.482  33.845   7.053
10548POPC   C4A70062   0.478  33.809   7.353
10548POPC   C1B70063   0.397  34.078   6.453
10548POPC   C2B70064   0.379  34.093   6.753
10548POPC   C3B70065   0.440  34.096   7.053
10548POPC   C4B70066   0.370  34.055   7.353
10549POPC   NC370067  31.493  28.391   5.553
10549POPC   PO470068  31.433  28.348   5.853
10549POPC   GL170069  31.499  28.342   6.153
10549POPC   GL270070  31.397  28.389   6.153
10549POPC   C1A70071  31.493  28.373   6.453
10549POPC   D2A70072  31.507  28.353   6.753
10549POPC   C3A70073  31.452  28.356   7.053
10549POPC   C4A70074  31.431  28.398   7.353
10549POPC   C1B70075  31.212  28.507   6.453
10549POPC   C2B70076  31.222  28.465   6.753
10549POPC   C3B70077  31.240  28.459   7.053
10549POPC   C4B70078  31.229  28.504   7.353
10550POPC   NC370079  37.680  29.130   5.553
10550POPC   PO470080  37.635  29.160   5.853
10550POPC   GL170081  37.692  29.153   6.153
10550POPC   GL270082  37.730  29.104   6.153
10550POPC   C1A70083  37.665  29.099   6.453
10550POPC   D2A70084  37.664  29.112   6.753
10550POPC   C3A70085  37.636  29.113   7.053
10550POPC   C4A70086  37.701  29.161   7.353
10550POPC   C1B70087  37.877  28.972   6.453
10550POPC   C2B70088  37.889  28.925   6.753
10550POPC   C3B70089  37.863  28.942   7.053
10550POPC   C4B70090  37.853  28.918   7.353
10551POPC   NC370091  23.752   9.750   5.553
10551POPC   PO470092  23.760   9.757   5.853
10551POPC   GL170093  23.703   9.759   6.153
10551POPC   GL270094  23.603   9.605   6.153
10551POPC   C1A70095  23.715   9.767   6.453
10551POPC   D2A70096  23.673   9.730   6.753
10551POPC   C3A70097  23.757   9.789   7.053
10551POPC   C4A70098  23.664   9.724   7.353
10551POPC   C1B70099  23.536   9.553   6.453
10551POPC   C2B70100  23.570   9.518   6.753
10551POPC   C3B70101  23.509   9.561   7.053
10551POPC   C4B70102  23.545   9.599   7.353
10552POPC   NC370103  26.000  36.952   5.553
10552POPC   PO470104  26.080  36.890   5.853
10552POPC   GL170105  26.075  36.896   6.153
10552POPC   GL270106  26.205  36.925   6.153
10552POPC   C1A70107  26.059  36.911   6.453
10552POPC   D2A70108  26.057  36.882   6.753
10552POPC   C3A70109  25.993  36.946   7.053
10552POPC   C4A70110  26.015  36.928   7.353
10552POPC   C1B70111  26.315  36.958   6.453
10552POPC   C2B70112  26.249  36.945   6.753
10552POPC   C3B70113  26.296  36.911   7.053
10552POPC   C4B70114  26.287  36.927   7.353
10553POPC   NC370115   8.962  35.374   5.553
10553POPC   PO470116   8.987  35.370   5.853
10553POPC   GL170117   8.928  35.361   6.153
10553POPC   GL270118   9.094  35.219   6.153
10553POPC   C1A70119   8.958  35.355   6.453
10553POPC   D2A70120   8.970  35.311   6.753
10553POPC   C3A70121   8.965  35.327   7.053
10553POPC   C4A70122   8.950  35.334   7.353
10553POPC   C1B70123   9.179  35.218   6.453
10553POPC   C2B70124   9.120  35.175   6.753
10553POPC   C3B70125   9.155  35.182   7.053
10553POPC   C4B70126   9.114  35.203   7.353
10554POPC   NC370127  19.019   2.742   5.553
10554POPC   PO470128  19.107   2.751   5.853
10554POPC   GL170129  19.076   2.768   6.153
10554POPC   GL270130  19.178   2.810   6.153
10554POPC   C1A70131  19.037   2.769   6.453
10554POPC   D2A70132  19.073   2.728   6.753
10554POPC   C3A70133  19.079   2.800   7.053
10554POPC   C4A70134  19.044   2.795   7.353
10554POPC   C1B70135  19.197   2.955   6.453
10554POPC   C2B70136  19.183   2.989   6.753
10554POPC   C3B70137  19.206   2.938   7.053
10554POPC   C4B70138  19.276   2.929   7.353
10555POPC   NC370139  28.358   4.325   5.553
10555POPC   PO470140  28.381   4.345   5.853
10555POPC   GL170141  28.391   4.307   6.153
10555POPC   GL270142  28.480   4.165   6.153
10555POPC   C1A70143  28.405   4.348   6.453
10555POPC   D2A70144  28.341   4.280   6.753
10555POPC   C3A70145  28.387   4.286   7.053
10555POPC   C4A70146  28.393   4.352   7.353
10555POPC   C1B70147  28.508   4.116   6.453
10555POPC   C2B70148  28.556   4.143   6.753
10555POPC   C3B70149  28.511   4.150   7.053
10555POPC   C4B70150  28.541   4.076   7.353
10556POPC   NC370151  36.089  10.521   5.553
10556POPC   PO470152  36.090  10.499   5.853
10556POPC   GL170153  36.124  10.560   6.153
10556POPC   GL270154  36.050  10.523   6.153
10556POPC   C1A70155  36.170  10.550   6.453
10556POPC   D2A70156  36.131  10.516   6.753
10556POPC   C3A70157  36.169  10.507   7.053
10556POPC   C4A70158  36.167  10.492   7.353
10556POPC   C1B70159  35.940  10.431   6.453
10556POPC   C2B70160  35.849  10.409   6.753
10556POPC   C3B70161  35.885  10.455   7.053
10556POPC   C4B70162  35.858  10.444   7.353
10557POPC   NC370163  18.327  36.115   5.553
10557POPC   PO470164  18.323  36.079   5.853
10557POPC   GL170165  18.281  36.144   6.153
10557POPC   GL270166  18.237  36.226   6.153
10557POPC   C1A70167  18.329  36.095   6.453
10557POPC   D2A70168  18.271  36.131   6.753
10557POPC   C3A70169  18.331  36.137   7.053
10557POPC   C4A70170  18.294  36.161   7.353
10557POPC   C1B70171  18.114  36.356   6.453
10557POPC   C2B70172  18.111  36.363   6.753
10557POPC   C3B70173  18.118  36.313   7.053
10557POPC   C4B70174  18.128  36.318   7.353
10558POPC   NC370175  40.770  35.343   5.553
10558POPC   PO470176  40.808  35.396   5.853
10558POPC   GL170177  40.819  35.319   6.153
10558POPC   GL270178  40.751  35.225   6.153
10558POPC   C1A70179  40.736  35.365   6.453
10558POPC   D2A70180  40.814  35.365   6.753
10558POPC   C3A70181  40.817  35.335   7.053
10558POPC   C4A70182  40.829  35.376   7.353
10558POPC   C1B70183  40.803  35.073   6.453
10558POPC   C2B70184  40.805  35.117   6.753
10558POPC   C3B70185  40.797  35.089   7.053
10558POPC   C4B70186  40.828  35.086   7.353
10559POPC   NC370187  28.394  12.847   5.553
10559POPC   PO470188  28.345  12.862   5.853
10559POPC   GL170189  28.336  12.874   6.153
10559POPC   GL270190  28.452  12.921   6.153
10559POPC   C1A70191  28.342  12.872   6.453
10559POPC   D2A70192  28.391  12.878   6.753
10559POPC   C3A70193  28.363  12.826   7.053
10559POPC   C4A70194  28.370  12.848   7.353
10559POPC   C1B70195  28.584  13.013   6.453
10559POPC   C2B70196  28.638  13.010   6.753
10559POPC   C3B70197  28.574  12.999   7.053
10559POPC   C4B70198  28.616  12.936   7.353
10560POPC   NC370199  40.037  22.891   5.553
10560POPC   PO470200  39.988  22.899   5.853
10560POPC   GL170201  39.977  22.928   6.153
10560POPC   GL270202  39.939  22.847   6.153
10560POPC   C1A70203  40.029  22.969   6.453
10560POPC   D2A70204  40.001  22.947   6.753
10560POPC   C3A70205  40.030  22.898   7.053
10560POPC   C4A70206  39.966  22.983   7.353
10560POPC   C1B70207  39.906  22.745   6.453
10560POPC   C2B70208  39.903  22.691   6.753
10560POPC   C3B70209  39.912  22.772   7.053
10560POPC   C4B70210  39.859  22.750   7.353
10561POPC   NC370211  32.298  43.837   5.553
10561POPC   PO470212  32.277  43.851   5.853
10561POPC   GL170213  32.215  43.854   6.153
10561POPC   GL270214  32.349  43.938   6.153
10561POPC   C1A70215  32.274  43.864   6.453
10561POPC   D2A70216  32.252  43.848   6.753
10561POPC   C3A70217  32.278  43.875   7.053
10561POPC   C4A70218  32.256  43.875   7.353
10561POPC   C1B70219  32.443  43.982   6.453
10561POPC   C2B70220  32.478  43.945   6.753
10561POPC   C3B70221  32.456  43.999   7.053
10561POPC   C4B70222  32.538  43.928   7.353
10562POPC   NC370223  44.677   9.791   5.553
10562POPC   PO470224  44.640   9.772   5.853
10562POPC   GL170225  44.620   9.735   6.153
10562POPC   GL270226  44.807   9.699   6.153
10562POPC   C1A70227  44.698   9.730   6.453
10562POPC   D2A70228  44.698   9.793   6.753
10562POPC   C3A70229  44.687   9.736   7.053
10562POPC   C4A70230  44.630   9.703   7.353
10562POPC   C1B70231  44.892   9.680   6.453
10562POPC   C2B70232  44.889   9.737   6.753
10562POPC   C3B70233  44.929   9.679   7.053
10562POPC   C4B70234  44.881   9.708   7.353
10563POPC   NC370235  33.786   2.761   5.553
10563POPC   PO470236  33.824   2.790   5.853
10563POPC   GL170237  33.818   2.772   6.153
10563POPC   GL270238  33.679   2.843   6.153
10563POPC   C1A70239  33.757   2.778   6.453
10563POPC   D2A70240  33.793   2.769   6.753
10563POPC   C3A70241  33.787   2.724   7.053
10563POPC   C4A70242  33.849   2.761   7.353
10563POPC   C1B70243  33.577   2.839   6.453
10563POPC   C2B70244  33.521   2.816   6.753
10563POPC   C3B70245  33.600   2.812   7.053
10563POPC   C4B70246  33.604   2.821   7.353
10564POPC   NC370247  19.019  17.484   5.553
10564POPC   PO470248  19.104  17.540   5.853
10564POPC   GL170249  19.016  17.479   6.153
10564POPC   GL270250  19.035  17.602   6.153
10564POPC   C1A70251  19.026  17.525   6.453
10564POPC   D2A70252  19.040  17.458   6.753
10564POPC   C3A70253  19.040  17.468   7.053
10564POPC   C4A70254  19.042  17.520   7.353
10564POPC   C1B70255  18.938  17.768   6.453
10564POPC   C2B70256  18.905  17.718   6.753
10564POPC   C3B70257  18.932  17.761   7.053
10564POPC   C4B70258  18.964  17.758   7.353
10565POPC   NC370259  22.177   8.186   5.553
10565POPC   PO470260  22.127   8.150   5.853
10565POPC   GL170261  22.133   8.149   6.153
10565POPC   GL270262  22.209   8.333   6.153
10565POPC   C1A70263  22.171   8.172   6.453
10565POPC   D2A70264  22.127   8.157   6.753
10565POPC   C3A70265  22.144   8.188   7.053
10565POPC   C4A70266  22.163   8.190   7.353
10565POPC   C1B70267  22.169   8.472   6.453
10565POPC   C2B70268  22.213   8.423   6.753
10565POPC   C3B70269  22.163   8.430   7.053
10565POPC   C4B70270  22.209   8.494   7.353
10566POPC   NC370271  27.599  28.319   5.553
10566POPC   PO470272  27.583  28.343   5.853
10566POPC   GL170273  27.632  28.417   6.153
10566POPC   GL270274  27.673  28.386   6.153
10566POPC   C1A70275  27.557  28.361   6.453
10566POPC   D2A70276  27.546  28.359   6.753
10566POPC   C3A70277  27.619  28.376   7.053
10566POPC   C4A70278  27.614  28.346   7.353
10566POPC   C1B70279  27.859  28.371   6.453
10566POPC   C2B70280  27.860  28.371   6.753
10566POPC   C3B70281  27.839  28.364   7.053
10566POPC   C4B70282  27.889  28.336   7.353
10567POPC   NC370283  36.889   0.459   5.553
10567POPC   PO470284  36.930   0.440   5.853
10567POPC   GL170285  36.866   0.428   6.153
10567POPC   GL270286  37.021   0.445   6.153
10567POPC   C1A70287  36.867   0.389   6.453
10567POPC   D2A70288  36.855   0.438   6.753
10567POPC   C3A70289  36.936   0.439   7.053
10567POPC   C4A70290  36.944   0.410   7.353
10567POPC   C1B70291  37.158   0.478   6.453
10567POPC   C2B70292  37.168   0.500   6.753
10567POPC   C3B70293  37.160   0.425   7.053
10567POPC   C4B70294  37.172   0.476   7.353
10568POPC   NC370295   3.546   1.168   5.553
10568POPC   PO470296   3.573   1.205   5.853
10568POPC   GL170297   3.504   1.196   6.153
10568POPC   GL270298   3.474   1.143   6.153
10568POPC   C1A70299   3.533   1.231   6.453
10568POPC   D2A70300   3.494   1.256   6.753
10568POPC   C3A70301   3.527   1.204   7.053
10568POPC   C4A70302   3.575   1.214   7.353
10568POPC   C1B70303   3.386   1.075   6.453
10568POPC   C2B70304   3.329   0.985   6.753
10568POPC   C3B70305   3.350   0.993   7.053
10568POPC   C4B70306   3.412   1.010   7.353
10569POPC   NC370307   4.277   5.074   5.553
10569POPC   PO470308   4.295   5.102   5.853
10569POPC   GL170309   4.359   5.046   6.153
10569POPC   GL270310   4.360   5.234   6.153
10569POPC   C1A70311   4.367   5.119   6.453
10569POPC   D2A70312   4.350   5.122   6.753
10569POPC   C3A70313   4.338   5.051   7.053
10569POPC   C4A70314   4.366   5.057   7.353
10569POPC   C1B70315   4.422   5.335   6.453
10569POPC   C2B70316   4.387   5.295   6.753
10569POPC   C3B70317   4.386   5.352   7.053
10569POPC   C4B70318   4.398   5.377   7.353
10570POPC   NC370319   7.379  19.097   5.553
10570POPC   PO470320   7.446  19.080   5.853
10570POPC   GL170321   7.393  19.021   6.153
10570POPC   GL270322   7.553  19.132   6.153
10570POPC   C1A70323   7.424  19.088   6.453
10570POPC   D2A70324   7.418  19.050   6.753
10570POPC   C3A70325   7.390  19.077   7.053
10570POPC   C4A70326   7.439  19.068   7.353
10570POPC   C1B70327   7.587  19.197   6.453
10570POPC   C2B70328   7.656  19.249   6.753
10570POPC   C3B70329   7.608  19.232   7.053
10570POPC   C4B70330   7.620  19.260   7.353
10571POPC   NC370331  13.652   6.602   5.553
10571POPC   PO470332  13.580   6.609   5.853
10571POPC   GL170333  13.665   6.597   6.153
10571POPC   GL270334  13.789   6.657   6.153
10571POPC   C1A70335  13.578   6.650   6.453
10571POPC   D2A70336  13.650   6.651   6.753
10571POPC   C3A70337  13.602   6.608   7.053
10571POPC   C4A70338  13.637   6.655   7.353
10571POPC   C1B70339  13.896   6.674   6.453
10571POPC   C2B70340  13.861   6.611   6.753
10571POPC   C3B70341  13.869   6.693   7.053
10571POPC   C4B70342  13.916   6.632   7.353
10572POPC   NC370343  39.248  30.712   5.553
10572POPC   PO470344  39.252  30.650   5.853
10572POPC   GL170345  39.241  30.671   6.153
10572POPC   GL270346  39.083  30.634   6.153
10572POPC   C1A70347  39.211  30.728   6.453
10572POPC   D2A70348  39.231  30.716   6.753
10572POPC   C3A70349  39.221  30.700   7.053
10572POPC   C4A70350  39.258  30.694   7.353
10572POPC   C1B70351  38.997  30.614   6.453
10572POPC   C2B70352  39.003  30.622   6.753
10572POPC   C3B70353  38.977  30.627   7.053
10572POPC   C4B70354  38.936  30.683   7.353
10573POPC   NC370355  28.384  28.391   5.553
10573POPC   PO470356  28.395  28.376   5.853
10573POPC   GL170357  28.355  28.416   6.153
10573POPC   GL270358  28.308  28.327   6.153
10573POPC   C1A70359  28.398  28.343   6.453
10573POPC   D2A70360  28.365  28.407   6.753
10573POPC   C3A70361  28.334  28.329   7.053
10573POPC   C4A70362  28.362  28.417   7.353
10573POPC   C1B70363  28.164  28.191   6.453
10573POPC   C2B70364  28.148  28.198   6.753
10573POPC   C3B70365  28.201  28.252   7.053
10573POPC   C4B70366  28.122  28.203   7.353
10574POPC   NC370367  39.264  38.432   5.553
10574POPC   PO470368  39.248  38.423   5.853
10574POPC   GL170369  39.235  38.415   6.153
10574POPC   GL270370  39.389  38.489   6.153
10574POPC   C1A70371  39.242  38.417   6.453
10574POPC   D2A70372  39.235  38.502   6.753
10574POPC   C3A70373  39.254  38.424   7.053
10574POPC   C4A70374  39.233  38.408   7.353
10574POPC   C1B70375  39.470  38.464   6.453
10574POPC   C2B70376  39.466  38.412   6.753
10574POPC   C3B70377  39.474  38.450   7.053
10574POPC   C4B70378  39.524  38.489   7.353
10575POPC   NC370379  26.017  44.707   5.553
10575POPC   PO470380  26.010  44.620   5.853
10575POPC   GL170381  26.055  44.665   6.153
10575POPC   GL270382  25.915  44.586   6.153
10575POPC   C1A70383  26.042  44.683   6.453
10575POPC   D2A70384  26.063  44.645   6.753
10575POPC   C3A70385  26.005  44.684   7.053
10575POPC   C4A70386  26.065  44.624   7.353
10575POPC   C1B70387  25.877  44.434   6.453
10575POPC   C2B70388  25.824  44.432   6.753
10575POPC   C3B70389  25.855  44.516   7.053
10575POPC   C4B70390  25.876  44.499   7.353
10576POPC   NC370391  20.589   4.272   5.553
10576POPC   PO470392  20.608   4.273   5.853
10576POPC   GL170393  20.599   4.292   6.153
10576POPC   GL270394  20.473   4.199   6.153
10576POPC   C1A70395  20.586   4.328   6.453
10576POPC   D2A70396  20.613   4.362   6.753
10576POPC   C3A70397  20.564   4.299   7.053
10576POPC   C4A70398  20.617   4.320   7.353
10576POPC   C1B70399  20.444   4.149   6.453
10576POPC   C2B70400  20.359   4.148   6.753
10576POPC   C3B70401  20.431   4.130   7.053
10576POPC   C4B70402  20.370   4.177   7.353
10577POPC   NC370403  38.409  36.175   5.553
10577POPC   PO470404  38.406  36.152   5.853
10577POPC   GL170405  38.437  36.108   6.153
10577POPC   GL270406  38.521  36.232   6.153
10577POPC   C1A70407  38.486  36.115   6.453
10577POPC   D2A70408  38.407  36.113   6.753
10577POPC   C3A70409  38.450  36.141   7.053
10577POPC   C4A70410  38.480  36.160   7.353
10577POPC   C1B70411  38.641  36.225   6.453
10577POPC   C2B70412  38.680  36.294   6.753
10577POPC   C3B70413  38.639  36.283   7.053
10577POPC   C4B70414  38.647  36.271   7.353
10578POPC   NC370415  27.555  43.924   5.553
10578POPC   PO470416  27.547  43.901   5.853
10578POPC   GL170417  27.552  43.918   6.153
10578POPC   GL270418  27.509  43.820   6.153
10578POPC   C1A70419  27.631  43.869   6.453
10578POPC   D2A70420  27.554  43.924   6.753
10578POPC   C3A70421  27.549  43.907   7.053
10578POPC   C4A70422  27.559  43.855   7.353
10578POPC   C1B70423  27.444  43.651   6.453
10578POPC   C2B70424  27.463  43.677   6.753
10578POPC   C3B70425  27.500  43.719   7.053
10578POPC   C4B70426  27.458  43.662   7.353
10579POPC   NC370427  41.579  31.456   5.553
10579POPC   PO470428  41.511  31.430   5.853
10579POPC   GL170429  41.547  31.432   6.153
10579POPC   GL270430  41.710  31.455   6.153
10579POPC   C1A70431  41.594  31.437   6.453
10579POPC   D2A70432  41.574  31.508   6.753
10579POPC   C3A70433  41.565  31.474   7.053
10579POPC   C4A70434  41.565  31.466   7.353
10579POPC   C1B70435  41.803  31.531   6.453
10579POPC   C2B70436  41.808  31.469   6.753
10579POPC   C3B70437  41.824  31.489   7.053
10579POPC   C4B70438  41.780  31.504   7.353
10580POPC   NC370439  43.131  18.238   5.553
10580POPC   PO470440  43.128  18.319   5.853
10580POPC   GL170441  43.152  18.246   6.153
10580POPC   GL270442  43.140  18.211   6.153
10580POPC   C1A70443  43.154  18.267   6.453
10580POPC   D2A70444  43.111  18.311   6.753
10580POPC   C3A70445  43.153  18.293   7.053
10580POPC   C4A70446  43.078  18.235   7.353
10580POPC   C1B70447  43.308  18.045   6.453
10580POPC   C2B70448  43.260  18.098   6.753
10580POPC   C3B70449  43.267  18.074   7.053
10580POPC   C4B70450  43.295  18.119   7.353
10581POPC   NC370451  29.148  34.604   5.553
10581POPC   PO470452  29.192  34.578   5.853
10581POPC   GL170453  29.129  34.571   6.153
10581POPC   GL270454  29.270  34.544   6.153
10581POPC   C1A70455  29.179  34.620   6.453
10581POPC   D2A70456  29.123  34.534   6.753
10581POPC   C3A70457  29.147  34.601   7.053
10581POPC   C4A70458  29.149  34.574   7.353
10581POPC   C1B70459  29.411  34.523   6.453
10581POPC   C2B70460  29.401  34.521   6.753
10581POPC   C3B70461  29.391  34.513   7.053
10581POPC   C4B70462  29.393  34.495   7.353
10582POPC   NC370463  17.481   5.850   5.553
10582POPC   PO470464  17.472   5.888   5.853
10582POPC   GL170465  17.471   5.824   6.153
10582POPC   GL270466  17.529   5.781   6.153
10582POPC   C1A70467  17.529   5.867   6.453
10582POPC   D2A70468  17.492   5.837   6.753
10582POPC   C3A70469  17.492   5.842   7.053
10582POPC   C4A70470  17.510   5.876   7.353
10582POPC   C1B70471  17.496   5.619   6.453
10582POPC   C2B70472  17.517   5.613   6.753
10582POPC   C3B70473  17.458   5.597   7.053
10582POPC   C4B70474  17.529   5.662   7.353
10583POPC   NC370475  25.265  22.205   5.553
10583POPC   PO470476  25.249  22.209   5.853
10583POPC   GL170477  25.278  22.149   6.153
10583POPC   GL270478  25.303  22.258   6.153
10583POPC   C1A70479  25.278  22.113   6.453
10583POPC   D2A70480  25.235  22.145   6.753
10583POPC   C3A70481  25.283  22.115   7.053
10583POPC   C4A70482  25.314  22.150   7.353
10583POPC   C1B70483  25.312  22.460   6.453
10583POPC   C2B70484  25.248  22.375   6.753
10583POPC   C3B70485  25.232  22.452   7.053
10583POPC   C4B70486  25.257  22.425   7.353
10584POPC   NC370487  37.728  24.494   5.553
10584POPC   PO470488  37.638  24.468   5.853
10584POPC   GL170489  37.631  24.462   6.153
10584POPC   GL270490  37.820  24.537   6.153
10584POPC   C1A70491  37.653  24.501   6.453
10584POPC   D2A70492  37.700  24.538   6.753
10584POPC   C3A70493  37.726  24.492   7.053
10584POPC   C4A70494  37.685  24.444   7.353
10584POPC   C1B70495  37.922  24.580   6.453
10584POPC   C2B70496  37.893  24.671   6.753
10584POPC   C3B70497  37.918  24.661   7.053
10584POPC   C4B70498  37.844  24.590   7.353
10585POPC   NC370499  31.482  35.363   5.553
10585POPC   PO470500  31.515  35.361   5.853
10585POPC   GL170501  31.505  35.394   6.153
10585POPC   GL270502  31.360  35.307   6.153
10585POPC   C1A70503  31.472  35.372   6.453
10585POPC   D2A70504  31.470  35.329   6.753
10585POPC   C3A70505  31.457  35.370   7.053
10585POPC   C4A70506  31.433  35.382   7.353
10585POPC   C1B70507  31.226  35.251   6.453
10585POPC   C2B70508  31.212  35.290   6.753
10585POPC   C3B70509  31.247  35.278   7.053
10585POPC   C4B70510  31.205  35.240   7.353
10586POPC   NC370511  38.443  30.668   5.553
10586POPC   PO470512  38.454  30.650   5.853
10586POPC   GL170513  38.486  30.651   6.153
10586POPC   GL270514  38.347  30.723   6.153
10586POPC   C1A70515  38.485  30.687   6.453
10586POPC   D2A70516  38.430  30.648   6.753
10586POPC   C3A70517  38.477  30.686   7.053
10586POPC   C4A70518  38.437  30.741   7.353
10586POPC   C1B70519  38.206  30.779   6.453
10586POPC   C2B70520  38.188  30.737   6.753
10586POPC   C3B70521  38.183  30.787   7.053
10586POPC   C4B70522  38.216  30.722   7.353
10587POPC   NC370523   8.973  32.221   5.553
10587POPC   PO470524   8.940  32.223   5.853
10587POPC   GL170525   8.927  32.225   6.153
10587POPC   GL270526   9.043  32.356   6.153
10587POPC   C1A70527   9.013  32.294   6.453
10587POPC   D2A70528   8.959  32.227   6.753
10587POPC   C3A70529   8.996  32.267   7.053
10587POPC   C4A70530   8.975  32.220   7.353
10587POPC   C1B70531   9.185  32.429   6.453
10587POPC   C2B70532   9.170  32.383   6.753
10587POPC   C3B70533   9.162  32.448   7.053
10587POPC   C4B70534   9.165  32.408   7.353
10588POPC   NC370535  21.345  28.371   5.553
10588POPC   PO470536  21.374  28.328   5.853
10588POPC   GL170537  21.347  28.319   6.153
10588POPC   GL270538  21.475  28.285   6.153
10588POPC   C1A70539  21.428  28.399   6.453
10588POPC   D2A70540  21.358  28.384   6.753
10588POPC   C3A70541  21.390  28.405   7.053
10588POPC   C4A70542  21.432  28.342   7.353
10588POPC   C1B70543  21.536  28.134   6.453
10588POPC   C2B70544  21.469  28.168   6.753
10588POPC   C3B70545  21.517  28.154   7.053
10588POPC   C4B70546  21.518  28.188   7.353
10589POPC   NC370547  15.167  13.578   5.553
10589POPC   PO470548  15.226  13.592   5.853
10589POPC   GL170549  15.189  13.676   6.153
10589POPC   GL270550  15.234  13.790   6.153
10589POPC   C1A70551  15.185  13.622   6.453
10589POPC   D2A70552  15.160  13.655   6.753
10589POPC   C3A70553  15.156  13.603   7.053
10589POPC   C4A70554  15.203  13.678   7.353
10589POPC   C1B70555  15.315  13.897   6.453
10589POPC   C2B70556  15.282  13.806   6.753
10589POPC   C3B70557  15.255  13.806   7.053
10589POPC   C4B70558  15.312  13.850   7.353
10590POPC   NC370559  25.235  10.534   5.553
10590POPC   PO470560  25.271  10.541   5.853
10590POPC   GL170561  25.233  10.510   6.153
10590POPC   GL270562  25.280  10.596   6.153
10590POPC   C1A70563  25.250  10.486   6.453
10590POPC   D2A70564  25.219  10.495   6.753
10590POPC   C3A70565  25.229  10.551   7.053
10590POPC   C4A70566  25.223  10.522   7.353
10590POPC   C1B70567  25.371  10.757   6.453
10590POPC   C2B70568  25.315  10.796   6.753
10590POPC   C3B70569  25.386  10.765   7.053
10590POPC   C4B70570  25.308  10.782   7.353
10591POPC   NC370571  41.564  28.350   5.553
10591POPC   PO470572  41.602  28.387   5.853
10591POPC   GL170573  41.543  28.391   6.153
10591POPC   GL270574  41.418  28.467   6.153
10591POPC   C1A70575  41.559  28.384   6.453
10591POPC   D2A70576  41.590  28.374   6.753
10591POPC   C3A70577  41.523  28.336   7.053
10591POPC   C4A70578  41.512  28.391   7.353
10591POPC   C1B70579  41.360  28.550   6.453
10591POPC   C2B70580  41.363  28.587   6.753
10591POPC   C3B70581  41.405  28.573   7.053
10591POPC   C4B70582  41.353  28.520   7.353
10592POPC   NC370583   2.744  12.097   5.553
10592POPC   PO470584   2.814  12.121   5.853
10592POPC   GL170585   2.744  12.033   6.153
10592POPC   GL270586   2.764  11.962   6.153
10592POPC   C1A70587   2.812  12.035   6.453
10592POPC   D2A70588   2.758  12.085   6.753
10592POPC   C3A70589   2.747  12.047   7.053
10592POPC   C4A70590   2.775  12.091   7.353
10592POPC   C1B70591   2.768  11.824   6.453
10592POPC   C2B70592   2.750  11.814   6.753
10592POPC   C3B70593   2.742  11.797   7.053
10592POPC   C4B70594   2.763  11.820   7.353
10593POPC   NC370595  20.598  32.242   5.553
10593POPC   PO470596  20.596  32.287   5.853
10593POPC   GL170597  20.566  32.286   6.153
10593POPC   GL270598  20.505  32.107   6.153
10593POPC   C1A70599  20.609  32.219   6.453
10593POPC   D2A70600  20.618  32.217   6.753
10593POPC   C3A70601  20.576  32.204   7.053
10593POPC   C4A70602  20.619  32.239   7.353
10593POPC   C1B70603  20.515  32.006   6.453
10593POPC   C2B70604  20.496  32.065   6.753
10593POPC   C3B70605  20.447  32.080   7.053
10593POPC   C4B70606  20.466  32.028   7.353
10594POPC   NC370607   6.632  41.519   5.553
10594POPC   PO470608   6.688  41.573   5.853
10594POPC   GL170609   6.623  41.511   6.153
10594POPC   GL270610   6.529  41.424   6.153
10594POPC   C1A70611   6.638  41.576   6.453
10594POPC   D2A70612   6.672  41.577   6.753
10594POPC   C3A70613   6.652  41.514   7.053
10594POPC   C4A70614   6.612  41.521   7.353
10594POPC   C1B70615   6.468  41.345   6.453
10594POPC   C2B70616   6.417  41.416   6.753
10594POPC   C3B70617   6.436  41.372   7.053
10594POPC   C4B70618   6.447  41.408   7.353
10595POPC   NC370619   8.239  39.254   5.553
10595POPC   PO470620   8.226  39.214   5.853
10595POPC   GL170621   8.237  39.216   6.153
10595POPC   GL270622   8.058  39.261   6.153
10595POPC   C1A70623   8.228  39.189   6.453
10595POPC   D2A70624   8.198  39.206   6.753
10595POPC   C3A70625   8.160  39.250   7.053
10595POPC   C4A70626   8.164  39.261   7.353
10595POPC   C1B70627   7.981  39.345   6.453
10595POPC   C2B70628   7.980  39.325   6.753
10595POPC   C3B70629   7.947  39.341   7.053
10595POPC   C4B70630   7.958  39.318   7.353
10596POPC   NC370631   1.973  39.272   5.553
10596POPC   PO470632   2.030  39.213   5.853
10596POPC   GL170633   1.940  39.236   6.153
10596POPC   GL270634   1.978  39.109   6.153
10596POPC   C1A70635   1.981  39.240   6.453
10596POPC   D2A70636   1.985  39.234   6.753
10596POPC   C3A70637   2.034  39.217   7.053
10596POPC   C4A70638   1.971  39.228   7.353
10596POPC   C1B70639   1.975  38.980   6.453
10596POPC   C2B70640   2.029  38.967   6.753
10596POPC   C3B70641   1.982  38.941   7.053
10596POPC   C4B70642   2.032  38.996   7.353
10597POPC   NC370643  16.699  17.532   5.553
10597POPC   PO470644  16.688  17.541   5.853
10597POPC   GL170645  16.770  17.514   6.153
10597POPC   GL270646  16.621  17.492   6.153
10597POPC   C1A70647  16.759  17.501   6.453
10597POPC   D2A70648  16.729  17.486   6.753
10597POPC   C3A70649  16.703  17.521   7.053
10597POPC   C4A70650  16.685  17.539   7.353
10597POPC   C1B70651  16.525  17.488   6.453
10597POPC   C2B70652  16.508  17.532   6.753
10597POPC   C3B70653  16.468  17.458   7.053
10597POPC   C4B70654  16.479  17.497   7.353
10598POPC   NC370655   5.134  28.402   5.553
10598POPC   PO470656   5.058  28.414   5.853
10598POPC   GL170657   5.049  28.417   6.153
10598POPC   GL270658   5.064  28.274   6.153
10598POPC   C1A70659   5.066  28.341   6.453
10598POPC   D2A70660   5.123  28.413   6.753
10598POPC   C3A70661   5.135  28.321   7.053
10598POPC   C4A70662   5.106  28.349   7.353
10598POPC   C1B70663   4.921  28.173   6.453
10598POPC   C2B70664   4.939  28.128   6.753
10598POPC   C3B70665   4.973  28.118   7.053
10598POPC   C4B70666   4.966  28.184   7.353
10599POPC   NC370667  14.362  19.040   5.553
10599POPC   PO470668  14.368  19.024   5.853
10599POPC   GL170669  14.449  19.083   6.153
10599POPC   GL270670  14.368  18.986   6.153
10599POPC   C1A70671  14.423  19.056   6.453
10599POPC   D2A70672  14.369  19.103   6.753
10599POPC   C3A70673  14.421  19.035   7.053
10599POPC   C4A70674  14.432  19.058   7.353
10599POPC   C1B70675  14.270  18.894   6.453
10599POPC   C2B70676  14.226  18.894   6.753
10599POPC   C3B70677  14.256  18.855   7.053
10599POPC   C4B70678  14.296  18.890   7.353
10600POPC   NC370679  44.627  11.345   5.553
10600POPC   PO470680  44.706  11.331   5.853
10600POPC   GL170681  44.655  11.309   6.153
10600POPC   GL270682  44.602  11.200   6.153
10600POPC   C1A70683  44.700  11.335   6.453
10600POPC   D2A70684  44.651  11.257   6.753
10600POPC   C3A70685  44.659  11.278   7.053
10600POPC   C4A70686  44.659  11.299   7.353
10600POPC   C1B70687  44.506  11.124   6.453
10600POPC   C2B70688  44.510  11.044   6.753
10600POPC   C3B70689  44.522  11.058   7.053
10600POPC   C4B70690  44.537  11.142   7.353
10601POPC   NC370691  32.976  31.490   5.553
10601POPC   PO470692  32.995  31.447   5.853
10601POPC   GL170693  33.036  31.518   6.153
10601POPC   GL270694  32.955  31.350   6.153
10601POPC   C1A70695  32.988  31.515   6.453
10601POPC   D2A70696  33.036  31.430   6.753
10601POPC   C3A70697  33.052  31.446   7.053
10601POPC   C4A70698  33.001  31.492   7.353
10601POPC   C1B70699  32.844  31.284   6.453
10601POPC   C2B70700  32.828  31.329   6.753
10601POPC   C3B70701  32.825  31.278   7.053
10601POPC   C4B70702  32.814  31.322   7.353
10602POPC   NC370703  39.259  14.407   5.553
10602POPC   PO470704  39.245  14.437   5.853
10602POPC   GL170705  39.200  14.405   6.153
10602POPC   GL270706  39.216  14.558   6.153
10602POPC   C1A70707  39.266  14.360   6.453
10602POPC   D2A70708  39.209  14.370   6.753
10602POPC   C3A70709  39.231  14.414   7.053
10602POPC   C4A70710  39.240  14.401   7.353
10602POPC   C1B70711  39.153  14.686   6.453
10602POPC   C2B70712  39.139  14.682   6.753
10602POPC   C3B70713  39.127  14.660   7.053
10602POPC   C4B70714  39.221  14.618   7.353
10603POPC   NC370715   8.215  33.060   5.553
10603POPC   PO470716   8.183  33.008   5.853
10603POPC   GL170717   8.231  32.978   6.153
10603POPC   GL270718   8.126  32.909   6.153
10603POPC   C1A70719   8.246  32.975   6.453
10603POPC   D2A70720   8.189  32.978   6.753
10603POPC   C3A70721   8.162  33.052   7.053
10603POPC   C4A70722   8.177  33.018   7.353
10603POPC   C1B70723   8.134  32.783   6.453
10603POPC   C2B70724   8.123  32.781   6.753
10603POPC   C3B70725   8.164  32.766   7.053
10603POPC   C4B70726   8.116  32.813   7.353
10604POPC   NC370727  37.685  40.014   5.553
10604POPC   PO470728  37.660  40.019   5.853
10604POPC   GL170729  37.647  39.975   6.153
10604POPC   GL270730  37.728  40.061   6.153
10604POPC   C1A70731  37.665  39.988   6.453
10604POPC   D2A70732  37.705  40.017   6.753
10604POPC   C3A70733  37.638  39.985   7.053
10604POPC   C4A70734  37.659  39.980   7.353
10604POPC   C1B70735  37.886  40.197   6.453
10604POPC   C2B70736  37.887  40.135   6.753
10604POPC   C3B70737  37.891  40.203   7.053
10604POPC   C4B70738  37.873  40.193   7.353
10605POPC   NC370739  31.453  27.593   5.553
10605POPC   PO470740  31.436  27.566   5.853
10605POPC   GL170741  31.455  27.567   6.153
10605POPC   GL270742  31.397  27.493   6.153
10605POPC   C1A70743  31.454  27.633   6.453
10605POPC   D2A70744  31.496  27.545   6.753
10605POPC   C3A70745  31.518  27.549   7.053
10605POPC   C4A70746  31.462  27.596   7.353
10605POPC   C1B70747  31.270  27.477   6.453
10605POPC   C2B70748  31.224  27.482   6.753
10605POPC   C3B70749  31.206  27.472   7.053
10605POPC   C4B70750  31.283  27.525   7.353
10606POPC   NC370751  21.425  26.002   5.553
10606POPC   PO470752  21.350  26.048   5.853
10606POPC   GL170753  21.376  26.029   6.153
10606POPC   GL270754  21.512  25.923   6.153
10606POPC   C1A70755  21.382  26.089   6.453
10606POPC   D2A70756  21.368  26.008   6.753
10606POPC   C3A70757  21.428  26.084   7.053
10606POPC   C4A70758  21.415  26.011   7.353
10606POPC   C1B70759  21.564  25.870   6.453
10606POPC   C2B70760  21.558  25.942   6.753
10606POPC   C3B70761  21.566  25.949   7.053
10606POPC   C4B70762  21.580  25.942   7.353
10607POPC   NC370763  42.364  29.134   5.553
10607POPC   PO470764  42.357  29.165   5.853
10607POPC   GL170765  42.293  29.192   6.153
10607POPC   GL270766  42.188  29.198   6.153
10607POPC   C1A70767  42.365  29.108   6.453
10607POPC   D2A70768  42.336  29.191   6.753
10607POPC   C3A70769  42.383  29.137   7.053
10607POPC   C4A70770  42.382  29.151   7.353
10607POPC   C1B70771  42.133  29.302   6.453
10607POPC   C2B70772  42.108  29.326   6.753
10607POPC   C3B70773  42.092  29.348   7.053
10607POPC   C4B70774  42.118  29.280   7.353
10608POPC   NC370775  27.594  36.893   5.553
10608POPC   PO470776  27.589  36.908   5.853
10608POPC   GL170777  27.633  36.932   6.153
10608POPC   GL270778  27.514  36.929   6.153
10608POPC   C1A70779  27.601  36.882   6.453
10608POPC   D2A70780  27.628  36.932   6.753
10608POPC   C3A70781  27.632  36.888   7.053
10608POPC   C4A70782  27.639  36.906   7.353
10608POPC   C1B70783  27.340  36.966   6.453
10608POPC   C2B70784  27.301  36.965   6.753
10608POPC   C3B70785  27.328  36.927   7.053
10608POPC   C4B70786  27.315  36.989   7.353
10609POPC   NC370787  43.908  40.013   5.553
10609POPC   PO470788  43.891  40.048   5.853
10609POPC   GL170789  43.904  40.027   6.153
10609POPC   GL270790  43.998  39.884   6.153
10609POPC   C1A70791  43.920  40.034   6.453
10609POPC   D2A70792  43.932  40.018   6.753
10609POPC   C3A70793  43.863  40.008   7.053
10609POPC   C4A70794  43.887  40.043   7.353
10609POPC   C1B70795  44.027  39.809   6.453
10609POPC   C2B70796  44.050  39.797   6.753
10609POPC   C3B70797  44.076  39.771   7.053
10609POPC   C4B70798  44.070  39.800   7.353
10610POPC   NC370799   9.753  28.416   5.553
10610POPC   PO470800   9.778  28.400   5.853
10610POPC   GL170801   9.718  28.344   6.153
10610POPC   GL270802   9.862  28.390   6.153
10610POPC   C1A70803   9.717  28.384   6.453
10610POPC   D2A70804   9.746  28.386   6.753
10610POPC   C3A70805   9.776  28.361   7.053
10610POPC   C4A70806   9.704  28.403   7.353
10610POPC   C1B70807   9.963  28.388   6.453
10610POPC   C2B70808  10.021  28.369   6.753
10610POPC   C3B70809  10.032  28.407   7.053
10610POPC   C4B70810   9.968  28.345   7.353
10611POPC   NC370811   5.050  42.308   5.553
10611POPC   PO470812   5.134  42.285   5.853
10611POPC   GL170813   5.117  42.338   6.153
10611POPC   GL270814   5.181  42.444   6.153
10611POPC   C1A70815   5.045  42.366   6.453
10611POPC   D2A70816   5.093  42.342   6.753
10611POPC   C3A70817   5.075  42.349   7.053
10611POPC   C4A70818   5.055  42.295   7.353
10611POPC   C1B70819   5.324  42.523   6.453
10611POPC   C2B70820   5.309  42.443   6.753
10611POPC   C3B70821   5.280  42.487   7.053
10611POPC   C4B70822   5.241  42.448   7.353
10612POPC   NC370823  43.097  20.624   5.553
10612POPC   PO470824  43.130  20.626   5.853
10612POPC   GL170825  43.061  20.624   6.153
10612POPC   GL270826  43.008  20.653   6.153
10612POPC   C1A70827  43.140  20.588   6.453
10612POPC   D2A70828  43.090  20.564   6.753
10612POPC   C3A70829  43.118  20.619   7.053
10612POPC   C4A70830  43.086  20.601   7.353
10612POPC   C1B70831  42.857  20.755   6.453
10612POPC   C2B70832  42.936  20.705   6.753
10612POPC   C3B70833  42.875  20.769   7.053
10612POPC   C4B70834  42.924  20.693   7.353
10613POPC   NC370835   2.807  16.728   5.553
10613POPC   PO470836   2.716  16.701   5.853
10613POPC   GL170837   2.769  16.702   6.153
10613POPC   GL270838   2.929  16.725   6.153
10613POPC   C1A70839   2.743  16.699   6.453
10613POPC   D2A70840   2.759  16.753   6.753
10613POPC   C3A70841   2.763  16.682   7.053
10613POPC   C4A70842   2.731  16.772   7.353
10613POPC   C1B70843   2.977  16.652   6.453
10613POPC   C2B70844   3.014  16.710   6.753
10613POPC   C3B70845   3.035  16.642   7.053
10613POPC   C4B70846   3.030  16.710   7.353
10614POPC   NC370847   8.197  19.043   5.553
10614POPC   PO470848   8.222  19.040   5.853
10614POPC   GL170849   8.176  19.087   6.153
10614POPC   GL270850   8.226  18.962   6.153
10614POPC   C1A70851   8.195  19.025   6.453
10614POPC   D2A70852   8.210  19.075   6.753
10614POPC   C3A70853   8.246  19.054   7.053
10614POPC   C4A70854   8.184  19.102   7.353
10614POPC   C1B70855   8.159  18.837   6.453
10614POPC   C2B70856   8.217  18.796   6.753
10614POPC   C3B70857   8.212  18.807   7.053
10614POPC   C4B70858   8.146  18.794   7.353
10615POPC   NC370859   1.979  12.879   5.553
10615POPC   PO470860   2.038  12.824   5.853
10615POPC   GL170861   1.948  12.830   6.153
10615POPC   GL270862   1.916  12.913   6.153
10615POPC   C1A70863   1.995  12.900   6.453
10615POPC   D2A70864   1.947  12.853   6.753
10615POPC   C3A70865   2.024  12.813   7.053
10615POPC   C4A70866   2.015  12.880   7.353
10615POPC   C1B70867   1.711  12.910   6.453
10615POPC   C2B70868   1.774  12.939   6.753
10615POPC   C3B70869   1.792  12.843   7.053
10615POPC   C4B70870   1.701  12.933   7.353
10616POPC   NC370871  22.138   9.006   5.553
10616POPC   PO470872  22.118   9.008   5.853
10616POPC   GL170873  22.188   8.959   6.153
10616POPC   GL270874  22.208   8.886   6.153
10616POPC   C1A70875  22.185   8.933   6.453
10616POPC   D2A70876  22.205   8.938   6.753
10616POPC   C3A70877  22.166   8.995   7.053
10616POPC   C4A70878  22.132   8.982   7.353
10616POPC   C1B70879  22.267   8.811   6.453
10616POPC   C2B70880  22.295   8.775   6.753
10616POPC   C3B70881  22.308   8.820   7.053
10616POPC   C4B70882  22.308   8.772   7.353
10617POPC   NC370883  39.253   1.199   5.553
10617POPC   PO470884  39.236   1.254   5.853
10617POPC   GL170885  39.276   1.194   6.153
10617POPC   GL270886  39.311   1.303   6.153
10617POPC   C1A70887  39.184   1.206   6.453
10617POPC   D2A70888  39.279   1.232   6.753
10617POPC   C3A70889  39.242   1.208   7.053
10617POPC   C4A70890  39.183   1.169   7.353
10617POPC   C1B70891  39.392   1.461   6.453
10617POPC   C2B70892  39.382   1.417   6.753
10617POPC   C3B70893  39.354   1.404   7.053
10617POPC   C4B70894  39.392   1.383   7.353
10618POPC   NC370895  36.129   1.227   5.553
10618POPC   PO470896  36.149   1.234   5.853
10618POPC   GL170897  36.166   1.229   6.153
10618POPC   GL270898  36.213   1.072   6.153
10618POPC   C1A70899  36.092   1.207   6.453
10618POPC   D2A70900  36.159   1.217   6.753
10618POPC   C3A70901  36.145   1.249   7.053
10618POPC   C4A70902  36.134   1.256   7.353
10618POPC   C1B70903  36.219   0.997   6.453
10618POPC   C2B70904  36.229   0.979   6.753
10618POPC   C3B70905  36.217   1.015   7.053
10618POPC   C4B70906  36.185   1.014   7.353
10619POPC   NC370907  26.051  11.255   5.553
10619POPC   PO470908  26.028  11.260   5.853
10619POPC   GL170909  26.000  11.340   6.153
10619POPC   GL270910  26.108  11.179   6.153
10619POPC   C1A70911  26.026  11.270   6.453
10619POPC   D2A70912  26.054  11.281   6.753
10619POPC   C3A70913  26.048  11.270   7.053
10619POPC   C4A70914  26.013  11.260   7.353
10619POPC   C1B70915  26.080  11.071   6.453
10619POPC   C2B70916  26.070  11.074   6.753
10619POPC   C3B70917  26.139  11.073   7.053
10619POPC   C4B70918  26.156  11.083   7.353
10620POPC   NC370919  29.106  15.931   5.553
10620POPC   PO470920  29.112  15.996   5.853
10620POPC   GL170921  29.190  15.974   6.153
10620POPC   GL270922  29.111  16.076   6.153
10620POPC   C1A70923  29.104  15.926   6.453
10620POPC   D2A70924  29.108  15.959   6.753
10620POPC   C3A70925  29.175  15.913   7.053
10620POPC   C4A70926  29.157  15.968   7.353
10620POPC   C1B70927  28.958  16.120   6.453
10620POPC   C2B70928  28.953  16.184   6.753
10620POPC   C3B70929  28.979  16.189   7.053
10620POPC   C4B70930  29.029  16.125   7.353
10621POPC   NC370931  17.494   9.741   5.553
10621POPC   PO470932  17.488   9.753   5.853
10621POPC   GL170933  17.514   9.755   6.153
10621POPC   GL270934  17.601   9.839   6.153
10621POPC   C1A70935  17.516   9.701   6.453
10621POPC   D2A70936  17.504   9.770   6.753
10621POPC   C3A70937  17.508   9.718   7.053
10621POPC   C4A70938  17.485   9.791   7.353
10621POPC   C1B70939  17.641   9.912   6.453
10621POPC   C2B70940  17.661   9.953   6.753
10621POPC   C3B70941  17.642   9.953   7.053
10621POPC   C4B70942  17.627   9.957   7.353
10622POPC   NC370943  24.474  44.639   5.553
10622POPC   PO470944  24.536  44.616   5.853
10622POPC   GL170945  24.512  44.678   6.153
10622POPC   GL270946  24.432  44.576   6.153
10622POPC   C1A70947  24.522  44.621   6.453
10622POPC   D2A70948  24.509  44.616   6.753
10622POPC   C3A70949  24.482  44.712   7.053
10622POPC   C4A70950  24.472  44.709   7.353
10622POPC   C1B70951  24.346  44.516   6.453
10622POPC   C2B70952  24.297  44.473   6.753
10622POPC   C3B70953  24.349  44.513   7.053
10622POPC   C4B70954  24.290  44.497   7.353
10623POPC   NC370955   7.430  42.313   5.553
10623POPC   PO470956   7.444  42.310   5.853
10623POPC   GL170957   7.459  42.351   6.153
10623POPC   GL270958   7.573  42.422   6.153
10623POPC   C1A70959   7.428  42.380   6.453
10623POPC   D2A70960   7.416  42.288   6.753
10623POPC   C3A70961   7.465  42.297   7.053
10623POPC   C4A70962   7.424  42.322   7.353
10623POPC   C1B70963   7.702  42.418   6.453
10623POPC   C2B70964   7.680  42.386   6.753
10623POPC   C3B70965   7.627  42.422   7.053
10623POPC   C4B70966   7.610  42.383   7.353
10624POPC   NC370967  26.072  15.936   5.553
10624POPC   PO470968  26.081  15.992   5.853
10624POPC   GL170969  25.998  15.947   6.153
10624POPC   GL270970  26.124  16.014   6.153
10624POPC   C1A70971  26.072  15.931   6.453
10624POPC   D2A70972  26.027  15.910   6.753
10624POPC   C3A70973  26.012  15.916   7.053
10624POPC   C4A70974  26.052  15.943   7.353
10624POPC   C1B70975  26.233  16.170   6.453
10624POPC   C2B70976  26.164  16.096   6.753
10624POPC   C3B70977  26.176  16.193   7.053
10624POPC   C4B70978  26.174  16.121   7.353
10625POPC   NC370979   1.993  27.578   5.553
10625POPC   PO470980   2.005  27.637   5.853
10625POPC   GL170981   1.945  27.589   6.153
10625POPC   GL270982   2.057  27.662   6.153
10625POPC   C1A70983   1.983  27.596   6.453
10625POPC   D2A70984   2.039  27.622   6.753
10625POPC   C3A70985   1.959  27.546   7.053
10625POPC   C4A70986   1.950  27.575   7.353
10625POPC   C1B70987   2.128  27.773   6.453
10625POPC   C2B70988   2.104  27.798   6.753
10625POPC   C3B70989   2.081  27.799   7.053
10625POPC   C4B70990   2.116  27.841   7.353
10626POPC   NC370991  30.690  26.084   5.553
10626POPC   PO470992  30.683  26.035   5.853
10626POPC   GL170993  30.671  26.080   6.153
10626POPC   GL270994  30.622  25.940   6.153
10626POPC   C1A70995  30.727  26.007   6.453
10626POPC   D2A70996  30.698  26.041   6.753
10626POPC   C3A70997  30.652  26.074   7.053
10626POPC   C4A70998  30.649  26.038   7.353
10626POPC   C1B70999  30.559  25.897   6.453
10626POPC   C2B71000  30.502  25.836   6.753
10626POPC   C3B71001  30.482  25.864   7.053
10626POPC   C4B71002  30.504  25.865   7.353
10627POPC   NC371003  19.797  29.902   5.553
10627POPC   PO471004  19.881  29.874   5.853
10627POPC   GL171005  19.877  29.914   6.153
10627POPC   GL271006  19.763  29.811   6.153
10627POPC   C1A71007  19.837  29.937   6.453
10627POPC   D2A71008  19.824  29.928   6.753
10627POPC   C3A71009  19.800  29.910   7.053
10627POPC   C4A71010  19.839  29.903   7.353
10627POPC   C1B71011  19.622  29.777   6.453
10627POPC   C2B71012  19.628  29.757   6.753
10627POPC   C3B71013  19.611  29.782   7.053
10627POPC   C4B71014  19.620  29.783   7.353
10628POPC   NC371015  12.814  38.451   5.553
10628POPC   PO471016  12.829  38.425   5.853
10628POPC   GL171017  12.809  38.489   6.153
10628POPC   GL271018  12.969  38.501   6.153
10628POPC   C1A71019  12.901  38.467   6.453
10628POPC   D2A71020  12.864  38.486   6.753
10628POPC   C3A71021  12.805  38.420   7.053
10628POPC   C4A71022  12.890  38.457   7.353
10628POPC   C1B71023  13.059  38.452   6.453
10628POPC   C2B71024  13.083  38.449   6.753
10628POPC   C3B71025  13.095  38.501   7.053
10628POPC   C4B71026  13.125  38.510   7.353
10629POPC   NC371027  33.068  22.971   5.553
10629POPC   PO471028  33.000  22.946   5.853
10629POPC   GL171029  33.004  22.954   6.153
10629POPC   GL271030  32.883  23.009   6.153
10629POPC   C1A71031  33.021  22.942   6.453
10629POPC   D2A71032  33.011  22.939   6.753
10629POPC   C3A71033  33.009  22.978   7.053
10629POPC   C4A71034  33.061  22.959   7.353
10629POPC   C1B71035  32.751  22.947   6.453
10629POPC   C2B71036  32.784  23.005   6.753
10629POPC   C3B71037  32.794  22.932   7.053
10629POPC   C4B71038  32.799  23.030   7.353
10630POPC   NC371039  43.866   0.473   5.553
10630POPC   PO471040  43.927   0.486   5.853
10630POPC   GL171041  43.904   0.484   6.153
10630POPC   GL271042  44.056   0.461   6.153
10630POPC   C1A71043  43.878   0.476   6.453
10630POPC   D2A71044  43.904   0.484   6.753
10630POPC   C3A71045  43.850   0.393   7.053
10630POPC   C4A71046  43.894   0.447   7.353
10630POPC   C1B71047  44.164   0.425   6.453
10630POPC   C2B71048  44.100   0.376   6.753
10630POPC   C3B71049  44.145   0.368   7.053
10630POPC   C4B71050  44.178   0.450   7.353
10631POPC   NC371051  41.567   4.326   5.553
10631POPC   PO471052  41.564   4.284   5.853
10631POPC   GL171053  41.572   4.293   6.153
10631POPC   GL271054  41.458   4.249   6.153
10631POPC   C1A71055  41.584   4.353   6.453
10631POPC   D2A71056  41.530   4.358   6.753
10631POPC   C3A71057  41.570   4.313   7.053
10631POPC   C4A71058  41.518   4.271   7.353
10631POPC   C1B71059  41.415   4.165   6.453
10631POPC   C2B71060  41.380   4.152   6.753
10631POPC   C3B71061  41.391   4.150   7.053
10631POPC   C4B71062  41.413   4.127   7.353
10632POPC   NC371063  24.521  26.049   5.553
10632POPC   PO471064  24.457  26.054   5.853
10632POPC   GL171065  24.516  26.080   6.153
10632POPC   GL271066  24.581  26.113   6.153
10632POPC   C1A71067  24.497  26.064   6.453
10632POPC   D2A71068  24.504  26.068   6.753
10632POPC   C3A71069  24.445  26.000   7.053
10632POPC   C4A71070  24.465  25.996   7.353
10632POPC   C1B71071  24.702  26.221   6.453
10632POPC   C2B71072  24.655  26.211   6.753
10632POPC   C3B71073  24.639  26.202   7.053
10632POPC   C4B71074  24.679  26.268   7.353
10633POPC   NC371075  30.679  33.070   5.553
10633POPC   PO471076  30.687  33.046   5.853
10633POPC   GL171077  30.715  32.976   6.153
10633POPC   GL271078  30.854  33.000   6.153
10633POPC   C1A71079  30.727  32.991   6.453
10633POPC   D2A71080  30.717  32.995   6.753
10633POPC   C3A71081  30.718  32.993   7.053
10633POPC   C4A71082  30.679  32.992   7.353
10633POPC   C1B71083  30.959  33.035   6.453
10633POPC   C2B71084  30.948  32.955   6.753
10633POPC   C3B71085  30.987  33.042   7.053
10633POPC   C4B71086  30.932  32.962   7.353
10634POPC   NC371087  12.099  15.964   5.553
10634POPC   PO471088  12.122  15.996   5.853
10634POPC   GL171089  12.052  15.962   6.153
10634POPC   GL271090  11.965  15.901   6.153
10634POPC   C1A71091  12.102  15.993   6.453
10634POPC   D2A71092  12.095  15.907   6.753
10634POPC   C3A71093  12.075  15.925   7.053
10634POPC   C4A71094  12.076  15.933   7.353
10634POPC   C1B71095  11.800  15.874   6.453
10634POPC   C2B71096  11.813  15.904   6.753
10634POPC   C3B71097  11.818  15.934   7.053
10634POPC   C4B71098  11.865  15.942   7.353
10635POPC   NC371099   6.661  19.843   5.553
10635POPC   PO471100   6.645  19.832   5.853
10635POPC   GL171101   6.666  19.870   6.153
10635POPC   GL271102   6.750  19.918   6.153
10635POPC   C1A71103   6.664  19.849   6.453
10635POPC   D2A71104   6.659  19.795   6.753
10635POPC   C3A71105   6.639  19.852   7.053
10635POPC   C4A71106   6.693  19.849   7.353
10635POPC   C1B71107   6.807  20.033   6.453
10635POPC   C2B71108   6.881  20.028   6.753
10635POPC   C3B71109   6.834  19.960   7.053
10635POPC   C4B71110   6.867  19.977   7.353
10636POPC   NC371111  20.644  12.078   5.553
10636POPC   PO471112  20.639  12.052   5.853
10636POPC   GL171113  20.637  12.056   6.153
10636POPC   GL271114  20.691  12.169   6.153
10636POPC   C1A71115  20.595  12.060   6.453
10636POPC   D2A71116  20.644  12.037   6.753
10636POPC   C3A71117  20.637  12.094   7.053
10636POPC   C4A71118  20.647  12.056   7.353
10636POPC   C1B71119  20.769  12.275   6.453
10636POPC   C2B71120  20.739  12.267   6.753
10636POPC   C3B71121  20.815  12.240   7.053
10636POPC   C4B71122  20.753  12.284   7.353
10637POPC   NC371123  31.423  38.445   5.553
10637POPC   PO471124  31.511  38.412   5.853
10637POPC   GL171125  31.457  38.470   6.153
10637POPC   GL271126  31.501  38.577   6.153
10637POPC   C1A71127  31.452  38.475   6.453
10637POPC   D2A71128  31.508  38.420   6.753
10637POPC   C3A71129  31.521  38.432   7.053
10637POPC   C4A71130  31.504  38.476   7.353
10637POPC   C1B71131  31.514  38.722   6.453
10637POPC   C2B71132  31.427  38.671   6.753
10637POPC   C3B71133  31.501  38.696   7.053
10637POPC   C4B71134  31.442  38.705   7.353
10638POPC   NC371135   0.436  37.631   5.553
10638POPC   PO471136   0.455  37.697   5.853
10638POPC   GL171137   0.478  37.714   6.153
10638POPC   GL271138   0.410  37.574   6.153
10638POPC   C1A71139   0.438  37.647   6.453
10638POPC   D2A71140   0.452  37.668   6.753
10638POPC   C3A71141   0.452  37.637   7.053
10638POPC   C4A71142   0.401  37.722   7.353
10638POPC   C1B71143   0.405  37.415   6.453
10638POPC   C2B71144   0.358  37.485   6.753
10638POPC   C3B71145   0.324  37.452   7.053
10638POPC   C4B71146   0.329  37.442   7.353
10639POPC   NC371147  39.990  15.988   5.553
10639POPC   PO471148  40.037  15.953   5.853
10639POPC   GL171149  40.003  15.914   6.153
10639POPC   GL271150  40.047  16.068   6.153
10639POPC   C1A71151  40.037  15.988   6.453
10639POPC   D2A71152  40.018  15.940   6.753
10639POPC   C3A71153  40.009  15.922   7.053
10639POPC   C4A71154  39.978  15.944   7.353
10639POPC   C1B71155  40.035  16.164   6.453
10639POPC   C2B71156  40.055  16.190   6.753
10639POPC   C3B71157  39.989  16.235   7.053
10639POPC   C4B71158  39.991  16.231   7.353
10640POPC   NC371159  31.514   1.211   5.553
10640POPC   PO471160  31.453   1.191   5.853
10640POPC   GL171161  31.488   1.200   6.153
10640POPC   GL271162  31.426   1.372   6.153
10640POPC   C1A71163  31.476   1.197   6.453
10640POPC   D2A71164  31.455   1.180   6.753
10640POPC   C3A71165  31.498   1.244   7.053
10640POPC   C4A71166  31.428   1.251   7.353
10640POPC   C1B71167  31.377   1.483   6.453
10640POPC   C2B71168  31.440   1.457   6.753
10640POPC   C3B71169  31.372   1.472   7.053
10640POPC   C4B71170  31.365   1.439   7.353
10641POPC   NC371171  26.866  19.075   5.553
10641POPC   PO471172  26.829  19.067   5.853
10641POPC   GL171173  26.855  19.096   6.153
10641POPC   GL271174  26.851  19.159   6.153
10641POPC   C1A71175  26.772  19.090   6.453
10641POPC   D2A71176  26.840  19.100   6.753
10641POPC   C3A71177  26.819  19.096   7.053
10641POPC   C4A71178  26.843  19.108   7.353
10641POPC   C1B71179  26.957  19.290   6.453
10641POPC   C2B71180  26.988  19.257   6.753
10641POPC   C3B71181  26.943  19.291   7.053
10641POPC   C4B71182  26.915  19.296   7.353
10642POPC   NC371183  11.288  43.084   5.553
10642POPC   PO471184  11.277  43.063   5.853
10642POPC   GL171185  11.326  43.136   6.153
10642POPC   GL271186  11.397  43.120   6.153
10642POPC   C1A71187  11.301  43.141   6.453
10642POPC   D2A71188  11.339  43.082   6.753
10642POPC   C3A71189  11.340  43.063   7.053
10642POPC   C4A71190  11.263  43.159   7.353
10642POPC   C1B71191  11.546  43.123   6.453
10642POPC   C2B71192  11.589  43.106   6.753
10642POPC   C3B71193  11.591  43.130   7.053
10642POPC   C4B71194  11.512  43.152   7.353
10643POPC   NC371195  40.820   5.875   5.553
10643POPC   PO471196  40.814   5.849   5.853
10643POPC   GL171197  40.772   5.865   6.153
10643POPC   GL271198  40.642   5.796   6.153
10643POPC   C1A71199  40.743   5.838   6.453
10643POPC   D2A71200  40.776   5.821   6.753
10643POPC   C3A71201  40.740   5.883   7.053
10643POPC   C4A71202  40.770   5.872   7.353
10643POPC   C1B71203  40.523   5.802   6.453
10643POPC   C2B71204  40.572   5.725   6.753
10643POPC   C3B71205  40.517   5.761   7.053
10643POPC   C4B71206  40.518   5.783   7.353
10644POPC   NC371207   2.733  35.329   5.553
10644POPC   PO471208   2.730  35.363   5.853
10644POPC   GL171209   2.800  35.318   6.153
10644POPC   GL271210   2.697  35.424   6.153
10644POPC   C1A71211   2.752  35.347   6.453
10644POPC   D2A71212   2.746  35.354   6.753
10644POPC   C3A71213   2.732  35.342   7.053
10644POPC   C4A71214   2.786  35.379   7.353
10644POPC   C1B71215   2.505  35.403   6.453
10644POPC   C2B71216   2.515  35.403   6.753
10644POPC   C3B71217   2.523  35.447   7.053
10644POPC   C4B71218   2.514  35.415   7.353
10645POPC   NC371219  33.850  27.547   5.553
10645POPC   PO471220  33.778  27.601   5.853
10645POPC   GL171221  33.834  27.559   6.153
10645POPC   GL271222  33.877  27.625   6.153
10645POPC   C1A71223  33.787  27.641   6.453
10645POPC   D2A71224  33.755  27.607   6.753
10645POPC   C3A71225  33.787  27.614   7.053
10645POPC   C4A71226  33.826  27.629   7.353
10645POPC   C1B71227  34.076  27.585   6.453
10645POPC   C2B71228  34.007  27.646   6.753
10645POPC   C3B71229  34.072  27.585   7.053
10645POPC   C4B71230  34.082  27.562   7.353
10646POPC   NC371231   5.059  12.852   5.553
10646POPC   PO471232   5.097  12.807   5.853
10646POPC   GL171233   5.085  12.826   6.153
10646POPC   GL271234   5.151  12.992   6.153
10646POPC   C1A71235   5.049  12.879   6.453
10646POPC   D2A71236   5.069  12.894   6.753
10646POPC   C3A71237   5.054  12.830   7.053
10646POPC   C4A71238   5.056  12.886   7.353
10646POPC   C1B71239   5.140  13.083   6.453
10646POPC   C2B71240   5.222  13.038   6.753
10646POPC   C3B71241   5.181  13.062   7.053
10646POPC   C4B71242   5.208  13.099   7.353
10647POPC   NC371243   1.958   7.372   5.553
10647POPC   PO471244   1.966   7.373   5.853
10647POPC   GL171245   2.035   7.444   6.153
10647POPC   GL271246   1.880   7.562   6.153
10647POPC   C1A71247   2.002   7.383   6.453
10647POPC   D2A71248   1.974   7.460   6.753
10647POPC   C3A71249   1.960   7.431   7.053
10647POPC   C4A71250   2.033   7.445   7.353
10647POPC   C1B71251   1.861   7.657   6.453
10647POPC   C2B71252   1.870   7.623   6.753
10647POPC   C3B71253   1.830   7.662   7.053
10647POPC   C4B71254   1.852   7.598   7.353
10648POPC   NC371255  13.632  15.979   5.553
10648POPC   PO471256  13.664  15.998   5.853
10648POPC   GL171257  13.641  15.926   6.153
10648POPC   GL271258  13.647  16.071   6.153
10648POPC   C1A71259  13.675  15.962   6.453
10648POPC   D2A71260  13.641  15.940   6.753
10648POPC   C3A71261  13.650  16.002   7.053
10648POPC   C4A71262  13.609  15.917   7.353
10648POPC   C1B71263  13.671  16.175   6.453
10648POPC   C2B71264  13.659  16.179   6.753
10648POPC   C3B71265  13.593  16.242   7.053
10648POPC   C4B71266  13.631  16.202   7.353
10649POPC   NC371267  42.294   0.427   5.553
10649POPC   PO471268  42.308   0.395   5.853
10649POPC   GL171269  42.338   0.398   6.153
10649POPC   GL271270  42.434   0.405   6.153
10649POPC   C1A71271  42.345   0.479   6.453
10649POPC   D2A71272  42.293   0.480   6.753
10649POPC   C3A71273  42.340   0.422   7.053
10649POPC   C4A71274  42.377   0.446   7.353
10649POPC   C1B71275  42.592   0.408   6.453
10649POPC   C2B71276  42.588   0.423   6.753
10649POPC   C3B71277  42.536   0.439   7.053
10649POPC   C4B71278  42.604   0.403   7.353
10650POPC   NC371279  32.246   7.445   5.553
10650POPC   PO471280  32.295   7.380   5.853
10650POPC   GL171281  32.200   7.371   6.153
10650POPC   GL271282  32.097   7.464   6.153
10650POPC   C1A71283  32.287   7.451   6.453
10650POPC   D2A71284  32.280   7.398   6.753
10650POPC   C3A71285  32.236   7.456   7.053
10650POPC   C4A71286  32.240   7.423   7.353
10650POPC   C1B71287  31.990   7.582   6.453
10650POPC   C2B71288  32.016   7.512   6.753
10650POPC   C3B71289  32.076   7.553   7.053
10650POPC   C4B71290  32.037   7.546   7.353
10651POPC   NC371291  34.569   0.431   5.553
10651POPC   PO471292  34.598   0.483   5.853
10651POPC   GL171293  34.561   0.438   6.153
10651POPC   GL271294  34.473   0.481   6.153
10651POPC   C1A71295  34.569   0.432   6.453
10651POPC   D2A71296  34.572   0.420   6.753
10651POPC   C3A71297  34.570   0.471   7.053
10651POPC   C4A71298  34.598   0.465   7.353
10651POPC   C1B71299  34.440   0.613   6.453
10651POPC   C2B71300  34.366   0.590   6.753
10651POPC   C3B71301  34.429   0.661   7.053
10651POPC   C4B71302  34.444   0.616   7.353
10652POPC   NC371303  22.907  42.346   5.553
10652POPC   PO471304  22.957  42.371   5.853
10652POPC   GL171305  22.966  42.314   6.153
10652POPC   GL271306  22.840  42.225   6.153
10652POPC   C1A71307  22.945  42.367   6.453
10652POPC   D2A71308  22.892  42.325   6.753
10652POPC   C3A71309  22.943  42.363   7.053
10652POPC   C4A71310  22.944  42.291   7.353
10652POPC   C1B71311  22.772  42.151   6.453
10652POPC   C2B71312  22.788  42.158   6.753
10652POPC   C3B71313  22.702  42.139   7.053
10652POPC   C4B71314  22.709  42.218   7.353
10653POPC   NC371315  13.677  29.099   5.553
10653POPC   PO471316  13.598  29.118   5.853
10653POPC   GL171317  13.607  29.119   6.153
10653POPC   GL271318  13.622  29.253   6.153
10653POPC   C1A71319  13.622  29.181   6.453
10653POPC   D2A71320  13.609  29.180   6.753
10653POPC   C3A71321  13.578  29.095   7.053
10653POPC   C4A71322  13.584  29.162   7.353
10653POPC   C1B71323  13.614  29.389   6.453
10653POPC   C2B71324  13.687  29.367   6.753
10653POPC   C3B71325  13.701  29.371   7.053
10653POPC   C4B71326  13.650  29.348   7.353
10654POPC   NC371327  17.513  12.117   5.553
10654POPC   PO471328  17.470  12.070   5.853
10654POPC   GL171329  17.505  12.039   6.153
10654POPC   GL271330  17.371  12.077   6.153
10654POPC   C1A71331  17.458  12.031   6.453
10654POPC   D2A71332  17.497  12.085   6.753
10654POPC   C3A71333  17.505  12.105   7.053
10654POPC   C4A71334  17.543  12.039   7.353
10654POPC   C1B71335  17.256  11.993   6.453
10654POPC   C2B71336  17.298  12.029   6.753
10654POPC   C3B71337  17.247  11.999   7.053
10654POPC   C4B71338  17.289  12.048   7.353
10655POPC   NC371339   1.197  38.444   5.553
10655POPC   PO471340   1.218  38.440   5.853
10655POPC   GL171341   1.165  38.494   6.153
10655POPC   GL271342   1.264  38.546   6.153
10655POPC   C1A71343   1.218  38.414   6.453
10655POPC   D2A71344   1.244  38.447   6.753
10655POPC   C3A71345   1.253  38.411   7.053
10655POPC   C4A71346   1.192  38.451   7.353
10655POPC   C1B71347   1.373  38.664   6.453
10655POPC   C2B71348   1.295  38.727   6.753
10655POPC   C3B71349   1.376  38.668   7.053
10655POPC   C4B71350   1.342  38.639   7.353
10656POPC   NC371351  40.759   3.587   5.553
10656POPC   PO471352  40.822   3.579   5.853
10656POPC   GL171353  40.803   3.574   6.153
10656POPC   GL271354  40.700   3.565   6.153
10656POPC   C1A71355  40.800   3.537   6.453
10656POPC   D2A71356  40.753   3.568   6.753
10656POPC   C3A71357  40.772   3.494   7.053
10656POPC   C4A71358  40.814   3.581   7.353
10656POPC   C1B71359  40.522   3.662   6.453
10656POPC   C2B71360  40.584   3.662   6.753
10656POPC   C3B71361  40.544   3.715   7.053
10656POPC   C4B71362  40.591   3.716   7.353
10657POPC   NC371363  44.664  22.901   5.553
10657POPC   PO471364  44.615  22.900   5.853
10657POPC   GL171365  44.642  22.902   6.153
10657POPC   GL271366  44.691  22.784   6.153
10657POPC   C1A71367  44.644  22.965   6.453
10657POPC   D2A71368  44.622  22.892   6.753
10657POPC   C3A71369  44.678  22.985   7.053
10657POPC   C4A71370  44.683  22.960   7.353
10657POPC   C1B71371  44.744  22.690   6.453
10657POPC   C2B71372  44.717  22.750   6.753
10657POPC   C3B71373  44.716  22.684   7.053
10657POPC   C4B71374  44.747  22.711   7.353
10658POPC   NC371375  32.245  25.267   5.553
10658POPC   PO471376  32.269  25.291   5.853
10658POPC   GL171377  32.263  25.302   6.153
10658POPC   GL271378  32.113  25.341   6.153
10658POPC   C1A71379  32.270  25.289   6.453
10658POPC   D2A71380  32.270  25.315   6.753
10658POPC   C3A71381  32.213  25.241   7.053
10658POPC   C4A71382  32.289  25.249   7.353
10658POPC   C1B71383  32.071  25.407   6.453
10658POPC   C2B71384  32.035  25.363   6.753
10658POPC   C3B71385  32.073  25.401   7.053
10658POPC   C4B71386  32.003  25.391   7.353
10659POPC   NC371387   5.843  12.119   5.553
10659POPC   PO471388   5.878  12.064   5.853
10659POPC   GL171389   5.894  12.108   6.153
10659POPC   GL271390   5.985  11.972   6.153
10659POPC   C1A71391   5.867  12.093   6.453
10659POPC   D2A71392   5.916  12.097   6.753
10659POPC   C3A71393   5.869  12.043   7.053
10659POPC   C4A71394   5.875  12.106   7.353
10659POPC   C1B71395   6.052  11.975   6.453
10659POPC   C2B71396   6.115  11.931   6.753
10659POPC   C3B71397   6.018  11.945   7.053
10659POPC   C4B71398   6.051  11.920   7.353
10660POPC   NC371399  16.762   8.967   5.553
10660POPC   PO471400  16.710   8.949   5.853
10660POPC   GL171401  16.691   9.018   6.153
10660POPC   GL271402  16.894   9.004   6.153
10660POPC   C1A71403  16.749   8.997   6.453
10660POPC   D2A71404  16.746   9.004   6.753
10660POPC   C3A71405  16.743   9.000   7.053
10660POPC   C4A71406  16.732   8.923   7.353
10660POPC   C1B71407  16.936   8.969   6.453
10660POPC   C2B71408  16.981   9.061   6.753
10660POPC   C3B71409  16.953   9.033   7.053
10660POPC   C4B71410  16.979   8.987   7.353
10661POPC   NC371411  25.232  19.796   5.553
10661POPC   PO471412  25.286  19.838   5.853
10661POPC   GL171413  25.281  19.835   6.153
10661POPC   GL271414  25.152  19.852   6.153
10661POPC   C1A71415  25.310  19.846   6.453
10661POPC   D2A71416  25.266  19.800   6.753
10661POPC   C3A71417  25.240  19.852   7.053
10661POPC   C4A71418  25.259  19.836   7.353
10661POPC   C1B71419  24.977  19.825   6.453
10661POPC   C2B71420  25.034  19.841   6.753
10661POPC   C3B71421  24.990  19.879   7.053
10661POPC   C4B71422  24.976  19.878   7.353
10662POPC   NC371423   0.440  15.227   5.553
10662POPC   PO471424   0.471  15.151   5.853
10662POPC   GL171425   0.486  15.138   6.153
10662POPC   GL271426   0.518  15.272   6.153
10662POPC   C1A71427   0.416  15.134   6.453
10662POPC   D2A71428   0.432  15.168   6.753
10662POPC   C3A71429   0.420  15.216   7.053
10662POPC   C4A71430   0.406  15.153   7.353
10662POPC   C1B71431   0.582  15.367   6.453
10662POPC   C2B71432   0.582  15.401   6.753
10662POPC   C3B71433   0.643  15.406   7.053
10662POPC   C4B71434   0.614  15.394   7.353
10663POPC   NC371435   2.814   0.464   5.553
10663POPC   PO471436   2.733   0.459   5.853
10663POPC   GL171437   2.754   0.413   6.153
10663POPC   GL271438   2.858   0.307   6.153
10663POPC   C1A71439   2.809   0.402   6.453
10663POPC   D2A71440   2.799   0.458   6.753
10663POPC   C3A71441   2.796   0.402   7.053
10663POPC   C4A71442   2.814   0.413   7.353
10663POPC   C1B71443   2.877   0.259   6.453
10663POPC   C2B71444   2.901   0.239   6.753
10663POPC   C3B71445   2.908   0.214   7.053
10663POPC   C4B71446   2.960   0.188   7.353
10664POPC   NC371447  10.521  41.518   5.553
10664POPC   PO471448  10.517  41.585   5.853
10664POPC   GL171449  10.550  41.557   6.153
10664POPC   GL271450  10.408  41.590   6.153
10664POPC   C1A71451  10.517  41.599   6.453
10664POPC   D2A71452  10.487  41.553   6.753
10664POPC   C3A71453  10.491  41.574   7.053
10664POPC   C4A71454  10.565  41.587   7.353
10664POPC   C1B71455  10.356  41.685   6.453
10664POPC   C2B71456  10.274  41.667   6.753
10664POPC   C3B71457  10.312  41.670   7.053
10664POPC   C4B71458  10.364  41.665   7.353
10665POPC   NC371459  10.548  26.802   5.553
10665POPC   PO471460  10.551  26.769   5.853
10665POPC   GL171461  10.489  26.796   6.153
10665POPC   GL271462  10.365  26.873   6.153
10665POPC   C1A71463  10.519  26.784   6.453
10665POPC   D2A71464  10.522  26.851   6.753
10665POPC   C3A71465  10.530  26.844   7.053
10665POPC   C4A71466  10.515  26.824   7.353
10665POPC   C1B71467  10.290  26.960   6.453
10665POPC   C2B71468  10.317  26.931   6.753
10665POPC   C3B71469  10.343  26.971   7.053
10665POPC   C4B71470  10.269  26.895   7.353
10666POPC   NC371471  36.895  22.910   5.553
10666POPC   PO471472  36.935  22.978   5.853
10666POPC   GL171473  36.872  22.966   6.153
10666POPC   GL271474  36.987  22.999   6.153
10666POPC   C1A71475  36.948  22.953   6.453
10666POPC   D2A71476  36.934  22.929   6.753
10666POPC   C3A71477  36.862  22.943   7.053
10666POPC   C4A71478  36.901  22.913   7.353
10666POPC   C1B71479  37.024  23.093   6.453
10666POPC   C2B71480  37.114  23.099   6.753
10666POPC   C3B71481  37.109  23.136   7.053
10666POPC   C4B71482  37.039  23.096   7.353
10667POPC   NC371483   4.300  12.084   5.553
10667POPC   PO471484   4.367  12.069   5.853
10667POPC   GL171485   4.287  12.094   6.153
10667POPC   GL271486   4.369  12.215   6.153
10667POPC   C1A71487   4.340  12.063   6.453
10667POPC   D2A71488   4.334  12.057   6.753
10667POPC   C3A71489   4.298  12.063   7.053
10667POPC   C4A71490   4.269  12.096   7.353
10667POPC   C1B71491   4.511  12.283   6.453
10667POPC   C2B71492   4.499  12.211   6.753
10667POPC   C3B71493   4.467  12.268   7.053
10667POPC   C4B71494   4.471  12.257   7.353
10668POPC   NC371495   7.373  43.917   5.553
10668POPC   PO471496   7.402  43.921   5.853
10668POPC   GL171497   7.375  43.881   6.153
10668POPC   GL271498   7.318  43.776   6.153
10668POPC   C1A71499   7.438  43.932   6.453
10668POPC   D2A71500   7.435  43.928   6.753
10668POPC   C3A71501   7.433  43.899   7.053
10668POPC   C4A71502   7.373  43.867   7.353
10668POPC   C1B71503   7.319  43.676   6.453
10668POPC   C2B71504   7.287  43.645   6.753
10668POPC   C3B71505   7.316  43.671   7.053
10668POPC   C4B71506   7.310  43.674   7.353
10669POPC   NC371507  29.923   0.457   5.553
10669POPC   PO471508  29.957   0.461   5.853
10669POPC   GL171509  29.965   0.467   6.153
10669POPC   GL271510  29.934   0.543   6.153
10669POPC   C1A71511  29.881   0.408   6.453
10669POPC   D2A71512  29.915   0.446   6.753
10669POPC   C3A71513  29.924   0.417   7.053
10669POPC   C4A71514  29.966   0.446   7.353
10669POPC   C1B71515  29.957   0.733   6.453
10669POPC   C2B71516  29.939   0.708   6.753
10669POPC   C3B71517  29.905   0.714   7.053
10669POPC   C4B71518  29.977   0.671   7.353
10670POPC   NC371519   9.792   7.422   5.553
10670POPC   PO471520   9.708   7.386   5.853
10670POPC   GL171521   9.726   7.380   6.153
10670POPC   GL271522   9.838   7.414   6.153
10670POPC   C1A71523   9.748   7.380   6.453
10670POPC   D2A71524   9.792   7.400   6.753
10670POPC   C3A71525   9.792   7.470   7.053
10670POPC   C4A71526   9.740   7.463   7.353
10670POPC   C1B71527  10.009   7.334   6.453
10670POPC   C2B71528  10.013   7.343   6.753
10670POPC   C3B71529  10.009   7.320   7.053
10670POPC   C4B71530   9.988   7.287   7.353
10671POPC   NC371531  19.876  21.408   5.553
10671POPC   PO471532  19.815  21.384   5.853
10671POPC   GL171533  19.835  21.341   6.153
10671POPC   GL271534  19.781  21.245   6.153
10671POPC   C1A71535  19.844  21.347   6.453
10671POPC   D2A71536  19.816  21.425   6.753
10671POPC   C3A71537  19.870  21.427   7.053
10671POPC   C4A71538  19.830  21.422   7.353
10671POPC   C1B71539  19.757  21.140   6.453
10671POPC   C2B71540  19.754  21.198   6.753
10671POPC   C3B71541  19.734  21.108   7.053
10671POPC   C4B71542  19.760  21.115   7.353
10672POPC   NC371543  17.476  19.849   5.553
10672POPC   PO471544  17.475  19.798   5.853
10672POPC   GL171545  17.474  19.843   6.153
10672POPC   GL271546  17.578  19.708   6.153
10672POPC   C1A71547  17.483  19.842   6.453
10672POPC   D2A71548  17.457  19.826   6.753
10672POPC   C3A71549  17.545  19.828   7.053
10672POPC   C4A71550  17.515  19.844   7.353
10672POPC   C1B71551  17.687  19.589   6.453
10672POPC   C2B71552  17.651  19.591   6.753
10672POPC   C3B71553  17.611  19.614   7.053
10672POPC   C4B71554  17.700  19.640   7.353
10673POPC   NC371555  39.982  24.539   5.553
10673POPC   PO471556  39.993  24.458   5.853
10673POPC   GL171557  40.044  24.445   6.153
10673POPC   GL271558  39.952  24.345   6.153
10673POPC   C1A71559  39.989  24.471   6.453
10673POPC   D2A71560  40.007  24.511   6.753
10673POPC   C3A71561  39.966  24.471   7.053
10673POPC   C4A71562  40.001  24.527   7.353
10673POPC   C1B71563  39.877  24.215   6.453
10673POPC   C2B71564  39.907  24.273   6.753
10673POPC   C3B71565  39.885  24.228   7.053
10673POPC   C4B71566  39.901  24.226   7.353
10674POPC   NC371567  21.379  17.521   5.553
10674POPC   PO471568  21.423  17.483   5.853
10674POPC   GL171569  21.342  17.516   6.153
10674POPC   GL271570  21.413  17.608   6.153
10674POPC   C1A71571  21.380  17.540   6.453
10674POPC   D2A71572  21.389  17.468   6.753
10674POPC   C3A71573  21.358  17.503   7.053
10674POPC   C4A71574  21.406  17.515   7.353
10674POPC   C1B71575  21.382  17.729   6.453
10674POPC   C2B71576  21.385  17.753   6.753
10674POPC   C3B71577  21.430  17.796   7.053
10674POPC   C4B71578  21.426  17.782   7.353
10675POPC   NC371579  26.003  23.717   5.553
10675POPC   PO471580  26.069  23.730   5.853
10675POPC   GL171581  26.022  23.723   6.153
10675POPC   GL271582  25.875  23.638   6.153
10675POPC   C1A71583  26.039  23.667   6.453
10675POPC   D2A71584  26.011  23.755   6.753
10675POPC   C3A71585  26.070  23.692   7.053
10675POPC   C4A71586  26.054  23.745   7.353
10675POPC   C1B71587  25.755  23.587   6.453
10675POPC   C2B71588  25.847  23.643   6.753
10675POPC   C3B71589  25.817  23.585   7.053
10675POPC   C4B71590  25.776  23.624   7.353
10676POPC   NC371591  40.808  18.332   5.553
10676POPC   PO471592  40.765  18.280   5.853
10676POPC   GL171593  40.812  18.329   6.153
10676POPC   GL271594  40.812  18.132   6.153
10676POPC   C1A71595  40.816  18.289   6.453
10676POPC   D2A71596  40.734  18.259   6.753
10676POPC   C3A71597  40.766  18.266   7.053
10676POPC   C4A71598  40.813  18.258   7.353
10676POPC   C1B71599  40.851  18.090   6.453
10676POPC   C2B71600  40.859  18.054   6.753
10676POPC   C3B71601  40.827  18.071   7.053
10676POPC   C4B71602  40.893  18.039   7.353
10677POPC   NC371603  12.125  22.133   5.553
10677POPC   PO471604  12.107  22.132   5.853
10677POPC   GL171605  12.032  22.118   6.153
10677POPC   GL271606  12.199  22.115   6.153
10677POPC   C1A71607  12.092  22.190   6.453
10677POPC   D2A71608  12.069  22.174   6.753
10677POPC   C3A71609  12.032  22.196   7.053
10677POPC   C4A71610  12.074  22.184   7.353
10677POPC   C1B71611  12.361  22.204   6.453
10677POPC   C2B71612  12.296  22.126   6.753
10677POPC   C3B71613  12.338  22.132   7.053
10677POPC   C4B71614  12.296  22.161   7.353
10678POPC   NC371615  22.202  12.854   5.553
10678POPC   PO471616  22.190  12.896   5.853
10678POPC   GL171617  22.165  12.882   6.153
10678POPC   GL271618  22.236  12.762   6.153
10678POPC   C1A71619  22.128  12.818   6.453
10678POPC   D2A71620  22.174  12.815   6.753
10678POPC   C3A71621  22.202  12.874   7.053
10678POPC   C4A71622  22.128  12.860   7.353
10678POPC   C1B71623  22.220  12.615   6.453
10678POPC   C2B71624  22.253  12.623   6.753
10678POPC   C3B71625  22.197  12.604   7.053
10678POPC   C4B71626  22.207  12.601   7.353
10679POPC   NC371627   5.119   6.602   5.553
10679POPC   PO471628   5.115   6.638   5.853
10679POPC   GL171629   5.055   6.657   6.153
10679POPC   GL271630   4.970   6.674   6.153
10679POPC   C1A71631   5.138   6.676   6.453
10679POPC   D2A71632   5.054   6.640   6.753
10679POPC   C3A71633   5.079   6.651   7.053
10679POPC   C4A71634   5.128   6.650   7.353
10679POPC   C1B71635   4.905   6.755   6.453
10679POPC   C2B71636   4.862   6.763   6.753
10679POPC   C3B71637   4.859   6.794   7.053
10679POPC   C4B71638   4.882   6.741   7.353
10680POPC   NC371639  27.579  44.639   5.553
10680POPC   PO471640  27.637  44.633   5.853
10680POPC   GL171641  27.545  44.699   6.153
10680POPC   GL271642  27.717  44.666   6.153
10680POPC   C1A71643  27.589  44.626   6.453
10680POPC   D2A71644  27.577  44.633   6.753
10680POPC   C3A71645  27.640  44.634   7.053
10680POPC   C4A71646  27.582  44.660   7.353
10680POPC   C1B71647  27.810  44.571   6.453
10680POPC   C2B71648  27.816  44.648   6.753
10680POPC   C3B71649  27.889  44.649   7.053
10680POPC   C4B71650  27.860  44.658   7.353
10681POPC   NC371651   0.459   6.675   5.553
10681POPC   PO471652   0.416   6.633   5.853
10681POPC   GL171653   0.418   6.687   6.153
10681POPC   GL271654   0.514   6.745   6.153
10681POPC   C1A71655   0.473   6.606   6.453
10681POPC   D2A71656   0.407   6.684   6.753
10681POPC   C3A71657   0.412   6.645   7.053
10681POPC   C4A71658   0.478   6.632   7.353
10681POPC   C1B71659   0.640   6.831   6.453
10681POPC   C2B71660   0.629   6.778   6.753
10681POPC   C3B71661   0.589   6.805   7.053
10681POPC   C4B71662   0.652   6.810   7.353
10682POPC   NC371663  19.059  13.617   5.553
10682POPC   PO471664  19.045  13.611   5.853
10682POPC   GL171665  19.038  13.630   6.153
10682POPC   GL271666  19.008  13.762   6.153
10682POPC   C1A71667  19.084  13.650   6.453
10682POPC   D2A71668  19.010  13.598   6.753
10682POPC   C3A71669  19.027  13.616   7.053
10682POPC   C4A71670  19.016  13.615   7.353
10682POPC   C1B71671  18.986  13.846   6.453
10682POPC   C2B71672  18.933  13.841   6.753
10682POPC   C3B71673  18.966  13.822   7.053
10682POPC   C4B71674  18.990  13.821   7.353
10683POPC   NC371675   3.550  44.680   5.553
10683POPC   PO471676   3.493  44.707   5.853
10683POPC   GL171677   3.523  44.697   6.153
10683POPC   GL271678   3.590  44.489   6.153
10683POPC   C1A71679   3.519  44.700   6.453
10683POPC   D2A71680   3.589  44.645   6.753
10683POPC   C3A71681   3.523  44.632   7.053
10683POPC   C4A71682   3.559  44.618   7.353
10683POPC   C1B71683   3.576  44.384   6.453
10683POPC   C2B71684   3.544  44.464   6.753
10683POPC   C3B71685   3.610  44.381   7.053
10683POPC   C4B71686   3.621  44.411   7.353
10684POPC   NC371687  20.606   1.197   5.553
10684POPC   PO471688  20.580   1.194   5.853
10684POPC   GL171689  20.597   1.176   6.153
10684POPC   GL271690  20.513   1.285   6.153
10684POPC   C1A71691  20.658   1.180   6.453
10684POPC   D2A71692  20.587   1.168   6.753
10684POPC   C3A71693  20.599   1.202   7.053
10684POPC   C4A71694  20.645   1.228   7.353
10684POPC   C1B71695  20.471   1.377   6.453
10684POPC   C2B71696  20.401   1.419   6.753
10684POPC   C3B71697  20.402   1.354   7.053
10684POPC   C4B71698  20.455   1.434   7.353
10685POPC   NC371699  20.624  19.831   5.553
10685POPC   PO471700  20.620  19.851   5.853
10685POPC   GL171701  20.608  19.869   6.153
10685POPC   GL271702  20.552  19.737   6.153
10685POPC   C1A71703  20.618  19.798   6.453
10685POPC   D2A71704  20.640  19.801   6.753
10685POPC   C3A71705  20.630  19.881   7.053
10685POPC   C4A71706  20.651  19.853   7.353
10685POPC   C1B71707  20.377  19.696   6.453
10685POPC   C2B71708  20.358  19.703   6.753
10685POPC   C3B71709  20.366  19.656   7.053
10685POPC   C4B71710  20.429  19.720   7.353
10686POPC   NC371711  33.036  41.555   5.553
10686POPC   PO471712  33.063  41.574   5.853
10686POPC   GL171713  33.008  41.581   6.153
10686POPC   GL271714  33.136  41.517   6.153
10686POPC   C1A71715  33.004  41.580   6.453
10686POPC   D2A71716  33.062  41.521   6.753
10686POPC   C3A71717  33.027  41.523   7.053
10686POPC   C4A71718  33.015  41.515   7.353
10686POPC   C1B71719  33.232  41.535   6.453
10686POPC   C2B71720  33.288  41.440   6.753
10686POPC   C3B71721  33.244  41.511   7.053
10686POPC   C4B71722  33.279  41.443   7.353
10687POPC   NC371723   9.780   6.670   5.553
10687POPC   PO471724   9.772   6.621   5.853
10687POPC   GL171725   9.724   6.693   6.153
10687POPC   GL271726   9.808   6.730   6.153
10687POPC   C1A71727   9.788   6.683   6.453
10687POPC   D2A71728   9.709   6.693   6.753
10687POPC   C3A71729   9.777   6.693   7.053
10687POPC   C4A71730   9.720   6.672   7.353
10687POPC   C1B71731   9.945   6.864   6.453
10687POPC   C2B71732   9.942   6.880   6.753
10687POPC   C3B71733   9.909   6.835   7.053
10687POPC   C4B71734   9.876   6.876   7.353
10688POPC   NC371735  34.592  32.246   5.553
10688POPC   PO471736  34.554  32.280   5.853
10688POPC   GL171737  34.567  32.285   6.153
10688POPC   GL271738  34.688  32.297   6.153
10688POPC   C1A71739  34.534  32.278   6.453
10688POPC   D2A71740  34.575  32.211   6.753
10688POPC   C3A71741  34.591  32.288   7.053
10688POPC   C4A71742  34.529  32.207   7.353
10688POPC   C1B71743  34.778  32.316   6.453
10688POPC   C2B71744  34.865  32.311   6.753
10688POPC   C3B71745  34.828  32.288   7.053
10688POPC   C4B71746  34.849  32.292   7.353
10689POPC   NC371747   7.379  15.946   5.553
10689POPC   PO471748   7.450  15.970   5.853
10689POPC   GL171749   7.428  15.925   6.153
10689POPC   GL271750   7.303  15.925   6.153
10689POPC   C1A71751   7.459  15.965   6.453
10689POPC   D2A71752   7.465  15.974   6.753
10689POPC   C3A71753   7.426  15.925   7.053
10689POPC   C4A71754   7.469  15.943   7.353
10689POPC   C1B71755   7.200  15.954   6.453
10689POPC   C2B71756   7.197  15.991   6.753
10689POPC   C3B71757   7.167  15.955   7.053
10689POPC   C4B71758   7.210  15.982   7.353
10690POPC   NC371759  29.157  43.919   5.553
10690POPC   PO471760  29.167  43.866   5.853
10690POPC   GL171761  29.188  43.894   6.153
10690POPC   GL271762  29.076  43.790   6.153
10690POPC   C1A71763  29.185  43.902   6.453
10690POPC   D2A71764  29.112  43.857   6.753
10690POPC   C3A71765  29.192  43.879   7.053
10690POPC   C4A71766  29.125  43.894   7.353
10690POPC   C1B71767  29.036  43.726   6.453
10690POPC   C2B71768  29.052  43.715   6.753
10690POPC   C3B71769  29.033  43.718   7.053
10690POPC   C4B71770  29.005  43.726   7.353
10691POPC   NC371771  13.588   8.155   5.553
10691POPC   PO471772  13.671   8.228   5.853
10691POPC   GL171773  13.636   8.207   6.153
10691POPC   GL271774  13.532   8.247   6.153
10691POPC   C1A71775  13.640   8.215   6.453
10691POPC   D2A71776  13.612   8.231   6.753
10691POPC   C3A71777  13.672   8.183   7.053
10691POPC   C4A71778  13.648   8.159   7.353
10691POPC   C1B71779  13.413   8.365   6.453
10691POPC   C2B71780  13.438   8.341   6.753
10691POPC   C3B71781  13.400   8.389   7.053
10691POPC   C4B71782  13.405   8.339   7.353
10692POPC   NC371783  22.982  10.505   5.553
10692POPC   PO471784  22.930  10.479   5.853
10692POPC   GL171785  22.980  10.563   6.153
10692POPC   GL271786  22.854  10.635   6.153
10692POPC   C1A71787  22.914  10.558   6.453
10692POPC   D2A71788  22.905  10.572   6.753
10692POPC   C3A71789  22.892  10.536   7.053
10692POPC   C4A71790  22.893  10.503   7.353
10692POPC   C1B71791  22.856  10.789   6.453
10692POPC   C2B71792  22.863  10.725   6.753
10692POPC   C3B71793  22.830  10.779   7.053
10692POPC   C4B71794  22.847  10.728   7.353
10693POPC   NC371795  22.144  19.028   5.553
10693POPC   PO471796  22.212  19.064   5.853
10693POPC   GL171797  22.133  19.094   6.153
10693POPC   GL271798  22.155  19.213   6.153
10693POPC   C1A71799  22.193  19.052   6.453
10693POPC   D2A71800  22.115  19.090   6.753
10693POPC   C3A71801  22.197  19.036   7.053
10693POPC   C4A71802  22.116  19.036   7.353
10693POPC   C1B71803  22.190  19.348   6.453
10693POPC   C2B71804  22.212  19.279   6.753
10693POPC   C3B71805  22.240  19.311   7.053
10693POPC   C4B71806  22.257  19.324   7.353
10694POPC   NC371807   5.841   6.668   5.553
10694POPC   PO471808   5.891   6.681   5.853
10694POPC   GL171809   5.852   6.645   6.153
10694POPC   GL271810   5.908   6.775   6.153
10694POPC   C1A71811   5.854   6.641   6.453
10694POPC   D2A71812   5.847   6.600   6.753
10694POPC   C3A71813   5.837   6.675   7.053
10694POPC   C4A71814   5.892   6.628   7.353
10694POPC   C1B71815   5.876   6.935   6.453
10694POPC   C2B71816   5.919   6.921   6.753
10694POPC   C3B71817   5.943   6.886   7.053
10694POPC   C4B71818   5.897   6.903   7.353
10695POPC   NC371819  19.037   0.486   5.553
10695POPC   PO471820  19.068   0.458   5.853
10695POPC   GL171821  19.027   0.446   6.153
10695POPC   GL271822  18.947   0.431   6.153
10695POPC   C1A71823  19.101   0.438   6.453
10695POPC   D2A71824  19.065   0.470   6.753
10695POPC   C3A71825  19.058   0.416   7.053
10695POPC   C4A71826  19.034   0.427   7.353
10695POPC   C1B71827  18.773   0.446   6.453
10695POPC   C2B71828  18.843   0.458   6.753
10695POPC   C3B71829  18.772   0.432   7.053
10695POPC   C4B71830  18.806   0.366   7.353
10696POPC   NC371831  13.597  12.858   5.553
10696POPC   PO471832  13.619  12.812   5.853
10696POPC   GL171833  13.595  12.830   6.153
10696POPC   GL271834  13.549  12.752   6.153
10696POPC   C1A71835  13.670  12.845   6.453
10696POPC   D2A71836  13.624  12.831   6.753
10696POPC   C3A71837  13.610  12.884   7.053
10696POPC   C4A71838  13.605  12.842   7.353
10696POPC   C1B71839  13.418  12.638   6.453
10696POPC   C2B71840  13.442  12.640   6.753
10696POPC   C3B71841  13.453  12.628   7.053
10696POPC   C4B71842  13.498  12.637   7.353
10697POPC   NC371843  36.125  44.635   5.553
10697POPC   PO471844  36.139  44.653   5.853
10697POPC   GL171845  36.086  44.633   6.153
10697POPC   GL271846  36.276  44.684   6.153
10697POPC   C1A71847  36.081  44.631   6.453
10697POPC   D2A71848  36.130  44.690   6.753
10697POPC   C3A71849  36.143  44.674   7.053
10697POPC   C4A71850  36.142  44.643   7.353
10697POPC   C1B71851  36.296  44.831   6.453
10697POPC   C2B71852  36.342  44.794   6.753
10697POPC   C3B71853  36.388  44.813   7.053
10697POPC   C4B71854  36.298  44.780   7.353
10698POPC   NC371855   5.141   1.987   5.553
10698POPC   PO471856   5.093   1.947   5.853
10698POPC   GL171857   5.143   1.954   6.153
10698POPC   GL271858   5.178   1.927   6.153
10698POPC   C1A71859   5.083   1.975   6.453
10698POPC   D2A71860   5.091   2.031   6.753
10698POPC   C3A71861   5.088   1.978   7.053
10698POPC   C4A71862   5.095   1.964   7.353
10698POPC   C1B71863   5.172   1.779   6.453
10698POPC   C2B71864   5.176   1.774   6.753
10698POPC   C3B71865   5.247   1.755   7.053
10698POPC   C4B71866   5.242   1.758   7.353
10699POPC   NC371867  19.835   5.868   5.553
10699POPC   PO471868  19.823   5.880   5.853
10699POPC   GL171869  19.832   5.828   6.153
10699POPC   GL271870  19.986   5.939   6.153
10699POPC   C1A71871  19.855   5.843   6.453
10699POPC   D2A71872  19.846   5.828   6.753
10699POPC   C3A71873  19.795   5.820   7.053
10699POPC   C4A71874  19.873   5.841   7.353
10699POPC   C1B71875  20.026   5.944   6.453
10699POPC   C2B71876  20.022   5.989   6.753
10699POPC   C3B71877  20.080   5.940   7.053
10699POPC   C4B71878  20.114   5.964   7.353
10700POPC   NC371879  33.832   8.961   5.553
10700POPC   PO471880  33.801   8.969   5.853
10700POPC   GL171881  33.793   8.982   6.153
10700POPC   GL271882  33.905   8.923   6.153
10700POPC   C1A71883  33.785   8.978   6.453
10700POPC   D2A71884  33.833   8.944   6.753
10700POPC   C3A71885  33.779   9.004   7.053
10700POPC   C4A71886  33.830   8.924   7.353
10700POPC   C1B71887  33.988   8.804   6.453
10700POPC   C2B71888  34.065   8.873   6.753
10700POPC   C3B71889  34.052   8.849   7.053
10700POPC   C4B71890  34.025   8.864   7.353
10701POPC   NC371891  39.215  31.466   5.553
10701POPC   PO471892  39.203  31.451   5.853
10701POPC   GL171893  39.236  31.485   6.153
10701POPC   GL271894  39.369  31.401   6.153
10701POPC   C1A71895  39.212  31.512   6.453
10701POPC   D2A71896  39.239  31.478   6.753
10701POPC   C3A71897  39.199  31.479   7.053
10701POPC   C4A71898  39.190  31.506   7.353
10701POPC   C1B71899  39.447  31.326   6.453
10701POPC   C2B71900  39.435  31.345   6.753
10701POPC   C3B71901  39.480  31.277   7.053
10701POPC   C4B71902  39.460  31.364   7.353
10702POPC   NC371903  43.140  41.574   5.553
10702POPC   PO471904  43.092  41.536   5.853
10702POPC   GL171905  43.068  41.509   6.153
10702POPC   GL271906  43.202  41.421   6.153
10702POPC   C1A71907  43.107  41.570   6.453
10702POPC   D2A71908  43.112  41.593   6.753
10702POPC   C3A71909  43.094  41.602   7.053
10702POPC   C4A71910  43.086  41.608   7.353
10702POPC   C1B71911  43.277  41.335   6.453
10702POPC   C2B71912  43.229  41.371   6.753
10702POPC   C3B71913  43.205  41.364   7.053
10702POPC   C4B71914  43.234  41.315   7.353
10703POPC   NC371915   8.193  24.458   5.553
10703POPC   PO471916   8.153  24.500   5.853
10703POPC   GL171917   8.157  24.532   6.153
10703POPC   GL271918   8.187  24.651   6.153
10703POPC   C1A71919   8.206  24.482   6.453
10703POPC   D2A71920   8.164  24.448   6.753
10703POPC   C3A71921   8.169  24.499   7.053
10703POPC   C4A71922   8.168  24.518   7.353
10703POPC   C1B71923   8.095  24.700   6.453
10703POPC   C2B71924   8.059  24.753   6.753
10703POPC   C3B71925   8.067  24.685   7.053
10703POPC   C4B71926   8.057  24.745   7.353
10704POPC   NC371927   6.665  38.429   5.553
10704POPC   PO471928   6.640  38.445   5.853
10704POPC   GL171929   6.658  38.437   6.153
10704POPC   GL271930   6.531  38.360   6.153
10704POPC   C1A71931   6.668  38.467   6.453
10704POPC   D2A71932   6.659  38.458   6.753
10704POPC   C3A71933   6.610  38.488   7.053
10704POPC   C4A71934   6.685  38.416   7.353
10704POPC   C1B71935   6.504  38.264   6.453
10704POPC   C2B71936   6.477  38.245   6.753
10704POPC   C3B71937   6.500  38.310   7.053
10704POPC   C4B71938   6.441  38.259   7.353
10705POPC   NC371939  22.189  34.595   5.553
10705POPC   PO471940  22.135  34.594   5.853
10705POPC   GL171941  22.120  34.588   6.153
10705POPC   GL271942  22.179  34.686   6.153
10705POPC   C1A71943  22.134  34.601   6.453
10705POPC   D2A71944  22.166  34.540   6.753
10705POPC   C3A71945  22.131  34.578   7.053
10705POPC   C4A71946  22.118  34.614   7.353
10705POPC   C1B71947  22.323  34.776   6.453
10705POPC   C2B71948  22.302  34.742   6.753
10705POPC   C3B71949  22.307  34.798   7.053
10705POPC   C4B71950  22.337  34.755   7.353
10706POPC   NC371951  43.880  43.890   5.553
10706POPC   PO471952  43.840  43.839   5.853
10706POPC   GL171953  43.877  43.891   6.153
10706POPC   GL271954  43.947  43.964   6.153
10706POPC   C1A71955  43.922  43.865   6.453
10706POPC   D2A71956  43.862  43.874   6.753
10706POPC   C3A71957  43.847  43.838   7.053
10706POPC   C4A71958  43.880  43.837   7.353
10706POPC   C1B71959  44.098  44.066   6.453
10706POPC   C2B71960  44.078  43.987   6.753
10706POPC   C3B71961  44.080  44.064   7.053
10706POPC   C4B71962  44.104  44.036   7.353
10707POPC   NC371963  10.525  28.364   5.553
10707POPC   PO471964  10.484  28.369   5.853
10707POPC   GL171965  10.496  28.408   6.153
10707POPC   GL271966  10.620  28.437   6.153
10707POPC   C1A71967  10.503  28.363   6.453
10707POPC   D2A71968  10.515  28.348   6.753
10707POPC   C3A71969  10.534  28.378   7.053
10707POPC   C4A71970  10.493  28.357   7.353
10707POPC   C1B71971  10.762  28.532   6.453
10707POPC   C2B71972  10.696  28.531   6.753
10707POPC   C3B71973  10.686  28.562   7.053
10707POPC   C4B71974  10.744  28.513   7.353
10708POPC   NC371975  16.690  43.138   5.553
10708POPC   PO471976  16.685  43.125   5.853
10708POPC   GL171977  16.695  43.076   6.153
10708POPC   GL271978  16.629  43.020   6.153
10708POPC   C1A71979  16.699  43.101   6.453
10708POPC   D2A71980  16.701  43.157   6.753
10708POPC   C3A71981  16.763  43.118   7.053
10708POPC   C4A71982  16.704  43.101   7.353
10708POPC   C1B71983  16.523  42.947   6.453
10708POPC   C2B71984  16.581  42.877   6.753
10708POPC   C3B71985  16.606  42.903   7.053
10708POPC   C4B71986  16.606  42.950   7.353
10709POPC   NC371987  37.651  22.178   5.553
10709POPC   PO471988  37.728  22.134   5.853
10709POPC   GL171989  37.640  22.202   6.153
10709POPC   GL271990  37.516  22.130   6.153
10709POPC   C1A71991  37.702  22.157   6.453
10709POPC   D2A71992  37.656  22.155   6.753
10709POPC   C3A71993  37.675  22.159   7.053
10709POPC   C4A71994  37.656  22.132   7.353
10709POPC   C1B71995  37.390  22.094   6.453
10709POPC   C2B71996  37.439  22.056   6.753
10709POPC   C3B71997  37.480  22.065   7.053
10709POPC   C4B71998  37.482  22.066   7.353
10710POPC   NC371999  38.442  29.935   5.553
10710POPC   PO472000  38.421  29.886   5.853
10710POPC   GL172001  38.445  29.939   6.153
10710POPC   GL272002  38.336  30.031   6.153
10710POPC   C1A72003  38.418  29.927   6.453
10710POPC   D2A72004  38.410  29.939   6.753
10710POPC   C3A72005  38.426  29.970   7.053
10710POPC   C4A72006  38.435  29.882   7.353
10710POPC   C1B72007  38.314  30.102   6.453
10710POPC   C2B72008  38.248  30.146   6.753
10710POPC   C3B72009  38.303  30.102   7.053
10710POPC   C4B72010  38.258  30.131   7.353
10711POPC   NC372011  36.112  43.930   5.553
10711POPC   PO472012  36.159  43.889   5.853
10711POPC   GL172013  36.173  43.840   6.153
10711POPC   GL272014  36.278  43.995   6.153
10711POPC   C1A72015  36.100  43.864   6.453
10711POPC   D2A72016  36.080  43.872   6.753
10711POPC   C3A72017  36.078  43.868   7.053
10711POPC   C4A72018  36.121  43.875   7.353
10711POPC   C1B72019  36.380  43.991   6.453
10711POPC   C2B72020  36.304  44.043   6.753
10711POPC   C3B72021  36.301  44.052   7.053
10711POPC   C4B72022  36.376  43.962   7.353
10712POPC   NC372023  25.217  11.322   5.553
10712POPC   PO472024  25.246  11.302   5.853
10712POPC   GL172025  25.310  11.304   6.153
10712POPC   GL272026  25.103  11.333   6.153
10712POPC   C1A72027  25.301  11.314   6.453
10712POPC   D2A72028  25.249  11.319   6.753
10712POPC   C3A72029  25.286  11.331   7.053
10712POPC   C4A72030  25.294  11.341   7.353
10712POPC   C1B72031  25.036  11.266   6.453
10712POPC   C2B72032  25.040  11.285   6.753
10712POPC   C3B72033  24.975  11.313   7.053
10712POPC   C4B72034  25.022  11.309   7.353
10713POPC   NC372035   3.546  37.657   5.553
10713POPC   PO472036   3.527  37.701   5.853
10713POPC   GL172037   3.533  37.711   6.153
10713POPC   GL272038   3.469  37.595   6.153
10713POPC   C1A72039   3.590  37.719   6.453
10713POPC   D2A72040   3.509  37.673   6.753
10713POPC   C3A72041   3.547  37.727   7.053
10713POPC   C4A72042   3.533  37.669   7.353
10713POPC   C1B72043   3.309  37.507   6.453
10713POPC   C2B72044   3.328  37.486   6.753
10713POPC   C3B72045   3.319  37.521   7.053
10713POPC   C4B72046   3.366  37.468   7.353
10714POPC   NC372047   1.208  21.371   5.553
10714POPC   PO472048   1.174  21.343   5.853
10714POPC   GL172049   1.256  21.365   6.153
10714POPC   GL272050   1.208  21.290   6.153
10714POPC   C1A72051   1.193  21.375   6.453
10714POPC   D2A72052   1.262  21.423   6.753
10714POPC   C3A72053   1.235  21.340   7.053
10714POPC   C4A72054   1.229  21.430   7.353
10714POPC   C1B72055   1.219  21.187   6.453
10714POPC   C2B72056   1.277  21.138   6.753
10714POPC   C3B72057   1.218  21.134   7.053
10714POPC   C4B72058   1.257  21.157   7.353
10715POPC   NC372059   3.537  35.397   5.553
10715POPC   PO472060   3.536  35.304   5.853
10715POPC   GL172061   3.515  35.325   6.153
10715POPC   GL272062   3.646  35.431   6.153
10715POPC   C1A72063   3.519  35.310   6.453
10715POPC   D2A72064   3.562  35.371   6.753
10715POPC   C3A72065   3.510  35.399   7.053
10715POPC   C4A72066   3.567  35.332   7.353
10715POPC   C1B72067   3.630  35.524   6.453
10715POPC   C2B72068   3.620  35.546   6.753
10715POPC   C3B72069   3.610  35.557   7.053
10715POPC   C4B72070   3.621  35.554   7.353
10716POPC   NC372071  43.073  35.349   5.553
10716POPC   PO472072  43.063  35.384   5.853
10716POPC   GL172073  43.122  35.326   6.153
10716POPC   GL272074  42.950  35.407   6.153
10716POPC   C1A72075  43.130  35.333   6.453
10716POPC   D2A72076  43.098  35.302   6.753
10716POPC   C3A72077  43.117  35.333   7.053
10716POPC   C4A72078  43.064  35.310   7.353
10716POPC   C1B72079  42.871  35.463   6.453
10716POPC   C2B72080  42.853  35.386   6.753
10716POPC   C3B72081  42.873  35.470   7.053
10716POPC   C4B72082  42.914  35.458   7.353
10717POPC   NC372083  20.565  34.619   5.553
10717POPC   PO472084  20.571  34.614   5.853
10717POPC   GL172085  20.643  34.567   6.153
10717POPC   GL272086  20.526  34.593   6.153
10717POPC   C1A72087  20.584  34.553   6.453
10717POPC   D2A72088  20.576  34.528   6.753
10717POPC   C3A72089  20.572  34.569   7.053
10717POPC   C4A72090  20.603  34.537   7.353
10717POPC   C1B72091  20.379  34.550   6.453
10717POPC   C2B72092  20.380  34.491   6.753
10717POPC   C3B72093  20.341  34.515   7.053
10717POPC   C4B72094  20.338  34.486   7.353
10718POPC   NC372095  30.700  43.134   5.553
10718POPC   PO472096  30.666  43.099   5.853
10718POPC   GL172097  30.664  43.111   6.153
10718POPC   GL272098  30.831  43.124   6.153
10718POPC   C1A72099  30.686  43.108   6.453
10718POPC   D2A72100  30.656  43.100   6.753
10718POPC   C3A72101  30.703  43.137   7.053
10718POPC   C4A72102  30.725  43.152   7.353
10718POPC   C1B72103  30.939  43.171   6.453
10718POPC   C2B72104  30.959  43.210   6.753
10718POPC   C3B72105  30.944  43.118   7.053
10718POPC   C4B72106  30.897  43.166   7.353
10719POPC   NC372107  22.131  23.687   5.553
10719POPC   PO472108  22.198  23.741   5.853
10719POPC   GL172109  22.171  23.701   6.153
10719POPC   GL272110  22.265  23.721   6.153
10719POPC   C1A72111  22.203  23.694   6.453
10719POPC   D2A72112  22.182  23.720   6.753
10719POPC   C3A72113  22.149  23.690   7.053
10719POPC   C4A72114  22.199  23.681   7.353
10719POPC   C1B72115  22.448  23.783   6.453
10719POPC   C2B72116  22.375  23.759   6.753
10719POPC   C3B72117  22.401  23.793   7.053
10719POPC   C4B72118  22.406  23.787   7.353
10720POPC   NC372119  36.122  19.064   5.553
10720POPC   PO472120  36.171  19.047   5.853
10720POPC   GL172121  36.113  19.038   6.153
10720POPC   GL272122  36.073  19.136   6.153
10720POPC   C1A72123  36.177  19.083   6.453
10720POPC   D2A72124  36.162  19.009   6.753
10720POPC   C3A72125  36.160  19.084   7.053
10720POPC   C4A72126  36.164  19.091   7.353
10720POPC   C1B72127  36.028  19.321   6.453
10720POPC   C2B72128  36.046  19.345   6.753
10720POPC   C3B72129  36.043  19.266   7.053
10720POPC   C4B72130  36.048  19.332   7.353
10721POPC   NC372131  31.502  21.396   5.553
10721POPC   PO472132  31.475  21.350   5.853
10721POPC   GL172133  31.479  21.392   6.153
10721POPC   GL272134  31.549  21.511   6.153
10721POPC   C1A72135  31.472  21.418   6.453
10721POPC   D2A72136  31.468  21.405   6.753
10721POPC   C3A72137  31.438  21.419   7.053
10721POPC   C4A72138  31.511  21.377   7.353
10721POPC   C1B72139  31.633  21.583   6.453
10721POPC   C2B72140  31.665  21.559   6.753
10721POPC   C3B72141  31.623  21.560   7.053
10721POPC   C4B72142  31.696  21.599   7.353
10722POPC   NC372143  26.830  43.846   5.553
10722POPC   PO472144  26.857  43.905   5.853
10722POPC   GL172145  26.826  43.866   6.153
10722POPC   GL272146  26.745  43.980   6.153
10722POPC   C1A72147  26.832  43.922   6.453
10722POPC   D2A72148  26.851  43.885   6.753
10722POPC   C3A72149  26.848  43.874   7.053
10722POPC   C4A72150  26.844  43.846   7.353
10722POPC   C1B72151  26.735  44.130   6.453
10722POPC   C2B72152  26.713  44.141   6.753
10722POPC   C3B72153  26.718  44.122   7.053
10722POPC   C4B72154  26.716  44.072   7.353
10723POPC   NC372155  40.771  31.457   5.553
10723POPC   PO472156  40.815  31.504   5.853
10723POPC   GL172157  40.748  31.522   6.153
10723POPC   GL272158  40.901  31.406   6.153
10723POPC   C1A72159  40.746  31.480   6.453
10723POPC   D2A72160  40.805  31.505   6.753
10723POPC   C3A72161  40.766  31.470   7.053
10723POPC   C4A72162  40.813  31.458   7.353
10723POPC   C1B72163  40.986  31.318   6.453
10723POPC   C2B72164  40.969  31.271   6.753
10723POPC   C3B72165  41.012  31.338   7.053
10723POPC   C4B72166  40.982  31.270   7.353
10724POPC   NC372167  31.426   6.630   5.553
10724POPC   PO472168  31.441   6.597   5.853
10724POPC   GL172169  31.518   6.676   6.153
10724POPC   GL272170  31.511   6.772   6.153
10724POPC   C1A72171  31.423   6.634   6.453
10724POPC   D2A72172  31.516   6.688   6.753
10724POPC   C3A72173  31.480   6.655   7.053
10724POPC   C4A72174  31.437   6.647   7.353
10724POPC   C1B72175  31.654   6.824   6.453
10724POPC   C2B72176  31.683   6.828   6.753
10724POPC   C3B72177  31.598   6.826   7.053
10724POPC   C4B72178  31.670   6.880   7.353
10725POPC   NC372179  26.797  42.382   5.553
10725POPC   PO472180  26.843  42.331   5.853
10725POPC   GL172181  26.841  42.341   6.153
10725POPC   GL272182  26.915  42.363   6.153
10725POPC   C1A72183  26.844  42.295   6.453
10725POPC   D2A72184  26.798  42.372   6.753
10725POPC   C3A72185  26.792  42.339   7.053
10725POPC   C4A72186  26.823  42.364   7.353
10725POPC   C1B72187  27.020  42.495   6.453
10725POPC   C2B72188  27.051  42.476   6.753
10725POPC   C3B72189  26.991  42.424   7.053
10725POPC   C4B72190  27.029  42.443   7.353
10726POPC   NC372191  43.867   6.645   5.553
10726POPC   PO472192  43.884   6.632   5.853
10726POPC   GL172193  43.842   6.645   6.153
10726POPC   GL272194  43.811   6.694   6.153
10726POPC   C1A72195  43.933   6.629   6.453
10726POPC   D2A72196  43.842   6.677   6.753
10726POPC   C3A72197  43.847   6.649   7.053
10726POPC   C4A72198  43.836   6.679   7.353
10726POPC   C1B72199  43.701   6.835   6.453
10726POPC   C2B72200  43.700   6.791   6.753
10726POPC   C3B72201  43.672   6.763   7.053
10726POPC   C4B72202  43.658   6.802   7.353
10727POPC   NC372203   3.573   2.717   5.553
10727POPC   PO472204   3.569   2.767   5.853
10727POPC   GL172205   3.576   2.803   6.153
10727POPC   GL272206   3.648   2.676   6.153
10727POPC   C1A72207   3.512   2.736   6.453
10727POPC   D2A72208   3.502   2.756   6.753
10727POPC   C3A72209   3.506   2.788   7.053
10727POPC   C4A72210   3.523   2.756   7.353
10727POPC   C1B72211   3.730   2.714   6.453
10727POPC   C2B72212   3.748   2.694   6.753
10727POPC   C3B72213   3.785   2.704   7.053
10727POPC   C4B72214   3.826   2.723   7.353
10728POPC   NC372215  36.134  20.567   5.553
10728POPC   PO472216  36.097  20.564   5.853
10728POPC   GL172217  36.139  20.574   6.153
10728POPC   GL272218  36.258  20.564   6.153
10728POPC   C1A72219  36.177  20.586   6.453
10728POPC   D2A72220  36.165  20.581   6.753
10728POPC   C3A72221  36.120  20.586   7.053
10728POPC   C4A72222  36.123  20.611   7.353
10728POPC   C1B72223  36.329  20.467   6.453
10728POPC   C2B72224  36.305  20.429   6.753
10728POPC   C3B72225  36.319  20.398   7.053
10728POPC   C4B72226  36.256  20.439   7.353
10729POPC   NC372227  27.570   5.897   5.553
10729POPC   PO472228  27.591   5.883   5.853
10729POPC   GL172229  27.625   5.851   6.153
10729POPC   GL272230  27.458   5.970   6.153
10729POPC   C1A72231  27.613   5.825   6.453
10729POPC   D2A72232  27.583   5.855   6.753
10729POPC   C3A72233  27.601   5.866   7.053
10729POPC   C4A72234  27.566   5.850   7.353
10729POPC   C1B72235  27.380   6.010   6.453
10729POPC   C2B72236  27.400   6.021   6.753
10729POPC   C3B72237  27.411   6.024   7.053
10729POPC   C4B72238  27.360   6.009   7.353
10730POPC   NC372239   3.578   1.940   5.553
10730POPC   PO472240   3.568   1.942   5.853
10730POPC   GL172241   3.590   1.940   6.153
10730POPC   GL272242   3.479   2.080   6.153
10730POPC   C1A72243   3.515   2.039   6.453
10730POPC   D2A72244   3.506   2.023   6.753
10730POPC   C3A72245   3.557   1.989   7.053
10730POPC   C4A72246   3.573   1.964   7.353
10730POPC   C1B72247   3.478   2.191   6.453
10730POPC   C2B72248   3.474   2.174   6.753
10730POPC   C3B72249   3.497   2.264   7.053
10730POPC   C4B72250   3.431   2.194   7.353
10731POPC   NC372251  29.909  18.266   5.553
10731POPC   PO472252  29.956  18.322   5.853
10731POPC   GL172253  29.935  18.324   6.153
10731POPC   GL272254  29.886  18.350   6.153
10731POPC   C1A72255  29.958  18.234   6.453
10731POPC   D2A72256  29.967  18.244   6.753
10731POPC   C3A72257  29.876  18.319   7.053
10731POPC   C4A72258  29.934  18.284   7.353
10731POPC   C1B72259  29.817  18.490   6.453
10731POPC   C2B72260  29.723  18.528   6.753
10731POPC   C3B72261  29.748  18.518   7.053
10731POPC   C4B72262  29.724  18.493   7.353
10732W        W72263  36.466  14.606   1.813
10733W        W72264   1.859  43.471   4.821
10734W        W72265  13.168  34.941   4.610
10735W        W72266  33.383  29.930  14.017
10736W        W72267  21.577   5.249   2.297
10737W        W72268   3.781  28.108   4.132
10738W        W72269  15.223  19.281  10.943
10739W        W72270  34.445   8.705  11.107
10740W        W72271  43.777  41.882   1.245
10741W        W72272  21.062  42.982  11.888
10742W        W72273   3.440  23.116  13.521
10743W        W72274  24.609  34.923   0.273
10744W        W72275  20.586   3.325  14.477
10745W        W72276   1.276  22.661   3.195
10746W        W72277  23.068  22.713   1.760
10747W        W72278  36.411  34.059   0.363
10748W        W72279  38.543  35.011   2.770
10749W        W72280  12.293  13.110   4.731
10750W        W72281  30.457  41.435   2.888
10751W        W72282   9.255  16.780  11.011
10752W        W72283  25.555  32.519   9.595
10753W        W72284   5.845   0.893  11.095
10754W        W72285   0.404   3.427   4.336
10755W        W72286  17.572  21.645   2.682
10756W        W72287  28.171  11.835   3.161
10757W        W72288  39.911  11.720   2.410
10758W        W72289  42.292  32.537  10.423
10759W        W72290  11.760  15.808  11.470
10760W        W72291  11.674  34.592   1.875
10761W        W72292  25.213  17.751   1.390
10762W        W72293  42.518   1.771   3.831
10763W        W72294  19.535  11.335   3.246
10764W        W72295  25.078  18.618   4.734
10765W        W72296  32.986  23.646   3.186
10766W        W72297   8.194  38.478  13.909
10767W        W72298  24.140  16.610  14.822
10768W        W72299  18.565  32.100   4.301
10769W        W72300   5.700   7.229  13.912
10770W        W72301  41.032   2.926   4.306
10771W        W72302  35.949  38.060   3.709
10772W        W72303  26.054  30.653  12.847
10773W        W72304   7.383  43.007  14.324
10774W        W72305  10.143  15.177  12.342
10775W        W72306  42.507  38.437  10.518
10776W        W72307  30.062  27.491  13.986
10777W        W72308  11.792  34.053  13.439
10778W        W72309  13.189  29.616  14.305
10779W        W72310  44.757  23.574  14.401
10780W        W72311  11.364  44.875  10.440
10781W        W72312  14.155  35.988  13.960
10782W        W72313  19.096  37.372   1.843
10783W        W72314   4.845  33.932  11.109
10784W        W72315  14.699   2.859  14.770
10785W        W72316  11.800  36.046   0.771
10786W        W72317   1.334  43.921  13.421
10787W        W72318   7.773  11.726  13.434
10788W        W72319  11.768   4.381  13.365
10789W        W72320  34.439  40.329   3.177
10790W        W72321  20.749  38.568  14.794
10791W        W72322  29.437  29.555   9.958
10792W        W72323  40.044  24.515  13.454
10793W        W72324  17.077  12.251  14.437
10794W        W72325   0.275   5.888   0.379
10795W        W72326  31.634  21.617   3.757
10796W        W72327  15.685  12.806  11.113
10797W        W72328   3.869  17.184   1.843
10798W        W72329   2.383  15.691   2.807
10799W        W72330   7.780  36.085   2.360
10800W        W72331  16.624  27.942  13.048
10801W        W72332  16.640  40.821   0.881
10802W        W72333  15.786   9.222   2.812
10803W        W72334  30.424  17.556  12.566
10804W        W72335  29.967  14.316  11.983
10805W        W72336  16.303  43.975   1.415
10806W        W72337  28.119  25.670   2.685
10807W        W72338  41.359  42.307   2.192
10808W        W72339  18.278  44.943   0.744
10809W        W72340   7.410   8.837   0.818
10810W        W72341   9.253  23.124  13.961
10811W        W72342  25.687  24.574   0.376
10812W        W72343  26.689  32.914  12.910
10813W        W72344  43.974  28.467   0.479
10814W        W72345   4.277  31.027   1.416
10815W        W72346  27.005  19.583   1.318
10816W        W72347  25.969  15.309   0.960
10817W        W72348  28.527   5.403   2.329
10818W        W72349   7.300   6.310   2.374
10819W        W72350  43.774  39.039   3.303
10820W        W72351  24.487   5.821  14.400
10821W        W72352  29.429  11.216   2.879
10822W        W72353  10.290   3.362  14.849
10823W        W72354  21.044  24.048   0.769
10824W        W72355  33.422  13.771  12.435
10825W        W72356  13.180   0.825   1.763
10826W        W72357  17.667  30.630  11.070
10827W        W72358  17.210  21.198  13.392
10828W        W72359   0.473   8.370   1.444
10829W        W72360  37.388   8.214  11.029
10830W        W72361  34.062  34.559  13.819
10831W        W72362  36.492   3.919   0.430
10832W        W72363  23.017  19.726  13.459
10833W        W72364   5.885  33.560  10.890
10834W        W72365  10.785  19.770  11.984
10835W        W72366   5.726  38.428  11.053
10836W        W72367  34.897  25.994  12.518
10837W        W72368   4.708   0.403  10.054
10838W        W72369   7.891  34.087  12.852
10839W        W72370  13.219  27.681  13.321
10840W        W72371  23.999  40.829  14.983
10841W        W72372   9.727   0.296   2.814
10842W        W72373  18.561  29.158   0.902
10843W        W72374   4.728   0.369  11.881
10844W        W72375  32.125   3.937  11.923
10845W        W72376  15.784   4.447   4.775
10846W        W72377  44.870   7.838   0.454
10847W        W72378  43.369  35.934   1.772
10848W        W72379  38.465   1.391  14.819
10849W        W72380  26.158  13.341  13.902
10850W        W72381  37.390  24.128  10.569
10851W        W72382  44.312  36.589  13.421
10852W        W72383  23.523  25.969   0.798
10853W        W72384  23.652  31.564  12.549
10854W        W72385   3.311  26.136  14.919
10855W        W72386  36.008  24.979  12.837
10856W        W72387  38.871  23.133   4.332
10857W        W72388  20.248   4.879  13.878
10858W        W72389   3.247  37.854  12.463
10859W        W72390  43.806  12.619   1.894
10860W        W72391  32.616  38.497  11.890
10861W        W72392  39.850  13.262  13.960
10862W        W72393  30.633  20.273  14.421
10863W        W72394  42.911  11.320  13.036
10864W        W72395  39.488  27.004   4.169
10865W        W72396  16.169  20.268  11.989
10866W        W72397   2.365  43.271   2.197
10867W        W72398  14.172   3.399  11.440
10868W        W72399   5.883  24.184  13.393
10869W        W72400   2.855  14.237   4.629
10870W        W72401  13.338   3.251  14.498
10871W        W72402  14.731  12.681   2.864
10872W        W72403  25.012  32.448  11.607
10873W        W72404  14.830  37.374  10.553
10874W        W72405   7.352   7.390  11.863
10875W        W72406   2.756   1.267   2.774
10876W        W72407  12.177   4.276  13.354
10877W        W72408  16.107  24.061   3.339
10878W        W72409   9.219  30.644  12.859
10879W        W72410  33.891  36.457  13.019
10880W        W72411   6.882   1.440   0.290
10881W        W72412   3.911   9.644  13.974
10882W        W72413  34.570  26.631   0.366
10883W        W72414   8.354   8.375   0.484
10884W        W72415  14.769   1.829   2.315
10885W        W72416  43.013  26.606   4.644
10886W        W72417  28.156  29.938   4.694
10887W        W72418  33.997  22.688   0.361
10888W        W72419  42.827  40.997   1.244
10889W        W72420   6.410  26.035   0.252
10890W        W72421  35.458  42.410   4.146
10891W        W72422   8.824   9.269  11.092
10892W        W72423  27.475  16.280  11.927
10893W        W72424  12.811   9.865  12.972
10894W        W72425  39.407   7.177  12.861
10895W        W72426  22.217   7.770   0.959
10896W        W72427  23.724  19.093  13.012
10897W        W72428  14.128  12.671   1.879
10898W        W72429  19.132  37.064  12.479
10899W        W72430  39.357   3.789   1.295
10900W        W72431  32.497  44.276   1.828
10901W        W72432  20.231   2.383   0.770
10902W        W72433  13.167  16.651  14.310
10903W        W72434  22.505  33.501  10.940
10904W        W72435   3.394  18.727  11.873
10905W        W72436  13.213  30.088  14.352
10906W        W72437   3.384  20.748   3.278
10907W        W72438  40.435  16.639   3.828
10908W        W72439  16.082   8.743   5.309
10909W        W72440  35.388  31.551   1.255
10910W        W72441  39.445  29.542   0.438
10911W        W72442  41.871   6.243  10.130
10912W        W72443  35.993  22.716  14.815
10913W        W72444  36.535   4.730   0.468
10914W        W72445   0.362  28.497  11.900
10915W        W72446  18.558  29.644   2.681
10916W        W72447  36.881  33.565  12.395
10917W        W72448   2.288  13.224  14.938
10918W        W72449  14.752   4.390  12.834
10919W        W72450  14.605   2.755  11.592
10920W        W72451  21.153   5.895   2.396
10921W        W72452  41.002  39.521  10.987
10922W        W72453  14.111  18.272  10.461
10923W        W72454  30.639   8.265   1.431
10924W        W72455  23.549  20.249  11.910
10925W        W72456   3.301   0.484  10.092
10926W        W72457  10.282  16.594  13.005
10927W        W72458  34.572  25.972  12.368
10928W        W72459  27.153   8.193   4.793
10929W        W72460   7.699  37.942  14.405
10930W        W72461   5.756  24.585   3.630
10931W        W72462  43.002  34.383   2.410
10932W        W72463   6.887   9.274   4.652
10933W        W72464  38.445   1.305   2.222
10934W        W72465  10.379  35.392   0.814
10935W        W72466  18.231  17.617  11.089
10936W        W72467  25.073  37.425  13.529
10937W        W72468   7.829  29.000   2.230
10938W        W72469  21.259   5.325  12.880
10939W        W72470   6.195   5.831  13.806
10940W        W72471   3.868  28.056   9.656
10941W        W72472   9.346  27.504  12.074
10942W        W72473  20.201   9.326   3.273
10943W        W72474  36.535   7.681   3.661
10944W        W72475  40.817  42.518   4.132
10945W        W72476   4.415  41.488  14.859
10946W        W72477  27.945  16.675  12.858
10947W        W72478  42.311  19.624  11.566
10948W        W72479  19.207   6.904  12.015
10949W        W72480  21.082  30.061  11.599
10950W        W72481  17.693  32.523   1.312
10951W        W72482   6.842  21.062   2.732
10952W        W72483  35.030  14.717   3.747
10953W        W72484  28.608   9.718   1.877
10954W        W72485  24.613  16.203  11.895
10955W        W72486   8.343  15.100   3.152
10956W        W72487  43.794   6.752  10.435
10957W        W72488  11.763  43.835   0.873
10958W        W72489   8.843  20.526   3.743
10959W        W72490  29.953  21.238   1.864
10960W        W72491   3.309  19.564  12.853
10961W        W72492  37.866  39.465  13.441
10962W        W72493  36.959  24.216  14.859
10963W        W72494  29.665   8.201  12.446
10964W        W72495  23.167  21.204   4.309
10965W        W72496   3.404   1.268  13.831
10966W        W72497  19.599   4.718   2.903
10967W        W72498   2.421  17.688   2.255
10968W        W72499  38.393  41.521  14.367
10969W        W72500  19.249  34.893  13.446
10970W        W72501   4.431  16.249  14.515
10971W        W72502  41.393  12.325   0.312
10972W        W72503  40.357   9.694  14.989
10973W        W72504  13.194   0.927   3.251
10974W        W72505  42.451   3.711  11.524
10975W        W72506   8.679  31.532  14.861
10976W        W72507  34.474  44.009  12.830
10977W        W72508  44.339  36.365  12.346
10978W        W72509  39.448  15.083   1.216
10979W        W72510  29.604  11.288  10.907
10980W        W72511  31.585  28.506  12.576
10981W        W72512  39.021  19.652   5.281
10982W        W72513  36.523  26.687   3.689
10983W        W72514  40.991  43.337  12.527
10984W        W72515  36.569  28.630   0.380
10985W        W72516  15.597  34.957  12.006
10986W        W72517  18.575  22.173  13.055
10987W        W72518  14.797  40.048   0.449
10988W        W72519   1.952  22.167   2.740
10989W        W72520  37.943   0.311   4.609
10990W        W72521  21.707  25.190  11.430
10991W        W72522   4.402   4.760   2.238
10992W        W72523  23.705  22.571  10.585
10993W        W72524  20.141  12.696   2.761
10994W        W72525  34.496  16.234  12.930
10995W        W72526  42.306  40.510  11.869
10996W        W72527  31.102  10.238   2.248
10997W        W72528  38.866   8.210   2.227
10998W        W72529  29.938  42.337  12.979
10999W        W72530  32.403  12.754   0.407
11000W        W72531  17.713  13.639   0.812
11001W        W72532  14.267   8.815   3.291
11002W        W72533   6.283  43.817  13.480
11003W        W72534   2.752  19.704  10.555
11004W        W72535   3.858  24.712   0.739
11005W        W72536   6.257   1.432  14.970
11006W        W72537  43.455  11.241   0.464
11007W        W72538  19.259  44.335  10.961
11008W        W72539  21.514  12.614   5.094
11009W        W72540  20.641  27.124  11.404
11010W        W72541  16.111  21.121  11.425
11011W        W72542   3.908  25.471  14.445
11012W        W72543  34.471  20.196   4.133
11013W        W72544  11.647  14.654  11.545
11014W        W72545  38.510  38.859   0.400
11015W        W72546  12.748   8.214  11.125
11016W        W72547  39.471  43.813  13.338
11017W        W72548  44.317  34.484  12.824
11018W        W72549  39.007  12.272  14.305
11019W        W72550   2.336   7.691  10.918
11020W        W72551  18.747   1.348   2.269
11021W        W72552   8.194  29.154  11.875
11022W        W72553  39.433  15.107  12.080
11023W        W72554  37.461  27.518  13.010
11024W        W72555  34.528  18.677   2.334
11025W        W72556  29.611  16.789  11.565
11026W        W72557  30.949   3.748   4.157
11027W        W72558   3.830  30.962  13.007
11028W        W72559  42.304  41.916  14.375
11029W        W72560  17.235  35.017   2.310
11030W        W72561  36.982  15.791  11.427
11031W        W72562  21.598   3.339  12.555
11032W        W72563   6.693  40.508   3.660
11033W        W72564  35.909   0.300   3.804
11034W        W72565  34.945  27.118  12.459
11035W        W72566   9.212   2.322  13.356
11036W        W72567  43.409   8.889  14.458
11037W        W72568  38.464  35.384   4.231
11038W        W72569  33.429  31.530   1.288
11039W        W72570  41.339  19.167   0.334
11040W        W72571   8.301  34.606   3.270
11041W        W72572   0.880  13.752  14.966
11042W        W72573  44.338   4.757   9.945
11043W        W72574  16.167   0.933   4.836
11044W        W72575  14.830   0.905  10.060
11045W        W72576  36.392  34.474  14.933
11046W        W72577  21.051  33.403   1.360
11047W        W72578  15.729  20.054  14.302
11048W        W72579  21.516   2.302  11.432
11049W        W72580   1.254  39.323  10.986
11050W        W72581  31.078  10.153  12.489
11051W        W72582  26.122  15.305  11.584
11052W        W72583  42.382  39.973   2.843
11053W        W72584  24.606   7.258  13.841
11054W        W72585   9.220  14.684  10.419
11055W        W72586   9.186   5.202   4.601
11056W        W72587  23.663  35.089  13.867
11057W        W72588  21.668  22.240   3.800
11058W        W72589   5.272  22.732  12.981
11059W        W72590   8.867  31.917  12.441
11060W        W72591   7.250   5.860  12.387
11061W        W72592  40.453   2.962  14.340
11062W        W72593   2.392  26.622  12.997
11063W        W72594  11.205  12.732  11.112
11064W        W72595  39.005  10.754   0.740
11065W        W72596   7.285  43.891  12.828
11066W        W72597   3.911  44.837   2.226
11067W        W72598  35.014  42.372  12.902
11068W        W72599  14.144  14.668  14.887
11069W        W72600  12.746   3.317   4.615
11070W        W72601  25.524   3.321  10.477
11071W        W72602  23.549  44.482  12.863
11072W        W72603   7.861  40.872   2.696
11073W        W72604  40.901  20.078   4.635
11074W        W72605   0.851  31.584   4.779
11075W        W72606  21.619  42.008  12.950
11076W        W72607  36.041   5.256  11.072
11077W        W72608  38.491  40.842  11.033
11078W        W72609   3.239  29.442  11.396
11079W        W72610  20.657  33.501   4.752
11080W        W72611  19.229   1.351   0.917
11081W        W72612   7.789  22.729  12.546
11082W        W72613  33.381  26.476  10.440
11083W        W72614  22.103  36.926  11.381
11084W        W72615  33.908  16.580   5.318
11085W        W72616  40.521  30.511   2.704
11086W        W72617   8.389  13.327  12.529
11087W        W72618   4.703  18.230   3.649
11088W        W72619   4.437   4.829   1.237
11089W        W72620  14.232   5.396  12.057
11090W        W72621  33.422  43.927   0.780
11091W        W72622   8.708  27.045  10.968
11092W        W72623   2.462  36.995   4.693
11093W        W72624  43.470  15.682   1.780
11094W        W72625   6.250  43.369   0.391
11095W        W72626   8.769   7.834  11.465
11096W        W72627  40.453  14.151  10.643
11097W        W72628  14.180  23.599  11.870
11098W        W72629  17.189  31.443   1.766
11099W        W72630  19.224  30.415   3.349
11100W        W72631  33.537  19.074   3.348
11101W        W72632   3.359  36.510   2.882
11102W        W72633  41.839   5.214  11.566
11103W        W72634  28.532  27.004  11.976
11104W        W72635  19.776  35.932  10.612
11105W        W72636  43.340  42.850  11.453
11106W        W72637  43.488  21.128  13.370
11107W        W72638  18.120  29.474   2.238
11108W        W72639  36.849   5.256   3.832
11109W        W72640  25.170  38.565  13.902
11110W        W72641   3.459  16.604   0.475
11111W        W72642  13.805  31.609  10.074
11112W        W72643   9.259   9.196  11.968
11113W        W72644  15.178  10.362   3.709
11114W        W72645  22.023  16.708  11.611
11115W        W72646  36.084  27.576   1.763
11116W        W72647  26.696   5.767   3.671
11117W        W72648  33.978  35.564   4.785
11118W        W72649   7.866  20.583  11.569
11119W        W72650  18.112   4.320   1.364
11120W        W72651   3.889  12.182   4.654
11121W        W72652  44.785  37.053   3.303
11122W        W72653   3.726  32.136   0.467
11123W        W72654  42.876  19.072  13.340
11124W        W72655   3.280  40.364  12.434
11125W        W72656  26.614  35.080   3.722
11126W        W72657  15.164  21.538  13.469
11127W        W72658   0.311  35.931   4.603
11128W        W72659  39.374  16.286   2.722
11129W        W72660  13.806  41.836   4.618
11130W        W72661  18.641  27.557   5.243
11131W        W72662  24.645   2.228  11.122
11132W        W72663  43.340  43.811   1.808
11133W        W72664  34.046  44.300   2.779
11134W        W72665  31.645  38.972   2.786
11135W        W72666  41.897  11.191  10.581
11136W        W72667  41.898  40.903  14.927
11137W        W72668  29.006  28.605  11.574
11138W        W72669  22.146  39.811  13.922
11139W        W72670  24.604  15.626  12.522
11140W        W72671  19.729  29.559  12.839
11141W        W72672  23.533  34.902  13.533
11142W        W72673   4.827  20.038   1.273
11143W        W72674   4.387  42.473   3.172
11144W        W72675  44.388  16.105   2.788
11145W        W72676   3.272  34.982  11.563
11146W        W72677  37.417  34.609   4.765
11147W        W72678  14.197  28.028  13.370
11148W        W72679  23.565  21.235   1.290
11149W        W72680  41.509  21.630   2.299
11150W        W72681  30.102  16.754  13.017
11151W        W72682  34.559  23.120   1.710
11152W        W72683  36.858  11.666   3.645
11153W        W72684  11.186   7.797   1.221
11154W        W72685  40.431  12.755  11.989
11155W        W72686   1.731  40.370  14.852
11156W        W72687  21.754  26.517   3.218
11157W        W72688  19.242  27.047  14.775
11158W        W72689  14.145  13.704  12.012
11159W        W72690  32.524   4.727   4.237
11160W        W72691  15.609  21.655  13.361
11161W        W72692   4.404  34.875   0.965
11162W        W72693  16.160  38.877  12.424
11163W        W72694   2.400  11.232  12.985
11164W        W72695  14.692  22.609  12.579
11165W        W72696  12.781   2.256   0.431
11166W        W72697  14.234  16.175  11.054
11167W        W72698   8.374  43.418   1.782
11168W        W72699  27.093   1.903   2.394
11169W        W72700  34.004   2.299   2.746
11170W        W72701  13.230  21.073   1.760
11171W        W72702  18.554  38.443  14.345
11172W        W72703  37.455  28.164   1.347
11173W        W72704  21.557  10.307   0.828
11174W        W72705  12.136  18.093   0.436
11175W        W72706  24.219  36.480   1.258
11176W        W72707   7.732   3.380   1.328
11177W        W72708  15.810   2.400   0.356
11178W        W72709   3.712  20.115  14.367
11179W        W72710  15.739  42.286  13.829
11180W        W72711  40.385  11.712  13.924
11181W        W72712  24.557   5.391  14.000
11182W        W72713  17.182  38.366   2.836
11183W        W72714  26.952  30.091  13.373
11184W        W72715  32.605  12.267   4.663
11185W        W72716  22.629  11.743   3.776
11186W        W72717  15.766   1.737  13.792
11187W        W72718  41.517  37.429  10.903
11188W        W72719  16.128   6.375   2.878
11189W        W72720   6.408  13.672  12.348
11190W        W72721  24.711  34.542   1.376
11191W        W72722  36.553  11.826   3.358
11192W        W72723   2.819  30.475   4.670
11193W        W72724  20.235   2.821   4.686
11194W        W72725   5.282  16.698  11.606
11195W        W72726   5.689   8.273  12.936
11196W        W72727   1.286  43.289   0.959
11197W        W72728  19.048  33.884   1.294
11198W        W72729   2.955  15.658   3.349
11199W        W72730  20.057  18.223  14.897
11200W        W72731  13.200   0.259   4.604
11201W        W72732  33.468  38.492   2.403
11202W        W72733  36.357  14.209  14.430
11203W        W72734  24.542  14.142  11.093
11204W        W72735  29.953  43.920  11.031
11205W        W72736  33.948  12.703   2.384
11206W        W72737  33.507   2.262   1.345
11207W        W72738  42.414  19.720   1.838
11208W        W72739   0.858  29.487   0.334
11209W        W72740  36.481   5.272  14.898
11210W        W72741  13.223  38.382   3.765
11211W        W72742   7.834  22.500   0.256
11212W        W72743  21.639   7.283   2.873
11213W        W72744  30.966  19.230   2.827
11214W        W72745  17.730  15.812  11.395
11215W        W72746   8.397   4.811   0.360
11216W        W72747  35.392  26.046  10.468
11217W        W72748  15.724   1.454  11.414
11218W        W72749  24.615  29.978   4.140
11219W        W72750   9.697   4.272   4.835
11220W        W72751  33.947  26.113  14.993
11221W        W72752   0.416   0.815  11.413
11222W        W72753   3.760  44.366  14.443
11223W        W72754   8.772  25.095  12.090
11224W        W72755  19.616  21.076  11.452
11225W        W72756  14.758  12.651  10.433
11226W        W72757  18.168  25.549   5.579
11227W        W72758  39.819  14.169   3.667
11228W        W72759  44.368  29.171  12.498
11229W        W72760  42.906  35.084  14.945
11230W        W72761   5.874   1.240  11.048
11231W        W72762  15.313  24.212  11.001
11232W        W72763  42.977   9.769   2.789
11233W        W72764   6.923   5.289  12.091
11234W        W72765  36.065  31.484   2.351
11235W        W72766  33.931  31.101  11.520
11236W        W72767  35.872  15.174  13.802
11237W        W72768  13.761  22.196  10.944
11238W        W72769   2.854  26.526   5.569
11239W        W72770  34.871  28.161   0.966
11240W        W72771  23.522   6.887   3.794
11241W        W72772  32.059  44.259  11.959
11242W        W72773   3.791   0.778  13.545
11243W        W72774  43.481  38.074  11.865
11244W        W72775  40.418   1.814   5.093
11245W        W72776  22.124  42.289   2.745
11246W        W72777   2.756  30.065  11.109
11247W        W72778  16.601   9.290   1.826
11248W        W72779  20.082  19.649  10.936
11249W        W72780  40.395  31.922  13.792
11250W        W72781  35.514   2.935   4.775
11251W        W72782  43.800   9.661  11.871
11252W        W72783   1.931  42.441  14.984
11253W        W72784  15.169  12.161  11.919
11254W        W72785  16.281  29.644  10.513
11255W        W72786  22.105  43.294  14.348
11256W        W72787  24.536  18.719   3.304
11257W        W72788  34.385  34.508   0.793
11258W        W72789  34.539  24.613   1.920
11259W        W72790   8.374  26.613   4.676
11260W        W72791  15.142  13.331   4.209
11261W        W72792  35.483  44.944  13.792
11262W        W72793  35.029  28.602   4.250
11263W        W72794  30.454  29.569   1.351
11264W        W72795  22.025  24.634   4.604
11265W        W72796  37.484  12.618   4.664
11266W        W72797   0.295  26.074  10.944
11267W        W72798  13.312  33.385  12.989
11268W        W72799  40.997  27.474  14.805
11269W        W72800  11.281   9.348   0.380
11270W        W72801  20.134   3.925   4.172
11271W        W72802  21.253  19.265   0.424
11272W        W72803  13.287  20.202   0.282
11273W        W72804  11.306  34.055   5.257
11274W        W72805  32.512  12.267   0.803
11275W        W72806  16.296  29.952  13.361
11276W        W72807  31.442  39.423  11.960
11277W        W72808   4.205  26.650   3.353
11278W        W72809   5.905  19.596   3.784
11279W        W72810  17.268  27.175   1.704
11280W        W72811  17.195  42.852   0.839
11281W        W72812  30.655   5.718   1.217
11282W        W72813  37.030  42.436   4.117
11283W        W72814  22.027   6.794  13.913
11284W        W72815   9.799  10.821  14.511
11285W        W72816  19.724  13.204  12.564
11286W        W72817  25.558  21.714   2.311
11287W        W72818   5.875   1.480   0.380
11288W        W72819  25.982  41.932  10.994
11289W        W72820  37.470  35.019  14.954
11290W        W72821  20.704  40.916   4.246
11291W        W72822  32.006   7.366  11.006
11292W        W72823  38.008  25.000  12.080
11293W        W72824   9.671  16.644   0.900
11294W        W72825  14.655  26.568   0.400
11295W        W72826  17.180   3.916   0.274
11296W        W72827  10.761  13.118   0.341
11297W        W72828  16.296  14.734   0.764
11298W        W72829  41.814  33.101   1.339
11299W        W72830  39.452  44.937  12.444
11300W        W72831  20.066   0.328   4.746
11301W        W72832  12.623  14.649  14.434
11302W        W72833  39.029  21.595  12.067
11303W        W72834  38.504  40.880   4.683
11304W        W72835  44.878  19.059   3.339
11305W        W72836  39.554  30.068   4.168
11306W        W72837   8.818  40.914  11.998
11307W        W72838  38.476  42.300   3.709
11308W        W72839   4.830  13.612  10.922
11309W        W72840  14.615  20.197   0.252
11310W        W72841   9.779  33.420   4.698
11311W        W72842  27.531  20.164   2.687
11312W        W72843  43.767  40.880  12.463
11313W        W72844  15.718  35.569  13.051
11314W        W72845  33.050  26.607   1.263
11315W        W72846  28.619  18.254   3.698
11316W        W72847  29.083  14.114  11.527
11317W        W72848  42.447  17.263  13.806
11318W        W72849  10.766  34.477  12.906
11319W        W72850   0.978  25.030   0.836
11320W        W72851  17.276   5.230   0.275
11321W        W72852  25.668  39.837  10.443
11322W        W72853  36.011  15.778   3.162
11323W        W72854  38.359   3.306  12.878
11324W        W72855   8.228  35.040   4.154
11325W        W72856  26.994   3.934  12.459
11326W        W72857  36.523  10.745  12.979
11327W        W72858  35.033  12.201  11.602
11328W        W72859  24.138  39.001  10.009
11329W        W72860  26.031  30.079  11.970
11330W        W72861  27.527  31.093  12.548
11331W        W72862  38.833  30.121   4.660
11332W        W72863  22.148  29.521  14.488
11333W        W72864  18.765  32.544  12.926
11334W        W72865  18.570   9.775  11.546
11335W        W72866  41.840  27.450   2.281
11336W        W72867  10.744  15.124   0.390
11337W        W72868  32.026  10.832   3.257
11338W        W72869  34.899  16.723  12.389
11339W        W72870  14.769  15.158  11.097
11340W        W72871  25.640  42.832   0.267
11341W        W72872  31.035  39.924   9.989
11342W        W72873  40.968   7.808   3.192
11343W        W72874  28.504  39.962   3.202
11344W        W72875  43.811   3.222   0.910
11345W        W72876  21.594  26.197  14.887
11346W        W72877  24.620  27.492   2.851
11347W        W72878  29.622   1.761  13.466
11348W        W72879  28.162  19.088  13.408
11349W        W72880  12.671  19.722   1.435
11350W        W72881  11.806   9.209  11.475
11351W        W72882  10.732  23.566   4.325
11352W        W72883  10.330  36.528   3.229
11353W        W72884  25.701  40.410  11.381
11354W        W72885  35.408  39.492  11.536
11355W        W72886  12.644  13.224  11.984
11356W        W72887  29.026  29.939  12.023
11357W        W72888  37.393  25.097   1.733
11358W        W72889   1.784  29.447  14.410
11359W        W72890  44.847  15.301   1.301
11360W        W72891  11.802  28.166  13.020
11361W        W72892  16.126  28.111   0.728
11362W        W72893  32.487  14.616   3.304
11363W        W72894  43.325  35.017  13.366
11364W        W72895  40.327  43.336   2.749
11365W        W72896  24.582  22.718   4.658
11366W        W72897  26.676  12.139  11.439
11367W        W72898  12.133  21.142  13.402
11368W        W72899  12.119   5.220  14.515
11369W        W72900  39.322  34.529  11.607
11370W        W72901  12.852  20.532   2.286
11371W        W72902  18.244   9.701  13.331
11372W        W72903  27.968  23.620  14.344
11373W        W72904  21.635  17.179  13.400
11374W        W72905  21.637  28.057   0.251
11375W        W72906   4.748   9.751  14.324
11376W        W72907  36.880  44.914   4.191
11377W        W72908  40.531  30.072   1.339
11378W        W72909  13.806   2.815   9.946
11379W        W72910  26.966   4.749  14.812
11380W        W72911  27.623  34.961   4.238
11381W        W72912   8.286  41.474   2.261
11382W        W72913   4.725  18.258   3.200
11383W        W72914  26.489  10.868  13.420
11384W        W72915  36.464   0.904  10.521
11385W        W72916  44.262  35.581   0.315
11386W        W72917   0.755  33.457  11.464
11387W        W72918   6.374  16.311  14.321
11388W        W72919  21.104  27.977   3.796
11389W        W72920  29.118  14.100  13.923
11390W        W72921  40.052  29.549   4.806
11391W        W72922  16.092   5.385  10.436
11392W        W72923   0.957  31.479  13.546
11393W        W72924  36.501  33.619  11.527
11394W        W72925  24.039  13.754  11.950
11395W        W72926   9.288  12.800  10.625
11396W        W72927  31.073   8.361  12.868
11397W        W72928  36.484  43.280   2.294
11398W        W72929  33.623  14.130   9.977
11399W        W72930  15.618   7.904   2.220
11400W        W72931  12.786  23.543   2.300
11401W        W72932   8.261  42.994   0.306
11402W        W72933  38.498  16.770   3.816
11403W        W72934  39.889  25.471  13.507
11404W        W72935  40.037  16.204  14.873
11405W        W72936  28.575  14.696  14.779
11406W        W72937  29.645  18.141  11.466
11407W        W72938  29.481   3.264   4.599
11408W        W72939  20.736  27.991   4.751
11409W        W72940  12.765   9.322   4.250
11410W        W72941  29.936  36.908   3.817
11411W        W72942  17.604  12.648  13.844
11412W        W72943  18.207  42.781   4.247
11413W        W72944  34.920  26.563   2.814
11414W        W72945  39.921  29.154  14.876
11415W        W72946  15.725   3.887   3.661
11416W        W72947  43.463  10.689  12.898
11417W        W72948   0.912  12.195  14.830
11418W        W72949  20.184  43.334   3.682
11419W        W72950  39.029  33.040   2.331
11420W        W72951  15.135   2.308  11.513
11421W        W72952  14.182  15.661  12.831
11422W        W72953  14.605  31.040  13.051
11423W        W72954  32.943  12.776   2.401
11424W        W72955  16.305  13.285  12.834
11425W        W72956  34.576  30.442   3.653
11426W        W72957  16.660  22.581  13.488
11427W        W72958  15.231  33.045   2.735
11428W        W72959  17.736  27.146  11.596
11429W        W72960  19.144  37.999  11.581
11430W        W72961  39.411  15.161  13.002
11431W        W72962  24.625  40.421   2.373
11432W        W72963  20.666   0.806   4.712
11433W        W72964  27.606  26.059   4.329
11434W        W72965  22.151  17.692   3.845
11435W        W72966  21.243   7.789   3.193
11436W        W72967  23.582   3.446   2.886
11437W        W72968   7.893   6.292  12.076
11438W        W72969  13.135   0.774   2.199
11439W        W72970  23.062  11.840   0.766
11440W        W72971  15.726  26.959  14.844
11441W        W72972  22.553   1.899   0.303
11442W        W72973   8.258  41.019  14.299
11443W        W72974   0.937   5.334  10.448
11444W        W72975  17.278  22.995  11.952
11445W        W72976  15.774  32.449  13.840
11446W        W72977  28.628   7.765   5.273
11447W        W72978   0.860  39.931  12.942
11448W        W72979  32.921   6.402   4.256
11449W        W72980  38.365  13.194  13.419
11450W        W72981   5.251   8.293  14.008
11451W        W72982   1.460  37.551   1.325
11452W        W72983   0.335  10.798  13.389
11453W        W72984  26.151  17.160  10.913
11454W        W72985  33.045  40.851   2.261
11455W        W72986  29.435  27.139   2.202
11456W        W72987  19.675  21.731   2.759
11457W        W72988  34.407   2.248   2.697
11458W        W72989  15.109  21.726   1.784
11459W        W72990   2.928  25.610   2.189
11460W        W72991  13.837  16.634  11.022
11461W        W72992  28.109  15.295  12.927
11462W        W72993  26.606   9.235   3.791
11463W        W72994   1.900  15.279  11.527
11464W        W72995   0.376  17.728  10.613
11465W        W72996  43.361  27.667  10.957
11466W        W72997  19.249   9.735  12.484
11467W        W72998  10.240  16.227  11.126
11468W        W72999  17.126  10.149   1.887
11469W        W73000   3.219   6.881   2.770
11470W        W73001  38.433  24.619   1.714
11471W        W73002  29.074   3.894  13.402
11472W        W73003  12.354  29.532   5.794
11473W        W73004  15.100  19.772  13.406
11474W        W73005  44.296   4.321  13.873
11475W        W73006  11.695  12.621   1.869
11476W        W73007  23.178  41.848   4.713
11477W        W73008  39.361  31.460  11.877
11478W        W73009  37.984  12.130   0.901
11479W        W73010  15.752   3.337   3.688
11480W        W73011  23.990  21.675  11.404
11481W        W73012  23.603  36.357  13.042
11482W        W73013  42.867  39.835  11.443
11483W        W73014   1.765  42.306  10.632
11484W        W73015  42.472  16.625   3.641
11485W        W73016  42.807  32.586  13.452
11486W        W73017   5.690  42.002   4.209
11487W        W73018   3.223  28.518   0.433
11488W        W73019  38.973  19.264  10.940
11489W        W73020  34.453   6.754   3.650
11490W        W73021  21.081   4.221   3.774
11491W        W73022  38.477  19.633  11.451
11492W        W73023  13.200  25.566   1.428
11493W        W73024  42.508  16.693  14.006
11494W        W73025  33.956   0.255  13.904
11495W        W73026   2.858  13.156  11.456
11496W        W73027  27.460  24.041  12.412
11497W        W73028   3.871   4.440   4.209
11498W        W73029  36.368  19.044   0.802
11499W        W73030  31.941  11.785   3.798
11500W        W73031   8.662  36.025   1.803
11501W        W73032  14.276  12.741  12.053
11502W        W73033  28.178  41.000   4.267
11503W        W73034  19.774  43.008  12.987
11504W        W73035  36.043   3.448   2.282
11505W        W73036  35.101  22.016   1.710
11506W        W73037  22.157  12.153  14.954
11507W        W73038  35.510  33.989  10.912
11508W        W73039  13.204  22.661   4.120
11509W        W73040  34.989  25.066  12.420
11510W        W73041   2.806  26.692  11.998
11511W        W73042  41.955   8.365  10.504
11512W        W73043  34.011  39.965   2.416
11513W        W73044  27.171  41.892  10.951
11514W        W73045  35.519  18.104  11.075
11515W        W73046  42.966  31.992   3.746
11516W        W73047  36.453   0.292  10.468
11517W        W73048   2.341  12.618   1.909
11518W        W73049  39.372  42.025  14.869
11519W        W73050   1.382  43.897   3.349
11520W        W73051  27.986  26.016  14.795
11521W        W73052  26.179   3.438   1.288
11522W        W73053  22.714  40.425   1.738
11523W        W73054   7.313  33.917  12.078
11524W        W73055  31.896   9.361  13.316
11525W        W73056  29.038  31.132  13.049
11526W        W73057  21.242   4.841  11.036
11527W        W73058  38.990  35.936  12.030
11528W        W73059  29.601  29.567   3.205
11529W        W73060  15.820   5.323  12.977
11530W        W73061  13.768  16.754   3.250
11531W        W73062  33.038  43.338  13.308
11532W        W73063  12.163   9.372   1.343
11533W        W73064  15.717  16.630  13.478
11534W        W73065   2.801  16.641   4.134
11535W        W73066   2.870  30.103   4.756
11536W        W73067  26.985  24.199   4.634
11537W        W73068  37.387  21.600  11.930
11538W        W73069  19.155  13.733  14.386
11539W        W73070  36.905  16.746   1.357
11540W        W73071   8.811  33.967  12.912
11541W        W73072  16.665   9.865   2.902
11542W        W73073  31.031  23.566  12.839
11543W        W73074  40.994  29.064  12.544
11544W        W73075  12.636  16.804  14.845
11545W        W73076   4.343   2.833   1.767
11546W        W73077  24.518  11.187  12.909
11547W        W73078  40.990  13.770   3.690
11548W        W73079  40.407  44.501   5.218
11549W        W73080  16.271  26.028  12.050
11550W        W73081  13.336  17.271  13.843
11551W        W73082   1.977  43.873   4.340
11552W        W73083   4.822  35.091  14.493
11553W        W73084   6.711  16.295   2.206
11554W        W73085  15.780  24.020   3.712
11555W        W73086  43.292  10.795   1.330
11556W        W73087   4.717  29.925   4.353
11557W        W73088  25.982  22.055   0.336
11558W        W73089  43.340   8.893   3.180
11559W        W73090  42.433   6.360   3.751
11560W        W73091   3.313  18.712  10.474
11561W        W73092  33.593  15.799   2.359
11562W        W73093  16.812  11.364   0.295
11563W        W73094  15.133  40.413  14.513
11564W        W73095  18.076  39.413   3.633
11565W        W73096  29.130  25.642   4.795
11566W        W73097  43.007  43.316  13.363
11567W        W73098  38.452  28.469   4.159
11568W        W73099  14.298  37.503   3.288
11569W        W73100  35.012  13.812  12.434
11570W        W73101  27.974  35.495   0.751
11571W        W73102  22.126   8.324  12.894
11572W        W73103  26.470  28.460  10.921
11573W        W73104  11.834  32.469   2.250
11574W        W73105  39.832  37.569   4.241
11575W        W73106  36.071   4.930  12.579
11576W        W73107  37.531  20.110  11.960
11577W        W73108  12.169  11.361   2.367
11578W        W73109   2.748  19.773  14.331
11579W        W73110   2.283  25.057  13.413
11580W        W73111  22.662   7.226   4.648
11581W        W73112  33.984  31.033   2.826
11582W        W73113  42.882   3.430  11.604
11583W        W73114  13.656  13.213  14.029
11584W        W73115  43.364  15.167  11.550
11585W        W73116  28.548  13.205   1.916
11586W        W73117  40.866  40.942   0.800
11587W        W73118   9.384   9.879   2.805
11588W        W73119   3.909   7.302  11.927
11589W        W73120  19.721  30.052  11.579
11590W        W73121  41.997  23.113  14.413
11591W        W73122  37.360   0.263  11.415
11592W        W73123  12.287  28.948  12.465
11593W        W73124   0.948  42.470  13.986
11594W        W73125  14.608  28.956   1.323
11595W        W73126   6.302  20.208   0.781
11596W        W73127  29.063  37.438  13.844
11597W        W73128  12.660  18.728   1.877
11598W        W73129  21.094  15.246   2.221
11599W        W73130   7.883  25.685  12.922
11600W        W73131  12.782  10.226   4.743
11601W        W73132  12.757  22.194  13.908
11602W        W73133  43.797  30.425  14.308
11603W        W73134  28.950   2.398   1.331
11604W        W73135  16.762   6.904  13.519
11605W        W73136  25.668  22.522   3.208
11606W        W73137  29.606  12.777   0.395
11607W        W73138  32.606  36.498  11.055
11608W        W73139  15.745  11.741   4.647
11609W        W73140  26.016  14.679   0.397
11610W        W73141  18.051  19.599   0.326
11611W        W73142  36.016   2.357  12.532
11612W        W73143  20.095  14.242   1.376
11613W        W73144  22.531  13.309   4.771
11614W        W73145  39.377  21.090  11.122
11615W        W73146  34.024   4.911  10.591
11616W        W73147  11.367   5.765   3.833
11617W        W73148  16.236  40.526   3.200
11618W        W73149  13.764  23.621   1.278
11619W        W73150  10.299  18.783  10.603
11620W        W73151  24.149   4.758   3.210
11621W        W73152  27.072  11.735   3.380
11622W        W73153  16.178   9.753  11.430
11623W        W73154   0.408  24.999  13.024
11624W        W73155  30.933   5.827   4.695
11625W        W73156   1.284  27.507  10.621
11626W        W73157  20.751  29.598  12.879
11627W        W73158  25.190  32.017  13.309
11628W        W73159  28.472  33.029  13.953
11629W        W73160   0.747  44.411   3.868
11630W        W73161   2.913  13.341  12.954
11631W        W73162  43.279  39.473   4.656
11632W        W73163   9.293  16.246   4.145
11633W        W73164   5.203  13.347   3.386
11634W        W73165   2.231  21.211   0.308
11635W        W73166  38.514  44.380  14.948
11636W        W73167   9.338  21.103   3.375
11637W        W73168   1.373  11.750   2.266
11638W        W73169  17.721   2.381   4.759
11639W        W73170   2.842   1.286  13.310
11640W        W73171  28.670  14.617  11.405
11641W        W73172  31.429  31.057  13.462
11642W        W73173   7.254  39.896  12.017
11643W        W73174  38.871   3.864   1.914
11644W        W73175  28.675  35.428   1.308
11645W        W73176  43.277   8.325   3.646
11646W        W73177  14.766  26.012   3.313
11647W        W73178  11.648  29.591  10.481
11648W        W73179  43.973   4.362  10.925
11649W        W73180  30.116  17.629  10.577
11650W        W73181  18.214  27.581  13.436
11651W        W73182   6.717  38.452  10.543
11652W        W73183  40.950  13.720   4.836
11653W        W73184   6.245  29.146   0.261
11654W        W73185  34.918   7.280  11.102
11655W        W73186  21.675  18.059  11.612
11656W        W73187  31.639  26.981   0.398
11657W        W73188  11.649  12.155   2.364
11658W        W73189   7.284  40.954   4.311
11659W        W73190   0.987  39.327  11.918
11660W        W73191  14.242  43.797   2.182
11661W        W73192  32.432   4.743   1.818
11662W        W73193  38.062  19.550   1.744
11663W        W73194  37.579   8.283   4.219
11664W        W73195  24.025  26.553   3.314
11665W        W73196  26.164  44.498   0.400
11666W        W73197   8.846  13.720  14.777
11667W        W73198  12.694  34.120   5.258
11668W        W73199  38.045  35.027   0.735
11669W        W73200   6.784  33.541   0.289
11670W        W73201   1.847  11.147  14.024
11671W        W73202  25.676  39.965   4.764
11672W        W73203   0.473  42.918  12.519
11673W        W73204  34.912  31.624  13.063
11674W        W73205   8.185  42.824   3.837
11675W        W73206  36.045   7.338   4.212
11676W        W73207   5.863  10.682   2.273
11677W        W73208  35.072  33.475  10.422
11678W        W73209  10.277  38.925   4.348
11679W        W73210  34.433   2.434   4.169
11680W        W73211  43.956   9.337   1.712
11681W        W73212  37.341   6.208  14.359
11682W        W73213   1.247  25.535  14.288
11683W        W73214  29.622  19.210  10.530
11684W        W73215   3.721  26.476  13.859
11685W        W73216  25.502  13.746   4.212
11686W        W73217   1.840   5.872   2.682
11687W        W73218   4.203   2.353  12.881
11688W        W73219   1.253   1.442   2.220
11689W        W73220  26.650  27.191   4.302
11690W        W73221  36.864   9.810  12.357
11691W        W73222  41.402   9.737  12.451
11692W        W73223  22.133  22.044  14.280
11693W        W73224  44.766  22.252   2.702
11694W        W73225  20.603  13.600  13.050
11695W        W73226   2.751  39.841   4.123
11696W        W73227  24.122  42.912   0.888
11697W        W73228  33.078  39.462  13.328
11698W        W73229  25.557  36.519   4.259
11699W        W73230  20.232  43.863  14.795
11700W        W73231  30.505  40.815   4.739
11701W        W73232  26.478  21.691  11.010
11702W        W73233  27.045  23.055  10.627
11703W        W73234  12.733   2.738   4.630
11704W        W73235  44.898  23.035   1.358
11705W        W73236  12.265  28.151  11.467
11706W        W73237  26.557  25.197   3.173
11707W        W73238  15.597  22.247  13.531
11708W        W73239  18.153  38.044  12.004
11709W        W73240  25.520   9.274   1.697
11710W        W73241  43.366  31.615  12.940
11711W        W73242  36.456  15.618  11.487
11712W        W73243  13.199  13.684   4.636
11713W        W73244  14.786  11.711   1.928
11714W        W73245   1.824  38.485  12.932
11715W        W73246   4.932   9.350   2.358
11716W        W73247  20.244  27.115  10.160
11717W        W73248  23.081  18.630  11.611
11718W        W73249   7.389  33.103  14.280
11719W        W73250  43.428   7.262  11.551
11720W        W73251  10.675   8.391  10.630
11721W        W73252  22.176  42.001  11.410
11722W        W73253  12.840  10.334  13.372
11723W        W73254  36.097  38.430  13.968
11724W        W73255  17.279  28.652   1.414
11725W        W73256  36.012  43.805   1.824
11726W        W73257  13.695  31.507  12.526
11727W        W73258  32.108  41.477   4.671
11728W        W73259  13.186  26.513   0.359
11729W        W73260  27.135  22.181  13.882
11730W        W73261  43.374  43.907  12.386
11731W        W73262  18.285  41.537  10.584
11732W        W73263  41.034  22.995   2.878
11733W        W73264  17.206  31.978   3.704
11734W        W73265  19.108  27.448  13.022
11735W        W73266   1.453  28.175  12.385
11736W        W73267  38.922  33.966   4.193
11737W        W73268  29.424  31.952  11.418
11738W        W73269  41.330  21.065  14.326
11739W        W73270  14.297  32.546   2.212
11740W        W73271  38.853  30.103   0.320
11741W        W73272  32.902  27.152   4.217
11742W        W73273  37.355  36.364   0.735
11743W        W73274  37.445  43.402  11.457
11744W        W73275  40.013  26.019  13.972
11745W        W73276  25.016  11.289  11.125
11746W        W73277  45.000  17.288   0.886
11747W        W73278  38.352  33.015   1.879
11748W        W73279  35.955   4.221  14.915
11749W        W73280   6.707  38.065   0.793
11750W        W73281  37.337  14.727  14.929
11751W        W73282  37.379  13.710   3.652
11752W        W73283  23.214  39.423   1.702
11753W        W73284  41.834  43.412  11.943
11754W        W73285  31.463  38.952   1.915
11755W        W73286  22.106  10.644  10.594
11756W        W73287  38.537  42.449   2.839
11757W        W73288  18.646  17.305   4.664
11758W        W73289  43.803  21.738   2.862
11759W        W73290  31.629   6.301  13.400
11760W        W73291  31.138  22.175   1.768
11761W        W73292  21.638  36.094  14.412
11762W        W73293  42.376  12.297  12.059
11763W        W73294  29.050  41.530   2.680
11764W        W73295  15.085  41.009   2.829
11765W        W73296   7.803  18.292   4.246
11766W        W73297  30.029  35.873   4.330
11767W        W73298  16.212  10.840  12.010
11768W        W73299   5.881  37.438  11.387
11769W        W73300  13.337  28.006  13.967
11770W        W73301  24.001   0.387   2.884
11771W        W73302  39.442  11.244  12.568
11772W        W73303  12.693  29.586  13.816
11773W        W73304  16.075   5.709  13.956
11774W        W73305   9.747  33.024  11.020
11775W        W73306  44.860  26.163  12.042
11776W        W73307  11.151   7.343  12.881
11777W        W73308  15.599  35.927   4.128
11778W        W73309  34.081  34.097  14.408
11779W        W73310  10.164  27.078   1.247
11780W        W73311  23.066  25.195   2.805
11781W        W73312  19.146   6.796   1.861
11782W        W73313  41.923   5.230  10.505
11783W        W73314  27.991  31.932  11.006
11784W        W73315   1.973  22.193  10.583
11785W        W73316  18.620  27.168  11.036
11786W        W73317  33.572  10.146  14.771
11787W        W73318  37.529  28.556   2.327
11788W        W73319  19.562  12.141  11.594
11789W        W73320  38.354  19.043  10.588
11790W        W73321  11.819  27.982  12.472
11791W        W73322  39.016   1.890  12.051
11792W        W73323   7.305  17.167   3.718
11793W        W73324  31.606  25.117   4.668
11794W        W73325  43.402   5.269  14.819
11795W        W73326  28.586  23.125   4.810
11796W        W73327  36.045   7.844   1.884
11797W        W73328  37.998  41.992   4.766
11798W        W73329  25.523  14.668   2.324
11799W        W73330  11.832  15.597   1.282
11800W        W73331  24.577   2.860  13.494
11801W        W73332  36.099  16.184   2.394
11802W        W73333  24.702  32.885  13.946
11803W        W73334  31.052   5.895   1.866
11804W        W73335   6.876  18.243   2.776
11805W        W73336  11.633  26.138  11.566
11806W        W73337  41.405  14.703   4.220
11807W        W73338  43.423   0.769  10.125
11808W        W73339   2.319  36.494   2.842
11809W        W73340  35.074   5.740   1.780
11810W        W73341  29.620  34.382   0.924
11811W        W73342  44.373  33.924   4.353
11812W        W73343  31.476   9.294  11.445
11813W        W73344  41.926  30.537   3.332
11814W        W73345  38.433  33.993   4.253
11815W        W73346  25.589   4.886   4.309
11816W        W73347  34.053  37.017   0.752
11817W        W73348  20.747  37.053  13.046
11818W        W73349   6.247   3.852   4.617
11819W        W73350   8.852   5.895  12.086
11820W        W73351  11.634  18.103   5.221
11821W        W73352  24.490  20.120   3.643
11822W        W73353   6.884   8.347   0.967
11823W        W73354  35.409  40.811   4.736
11824W        W73355  42.514   2.369   1.437
11825W        W73356  28.135  10.685  13.350
11826W        W73357   4.253  38.500  13.810
11827W        W73358  10.869  32.903  11.890
11828W        W73359  23.716  44.326   4.217
11829W        W73360  20.731   1.740  14.281
11830W        W73361  44.987   6.766   4.765
11831W        W73362   0.303   0.979   1.329
11832W        W73363  42.012  36.364  14.437
11833W        W73364  28.611  23.036  10.413
11834W        W73365   2.797  17.716  14.981
11835W        W73366  19.778  31.627   4.131
11836W        W73367  25.183  29.645  12.384
11837W        W73368  35.950  35.020   2.877
11838W        W73369  41.426  43.847  12.349
11839W        W73370  38.015  29.044   4.605
11840W        W73371  14.781  39.821   4.152
11841W        W73372  22.238  27.060  13.989
11842W        W73373  14.161  43.868  13.403
11843W        W73374   3.331  17.231  12.472
11844W        W73375   2.471  36.051   5.293
11845W        W73376  42.946  15.790  14.995
11846W        W73377  35.510   9.873   5.194
11847W        W73378   8.320  38.523  12.958
11848W        W73379  34.906   5.344  10.617
11849W        W73380  36.990   0.749  14.914
11850W        W73381   5.905  12.225  12.529
11851W        W73382   7.883  27.112  12.083
11852W        W73383  14.209  26.127   2.331
11853W        W73384  27.575   3.365   3.162
11854W        W73385  16.111  32.940  14.951
11855W        W73386  44.261  11.730   0.774
11856W        W73387  22.642  20.249   1.351
11857W        W73388  38.913  29.173   3.264
11858W        W73389  10.763  27.179   0.465
11859W        W73390  20.568  37.026   3.670
11860W        W73391  30.619  42.800  12.823
11861W        W73392  31.618  27.639  12.064
11862W        W73393  26.178  31.445   3.239
11863W        W73394  33.514  35.499  12.373
11864W        W73395  38.893   2.806   2.863
11865W        W73396  40.460  44.947   2.731
11866W        W73397  35.102  14.742   2.825
11867W        W73398  22.018  36.371  13.546
11868W        W73399  17.138  23.107   2.766
11869W        W73400  20.760  15.706   4.833
11870W        W73401  40.446  16.703   0.803
11871W        W73402  11.770  24.479   4.745
11872W        W73403  21.165  27.112  14.341
11873W        W73404  23.230  34.553   1.314
11874W        W73405  44.476   0.916  14.464
11875W        W73406   5.202   4.762   2.307
11876W        W73407  24.026  43.485   0.355
11877W        W73408  43.925  18.601   2.779
11878W        W73409  25.655  36.498   1.294
11879W        W73410  37.523  24.562   4.681
11880W        W73411  40.850  44.857   3.344
11881W        W73412  15.184  23.046   3.257
11882W        W73413  23.219  32.445   3.700
11883W        W73414  43.968   6.369  13.959
11884W        W73415  31.899  37.386   4.255
11885W        W73416  21.097  33.427   5.161
11886W        W73417  42.904  33.014   0.935
11887W        W73418  13.186   2.356  14.944
11888W        W73419   6.345  23.706  12.057
11889W        W73420  13.242  29.000   5.117
11890W        W73421  36.953   4.873  14.987
11891W        W73422  28.435   9.168   0.426
11892W        W73423   2.958   5.299  11.612
11893W        W73424  34.402  24.561   4.181
11894W        W73425   6.328  34.447  12.450
11895W        W73426  27.136   1.784  14.473
11896W        W73427  25.605  37.887  14.931
11897W        W73428  24.672  24.501  12.050
11898W        W73429   3.445  10.787   3.350
11899W        W73430  27.103  24.499  14.870
11900W        W73431   7.289   1.766  11.577
11901W        W73432  40.496   5.689   0.773
11902W        W73433  22.705   9.215   1.249
11903W        W73434  32.126  15.751   3.365
11904W        W73435   4.369  18.717  11.095
11905W        W73436  20.575   1.813  13.872
11906W        W73437  38.000   5.362   2.866
11907W        W73438  14.319  33.393  13.424
11908W        W73439  20.576  16.251  11.468
11909W        W73440  14.725  34.120  12.355
11910W        W73441  37.523  30.056  11.115
11911W        W73442  16.201  32.592  13.361
11912W        W73443  19.109  35.512  11.444
11913W        W73444  35.454  18.670  11.022
11914W        W73445  42.956  31.550   2.355
11915W        W73446  19.606   8.851  14.876
11916W        W73447  23.099  41.459   1.396
11917W        W73448   1.916   1.354   3.697
11918W        W73449  30.068  24.683   0.260
11919W        W73450  44.425   3.753   0.739
11920W        W73451  41.005  30.087  13.985
11921W        W73452  10.176   6.363  10.501
11922W        W73453   1.895  34.976  10.584
11923W        W73454  27.117  32.043   1.258
11924W        W73455  36.045  33.539  14.967
11925W        W73456  32.937   0.316  14.820
11926W        W73457  35.949  36.447  11.865
11927W        W73458  20.707  24.560   3.782
11928W        W73459   3.315  33.439   1.398
11929W        W73460   4.231  13.748  13.930
11930W        W73461   9.870  12.742  14.447
11931W        W73462  15.327  37.414  10.471
11932W        W73463  11.215   3.796  13.868
11933W        W73464  44.312  23.041   1.904
11934W        W73465  32.419  13.327   4.823
11935W        W73466  26.967  15.754  13.931
11936W        W73467  41.977   9.827   1.919
11937W        W73468  20.600  32.573   2.854
11938W        W73469   1.294  43.919  10.631
11939W        W73470   2.844  40.462   4.648
11940W        W73471  10.719  29.553  12.836
11941W        W73472   0.927  13.721   0.965
11942W        W73473  24.512  10.208   3.333
11943W        W73474  30.416  15.086   1.713
11944W        W73475  20.735   9.155   4.288
11945W        W73476  39.465  35.478  12.992
11946W        W73477  35.034  18.720   5.783
11947W        W73478  17.303  41.034  12.876
11948W        W73479  21.616  12.189   0.811
11949W        W73480  23.178  34.113   3.714
11950W        W73481  24.633  41.791  11.977
11951W        W73482  44.358   8.889   0.907
11952W        W73483  26.190  10.678  14.778
11953W        W73484  22.718   7.414   1.402
11954W        W73485  18.080  10.858   1.805
11955W        W73486  34.939   5.706  11.496
11956W        W73487  37.847   3.243   0.257
11957W        W73488  42.439   1.970  12.835
11958W        W73489   2.226  21.091  11.015
11959W        W73490  11.295   5.236   1.226
11960W        W73491   8.361  43.966   1.718
11961W        W73492   3.781  39.367  14.457
11962W        W73493   6.335  42.495  14.879
11963W        W73494   0.946   5.211  14.288
11964W        W73495  44.843   2.738  11.122
11965W        W73496   9.384  20.190  12.518
11966W        W73497   0.941  39.369  11.485
11967W        W73498  42.003  25.049  11.564
11968W        W73499   9.766  13.312   0.264
11969W        W73500  25.084  14.591   2.407
11970W        W73501  31.976  19.579   4.724
11971W        W73502  39.987   8.345   0.323
11972W        W73503   0.453  36.958  12.406
11973W        W73504   7.310  22.128  10.580
11974W        W73505  23.039  37.501  14.962
11975W        W73506  21.137  35.069  11.049
11976W        W73507   2.259   1.904   0.795
11977W        W73508  23.635   1.864   1.384
11978W        W73509  40.432  40.935  10.949
11979W        W73510  15.633  22.658   3.729
11980W        W73511  37.359  36.846  14.004
11981W        W73512  35.078  43.875  14.435
11982W        W73513  18.757  35.967  14.933
11983W        W73514  42.280  37.008  12.028
11984W        W73515   1.789  43.789   1.704
11985W        W73516  13.670  19.680  11.485
11986W        W73517  26.548  34.377   3.833
11987W        W73518  22.560  24.558   4.235
11988W        W73519  41.395  21.040   1.263
11989W        W73520  37.352  24.998  14.890
11990W        W73521   4.765  16.103  13.376
11991W        W73522  31.518   5.401  13.912
11992W        W73523  14.202  36.864   3.252
11993W        W73524   3.776  29.582   0.335
11994W        W73525   6.252   5.345   2.880
11995W        W73526  29.645  35.959   0.894
11996W        W73527  33.031  37.957   0.243
11997W        W73528   7.370  25.202  10.905
11998W        W73529   6.418   4.267   4.122
11999W        W73530   6.332  31.940   1.777
12000W        W73531  36.382  17.188   3.146
12001W        W73532   3.803   0.455  13.319
12002W        W73533  18.602  34.864  12.346
12003W        W73534  26.039  19.628  14.994
12004W        W73535  13.670  23.150   2.766
12005W        W73536   5.410  43.305  11.088
12006W        W73537  31.513  21.666   1.867
12007W        W73538  40.485  10.847   5.731
12008W        W73539  42.987  19.169  13.037
12009W        W73540  29.108  22.205  12.050
12010W        W73541  31.637  29.535  13.829
12011W        W73542  16.318  15.639   0.862
12012W        W73543  42.018  31.500  14.964
12013W        W73544  40.899  16.701  13.003
12014W        W73545  44.470   5.350  12.082
12015W        W73546  39.950  36.512   3.169
12016W        W73547  32.076  28.483  11.428
12017W        W73548  43.844  20.725  10.538
12018W        W73549  17.648  39.528  11.081
12019W        W73550  40.027  37.558   0.270
12020W        W73551   0.478  32.044   3.728
12021W        W73552  35.066  26.471  13.973
12022W        W73553  24.979   5.809  14.011
12023W        W73554   0.399  29.580   1.343
12024W        W73555  20.541  23.716   1.829
12025W        W73556  23.507  31.116   2.872
12026W        W73557   5.400  22.529   3.314
12027W        W73558  21.142  39.368   0.762
12028W        W73559  42.020  34.492  10.435
12029W        W73560  29.560  27.133   4.273
12030W        W73561  30.131  18.600   3.704
12031W        W73562   9.170  41.388   0.902
12032W        W73563  14.616  32.119   4.785
12033W        W73564  40.345   9.325   1.849
12034W        W73565   1.270  13.325   0.800
12035W        W73566   3.942   4.940  10.906
12036W        W73567  38.496   3.382  12.542
12037W        W73568  13.294  13.297  13.952
12038W        W73569   1.961  35.537   4.326
12039W        W73570   8.280  14.729  13.909
12040W        W73571  41.885  27.483   0.464
12041W        W73572  25.057  18.056  12.465
12042W        W73573  27.636   0.977   0.772
12043W        W73574   3.800  18.073  12.850
12044W        W73575  14.321  28.977  11.520
12045W        W73576  39.433  29.057  13.855
12046W        W73577  18.065  31.618  10.992
12047W        W73578  25.000  11.351   3.776
12048W        W73579  40.851  39.020   1.315
12049W        W73580  29.578  19.606   0.344
12050W        W73581  31.411  25.487  12.041
12051W        W73582  14.613  44.390  14.411
12052W        W73583  31.121   2.967   0.903
12053W        W73584  23.640  25.053   1.863
12054W        W73585  13.842   9.385  12.417
12055W        W73586  28.457   9.254   0.860
12056W        W73587   4.877  17.185  12.090
12057W        W73588  33.007   9.256  11.041
12058W        W73589  16.179   3.327  12.520
12059W        W73590  20.638  30.042  13.940
12060W        W73591  37.869  22.058   4.241
12061W        W73592  32.399  29.924   3.759
12062W        W73593  25.081   9.364  12.518
12063W        W73594  29.495  37.356  14.022
12064W        W73595   2.245  26.186  13.532
12065W        W73596  13.204  40.449  13.971
12066W        W73597  33.502  17.694  14.510
12067W        W73598   9.764  40.492  10.972
12068W        W73599   9.675  25.630  13.364
12069W        W73600  29.074   5.723   4.769
12070W        W73601   0.354  17.135  14.928
12071W        W73602  14.137  12.253  13.970
12072W        W73603  31.994  30.909  12.081
12073W        W73604  19.759  30.941  14.888
12074W        W73605  14.749  23.140   3.326
12075W        W73606  41.811  41.444  14.847
12076W        W73607  23.240  41.449   4.173
12077W        W73608  44.492  13.113  14.846
12078W        W73609   4.445  29.608  13.370
12079W        W73610  43.011  18.199  13.440
12080W        W73611  34.911  34.520  11.472
12081W        W73612  12.153  19.644  14.852
12082W        W73613  37.037  32.056  12.464
12083W        W73614  17.254  24.724   2.762
12084W        W73615  31.069  34.970   3.844
12085W        W73616  20.767  10.814   0.434
12086W        W73617   9.824  40.941   4.201
12087W        W73618  19.711  27.105  12.924
12088W        W73619   8.346  21.615   3.383
12089W        W73620  14.797  19.730   1.829
12090W        W73621  40.884  23.656   2.245
12091W        W73622   1.771  21.222  14.925
12092W        W73623   0.260  30.472  10.966
12093W        W73624  10.816  41.914   1.815
12094W        W73625  44.413  31.010   2.227
12095W        W73626   2.799  41.999  11.911
12096W        W73627  22.007   2.746  13.387
12097W        W73628  37.884  41.871  12.363
12098W        W73629  35.555  41.938  13.865
12099W        W73630  21.726  28.555  12.547
12100W        W73631   5.373  17.160   3.865
12101W        W73632  14.715  28.488  11.858
12102W        W73633  34.073  24.487  10.968
12103W        W73634   5.765  37.891  14.935
12104W        W73635  22.171  38.958   2.792
12105W        W73636   4.308  24.718   1.732
12106W        W73637  14.250  19.256  10.916
12107W        W73638   5.709   1.456   4.705
12108W        W73639  14.178  20.159  12.377
12109W        W73640  19.225  12.293  13.479
12110W        W73641  19.118  43.290   2.282
12111W        W73642   9.673  44.979   2.827
12112W        W73643  21.515   7.405   1.883
12113W        W73644  42.862  20.543  11.907
12114W        W73645  13.688  42.892   3.781
12115W        W73646  27.570   6.814  12.463
12116W        W73647  38.073  36.983  11.065
12117W        W73648  24.587   4.775  13.015
12118W        W73649  35.051  34.440   2.678
12119W        W73650   3.815  43.295  14.405
12120W        W73651  27.021  21.044   3.146
12121W        W73652   8.698  33.962   3.682
12122W        W73653   3.343  41.522   0.917
12123W        W73654  34.531  24.157   2.705
12124W        W73655  23.525  41.297  11.482
12125W        W73656  27.140   8.870   2.381
12126W        W73657  29.990  12.656  10.616
12127W        W73658   5.325  22.239   1.407
12128W        W73659  42.947  42.470  14.967
12129W        W73660   5.197  31.903  11.928
12130W        W73661  16.677   4.818   0.927
12131W        W73662   0.814  12.656  11.990
12132W        W73663  34.974  36.516  13.340
12133W        W73664  43.416  15.294  12.427
12134W        W73665  23.548  21.212  14.840
12135W        W73666  13.614   6.692  10.512
12136W        W73667  23.095  26.517   0.904
12137W        W73668  36.015  34.897  13.417
12138W        W73669  13.600  30.621   1.760
12139W        W73670  28.070  32.600  12.551
12140W        W73671  40.919   2.427  14.894
12141W        W73672  40.963  12.841   3.256
12142W        W73673  30.574  22.656  11.898
12143W        W73674  17.144  32.013  13.367
12144W        W73675  40.913  20.252   0.883
12145W        W73676  30.978   1.893   0.833
12146W        W73677  44.775  44.393  14.485
12147W        W73678  26.024   5.283  12.578
12148W        W73679  35.410  16.617  11.564
12149W        W73680  24.665   1.796   3.186
12150W        W73681  25.992  25.081  14.970
12151W        W73682  41.515   6.777  13.364
12152W        W73683  36.413  28.931   1.407
12153W        W73684  31.935   5.201  11.033
12154W        W73685  33.027  31.995  14.814
12155W        W73686   7.230  32.537   0.311
12156W        W73687  37.857  36.919   1.279
12157W        W73688  15.646  25.192  11.867
12158W        W73689  19.650   3.951   5.251
12159W        W73690  15.263  36.542   2.414
12160W        W73691  34.898   4.255  14.821
12161W        W73692  43.411  15.806  10.446
12162W        W73693  10.296  17.211   5.126
12163W        W73694  15.592   3.432   1.319
12164W        W73695   3.787  23.083  10.991
12165W        W73696  38.458  27.182  12.536
12166W        W73697  27.511  20.718  12.853
12167W        W73698  40.918  10.726   4.183
12168W        W73699  37.987   0.798  14.775
12169W        W73700   0.265   5.830  13.536
12170W        W73701   4.215  41.919  12.503
12171W        W73702   7.849  38.946   5.090
12172W        W73703  29.441   4.390   4.603
12173W        W73704  40.956  13.812  14.937
12174W        W73705  31.516  27.465   1.428
12175W        W73706   6.705  40.341   0.362
12176W        W73707   2.938  40.911  13.914
12177W        W73708  10.285  20.165   2.801
12178W        W73709  24.689  11.763  13.040
12179W        W73710  29.566  26.536   4.350
12180W        W73711   3.349   3.803  14.988
12181W        W73712  41.811  14.111  13.000
12182W        W73713   0.949  27.559   3.232
12183W        W73714  28.975  25.560   1.284
12184W        W73715   7.864   6.334  10.079
12185W        W73716   2.775   3.747  12.541
12186W        W73717  32.590  39.445   2.693
12187W        W73718  23.089  18.617  12.421
12188W        W73719  22.650   7.903   3.755
12189W        W73720  13.156  19.777  10.053
12190W        W73721  31.126   0.340  14.801
12191W        W73722  44.311  17.251  10.461
12192W        W73723  20.716  27.683  11.434
12193W        W73724  40.522  44.391  12.574
12194W        W73725  32.558  30.537   5.222
12195W        W73726   7.246  21.037  11.025
12196W        W73727  38.962   5.415  11.052
12197W        W73728  35.004  16.597   4.782
12198W        W73729  11.165  18.136   1.327
12199W        W73730  12.727  24.634   1.729
12200W        W73731  35.959  18.070  11.390
12201W        W73732  11.231   9.801  11.462
12202W        W73733  38.559  31.101   0.843
12203W        W73734  43.341  30.463   3.170
12204W        W73735   4.422   5.399   3.775
12205W        W73736   3.408  26.598  14.385
12206W        W73737  14.187  18.737   3.709
12207W        W73738  36.510   3.841  11.501
12208W        W73739  34.429  17.741   9.471
12209W        W73740  34.028   6.277   1.699
12210W        W73741   2.902  15.252  11.113
12211W        W73742  28.610  34.411  12.532
12212W        W73743  41.523  40.930   4.720
12213W        W73744  13.289  25.580  14.915
12214W        W73745  30.579  39.811   3.633
12215W        W73746   8.266   5.688   2.812
12216W        W73747  41.462  27.448  14.480
12217W        W73748  31.622  40.439  11.866
12218W        W73749  22.623  28.106   2.828
12219W        W73750  38.933  36.055   9.966
12220W        W73751   4.748  18.676  14.844
12221W        W73752  21.686   0.379   2.717
12222W        W73753   7.875  20.260   1.891
12223W        W73754  14.641   6.284   1.838
12224W        W73755   4.930  24.654   0.820
12225W        W73756   6.220  27.630  12.415
12226W        W73757  33.577  12.753   1.234
12227W        W73758  22.139   4.367   1.422
12228W        W73759   7.380  18.215   0.401
12229W        W73760  20.760  34.882  14.000
12230W        W73761  15.111  21.083  13.031
12231W        W73762  23.635  25.675   4.761
12232W        W73763  37.388  41.299  14.880
12233W        W73764  41.360  42.356  10.929
12234W        W73765  13.285  35.378   2.194
12235W        W73766   6.751  24.560   3.325
12236W        W73767   2.891  37.480  12.414
12237W        W73768  26.009   8.754   0.462
12238W        W73769  30.135  17.703  11.592
12239W        W73770   2.767  19.566  11.059
12240W        W73771   1.314   9.230  10.639
12241W        W73772  19.248  32.636  11.470
12242W        W73773  43.858   7.278   2.815
12243W        W73774  21.018  28.098   5.164
12244W        W73775  27.632  33.946  10.487
12245W        W73776  38.030   6.915   2.813
12246W        W73777  11.775  23.545  10.153
12247W        W73778  20.681  41.976   2.897
12248W        W73779  31.502  41.311  13.932
12249W        W73780  37.571  18.079   4.637
12250W        W73781  17.753  22.614  11.101
12251W        W73782   1.828  12.233   0.276
12252W        W73783  43.896  14.170   1.824
12253W        W73784  27.495  41.466  11.476
12254W        W73785   3.779  44.950  11.545
12255W        W73786  37.433  37.850   1.383
12256W        W73787  26.648  41.469  11.110
12257W        W73788  41.467  36.403  12.047
12258W        W73789  17.689  18.638   2.713
12259W        W73790  26.498  22.661  11.380
12260W        W73791  36.372  28.114  14.349
12261W        W73792  21.138   1.240  13.926
12262W        W73793   2.850  26.481   2.678
12263W        W73794  29.487  37.995   3.699
12264W        W73795   5.904  44.006  13.326
12265W        W73796   2.826   8.859   2.394
12266W        W73797  40.031  21.214   9.977
12267W        W73798  18.546  14.753   2.189
12268W        W73799  43.433  12.616   1.794
12269W        W73800  38.906  14.631   4.343
12270W        W73801  17.781  25.684  10.437
12271W        W73802   7.799  32.138  11.976
12272W        W73803  44.315  39.323   3.173
12273W        W73804  24.662  19.102   0.961
12274W        W73805  26.127  16.150   3.674
12275W        W73806  16.079   6.264   3.317
12276W        W73807  43.844  43.807   0.893
12277W        W73808  26.164   9.276   4.345
12278W        W73809  43.779  15.199  13.488
12279W        W73810  14.132  27.685   2.833
12280W        W73811  25.709  22.075   3.805
12281W        W73812  36.037  17.165   1.368
12282W        W73813  38.402  41.422   4.181
12283W        W73814   7.216   0.320   4.183
12284W        W73815   1.312  43.906   2.679
12285W        W73816  11.868  24.178   4.831
12286W        W73817  11.690   2.232  14.007
12287W        W73818  10.665  15.120   4.698
12288W        W73819   2.797   8.855   3.725
12289W        W73820  16.095  20.658   3.640
12290W        W73821  22.721  44.850  12.885
12291W        W73822  24.715  40.506   2.736
12292W        W73823   8.789   7.789  12.935
12293W        W73824  40.368   5.307  11.977
12294W        W73825  13.633  17.249   1.230
12295W        W73826  15.637   4.401   1.304
12296W        W73827  36.355  27.555  11.974
12297W        W73828  18.642   3.387   2.339
12298W        W73829  24.191  14.242  12.529
12299W        W73830   1.348  23.727   5.169
12300W        W73831  30.007  34.069  10.911
12301W        W73832  12.820   7.242   3.642
12302W        W73833  37.512  11.695  14.367
12303W        W73834  40.978  15.611   0.938
12304W        W73835  19.564  26.669  14.876
12305W        W73836  44.861  17.150  12.929
12306W        W73837  40.014  41.984  12.381
12307W        W73838  41.304  34.043   1.725
12308W        W73839  44.435  18.245  10.469
12309W        W73840  15.652   1.735  12.550
12310W        W73841   7.682  19.164  11.119
12311W        W73842  29.091   1.850   3.369
12312W        W73843  16.631   5.286  10.428
12313W        W73844  37.523   6.272   0.926
12314W        W73845  28.945  31.479   3.264
12315W        W73846  10.759  40.954  10.996
12316W        W73847  28.536  25.575   2.685
12317W        W73848  25.639   0.873  10.568
12318W        W73849   6.246   3.856   0.264
12319W        W73850   8.259  31.121   1.386
12320W        W73851  22.628  15.279   0.780
12321W        W73852   9.746  19.658   0.463
12322W        W73853  35.071  23.710  12.552
12323W        W73854  32.908  31.625  10.607
12324W        W73855  38.975  30.655  14.351
12325W        W73856  17.084  42.847   0.406
12326W        W73857  12.235  33.420   1.387
12327W        W73858  38.943   1.758   1.241
12328W        W73859  20.726   5.223   0.250
12329W        W73860   0.876  42.438   4.790
12330W        W73861  38.851   7.266   0.792
12331W        W73862  41.932  15.655  11.456
12332W        W73863  25.979  21.111   2.186
12333W        W73864   2.871  12.850   2.395
12334W        W73865  29.463  21.033   5.180
12335W        W73866  14.657  35.990   5.127
12336W        W73867  18.696  28.115   0.421
12337W        W73868  24.018  37.567   3.634
12338W        W73869   0.441  43.887   3.276
12339W        W73870  20.593   1.440  14.423
12340W        W73871  34.502  37.486  13.450
12341W        W73872  21.079   9.181   2.263
12342W        W73873  15.177  27.503  10.601
12343W        W73874  38.564  30.149   2.891
12344W        W73875  39.489  37.990   1.898
12345W        W73876  34.879  11.775  12.870
12346W        W73877   5.346  20.139   1.251
12347W        W73878  41.418  26.156  14.781
12348W        W73879  16.082  41.823   0.367
12349W        W73880  21.716  14.710  11.994
12350W        W73881  15.102  29.175  11.498
12351W        W73882   4.824  26.162  12.939
12352W        W73883  20.063  14.189   9.932
12353W        W73884  13.250  26.078  11.980
12354W        W73885  41.867  44.902   2.181
12355W        W73886  26.107  21.061   0.369
12356W        W73887   0.985  33.919   0.798
12357W        W73888  20.272  15.711  14.492
12358W        W73889  13.652  14.642  13.436
12359W        W73890  40.836  22.169   2.418
12360W        W73891  43.963   1.823   4.241
12361W        W73892  23.505  41.363  12.432
12362W        W73893   7.344  15.177   4.213
12363W        W73894  41.358  18.111   3.211
12364W        W73895   8.673  31.590   1.921
12365W        W73896  37.481  32.439   0.446
12366W        W73897  27.582  23.495   4.275
12367W        W73898  43.903  36.509   1.907
12368W        W73899   4.280   4.276   0.343
12369W        W73900  40.324  11.223   2.732
12370W        W73901  18.083  40.992  13.322
12371W        W73902  36.368  20.634   2.696
12372W        W73903   2.841  20.028  12.083
12373W        W73904  17.234   0.366   4.621
12374W        W73905  10.218  15.657  14.395
12375W        W73906  18.097  17.181  14.784
12376W        W73907  33.893   6.241   0.735
12377W        W73908  31.114  42.913   1.905
12378W        W73909  19.642  32.491   4.754
12379W        W73910  11.837  24.177  13.916
12380W        W73911   5.854  11.777  13.890
12381W        W73912  37.465  17.786  10.942
12382W        W73913  41.807  17.740   3.203
12383W        W73914  30.123  19.549  13.827
12384W        W73915  42.781  31.031   3.155
12385W        W73916  25.990  40.347  13.516
12386W        W73917  22.601  20.759  11.029
12387W        W73918   2.277  18.702   2.178
12388W        W73919  28.942  11.697   3.212
12389W        W73920  16.251  26.614  12.960
12390W        W73921  18.545  15.687  13.341
12391W        W73922  38.992  34.510   9.940
12392W        W73923  15.789  24.661  12.480
12393W        W73924  42.822  15.658   4.320
12394W        W73925  12.703   8.229   2.228
12395W        W73926  43.293  11.250  12.951
12396W        W73927  44.495  17.762  10.434
12397W        W73928  18.547  23.610   2.770
12398W        W73929  18.783   4.756  11.035
12399W        W73930  40.922  23.200   0.305
12400W        W73931  18.754  12.694  11.529
12401W        W73932  33.888  25.073  13.970
12402W        W73933  17.777  25.679  14.423
12403W        W73934   5.904  40.993  12.512
12404W        W73935  27.029  31.499   4.728
12405W        W73936  29.052  23.030  14.364
12406W        W73937  11.153  28.610   4.228
12407W        W73938  32.063  23.711  14.479
12408W        W73939  38.362  35.358  12.939
12409W        W73940   3.717  21.022  14.846
12410W        W73941  13.316  21.145   1.379
12411W        W73942  30.930  39.033   0.746
12412W        W73943  25.145  18.608  12.576
12413W        W73944   4.825  43.291  12.995
12414W        W73945  33.097  17.188  11.059
12415W        W73946   1.811  21.719  12.442
12416W        W73947   3.825   3.763   2.215
12417W        W73948  34.906  18.054   1.295
12418W        W73949  22.647  29.117   3.866
12419W        W73950  38.542  15.285   4.132
12420W        W73951  20.036  35.929  13.813
12421W        W73952  39.387   8.686  14.765
12422W        W73953  20.167  40.455   3.783
12423W        W73954  21.693  13.108   4.127
12424W        W73955  38.549  32.598  12.384
12425W        W73956  32.062  26.677  10.573
12426W        W73957  33.055  11.227  14.281
12427W        W73958  19.549  39.334   3.688
12428W        W73959  10.356  35.423   1.403
12429W        W73960  32.999  16.129  13.497
12430W        W73961  44.460  10.187  10.966
12431W        W73962  26.469  10.226   2.386
12432W        W73963   2.227  43.798  11.912
12433W        W73964  32.062  26.495  11.468
12434W        W73965  38.426  27.445   4.664
12435W        W73966  44.947  40.924   4.250
12436W        W73967  15.729   4.415   4.288
12437W        W73968  43.874  41.953   1.831
12438W        W73969  12.270  44.380  11.532
12439W        W73970   1.398   8.368   0.834
12440W        W73971  44.972   3.286   0.913
12441W        W73972  23.135  21.104   3.836
12442W        W73973  38.437  35.431   3.767
12443W        W73974  31.462  25.630  12.354
12444W        W73975  29.078  31.562  14.393
12445W        W73976  24.502  29.658   0.850
12446W        W73977  22.713  41.878   2.326
12447W        W73978  18.206  43.960   4.249
12448W        W73979  18.736  25.566  11.889
12449W        W73980   8.197  19.239   3.717
12450W        W73981  34.539   7.400  14.979
12451W        W73982  26.014   8.237   1.825
12452W        W73983  31.640  25.192   2.794
12453W        W73984  15.659   8.198  12.498
12454W        W73985   7.779  11.274  14.371
12455W        W73986  30.646  30.548   4.734
12456W        W73987  29.960  37.858   4.744
12457W        W73988  34.978  28.944   3.168
12458W        W73989  31.005  28.931   1.266
12459W        W73990  26.078  39.454   1.350
12460W        W73991  41.300  18.732  14.957
12461W        W73992  41.925  37.923  11.127
12462W        W73993  13.726  22.071  13.978
12463W        W73994  39.008  14.323  12.050
12464W        W73995   3.434  25.620  14.820
12465W        W73996  17.182   6.839  12.854
12466W        W73997  35.553  35.502   4.683
12467W        W73998  14.617  18.090   5.177
12468W        W73999  11.800  25.213  10.510
12469W        W74000  27.070  12.274   2.756
12470W        W74001  32.127   6.390   3.156
12471W        W74002  27.517  34.080   3.161
12472W        W74003  21.090  43.497   4.654
12473W        W74004   1.323  11.697   4.267
12474W        W74005  33.417  28.032  14.961
12475W        W74006   4.769  10.684   3.165
12476W        W74007  19.159  24.034   0.460
12477W        W74008  19.154   5.916   1.422
12478W        W74009  42.908  24.518   2.847
12479W        W74010  10.769   5.352   2.847
12480W        W74011  33.595   9.346  11.945
12481W        W74012  30.048  27.154  14.441
12482W        W74013  22.125  10.342  13.032
12483W        W74014  44.355   3.280   1.810
12484W        W74015   8.191   8.836  13.024
12485W        W74016  42.395  35.489  12.928
12486W        W74017  21.755  24.096  10.944
12487W        W74018  14.630  17.577  12.007
12488W        W74019  38.327  19.192   2.255
12489W        W74020   0.297  13.110  14.786
12490W        W74021  28.647  39.989   3.791
12491W        W74022  17.737  30.041   2.874
12492W        W74023  35.957  10.795  11.603
12493W        W74024  38.910  24.132   3.725
12494W        W74025  29.626  34.416   2.671
12495W        W74026  17.125  31.996   1.229
12496W        W74027  28.632  39.963   1.893
12497W        W74028   1.784   4.260   4.753
12498W        W74029  17.569  22.715  10.486
12499W        W74030   5.904  20.725  14.448
12500W        W74031  17.770  25.076   5.161
12501W        W74032  25.966  14.109   4.276
12502W        W74033  22.663  31.135   0.731
12503W        W74034  18.653  22.646  13.442
12504W        W74035  21.092  10.293  11.432
12505W        W74036  16.778  21.733  13.345
12506W        W74037  44.941  34.058  13.496
12507W        W74038  43.788  40.011  10.612
12508W        W74039  16.278  14.683  13.907
12509W        W74040   6.210  15.754   1.755
12510W        W74041  18.729  20.716  12.477
12511W        W74042   8.800  36.884  11.408
12512W        W74043  26.166   2.252  13.541
12513W        W74044  13.248  15.140  11.052
12514W        W74045  18.695  24.181  11.602
12515W        W74046  28.960  40.826  11.062
12516W        W74047   2.742  37.047  14.823
12517W        W74048  16.147   7.188  14.317
12518W        W74049  24.099  39.882  10.552
12519W        W74050  38.957  22.125   4.714
12520W        W74051  25.104  43.933   3.381
12521W        W74052  29.606  27.114  10.946
12522W        W74053   9.730  30.613   1.438
12523W        W74054  27.507  42.801  12.537
12524W        W74055  42.955  27.189  10.467
12525W        W74056  16.240  40.932   3.183
12526W        W74057  35.470  36.350  14.952
12527W        W74058  38.042  39.538   1.817
12528W        W74059  33.432  25.656   1.449
12529W        W74060  32.901  21.658   2.363
12530W        W74061  24.704  24.503   1.698
12531W        W74062  11.244  13.810   1.265
12532W        W74063  14.137  37.043   4.712
12533W        W74064  12.159  13.323   1.252
12534W        W74065  16.230  24.592  11.417
12535W        W74066   0.278  29.575  14.809
12536W        W74067  18.214  29.017  11.460
12537W        W74068  34.383  21.691   2.837
12538W        W74069  40.348  28.955   2.289
12539W        W74070  44.926  43.875   4.675
12540W        W74071  20.095  20.161   4.257
12541W        W74072  19.626  43.806  13.905
12542W        W74073  18.171  40.412   4.329
12543W        W74074  33.897   8.263  11.129
12544W        W74075  39.931  29.554  13.308
12545W        W74076  11.172   9.819  12.374
12546W        W74077  34.412  20.570   4.661
12547W        W74078  25.536  38.945   3.731
12548W        W74079   3.730  34.047  11.470
12549W        W74080   2.239  41.879   0.358
12550W        W74081  28.084  36.437   4.697
12551W        W74082  12.347  30.082   3.687
12552W        W74083  19.773   1.319  14.838
12553W        W74084   4.407  39.403  11.538
12554W        W74085  22.580  32.398  12.516
12555W        W74086  13.186  20.634   1.894
12556W        W74087  43.308  30.051  12.953
12557W        W74088  16.569  19.213  10.931
12558W        W74089  29.960  22.529   3.849
12559W        W74090  41.821  11.851   0.445
12560W        W74091  21.105   4.259  14.283
12561W        W74092   4.251  38.035   0.741
12562W        W74093  29.588  19.155   0.922
12563W        W74094   3.353  39.916   2.777
12564W        W74095   8.731  10.778   2.827
12565W        W74096  23.099  41.375   1.930
12566W        W74097  42.807  35.897  10.524
12567W        W74098  27.017  31.145   3.786
12568W        W74099  37.939  37.973   2.220
12569W        W74100   9.192  11.155   1.310
12570W        W74101   2.730   5.347  12.082
12571W        W74102  20.543  19.577   1.814
12572W        W74103  44.385  30.929   3.242
12573W        W74104  22.136  37.452   1.753
12574W        W74105  13.807  17.306  10.610
12575W        W74106  37.959  12.682  11.502
12576W        W74107  44.363  27.602  11.066
12577W        W74108   9.176  20.091  12.895
12578W        W74109   5.360  32.565   1.716
12579W        W74110  32.940  37.862   5.307
12580W        W74111   4.861   5.300   2.205
12581W        W74112  25.093  44.333   1.418
12582W        W74113  29.439  39.555  14.466
12583W        W74114   2.358  40.414  13.464
12584W        W74115  35.447  42.914   4.157
12585W        W74116  25.568  37.905  11.533
12586W        W74117  29.473   0.435   4.272
12587W        W74118   4.227  37.425  14.004
12588W        W74119  43.893   9.267  13.944
12589W        W74120   6.383  33.996   3.271
12590W        W74121  15.099  17.569   2.823
12591W        W74122  30.627   0.783  10.904
12592W        W74123  37.846  25.662  13.500
12593W        W74124  24.217  38.055   3.781
12594W        W74125  40.414  29.640   0.359
12595W        W74126   9.195   2.813  12.925
12596W        W74127   6.922   9.816  13.375
12597W        W74128  21.643   3.779   3.186
12598W        W74129  18.168   7.842   4.227
12599W        W74130  36.087  19.633  12.382
12600W        W74131  42.400  20.196   0.401
12601W        W74132  20.204   1.759   1.862
12602W        W74133  14.278  20.690  13.798
12603W        W74134  40.950  22.718  14.771
12604W        W74135  39.820  40.445  11.891
12605W        W74136  36.962   1.377   1.888
12606W        W74137  21.125  27.067   4.768
12607W        W74138   8.401  42.931   1.817
12608W        W74139  28.577  44.900   0.939
12609W        W74140  17.098   5.881   0.459
12610W        W74141  23.152  37.479  12.409
12611W        W74142  15.714   9.188  13.939
12612W        W74143  32.060  28.471   0.726
12613W        W74144   6.386  12.140   0.301
12614W        W74145  37.068  31.090   3.741
12615W        W74146   3.215  19.166   1.708
12616W        W74147  32.548  16.733   2.284
12617W        W74148   8.279  33.004  13.997
12618W        W74149  36.481  10.338   0.409
12619W        W74150  13.132  36.414  10.521
12620W        W74151   7.811  31.063  12.054
12621W        W74152  34.864   6.748   3.305
12622W        W74153  10.840  14.621  13.830
12623W        W74154   4.934  13.259  13.867
12624W        W74155  41.342  43.910  13.515
12625W        W74156  21.707  16.723   0.326
12626W        W74157  20.255  22.627  11.488
12627W        W74158  21.224  39.978   4.182
12628W        W74159   4.282  33.543   1.276
12629W        W74160  17.300  39.058  12.422
12630W        W74161  21.588  14.216   2.208
12631W        W74162  14.767  41.418   4.744
12632W        W74163   0.821   1.901  13.906
12633W        W74164   3.777  11.165  10.407
12634W        W74165  19.242  43.388  11.081
12635W        W74166  33.126  30.988  12.937
12636W        W74167  33.898  42.375   3.733
12637W        W74168  29.580  33.894  11.096
12638W        W74169  32.621  28.053  13.408
12639W        W74170  16.778  25.527  10.568
12640W        W74171  25.532   2.419   4.681
12641W        W74172  44.280   6.314   4.303
12642W        W74173   9.332  37.564  13.428
12643W        W74174  19.775   3.862  12.862
12644W        W74175  24.188   4.886  13.981
12645W        W74176   0.811   0.776   2.726
12646W        W74177  28.140   1.858   0.941
12647W        W74178  35.901  15.104   9.590
12648W        W74179   7.214  22.176  13.330
12649W        W74180  40.483  17.136   2.827
12650W        W74181   5.732  34.371   2.323
12651W        W74182  16.799  31.515  13.425
12652W        W74183  40.843  12.195  13.966
12653W        W74184  18.068  10.359  12.528
12654W        W74185  20.543  18.775   2.196
12655W        W74186   5.234   0.344  11.074
12656W        W74187  25.499  14.125  10.539
12657W        W74188  21.691  43.275   1.267
12658W        W74189   8.361  36.527  11.999
12659W        W74190  41.503  21.220   1.801
12660W        W74191  44.885  37.054  10.596
12661W        W74192   8.405  20.632  10.476
12662W        W74193  12.332  41.434  10.578
12663W        W74194  33.508  29.974  12.858
12664W        W74195  17.278  41.874  11.958
12665W        W74196  35.992  39.351   3.837
12666W        W74197  22.712   1.965  11.397
12667W        W74198  20.562  32.996  11.441
12668W        W74199  24.976  35.881   0.284
12669W        W74200   5.921  19.118   1.415
12670W        W74201  36.847  42.824  14.841
12671W        W74202  39.352  27.144   0.257
12672W        W74203  20.218   9.218  12.466
12673W        W74204  34.912  22.505   0.308
12674W        W74205  37.341  14.790  12.449
12675W        W74206  14.256  40.018  13.333
12676W        W74207  24.102   7.753  11.985
12677W        W74208  11.674  23.100  14.868
12678W        W74209  27.584  10.278   0.787
12679W        W74210   2.784   6.726  11.051
12680W        W74211  29.462  30.483   5.203
12681W        W74212  17.108  35.563   0.435
12682W        W74213  18.720  21.593   1.424
12683W        W74214  33.129   8.342  12.377
12684W        W74215  44.318  36.862   0.906
12685W        W74216  19.705  17.782  13.388
12686W        W74217  20.071  21.024  13.828
12687W        W74218   4.896  40.450   0.902
12688W        W74219  24.632  12.731  12.981
12689W        W74220   9.659   6.210   4.760
12690W        W74221  41.848  25.599   0.301
12691W        W74222  35.596  36.380   4.710
12692W        W74223   0.309  36.473  12.394
12693W        W74224  43.887  42.506  11.545
12694W        W74225  23.032  35.915   3.302
12695W        W74226  43.359   4.218   0.476
12696W        W74227  22.190  33.416   2.881
12697W        W74228  16.589   2.945  13.871
12698W        W74229  17.185  21.132  11.551
12699W        W74230  39.504  29.057   1.784
12700W        W74231  24.611  10.296   4.323
12701W        W74232  19.616  16.625   4.822
12702W        W74233  30.616  20.058   3.263
12703W        W74234  29.057  13.275   2.205
12704W        W74235  20.533  23.634  12.405
12705W        W74236  30.929   1.942  10.954
12706W        W74237  13.179  37.544   2.312
12707W        W74238  31.950   5.304   2.770
12708W        W74239  17.154  21.240  14.935
12709W        W74240  36.009  37.393   0.902
12710W        W74241   3.285  36.914  12.400
12711W        W74242  25.181   7.221   0.845
12712W        W74243  39.386  37.963   2.230
12713W        W74244   8.214  17.280   0.882
12714W        W74245  13.240  13.342   1.747
12715W        W74246   0.335  43.287  14.295
12716W        W74247  37.023  31.127   1.442
12717W        W74248   1.941  19.096   4.309
12718W        W74249  22.076  12.281   4.123
12719W        W74250   5.388  32.948   2.707
12720W        W74251  37.940  41.929  11.475
12721W        W74252  10.367  39.905   0.816
12722W        W74253  24.103  28.166  11.379
12723W        W74254  16.700   2.386  10.539
12724W        W74255   6.290  20.221  13.872
12725W        W74256  22.098  15.745   2.745
12726W        W74257  42.824  41.818  12.089
12727W        W74258  42.282  30.093  13.346
12728W        W74259   9.703  33.933   1.809
12729W        W74260  40.970  15.261  13.451
12730W        W74261  18.708  21.580  11.502
12731W        W74262  17.191   4.827   5.198
12732W        W74263  25.052  29.567   3.272
12733W        W74264  41.408   6.349   0.770
12734W        W74265  22.032  11.654   4.728
12735W        W74266  38.436  13.653   0.282
12736W        W74267  40.540  31.461  13.914
12737W        W74268  35.360  28.460  13.981
12738W        W74269  41.360  26.605   4.213
12739W        W74270  20.270  11.822   0.743
12740W        W74271  14.327  22.086  13.330
12741W        W74272  32.890   1.441  14.366
12742W        W74273  28.023  15.751  10.418
12743W        W74274  13.259  15.122   4.690
12744W        W74275  13.120   4.217   2.249
12745W        W74276   1.443   3.270  12.052
12746W        W74277  11.285  27.119   3.764
12747W        W74278  16.123  12.794  14.001
12748W        W74279  36.431  42.351  14.374
12749W        W74280   9.825  19.609   1.782
12750W        W74281  21.142  42.291   5.231
12751W        W74282  44.939  26.465   2.704
12752W        W74283  30.573  32.482  10.534
12753W        W74284  35.547  33.458  11.992
12754W        W74285  39.830  26.080  13.005
12755W        W74286  40.935  42.903  10.075
12756W        W74287  10.314  33.101   0.903
12757W        W74288  27.638  32.944  13.854
12758W        W74289  24.227  35.077   2.192
12759W        W74290  23.657  25.607   0.283
12760W        W74291  27.043   0.956   0.313
12761W        W74292  25.997  10.151   1.332
12762W        W74293   2.897  23.575   3.263
12763W        W74294  43.765  37.510   0.868
12764W        W74295  13.653   7.229  13.363
12765W        W74296  37.406   7.813  12.355
12766W        W74297  42.330  13.795  13.963
12767W        W74298  20.547  22.625   1.373
12768W        W74299   3.939  39.045   4.597
12769W        W74300  24.696   4.865   3.220
12770W        W74301   7.904   4.734   3.148
12771W        W74302  11.741  42.982   1.439
12772W        W74303  28.015  25.653  13.366
12773W        W74304  26.964   0.351   2.211
12774W        W74305   9.254  18.260   0.320
12775W        W74306  12.199  22.566   2.791
12776W        W74307   8.860  10.225   2.348
12777W        W74308  15.618   4.321  10.506
12778W        W74309  35.578  27.014   0.347
12779W        W74310  39.342  39.817   0.941
12780W        W74311   3.733   6.346  12.048
12781W        W74312  28.952   8.827   3.263
12782W        W74313   6.397  16.134   0.880
12783W        W74314  29.532   6.824   4.758
12784W        W74315  23.055  27.136  13.055
12785W        W74316  39.898   2.274  13.454
12786W        W74317  13.824  21.633   3.714
12787W        W74318  32.476  20.532   0.380
12788W        W74319  20.048  35.994  11.863
12789W        W74320  38.545  23.143  14.418
12790W        W74321   5.748  24.160  11.112
12791W        W74322  35.520  32.499  14.014
12792W        W74323  30.029  19.234   3.851
12793W        W74324  28.044  44.309   4.339
12794W        W74325  44.991  22.591   2.724
12795W        W74326  13.232  26.491   4.320
12796W        W74327  38.440  20.569   1.295
12797W        W74328   9.820  32.472   1.712
12798W        W74329  43.918  26.535   0.852
12799W        W74330  21.597  33.493  12.009
12800W        W74331   7.763  42.979   3.165
12801W        W74332  34.054   5.361   0.901
12802W        W74333  18.293   4.926   3.828
12803W        W74334  37.379  20.579   1.434
12804W        W74335  18.678  12.308   0.788
12805W        W74336  19.754  38.920  14.845
12806W        W74337  32.543  21.520   3.149
12807W        W74338  40.959  33.119   0.441
12808W        W74339   7.734   0.428  10.911
12809W        W74340  20.729  19.583  14.988
12810W        W74341  44.483   9.238   2.345
12811W        W74342   1.747  12.307   3.720
12812W        W74343  27.604  13.226  11.536
12813W        W74344  44.896  44.886  13.337
12814W        W74345  42.947  10.774   4.227
12815W        W74346  23.728   8.402  13.524
12816W        W74347  11.662  36.059   3.867
12817W        W74348  42.789  15.698  10.492
12818W        W74349  15.627  13.324  12.406
12819W        W74350  17.265   9.197  13.310
12820W        W74351   8.770  19.047  12.520
12821W        W74352  30.500  44.765  14.894
12822W        W74353  28.162  14.110   4.753
12823W        W74354  38.377  10.857   1.436
12824W        W74355  39.904  15.301   4.783
12825W        W74356  12.709  28.066   2.224
12826W        W74357  27.524  25.152  12.004
12827W        W74358  36.037  24.199   4.118
12828W        W74359  25.525  28.941   4.674
12829W        W74360  18.684  31.500   0.829
12830W        W74361  31.516  25.595   1.756
12831W        W74362  18.716  38.359   2.242
12832W        W74363  23.546  32.469  12.095
12833W        W74364  36.931  12.855   3.849
12834W        W74365  42.384  39.977   3.631
12835W        W74366  28.045  10.277   3.778
12836W        W74367  23.076  22.528  13.440
12837W        W74368  29.540   1.367   2.903
12838W        W74369  12.828   0.416   2.291
12839W        W74370  24.675  23.624   4.657
12840W        W74371  41.469  11.787  14.409
12841W        W74372  15.312  34.911   3.317
12842W        W74373   4.801  32.007  11.927
12843W        W74374  29.173   9.310   3.228
12844W        W74375  27.952  31.141   2.219
12845W        W74376  36.017   0.811   5.178
12846W        W74377  12.286  26.101  12.399
12847W        W74378  18.617   7.383   3.760
12848W        W74379  25.182  23.569   2.220
12849W        W74380  11.772  40.000   4.684
12850W        W74381  20.126  25.006   2.254
12851W        W74382  11.313  26.166   3.687
12852W        W74383   5.282   4.761  11.484
12853W        W74384   7.353  27.167  14.975
12854W        W74385   6.400  42.814   5.228
12855W        W74386  30.603   4.387   3.667
12856W        W74387   5.892   5.204   0.439
12857W        W74388   4.444  42.009   0.962
12858W        W74389  31.492  26.984   3.858
12859W        W74390   8.313  32.049  14.977
12860W        W74391  42.369  29.077   4.314
12861W        W74392  38.915   7.250   3.242
12862W        W74393  33.071  19.567   4.172
12863W        W74394  29.070   4.846   4.715
12864W        W74395  21.625  23.674   2.664
12865W        W74396  20.079  41.976   0.777
12866W        W74397  20.247   4.911  11.975
12867W        W74398  21.245  39.523   2.343
12868W        W74399   7.738  23.986  12.530
12869W        W74400  13.679   8.761   1.314
12870W        W74401  14.125  24.092  11.985
12871W        W74402  12.238  16.177   4.753
12872W        W74403  38.046  44.801   0.940
12873W        W74404  22.689  43.934  11.918
12874W        W74405   9.771  39.418  11.502
12875W        W74406  40.491  22.502   0.959
12876W        W74407  14.160  16.607   0.446
12877W        W74408   1.934  11.788   2.713
12878W        W74409  34.497  20.073   1.824
12879W        W74410  41.988   0.373  14.339
12880W        W74411   6.373  33.572   3.692
12881W        W74412  32.533  30.581  12.573
12882W        W74413  26.196  44.298   3.200
12883W        W74414  26.967  33.502   0.297
12884W        W74415  12.327   6.265  13.382
12885W        W74416  42.405   4.862   0.245
12886W        W74417  42.295  23.648   3.182
12887W        W74418  20.033  34.884   2.203
12888W        W74419  15.129  33.015   3.216
12889W        W74420  31.539   5.403   2.899
12890W        W74421  28.469  39.808   0.419
12891W        W74422  12.254  21.665   4.622
12892W        W74423  44.992  17.081  12.505
12893W        W74424  26.027   1.243  14.392
12894W        W74425  43.348  44.396   9.986
12895W        W74426  40.404  21.065   1.733
12896W        W74427  19.544  15.711  12.075
12897W        W74428  18.227   4.876  14.791
12898W        W74429  34.047  23.029   2.711
12899W        W74430   9.644  15.802  13.856
12900W        W74431  36.365  30.120  14.023
12901W        W74432  10.219  32.523  14.876
12902W        W74433  42.908  10.780   0.414
12903W        W74434  19.245  32.499  11.893
12904W        W74435   3.342  30.094  13.822
12905W        W74436   4.292  26.480  14.800
12906W        W74437  23.198  23.126  13.794
12907W        W74438  26.998  16.163  14.899
12908W        W74439  17.681   7.214  11.128
12909W        W74440   1.307  33.608   0.258
12910W        W74441  42.425  29.034   0.471
12911W        W74442  40.389  29.020  14.343
12912W        W74443  28.501  10.154  10.078
12913W        W74444  39.500  13.628  11.480
12914W        W74445  39.530  14.645  12.996
12915W        W74446  37.505  15.629  11.900
12916W        W74447  43.490  42.841  14.312
12917W        W74448  25.134  18.240  10.428
12918W        W74449  26.991   3.405   3.859
12919W        W74450  26.641  44.393  14.392
12920W        W74451   0.853   7.222   2.827
12921W        W74452   5.754  29.030   3.251
12922W        W74453   7.185  38.019   4.736
12923W        W74454  44.795  12.258   2.372
12924W        W74455  20.037  28.475   1.836
12925W        W74456  41.969  23.615   2.835
12926W        W74457  12.280  18.074   1.448
12927W        W74458  34.524  41.894   3.635
12928W        W74459  22.548  36.441  10.961
12929W        W74460  26.024  28.447  12.575
12930W        W74461  40.328  41.817  11.525
12931W        W74462  21.232  13.829   0.466
12932W        W74463  16.663   8.763  14.515
12933W        W74464  44.490   0.989   5.267
12934W        W74465  18.163  13.337   3.180
12935W        W74466  28.148  19.246  12.905
12936W        W74467   2.308  27.072  13.795
12937W        W74468   2.892  34.960   2.675
12938W        W74469   1.951  10.726  11.081
12939W        W74470  35.061  41.346  11.561
12940W        W74471  12.708  16.589   3.376
12941W        W74472  28.045  43.915  11.555
12942W        W74473  17.747  27.633   1.419
12943W        W74474  30.020  43.485   3.850
12944W        W74475  18.764   4.336  11.883
12945W        W74476  30.068   3.732  11.536
12946W        W74477  17.124   5.866  10.557
12947W        W74478  11.799  23.587   0.787
12948W        W74479  18.738  11.226  11.436
12949W        W74480   7.318  23.540   1.273
12950W        W74481  37.980  38.427   9.494
12951W        W74482  38.482  37.438  12.964
12952W        W74483  31.952  27.451  11.082
12953W        W74484  18.288   7.406  11.988
12954W        W74485  21.105  36.416   1.269
12955W        W74486   3.843  43.420  12.865
12956W        W74487  22.191  24.554  11.405
12957W        W74488  15.118  28.072  12.985
12958W        W74489  34.413  11.289   4.300
12959W        W74490  12.288   1.934  11.393
12960W        W74491  19.763   8.245   4.810
12961W        W74492  32.971  36.417  11.873
12962W        W74493  30.486  42.813   0.751
12963W        W74494  12.361  24.163   4.261
12964W        W74495   8.249  19.734   0.473
12965W        W74496  25.485  16.743   1.370
12966W        W74497   7.315   5.424   2.305
12967W        W74498   0.863  43.916   4.632
12968W        W74499  36.409  38.450   0.743
12969W        W74500  21.599   4.336  13.530
12970W        W74501   3.909  23.149   3.250
12971W        W74502  27.136   0.743   2.722
12972W        W74503  28.010   1.304   1.436
12973W        W74504  43.820   2.443  14.941
12974W        W74505   9.688   2.728   1.350
12975W        W74506  40.386  12.207  10.161
12976W        W74507  38.925  42.501   3.386
12977W        W74508  13.835  30.444  12.502
12978W        W74509  13.326  18.073  12.480
12979W        W74510  18.192  13.774  14.814
12980W        W74511  37.945  15.097  14.415
12981W        W74512  24.496  41.991   0.801
12982W        W74513  43.418  16.584   4.786
12983W        W74514  22.033  26.007  13.812
12984W        W74515  39.946  32.142   1.244
12985W        W74516  14.250  38.054   0.332
12986W        W74517  14.797  35.867   2.891
12987W        W74518  18.150   9.700  13.934
12988W        W74519  13.764  19.546   4.226
12989W        W74520   3.762  29.497   3.232
12990W        W74521  29.975  37.911  10.446
12991W        W74522  18.656  20.260  14.312
12992W        W74523  25.118  25.711  13.855
12993W        W74524  31.580  23.160   4.162
12994W        W74525  43.968  17.080  12.026
12995W        W74526  18.244  22.025  13.542
12996W        W74527  16.128  38.416   2.726
12997W        W74528   8.893  34.500  12.547
12998W        W74529  14.588  32.101   2.414
12999W        W74530  43.311  20.549  10.954
13000W        W74531   0.767  35.584   4.823
13001W        W74532  38.561  35.577  12.350
13002W        W74533  30.541   0.745  13.519
13003W        W74534  37.950  24.042   3.680
13004W        W74535  27.952   7.833  11.591
13005W        W74536  13.199  25.189  10.421
13006W        W74537  23.121  10.293  14.904
13007W        W74538   4.782  16.169  14.939
13008W        W74539  15.228  31.548   0.748
13009W        W74540  31.029  43.411  10.946
13010W        W74541  17.232  29.584   2.839
13011W        W74542  28.945  41.524  12.882
13012W        W74543   4.390  19.554   4.745
13013W        W74544  23.601  29.550  14.998
13014W        W74545   9.327  21.130  11.424
13015W        W74546   6.372   8.835  10.567
13016W        W74547  31.454  34.037   2.892
13017W        W74548  31.917   9.788  12.438
13018W        W74549  15.223   0.369  10.608
13019W        W74550  12.779   1.423   4.752
13020W        W74551  44.447  20.240   4.800
13021W        W74552   2.922  21.580   4.808
13022W        W74553   2.273  34.896  10.555
13023W        W74554   0.976  35.036  14.012
13024W        W74555   9.819   7.892  11.033
13025W        W74556  16.231  30.962  14.407
13026W        W74557   8.311  39.330  12.547
13027W        W74558  35.922  24.991   4.673
13028W        W74559   2.375   7.825   0.253
13029W        W74560   2.911  38.561  14.993
13030W        W74561  25.193  35.853  12.505
13031W        W74562  43.839   5.401  13.350
13032W        W74563   6.901  10.148  11.901
13033W        W74564  19.577  12.230  13.000
13034W        W74565  31.629  15.193  14.831
13035W        W74566  41.919   4.746  14.823
13036W        W74567  25.603   2.950  11.425
13037W        W74568  44.780  27.978  12.440
13038W        W74569  12.656  23.563  13.983
13039W        W74570  19.197   0.765   2.669
13040W        W74571  23.130  32.076   4.735
13041W        W74572  12.661  23.621   0.967
13042W        W74573  43.368   2.360   1.842
13043W        W74574  12.663  14.222  12.571
13044W        W74575  40.858  44.369   3.268
13045W        W74576   1.841  36.476  14.857
13046W        W74577  31.536  22.033  10.458
13047W        W74578  33.897  12.697  14.020
13048W        W74579  22.114  14.821  14.372
13049W        W74580  17.780  26.509   0.255
13050W        W74581  33.936   5.200   3.794
13051W        W74582  42.796  24.553   1.788
13052W        W74583  29.942  12.661   3.864
13053W        W74584  37.996  29.107   4.303
13054W        W74585  14.795  34.443  11.429
13055W        W74586  40.847  39.449  14.511
13056W        W74587  31.648  19.730  13.951
13057W        W74588  39.061  30.912  10.911
13058W        W74589   1.925  24.621   1.216
13059W        W74590  13.135  29.972   3.172
13060W        W74591  13.821  26.466   3.867
13061W        W74592  31.457  11.780   2.857
13062W        W74593  24.084  12.738  10.912
13063W        W74594  23.151  24.511  12.363
13064W        W74595  31.450  19.715  10.405
13065W        W74596  13.659  22.731  12.851
13066W        W74597  16.788   4.405  11.561
13067W        W74598   4.732  39.014  10.996
13068W        W74599  23.055  20.044   1.776
13069W        W74600  43.410  34.589  11.961
13070W        W74601  44.402  25.714   0.466
13071W        W74602   5.437  42.415   3.812
13072W        W74603  15.083  39.057  10.988
13073W        W74604  32.629  40.424   0.794
13074W        W74605   5.774  29.534   0.419
13075W        W74606  23.564  29.070  11.039
13076W        W74607  29.051  31.492  12.078
13077W        W74608   1.265   2.876   2.859
13078W        W74609   9.655  28.665  14.331
13079W        W74610  44.837  26.051   0.921
13080W        W74611  20.661   0.258   3.385
13081W        W74612  18.764  15.313   4.679
13082W        W74613  19.682  31.027   3.630
13083W        W74614  39.494   0.837  14.952
13084W        W74615   9.653  24.060  12.426
13085W        W74616  37.014  10.288  13.885
13086W        W74617  12.308  17.119  11.045
13087W        W74618  32.932  13.202   0.733
13088W        W74619   9.733   4.348  11.107
13089W        W74620  40.355  19.553  10.566
13090W        W74621  28.018  31.004   1.291
13091W        W74622  19.080  40.977   1.835
13092W        W74623  16.191  19.276  11.535
13093W        W74624  31.978  23.098  13.853
13094W        W74625  17.132   0.820   5.270
13095W        W74626  40.797  12.762   4.285
13096W        W74627  20.651  10.716  11.564
13097W        W74628  14.300  40.351  11.053
13098W        W74629  20.562   0.859  13.312
13099W        W74630  42.877  21.185  14.285
13100W        W74631   3.758  29.519  11.095
13101W        W74632  14.226  32.414   3.643
13102W        W74633   0.256  17.777  13.977
13103W        W74634  23.050  10.350  12.079
13104W        W74635  14.315  26.033   0.818
13105W        W74636  19.617  24.638   5.689
13106W        W74637   8.278  14.765  10.625
13107W        W74638   3.884  24.974  12.909
13108W        W74639  16.259  23.050  11.932
13109W        W74640  42.916  23.175   0.379
13110W        W74641  28.154  27.981   3.671
13111W        W74642   6.313  25.055   5.084
13112W        W74643  17.747  24.220  12.987
13113W        W74644  31.531   4.932  14.859
13114W        W74645  23.233  36.881  14.852
13115W        W74646  34.873  19.092  10.431
13116W        W74647  34.440  21.683   2.334
13117W        W74648  35.032  28.618  11.456
13118W        W74649  36.035  42.789   3.849
13119W        W74650   5.886  40.387   4.716
13120W        W74651  42.358  10.330  12.861
13121W        W74652  36.973  26.696   1.264
13122W        W74653   2.229   4.405  10.593
13123W        W74654  33.400  30.914   3.228
13124W        W74655  13.713  14.810  12.374
13125W        W74656  20.102  21.259   3.686
13126W        W74657  21.125  40.807   1.784
13127W        W74658  19.135  42.011  10.447
13128W        W74659  24.228  39.531   4.252
13129W        W74660  29.520   6.737   5.113
13130W        W74661  43.450  19.176  14.349
13131W        W74662  41.831  15.708   0.277
13132W        W74663  12.740  41.025  12.966
13133W        W74664  33.534   5.880  10.060
13134W        W74665  23.607  12.822  14.391
13135W        W74666  21.636  19.084   4.240
13136W        W74667  13.316   8.332  14.897
13137W        W74668  32.424  36.500   3.707
13138W        W74669   7.783  13.183   3.290
13139W        W74670  21.706  20.213  12.426
13140W        W74671  41.855   6.249   4.253
13141W        W74672  18.166   2.303   1.773
13142W        W74673   5.402  40.798   1.875
13143W        W74674   0.383   1.926  12.846
13144W        W74675   2.237   1.737  11.953
13145W        W74676   7.807   9.680   0.788
13146W        W74677  19.664  11.657  13.035
13147W        W74678   8.876  41.441  10.103
13148W        W74679  28.055  41.492   9.969
13149W        W74680  21.562  32.040  11.123
13150W        W74681  13.647   5.211  12.023
13151W        W74682   0.466  27.165  14.836
13152W        W74683  43.293  43.011  10.461
13153W        W74684  17.621  30.997  14.339
13154W        W74685   2.892  23.583   1.263
13155W        W74686   8.396  42.487   1.427
13156W        W74687  32.530  11.739  12.875
13157W        W74688  15.813  19.080   4.704
13158W        W74689  24.536  44.403   1.887
13159W        W74690   0.390  20.260  11.520
13160W        W74691  41.789  18.268  11.519
13161W        W74692  30.479   2.255  10.522
13162W        W74693  20.080  18.701   2.727
13163W        W74694   9.232  21.212  14.011
13164W        W74695  18.732   7.774   2.694
13165W        W74696   9.811   7.267  14.501
13166W        W74697  35.934  19.541   0.405
13167W        W74698  41.019  15.615   3.315
13168W        W74699  19.692  37.015   1.929
13169W        W74700  10.262  20.100  14.320
13170W        W74701  32.536  27.451  12.348
13171W        W74702  24.601   9.851  10.530
13172W        W74703  15.269  19.733   3.176
13173W        W74704  23.009  31.622  12.089
13174W        W74705  17.788  13.816   0.385
13175W        W74706  22.674  35.002  12.883
13176W        W74707  41.511  30.415  13.838
13177W        W74708  20.186  33.561  12.504
13178W        W74709  44.422   0.327  13.344
13179W        W74710  35.005  15.681   0.328
13180W        W74711  10.337   1.369   1.864
13181W        W74712  37.923   8.332   1.803
13182W        W74713  40.475  25.973  12.470
13183W        W74714  19.263  44.292  13.894
13184W        W74715  11.369  42.927  13.960
13185W        W74716  24.566   4.718  13.976
13186W        W74717   9.274   5.748  12.976
13187W        W74718  24.101  23.635  10.992
13188W        W74719  21.689  35.600   0.243
13189W        W74720  18.572  42.465   2.203
13190W        W74721  24.545  29.542  10.450
13191W        W74722  14.139  39.540  10.616
13192W        W74723  19.631  40.341   1.221
13193W        W74724  24.542  44.822   3.686
13194W        W74725  30.627  35.920  11.589
13195W        W74726  27.588  15.660   3.674
13196W        W74727  15.612  18.690  13.916
13197W        W74728   8.801  33.034   1.879
13198W        W74729  34.558  10.771  10.910
13199W        W74730  43.883  39.542   3.646
13200W        W74731  13.835   9.252   1.882
13201W        W74732  26.504   2.896  12.861
13202W        W74733   5.779  28.551  14.924
13203W        W74734   1.369  34.043  12.959
13204W        W74735   0.393  43.385  12.879
13205W        W74736   2.807  13.812  13.317
13206W        W74737  16.607  36.962  12.890
13207W        W74738  22.549   2.736   4.133
13208W        W74739   2.839  44.990   4.705
13209W        W74740  29.970   6.819  10.524
13210W        W74741  37.915  12.329   9.452
13211W        W74742  31.962  15.252   3.775
13212W        W74743  41.832   6.812   0.761
13213W        W74744  27.559  27.019   2.288
13214W        W74745  32.074  25.117   4.155
13215W        W74746  41.801  16.213   4.601
13216W        W74747  25.064   5.835   1.374
13217W        W74748  35.484  36.414   9.957
13218W        W74749  13.757  41.323   2.414
13219W        W74750   9.756  27.593   4.164
13220W        W74751  35.462  39.501  14.813
13221W        W74752   6.744  18.187  14.823
13222W        W74753   0.473  38.525  11.409
13223W        W74754  30.619  22.172  12.036
13224W        W74755  32.903   7.335  13.392
13225W        W74756  12.749  37.016   2.708
13226W        W74757   7.355  14.263   2.901
13227W        W74758  20.661  28.176   3.359
13228W        W74759  44.788  17.682   2.831
13229W        W74760  30.007   1.323  14.482
13230W        W74761   2.842   1.966  10.572
13231W        W74762  10.865  44.419  10.890
13232W        W74763  36.999  18.233   0.967
13233W        W74764  41.442  39.894   0.285
13234W        W74765  39.437  14.644   4.276
13235W        W74766  44.307   3.220  11.601
13236W        W74767  38.963   1.956  10.463
13237W        W74768  27.566  18.167  12.526
13238W        W74769  42.382  32.622   1.331
13239W        W74770   6.914  31.486  13.968
13240W        W74771  34.981  32.608  10.918
13241W        W74772   2.430  19.590  11.037
13242W        W74773  11.659  43.509  14.290
13243W        W74774  28.652   9.762   5.181
13244W        W74775   9.171  31.110  13.835
13245W        W74776  22.526   3.377  10.444
13246W        W74777   5.852   1.334   0.785
13247W        W74778  26.166  10.801   4.668
13248W        W74779  28.639  12.270  14.368
13249W        W74780  22.722   9.318  11.474
13250W        W74781  16.263  26.487   2.865
13251W        W74782  30.555  44.867   0.865
13252W        W74783   1.275  38.427   4.662
13253W        W74784  19.192   5.381  11.092
13254W        W74785  34.997   5.710   4.228
13255W        W74786  17.140  13.178   5.085
13256W        W74787  28.466  17.590  14.442
13257W        W74788  42.777  24.198   5.092
13258W        W74789  35.082   8.852  11.612
13259W        W74790  34.105  41.939   3.336
13260W        W74791  39.809  35.913   1.839
13261W        W74792  17.111   6.766  13.316
13262W        W74793  18.186  18.747   3.203
13263W        W74794  10.300  12.123   2.359
13264W        W74795  28.452  21.096   0.338
13265W        W74796   5.310  25.556  12.394
13266W        W74797  20.541   2.751  11.561
13267W        W74798  11.160   8.381   3.764
13268W        W74799  24.228  26.123  11.449
13269W        W74800  26.053  42.308   0.944
13270W        W74801  21.717  29.936   2.775
13271W        W74802  10.726   1.323  13.957
13272W        W74803  30.476  29.001   4.130
13273W        W74804  40.523  24.629  11.413
13274W        W74805   2.958   9.667   3.316
13275W        W74806   1.324  19.642  12.571
13276W        W74807  39.405  40.973  13.357
13277W        W74808  19.567   7.342  11.895
13278W        W74809  24.204   0.958   2.196
13279W        W74810  42.378  10.378  11.545
13280W        W74811  31.118  39.338  13.400
13281W        W74812  28.979  25.079  12.508
13282W        W74813   2.833  12.300   3.238
13283W        W74814  23.723  38.427   5.764
13284W        W74815   1.736   7.387   3.847
13285W        W74816   5.909  20.176  10.437
13286W        W74817  11.329  44.774  12.562
13287W        W74818  33.411  42.477   4.804
13288W        W74819  41.525   6.874   3.184
13289W        W74820  13.666  24.981   1.337
13290W        W74821  41.365  13.600   3.341
13291W        W74822  26.066  42.495   4.602
13292W        W74823   3.395  21.137  12.397
13293W        W74824   1.919  22.032  14.847
13294W        W74825   8.220   8.171  13.821
13295W        W74826  19.096   4.817  11.441
13296W        W74827  10.671   2.294  11.426
13297W        W74828  36.434  41.968   0.338
13298W        W74829  25.077  41.391  14.300
13299W        W74830   9.868  36.852  12.824
13300W        W74831   2.747  15.708   4.795
13301W        W74832  40.361   1.809   0.288
13302W        W74833  21.202  23.564   0.317
13303W        W74834  24.093  39.399   3.173
13304W        W74835  22.519  11.258   3.191
13305W        W74836   7.383  11.281  14.810
13306W        W74837   8.767  27.123   3.692
13307W        W74838  23.675   5.416  12.914
13308W        W74839  40.836  15.624   0.477
13309W        W74840  18.685  13.676   2.389
13310W        W74841  23.048  20.735  12.045
13311W        W74842  29.947  22.166   4.725
13312W        W74843  23.502  26.656  11.116
13313W        W74844  30.501  15.808   1.913
13314W        W74845   5.752  14.790   3.237
13315W        W74846  29.127  19.181  14.476
13316W        W74847  41.322   2.847   1.334
13317W        W74848   4.386   1.915  11.395
13318W        W74849  43.781  11.296   3.281
13319W        W74850  25.023   6.786  12.458
13320W        W74851  32.586   7.899  12.428
13321W        W74852  28.036   6.818  13.515
13322W        W74853  25.512   4.727  13.495
13323W        W74854  32.584  21.559  11.412
13324W        W74855  34.025   1.312   0.388
13325W        W74856  26.649  10.873   0.802
13326W        W74857  22.650  44.336  12.844
13327W        W74858  12.211  26.560   3.175
13328W        W74859  10.355   1.237   4.798
13329W        W74860  31.984  19.081   2.323
13330W        W74861  36.968   8.657   3.696
13331W        W74862  20.620   5.408   2.776
13332W        W74863  22.237  39.813   2.243
13333W        W74864  16.280   4.916  12.866
13334W        W74865   2.444  34.606  13.401
13335W        W74866  20.725  14.132   2.683
13336W        W74867  42.873   1.445   0.784
13337W        W74868   6.850  26.095   2.860
13338W        W74869  29.110   7.384   3.870
13339W        W74870  23.056  32.465   0.311
13340W        W74871  10.376   8.371   1.779
13341W        W74872  41.349  44.337   2.331
13342W        W74873  13.720  44.306  14.399
13343W        W74874  27.568  15.608   3.362
13344W        W74875   8.679  20.709  10.931
13345W        W74876  40.360  29.492   2.878
13346W        W74877  36.424  27.021  11.991
13347W        W74878   5.918  20.684   3.365
13348W        W74879  10.741  44.359   1.701
13349W        W74880  12.776  16.609  13.994
13350W        W74881   7.289   4.372   4.203
13351W        W74882   2.380  24.075   3.148
13352W        W74883  39.935   0.938   1.878
13353W        W74884  10.162   9.842  13.405
13354W        W74885  30.128  29.578   3.381
13355W        W74886  32.636  25.098   1.819
13356W        W74887   3.401  23.163   2.333
13357W        W74888   4.702  39.012  13.834
13358W        W74889   9.682  35.009  11.125
13359W        W74890  12.679  15.148  14.845
13360W        W74891  24.510  28.061   0.814
13361W        W74892  27.460  41.860  13.812
13362W        W74893  16.264  18.209   4.279
13363W        W74894  36.068  43.775   2.236
13364W        W74895  14.327   1.894   4.188
13365W        W74896  29.597  44.272  14.860
13366W        W74897  42.444   2.429  14.799
13367W        W74898  24.069   2.468  12.567
13368W        W74899  25.188  43.841   4.659
13369W        W74900  10.715  31.045  13.477
13370W        W74901  18.142  20.605  14.889
13371W        W74902   9.811  14.691   3.722
13372W        W74903   6.288  26.198  13.056
13373W        W74904  10.633  21.514   4.195
13374W        W74905  16.077   6.915  14.404
13375W        W74906  22.572  18.251  11.119
13376W        W74907  32.463   2.367  12.028
13377W        W74908  23.094  29.110  11.894
13378W        W74909  33.472   4.325   1.899
13379W        W74910  23.647  34.472   3.255
13380W        W74911   1.911  37.057  14.821
13381W        W74912   1.468   1.240  13.832
13382W        W74913   2.733  17.622  12.859
13383W        W74914   3.256  25.188   0.877
13384W        W74915  43.850  16.145  13.464
13385W        W74916  18.639  26.535   3.166
13386W        W74917  20.526  22.614  10.116
13387W        W74918   4.232   9.691   1.270
13388W        W74919  41.839  30.503   1.918
13389W        W74920  36.868  14.231  11.051
13390W        W74921  30.063  19.618  11.973
13391W        W74922  24.052  40.816  14.492
13392W        W74923  26.148   8.816   2.181
13393W        W74924  14.218  17.118   4.655
13394W        W74925  34.486  31.625   1.706
13395W        W74926  33.125  34.042  14.780
13396W        W74927   7.416  35.468  14.482
13397W        W74928  30.537   6.801   2.807
13398W        W74929  35.047  18.099  13.968
13399W        W74930   9.377  18.627  12.908
13400W        W74931   2.347  17.175  11.118
13401W        W74932  15.710   2.289  10.898
13402W        W74933  11.146  32.961   1.713
13403W        W74934  34.113  24.546   2.881
13404W        W74935  41.009  14.168   3.657
13405W        W74936  13.111   9.736  11.925
13406W        W74937  14.675  41.964  14.441
13407W        W74938  22.562   8.765  10.132
13408W        W74939  44.753  42.819  12.891
13409W        W74940  34.516  24.194  15.000
13410W        W74941  44.479  12.320   0.457
13411W        W74942  43.447  11.850  14.434
13412W        W74943  20.660  14.636   0.400
13413W        W74944   5.799  20.256  14.314
13414W        W74945  31.638  42.427   2.869
13415W        W74946  22.733  33.547   1.366
13416W        W74947  23.591  35.971  13.502
13417W        W74948  23.109  42.378   2.780
13418W        W74949  21.557   8.821  12.529
13419W        W74950  16.174  20.199   3.706
13420W        W74951  34.993  37.391   3.748
13421W        W74952  17.167  34.503   2.777
13422W        W74953  39.475  13.708   0.289
13423W        W74954  12.829  37.533   3.338
13424W        W74955   5.424   6.222  12.899
13425W        W74956  22.214  40.801   9.946
13426W        W74957  37.946  24.522  13.422
13427W        W74958  15.290   7.842   3.857
13428W        W74959  16.655  21.515   4.826
13429W        W74960  20.685  23.609   3.340
13430W        W74961   4.733  28.482  11.457
13431W        W74962  25.190  31.446  12.952
13432W        W74963  34.378  26.054   1.231
13433W        W74964  42.520  36.098  10.947
13434W        W74965   6.909  32.091  11.976
13435W        W74966   3.736  13.650  13.895
13436W        W74967  33.466  29.581  14.285
13437W        W74968  14.824  34.951   1.711
13438W        W74969   1.938  22.145  13.448
13439W        W74970  26.667  15.590  10.473
13440W        W74971   3.274  42.432   0.954
13441W        W74972   6.897  36.425   0.878
13442W        W74973   3.384  24.997   3.357
13443W        W74974   7.318   8.823   1.319
13444W        W74975  11.743  43.312   2.224
13445W        W74976  34.580  11.248   5.307
13446W        W74977   9.844   7.189  13.365
13447W        W74978  39.445  19.052   1.286
13448W        W74979  21.024  13.721  10.955
13449W        W74980  31.643  37.998   9.518
13450W        W74981   1.249  35.559  13.482
13451W        W74982   9.724  20.617   3.162
13452W        W74983   5.827   7.362  14.496
13453W        W74984  12.314  21.636   4.273
13454W        W74985  41.530  22.186   0.792
13455W        W74986  30.126  36.998   0.456
13456W        W74987  40.901  42.401  11.992
13457W        W74988  38.961   0.786   1.733
13458W        W74989  37.876  39.888  14.861
13459W        W74990   1.770   0.912   2.331
13460W        W74991  11.700  18.567  10.939
13461W        W74992   7.398  19.093  13.989
13462W        W74993  15.316  30.515   0.873
13463W        W74994  39.359  12.314   2.358
13464W        W74995  22.650  14.649  12.486
13465W        W74996  28.435   1.409  13.500
13466W        W74997  36.075  24.997   2.690
13467W        W74998  23.988   6.199   3.739
13468W        W74999  28.170  21.197  13.433
13469W        W75000  33.569   7.852  12.375
13470W        W75001  20.606  32.425  10.420
13471W        W75002  23.513  26.208  13.957
13472W        W75003  40.465   4.811  14.317
13473W        W75004  25.619   5.813  12.501
13474W        W75005  33.103   8.342   4.805
13475W        W75006  28.173   4.810   3.746
13476W        W75007  29.132  21.106   0.258
13477W        W75008  35.897  43.912   0.902
13478W        W75009  25.216  14.104  12.462
13479W        W75010  21.526   0.282  12.033
13480W        W75011  36.516  43.017  13.917
13481W        W75012   8.814  33.619  14.894
13482W        W75013   0.464   7.875  14.940
13483W        W75014  43.447  18.196  13.960
13484W        W75015  44.478  19.189   0.472
13485W        W75016  37.900  42.797   3.326
13486W        W75017  29.147   5.890  13.418
13487W        W75018  39.537   2.761   1.880
13488W        W75019  41.503   4.277  10.953
13489W        W75020   8.209  13.146   0.882
13490W        W75021  26.956   2.407   3.242
13491W        W75022  13.635  16.276  14.345
13492W        W75023  30.097  30.160   0.950
13493W        W75024  22.178  37.354   4.289
13494W        W75025   7.200   4.286  10.490
13495W        W75026  38.056   5.202   4.240
13496W        W75027  10.755  12.310  12.980
13497W        W75028  43.958  25.970  13.887
13498W        W75029  34.468  43.394   0.809
13499W        W75030   1.290  33.990   2.800
13500W        W75031  11.708   9.677  13.520
13501W        W75032  20.153  15.220  10.641
13502W        W75033  13.187  18.739   1.389
13503W        W75034  12.693  24.979  10.961
13504W        W75035  13.804  29.014  14.438
13505W        W75036  29.657  25.209   5.174
13506W        W75037  22.179   6.744  13.470
13507W        W75038   5.893   2.310  12.992
13508W        W75039  42.017  44.849  11.526
13509W        W75040  26.090   9.322  11.435
13510W        W75041  23.157  21.108   1.858
13511W        W75042  13.323   1.876   2.766
13512W        W75043  14.194  43.019   4.675
13513W        W75044   3.387  36.037   1.873
13514W        W75045  15.672  15.652   0.783
13515W        W75046  44.381  12.198  13.433
13516W        W75047  32.559   8.365  13.800
13517W        W75048   7.220   4.912   0.765
13518W        W75049  18.698  25.539  14.463
13519W        W75050   6.329  18.556  14.787
13520W        W75051  16.238  43.861   0.807
13521W        W75052   6.301  29.130   1.934
13522W        W75053  22.142   3.714   4.256
13523W        W75054  36.553   8.385   4.144
13524W        W75055  27.465  32.417  12.420
13525W        W75056  30.549  34.536   3.185
13526W        W75057  28.642  37.373  13.373
13527W        W75058  19.042   3.320  10.531
13528W        W75059  30.036  28.520   2.727
13529W        W75060  39.381   2.738  14.388
13530W        W75061  25.076  18.787  13.031
13531W        W75062  44.999  42.785   4.775
13532W        W75063  14.118  29.059   3.829
13533W        W75064  31.968   5.288  14.831
13534W        W75065  31.520  19.226   0.363
13535W        W75066   6.768  16.769  11.115
13536W        W75067  11.679  35.042   0.253
13537W        W75068   2.464  24.197  14.463
13538W        W75069   8.268  25.196  14.993
13539W        W75070  18.292  20.243  13.998
13540W        W75071  19.664  35.860  12.954
13541W        W75072  37.439  20.748   0.874
13542W        W75073   5.383  21.737  11.603
13543W        W75074   0.289  34.547   0.272
13544W        W75075   1.774  38.072   3.757
13545W        W75076   7.801  26.119  14.019
13546W        W75077   2.879  22.241  14.315
13547W        W75078  42.300  11.811   3.376
13548W        W75079  34.604   9.294  10.576
13549W        W75080  20.244   1.334  12.473
13550W        W75081  29.562  38.409   1.349
13551W        W75082  32.484  33.882   1.725
13552W        W75083  43.904  31.999  11.022
13553W        W75084  35.476  26.547   4.599
13554W        W75085  36.903  36.043  13.352
13555W        W75086  22.197  43.437  10.954
13556W        W75087  27.110   7.833  10.977
13557W        W75088  22.665  17.109   1.379
13558W        W75089  12.228   9.660  12.031
13559W        W75090  12.810   6.277   1.328
13560W        W75091   1.296   1.406   2.769
13561W        W75092  23.143  37.844   1.761
13562W        W75093  44.502  30.033  14.397
13563W        W75094  40.371   1.248   0.338
13564W        W75095   7.824  33.940  14.027
13565W        W75096   7.337  17.571   1.319
13566W        W75097  43.287  21.686   2.187
13567W        W75098  18.158  33.913  14.962
13568W        W75099  38.853  12.255  10.926
13569W        W75100  40.895  21.167   4.200
13570W        W75101  35.887   2.911  13.395
13571W        W75102   0.283  18.177  12.368
13572W        W75103  29.927   1.401   3.642
13573W        W75104  13.211  12.800  13.361
13574W        W75105  39.510   6.774  14.011
13575W        W75106  30.124  39.921  13.826
13576W        W75107  22.205  44.301   0.258
13577W        W75108  40.392  17.240  12.409
13578W        W75109  12.813  34.534   4.239
13579W        W75110  15.184  15.252  12.895
13580W        W75111  28.111  11.261  11.984
13581W        W75112  16.227  42.455   1.267
13582W        W75113  10.166   2.273   0.458
13583W        W75114  26.174  18.134  10.620
13584W        W75115  38.050  29.460  13.986
13585W        W75116  32.619   8.809   3.750
13586W        W75117  24.539  15.286  12.044
13587W        W75118  41.951   4.429  10.545
13588W        W75119  11.641  24.619   1.329
13589W        W75120  29.011  20.555   3.861
13590W        W75121  37.392  36.443   0.362
13591W        W75122  21.118  33.384   1.735
13592W        W75123  11.712  15.800   3.233
13593W        W75124  23.241  17.591  11.079
13594W        W75125  36.941  30.618  10.541
13595W        W75126  32.493   9.770   4.715
13596W        W75127  39.975  37.889  13.383
13597W        W75128  29.613  28.477  10.479
13598W        W75129  16.784  35.941   4.739
13599W        W75130  13.599  22.066   0.754
13600W        W75131  18.108   6.923   2.800
13601W        W75132  20.549  34.479  11.025
13602W        W75133  16.773   1.897  12.405
13603W        W75134  16.757  26.015  12.557
13604W        W75135  30.468   7.896   2.813
13605W        W75136  35.433  15.623  13.058
13606W        W75137  36.902  22.697  13.023
13607W        W75138  44.943  25.131  12.577
13608W        W75139  17.126  27.157  14.921
13609W        W75140   4.930   0.768  13.501
13610W        W75141  20.598  38.872   0.333
13611W        W75142  11.641  20.177   3.234
13612W        W75143  36.917  15.755   3.634
13613W        W75144  33.386  12.333   3.819
13614W        W75145  33.098  14.772   2.358
13615W        W75146  24.179   5.262   3.165
13616W        W75147  26.049  21.676   2.752
13617W        W75148  44.451  42.411  10.138
13618W        W75149   1.392  29.122   1.922
13619W        W75150  23.635  14.170  11.067
13620W        W75151  17.798  15.624  10.419
13621W        W75152  11.342  33.934   1.353
13622W        W75153  33.443  25.657   0.864
13623W        W75154  37.949  31.492   0.961
13624W        W75155   8.272  32.131   4.126
13625W        W75156  29.000  34.887  10.525
13626W        W75157  13.241   5.309  12.526
13627W        W75158  23.108   3.902  13.842
13628W        W75159  31.529  34.413  13.021
13629W        W75160  44.985  42.508   2.727
13630W        W75161  33.573   9.845   2.220
13631W        W75162  28.095  43.005  10.088
13632W        W75163  33.591  14.299  12.920
13633W        W75164  12.332  32.907   0.417
13634W        W75165  41.997   7.687   3.290
13635W        W75166  34.537  20.560  11.598
13636W        W75167   0.329  21.182  12.854
13637W        W75168   4.281   3.318  12.908
13638W        W75169  44.394   6.315   3.239
13639W        W75170  17.183  36.026  10.450
13640W        W75171   4.400   8.197   1.282
13641W        W75172  10.217  12.674  13.962
13642W        W75173  42.800  30.143   4.150
13643W        W75174  25.658  44.927  13.848
13644W        W75175  25.193  39.388  11.033
13645W        W75176  24.590  43.851  13.023
13646W        W75177   0.343  17.733   4.733
13647W        W75178   4.930   5.726   1.817
13648W        W75179  38.442  27.558   1.235
13649W        W75180  10.646  29.949  14.922
13650W        W75181  14.123  33.975   2.779
13651W        W75182  38.488  36.364   4.163
13652W        W75183   3.409   2.736  12.022
13653W        W75184  16.709  23.194   0.390
13654W        W75185  34.449  19.107   2.360
13655W        W75186   5.345  19.757  10.953
13656W        W75187  39.988   7.247  11.470
13657W        W75188  43.011  35.088  14.324
13658W        W75189  13.267  35.598   0.468
13659W        W75190  12.613   2.390   1.702
13660W        W75191  23.220   2.332  13.327
13661W        W75192  23.186  15.286  12.567
13662W        W75193  22.020  10.832  14.291
13663W        W75194  28.163   0.397   0.903
13664W        W75195  17.241  31.914  12.987
13665W        W75196  11.747  20.155  12.995
13666W        W75197  29.603  16.576  12.435
13667W        W75198  26.460  18.661  14.030
13668W        W75199  14.634  25.154   2.296
13669W        W75200   8.812  19.736   0.299
13670W        W75201  15.631  13.685  14.403
13671W        W75202  14.127  29.967  12.572
13672W        W75203  38.819  42.831  12.907
13673W        W75204  22.597  25.164   4.744
13674W        W75205   6.801  20.190   0.906
13675W        W75206  39.520  43.989  13.057
13676W        W75207  32.987  30.922   1.359
13677W        W75208  16.257  19.124   4.813
13678W        W75209  15.604  16.601   1.802
13679W        W75210  11.782  16.175  10.102
13680W        W75211  22.643  19.766  12.404
13681W        W75212  13.785  39.817   3.648
13682W        W75213  40.371   8.227   9.944
13683W        W75214  29.114  43.456  11.926
13684W        W75215  14.212  11.192   2.714
13685W        W75216  28.500  38.959  12.003
13686W        W75217  26.679  26.609   2.739
13687W        W75218  39.478  16.080   3.241
13688W        W75219  19.679   3.447   2.849
13689W        W75220   4.445  39.969  12.913
13690W        W75221  27.941  38.571   1.763
13691W        W75222  18.088  18.180   0.305
13692W        W75223   5.711  15.290  12.068
13693W        W75224   9.199  26.117  13.902
13694W        W75225  41.413  40.548  13.460
13695W        W75226  33.077   4.722   0.448
13696W        W75227  14.661   3.300   1.758
13697W        W75228  29.155  10.789   4.237
13698W        W75229  13.781  11.791  14.774
13699W        W75230  42.369   4.849   1.816
13700W        W75231  42.839   6.399  14.372
13701W        W75232   8.868  13.602  11.089
13702W        W75233  11.721   5.808   1.760
13703W        W75234  44.282  34.425  12.088
13704W        W75235  37.374  19.276   3.630
13705W        W75236  38.822  34.039   2.747
13706W        W75237   0.389   8.696   3.800
13707W        W75238   5.296  18.244   2.339
13708W        W75239  40.444   0.391   0.348
13709W        W75240  42.286   7.255   2.197
13710W        W75241  15.321  22.657   0.329
13711W        W75242  33.987   8.893  11.445
13712W        W75243  30.073  26.483   4.123
13713W        W75244  15.142  37.551   2.360
13714W        W75245  26.008  35.494  14.414
13715W        W75246  43.395  19.137   3.363
13716W        W75247  28.020  30.537  14.395
13717W        W75248  44.875  12.628   2.350
13718W        W75249  31.031  17.763  13.062
13719W        W75250  25.155  33.955  14.278
13720W        W75251  35.436  43.947   2.382
13721W        W75252  10.684  31.139  14.929
13722W        W75253  32.580   2.441  11.111
13723W        W75254  22.052  40.005   0.815
13724W        W75255  13.111  17.556  11.118
13725W        W75256   9.247   4.935   3.863
13726W        W75257  12.630   2.868  13.533
13727W        W75258   9.356  41.815   1.710
13728W        W75259  23.017  19.638  12.397
13729W        W75260  29.092  10.635   0.825
13730W        W75261  39.415  13.305   2.272
13731W        W75262  13.787  18.193   3.257
13732W        W75263  37.865  30.971   1.816
13733W        W75264   9.829  43.005   5.083
13734W        W75265  21.522  10.341   1.841
13735W        W75266   4.356  23.572  11.920
13736W        W75267  20.535  30.650   1.890
13737W        W75268   7.898  41.937  12.985
13738W        W75269  36.555  13.706  14.502
13739W        W75270  38.062  17.779   4.637
13740W        W75271  36.402  30.982   0.756
13741W        W75272  43.509   2.343  11.407
13742W        W75273  17.215   6.764  14.304
13743W        W75274   3.949  28.533  11.566
13744W        W75275  39.351  25.529   4.171
13745W        W75276  32.981  36.531   2.201
13746W        W75277   0.414  18.166  14.867
13747W        W75278  30.560  27.579   3.199
13748W        W75279   9.742   5.741   2.761
13749W        W75280  42.331  33.033   2.740
13750W        W75281  40.386  14.733  11.114
13751W        W75282  29.553  28.133  12.942
13752W        W75283  32.138  33.418  10.993
13753W        W75284  36.363  36.450   3.733
13754W        W75285  44.789  33.572  12.552
13755W        W75286  29.480  31.909  10.968
13756W        W75287  15.088  35.553   0.786
13757W        W75288  32.494  18.150   9.493
13758W        W75289  12.355  14.816   1.883
13759W        W75290  23.169  40.391  10.515
13760W        W75291  38.991  36.915   3.305
13761W        W75292  12.693  23.001  14.938
13762W        W75293  27.644  35.854  12.488
13763W        W75294   8.680   8.656   3.367
13764W        W75295   9.724   5.848  14.422
13765W        W75296  16.214  32.903   3.167
13766W        W75297   4.772  28.017  14.479
13767W        W75298  18.073  22.126   5.779
13768W        W75299   1.849  26.097  14.469
13769W        W75300  14.757  22.523   1.773
13770W        W75301  44.295   6.855   9.955
13771W        W75302  25.705  18.632   1.867
13772W        W75303   2.915  22.642  13.976
13773W        W75304  26.669   2.463   4.339
13774W        W75305  18.274   0.318   3.804
13775W        W75306   9.261  29.467  13.796
13776W        W75307   7.184  35.980   2.854
13777W        W75308  18.760  39.942   3.680
13778W        W75309  11.865   1.814   2.888
13779W        W75310  34.105  38.463   5.682
13780W        W75311  23.005  22.063  11.463
13781W        W75312  27.948   2.343  12.033
13782W        W75313  11.815  14.709  14.864
13783W        W75314   1.859  32.627  13.526
13784W        W75315  38.830  15.756  13.520
13785W        W75316  30.525  15.110   4.743
13786W        W75317  41.401  18.599  12.050
13787W        W75318  22.042  18.250   2.746
13788W        W75319  29.507   0.346  12.406
13789W        W75320  18.731  36.063  11.009
13790W        W75321  26.457  31.904   4.163
13791W        W75322  38.967  39.052  11.991
13792W        W75323   3.450  40.305  10.929
13793W        W75324  16.654  44.311   3.369
13794W        W75325  39.982  34.958  12.578
13795W        W75326  42.477  43.419   1.830
13796W        W75327   1.763  31.984  11.883
13797W        W75328  27.490  32.087   1.812
13798W        W75329  31.469  22.708   1.382
13799W        W75330   5.433  31.505   0.410
13800W        W75331  40.812  31.015   2.728
13801W        W75332   7.697  23.144  14.969
13802W        W75333   3.787   1.424   2.182
13803W        W75334  29.441  38.038   0.442
13804W        W75335   5.432  15.604   3.371
13805W        W75336  40.954  38.892  12.411
13806W        W75337  12.292   4.287   3.375
13807W        W75338   1.406  42.297  14.320
13808W        W75339  40.379  11.349   2.183
13809W        W75340  10.698  16.155  14.787
13810W        W75341  22.118  44.847   4.193
13811W        W75342  30.579   9.367  11.588
13812W        W75343   6.363  37.521  10.970
13813W        W75344  40.054  21.121  13.791
13814W        W75345  24.218   6.772  11.398
13815W        W75346   0.324  18.216   0.824
13816W        W75347  27.062  33.967  10.480
13817W        W75348  43.466  30.477  14.023
13818W        W75349  42.359  30.481  14.954
13819W        W75350   9.859  40.494   1.801
13820W        W75351  39.974  32.105   9.985
13821W        W75352  15.732  17.565  12.999
13822W        W75353  33.895  23.120  14.466
13823W        W75354  13.274  36.484   3.723
13824W        W75355  24.155  26.598  13.907
13825W        W75356  27.971  20.693  11.443
13826W        W75357  34.964  13.139   1.694
13827W        W75358  18.647  19.154   4.774
13828W        W75359  23.510  28.540  12.458
13829W        W75360  29.993  25.480   0.867
13830W        W75361   9.196   9.322  14.816
13831W        W75362   3.446  17.801  10.495
13832W        W75363  31.924  44.990  13.429
13833W        W75364  36.570  23.112  11.959
13834W        W75365  11.807  11.236   1.355
13835W        W75366   0.304  43.855   4.210
13836W        W75367   5.337  14.813  13.422
13837W        W75368  43.278  14.834   2.782
13838W        W75369  37.842  26.581  13.369
13839W        W75370   8.842   8.188  14.768
13840W        W75371  40.971   4.733   3.297
13841W        W75372  42.943  14.651   0.284
13842W        W75373  44.471  28.142   3.294
13843W        W75374  29.073  22.192   1.237
13844W        W75375  34.095  22.687   0.745
13845W        W75376  16.268  38.922  11.870
13846W        W75377   6.191  18.089   3.285
13847W        W75378   8.721   9.667  12.941
13848W        W75379  38.509  24.723  12.456
13849W        W75380  27.629  37.380   5.095
13850W        W75381  21.567  14.811   4.316
13851W        W75382  39.972  35.932  10.960
13852W        W75383   4.726  35.955   3.293
13853W        W75384  44.923  30.137   4.280
13854W        W75385  30.037  17.248  10.428
13855W        W75386  42.842  28.943  10.459
13856W        W75387  27.450  44.790  14.395
13857W        W75388  22.996   5.816  13.845
13858W        W75389   8.687  31.007   0.834
13859W        W75390  18.095  28.982   2.874
13860W        W75391  22.566  20.099   0.848
13861W        W75392  15.721  40.464   1.288
13862W        W75393  14.819  15.717  13.936
13863W        W75394  16.782  35.935   1.823
13864W        W75395  41.997  21.120  14.393
13865W        W75396  15.691   8.667   3.799
13866W        W75397  13.348  23.540   4.224
13867W        W75398  26.185   7.387   1.730
13868W        W75399  37.033  41.352  13.316
13869W        W75400  14.797   6.852   3.322
13870W        W75401  21.667  33.583   4.323
13871W        W75402   1.241   9.205  11.859
13872W        W75403  33.117  13.798   2.343
13873W        W75404  15.662  44.418  12.018
13874W        W75405  23.690   2.398  14.464
13875W        W75406  18.066   0.954   1.789
13876W        W75407  40.549  44.437   2.763
13877W        W75408  36.891  15.257  10.141
13878W        W75409  30.595  15.245  13.535
13879W        W75410  31.099   0.797  10.459
13880W        W75411   2.891   0.386   2.763
13881W        W75412  16.810   8.779   4.195
13882W        W75413  38.422  32.907  14.406
13883W        W75414   8.297  42.936   2.311
13884W        W75415  36.557   2.420   1.822
13885W        W75416  10.804  36.439   2.247
13886W        W75417   5.418  44.327  10.606
13887W        W75418  41.996  31.461   4.290
13888W        W75419  27.601  26.551  11.919
13889W        W75420  20.568  39.449  14.501
13890W        W75421  33.034  28.571   3.849
13891W        W75422  43.013   9.222   5.252
13892W        W75423   1.877  38.355   3.287
13893W        W75424  30.527  23.718  10.909
13894W        W75425  22.560  17.599  10.543
13895W        W75426  28.537   2.822   3.770
13896W        W75427  21.078  21.225   0.338
13897W        W75428  16.648  44.871   4.637
13898W        W75429  38.925  16.647   3.358
13899W        W75430  13.796  19.719  13.952
13900W        W75431  39.872  44.439  14.409
13901W        W75432  14.201  44.944  10.525
13902W        W75433  11.282   5.898  13.934
13903W        W75434  20.078  37.943  12.028
13904W        W75435  21.019  14.795  13.377
13905W        W75436  20.686   7.887   4.303
13906W        W75437  29.013   2.811  14.412
13907W        W75438  26.663  31.509   4.662
13908W        W75439  38.486  34.067  11.870
13909W        W75440  41.996  41.421   0.324
13910W        W75441  35.506   6.685  11.958
13911W        W75442  12.233   2.451  14.867
13912W        W75443   7.347   8.201   0.283
13913W        W75444  32.030  27.477  10.574
13914W        W75445  23.151  12.664  11.942
13915W        W75446   7.796  12.657  14.857
13916W        W75447  16.612  26.627  12.044
13917W        W75448  37.347  28.087   0.243
13918W        W75449  15.191   7.696   0.478
13919W        W75450  22.533  37.952   1.221
13920W        W75451  21.106  35.400  12.088
13921W        W75452  44.958  43.968  11.047
13922W        W75453   7.249  25.681  12.458
13923W        W75454   2.234  24.046  12.473
13924W        W75455  42.315  10.799   4.748
13925W        W75456  17.710  27.021  11.908
13926W        W75457   1.394  20.749  14.853
13927W        W75458  43.347  22.580   4.702
13928W        W75459   7.672  37.499   3.312
13929W        W75460  18.705  39.391  10.973
13930W        W75461  13.313  43.965   4.155
13931W        W75462  16.789  18.099   0.914
13932W        W75463  18.659  40.303  14.509
13933W        W75464  23.709  40.955   0.832
13934W        W75465  21.093  25.537  11.452
13935W        W75466   5.901  31.075   0.806
13936W        W75467  34.430  27.070  11.424
13937W        W75468  44.838  26.463  12.531
13938W        W75469  27.061  25.669  13.522
13939W        W75470  21.218  44.986  13.362
13940W        W75471  20.542   3.788   1.243
13941W        W75472  25.149  11.269  11.378
13942W        W75473  30.122  23.641   2.680
13943W        W75474  13.336  14.686   3.819
13944W        W75475  34.917  39.542   4.274
13945W        W75476   1.243  24.110   2.714
13946W        W75477  16.805   5.922   0.314
13947W        W75478   1.811  35.010   2.732
13948W        W75479  12.326  32.089   0.328
13949W        W75480  22.160  43.460  13.381
13950W        W75481  14.189  12.324   4.143
13951W        W75482  41.444   2.259   0.308
13952W        W75483  20.041  43.022  11.426
13953W        W75484  36.460  32.011   4.671
13954W        W75485  42.468  23.651  13.950
13955W        W75486  28.620   5.783  13.439
13956W        W75487  10.258  18.713   4.654
13957W        W75488   6.256   6.865  14.480
13958W        W75489   8.856   3.286  14.880
13959W        W75490   5.901  40.393  13.984
13960W        W75491  33.110  24.153   1.765
13961W        W75492   2.302  16.125  11.518
13962W        W75493  37.980  41.393  10.449
13963W        W75494   6.712  11.822  13.938
13964W        W75495  26.024  15.136   3.296
13965W        W75496  29.013  13.667  13.922
13966W        W75497  23.705  15.783   1.363
13967W        W75498  24.043   2.827  11.095
13968W        W75499  31.614   3.805   2.339
13969W        W75500  29.982  20.164   0.375
13970W        W75501  12.741  15.268  11.514
13971W        W75502  20.096  15.669   2.752
13972W        W75503  39.040  31.020  13.051
13973W        W75504  36.014  38.029  11.923
13974W        W75505  32.545  18.713  14.958
13975W        W75506  44.421  25.080   2.818
13976W        W75507  34.452  33.492   2.404
13977W        W75508  29.648  14.120  12.874
13978W        W75509   6.762   5.271   2.243
13979W        W75510  12.128  10.647   2.366
13980W        W75511  39.959  38.532  11.858
13981W        W75512   6.348  25.203  13.995
13982W        W75513  26.657  43.900   3.659
13983W        W75514   7.278  42.847   9.922
13984W        W75515   9.654  12.308  11.015
13985W        W75516  18.696  41.903   4.157
13986W        W75517   9.866   3.238  14.865
13987W        W75518  10.748  29.614  12.349
13988W        W75519   4.261  34.595  10.492
13989W        W75520  38.429  36.855   9.475
13990W        W75521  25.607  37.911   2.183
13991W        W75522   6.712   4.216  10.606
13992W        W75523   0.864  33.061   0.812
13993W        W75524  28.134   8.286   0.915
13994W        W75525  12.362  18.147   2.249
13995W        W75526  34.503  31.117  11.898
13996W        W75527  18.549  34.436  13.464
13997W        W75528  29.531  17.654   2.221
13998W        W75529   2.267  27.033  12.553
13999W        W75530  28.483  16.145  12.576
14000W        W75531  44.950  35.038  11.476
14001W        W75532  20.161  10.756  14.850
14002W        W75533  25.670  37.345  12.024
14003W        W75534  12.683  43.503  10.924
14004W        W75535  29.971  36.530   3.671
14005W        W75536  10.712  28.102   3.683
14006W        W75537  31.025   6.399   3.676
14007W        W75538  30.559   9.889  12.575
14008W        W75539  39.850   6.394   2.287
14009W        W75540  26.674  21.215   3.222
14010W        W75541  30.921  41.038   0.256
14011W        W75542  12.250  26.050  10.412
14012W        W75543  11.245  15.659  12.570
14013W        W75544  34.974  17.201  12.059
14014W        W75545   1.351  25.683  14.773
14015W        W75546   9.347  12.117  11.020
14016W        W75547  21.175  26.588   1.829
14017W        W75548  31.896   0.390   2.393
14018W        W75549  42.779   3.297   2.769
14019W        W75550  42.859  16.169  11.599
14020W        W75551  17.184   9.656   4.626
14021W        W75552  12.623  40.016  14.300
14022W        W75553  44.900  39.454  13.377
14023W        W75554   2.380  19.625   1.702
14024W        W75555  26.172  16.608  11.582
14025W        W75556  44.301   0.378   4.820
14026W        W75557  42.282   0.968   2.247
14027W        W75558  11.802   2.304   9.628
14028W        W75559  23.492  37.966   2.756
14029W        W75560  13.169  22.581  12.042
14030W        W75561   9.744  10.150  10.471
14031W        W75562  16.749   1.450  14.855
14032W        W75563  23.651  16.179   4.273
14033W        W75564   6.693  10.806   2.790
14034W        W75565  38.848   7.782  14.994
14035W        W75566  21.109  40.956   3.687
14036W        W75567   9.850  43.427   0.445
14037W        W75568  25.554   0.315   0.458
14038W        W75569  39.419  27.126  11.371
14039W        W75570  24.132   9.791   4.725
14040W        W75571  34.424  14.649   1.700
14041W        W75572  22.130   5.432  10.932
14042W        W75573  29.480  30.162   0.361
14043W        W75574  39.893  20.587  12.001
14044W        W75575  21.752  44.809  12.949
14045W        W75576  12.351   9.679   1.298
14046W        W75577   2.860  22.208   5.262
14047W        W75578  43.435  15.118   4.307
14048W        W75579   4.759  14.632   3.835
14049W        W75580  23.558  40.967  10.581
14050W        W75581  40.920   2.917  11.062
14051W        W75582   7.742  37.343   5.152
14052W        W75583  42.307  27.954  12.977
14053W        W75584  35.054  35.443   2.786
14054W        W75585  25.648   8.668  12.952
14055W        W75586  29.558  21.703  10.427
14056W        W75587  40.410   0.355   3.704
14057W        W75588  27.195  18.768  13.008
14058W        W75589  14.652  32.067  11.874
14059W        W75590  35.512  32.057   2.322
14060W        W75591  42.970  33.597  12.953
14061W        W75592  24.123   0.267   1.928
14062W        W75593   1.877  11.190  14.802
14063W        W75594   9.375   5.431   1.418
14064W        W75595  33.568  12.775   4.249
14065W        W75596  23.638  15.577  13.979
14066W        W75597  17.136  43.799   0.260
14067W        W75598   4.337  19.066   4.718
14068W        W75599  22.666  41.883  10.956
14069W        W75600  33.108  25.504   1.844
14070W        W75601  31.130   1.309  14.919
14071W        W75602   9.263  31.405   2.688
14072W        W75603   6.268  40.392  10.594
14073W        W75604  16.308  40.379  13.946
14074W        W75605  21.211   4.855   4.141
14075W        W75606  39.502  30.132   1.922
14076W        W75607   8.664  11.235  13.829
14077W        W75608   6.394  35.061  10.503
14078W        W75609   2.868  21.074   4.171
14079W        W75610  33.028  33.985  13.965
14080W        W75611  14.143  41.930   1.403
14081W        W75612  28.011  17.609  13.377
14082W        W75613  25.699   7.741   3.763
14083W        W75614  28.450  39.402  13.468
14084W        W75615  28.979  42.940  11.034
14085W        W75616  20.068  38.378   2.703
14086W        W75617  17.699  34.436  10.630
14087W        W75618  38.465   0.911   2.270
14088W        W75619  16.590  10.751   2.810
14089W        W75620  19.163  11.266  12.359
14090W        W75621  38.949  41.385   1.768
14091W        W75622  35.528   7.216  11.412
14092W        W75623  42.367  39.851  14.867
14093W        W75624  23.609  33.896  13.062
14094W        W75625  24.501   3.904  14.453
14095W        W75626  32.399  25.035  12.937
14096W        W75627  29.163   7.816  12.493
14097W        W75628   1.807   8.676  11.872
14098W        W75629   2.740  12.204   2.295
14099W        W75630  25.691   6.317   2.305
14100W        W75631  40.799  37.557  13.497
14101W        W75632  35.063  33.462  10.975
14102W        W75633   8.675  29.506   5.181
14103W        W75634  24.207  17.225   0.320
14104W        W75635  13.684   4.865   3.776
14105W        W75636  41.911  21.251  10.119
14106W        W75637   1.886  38.466  14.809
14107W        W75638  29.167  44.344  14.393
14108W        W75639  14.673  36.363   4.673
14109W        W75640  37.064   8.664  12.469
14110W        W75641  32.022  34.408   0.938
14111W        W75642  18.637  18.172   0.767
14112W        W75643  34.056   4.732  12.502
14113W        W75644  30.986  12.654  11.060
14114W        W75645  34.524  22.194  14.919
14115W        W75646  22.644  25.540   2.702
14116W        W75647  32.133  21.679   3.787
14117W        W75648  14.249  41.958   1.879
14118W        W75649  42.343  30.072  14.473
14119W        W75650   9.691  27.036  13.468
14120W        W75651  42.477   5.300  12.575
14121W        W75652  32.466   9.819   2.896
14122W        W75653  15.229  39.461  10.932
14123W        W75654   3.736  32.581  14.864
14124W        W75655  36.059  14.700   4.807
14125W        W75656  40.937  18.051   1.703
14126W        W75657  28.165  17.061   1.876
14127W        W75658  16.737   0.943  14.502
14128W        W75659   3.257  18.100  14.416
14129W        W75660  29.626  10.719   5.681
14130W        W75661   8.791   2.396  13.394
14131W        W75662  37.424   6.896   1.248
14132W        W75663  40.443  21.620   4.116
14133W        W75664  43.901  17.685   2.417
14134W        W75665  32.056  21.192   1.762
14135W        W75666  26.471  37.575  13.016
14136W        W75667  10.228  25.516   3.343
14137W        W75668  40.006  34.507  10.963
14138W        W75669  20.112  30.614   5.136
14139W        W75670  28.481  33.461  11.402
14140W        W75671  27.098   6.827  13.894
14141W        W75672   8.186  30.152   3.153
14142W        W75673  14.321  24.708  11.085
14143W        W75674  20.703   4.913  11.977
14144W        W75675  30.120  29.123  14.288
14145W        W75676   0.264  22.226  10.438
14146W        W75677  34.420  25.548   1.232
14147W        W75678  38.058  39.974   0.814
14148W        W75679  14.654  19.153  11.582
14149W        W75680   5.308  23.708   4.702
14150W        W75681   8.205  12.224   3.162
14151W        W75682  41.508  44.466  11.567
14152W        W75683  21.025   6.691   3.844
14153W        W75684  17.699  10.158   4.640
14154W        W75685  21.708  31.916  12.075
14155W        W75686   7.317  17.608   3.672
14156W        W75687  19.593  26.605   3.713
14157W        W75688  39.974   2.853  12.343
14158W        W75689  42.396  36.565   0.766
14159W        W75690  11.854   5.691   3.249
14160W        W75691  36.983  17.286   4.649
14161W        W75692  10.249  43.345   1.451
14162W        W75693  28.519  17.133   4.289
14163W        W75694   2.753  36.419  12.537
14164W        W75695  29.953   4.783   3.640
14165W        W75696   7.214  24.619   1.382
14166W        W75697  14.762  11.225  12.465
14167W        W75698  27.449  20.526   0.743
14168W        W75699   4.360  20.559  10.567
14169W        W75700  13.210  24.577   1.757
14170W        W75701  20.577  37.528  13.034
14171W        W75702  14.134  40.944  11.429
14172W        W75703  36.022  44.891   1.371
14173W        W75704  38.560  29.668   2.193
14174W        W75705  14.292  22.062   0.396
14175W        W75706  43.994  11.867   1.304
14176W        W75707  28.525  11.727   3.708
14177W        W75708  25.170  33.962  11.548
14178W        W75709  44.764  22.157  14.280
14179W        W75710  29.654  32.566   3.309
14180W        W75711   7.200   4.945  12.989
14181W        W75712  43.017  33.120   0.463
14182W        W75713   5.765  21.701   3.301
14183W        W75714  32.529  37.999  13.829
14184W        W75715  25.140   9.887  11.015
14185W        W75716  37.384   1.248   1.323
14186W        W75717  38.403  30.616   3.796
14187W        W75718   9.865  16.143  13.900
14188W        W75719  28.657  11.245  13.523
14189W        W75720  19.205  16.715   2.355
14190W        W75721  23.108  37.875   4.770
14191W        W75722  13.127  36.373  12.026
14192W        W75723  22.649  28.623   1.775
14193W        W75724  28.606  10.684  12.840
14194W        W75725  29.981   1.243  13.856
14195W        W75726  11.232  24.090  12.934
14196W        W75727  23.578  25.190  13.059
14197W        W75728  22.627   5.418   0.467
14198W        W75729   1.832   8.353  10.624
14199W        W75730   5.380  25.567  11.441
14200W        W75731  14.772  30.954  11.993
14201W        W75732  36.061  24.527   3.682
14202W        W75733  31.143  38.512   0.892
14203W        W75734  40.324  12.132  12.439
14204W        W75735  23.158  19.094   3.218
14205W        W75736  37.898  22.712  13.948
14206W        W75737  33.058  25.161  11.872
14207W        W75738  24.976  32.044   4.669
14208W        W75739   2.862  40.818  11.375
14209W        W75740   2.278  29.639  11.443
14210W        W75741  42.415  42.447   4.732
14211W        W75742  19.576  37.944   4.354
14212W        W75743  38.868  29.174  13.921
14213W        W75744  43.964  13.768   3.205
14214W        W75745  18.085  22.146   3.310
14215W        W75746   7.838  24.627  12.350
14216W        W75747  39.451  38.376  14.331
14217W        W75748   9.353  15.644   2.782
14218W        W75749  42.920  31.934   2.198
14219W        W75750   2.303   1.889   2.691
14220W        W75751   7.198  44.859  12.500
14221W        W75752   8.895  20.052   4.739
14222W        W75753  22.621  28.469   2.687
14223W        W75754  30.655  26.511   4.319
14224W        W75755  35.988   6.204  11.921
14225W        W75756  44.924  19.214  12.009
14226W        W75757   9.763   4.769  12.344
14227W        W75758   4.793  27.032   1.220
14228W        W75759  27.485  31.063  13.328
14229W        W75760   7.185  39.521  13.490
14230W        W75761  22.222   8.344   0.928
14231W        W75762   5.758   3.783  14.919
14232W        W75763  14.333  20.237  12.829
14233W        W75764  32.941  16.217   3.228
14234W        W75765  42.378  15.672   3.869
14235W        W75766  24.227  31.901  14.770
14236W        W75767  41.940  23.490   3.295
14237W        W75768  15.628   3.384  12.440
14238W        W75769  43.369  24.109   3.833
14239W        W75770  41.973  21.737   0.377
14240W        W75771  10.343  19.184   4.762
14241W        W75772  32.994  29.932  14.883
14242W        W75773  36.848  29.025  14.813
14243W        W75774  19.543  24.573   1.226
14244W        W75775  19.233   3.945   3.805
14245W        W75776   9.392  17.731   3.195
14246W        W75777  39.877   3.355   5.251
14247W        W75778  44.486  16.233  11.067
14248W        W75779  31.428  27.143   4.343
14249W        W75780   1.463  28.037  11.053
14250W        W75781  36.975  37.051   2.856
14251W        W75782  42.810  24.007   0.915
14252W        W75783   6.780  10.258   0.726
14253W        W75784   1.320  12.664   3.783
14254W        W75785  21.674  17.712   0.769
14255W        W75786  24.070  20.757  13.321
14256W        W75787  43.016   7.284   4.700
14257W        W75788   5.710   8.879  10.431
14258W        W75789  41.845  42.321  13.471
14259W        W75790  36.568  30.492   3.225
14260W        W75791   3.426  26.011  11.542
14261W        W75792   8.673  35.492   3.755
14262W        W75793  39.893  37.422   1.259
14263W        W75794  11.317  32.954  14.935
14264W        W75795  11.170  28.526   2.798
14265W        W75796  12.133  12.616   1.760
14266W        W75797  19.600  16.239  10.587
14267W        W75798  13.229  30.987   5.102
14268W        W75799  23.551  30.919  13.895
14269W        W75800  34.064  34.102  10.451
14270W        W75801  42.783  42.502  11.400
14271W        W75802  33.083  19.258   4.124
14272W        W75803   4.263  18.184   0.359
14273W        W75804  32.424  24.152   3.250
14274W        W75805  35.880  27.097  11.436
14275W        W75806  27.958   3.364   4.626
14276W        W75807  29.989   1.890   0.392
14277W        W75808  33.455  26.671  14.963
14278W        W75809  13.607  28.603   5.279
14279W        W75810  19.720  31.500  13.803
14280W        W75811  23.585  23.082  14.437
14281W        W75812  35.601  37.873  11.529
14282W        W75813   0.375   1.744  14.925
14283W        W75814  18.652  15.599  10.602
14284W        W75815  30.099  18.754   0.410
14285W        W75816  30.092  19.599   0.458
14286W        W75817  39.482  16.230  14.300
14287W        W75818  26.626  10.384  13.862
14288W        W75819  16.155   4.298   1.901
14289W        W75820  27.032  37.962   2.321
14290W        W75821  35.397  43.369   3.259
14291W        W75822   7.686  12.835  13.312
14292W        W75823  25.546   2.398   1.890
14293W        W75824  43.976  32.073  10.542
14294W        W75825  23.030  34.510  11.918
14295W        W75826  23.228  36.490   4.273
14296W        W75827  29.953  33.563  10.485
14297W        W75828   8.328  37.029   2.345
14298W        W75829  37.870  27.515  14.457
14299W        W75830   9.788   7.336   3.239
14300W        W75831  19.166  14.801   0.433
14301W        W75832  23.123  40.974  11.861
14302W        W75833  18.680  20.246  11.588
14303W        W75834  30.158   9.346  13.884
14304W        W75835  43.944   9.375  11.029
14305W        W75836  14.171  11.832  12.365
14306W        W75837  25.978   1.306   4.726
14307W        W75838  11.159  32.583   2.416
14308W        W75839  30.159  30.111  14.796
14309W        W75840  14.298  41.796  12.829
14310W        W75841  20.617  18.636  10.434
14311W        W75842  28.665  36.078   3.153
14312W        W75843   0.314  34.046  11.373
14313W        W75844  14.817  19.145   3.151
14314W        W75845  27.005   6.271  12.376
14315W        W75846  29.558  36.909   4.618
14316W        W75847  19.731  31.414   3.810
14317W        W75848   0.303  16.090   3.802
14318W        W75849  15.178   8.233   2.383
14319W        W75850   8.675   4.768   3.822
14320W        W75851  39.542   2.226   1.884
14321W        W75852  15.711  12.626   3.332
14322W        W75853  12.699  44.923   3.656
14323W        W75854  11.679  21.652  12.554
14324W        W75855  16.123   0.980  12.448
14325W        W75856  11.140  26.061   4.598
14326W        W75857   4.734  41.029  10.975
14327W        W75858  38.958  27.554  11.921
14328W        W75859  34.582  25.683  10.416
14329W        W75860   3.233  27.983  12.867
14330W        W75861   7.767  15.810  11.017
14331W        W75862  35.483  39.917  11.895
14332W        W75863  35.498  44.274  13.460
14333W        W75864  10.805  34.097  11.059
14334W        W75865  29.133  39.830   3.287
14335W        W75866  24.037  16.226  11.504
14336W        W75867  36.508   9.653  13.914
14337W        W75868  30.152  26.040   3.185
14338W        W75869  31.973  30.632  11.492
14339W        W75870  31.039   1.379   3.724
14340W        W75871   1.421  31.429   0.746
14341W        W75872   7.294  34.520   2.295
14342W        W75873  30.024  32.401  10.560
14343W        W75874  33.068  14.290  14.800
14344W        W75875   3.902  27.607   2.723
14345W        W75876  13.243  14.700   4.213
14346W        W75877   8.690  26.194   0.830
14347W        W75878   7.205  15.756  12.463
14348W        W75879  44.986   3.761   0.427
14349W        W75880   2.434   4.371   2.300
14350W        W75881  37.533   8.205   5.112
14351W        W75882   7.796  44.004  14.372
14352W        W75883  31.912  30.110  11.861
14353W        W75884   7.749  38.446  14.810
14354W        W75885  41.000  11.820  10.636
14355W        W75886  19.124   1.804   0.860
14356W        W75887  13.238  33.496  12.456
14357W        W75888  38.461  19.753   2.807
14358W        W75889   9.725   3.255  12.909
14359W        W75890  42.436  17.658   4.216
14360W        W75891  32.908   7.703  13.348
14361W        W75892  31.955  22.706   2.221
14362W        W75893  33.585  15.167  14.461
14363W        W75894  17.733   2.965   1.928
14364W        W75895  20.131  25.055   5.216
14365W        W75896   6.184  44.906   4.647
14366W        W75897  14.185  39.908  11.431
14367W        W75898   5.385  12.247  11.518
14368W        W75899  23.630  37.066  10.921
14369W        W75900  36.471  10.775   0.282
14370W        W75901  41.374   9.868  14.031
14371W        W75902  19.568  21.691  10.625
14372W        W75903  22.024  19.057  12.378
14373W        W75904  38.334  19.627  12.503
14374W        W75905   2.852   7.209   3.782
14375W        W75906   7.272  13.291   1.376
14376W        W75907  15.634  34.115   3.155
14377W        W75908  35.068  42.016   1.304
14378W        W75909  38.470  34.464  12.398
14379W        W75910   8.338  29.155  12.478
14380W        W75911   8.848  23.016  14.971
14381W        W75912   0.306  37.370   4.653
14382W        W75913  15.811  15.656   2.681
14383W        W75914   5.895  39.415  11.575
14384W        W75915   9.290  38.938   0.813
14385W        W75916   0.983  20.236   2.703
14386W        W75917  10.788  43.895   0.297
14387W        W75918  15.139   8.381   4.299
14388W        W75919   0.413  36.944  13.854
14389W        W75920  27.098  43.009   1.381
14390W        W75921  19.735  20.632  10.899
14391W        W75922  31.042  18.620  14.479
14392W        W75923  42.302  39.873   4.322
14393W        W75924  15.084   6.394   3.700
14394W        W75925  16.133  10.340  11.967
14395W        W75926  35.060  22.636  10.986
14396W        W75927  11.239  21.565  10.558
14397W        W75928  10.712  24.525   0.785
14398W        W75929  11.209  34.418   0.876
14399W        W75930  13.676  29.970  11.936
14400W        W75931  21.560  12.294  11.092
14401W        W75932  25.212  17.693  12.574
14402W        W75933  44.775  17.606  14.837
14403W        W75934  39.916   3.874   1.295
14404W        W75935  28.068  17.239   4.719
14405W        W75936  36.972  16.212   2.320
14406W        W75937  20.267  12.812   1.886
14407W        W75938  21.615  39.336   2.870
14408W        W75939  37.568   3.930   4.229
14409W        W75940  14.334  24.148  10.620
14410W        W75941  44.848  14.612   3.361
14411W        W75942  35.910   8.716  10.971
14412W        W75943  19.099  42.878  13.431
14413W        W75944  27.599  40.000   4.614
14414W        W75945  32.023   6.902   3.673
14415W        W75946  41.425  24.649  14.436
14416W        W75947  44.897  34.487  12.010
14417W        W75948  22.729  44.807   4.150
14418W        W75949  27.601  40.882  11.867
14419W        W75950  24.012  28.087   2.216
14420W        W75951  17.307   2.243   0.262
14421W        W75952  43.437   9.870   3.281
14422W        W75953   2.329  26.642   0.284
14423W        W75954  34.440  24.219   4.602
14424W        W75955  10.777   7.210   4.742
14425W        W75956  27.069  26.577   5.311
14426W        W75957  42.333  37.867  11.905
14427W        W75958  24.586  18.114   3.316
14428W        W75959  40.482  18.717  12.428
14429W        W75960  27.665  32.968   3.240
14430W        W75961  27.943  42.783   0.847
14431W        W75962   0.949  41.787  13.032
14432W        W75963  20.176   3.305   0.840
14433W        W75964   0.880  20.216   4.804
14434W        W75965  30.449  12.622   2.311
14435W        W75966   7.853  27.159   2.791
14436W        W75967   0.250  14.269   2.354
14437W        W75968  24.693  38.546  13.995
14438W        W75969  41.933   7.399  13.484
14439W        W75970  32.901  13.236   9.943
14440W        W75971   1.952  19.653  10.589
14441W        W75972  38.852   2.933  12.355
14442W        W75973  32.108  29.010   3.868
14443W        W75974  10.382   4.760   1.315
14444W        W75975   4.849  27.524  13.502
14445W        W75976  20.249   2.750   0.798
14446W        W75977  20.128  25.599  12.894
14447W        W75978  23.215  37.473   3.167
14448W        W75979  14.333  22.560  12.921
14449W        W75980  43.409  18.279   4.648
14450W        W75981  31.495  18.287  13.347
14451W        W75982  30.515  29.036   4.679
14452W        W75983  38.052  39.039  10.077
14453W        W75984  33.426  28.099  13.860
14454W        W75985  25.575  27.456  12.423
14455W        W75986  38.476  38.878  12.480
14456W        W75987   1.941  33.086   0.452
14457W        W75988   0.772  41.927  10.963
14458W        W75989  40.029   1.752   1.710
14459W        W75990  35.590  21.075   2.296
14460W        W75991  16.204  10.259  11.409
14461W        W75992  40.032   9.703   2.277
14462W        W75993  44.275  35.907   0.254
14463W        W75994  26.055  13.604   2.335
14464W        W75995  10.789  36.096   3.679
14465W        W75996   3.716  29.454   0.845
14466W        W75997  31.557  18.276  12.824
14467W        W75998  15.130  43.361   4.620
14468W        W75999  27.530  28.073  13.994
14469W        W76000   7.875  35.034   4.629
14470W        W76001  19.548  38.482   4.705
14471W        W76002  20.528  34.520  12.530
14472W        W76003   2.371  12.675  10.901
14473W        W76004  21.631  40.018   2.864
14474W        W76005   5.893  18.246  10.600
14475W        W76006  44.295  11.743  12.998
14476W        W76007  21.174  22.999  14.783
14477W        W76008  38.884  36.053  14.990
14478W        W76009  29.556   9.858   3.826
14479W        W76010  14.739  10.826  12.062
14480W        W76011   6.229  43.380   1.267
14481W        W76012  21.232  31.135   4.165
14482W        W76013  26.157  26.962   1.339
14483W        W76014  30.134  35.487   2.690
14484W        W76015  35.984  22.515   4.822
14485W        W76016   2.801  35.471  12.081
14486W        W76017  33.976  14.311   4.337
14487W        W76018  15.814  18.053   2.310
14488W        W76019  13.778  17.682  11.050
14489W        W76020  15.304  11.160  12.550
14490W        W76021  43.443  39.344  14.376
14491W        W76022   7.814  23.135  14.436
14492W        W76023  25.018  23.147  10.905
14493W        W76024  41.930  38.035   0.350
14494W        W76025  44.839  21.702  13.026
14495W        W76026  40.426  30.497   0.742
14496W        W76027  11.346  20.644  14.868
14497W        W76028  38.071   3.439   3.374
14498W        W76029  37.997  16.661  11.927
14499W        W76030  44.406  25.165  13.982
14500W        W76031   7.333   8.791  12.894
14501W        W76032  28.041  39.808   0.783
14502W        W76033  10.828   1.850  13.462
14503W        W76034  11.695  13.253  12.470
14504W        W76035  19.220  11.772   0.287
14505W        W76036  31.638  35.388  13.019
14506W        W76037   0.970  14.137  13.541
14507W        W76038  27.549  34.046   4.288
14508W        W76039  26.986  42.967  11.577
14509W        W76040  21.709  31.617  11.439
14510W        W76041  23.633  23.580  13.849
14511W        W76042  40.305  19.050  10.424
14512W        W76043  15.232   2.764  13.028
14513W        W76044   2.812  28.049  11.580
14514W        W76045  35.533  31.963   2.703
14515W        W76046  40.906  26.549   0.806
14516W        W76047  42.823  36.056  14.830
14517W        W76048  23.128   3.857   0.320
14518W        W76049  20.113  42.430   3.320
14519W        W76050   4.808   7.225   3.646
14520W        W76051  16.233  10.786  11.002
14521W        W76052  39.983  31.923  13.345
14522W        W76053   6.910   2.255  11.575
14523W        W76054  20.698  24.539  13.939
14524W        W76055  11.197  42.295  14.922
14525W        W76056  22.551  27.464  11.018
14526W        W76057  11.371   8.245  12.872
14527W        W76058  15.254  37.836   4.650
14528W        W76059   6.911   4.347   3.250
14529W        W76060   7.731  27.603   0.810
14530W        W76061  27.968  40.972   1.268
14531W        W76062   6.356   5.303   4.682
14532W        W76063  40.004  19.056   0.318
14533W        W76064  40.377  20.717  13.533
14534W        W76065  41.491  17.238   4.201
14535W        W76066   6.317  42.010  13.325
14536W        W76067  41.428  31.628   1.895
14537W        W76068  25.038  13.286  11.490
14538W        W76069  18.222  40.509  13.954
14539W        W76070  44.899  36.010  14.399
14540W        W76071  32.005  41.385   3.740
14541W        W76072  27.961  15.717   0.261
14542W        W76073  35.110  20.591   1.760
14543W        W76074  30.423  31.588   1.377
14544W        W76075  21.699   6.383   1.830
14545W        W76076  32.391  22.736  12.563
14546W        W76077  33.511  11.785   5.260
14547W        W76078  28.051   5.409   2.702
14548W        W76079  10.246  32.010   0.284
14549W        W76080  24.657   8.397   1.389
14550W        W76081   9.851   5.218  13.531
14551W        W76082  22.549  41.909  14.807
14552W        W76083  17.565  16.092   0.266
14553W        W76084  16.573   9.759  12.922
14554W        W76085  31.093  34.969   1.321
14555W        W76086   4.700   6.741  13.859
14556W        W76087  44.394  36.371  11.941
14557W        W76088  34.071  12.726  12.038
14558W        W76089  41.855  43.845   1.870
14559W        W76090   2.813   8.856   0.863
14560W        W76091   3.827  37.930   3.159
14561W        W76092  41.816  13.317   0.827
14562W        W76093   0.807   7.416   1.400
14563W        W76094  16.261  30.420   2.329
14564W        W76095  39.421  14.306   0.400
14565W        W76096  39.464   7.353   0.743
14566W        W76097  13.626  20.535  13.547
14567W        W76098   5.711  33.381  13.489
14568W        W76099   7.749   8.189  10.925
14569W        W76100  31.085   4.218   0.953
14570W        W76101  17.650  38.941  13.896
14571W        W76102  14.214  22.112   1.769
14572W        W76103  43.877  13.116   1.413
14573W        W76104  44.887  22.613   4.731
14574W        W76105  37.394   9.367  14.279
14575W        W76106  22.060  36.923  10.103
14576W        W76107  13.233  32.933   1.904
14577W        W76108  12.637  16.709   2.264
14578W        W76109  21.730   6.220  14.786
14579W        W76110   1.830  38.558   2.788
14580W        W76111   8.666  11.838   5.310
14581W        W76112  13.746  33.439   4.195
14582W        W76113  42.911   4.310  12.062
14583W        W76114  21.215  27.617   1.321
14584W        W76115  30.515  20.629   4.658
14585W        W76116  25.117  36.066   4.793
14586W        W76117   9.277  31.917  11.513
14587W        W76118  13.655  38.820  13.993
14588W        W76119  16.118  18.248   2.803
14589W        W76120  29.976  37.479   0.385
14590W        W76121  17.263  44.298  11.025
14591W        W76122   6.267   1.471   0.864
14592W        W76123   1.816  37.550   1.446
14593W        W76124  28.546  32.936  13.006
14594W        W76125  29.092   0.769   4.832
14595W        W76126   8.748  14.219   1.739
14596W        W76127  44.782  32.031   4.116
14597W        W76128  36.054   1.451   2.407
14598W        W76129   7.343  38.960   3.730
14599W        W76130  20.184  37.505   2.342
14600W        W76131   8.355  14.148  11.462
14601W        W76132  10.685  11.796   1.390
14602W        W76133  23.625  41.800  13.354
14603W        W76134  32.468  23.491   3.763
14604W        W76135  35.902   5.362   1.313
14605W        W76136  26.618  27.663  13.909
14606W        W76137  42.903  15.253   0.331
14607W        W76138   3.809  36.035   1.815
14608W        W76139  10.662  10.814   3.668
14609W        W76140  27.134  17.679   1.774
14610W        W76141  40.952  12.339  12.004
14611W        W76142  39.470  42.025  10.986
14612W        W76143   2.890  26.623  10.627
14613W        W76144  44.873  44.414   2.283
14614W        W76145  11.622  17.611   2.892
14615W        W76146  31.135   0.407   5.294
14616W        W76147  33.096  22.614   0.892
14617W        W76148  26.607  28.658  12.546
14618W        W76149  24.164  23.685  13.813
14619W        W76150  17.599   3.455  10.437
14620W        W76151  10.240  16.298   4.776
14621W        W76152  33.054  31.524   3.862
14622W        W76153   3.916   7.198  14.415
14623W        W76154  37.907  11.634  12.967
14624W        W76155  18.230  10.172  13.512
14625W        W76156  42.871  20.243   4.638
14626W        W76157  38.857   9.309  14.026
14627W        W76158  23.160  25.107  13.509
14628W        W76159  26.624  44.337   3.721
14629W        W76160  39.978  38.935  10.129
14630W        W76161  40.351  36.413  14.285
14631W        W76162  38.057  18.069   5.203
14632W        W76163  14.222   5.283  14.403
14633W        W76164   3.435  36.528  10.615
14634W        W76165  14.673  22.617  10.477
14635W        W76166  21.215  44.767   3.843
14636W        W76167  20.219  24.658  10.104
14637W        W76168   3.714  17.759   2.337
14638W        W76169  33.581  22.522   1.767
14639W        W76170  33.096  40.427  14.948
14640W        W76171  32.513   2.334   2.216
14641W        W76172  10.380  36.853   0.464
14642W        W76173  21.672  12.160   0.365
14643W        W76174  40.411   4.307   3.249
14644W        W76175  25.108   7.773   2.217
14645W        W76176   8.275  36.029   0.347
14646W        W76177  42.440  44.330  14.960
14647W        W76178  24.180  29.448   2.682
14648W        W76179  27.531  24.190   2.735
14649W        W76180  26.040  11.275   3.182
14650W        W76181  32.553  33.106   3.263
14651W        W76182   1.953  33.878  13.539
14652W        W76183  18.592  42.350   2.872
14653W        W76184  17.082  13.207  13.880
14654W        W76185  44.781  44.987   0.345
14655W        W76186  40.020  39.841   0.777
14656W        W76187   9.255  39.496  10.520
14657W        W76188  38.010  38.484   5.201
14658W        W76189   6.890   4.808  11.090
14659W        W76190  15.138   1.886  12.505
14660W        W76191  21.223  34.049   4.332
14661W        W76192  32.522   6.894  13.905
14662W        W76193   6.850  43.282   3.328
14663W        W76194   8.804  35.903   0.355
14664W        W76195  40.503  19.569  13.534
14665W        W76196  37.391  39.430  13.545
14666W        W76197  32.398  22.562   0.736
14667W        W76198  19.710   7.813   3.845
14668W        W76199   1.937  17.661  13.330
14669W        W76200  20.086  24.186   4.294
14670W        W76201  12.816  26.609   1.262
14671W        W76202   0.401  35.587  12.906
14672W        W76203   8.817   9.169   3.286
14673W        W76204  38.340  30.147  12.852
14674W        W76205  40.354   1.782  14.010
14675W        W76206  37.530  38.553   5.259
14676W        W76207  37.043  24.509  13.512
14677W        W76208  43.837  17.704   1.363
14678W        W76209  31.000  11.306   2.360
14679W        W76210  19.754  30.013   2.731
14680W        W76211  20.125  33.536   3.351
14681W        W76212  34.910  12.146  12.441
14682W        W76213   4.786  30.601   0.326
14683W        W76214  41.935   7.261   0.754
14684W        W76215  41.342   0.830   0.816
14685W        W76216  40.983  28.585  14.324
14686W        W76217  37.912  43.828   2.717
14687W        W76218  26.138  43.920  14.280
14688W        W76219  17.240   6.251  12.940
14689W        W76220  39.984  24.565  13.890
14690W        W76221  12.631   9.676  11.525
14691W        W76222  12.739  32.957   4.216
14692W        W76223  39.873  16.751   2.346
14693W        W76224  40.432  34.594  10.998
14694W        W76225  40.336  27.091   4.136
14695W        W76226   1.734   8.278  11.461
14696W        W76227  12.170  44.870  13.034
14697W        W76228  26.194  38.380  12.346
14698W        W76229  14.275  30.067  11.992
14699W        W76230  13.170  23.592  11.983
14700W        W76231  43.370  17.145  14.914
14701W        W76232   4.883  21.132   1.377
14702W        W76233  39.920  43.795  10.488
14703W        W76234   3.401   6.681  11.498
14704W        W76235   2.760  43.417  10.419
14705W        W76236   7.353  33.505   1.398
14706W        W76237  34.501   2.380  14.800
14707W        W76238  12.117  23.707   1.328
14708W        W76239  20.569  26.616   0.913
14709W        W76240   3.845  40.415  13.984
14710W        W76241   0.256   3.874   4.255
14711W        W76242  33.563  16.593  10.970
14712W        W76243   7.682  11.834   3.756
14713W        W76244  29.046  10.282   1.717
14714W        W76245  23.686  14.685   3.864
14715W        W76246  41.869   4.402   4.155
14716W        W76247  28.483  44.912  12.406
14717W        W76248  14.339  18.620   1.819
14718W        W76249  42.002   9.774  14.794
14719W        W76250   3.263  16.617  14.509
14720W        W76251   1.307   9.167  14.900
14721W        W76252  33.123  10.868   2.338
14722W        W76253  28.117  14.182   1.264
14723W        W76254  35.596  33.977  13.546
14724W        W76255  10.700  39.007   0.243
14725W        W76256  13.332   2.379  11.565
14726W        W76257  39.510  13.826  12.511
14727W        W76258  38.894  37.064  10.570
14728W        W76259  14.187  21.036  10.916
14729W        W76260  21.157  38.485   2.775
14730W        W76261  16.590  25.687   2.798
14731W        W76262  25.653  29.505   2.769
14732W        W76263   0.762  13.834   2.260
14733W        W76264  12.816  17.256  11.121
14734W        W76265  31.153  14.634  10.540
14735W        W76266  20.030  20.252  14.980
14736W        W76267  12.206  42.779   0.327
14737W        W76268  12.335  15.654   4.118
14738W        W76269  25.218  40.449  10.898
14739W        W76270  23.987  21.106   5.229
14740W        W76271  43.804   2.796  11.860
14741W        W76272  38.049   7.387  13.539
14742W        W76273  41.030   1.925  11.125
14743W        W76274  16.706  17.188  11.456
14744W        W76275  30.064  34.002  11.876
14745W        W76276  31.061   3.431   2.718
14746W        W76277  23.509  36.091   4.244
14747W        W76278  12.362  21.209  11.407
14748W        W76279  41.480  19.125  11.561
14749W        W76280  18.269  34.436  12.880
14750W        W76281  17.705  40.805  14.399
14751W        W76282  30.127  13.268   1.442
14752W        W76283  42.833  42.329  13.950
14753W        W76284   4.416  18.139  13.366
14754W        W76285  14.826  42.509  11.050
14755W        W76286  16.076  42.815  10.595
14756W        W76287  15.162  41.419  14.371
14757W        W76288  22.635  15.664   2.246
14758W        W76289  16.167  33.597  11.417
14759W        W76290  40.523  31.526  14.882
14760W        W76291   8.852   6.838  11.050
14761W        W76292   1.462  19.238  13.460
14762W        W76293  43.365  42.409   4.607
14763W        W76294  13.201  43.292   4.698
14764W        W76295  39.020   4.397  10.966
14765W        W76296   3.720  17.224   0.811
14766W        W76297  16.160  44.349  14.376
14767W        W76298  44.404  23.086  13.836
14768W        W76299  24.519   5.899  11.028
14769W        W76300  15.682   0.456   4.740
14770W        W76301  10.200  36.931  14.907
14771W        W76302   2.864  21.210  14.922
14772W        W76303  19.152   7.175  12.442
14773W        W76304  20.164  29.132  10.459
14774W        W76305   3.345   1.443  13.028
14775W        W76306  38.412  39.060  14.349
14776W        W76307  40.992   4.942   4.651
14777W        W76308  11.852  25.074  12.532
14778W        W76309   2.959  40.342   3.863
14779W        W76310  22.032  44.854   3.674
14780W        W76311   3.728  20.567  11.003
14781W        W76312  28.631  26.207   0.868
14782W        W76313  22.538  38.379   1.408
14783W        W76314  11.351  10.756  12.456
14784W        W76315  41.035   9.174   3.637
14785W        W76316  41.469  28.554   1.829
14786W        W76317  38.519   6.682   4.225
14787W        W76318  15.264   1.264   1.880
14788W        W76319  27.024  35.375  12.503
14789W        W76320  41.886  16.684   2.893
14790W        W76321  16.197  14.667  14.401
14791W        W76322  30.613  44.357   3.687
14792W        W76323   8.251   7.221  10.487
14793W        W76324  18.268  20.056  12.567
14794W        W76325  41.999   0.766   5.101
14795W        W76326   9.773  34.099   0.483
14796W        W76327  42.967  37.375  13.381
14797W        W76328  22.551  42.915  13.414
14798W        W76329  22.609  29.129  11.401
14799W        W76330  29.933  44.398   4.352
14800W        W76331  14.729  21.187  12.087
14801W        W76332  36.441  37.535  14.409
14802W        W76333  28.053  16.712   2.885
14803W        W76334  30.068  37.419   1.319
14804W        W76335  22.216  35.572  14.393
14805W        W76336  12.754   4.800   0.830
14806W        W76337  18.135  12.734  11.590
14807W        W76338  37.025  16.758   9.486
14808W        W76339  29.613   8.298  14.312
14809W        W76340  27.627  14.322  11.415
14810W        W76341  12.321  36.052  14.278
14811W        W76342  21.060  30.098   0.730
14812W        W76343  17.794   3.458  12.929
14813W        W76344  22.640  29.963  12.479
14814W        W76345  33.600  29.944   1.351
14815W        W76346  26.584  29.656   3.166
14816W        W76347  39.898  43.442   3.851
14817W        W76348  15.085  12.124  12.860
14818W        W76349   8.261   1.326   1.724
14819W        W76350  14.591  18.177   3.168
14820W        W76351  38.873  12.645  13.015
14821W        W76352  20.199  16.795   1.369
14822W        W76353  29.998  12.828  14.849
14823W        W76354  35.867  24.208   3.281
14824W        W76355  38.974  42.813   3.344
14825W        W76356  31.620  11.650   1.323
14826W        W76357   3.417  29.612   3.675
14827W        W76358  42.414  26.661   1.792
14828W        W76359   5.932  29.666   0.930
14829W        W76360   3.797  42.836  12.031
14830W        W76361   3.780  35.005   4.726
14831W        W76362   0.283  28.141  12.513
14832W        W76363  24.652  15.160  10.894
14833W        W76364  12.350  13.639  10.515
14834W        W76365  32.119  37.070   3.760
14835W        W76366  41.312  11.867  10.601
14836W        W76367  24.146  29.457  14.466
14837W        W76368   9.276  43.377  12.485
14838W        W76369   6.795  21.115  13.983
14839W        W76370   4.927  23.678  13.883
14840W        W76371  33.582  16.734  10.483
14841W        W76372  21.071  32.953   4.691
14842W        W76373   5.729   6.893   1.244
14843W        W76374  26.115  16.800  14.861
14844W        W76375  42.909  11.209   4.705
14845W        W76376  23.219  44.901   4.786
14846W        W76377   8.189  18.749   3.743
14847W        W76378  15.217  31.124   5.584
14848W        W76379  34.932   2.433  12.927
14849W        W76380  21.527   2.470  10.523
14850W        W76381  15.739  39.980   3.751
14851W        W76382  13.660  32.092  14.776
14852W        W76383  23.165   2.295   1.391
14853W        W76384  39.457  33.928  12.856
14854W        W76385  37.872   7.688   2.851
14855W        W76386  11.256  22.603   4.830
14856W        W76387  43.495  35.989  10.125
14857W        W76388   6.266  25.476   9.569
14858W        W76389  14.613  22.148  13.901
14859W        W76390  43.339  19.048  11.518
14860W        W76391  25.044  44.457  14.484
14861W        W76392  24.572  18.734  14.479
14862W        W76393  38.982  30.552  10.060
14863W        W76394  22.744  32.104  10.474
14864W        W76395  14.647   8.838   5.319
14865W        W76396   3.903   6.300   3.192
14866W        W76397   5.210  19.677   3.205
14867W        W76398  35.447  18.705   4.617
14868W        W76399  15.118  16.813   2.872
14869W        W76400  43.887  32.523   2.353
14870W        W76401  32.975  28.543   1.696
14871W        W76402  41.992  17.194  13.857
14872W        W76403  30.593  31.557   2.261
14873W        W76404  25.966  12.658   0.254
14874W        W76405  43.358   0.387   0.403
14875W        W76406  40.971   8.883  10.483
14876W        W76407  30.111   9.807   0.803
14877W        W76408  38.048  26.583   0.311
14878W        W76409   2.264  14.833  10.586
14879W        W76410   7.360   5.721  12.864
14880W        W76411  17.220  31.071  14.974
14881W        W76412  10.180  24.990   3.223
14882W        W76413   1.829  35.996   2.367
14883W        W76414  33.915  31.610   0.855
14884W        W76415  14.784  17.758   1.911
14885W        W76416   9.268  38.544   4.196
14886W        W76417  14.269  19.200  14.511
14887W        W76418  39.844  13.684  11.958
14888W        W76419   8.709  20.227  13.895
14889W        W76420   0.361  14.641   1.853
14890W        W76421  35.878  21.184   4.139
14891W        W76422  32.097  25.689  10.566
14892W        W76423   1.897   1.832  12.881
14893W        W76424  14.263  23.122   3.189
14894W        W76425  21.044  36.478  13.000
14895W        W76426  25.080   2.899   2.698
14896W        W76427  17.582  42.998  10.523
14897W        W76428  38.462   0.835   4.273
14898W        W76429  11.837  25.547   1.321
14899W        W76430  14.736  41.525   2.337
14900W        W76431  30.070  28.072   2.876
14901W        W76432  32.028  38.845  14.820
14902W        W76433  38.024  43.863  14.310
14903W        W76434  36.018  17.759  11.967
14904W        W76435  19.199   2.824  11.432
14905W        W76436  26.524  22.026   0.404
14906W        W76437   7.365  25.162   4.299
14907W        W76438  31.511  16.587  11.966
14908W        W76439  10.243  15.164   2.777
14909W        W76440  16.656  15.092  11.866
14910W        W76441  35.491  35.564  10.929
14911W        W76442  11.157  44.910  12.908
14912W        W76443  25.065  21.099   4.139
14913W        W76444  37.954  27.679   3.806
14914W        W76445  44.341  14.779  14.006
14915W        W76446  36.573  27.956   4.800
14916W        W76447  38.555  20.582   0.756
14917W        W76448   5.826  28.064   2.858
14918W        W76449  28.469  37.381   2.686
14919W        W76450  39.024  17.562  11.052
14920W        W76451   6.898  41.512   2.231
14921W        W76452  23.492  16.284  11.860
14922W        W76453  31.015  27.500  13.017
14923W        W76454  22.048  13.813   1.367
14924W        W76455  41.923   7.405  15.000
14925W        W76456   2.302  33.990   2.304
14926W        W76457  40.013  31.594   1.864
14927W        W76458  32.082   7.333   3.711
14928W        W76459  38.066  20.561   1.790
14929W        W76460   1.746  25.686   0.401
14930W        W76461   0.403  42.823   0.400
14931W        W76462  33.589  10.735   2.774
14932W        W76463  20.153  23.594  13.035
14933W        W76464  15.583  37.869  10.082
14934W        W76465  27.687  20.538  12.567
14935W        W76466  20.193  33.449  10.158
14936W        W76467   6.413   2.878   2.346
14937W        W76468  23.083   5.320  11.878
14938W        W76469  15.660  35.378  13.835
14939W        W76470  42.336  39.446   2.791
14940W        W76471  24.080  38.020   2.200
14941W        W76472   2.227  17.626  11.872
14942W        W76473   4.216   9.184  14.476
14943W        W76474  26.964  38.480  14.987
14944W        W76475   3.217  30.586   3.707
14945W        W76476   5.206  19.652  11.599
14946W        W76477  33.498  44.283   0.291
14947W        W76478  23.991   3.250  10.597
14948W        W76479   3.837  13.160  13.471
14949W        W76480   0.851  10.815  10.068
14950W        W76481  24.578  23.522   1.925
14951W        W76482  29.925   5.353   4.611
14952W        W76483   7.843  42.490   4.352
14953W        W76484  35.544  35.956  13.407
14954W        W76485  39.827  20.642   3.767
14955W        W76486  19.073  40.481   1.696
14956W        W76487  10.322   9.171   1.434
14957W        W76488   9.732   5.335   2.341
14958W        W76489  39.861  25.619  12.350
14959W        W76490  24.098   2.891   4.133
14960W        W76491  39.451  43.322   0.888
14961W        W76492  10.795  42.927  13.955
14962W        W76493   7.849  20.647  14.887
14963W        W76494  17.755  18.631  10.612
14964W        W76495  40.015  15.741  14.389
14965W        W76496  10.780   3.880  13.333
14966W        W76497  23.527  43.501   2.287
14967W        W76498  39.006  11.638   0.942
14968W        W76499   9.725  11.134   2.875
14969W        W76500   8.201   2.391   2.302
14970W        W76501   8.251   0.921   0.764
14971W        W76502  40.362  43.492  11.936
14972W        W76503   3.453  25.608   0.297
14973W        W76504  17.779  30.637   1.360
14974W        W76505  16.587  20.654  13.365
14975W        W76506  29.976  43.890   3.767
14976W        W76507   0.819  35.987   2.280
14977W        W76508  11.702  40.877   0.479
14978W        W76509   0.460  23.138   2.722
14979W        W76510  36.552  33.537   3.773
14980W        W76511  25.610  30.621  10.541
14981W        W76512  38.911   9.755   3.168
14982W        W76513   2.435  29.036   3.315
14983W        W76514  30.131  15.162  11.884
14984W        W76515   9.879  26.607   1.885
14985W        W76516  40.307   8.291  11.867
14986W        W76517  28.060  13.343   2.793
14987W        W76518  42.910  40.955   0.460
14988W        W76519  12.853  34.591  14.897
14989W        W76520  24.175  27.016  10.916
14990W        W76521  16.256  20.624  12.980
14991W        W76522  36.913   4.815   1.897
14992W        W76523  25.008   9.292  13.879
14993W        W76524  25.128  34.892   0.246
14994W        W76525  42.292  31.550  11.535
14995W        W76526  20.215  12.160   0.954
14996W        W76527  28.110   4.215  13.449
14997W        W76528  11.712  30.617  10.581
14998W        W76529   0.776  17.098   4.712
14999W        W76530  30.503   3.945   3.681
15000W        W76531  16.295  28.090   0.414
15001W        W76532  10.825  35.929   1.450
15002W        W76533   2.269  31.085  11.570
15003W        W76534   0.427   3.299  10.619
15004W        W76535  34.564  17.665   4.124
15005W        W76536  32.126  13.623   0.376
15006W        W76537  20.645  11.745   0.805
15007W        W76538  21.106  13.833  13.494
15008W        W76539  10.796  10.687   4.715
15009W        W76540   8.668  43.821   2.741
15010W        W76541  10.744  16.259   4.157
15011W        W76542  17.697  12.326   4.233
15012W        W76543  17.705   1.977   1.752
15013W        W76544  33.940  32.469   0.904
15014W        W76545  15.812  16.694  11.896
15015W        W76546   6.332   5.328  13.884
15016W        W76547   9.251  23.653   3.765
15017W        W76548  14.283  25.628  14.392
15018W        W76549   1.846  19.278   4.768
15019W        W76550  31.643  35.505   2.888
15020W        W76551  16.711  19.280  13.833
15021W        W76552  11.859   9.852   2.259
15022W        W76553   7.736  18.731   2.192
15023W        W76554  12.626  17.556   3.757
15024W        W76555  31.031   3.457  11.455
15025W        W76556   2.827  22.015  13.947
15026W        W76557  29.460  20.182  13.866
15027W        W76558  22.995   7.735   3.344
15028W        W76559  13.842   5.855  14.360
15029W        W76560  34.392  37.511  14.812
15030W        W76561  37.033   9.347  12.503
15031W        W76562  23.060  44.481   0.420
15032W        W76563  16.789  17.238  13.424
15033W        W76564  22.207   9.885  13.476
15034W        W76565  29.554  12.759   1.218
15035W        W76566  17.106  11.265  13.964
15036W        W76567  24.547  24.012  11.079
15037W        W76568   5.775  31.525  14.947
15038W        W76569  25.174  12.826  12.571
15039W        W76570  14.205   5.199   3.718
15040W        W76571   7.189  42.821  11.984
15041W        W76572  40.918  15.748  11.439
15042W        W76573  18.077  16.198  13.934
15043W        W76574   1.794  10.369  14.957
15044W        W76575   7.853  33.526   4.136
15045W        W76576   2.768  26.045  11.874
15046W        W76577  33.578  11.202  11.439
15047W        W76578  35.086  23.713   0.484
15048W        W76579  17.079   8.678  12.902
15049W        W76580  20.226   0.950  13.434
15050W        W76581  40.511  35.889  11.435
15051W        W76582  27.601   1.333   1.785
15052W        W76583  19.542  32.598  13.000
15053W        W76584  24.217  22.680  12.365
15054W        W76585  11.846  44.316  14.937
15055W        W76586   0.478  22.110   2.404
15056W        W76587   6.817  37.003   0.776
15057W        W76588  26.980  29.641   9.939
15058W        W76589  11.327  19.278  14.978
15059W        W76590  34.479  41.025  10.577
15060W        W76591  41.458  30.941   4.782
15061W        W76592  41.323  37.551   3.726
15062W        W76593  26.105  12.655   3.643
15063W        W76594  12.293  13.639   3.836
15064W        W76595  42.823   5.245  11.398
15065W        W76596   5.398  19.281   2.767
15066W        W76597  29.660  20.151  13.321
15067W        W76598  41.336  25.169  13.853
15068W        W76599  18.739  27.081   0.310
15069W        W76600  16.082  14.191  10.924
15070W        W76601  10.854   2.874   3.637
15071W        W76602  34.113  36.887   1.721
15072W        W76603  34.526  25.118   1.807
15073W        W76604  36.450  16.146  14.985
15074W        W76605  32.047  26.588  13.417
15075W        W76606  33.499  32.415  12.520
15076W        W76607  15.230  24.484   1.402
15077W        W76608  27.628  22.135   1.387
15078W        W76609   3.802  20.649   0.368
15079W        W76610  35.558  42.965   1.257
15080W        W76611  34.374  42.337  14.474
15081W        W76612  11.773  43.281   3.859
15082W        W76613  16.305  37.461   2.672
15083W        W76614   4.780   1.405  12.479
15084W        W76615  31.573   4.716   3.825
15085W        W76616   3.762  35.853   3.818
15086W        W76617  30.580  17.596  10.410
15087W        W76618  16.192  32.401   5.122
15088W        W76619  42.475  33.612   1.415
15089W        W76620  14.731  17.782   0.820
15090W        W76621  32.527  21.558  14.998
15091W        W76622  37.391   8.853   2.724
15092W        W76623  24.552  44.316  12.473
15093W        W76624  30.641  27.018  14.487
15094W        W76625  23.190  41.826   1.783
15095W        W76626  13.259  43.459   4.122
15096W        W76627  32.585  25.105  13.947
15097W        W76628   2.925  27.102  12.995
15098W        W76629  32.948  19.652  12.930
15099W        W76630  35.101  16.192  12.519
15100W        W76631   8.783   8.705  11.978
15101W        W76632  39.866  29.952   1.280
15102W        W76633   4.426  11.704  11.960
15103W        W76634   8.777  29.443   0.951
15104W        W76635  32.893  38.979  14.319
15105W        W76636  25.001  11.773   1.759
15106W        W76637   6.735  37.862  13.380
15107W        W76638  23.691  28.481   0.833
15108W        W76639  11.713  19.601   0.331
15109W        W76640  32.009  43.988  11.574
15110W        W76641  42.889  12.160  10.928
15111W        W76642  19.193  44.997  14.410
15112W        W76643   9.872   1.866   4.339
15113W        W76644  29.154   8.233   1.286
15114W        W76645   5.853  21.595  12.927
15115W        W76646  22.525  18.059  10.623
15116W        W76647   2.922  22.168   4.333
15117W        W76648  41.331  29.611  10.565
15118W        W76649  23.165  28.005  13.976
15119W        W76650  28.495  39.045  11.378
15120W        W76651  16.578  35.076  11.058
15121W        W76652  43.312   7.382   2.322
15122W        W76653  44.279   5.231  10.616
15123W        W76654  35.935  37.412  14.445
15124W        W76655  23.072  34.928   1.325
15125W        W76656  41.421  41.319  14.798
15126W        W76657  25.532   3.377   3.660
15127W        W76658  42.980  37.836   3.790
15128W        W76659   5.250  43.335   1.908
15129W        W76660  28.563  26.649  13.877
15130W        W76661  43.888  37.411  13.871
15131W        W76662  29.505  17.296  10.407
15132W        W76663  14.294  11.249   1.357
15133W        W76664  31.443  19.084  11.918
15134W        W76665   2.364   9.738  14.925
15135W        W76666   1.811  27.573  10.591
15136W        W76667   9.285   3.755  13.399
15137W        W76668  12.619   8.327  14.869
15138W        W76669  16.782  28.554   2.193
15139W        W76670  19.561  30.629  10.412
15140W        W76671  29.074  33.015  13.840
15141W        W76672  38.491  36.458   3.813
15142W        W76673  10.837   7.229   2.291
15143W        W76674  13.601   4.774  11.492
15144W        W76675  32.925  29.423   3.333
15145W        W76676   5.799  24.073   0.280
15146W        W76677  40.013  17.762  14.002
15147W        W76678  17.154  18.097   0.346
15148W        W76679  18.547  40.030   4.242
15149W        W76680  42.506  36.422  12.546
15150W        W76681  29.961  25.568  14.819
15151W        W76682  36.573   8.207   4.827
15152W        W76683   1.394  33.068  10.490
15153W        W76684  30.476  32.017   0.743
15154W        W76685  37.538  28.937   3.233
15155W        W76686  38.369  12.651   1.864
15156W        W76687   5.861  36.925  13.934
15157W        W76688   1.339   6.215   1.326
15158W        W76689  34.531  29.933  10.577
15159W        W76690   0.294  23.526   3.809
15160W        W76691   3.288  30.026   0.926
15161W        W76692   8.759  20.171   2.211
15162W        W76693  23.040  38.382   5.722
15163W        W76694   3.437  39.008   0.895
15164W        W76695   3.336  43.810   3.693
15165W        W76696  35.897  33.500  12.938
15166W        W76697  18.656  12.810  13.805
15167W        W76698  18.576  31.403  14.333
15168W        W76699  38.076  19.145  12.915
15169W        W76700  34.429   6.884   3.218
15170W        W76701  10.747  24.647   4.152
15171W        W76702   2.414   5.375   3.217
15172W        W76703  14.598   1.321  11.407
15173W        W76704  22.644  10.727  12.475
15174W        W76705  27.108  27.117  11.993
15175W        W76706  12.293  19.589   1.930
15176W        W76707  16.090  42.326  12.995
15177W        W76708  30.485  36.546   2.889
15178W        W76709   6.228  29.025   3.749
15179W        W76710  34.007  41.914   3.792
15180W        W76711   9.708  11.250  10.508
15181W        W76712  37.984   2.392   1.837
15182W        W76713   6.333  19.700  10.084
15183W        W76714  37.031  12.765  12.413
15184W        W76715  40.435  13.135   1.786
15185W        W76716  39.929  27.525  11.082
15186W        W76717   6.866  11.319   4.201
15187W        W76718  44.904   4.868   4.729
15188W        W76719  36.064  10.171   2.870
15189W        W76720   1.461  28.129   3.698
15190W        W76721  32.032   4.382   0.931
15191W        W76722  41.401  20.095  10.430
15192W        W76723   2.725  26.539   4.803
15193W        W76724   8.892  37.507   0.775
15194W        W76725   1.294  29.446  14.425
15195W        W76726  19.553  44.909  11.868
15196W        W76727  22.131   1.939  13.399
15197W        W76728  40.402  37.055   2.297
15198W        W76729   6.842  19.158   3.629
15199W        W76730   6.701  41.861   1.882
15200W        W76731  39.028  10.733   2.242
15201W        W76732  32.070  23.697   4.825
15202W        W76733  42.870  13.256   3.744
15203W        W76734  32.605  17.249  10.909
15204W        W76735   2.253  35.933   4.636
15205W        W76736  36.915   9.249   1.284
15206W        W76737  11.689  38.930  12.550
15207W        W76738  36.543   2.251   3.763
15208W        W76739  41.400  13.296  10.900
15209W        W76740  18.216  31.045  12.384
15210W        W76741  10.814  26.005   4.673
15211W        W76742  38.342  43.428   1.921
15212W        W76743  35.027  43.008   3.744
15213W        W76744  25.505   0.761  12.033
15214W        W76745  12.237  29.072  10.961
15215W        W76746  10.262   5.745   4.827
15216W        W76747   8.677  44.810   1.716
15217W        W76748  25.681  21.541   4.345
15218W        W76749   3.850  13.276   1.424
15219W        W76750  40.461  43.938   0.930
15220W        W76751  14.230  41.791  14.279
15221W        W76752  31.429  26.685  13.799
15222W        W76753  20.272  41.402  14.389
15223W        W76754  35.015  36.999   3.786
15224W        W76755   4.249  38.950  12.997
15225W        W76756  14.231  20.265  11.605
15226W        W76757  42.506  19.595   2.894
15227W        W76758  22.699  40.797   1.822
15228W        W76759  35.383  21.696   1.699
15229W        W76760   4.347  25.965  13.988
15230W        W76761  33.480  13.304   2.903
15231W        W76762  17.192  37.365  10.103
15232W        W76763   9.361   6.726  12.550
15233W        W76764  44.475  34.964   4.115
15234W        W76765  33.910   7.267   0.245
15235W        W76766  34.039  21.022  11.542
15236W        W76767  24.523  30.141  13.867
15237W        W76768  23.156  29.004   4.721
15238W        W76769  35.557  12.167   0.433
15239W        W76770  43.497  27.001  11.031
15240W        W76771  38.077  10.333  13.388
15241W        W76772   6.393  44.796  13.414
15242W        W76773  11.248  20.769   4.738
15243W        W76774  40.821  14.664   2.273
15244W        W76775  34.946  38.396   2.828
15245W        W76776  13.628  20.257   1.216
15246W        W76777  30.541   7.201  10.412
15247W        W76778   7.761  31.430  12.861
15248W        W76779  15.591  23.638   9.655
15249W        W76780  13.124   6.782   3.359
15250W        W76781  34.908  31.105  12.368
15251W        W76782  36.441  17.192  11.395
15252W        W76783  37.894  37.049   5.267
15253W        W76784  39.477  15.693   4.625
15254W        W76785  23.016  20.758  12.562
15255W        W76786  16.302   4.929   1.769
15256W        W76787  13.717  12.186  10.556
15257W        W76788  20.621  16.259   2.419
15258W        W76789   3.951  37.504  14.490
15259W        W76790  21.683   5.330  13.447
15260W        W76791  33.448  43.774  11.549
15261W        W76792   8.338  25.525   4.233
15262W        W76793  26.479   4.885  10.452
15263W        W76794  17.302  10.313  14.450
15264W        W76795   2.453  35.944  12.384
15265W        W76796  31.605  26.077  11.097
15266W        W76797  43.422  37.337   0.391
15267W        W76798  37.035   9.385   9.459
15268W        W76799   5.694  27.132   0.742
15269W        W76800  13.769   1.279  12.487
15270W        W76801  31.000  27.105  11.504
15271W        W76802  44.488   6.383  10.607
15272W        W76803  20.621  43.398   0.901
15273W        W76804   0.819  33.486  14.440
15274W        W76805  44.269  32.980  10.547
15275W        W76806   2.871   2.798   2.409
15276W        W76807  41.442  43.388   0.468
15277W        W76808  30.428  17.692   3.196
15278W        W76809  10.257  43.977   3.799
15279W        W76810  32.499  13.163  13.994
15280W        W76811  25.552  39.441  11.494
15281W        W76812  12.756  13.738  11.066
15282W        W76813  16.645  21.073  13.924
15283W        W76814  29.429  30.500   2.850
15284W        W76815  43.452  28.523   4.734
15285W        W76816   3.927   3.321   2.348
15286W        W76817  22.609   9.333   2.387
15287W        W76818   9.356  25.668   3.785
15288W        W76819  29.971  11.794  10.447
15289W        W76820   3.459  18.712   3.865
15290W        W76821  41.456  18.247   4.783
15291W        W76822   0.967  41.356   3.380
15292W        W76823   2.748   8.657   1.419
15293W        W76824  27.678  22.182   4.328
15294W        W76825  40.367  21.729  10.586
15295W        W76826  19.559  42.392   4.779
15296W        W76827  22.104  22.639  11.124
15297W        W76828  29.155  43.774  12.991
15298W        W76829  30.506  38.397   2.775
15299W        W76830  17.744  16.581   3.290
15300W        W76831  44.795  32.123   4.692
15301W        W76832   4.826  36.391   3.696
15302W        W76833  33.527  21.754  13.943
15303W        W76834  28.080  26.002   2.376
15304W        W76835   0.305  26.525   0.830
15305W        W76836  39.426  32.522   4.350
15306W        W76837  33.016  23.996   3.754
15307W        W76838   3.251   8.234  14.453
15308W        W76839  40.904  19.729   0.931
15309W        W76840  13.150  23.515  13.529
15310W        W76841  26.479  43.325  14.370
15311W        W76842  36.879  40.533   1.742
15312W        W76843   2.409  29.492   4.795
15313W        W76844  23.670  37.963  10.607
15314W        W76845  17.680  42.971   0.797
15315W        W76846  30.911  44.405  11.383
15316W        W76847  35.054  28.033   3.843
15317W        W76848   4.391   7.851  11.867
15318W        W76849  17.182  25.157   5.194
15319W        W76850  37.353  21.635  14.987
15320W        W76851  28.667  24.681  14.855
15321W        W76852   0.869  18.231  11.516
15322W        W76853  16.808  41.484   3.783
15323W        W76854  17.227  36.888  10.890
15324W        W76855  20.258  17.243  12.474
15325W        W76856  35.058   0.865   3.659
15326W        W76857   6.896  11.691  13.411
15327W        W76858  10.668  44.886  11.859
15328W        W76859  37.355  12.685   0.807
15329W        W76860  40.967  34.509  13.323
15330W        W76861  25.059   5.338  14.776
15331W        W76862  40.878  32.952   3.265
15332W        W76863  11.675   6.793  12.537
15333W        W76864  12.724  38.977  13.355
15334W        W76865   9.238  28.057  12.403
15335W        W76866   4.323   6.322   4.243
15336W        W76867  27.454  40.365   1.720
15337W        W76868   7.667  19.041   0.911
15338W        W76869  34.569  10.223  13.915
15339W        W76870  21.195  12.149   2.829
15340W        W76871   6.873   5.314   3.336
15341W        W76872  25.564   9.668  13.930
15342W        W76873  18.152  29.001  13.473
15343W        W76874  30.511   8.876  14.507
15344W        W76875  33.508  42.989  13.863
15345W        W76876  18.294  12.286   3.692
15346W        W76877  42.889   7.211   0.949
15347W        W76878  26.000   6.835   3.869
15348W        W76879   5.252  27.536   2.190
15349W        W76880  42.352  42.817  12.515
15350W        W76881  18.132  15.116   4.733
15351W        W76882   1.753  37.985   1.434
15352W        W76883  34.368   9.805   2.856
15353W        W76884  21.607  31.124  13.364
15354W        W76885  43.492  40.918  10.560
15355W        W76886  44.319   9.873  10.525
15356W        W76887  33.015   2.728  14.354
15357W        W76888   0.847  35.920  13.923
15358W        W76889  32.055  11.172   2.354
15359W        W76890  31.016   6.909  13.957
15360W        W76891  39.039  32.454   1.350
15361W        W76892  42.523   1.413   0.850
15362W        W76893  25.002  10.228  12.932
15363W        W76894   0.986   0.334  12.464
15364W        W76895  40.814  26.535  11.981
15365W        W76896  19.229  40.921  14.315
15366W        W76897   8.873  26.654   4.732
15367W        W76898  37.542  36.488   2.850
15368W        W76899  33.553  12.172   2.809
15369W        W76900   9.290  32.002  13.041
15370W        W76901   0.822  35.538  10.572
15371W        W76902  27.165  23.614   2.192
15372W        W76903  17.162  28.673   2.676
15373W        W76904  26.503  33.906   0.772
15374W        W76905  20.180  36.077  10.026
15375W        W76906  12.189   5.855   3.765
15376W        W76907  11.842  23.523  10.427
15377W        W76908  19.587   8.270  10.610
15378W        W76909  30.633  42.471   0.478
15379W        W76910  31.119  17.795  12.567
15380W        W76911  28.118  13.836   4.301
15381W        W76912  15.601  26.475   4.289
15382W        W76913  30.000   0.325   0.339
15383W        W76914   0.493   1.337  13.356
15384W        W76915  39.393  31.560  14.927
15385W        W76916  42.012  36.432   2.193
15386W        W76917  28.045  29.996  12.826
15387W        W76918  11.788  44.451  12.050
15388W        W76919   1.343  37.479   0.743
15389W        W76920  40.306  29.001  13.516
15390W        W76921   4.274   8.697   2.795
15391W        W76922  17.235   8.728  14.319
15392W        W76923  22.192  38.986  13.325
15393W        W76924  26.977  39.393  13.947
15394W        W76925   5.234   5.704  12.445
15395W        W76926  24.544  24.050   1.367
15396W        W76927   9.824  11.697   2.332
15397W        W76928  17.754  24.187   1.839
15398W        W76929   0.917   6.313   5.104
15399W        W76930   1.393  22.059   5.739
15400W        W76931  22.587   8.271  13.468
15401W        W76932  42.283  37.990  13.474
15402W        W76933  10.646  19.693   1.787
15403W        W76934  18.629  26.697   1.867
15404W        W76935   8.849  35.074  10.446
15405W        W76936  19.159   2.860   1.717
15406W        W76937   8.654  21.552  14.859
15407W        W76938   2.326  27.150   3.230
15408W        W76939  37.513  16.636   1.415
15409W        W76940   8.698  36.557   5.180
15410W        W76941   4.782   1.844   0.468
15411W        W76942  30.984  19.666  13.336
15412W        W76943  42.346   4.930   3.268
15413W        W76944  36.891  23.552   4.167
15414W        W76945  41.438   4.265  13.871
15415W        W76946   0.352  29.484   4.177
15416W        W76947  20.189  41.398  11.608
15417W        W76948  14.722  40.431  10.563
15418W        W76949  19.183   8.200  11.411
15419W        W76950  28.509  26.473  10.893
15420W        W76951  29.123  21.021  12.924
15421W        W76952  29.497   4.441   1.834
15422W        W76953  22.671  38.843   2.304
15423W        W76954  44.782   6.791  11.950
15424W        W76955  31.141  26.044   1.320
15425W        W76956  25.473   5.236   0.366
15426W        W76957  38.367  10.636  13.495
15427W        W76958  12.359  40.366   4.691
15428W        W76959  17.770   5.206  14.406
15429W        W76960  19.592   2.436  14.992
15430W        W76961  31.549   2.943   0.473
15431W        W76962  22.723  10.724  10.529
15432W        W76963  33.625  39.359  10.910
15433W        W76964  44.869  36.066  11.373
15434W        W76965   9.306   6.325  12.866
15435W        W76966   5.814  29.585   1.426
15436W        W76967  32.136   8.824  10.578
15437W        W76968   3.872  24.079   0.475
15438W        W76969  44.309  24.514   1.918
15439W        W76970  21.031   5.858   0.478
15440W        W76971  20.085  24.999   1.371
15441W        W76972   9.368  40.467  13.013
15442W        W76973  27.527  28.185  11.493
15443W        W76974  22.676  17.065   2.673
15444W        W76975  32.124  13.820  13.489
15445W        W76976  22.727  30.483  11.515
15446W        W76977  31.084   5.782  13.882
15447W        W76978   7.345  14.809  13.427
15448W        W76979  38.945  13.779   3.362
15449W        W76980   4.365  33.543  14.908
15450W        W76981  16.627  16.280   4.768
15451W        W76982  15.162  33.970  12.450
15452W        W76983  31.979  10.779  11.066
15453W        W76984  41.925  31.467  13.988
15454W        W76985  24.993  13.768  13.480
15455W        W76986  30.433  42.825   4.704
15456W        W76987  36.993   8.351  13.891
15457W        W76988   3.860  28.033  10.090
15458W        W76989   0.286  22.118  10.901
15459W        W76990  36.405  32.992   2.317
15460W        W76991  18.187  25.026  12.065
15461W        W76992  38.937  12.705   1.240
15462W        W76993  10.788  29.063   4.753
15463W        W76994  14.155  12.782   0.271
15464W        W76995   9.689  31.968   0.271
15465W        W76996   6.385  23.718  13.379
15466W        W76997   3.292  38.487  11.382
15467W        W76998  37.344  33.001   3.787
15468W        W76999  29.589  40.917  14.758
15469W        W77000  39.963  28.084  13.534
15470W        W77001  14.598  32.414  14.478
15471W        W77002  39.401   9.770   3.214
15472W        W77003  29.081  26.687   0.452
15473W        W77004  39.415  16.763  11.050
15474W        W77005  39.460  28.982   2.791
15475W        W77006  14.810  16.266   3.806
15476W        W77007  14.252  14.647  13.321
15477W        W77008   3.365  44.767   4.174
15478W        W77009  33.392   9.216   0.956
15479W        W77010  33.904  37.433   3.661
15480W        W77011  32.550  22.108   2.705
15481W        W77012  12.150  42.354  11.564
15482W        W77013  18.749  25.035   3.702
15483W        W77014   3.945  43.999   0.270
15484W        W77015  25.518  39.929   2.705
15485W        W77016  35.889  37.507  11.404
15486W        W77017   2.375  33.561   1.276
15487W        W77018  44.291  32.421   4.809
15488W        W77019  16.243  32.484   9.933
15489W        W77020  10.161  10.793  11.441
15490W        W77021  14.621   6.817  12.395
15491W        W77022  37.833  33.549  13.337
15492W        W77023  21.587  30.161  13.034
15493W        W77024   4.897  25.597   3.695
15494W        W77025   4.940  12.843   2.286
15495W        W77026  25.158   2.351   3.386
15496W        W77027  25.180  11.759   0.856
15497W        W77028  18.098   4.411   3.147
15498W        W77029  24.222  43.278  13.939
15499W        W77030  28.653   1.879  11.973
15500W        W77031  30.434  12.326   4.116
15501W        W77032  37.461   0.852   4.802
15502W        W77033   3.332  13.320   4.140
15503W        W77034  38.834   4.210  13.884
15504W        W77035  44.767  14.125   3.711
15505W        W77036  24.080  35.942  13.517
15506W        W77037  31.925  37.926   3.644
15507W        W77038  11.345  16.728   4.332
15508W        W77039  40.046   9.315  13.907
15509W        W77040  33.033  44.842   3.715
15510W        W77041  38.330  11.737  14.983
15511W        W77042  14.698  17.703   4.652
15512W        W77043   0.394   4.316  12.889
15513W        W77044   5.689  23.087   1.787
15514W        W77045  13.629  30.015   2.886
15515W        W77046   7.343  29.622  11.466
15516W        W77047  44.890  41.521   2.716
15517W        W77048  10.159  15.784   3.311
15518W        W77049  19.057  31.563  14.810
15519W        W77050  14.661   9.349   2.785
15520W        W77051  24.645  27.004  13.049
15521W        W77052  10.802  22.649  12.876
15522W        W77053  26.524  17.102  14.282
15523W        W77054   1.385   6.854   2.316
15524W        W77055  34.909   3.443   1.895
15525W        W77056  21.260  33.924  12.861
15526W        W77057  17.226  35.022  11.128
15527W        W77058  23.202  29.084   4.240
15528W        W77059  19.195  11.185  12.958
15529W        W77060  11.786  28.078   5.195
15530W        W77061  27.559   8.258   4.768
15531W        W77062   6.714  44.445  11.521
15532W        W77063  15.285   9.833  14.021
15533W        W77064  29.650  30.603  13.309
15534W        W77065   3.724  14.201  14.889
15535W        W77066  13.646  21.529  10.419
15536W        W77067  24.082  29.610  12.341
15537W        W77068  17.089  41.373  14.775
15538W        W77069   5.197  16.627  14.892
15539W        W77070   4.260  25.494   3.264
15540W        W77071  32.580  27.056   1.368
15541W        W77072  10.791   5.858  10.991
15542W        W77073  20.742  33.010   4.121
15543W        W77074  34.577   1.328   3.310
15544W        W77075  30.635  24.017  14.834
15545W        W77076   4.774  21.575   0.799
15546W        W77077  10.846  32.530   2.350
15547W        W77078  33.939  10.697   1.925
15548W        W77079   7.296  37.002  11.989
15549W        W77080  25.578  37.021   1.293
15550W        W77081  43.427  16.779   3.181
15551W        W77082  27.078  26.021  13.481
15552W        W77083   8.261  36.069   2.804
15553W        W77084  13.797  36.432   1.869
15554W        W77085   8.270   3.876  12.922
15555W        W77086  10.862  30.014  12.986
15556W        W77087  38.335  27.950   0.373
15557W        W77088  34.989  35.988  14.489
15558W        W77089  25.707  12.149   3.342
15559W        W77090  31.031   5.286   1.418
15560W        W77091  11.621  26.654   4.316
15561W        W77092  25.677  26.491   0.249
15562W        W77093   2.934  41.329  14.955
15563W        W77094  20.553   1.837  11.893
15564W        W77095   0.448   0.264   2.290
15565W        W77096  10.808  39.870   2.849
15566W        W77097  19.637  25.981   3.244
15567W        W77098  15.213  29.063   3.696
15568W        W77099   5.285  23.062  11.104
15569W        W77100   7.841  33.395   4.817
15570W        W77101  30.044  31.453   0.785
15571W        W77102   8.317  16.787   4.639
15572W        W77103   3.299  23.548   3.150
15573W        W77104   4.371  21.244   2.253
15574W        W77105   3.356  30.157   0.293
15575W        W77106  31.450  10.164  12.572
15576W        W77107   5.910  19.274   0.770
15577W        W77108  10.247   9.229   2.271
15578W        W77109  24.215  38.459  14.782
15579W        W77110  33.541  17.229  10.075
15580W        W77111  24.653   9.321  10.927
15581W        W77112  38.839  40.854  11.451
15582W        W77113  19.611  37.521   1.826
15583W        W77114  27.085  11.350  12.964
15584W        W77115   5.296  26.035   3.808
15585W        W77116   2.919  44.425   3.769
15586W        W77117  21.036  20.241   0.884
15587W        W77118  40.484   6.197  13.373
15588W        W77119   7.781   4.273   1.888
15589W        W77120  32.083  29.168   2.811
15590W        W77121  36.551  37.564  14.914
15591W        W77122  22.746  33.110   4.754
15592W        W77123   3.754  20.122   3.152
15593W        W77124  38.972  34.082   2.389
15594W        W77125  20.739  21.544   1.819
15595W        W77126  42.953   3.280   4.313
15596W        W77127  16.725  28.939   3.256
15597W        W77128  34.534  19.149   4.344
15598W        W77129   3.806  38.840  11.934
15599W        W77130  14.686  33.580   2.413
15600W        W77131  18.671   0.780  13.488
15601W        W77132   5.827  27.009  14.285
15602W        W77133  22.156  11.356   1.321
15603W        W77134   4.897  17.800   4.127
15604W        W77135  18.109   2.242   4.201
15605W        W77136  12.221  35.526   3.343
15606W        W77137  21.620  35.902  13.441
15607W        W77138   0.852  25.989  13.022
15608W        W77139  15.711  30.445   0.905
15609W        W77140  18.687   1.272  13.378
15610W        W77141  40.854  34.038  12.941
15611W        W77142  44.427  28.007  11.946
15612W        W77143   6.683   0.929  12.031
15613W        W77144  18.618  14.099  11.047
15614W        W77145  35.384  34.510   1.766
15615W        W77146  27.125  37.550   5.208
15616W        W77147   0.315  12.134  13.800
15617W        W77148   8.887   0.478   3.269
15618W        W77149   9.269  11.745  12.011
15619W        W77150  31.995   7.337  11.907
15620W        W77151   8.315  27.446   2.187
15621W        W77152   5.272  10.787   0.738
15622W        W77153  36.891   4.265  14.383
15623W        W77154   4.717  20.256  12.564
15624W        W77155  31.919  41.489  14.426
15625W        W77156  33.024  20.528   0.813
15626W        W77157  26.006  44.861   0.943
15627W        W77158   1.762  44.932  12.901
15628W        W77159   3.785  30.135   4.831
15629W        W77160  24.127   2.749   2.737
15630W        W77161  18.728  42.310  11.457
15631W        W77162  27.572  25.694  10.563
15632W        W77163  34.401  24.997  13.417
15633W        W77164   4.895  11.253  13.433
15634W        W77165   5.398   8.727  12.962
15635W        W77166  20.638  18.158   1.887
15636W        W77167  23.170  32.585  13.911
15637W        W77168  14.322  13.842   4.710
15638W        W77169  25.208  40.809  12.876
15639W        W77170  44.978  14.118  13.797
15640W        W77171   8.268  40.851   0.335
15641W        W77172  17.662  35.014   1.747
15642W        W77173  32.927  13.652   0.802
15643W        W77174  44.818  31.604   0.739
15644W        W77175  11.206  14.265   1.305
15645W        W77176  36.849  29.069  13.979
15646W        W77177   8.270  11.269   3.786
15647W        W77178  41.880   1.362   1.278
15648W        W77179  25.555   5.913  12.992
15649W        W77180  15.623  27.600   3.736
15650W        W77181  11.234  37.892   1.848
15651W        W77182  24.001  29.554   3.800
15652W        W77183  15.811  24.674   2.233
15653W        W77184  23.167  40.414   2.210
15654W        W77185  23.597  33.623   1.915
15655W        W77186  43.302  39.526   2.868
15656W        W77187  36.420  10.795  13.457
15657W        W77188  40.476  11.235   0.394
15658W        W77189   4.792  33.559   4.704
15659W        W77190   5.263  41.030  10.980
15660W        W77191  20.758  10.845  11.977
15661W        W77192   4.920   4.827  14.385
15662W        W77193  39.835   0.872   4.813
15663W        W77194  30.153  15.592  10.446
15664W        W77195   8.662  12.736   2.257
15665W        W77196   2.948  22.644   1.853
15666W        W77197  30.582   8.405  11.411
15667W        W77198  18.592  21.615  13.854
15668W        W77199  28.170   2.251  12.526
15669W        W77200  34.015  19.262   0.752
15670W        W77201  31.406  14.289   1.918
15671W        W77202  30.566  28.442  13.034
15672W        W77203  26.631  27.131   1.291
15673W        W77204  23.089  13.834  14.337
15674W        W77205  11.731   1.796   0.902
15675W        W77206  19.244  18.077  13.436
15676W        W77207  26.966  29.152   0.376
15677W        W77208   9.644  27.462  13.927
15678W        W77209  34.420   4.773  11.601
15679W        W77210  10.745  20.148  10.931
15680W        W77211  10.237  33.575  10.428
15681W        W77212  28.941  17.123   4.149
15682W        W77213  42.283  32.118   2.222
15683W        W77214  36.980  34.520  10.904
15684W        W77215   5.893   6.907   3.831
15685W        W77216  20.530   0.784   3.318
15686W        W77217  44.340  42.926   1.445
15687W        W77218  37.984  30.162   0.738
15688W        W77219  43.777  42.975   1.307
15689W        W77220  16.143  10.827   0.731
15690W        W77221  34.994   3.379   4.831
15691W        W77222  18.285  41.895   0.834
15692W        W77223  15.694  44.376   1.318
15693W        W77224   6.202  30.966   4.730
15694W        W77225  30.136  30.544   4.267
15695W        W77226  43.789  27.656  12.368
15696W        W77227  13.742  16.680  10.497
15697W        W77228  30.579  35.557   0.290
15698W        W77229  35.012  15.577   2.188
15699W        W77230  11.223  27.646   4.198
15700W        W77231  29.039  30.528   0.458
15701W        W77232   2.457  20.666  11.460
15702W        W77233   0.313  38.919   4.221
15703W        W77234  20.158  13.280   2.340
15704W        W77235  23.495  39.870  14.362
15705W        W77236  34.558  33.446  11.405
15706W        W77237  32.973  36.030   5.257
15707W        W77238  21.044  23.082  12.348
15708W        W77239  31.952  43.313   2.666
15709W        W77240  25.055  10.843   2.742
15710W        W77241  43.480  10.694   4.800
15711W        W77242  10.749   4.241  13.872
15712W        W77243  20.655  43.353   1.808
15713W        W77244  42.794  11.778   1.903
15714W        W77245  38.534   5.806   4.125
15715W        W77246   7.821   4.249  12.997
15716W        W77247  33.098  34.565   0.334
15717W        W77248  13.311  34.105   2.751
15718W        W77249  29.994   0.939  14.830
15719W        W77250  24.649  33.553   3.783
15720W        W77251  32.599   1.399  10.511
15721W        W77252  19.594  43.455   3.195
15722W        W77253  14.785  17.595   0.305
15723W        W77254  35.054  17.113   1.234
15724W        W77255  24.107  28.681   1.842
15725W        W77256   3.839  19.171  14.903
15726W        W77257  20.161  26.591   3.713
15727W        W77258  35.482  11.365   0.838
15728W        W77259   5.729  40.992  11.403
15729W        W77260  13.701  27.483  11.121
15730W        W77261  37.847  13.214   3.316
15731W        W77262  18.271   0.796  12.946
15732W        W77263  22.502  31.103   0.293
15733W        W77264  18.736  40.344   1.313
15734W        W77265   4.713  20.648  13.934
15735W        W77266  15.584  24.682   0.346
15736W        W77267  27.588  36.502  10.511
15737W        W77268  21.582  32.077  13.473
15738W        W77269  36.582  41.500   1.929
15739W        W77270  28.438  29.921   1.931
15740W        W77271  32.934  38.864   0.316
15741W        W77272  12.176   2.421  11.594
15742W        W77273  22.032  12.316  11.466
15743W        W77274  16.736  29.562  11.955
15744W        W77275  19.144  38.911   0.786
15745W        W77276  38.512   5.862   1.747
15746W        W77277   8.399  44.455  10.561
15747W        W77278  14.187  33.417  10.560
15748W        W77279  31.029   3.369   0.940
15749W        W77280   4.207  41.297   4.122
15750W        W77281   0.494  42.325   3.380
15751W        W77282   0.905  29.111  14.282
15752W        W77283  27.163  10.747  13.049
15753W        W77284  38.526   5.376  14.854
15754W        W77285  38.871  37.572   3.271
15755W        W77286  27.633  36.477   0.778
15756W        W77287  39.004  18.596   0.470
15757W        W77288  22.143   3.766  11.919
15758W        W77289  26.565  12.700   2.873
15759W        W77290  27.182  29.058   1.825
15760W        W77291   1.833  43.410   3.231
15761W        W77292  38.393  26.993   4.792
15762W        W77293  22.649  35.412  13.352
15763W        W77294  19.545  18.239  12.995
15764W        W77295   3.306  19.185  13.429
15765W        W77296  37.032  39.899  11.903
15766W        W77297   3.230  44.760  11.407
15767W        W77298  32.500   7.176  14.839
15768W        W77299  20.043  33.088  14.951
15769W        W77300  33.982  26.666  14.973
15770W        W77301   7.794  35.994   3.230
15771W        W77302   4.387  37.486  10.934
15772W        W77303  22.035  26.158  12.922
15773W        W77304   2.878   5.215   1.806
15774W        W77305  15.129  14.249   5.111
15775W        W77306  33.415   0.377   3.195
15776W        W77307  26.475   2.426  11.596
15777W        W77308  33.118   6.236  11.997
15778W        W77309  19.251  27.029  11.960
15779W        W77310  16.273  10.314  13.004
15780W        W77311  36.592  22.170   4.237
15781W        W77312  27.074  36.868  14.852
15782W        W77313  44.875  30.059  11.041
15783W        W77314  28.177  16.297  10.460
15784W        W77315  42.790  34.448   3.319
15785W        W77316  25.979  16.264   3.297
15786W        W77317   5.882   8.866  12.430
15787W        W77318  35.023   2.423   1.917
15788W        W77319  18.627  12.853  13.403
15789W        W77320  24.672  42.909   2.667
15790W        W77321  43.362  41.826   4.188
15791W        W77322  13.621  20.184   0.415
15792W        W77323  16.722  22.620  12.942
15793W        W77324  10.651   0.422  14.020
15794W        W77325  13.784   3.263   3.361
15795W        W77326  18.292   3.872   0.245
15796W        W77327  27.130   3.275   5.296
15797W        W77328   3.338   8.188  12.081
15798W        W77329  42.788  24.533  14.356
15799W        W77330  25.584  32.128   4.724
15800W        W77331  17.227  37.372   2.882
15801W        W77332   0.296  33.060  11.073
15802W        W77333   8.385  37.909   0.737
15803W        W77334  39.888  31.015   4.194
15804W        W77335  29.947   1.781  14.340
15805W        W77336  29.138  38.394   2.899
15806W        W77337  12.362  27.552   3.796
15807W        W77338  37.864  19.603   4.286
15808W        W77339  27.576   7.213  14.969
15809W        W77340   2.439  33.484   5.130
15810W        W77341   3.728  21.085  12.055
15811W        W77342  13.262   1.844   1.251
15812W        W77343   8.381  13.694   2.210
15813W        W77344  27.980  23.003   1.818
15814W        W77345  40.379  39.485   0.416
15815W        W77346  37.854  10.281  11.016
15816W        W77347  39.968  27.111  13.842
15817W        W77348  21.684   3.940  11.564
15818W        W77349  25.519   7.798   3.312
15819W        W77350  20.678   9.383  14.884
15820W        W77351  28.460  34.937   3.165
15821W        W77352  25.624  26.652  14.506
15822W        W77353  15.617  19.716   4.227
15823W        W77354   9.776  38.974  13.906
15824W        W77355   7.320   5.391  14.871
15825W        W77356  17.125  28.556  14.839
15826W        W77357  31.008  28.617   3.326
15827W        W77358  29.545  19.564   0.904
15828W        W77359  42.430  24.980   1.841
15829W        W77360   1.353   4.400  13.464
15830W        W77361  19.141  35.463   3.196
15831W        W77362   8.357  37.026   1.296
15832W        W77363  11.686  15.195  10.597
15833W        W77364  20.090   9.173  10.937
15834W        W77365  10.251  43.993   4.309
15835W        W77366  35.577  28.585  11.102
15836W        W77367  37.917  11.847  11.459
15837W        W77368   6.902  42.522   2.337
15838W        W77369  19.668  25.105  12.346
15839W        W77370  43.306  38.952   1.257
15840W        W77371  39.521   3.790  12.446
15841W        W77372   1.776  22.743   2.781
15842W        W77373  25.217  24.077   1.334
15843W        W77374  29.582  12.271   2.877
15844W        W77375  23.175  40.995   1.831
15845W        W77376   0.769  17.222  14.787
15846W        W77377  25.044  38.354  10.584
15847W        W77378  32.563   2.855  10.613
15848W        W77379  35.977  19.566  14.791
15849W        W77380   8.396  42.321   0.246
15850W        W77381  12.138  11.715  12.510
15851W        W77382  19.539  33.963   0.302
15852W        W77383  40.798  13.347   2.189
15853W        W77384  43.439  31.929   1.269
15854W        W77385   7.272  33.483  11.855
15855W        W77386  30.105  20.730  11.554
15856W        W77387  28.093  26.668   1.249
15857W        W77388  37.484  18.697   4.339
15858W        W77389   9.390  23.704   2.198
15859W        W77390  28.547  43.450  14.997
15860W        W77391  32.491  31.510   4.760
15861W        W77392   3.450  16.307  12.035
15862W        W77393  19.535  19.223  13.817
15863W        W77394  22.233  20.535   1.283
15864W        W77395  10.717  28.564   2.414
15865W        W77396  18.791  36.901   4.599
15866W        W77397  11.188  28.178  12.074
15867W        W77398   9.831   3.257   5.314
15868W        W77399  24.600   3.907  10.889
15869W        W77400  29.098  29.627   3.219
15870W        W77401  10.664  31.100   9.954
15871W        W77402  21.584  36.479   0.306
15872W        W77403  28.647   5.270   4.113
15873W        W77404  43.944  14.758  11.473
15874W        W77405   2.803  20.719  12.971
15875W        W77406  43.484  30.099  14.783
15876W        W77407  20.031  27.125   5.704
15877W        W77408  40.936  13.835  10.566
15878W        W77409  32.497  38.849  12.431
15879W        W77410  23.590  44.966  12.919
15880W        W77411  11.187   9.369   3.154
15881W        W77412   0.470  11.194  10.995
15882W        W77413  34.007  14.728   4.772
15883W        W77414  31.016  20.531   2.700
15884W        W77415  31.492  22.688   2.696
15885W        W77416  31.137  23.054  11.518
15886W        W77417  26.025  12.266  12.071
15887W        W77418  17.079  10.204   4.767
15888W        W77419  34.484  27.190   3.770
15889W        W77420  19.744  21.611  11.570
15890W        W77421   5.724  36.541  12.033
15891W        W77422  22.231  39.379  10.428
15892W        W77423  24.519  43.311  14.978
15893W        W77424  29.005  23.111   2.211
15894W        W77425  24.125  13.775   3.752
15895W        W77426  25.054   2.961  13.430
15896W        W77427   8.260  23.207   1.809
15897W        W77428  22.525  42.940   4.300
15898W        W77429  15.132  31.513  14.326
15899W        W77430  34.472  21.100   3.264
15900W        W77431  24.076  12.792   2.824
15901W        W77432  24.493  21.041  13.821
15902W        W77433   2.958  33.078   4.754
15903W        W77434  15.652   7.196   0.389
15904W        W77435  17.276   2.337  10.563
15905W        W77436  44.481  15.324  14.504
15906W        W77437  19.246  23.643  13.852
15907W        W77438  12.274  11.252   3.241
15908W        W77439  44.325  36.877  13.823
15909W        W77440  21.023  12.731  11.944
15910W        W77441  29.081   8.739   4.700
15911W        W77442  15.150   5.340  14.905
15912W        W77443  11.229  19.273   4.210
15913W        W77444  24.626  12.848   0.472
15914W        W77445  32.603  34.092  11.114
15915W        W77446  11.346  33.441  13.986
15916W        W77447  38.042  38.987   0.806
15917W        W77448  15.583  11.631  14.950
15918W        W77449  44.906  28.531   2.808
15919W        W77450   3.900   3.370   4.175
15920W        W77451   5.368  37.056   2.701
15921W        W77452  40.337  26.516   1.834
15922W        W77453  39.369  32.583  11.508
15923W        W77454  21.223  14.150   0.826
15924W        W77455   7.900  11.261   1.221
15925W        W77456  41.390  25.052   1.371
15926W        W77457  16.118  21.225   0.737
15927W        W77458  44.993  13.636  14.969
15928W        W77459  23.666  16.660  11.979
15929W        W77460  22.148  34.027  14.436
15930W        W77461   4.727  29.950   1.758
15931W        W77462  40.884  39.415   1.909
15932W        W77463  43.444   6.901  12.467
15933W        W77464  17.575  31.041  13.043
15934W        W77465  27.177   0.426   2.772
15935W        W77466   3.788  10.691   2.850
15936W        W77467   9.847  19.596   3.722
15937W        W77468  37.909   7.177   2.792
15938W        W77469  20.579  35.913  14.016
15939W        W77470  24.511  20.232   4.690
15940W        W77471   2.228  36.068   2.728
15941W        W77472  43.868  44.266  12.826
15942W        W77473  21.145  38.493  13.007
15943W        W77474  38.036  12.664  13.367
15944W        W77475  18.716  19.191  11.606
15945W        W77476  44.369  24.175   4.169
15946W        W77477   5.760  44.792   1.840
15947W        W77478  15.756  43.861   0.755
15948W        W77479   1.354  27.603  13.528
15949W        W77480  43.011  37.546  14.407
15950W        W77481  40.307  28.629  12.920
15951W        W77482  33.095  30.488   0.794
15952W        W77483  21.710  25.194   1.883
15953W        W77484  19.619   9.333  13.419
15954W        W77485  31.512  11.853   0.306
15955W        W77486  44.965   7.189   0.742
15956W        W77487  40.940  21.697  13.799
15957W        W77488  11.836   6.396   1.291
15958W        W77489   2.789   1.891   1.387
15959W        W77490   3.232   0.444   4.811
15960W        W77491  14.765  39.476   4.326
15961W        W77492  17.097  21.191  13.947
15962W        W77493  24.615   5.281  13.407
15963W        W77494  28.643   3.279  14.850
15964W        W77495   5.843  16.733   4.302
15965W        W77496  10.374  11.734   4.777
15966W        W77497   4.810   8.809   1.413
15967W        W77498  44.436  28.583   1.848
15968W        W77499   3.328  33.077   3.745
15969W        W77500  28.161  23.558  10.418
15970W        W77501  18.791  26.029   2.690
15971W        W77502   8.743  16.754   9.974
15972W        W77503   5.702  40.943   2.319
15973W        W77504  23.667  21.252  12.061
15974W        W77505  24.172  40.915   2.305
15975W        W77506  16.299  15.278  11.591
15976W        W77507  33.521  31.640  10.933
15977W        W77508  24.161  26.656  14.331
15978W        W77509  26.972  26.661  12.383
15979W        W77510  21.523  27.545   0.964
15980W        W77511   2.943  24.675  11.504
15981W        W77512  40.528   1.744  11.410
15982W        W77513  42.914   9.298  10.461
15983W        W77514  33.919  16.220  12.915
15984W        W77515   8.717  32.443   3.258
15985W        W77516  44.887  15.200  10.619
15986W        W77517  39.322   4.795  12.995
15987W        W77518   1.924  30.154   4.310
15988W        W77519  26.562  10.240  11.881
15989W        W77520  37.994   3.931  12.923
15990W        W77521  42.302  36.589  10.590
15991W        W77522   6.301   7.226   3.658
15992W        W77523  34.436  20.095  14.406
15993W        W77524  20.742  22.689  11.421
15994W        W77525  27.669  31.573   2.336
15995W        W77526  43.293  30.077   3.192
15996W        W77527  15.109  31.498   1.352
15997W        W77528  44.999  44.961  12.872
15998W        W77529  19.679  16.156   4.122
15999W        W77530  18.276  37.544  14.009
16000W        W77531  23.563  34.483   4.267
16001W        W77532  40.866  19.276   2.410
16002W        W77533  28.039  26.513  14.920
16003W        W77534  34.383  20.052  10.432
16004W        W77535   0.266  16.574  11.464
16005W        W77536   7.760  11.755   0.349
16006W        W77537  39.872  26.636  14.281
16007W        W77538   5.374  33.509  12.341
16008W        W77539  15.121  17.301  10.444
16009W        W77540   0.960   4.413   0.433
16010W        W77541   3.779  30.966   3.339
16011W        W77542  28.148  40.034   3.759
16012W        W77543  44.822   5.922  12.398
16013W        W77544  36.368   2.827   0.815
16014W        W77545  40.407  39.322  11.452
16015W        W77546   8.218   2.802  11.421
16016W        W77547  34.419  16.163   3.150
16017W        W77548   7.387   6.270   4.246
16018W        W77549  18.084  20.106   4.289
16019W        W77550  22.666  30.035   5.298
16020W        W77551  12.265   7.407   3.859
16021W        W77552  26.065  19.201   3.370
16022W        W77553   0.875   3.353   4.608
16023W        W77554   2.305  37.526   0.920
16024W        W77555  16.589  23.526   3.819
16025W        W77556  41.918  16.663   4.184
16026W        W77557  10.382  43.824   3.299
16027W        W77558  38.524  32.075   2.783
16028W        W77559  18.229  22.706   1.271
16029W        W77560  10.664  27.463   3.648
16030W        W77561  10.861  13.717  13.993
16031W        W77562  36.059  16.101  11.123
16032W        W77563  10.297  38.907  14.411
16033W        W77564  43.802  43.857   0.380
16034W        W77565   6.742  23.661  11.949
16035W        W77566  19.645   8.218  13.032
16036W        W77567   9.851  10.873   3.217
16037W        W77568  23.684  15.189  10.549
16038W        W77569  26.518   1.787  12.576
16039W        W77570  12.667  26.161  11.531
16040W        W77571  15.305  41.497  12.065
16041W        W77572  31.052  28.983  14.502
16042W        W77573   8.382  40.506   3.809
16043W        W77574  36.917   2.898  14.984
16044W        W77575  40.443  37.579   2.794
16045W        W77576  21.116  34.576   2.410
16046W        W77577  41.039  25.136   4.662
16047W        W77578  27.673  28.668   4.168
16048W        W77579   2.301  12.719  10.039
16049W        W77580   3.815  15.696  14.454
16050W        W77581  41.498  36.584   4.755
16051W        W77582  10.182  21.717  10.411
16052W        W77583  27.034  16.244   4.675
16053W        W77584  38.045  29.969  10.641
16054W        W77585  32.556  25.043  14.335
16055W        W77586  10.785   1.769  12.872
16056W        W77587   0.459  34.610   3.646
16057W        W77588   7.876   7.390  10.432
16058W        W77589  36.980  16.611  14.383
16059W        W77590  11.130  14.800   2.384
16060W        W77591  16.595  36.995  10.902
16061W        W77592   6.863  16.219   3.324
16062W        W77593   3.303  28.030   0.905
16063W        W77594  44.763  28.955  10.962
16064W        W77595  24.099  20.069  11.902
16065W        W77596   8.224   5.306  11.954
16066W        W77597  42.384   9.283  13.520
16067W        W77598  41.892   7.173  10.107
16068W        W77599  33.101  39.428   2.393
16069W        W77600  31.983  37.530  11.892
16070W        W77601  12.185   7.854   0.803
16071W        W77602  35.961  44.468   1.332
16072W        W77603  20.751   7.287   4.635
16073W        W77604  19.200  12.223  12.078
16074W        W77605  14.225  19.554  10.929
16075W        W77606  35.921  26.524   0.927
16076W        W77607  13.109  32.462  11.589
16077W        W77608   3.794   6.372   2.363
16078W        W77609  42.428   9.868  13.523
16079W        W77610  27.074  20.173   2.406
16080W        W77611  22.120  37.409  12.488
16081W        W77612   4.814  32.600   1.442
16082W        W77613  11.836  38.971  10.588
16083W        W77614  15.108   0.487  12.905
16084W        W77615  17.245  31.519   3.363
16085W        W77616  19.054  17.789   0.459
16086W        W77617  13.809  19.661  14.370
16087W        W77618  43.862  23.645   2.334
16088W        W77619  18.657  11.327   4.667
16089W        W77620   7.286   4.440   0.946
16090W        W77621   1.475  35.592   2.342
16091W        W77622  18.578  27.603   1.350
16092W        W77623  43.484  15.631   0.932
16093W        W77624  15.745  22.565   2.194
16094W        W77625  22.612  21.546  12.043
16095W        W77626  27.496  19.270   2.273
16096W        W77627   0.798  37.449   1.361
16097W        W77628  11.156  31.979   2.670
16098W        W77629  36.562  22.030  14.789
16099W        W77630  17.094   9.342   2.412
16100W        W77631  15.135  10.315   9.958
16101W        W77632  36.496   7.180   1.934
16102W        W77633   2.429  12.135  12.517
16103W        W77634  34.967   5.254  11.003
16104W        W77635  36.953  35.029   3.762
16105W        W77636  32.047  20.654   4.115
16106W        W77637  30.460   3.290  11.572
16107W        W77638  30.585  17.632  10.898
16108W        W77639   8.391  34.957   1.301
16109W        W77640   2.872  42.310   1.760
16110W        W77641  27.993  13.629  13.950
16111W        W77642   0.361   4.773   0.405
16112W        W77643   3.376  13.612  12.353
16113W        W77644  34.594  38.477  13.984
16114W        W77645  26.202  30.525   0.375
16115W        W77646   4.912   4.707  10.969
16116W        W77647  32.040   5.905   3.213
16117W        W77648  13.230   4.862   4.307
16118W        W77649  39.930  43.797   0.765
16119W        W77650  42.299  13.328   1.917
16120W        W77651   0.960  21.725   2.765
16121W        W77652  18.767  44.925   0.408
16122W        W77653  30.487  34.609  14.800
16123W        W77654  10.875  41.907   1.294
16124W        W77655  22.736  25.025  14.510
16125W        W77656  18.780  21.132  14.835
16126W        W77657  21.645   6.193   3.853
16127W        W77658  18.225  24.500  13.846
16128W        W77659  44.501  28.486   2.410
16129W        W77660  30.559   4.303  13.850
16130W        W77661  26.641  40.353  11.113
16131W        W77662   0.813  17.247   9.955
16132W        W77663  36.549  31.418  12.899
16133W        W77664  15.717  41.024   0.920
16134W        W77665   3.239  12.243   3.287
16135W        W77666   9.688   4.264  11.979
16136W        W77667   4.253  44.348  10.970
16137W        W77668   0.922  29.104   0.274
16138W        W77669   4.421  27.459   3.148
16139W        W77670   6.426  20.617  14.415
16140W        W77671   7.327  43.461  13.535
16141W        W77672  33.450  36.557  11.471
16142W        W77673  39.887  40.978  11.083
16143W        W77674  42.881  20.709   1.345
16144W        W77675  11.373   0.292  12.440
16145W        W77676  21.105  11.279   2.762
16146W        W77677   5.342  25.102   2.728
16147W        W77678  30.101  25.153   3.272
16148W        W77679  41.895  20.556  14.509
16149W        W77680  26.683  18.109   3.841
16150W        W77681  39.834  14.624   3.807
16151W        W77682  39.558   3.315   4.278
16152W        W77683   2.318   3.261   1.213
16153W        W77684  34.585  10.230  10.939
16154W        W77685  27.977  43.853   1.836
16155W        W77686  32.964  14.629   3.838
16156W        W77687   7.723  34.046  10.569
16157W        W77688  30.038  27.556   0.365
16158W        W77689  18.633  23.558  14.775
16159W        W77690  24.070  28.556   9.625
16160W        W77691  16.803   2.429   0.746
16161W        W77692   2.407   2.337  11.400
16162W        W77693  30.021  36.089  12.499
16163W        W77694  23.600  44.375  11.607
16164W        W77695   8.685  34.529   2.804
16165W        W77696  10.841  42.996   1.293
16166W        W77697  41.926  27.978  14.912
16167W        W77698  39.324  35.482  12.426
16168W        W77699  31.966  42.433   2.371
16169W        W77700   0.857  44.878  12.077
16170W        W77701  26.496  26.053  12.947
16171W        W77702   3.263  34.611  14.358
16172W        W77703  21.639  40.021   0.768
16173W        W77704  14.250  32.112   3.668
16174W        W77705  33.042  25.598   2.347
16175W        W77706  43.820  35.505  12.916
16176W        W77707   9.744   8.201   3.668
16177W        W77708  21.708   1.750   2.839
16178W        W77709  17.210  16.759   1.918
16179W        W77710  16.242  32.949   3.651
16180W        W77711  18.666  38.466   3.641
16181W        W77712  23.122  24.154  10.611
16182W        W77713   2.790  10.216  12.015
16183W        W77714  24.519  36.094   3.663
16184W        W77715  15.751  30.157  14.503
16185W        W77716  29.430  16.667  14.890
16186W        W77717  38.553  29.039  10.454
16187W        W77718   3.895   6.200  11.455
16188W        W77719  21.568   5.735  12.919
16189W        W77720  11.253  38.546  13.978
16190W        W77721  17.640  39.808   0.881
16191W        W77722  33.118   6.190  10.986
16192W        W77723  24.202  16.733  11.389
16193W        W77724  42.959  38.926   0.774
16194W        W77725  35.053  41.476   0.449
16195W        W77726   9.322   4.223  13.064
16196W        W77727  23.076  14.156   4.142
16197W        W77728   5.395  29.109   1.870
16198W        W77729  15.129  32.065   0.848
16199W        W77730   7.831  16.291  10.582
16200W        W77731  39.005  40.965  12.994
16201W        W77732  27.084   7.356  12.830
16202W        W77733  29.077  28.987  10.924
16203W        W77734  13.255   2.747   2.887
16204W        W77735  11.812  32.968  12.529
16205W        W77736  43.354  43.277  14.774
16206W        W77737  33.577  40.919  10.956
16207W        W77738  32.002  15.657   3.784
16208W        W77739   3.283  23.065   0.350
16209W        W77740  19.668  19.598   3.171
16210W        W77741  38.042  39.901  10.558
16211W        W77742   3.425  11.370  11.016
16212W        W77743  26.674  35.504   3.345
16213W        W77744  18.747  15.147  12.845
16214W        W77745  13.326  43.013  14.956
16215W        W77746  25.540  35.896   2.315
16216W        W77747  33.959  33.115   0.356
16217W        W77748  21.595   5.894   2.221
16218W        W77749  13.309  16.124  11.022
16219W        W77750   6.705  15.692   3.638
16220W        W77751  38.011  40.837   9.965
16221W        W77752   0.745  15.635  14.404
16222W        W77753  43.339  17.144  13.361
16223W        W77754   3.324   3.402   1.908
16224W        W77755  19.193  11.222   2.850
16225W        W77756   4.792  14.665  12.507
16226W        W77757   3.912  28.055  12.067
16227W        W77758   5.761  17.137  11.022
16228W        W77759  42.997  25.659  10.630
16229W        W77760  14.796  23.125   1.392
16230W        W77761  15.630  28.074   2.354
16231W        W77762   6.324  38.950  12.949
16232W        W77763  21.210  36.028  10.027
16233W        W77764  44.346  34.483   4.764
16234W        W77765   5.723  28.932  12.957
16235W        W77766  11.227  44.993  11.913
16236W        W77767  35.556  31.442   4.289
16237W        W77768  18.685  17.184   0.330
16238W        W77769  36.029  36.087   2.344
16239W        W77770   4.295  23.179   4.612
16240W        W77771  32.472  32.487   4.682
16241W        W77772   2.720  18.284   2.786
16242W        W77773   4.448  42.863   0.732
16243W        W77774   4.852  30.008  10.954
16244W        W77775  21.098  18.675   4.166
16245W        W77776   8.710  29.176  14.815
16246W        W77777  13.139  32.482  12.467
16247W        W77778  27.031  37.898   3.309
16248W        W77779  25.532  11.154   3.197
16249W        W77780  41.394  35.446  14.337
16250W        W77781  38.501  40.530   3.245
16251W        W77782  21.637   3.824  14.342
16252W        W77783  23.205  22.659   2.800
16253W        W77784  14.262   0.493   1.340
16254W        W77785  24.596  26.162   3.845
16255W        W77786  13.846  14.233   2.797
16256W        W77787  13.251   0.310  12.858
16257W        W77788  23.147  13.132   1.721
16258W        W77789   3.797   3.842   1.913
16259W        W77790  20.614   3.269   5.191
16260W        W77791  39.840  24.587  12.070
16261W        W77792  24.110  25.534  11.592
16262W        W77793  18.687  35.441   3.260
16263W        W77794  37.857  20.529   2.366
16264W        W77795   4.756   2.398   4.115
16265W        W77796   2.888  35.017  14.341
16266W        W77797  21.160  39.821   5.124
16267W        W77798   3.327  12.778   2.209
16268W        W77799  43.953  13.153  13.890
16269W        W77800  31.127  39.327   4.823
16270W        W77801  11.158  14.742   4.334
16271W        W77802  27.990   5.233  11.505
16272W        W77803  43.465  44.492   2.854
16273W        W77804   8.756  24.170  13.487
16274W        W77805  41.482  17.256   4.825
16275W        W77806  41.837  34.601  10.067
16276W        W77807  41.025  39.923   2.208
16277W        W77808  20.119  14.246   3.639
16278W        W77809  19.164  31.978  13.898
16279W        W77810  27.032  33.074   4.793
16280W        W77811  24.503  34.033  10.136
16281W        W77812   7.351  42.435   2.369
16282W        W77813  36.557   8.360  11.862
16283W        W77814  33.055   6.221   1.446
16284W        W77815  28.018   7.886  11.099
16285W        W77816   3.854  28.505  13.054
16286W        W77817  30.421   5.313   4.807
16287W        W77818   9.167  43.305   0.760
16288W        W77819  40.434  18.785   0.461
16289W        W77820   8.289  22.203  12.862
16290W        W77821  23.705   9.734   1.727
16291W        W77822  27.054  12.356  13.024
16292W        W77823  18.761   9.656  14.378
16293W        W77824  30.010  38.071   3.654
16294W        W77825  29.525  39.960   3.347
16295W        W77826  30.089  15.668  12.452
16296W        W77827  37.463   1.290  14.941
16297W        W77828  28.643  31.146   1.822
16298W        W77829   8.798   6.718   2.889
16299W        W77830   2.464  36.000   1.273
16300W        W77831  28.456  24.519   3.248
16301W        W77832   8.883  42.497  13.391
16302W        W77833  34.582  43.354   2.751
16303W        W77834  16.693  12.825   0.848
16304W        W77835  10.728  23.165   0.778
16305W        W77836  12.714  28.982  14.838
16306W        W77837  41.818  40.927   4.772
16307W        W77838  25.565  17.620  10.472
16308W        W77839  10.334  15.276  11.041
16309W        W77840  37.367  40.512   5.235
16310W        W77841  31.000  14.780   1.301
16311W        W77842  42.283  26.169  11.906
16312W        W77843  36.065  23.090   3.342
16313W        W77844  14.665  10.189   2.713
16314W        W77845  28.568   3.294   0.745
16315W        W77846  12.700   6.375   2.204
16316W        W77847  44.266  42.858   2.852
16317W        W77848   6.403  10.352   2.264
16318W        W77849  44.900  33.974  14.377
16319W        W77850  34.032  33.623   4.176
16320W        W77851  20.201  27.015   1.414
16321W        W77852  41.862  12.852   0.356
16322W        W77853  23.146  15.116  14.821
16323W        W77854  26.593   6.187   2.742
16324W        W77855   9.678  43.357  11.603
16325W        W77856  28.940   4.892  12.026
16326W        W77857  44.989   6.308  14.776
16327W        W77858   6.849  37.572  10.970
16328W        W77859  10.314  20.717  10.501
16329W        W77860  20.260   9.808  11.999
16330W        W77861  13.700  24.575  12.498
16331W        W77862  17.274   2.228  13.919
16332W        W77863  37.870  36.496   4.755
16333W        W77864  27.539  26.121  12.002
16334W        W77865  13.169  30.107   1.873
16335W        W77866   5.909  13.239   2.281
16336W        W77867  33.973  34.377  10.947
16337W        W77868   5.256   8.293  12.343
16338W        W77869  17.129   3.898   2.325
16339W        W77870  30.121   7.732   5.152
16340W        W77871   1.316  25.160   5.793
16341W        W77872  37.524  26.000   0.376
16342W        W77873  19.095  15.295  13.933
16343W        W77874  20.538  27.137   4.247
16344W        W77875  27.995  34.991   5.302
16345W        W77876  38.930  42.791  10.895
16346W        W77877  25.130   5.759   3.296
16347W        W77878  20.646  19.535  13.008
16348W        W77879  30.938   6.221   2.728
16349W        W77880  10.877   4.324   1.802
16350W        W77881  10.685  28.448  14.443
16351W        W77882   2.954  28.560  13.825
16352W        W77883  14.238   8.287   4.202
16353W        W77884  13.279  25.069   2.247
16354W        W77885   5.842  11.241  13.012
16355W        W77886   0.301   7.844   3.343
16356W        W77887  39.507  43.305  13.891
16357W        W77888  42.327  26.667   1.240
16358W        W77889  16.710  42.031  13.015
16359W        W77890  35.970  24.698  13.343
16360W        W77891   5.886  31.607  14.316
16361W        W77892  36.987  18.694  12.090
16362W        W77893  16.691  20.658  13.930
16363W        W77894  12.649  21.104   1.796
16364W        W77895  36.461  27.663  13.054
16365W        W77896  18.110  35.049  11.935
16366W        W77897  17.182   4.353   4.248
16367W        W77898  20.738  31.578  14.274
16368W        W77899   0.911   1.447   4.831
16369W        W77900  12.210  37.942   4.202
16370W        W77901   0.319  22.204  14.404
16371W        W77902  34.545  28.565  13.875
16372W        W77903  33.561  27.552   4.238
16373W        W77904  35.996  18.175  14.440
16374W        W77905  29.455  31.024   4.792
16375W        W77906  38.460  25.981  13.533
16376W        W77907  29.062  40.038  12.910
16377W        W77908  14.278  11.714  14.448
16378W        W77909   8.258  35.388   3.866
16379W        W77910  21.181  30.024   5.242
16380W        W77911  16.603  31.498  12.037
16381W        W77912  33.536  15.723   1.701
16382W        W77913   7.814  42.463   1.873
16383W        W77914  39.432   5.430  12.921
16384W        W77915   5.774  35.378   1.869
16385W        W77916  41.801  27.968   3.255
16386W        W77917  31.523  36.358   2.382
16387W        W77918  40.862  15.199  12.518
16388W        W77919   2.804  24.562   2.812
16389W        W77920  34.584  39.852  11.005
16390W        W77921  44.311  27.489   0.926
16391W        W77922   7.878  33.474  10.425
16392W        W77923  23.999  15.789   1.822
16393W        W77924  41.006   4.704   0.459
16394W        W77925   0.448  12.776   3.157
16395W        W77926  31.956  25.136   2.267
16396W        W77927  41.508  22.034   4.642
16397W        W77928  41.020  15.783  14.997
16398W        W77929  24.517   8.777   3.314
16399W        W77930  41.300  16.611   3.165
16400W        W77931   8.885  39.006   2.870
16401W        W77932  31.926   7.286  13.021
16402W        W77933  22.719   7.873  14.862
16403W        W77934  18.060   8.789   2.720
16404W        W77935  11.160   5.242   3.773
16405W        W77936   1.759  17.634   2.903
16406W        W77937  10.170  23.655  14.432
16407W        W77938  33.879  35.471   0.868
16408W        W77939   4.333  33.120   1.277
16409W        W77940   7.281  22.115  12.990
16410W        W77941  19.713   3.252   9.935
16411W        W77942  17.207   8.794   0.953
16412W        W77943  38.977   7.246  14.306
16413W        W77944   8.714   8.290   0.482
16414W        W77945   3.378  42.376  11.054
16415W        W77946  21.104  37.942  10.527
16416W        W77947   8.205  43.844  11.447
16417W        W77948  44.839  10.763  14.424
16418W        W77949  16.663   6.324  12.969
16419W        W77950  39.337   9.203  11.430
16420W        W77951  27.031   3.802   2.679
16421W        W77952  21.599  35.469   4.810
16422W        W77953  37.980  24.148  10.460
16423W        W77954  23.647  35.516   1.734
16424W        W77955  25.495  43.799   3.243
16425W        W77956  18.757   1.897   2.872
16426W        W77957  12.762  32.522  12.872
16427W        W77958  25.503  26.673   1.234
16428W        W77959  44.358   9.736   4.698
16429W        W77960  22.135  33.023  12.381
16430W        W77961   2.923   2.351  13.064
16431W        W77962  27.676  28.620  14.968
16432W        W77963   4.432  41.953  10.589
16433W        W77964   7.808   0.414   0.967
16434W        W77965  43.962  40.323   1.248
16435W        W77966  30.067   5.358  11.594
16436W        W77967  29.011   2.748   2.230
16437W        W77968  16.685  20.632   1.834
16438W        W77969  14.163  44.402   3.776
16439W        W77970   6.410  40.039   0.873
16440W        W77971  32.452  26.598   1.324
16441W        W77972   4.440  20.117   1.266
16442W        W77973   4.728  43.376  12.406
16443W        W77974   0.948  42.986   9.929
16444W        W77975  44.933  34.421   1.302
16445W        W77976  14.127   0.352   0.479
16446W        W77977  38.017   8.323  10.133
16447W        W77978  11.358   9.152  12.907
16448W        W77979  21.239  20.754  11.014
16449W        W77980  26.550   5.395   2.798
16450W        W77981  28.490  44.289  13.446
16451W        W77982  26.595  38.544  11.485
16452W        W77983  12.236  17.281  11.931
16453W        W77984   3.926   6.883   1.830
16454W        W77985  31.019  30.466   3.218
16455W        W77986   0.305  22.678  10.035
16456W        W77987  31.426  33.952  14.302
16457W        W77988  29.937  44.841   3.154
16458W        W77989  41.985  14.279  11.991
16459W        W77990   2.910  44.992   1.726
16460W        W77991   5.273  39.881  11.546
16461W        W77992  11.714  43.389   2.664
16462W        W77993   4.207  20.526  12.478
16463W        W77994  37.881  37.072   0.965
16464W        W77995  30.059  43.949   1.792
16465W        W77996  42.377  27.986   4.287
16466W        W77997  40.534  15.329  14.984
16467W        W77998  26.492  24.973   4.792
16468W        W77999  33.059  22.574  10.590
16469W        W78000  30.925  13.716   0.303
16470W        W78001  16.194  15.252   4.148
16471W        W78002   2.956  27.537   2.285
16472W        W78003  34.941  19.103   1.876
16473W        W78004  18.572  14.675  14.431
16474W        W78005  14.140  38.359  13.456
16475W        W78006  26.573   2.270   0.777
16476W        W78007  27.969  13.195  11.075
16477W        W78008  34.435  44.877  13.342
16478W        W78009  30.953  28.465  12.071
16479W        W78010  15.629  22.132   5.782
16480W        W78011  40.992  32.544   2.699
16481W        W78012  37.381  19.093   2.662
16482W        W78013   8.806  41.904  14.804
16483W        W78014  10.829  30.612  10.578
16484W        W78015  37.892   9.240  12.093
16485W        W78016   3.862  12.723  12.574
16486W        W78017   6.326  17.202   3.297
16487W        W78018   2.393  39.986   2.822
16488W        W78019  40.509  38.979  10.517
16489W        W78020   5.435  35.057   2.805
16490W        W78021  13.278  22.713  14.978
16491W        W78022  38.401  24.132   4.296
16492W        W78023  12.334  13.756   0.942
16493W        W78024  32.624  25.193  13.437
16494W        W78025  31.531  41.398  14.416
16495W        W78026  39.510  40.883   4.114
16496W        W78027  16.585  22.084   2.308
16497W        W78028  30.534  19.695   0.803
16498W        W78029  43.854  19.101  12.078
16499W        W78030   8.312  41.457   0.883
16500W        W78031  26.039  37.073   0.822
16501W        W78032   0.780  25.505  12.003
16502W        W78033   3.365  16.662  11.449
16503W        W78034  30.129   1.732  11.377
16504W        W78035   6.797  17.144  10.432
16505W        W78036  18.580   7.408   1.211
16506W        W78037  10.271   8.875  10.523
16507W        W78038   6.885  14.312   3.828
16508W        W78039   6.267  41.918   0.885
16509W        W78040  32.450   7.826  13.843
16510W        W78041  16.271  27.629  13.526
16511W        W78042  33.532  42.491   3.156
16512W        W78043  24.209  13.259  12.855
16513W        W78044  35.599  35.934  10.013
16514W        W78045  36.057  31.913   3.736
16515W        W78046  44.494  19.057  13.506
16516W        W78047  21.219  41.528   0.900
16517W        W78048   0.431   4.449   0.325
16518W        W78049  22.223   2.335   0.466
16519W        W78050   6.716  29.920   0.290
16520W        W78051   0.353  24.627  10.117
16521W        W78052  43.440   0.385   1.261
16522W        W78053  29.040  29.561  14.440
16523W        W78054  34.064   2.429   0.272
16524W        W78055  30.057  18.262  14.459
16525W        W78056  33.602  36.445   0.288
16526W        W78057  26.508  41.855   2.726
16527W        W78058  28.017   2.396   0.758
16528W        W78059   0.775  30.084   2.789
16529W        W78060  22.721  35.462   0.259
16530W        W78061  34.392  27.045   1.232
16531W        W78062  17.578  20.755   2.666
16532W        W78063  24.533  38.061  14.858
16533W        W78064  43.956  17.630  13.903
16534W        W78065   0.474   6.915   2.708
16535W        W78066  23.605   0.893   0.868
16536W        W78067  13.148  26.556   1.399
16537W        W78068  26.504  20.146   3.225
16538W        W78069   7.801  40.026   1.332
16539W        W78070  17.218  26.591  10.630
16540W        W78071  24.492  44.763  10.975
16541W        W78072  35.921  43.303  12.890
16542W        W78073  16.164  36.537   2.790
16543W        W78074  39.880   9.329   2.323
16544W        W78075   9.201   5.804  14.284
16545W        W78076  15.734   4.904   4.774
16546W        W78077  10.763  39.408   0.893
16547W        W78078  10.832   6.346  11.505
16548W        W78079  43.457  23.576   0.256
16549W        W78080  22.180  37.901  13.492
16550W        W78081   7.317  14.686  10.624
16551W        W78082  34.469   4.939  14.430
16552W        W78083  13.350  44.440   2.409
16553W        W78084  11.754  30.951   2.817
16554W        W78085   8.269  23.626  13.995
16555W        W78086  19.196  33.563  12.898
16556W        W78087   1.312  35.500   0.288
16557W        W78088  28.653   4.790  14.865
16558W        W78089   1.386  21.174  11.954
16559W        W78090  13.301   1.448   4.140
16560W        W78091  29.936  40.311  13.843
16561W        W78092  33.984  20.543  10.455
16562W        W78093  10.773  18.281   4.706
16563W        W78094  20.638  24.590  14.361
16564W        W78095   6.767  37.440  10.430
16565W        W78096  13.155  44.828   2.675
16566W        W78097   2.916  32.143   0.966
16567W        W78098   7.355  36.949   1.709
16568W        W78099  27.181   8.379  13.428
16569W        W78100  10.644   5.293  11.440
16570W        W78101  34.607   3.365  12.006
16571W        W78102  31.611   0.312   0.734
16572W        W78103  35.081  40.476  11.867
16573W        W78104  19.632  25.708  11.051
16574W        W78105   6.418  23.994  14.021
16575W        W78106  13.828  37.900   0.376
16576W        W78107  20.650  24.126  11.425
16577W        W78108  44.997  25.498   2.393
16578W        W78109  27.059  33.453  14.456
16579W        W78110  35.034  36.034   9.440
16580W        W78111   6.308   1.373   3.721
16581W        W78112  23.120   7.879  10.620
16582W        W78113   7.294   1.450   0.958
16583W        W78114  23.116  21.557   0.287
16584W        W78115  18.260   4.388  12.902
16585W        W78116  25.615  22.049  10.961
16586W        W78117   7.690   7.898  13.423
16587W        W78118  13.206  30.606  11.532
16588W        W78119   1.796   9.301  13.856
16589W        W78120  33.035  21.703  10.955
16590W        W78121   1.437  42.316  14.993
16591W        W78122  13.114  44.972  10.460
16592W        W78123   3.717   0.865  11.430
16593W        W78124  31.522  14.230   2.693
16594W        W78125  10.356  34.937   3.634
16595W        W78126  34.099  23.178  10.603
16596W        W78127  27.107  38.952   2.368
16597W        W78128  15.597  11.180  11.414
16598W        W78129  37.915  30.595   1.443
16599W        W78130   7.856  43.781  12.439
16600W        W78131  39.895  37.428   2.400
16601W        W78132   3.271  40.015  13.527
16602W        W78133  36.507  20.148   4.696
16603W        W78134  14.602  12.282   2.378
16604W        W78135  36.505  30.928   2.855
16605W        W78136   4.800  14.217   2.839
16606W        W78137   1.925  27.121  12.934
16607W        W78138  14.314  43.506  13.971
16608W        W78139  32.109  10.675  11.898
16609W        W78140  14.676  24.535  10.902
16610W        W78141   2.775  35.904  10.548
16611W        W78142  18.174   6.216   0.943
16612W        W78143   1.479  36.567  10.581
16613W        W78144  29.620  25.001   4.275
16614W        W78145  19.757   7.780  12.554
16615W        W78146  20.751  40.913  14.979
16616W        W78147   5.284  22.045  11.858
16617W        W78148  43.979  16.802  14.952
16618W        W78149   0.767  33.582   3.210
16619W        W78150  31.945  10.701   1.299
16620W        W78151  12.335   7.788   2.722
16621W        W78152   2.333   3.443   3.692
16622W        W78153  24.209  12.298  14.862
16623W        W78154   5.196  27.167  12.078
16624W        W78155   4.858  39.505  10.916
16625W        W78156  16.255  20.235  13.921
16626W        W78157  32.444  44.890   1.308
16627W        W78158  42.009  36.954   0.951
16628W        W78159  16.681  20.096  14.511
16629W        W78160  42.898  40.904   0.869
16630W        W78161  37.562  10.339   0.361
16631W        W78162  19.584   7.848  14.277
16632W        W78163  12.835  19.226   1.249
16633W        W78164   8.363  19.670  11.610
16634W        W78165  19.283  29.929  10.450
16635W        W78166   3.745  34.440   2.777
16636W        W78167   7.242  26.971   1.908
16637W        W78168   9.776   7.878   1.212
16638W        W78169  35.963   8.870   0.434
16639W        W78170   7.676   1.822  12.950
16640W        W78171  33.965  43.284  10.973
16641W        W78172  13.344  17.140   2.892
16642W        W78173  34.590  34.414  13.407
16643W        W78174   7.680  44.778   0.412
16644W        W78175  39.979  25.113   2.714
16645W        W78176  11.860  44.461   3.332
16646W        W78177  44.459  34.960  10.152
16647W        W78178   3.872  11.242   1.751
16648W        W78179   3.260   3.332  12.078
16649W        W78180   5.427  38.884   1.343
16650W        W78181   6.183  35.572  10.931
16651W        W78182  21.149  26.504  12.858
16652W        W78183  27.602  44.468   4.739
16653W        W78184  10.847  26.963  12.509
16654W        W78185  31.567  30.162   2.786
16655W        W78186   2.370  24.529  12.548
16656W        W78187  39.002   3.859   4.256
16657W        W78188  33.879  22.568   2.811
16658W        W78189  27.083  26.584  13.863
16659W        W78190  29.612  44.871   1.308
16660W        W78191  17.252  19.269  14.813
16661W        W78192  41.528   4.879   4.270
16662W        W78193  27.682  42.465   4.200
16663W        W78194  33.114  19.230   3.840
16664W        W78195  36.955  14.255   1.288
16665W        W78196  11.753  29.077   4.749
16666W        W78197  17.562  10.645   1.814
16667W        W78198  23.008  39.990   0.342
16668W        W78199  33.016  10.179   3.852
16669W        W78200  19.150  26.623   3.318
16670W        W78201  37.884  31.064  14.805
16671W        W78202   7.259  40.936   1.366
16672W        W78203  13.656  35.083   4.255
16673W        W78204  11.268  20.060  12.936
16674W        W78205  27.078  37.086   4.632
16675W        W78206  33.914  11.642   3.343
16676W        W78207   0.277  15.229   4.616
16677W        W78208  15.657  32.998  14.823
16678W        W78209  43.782  40.391   0.853
16679W        W78210  39.834   1.392  13.411
16680W        W78211  42.324  24.528  14.405
16681W        W78212  34.368  32.605   0.850
16682W        W78213  14.235   4.895   0.847
16683W        W78214   6.844  40.387  10.574
16684W        W78215   5.926  26.460  13.384
16685W        W78216  23.677  27.503   2.873
16686W        W78217  26.496  15.823  12.023
16687W        W78218  21.091   1.875   3.813
16688W        W78219  20.064  38.000   3.743
16689W        W78220  41.007  43.476   4.241
16690W        W78221  38.381  35.385   1.362
16691W        W78222  43.806   1.925  14.415
16692W        W78223   6.217  12.747  10.632
16693W        W78224   1.468  29.127  14.488
16694W        W78225  29.073  42.505   2.719
16695W        W78226  31.603  19.118  12.899
16696W        W78227  14.712  17.670   1.323
16697W        W78228  36.091   1.963   4.340
16698W        W78229  26.694  12.276   0.769
16699W        W78230  11.263   5.933   0.840
16700W        W78231  24.670  12.615   2.235
16701W        W78232  44.423  28.102  13.822
16702W        W78233  17.768  19.146  10.563
16703W        W78234   6.797   3.235  10.947
16704W        W78235  21.093  35.541  13.352
16705W        W78236  43.943  16.696  10.911
16706W        W78237  31.922  10.760  12.897
16707W        W78238  31.559  24.532   1.311
16708W        W78239  11.371  35.089   0.274
16709W        W78240  36.430  14.138   0.802
16710W        W78241  25.500  32.419   1.766
16711W        W78242  42.800   4.731  12.943
16712W        W78243  33.524   4.328  11.919
16713W        W78244  13.661   5.313  12.397
16714W        W78245  30.028  37.889   1.257
16715W        W78246  37.497  24.723  13.001
16716W        W78247  43.963  12.695  10.518
16717W        W78248  28.668  43.881   3.786
16718W        W78249  19.269  10.167  10.986
16719W        W78250   5.741  27.619   1.410
16720W        W78251  20.529  25.010   0.814
16721W        W78252  16.192  24.671   2.350
16722W        W78253  43.328  27.034  12.970
16723W        W78254  23.984  19.082   0.324
16724W        W78255  31.566  38.394   4.221
16725W        W78256  39.873   9.355  13.508
16726W        W78257  13.604   6.269  13.920
16727W        W78258   0.818  10.294   2.257
16728W        W78259  36.416  28.083  12.918
16729W        W78260  10.160  17.229   0.478
16730W        W78261  14.630  30.448  13.980
16731W        W78262  41.042  21.551  12.086
16732W        W78263   1.935  34.048   3.259
16733W        W78264  30.434  15.707  11.073
16734W        W78265  22.233  41.817  10.896
16735W        W78266  32.523   7.410   2.356
16736W        W78267   8.306  16.750  10.925
16737W        W78268  29.538  30.438   1.252
16738W        W78269  12.257  22.996  13.354
16739W        W78270  26.105  18.133  14.837
16740W        W78271   9.795  17.120  13.839
16741W        W78272  18.556  21.025   1.266
16742W        W78273  29.007  18.765   3.171
16743W        W78274  17.635  23.174  13.807
16744W        W78275  10.328   2.778  13.853
16745W        W78276  13.785  10.333  10.953
16746W        W78277  43.285   3.233  12.352
16747W        W78278  38.479  32.441   2.798
16748W        W78279  20.219  27.558  14.016
16749W        W78280  43.350  12.699  11.605
16750W        W78281  18.662   2.824  13.934
16751W        W78282  42.439  16.289   4.630
16752W        W78283  12.746  16.316   3.162
16753W        W78284  40.395  19.556  13.809
16754W        W78285   0.484   3.845   3.773
16755W        W78286  23.508  19.649   4.770
16756W        W78287  43.437  21.560  14.357
16757W        W78288   2.322  23.507   0.852
16758W        W78289  18.596  35.870   2.672
16759W        W78290   7.871   8.340  13.420
16760W        W78291  21.238   0.869   3.643
16761W        W78292  31.054   6.853  10.473
16762W        W78293   2.325  16.779   3.817
16763W        W78294  30.023   6.786   0.958
16764W        W78295  17.112  38.035  13.035
16765W        W78296   1.910  12.276   4.623
16766W        W78297  39.865  38.355   1.336
16767W        W78298   7.860  43.336   3.749
16768W        W78299  10.731  18.159  13.936
16769W        W78300  12.124  43.000   4.240
16770W        W78301  25.606  13.693  14.327
16771W        W78302   6.805   5.842  13.435
16772W        W78303   5.278  23.159   1.806
16773W        W78304  11.805  12.314  11.413
16774W        W78305  29.088  28.556   2.221
16775W        W78306  26.677   2.408  13.891
16776W        W78307  13.674   2.436  13.913
16777W        W78308  32.998   7.823   1.841
16778W        W78309  33.611  21.541   1.436
16779W        W78310  25.103  26.115   3.840
16780W        W78311  36.851   4.790  13.041
16781W        W78312  14.592   3.906   3.260
16782W        W78313   9.275   4.261  12.374
16783W        W78314  10.732  25.683   0.314
16784W        W78315  12.830  21.720   2.297
16785W        W78316  39.047  22.579   3.755
16786W        W78317   3.389  12.166  12.871
16787W        W78318  36.841  38.423  14.906
16788W        W78319  41.468  41.993   3.849
16789W        W78320   8.249  39.046   2.374
16790W        W78321  15.226  18.059   2.863
16791W        W78322  30.992   2.352   2.710
16792W        W78323   3.780  25.642  12.872
16793W        W78324   3.820   7.856   2.691
16794W        W78325  35.996  30.928  11.987
16795W        W78326   4.754  38.887   1.851
16796W        W78327  12.332  40.865  14.004
16797W        W78328  17.096  36.994   0.364
16798W        W78329  14.282  18.196   0.290
16799W        W78330  18.119  29.932  13.433
16800W        W78331  10.250  23.696  10.612
16801W        W78332  28.520  26.473   4.785
16802W        W78333  44.951  22.195  11.930
16803W        W78334   4.269  35.967   4.346
16804W        W78335  25.040  26.170  14.385
16805W        W78336  22.250  34.581   3.377
16806W        W78337  40.334   7.196   0.769
16807W        W78338  43.914   4.387  14.978
16808W        W78339  10.200  38.438   3.375
16809W        W78340  14.809  39.989   0.786
16810W        W78341  44.994  34.993  12.845
16811W        W78342  34.431  30.147  11.514
16812W        W78343  11.758   9.782   1.797
16813W        W78344  38.938  21.728   0.452
16814W        W78345  11.678  37.884   4.161
16815W        W78346  30.036  33.427   1.397
16816W        W78347  20.532  29.094   4.621
16817W        W78348  39.820  29.079   2.733
16818W        W78349  16.725  33.935   1.747
16819W        W78350  17.092  27.015  11.591
16820W        W78351  25.631  31.533  14.928
16821W        W78352  42.005   1.367  11.087
16822W        W78353  30.605  40.990  10.595
16823W        W78354  41.893  29.067  12.835
16824W        W78355  24.634   4.832   0.777
16825W        W78356   3.282  40.472  14.806
16826W        W78357  16.790   3.337  13.427
16827W        W78358   3.749  34.998   3.756
16828W        W78359  39.360   6.202   0.776
16829W        W78360  22.131   9.765  12.405
16830W        W78361  36.556  24.001  13.936
16831W        W78362  27.965  10.282  13.488
16832W        W78363  22.503  33.108   4.233
16833W        W78364  35.372   7.756   3.636
16834W        W78365  40.533  30.994  12.834
16835W        W78366   7.853  17.158  12.930
16836W        W78367  44.837   5.891  12.061
16837W        W78368   5.763   1.860  10.642
16838W        W78369   4.712  31.909   3.775
16839W        W78370  19.124  17.210  11.578
16840W        W78371  41.307   4.703  11.022
16841W        W78372  29.425   1.241  12.510
16842W        W78373  15.240  22.667  13.957
16843W        W78374  13.284  26.147  14.928
16844W        W78375  10.681  35.105  12.044
16845W        W78376  18.747  37.883   4.250
16846W        W78377   5.700  12.360   0.441
16847W        W78378  16.574   4.292   3.818
16848W        W78379  18.079  17.213   4.139
16849W        W78380   8.160   1.377   0.319
16850W        W78381  10.208  35.867  11.380
16851W        W78382  37.015  28.148  11.128
16852W        W78383  13.190  23.575  12.958
16853W        W78384   3.808  23.653  10.072
16854W        W78385  42.478   3.764   0.953
16855W        W78386  22.512  43.774  12.507
16856W        W78387  10.235  40.400   2.371
16857W        W78388  19.173  20.217   0.779
16858W        W78389  23.212  41.977   3.770
16859W        W78390  23.683   0.395  11.587
16860W        W78391   7.200  13.222  10.465
16861W        W78392  23.676  29.975   2.764
16862W        W78393  14.314  40.951  12.016
16863W        W78394  37.978  31.098   0.373
16864W        W78395   8.264  20.102  12.527
16865W        W78396  24.077  13.763  10.905
16866W        W78397  26.519  38.835   3.666
16867W        W78398   1.383  17.559  12.841
16868W        W78399  44.358  21.162   2.718
16869W        W78400   8.668   3.730   2.300
16870W        W78401  38.445  25.192  13.902
16871W        W78402  39.386  19.712   1.741
16872W        W78403  30.158   6.788   4.325
16873W        W78404  21.024  12.815  14.287
16874W        W78405  41.875  23.553   0.412
16875W        W78406   0.276  37.345   3.863
16876W        W78407  35.422  39.416  10.409
16877W        W78408   2.423  18.669  11.555
16878W        W78409   0.883  43.877   3.655
16879W        W78410  33.999  23.211   3.817
16880W        W78411   7.846  29.020   4.301
16881W        W78412  20.696  33.112   1.862
16882W        W78413  37.422  13.325   4.718
16883W        W78414  17.621  32.403   1.928
16884W        W78415   6.813  23.031  11.416
16885W        W78416  44.319  21.223  12.562
16886W        W78417  24.072  26.498   1.934
16887W        W78418  20.052  33.445  13.825
16888W        W78419  17.751  34.384   3.364
16889W        W78420   0.891  11.129   2.307
16890W        W78421  36.365  36.892  13.845
16891W        W78422  23.616  13.300  10.613
16892W        W78423  23.058  16.305   4.778
16893W        W78424   2.748  14.180   0.421
16894W        W78425  34.034  18.248  10.449
16895W        W78426   4.310  22.238   0.443
16896W        W78427  24.155  15.688  12.914
16897W        W78428  38.923   2.344   1.340
16898W        W78429  28.522  42.954  13.997
16899W        W78430  15.779  25.132  14.935
16900W        W78431  19.760   1.913   1.329
16901W        W78432  10.821  29.169  12.413
16902W        W78433  31.432  34.523  13.488
16903W        W78434  15.116  21.191   2.357
16904W        W78435  42.987   6.765  13.961
16905W        W78436  37.529  39.934   1.887
16906W        W78437  36.891  17.690   1.261
16907W        W78438   8.708  17.740   2.286
16908W        W78439  33.434   1.241  14.767
16909W        W78440  18.182  37.072  14.347
16910W        W78441  39.065  15.237  14.805
16911W        W78442  32.055  26.468   9.983
16912W        W78443  41.511   5.250  11.919
16913W        W78444   2.379  41.524  10.554
16914W        W78445   3.457  41.420   4.815
16915W        W78446  43.474   7.226  14.392
16916W        W78447  29.954   1.343  11.373
16917W        W78448  33.583  17.556  11.542
16918W        W78449  24.199  12.273   4.790
16919W        W78450  31.932  25.041  12.438
16920W        W78451  32.482  23.629   0.859
16921W        W78452   7.397  10.236   0.808
16922W        W78453   0.316  20.579  11.875
16923W        W78454  10.775  25.544  11.414
16924W        W78455  43.467   6.737  13.926
16925W        W78456   1.753  21.231   0.357
16926W        W78457  41.297  41.395   4.151
16927W        W78458  38.554  31.631  12.017
16928W        W78459  39.854   6.220  13.845
16929W        W78460  40.492   6.283  14.811
16930W        W78461  22.722  32.046  11.946
16931W        W78462  36.885  21.642   3.819
16932W        W78463  30.975  28.539   4.296
16933W        W78464   2.313  20.116   3.848
16934W        W78465  36.406  44.406  12.351
16935W        W78466  21.672   3.845   3.780
16936W        W78467  15.099  15.251  14.801
16937W        W78468  26.967   5.925   2.692
16938W        W78469  43.477  38.550   3.353
16939W        W78470  28.495  29.054  12.546
16940W        W78471   2.886  43.298  14.917
16941W        W78472  44.261  31.038  10.968
16942W        W78473  11.157  40.469   3.229
16943W        W78474  38.527   1.882   4.755
16944W        W78475  25.196  35.010   1.327
16945W        W78476  11.801  10.373   0.466
16946W        W78477  39.938  21.173  11.387
16947W        W78478  38.886  22.657   0.404
16948W        W78479  16.201  27.189   2.880
16949W        W78480  38.446  18.649   3.648
16950W        W78481  20.687  27.105   1.264
16951W        W78482  22.044   0.930   1.308
16952W        W78483  24.084   4.770   1.735
16953W        W78484  24.631   9.680  13.034
16954W        W78485   5.421  14.236   0.837
16955W        W78486  28.487  38.858   2.333
16956W        W78487   2.721   7.415   4.746
16957W        W78488  15.283  12.270   2.854
16958W        W78489  21.725  34.898   1.807
16959W        W78490  20.691  18.546  14.789
16960W        W78491  10.274  34.094  14.015
16961W        W78492  23.601  20.112   3.673
16962W        W78493  33.933  19.564  12.552
16963W        W78494  19.594  17.231   1.918
16964W        W78495  25.009   0.265   2.878
16965W        W78496  26.113  16.239  13.515
16966W        W78497   9.868  26.150  13.408
16967W        W78498  24.684   2.471   2.210
16968W        W78499  17.308  26.695  13.911
16969W        W78500  28.572  44.769  14.789
16970W        W78501   8.383  18.125  11.909
16971W        W78502  36.359  24.648  11.548
16972W        W78503  31.527  33.060   3.360
16973W        W78504  26.524   6.696   0.428
16974W        W78505   6.221   2.870   0.475
16975W        W78506  16.567  15.229  10.641
16976W        W78507  17.590   0.331  10.917
16977W        W78508  40.825  10.675   2.254
16978W        W78509  39.560  16.162   0.401
16979W        W78510   0.860   4.860  11.013
16980W        W78511  17.686  29.920   2.357
16981W        W78512  41.860  19.227  14.982
16982W        W78513  22.165  34.450  13.996
16983W        W78514  24.665  43.818   4.791
16984W        W78515  22.675  22.599   5.235
16985W        W78516   7.704  20.193  12.397
16986W        W78517  35.438  22.668  14.431
16987W        W78518  30.638  26.533  14.826
16988W        W78519  31.514  32.498   1.845
16989W        W78520  38.940   1.879  10.964
16990W        W78521   2.837  22.538  10.445
16991W        W78522  28.154  19.112  14.365
16992W        W78523  32.948   8.278   1.807
16993W        W78524  40.875  28.091  12.051
16994W        W78525   9.705  18.742  14.957
16995W        W78526  38.970   3.429  12.580
16996W        W78527   7.851   3.713  14.856
16997W        W78528  15.726   8.234   4.831
16998W        W78529  25.651  15.299   1.294
16999W        W78530  22.506   5.213  13.045
17000W        W78531  23.573  40.492   3.310
17001W        W78532  19.627  29.126  14.442
17002W        W78533  35.017  36.370   1.325
17003W        W78534  25.214  42.488  12.990
17004W        W78535  40.365  14.645  13.332
17005W        W78536   8.761  19.547   0.915
17006W        W78537   6.257  32.037   0.302
17007W        W78538  13.190  44.857   0.442
17008W        W78539  30.140  38.845   3.678
17009W        W78540  31.983   2.835   4.291
17010W        W78541  27.577   3.861   4.656
17011W        W78542  26.014  15.315  14.467
17012W        W78543  30.559  34.993   2.413
17013W        W78544  23.669  13.736  13.360
17014W        W78545  11.154   3.779  12.870
17015W        W78546  21.540  10.297   2.204
17016W        W78547  30.911  18.107   0.908
17017W        W78548  29.043  33.472  13.034
17018W        W78549  14.757  22.154   4.630
17019W        W78550   6.313  18.086  10.950
17020W        W78551   0.866  31.008  10.626
17021W        W78552  21.551  37.068  14.309
17022W        W78553  17.073  31.067  12.017
17023W        W78554  18.285   3.401   4.674
17024W        W78555  10.777   8.369   1.268
17025W        W78556  18.132  19.043   2.839
17026W        W78557  12.339  12.651  14.014
17027W        W78558  28.658  18.190   2.270
17028W        W78559  22.695   0.759   4.640
17029W        W78560  12.332  21.214   5.113
17030W        W78561   7.395  14.265   1.793
17031W        W78562   8.346   5.375   1.857
17032W        W78563   7.299  20.193  12.523
17033W        W78564  23.105   4.751  11.512
17034W        W78565  41.868  24.191   3.150
17035W        W78566  12.290  21.264   4.701
17036W        W78567  29.423  11.814  10.497
17037W        W78568  18.594  38.540  11.545
17038W        W78569  33.525  15.189  13.421
17039W        W78570  22.675  43.892   4.796
17040W        W78571   0.473  40.462  12.992
17041W        W78572  38.416  37.888   3.788
17042W        W78573  38.550  39.988   2.199
17043W        W78574  35.048   8.328   4.803
17044W        W78575  11.816  11.684  14.428
17045W        W78576  30.555  27.020  11.079
17046W        W78577  29.667  18.747   2.283
17047W        W78578  35.543  10.316   4.665
17048W        W78579  17.611  21.681  14.434
17049W        W78580  12.642   7.861  12.555
17050W        W78581  30.917  13.760  12.999
17051W        W78582  42.863   4.270   4.798
17052W        W78583  20.549  41.000   0.782
17053W        W78584  24.224  28.557  14.391
17054W        W78585  37.004  41.904  10.995
17055W        W78586   7.791   5.311  11.116
17056W        W78587  16.640   8.744  12.514
17057W        W78588   4.327  10.221  14.850
17058W        W78589  11.297  37.427   0.940
17059W        W78590  37.375   7.402  11.866
17060W        W78591  38.382  20.650  13.905
17061W        W78592  17.618  19.277   0.442
17062W        W78593   6.375   8.336  14.395
17063W        W78594   4.303   1.306   1.388
17064W        W78595  37.901   6.189   0.885
17065W        W78596  30.627  23.734   2.306
17066W        W78597  15.624  43.481  11.420
17067W        W78598  36.922  35.466  12.951
17068W        W78599  23.137  34.438  12.554
17069W        W78600  12.795  44.812   4.248
17070W        W78601  34.452  33.517  14.513
17071W        W78602  34.546  41.398   4.613
17072W        W78603  37.408  36.858   3.863
17073W        W78604  28.454  32.606   4.157
17074W        W78605  35.051  31.474   4.200
17075W        W78606  19.649  10.716   2.385
17076W        W78607  27.639  24.990  14.954
17077W        W78608  21.025  29.090  13.526
17078W        W78609  30.990  18.739  13.442
17079W        W78610  32.422  24.110  10.958
17080W        W78611  21.123   9.198  13.497
17081W        W78612   1.337  16.601   2.183
17082W        W78613  19.152  43.384  13.857
17083W        W78614   0.904  44.373   5.132
17084W        W78615  18.683  32.921  11.996
17085W        W78616  34.553   1.429  13.977
17086W        W78617  32.083   2.355  13.371
17087W        W78618  16.082  33.407  12.495
17088W        W78619  23.490  11.236  12.553
17089W        W78620  20.268  44.386   0.906
17090W        W78621   7.888  35.077  14.977
17091W        W78622  39.965  17.275  12.852
17092W        W78623  25.010   8.358   3.204
17093W        W78624  12.789  37.380   4.179
17094W        W78625  16.088  18.709  12.389
17095W        W78626   7.346  29.501  13.337
17096W        W78627  15.817   0.866  10.143
17097W        W78628   9.732  17.630   3.655
17098W        W78629  33.502   7.349   9.950
17099W        W78630  23.706  44.945   0.371
17100W        W78631  17.261   0.425  11.596
17101W        W78632  30.981  37.494   4.739
17102W        W78633   1.481  31.918  14.897
17103W        W78634   8.863  27.172  14.310
17104W        W78635  12.675  33.937   3.774
17105W        W78636  43.339  25.572   4.213
17106W        W78637  23.204  24.013  10.987
17107W        W78638  34.532  32.918   4.244
17108W        W78639   6.208   1.901  14.843
17109W        W78640  38.973  32.500  14.501
17110W        W78641   6.896   0.250   2.826
17111W        W78642  17.134  18.787   4.252
17112W        W78643   4.349  15.744  12.575
17113W        W78644   1.817  33.940  11.062
17114W        W78645  14.673  29.963  13.928
17115W        W78646   8.355  20.576   3.704
17116W        W78647  41.445  40.479  11.999
17117W        W78648  32.591  26.621   4.200
17118W        W78649  39.400   4.768   4.265
17119W        W78650  41.977  37.486  11.517
17120W        W78651  10.784  22.222   1.727
17121W        W78652  31.438  19.672  12.969
17122W        W78653   4.316  16.121  12.399
17123W        W78654  36.911  20.213   2.252
17124W        W78655  41.032   4.233  14.844
17125W        W78656   3.412  29.016   1.881
17126W        W78657  43.994   0.919   2.404
17127W        W78658  40.339  16.255  12.842
17128W        W78659  13.657  35.573  14.861
17129W        W78660   6.914  36.869  14.867
17130W        W78661   8.187  18.586  12.468
17131W        W78662  23.080   9.791   1.231
17132W        W78663  24.176  16.145  11.974
17133W        W78664  30.484  37.347   0.254
17134W        W78665  13.221   6.275   4.156
17135W        W78666  11.343  39.869   4.118
17136W        W78667  41.372  31.918  13.059
17137W        W78668   0.384   9.395  12.433
17138W        W78669  31.018  20.583  11.516
17139W        W78670  42.392  43.464  13.046
17140W        W78671  23.571   1.239   2.778
17141W        W78672   6.873  32.920   0.260
17142W        W78673  15.588  16.713   2.882
17143W        W78674  23.147  29.600   9.522
17144W        W78675  21.656   3.773  12.562
17145W        W78676   9.862   2.803  13.918
17146W        W78677  29.644  40.834   1.331
17147W        W78678  19.239   2.449   4.716
17148W        W78679  37.579   9.245   2.718
17149W        W78680  33.624  26.182   4.173
17150W        W78681  39.894  26.613  13.433
17151W        W78682  24.643  16.159   1.817
17152W        W78683  36.358  42.370   1.365
17153W        W78684  23.633  36.083   2.251
17154W        W78685  38.930  29.091   0.320
17155W        W78686  39.501   6.283   3.192
17156W        W78687  39.946  34.048   4.632
17157W        W78688  37.493  12.314  14.941
17158W        W78689  20.247  24.995   0.766
17159W        W78690  31.584  25.686   2.369
17160W        W78691  15.720  44.285   2.812
17161W        W78692  43.477  28.017  12.909
17162W        W78693  18.672  42.908   3.849
17163W        W78694   3.745  18.704   0.263
17164W        W78695   9.836  25.127  12.937
17165W        W78696  23.560  19.580   0.791
17166W        W78697  28.665  29.535  10.551
17167W        W78698  32.130   7.410  14.878
17168W        W78699   5.314   2.442   0.844
17169W        W78700   6.212  22.996   0.335
17170W        W78701  28.591  19.074   1.787
17171W        W78702   4.936   7.392  12.419
17172W        W78703  21.110  40.486   0.410
17173W        W78704  31.576   5.699  14.341
17174W        W78705  23.057  33.550   3.856
17175W        W78706  27.038  25.001   2.352
17176W        W78707  25.975   8.896  13.897
17177W        W78708   7.337  31.138  13.364
17178W        W78709  19.699  26.092  14.883
17179W        W78710  28.942  32.594   4.215
17180W        W78711  18.754  21.242  12.455
17181W        W78712  44.889  34.066   3.710
17182W        W78713  39.453   0.947  11.411
17183W        W78714  18.140   5.718   4.724
17184W        W78715  41.322  40.052  11.016
17185W        W78716  36.524   9.223   3.381
17186W        W78717  30.639   7.801  10.053
17187W        W78718  23.212  34.487   0.771
17188W        W78719  24.064  25.613  13.367
17189W        W78720  43.444  22.050  13.038
17190W        W78721   5.246  33.464   1.779
17191W        W78722  37.838  35.521  10.520
17192W        W78723  39.014   3.331  13.987
17193W        W78724  29.512  28.472   0.884
17194W        W78725  23.523  34.023   3.866
17195W        W78726  11.850  19.561   0.752
17196W        W78727  15.666  36.428   0.251
17197W        W78728  39.469  29.046   0.245
17198W        W78729  37.511  11.219  11.608
17199W        W78730  43.443  40.908  10.983
17200W        W78731  19.067  19.665   0.933
17201W        W78732  15.163  38.349   1.756
17202W        W78733  27.044   8.297   2.735
17203W        W78734   1.401  38.495  10.983
17204W        W78735   2.811   6.409  13.414
17205W        W78736  21.025  38.898  13.320
17206W        W78737  16.682   6.678   1.891
17207W        W78738  34.941  24.545   0.401
17208W        W78739  41.394  28.544  11.013
17209W        W78740  10.642  44.411  12.559
17210W        W78741  15.648  10.140  10.484
17211W        W78742  36.577  43.917  11.377
17212W        W78743  19.549  42.015  10.498
17213W        W78744  10.307  30.123   2.792
17214W        W78745  36.440   2.758   3.702
17215W        W78746  14.832  25.497   5.179
17216W        W78747   0.875  40.937   3.259
17217W        W78748  42.391  37.942  10.533
17218W        W78749  19.250  15.237   0.787
17219W        W78750   8.693  33.021   2.226
17220W        W78751   1.435  14.680  14.953
17221W        W78752   3.922  25.133   2.789
17222W        W78753   9.307  40.982   0.928
17223W        W78754  10.337  27.184   1.696
17224W        W78755  43.786  26.697   2.275
17225W        W78756  41.348  29.428   4.647
17226W        W78757  27.638   2.753   3.374
17227W        W78758  14.647   5.254  14.975
17228W        W78759  21.200  40.848   2.856
17229W        W78760  21.079  16.167   4.287
17230W        W78761  25.107   0.329  12.547
17231W        W78762   3.262   3.222   2.200
17232W        W78763  33.099  44.393   0.390
17233W        W78764  20.622  10.736  10.978
17234W        W78765  30.058  32.036  14.833
17235W        W78766  31.132   9.648  12.094
17236W        W78767  11.799  12.800   3.170
17237W        W78768  18.052  26.049  11.374
17238W        W78769  42.844  38.982  11.127
17239W        W78770  26.007  22.523   1.733
17240W        W78771  35.425  23.558   1.695
17241W        W78772   3.369  19.726  12.531
17242W        W78773  23.050   1.971  14.407
17243W        W78774  40.993  16.298   2.393
17244W        W78775  33.609  14.102  14.819
17245W        W78776  14.693  17.308   3.664
17246W        W78777  12.713  33.054  10.568
17247W        W78778   6.359  32.898   1.881
17248W        W78779  34.477  10.356  11.980
17249W        W78780  22.673  18.243   1.842
17250W        W78781   6.732   3.817  14.018
17251W        W78782  40.547  23.216  11.040
17252W        W78783  21.199  16.259   4.597
17253W        W78784  25.044  29.137  10.084
17254W        W78785  17.628   3.931  11.563
17255W        W78786   9.270  22.635  10.949
17256W        W78787  16.312  44.276   2.394
17257W        W78788  38.058   8.249   3.298
17258W        W78789  15.761  10.347   2.296
17259W        W78790  34.919  35.511   1.728
17260W        W78791  37.962  19.159  14.797
17261W        W78792  40.366  33.939   1.889
17262W        W78793  28.638   1.271  14.930
17263W        W78794  39.021  17.242  10.502
17264W        W78795  27.945  40.909   3.843
17265W        W78796  13.649  31.539  11.463
17266W        W78797   7.676   9.204  14.815
17267W        W78798  35.543  31.570   1.739
17268W        W78799   0.843  19.635  12.365
17269W        W78800  19.153  17.683  13.922
17270W        W78801  17.101  16.268  14.994
17271W        W78802  17.203  18.282   0.886
17272W        W78803  28.466  25.053  13.799
17273W        W78804  38.842  13.339  12.079
17274W        W78805  29.927   8.360  12.502
17275W        W78806   1.761  25.481   3.278
17276W        W78807  36.532   9.884  14.841
17277W        W78808  31.538  26.511   4.622
17278W        W78809   1.248  31.960   4.626
17279W        W78810  27.104   4.371  10.567
17280W        W78811  44.938  43.320  13.469
17281W        W78812   1.291  13.815  11.385
17282W        W78813  10.363  22.199   0.249
17283W        W78814  10.875  28.072   4.328
17284W        W78815  33.572  32.952   1.858
17285W        W78816  30.591  14.715  11.052
17286W        W78817  41.533  36.983  14.989
17287W        W78818  27.162  13.803   0.904
17288W        W78819  13.112  42.783  14.301
17289W        W78820  23.492  16.664   2.865
17290W        W78821   6.393   7.292  12.868
17291W        W78822  17.632  43.317   0.318
17292W        W78823  15.316  18.222   0.891
17293W        W78824   5.808   6.255   1.891
17294W        W78825  35.940  30.139   3.635
17295W        W78826   5.348  41.967   2.810
17296W        W78827  35.045   0.380   0.908
17297W        W78828  34.399   7.813   4.239
17298W        W78829  37.086  17.594   4.799
17299W        W78830   2.277   8.390   4.711
17300W        W78831   8.269  25.676  10.903
17301W        W78832  26.160  39.040  11.864
17302W        W78833  39.838  25.663  13.962
17303W        W78834  42.404  31.987   0.752
17304W        W78835  24.139  34.094  12.070
17305W        W78836  19.724  41.893   1.784
17306W        W78837  42.959   8.861   2.181
17307W        W78838  37.868  14.233  14.336
17308W        W78839  29.121  29.173  11.594
17309W        W78840  43.474  16.760  12.427
17310W        W78841  10.290  10.831  14.867
17311W        W78842  28.949  24.620   1.750
17312W        W78843  29.942   0.432  13.037
17313W        W78844  43.809  10.287   0.807
17314W        W78845  11.290  39.406  14.837
17315W        W78846  43.481  12.178  13.044
17316W        W78847  10.750  36.945   0.773
17317W        W78848  42.430  18.182  14.275
17318W        W78849  26.526  29.488  12.078
17319W        W78850  19.131   4.394  11.442
17320W        W78851  21.168   8.288   9.933
17321W        W78852  12.260  38.978  14.342
17322W        W78853  25.071  17.775   2.812
17323W        W78854  38.982  15.707  14.988
17324W        W78855  25.202   4.934  11.566
17325W        W78856  17.222   2.904   2.305
17326W        W78857  24.686   6.883  11.572
17327W        W78858  36.027  10.247  10.015
17328W        W78859  44.437  27.976   5.106
17329W        W78860  26.600  27.648   0.925
17330W        W78861  40.321  37.909   2.230
17331W        W78862  35.911  10.379  14.452
17332W        W78863   8.191  36.584  14.959
17333W        W78864  17.216   3.367   0.874
17334W        W78865  24.590  18.715   2.333
17335W        W78866  22.191  11.789  12.473
17336W        W78867   5.235  12.645   2.400
17337W        W78868  33.068   3.306   4.188
17338W        W78869  28.091  31.986   2.419
17339W        W78870  12.303  42.296   4.621
17340W        W78871  12.749  20.075   4.142
17341W        W78872  37.376   1.804  11.111
17342W        W78873  34.908  28.049   0.471
17343W        W78874  38.046  21.254   2.766
17344W        W78875  38.387   4.305  10.570
17345W        W78876   3.454  29.605  13.867
17346W        W78877  30.551  21.667   3.712
17347W        W78878  28.154   5.873  14.992
17348W        W78879  22.047  15.741  12.411
17349W        W78880  27.600  11.795   4.317
17350W        W78881  37.835  21.583  12.930
17351W        W78882  13.691  29.614   2.246
17352W        W78883  29.531  28.505  13.503
17353W        W78884   8.718  20.184   3.170
17354W        W78885  15.294  38.466   4.603
17355W        W78886  31.916  19.768   3.835
17356W        W78887  38.933  43.310  13.494
17357W        W78888   7.323   1.884  14.387
17358W        W78889  26.595  35.082   3.308
17359W        W78890  39.479  34.007   0.366
17360W        W78891  44.897  13.680  11.037
17361W        W78892  29.165  37.987   4.752
17362W        W78893  17.790  35.513  12.475
17363W        W78894   8.358  28.131   1.817
17364W        W78895  39.967  14.102  14.825
17365W        W78896  15.610  13.783   1.358
17366W        W78897  23.190  25.217  12.921
17367W        W78898  12.611  43.931  12.345
17368W        W78899   2.797  38.032  12.356
17369W        W78900  42.478  23.735  11.995
17370W        W78901  40.364  19.758   2.289
17371W        W78902  38.460   3.717   0.429
17372W        W78903   2.373  40.010  11.013
17373W        W78904  13.758  13.721   3.699
17374W        W78905  18.716  30.619   0.854
17375W        W78906   0.489   9.381  11.895
17376W        W78907   0.343  14.277   3.257
17377W        W78908  38.326  35.063  11.590
17378W        W78909  37.879  28.160   2.893
17379W        W78910  12.148  14.108  10.532
17380W        W78911  12.263  42.983   3.235
17381W        W78912  34.392  18.595   1.285
17382W        W78913   8.744  16.121  12.037
17383W        W78914  37.361  10.827  12.007
17384W        W78915  35.510  18.125  12.469
17385W        W78916  33.424  43.417   3.240
17386W        W78917  14.307  40.440   1.281
17387W        W78918  32.471  40.823  10.547
17388W        W78919   2.358  40.807   3.202
17389W        W78920  31.903  22.185  12.445
17390W        W78921  23.714   9.677  11.591
17391W        W78922   8.377  12.803  11.935
17392W        W78923  18.227   0.456  14.942
17393W        W78924  13.837   6.239   2.713
17394W        W78925  19.267  13.332   4.310
17395W        W78926  27.484  42.494  14.385
17396W        W78927   7.322  23.122   1.733
17397W        W78928  22.634  19.563   2.887
17398W        W78929  33.502  36.442  13.357
17399W        W78930   4.343   4.766   0.920
17400W        W78931  22.084  41.396  12.921
17401W        W78932  18.674   3.943   1.799
17402W        W78933  13.120  28.656  14.776
17403W        W78934   1.931  41.887   3.743
17404W        W78935   2.311   5.709  10.471
17405W        W78936  20.657   2.370  12.562
17406W        W78937  17.776   5.695  13.010
17407W        W78938  23.116   2.813   1.897
17408W        W78939   3.757   2.292   3.677
17409W        W78940   6.367  36.929  11.032
17410W        W78941   5.840   9.228   4.646
17411W        W78942  35.090   9.704   0.399
17412W        W78943  19.158  12.831   2.375
17413W        W78944   7.884  21.226  14.356
17414W        W78945  19.147  31.919   0.362
17415W        W78946  28.087  39.412   0.251
17416W        W78947  34.418  43.020  11.991
17417W        W78948  25.554  33.558  14.499
17418W        W78949  19.659  20.686   2.379
17419W        W78950  36.499  24.201   1.800
17420W        W78951  29.001   5.816   0.484
17421W        W78952  25.206  17.695  14.312
17422W        W78953  21.634  27.465  11.045
17423W        W78954   1.255   1.317  12.420
17424W        W78955  31.931  44.899  12.461
17425W        W78956  31.639  15.304   1.405
17426W        W78957  37.579  44.912   2.793
17427W        W78958  25.651  21.180   4.297
17428W        W78959  28.633  35.888  13.389
17429W        W78960  20.579  10.186  10.578
17430W        W78961  16.266  16.129   2.828
17431W        W78962  21.041  31.100   2.246
17432W        W78963  25.017   6.418  11.114
17433W        W78964   9.299  25.639   2.262
17434W        W78965   5.765   2.896   0.422
17435W        W78966  16.652  44.437  14.002
17436W        W78967  35.016   6.794  13.548
17437W        W78968   6.873  21.237  10.987
17438W        W78969  30.576   4.313   1.371
17439W        W78970  34.608  21.190  11.547
17440W        W78971   2.960  41.319  10.972
17441W        W78972  27.091   2.375   2.244
17442W        W78973  35.463   6.882   1.704
17443W        W78974   5.835   9.700   4.306
17444W        W78975  42.826  40.871  11.873
17445W        W78976  41.531  15.596   0.272
17446W        W78977  33.881   5.776  13.947
17447W        W78978  32.059  28.093  12.941
17448W        W78979  40.012   8.305  13.535
17449W        W78980   6.730   1.937   1.307
17450W        W78981  12.773  23.528   1.695
17451W        W78982   1.480  40.858  12.529
17452W        W78983  35.417  36.941  13.931
17453W        W78984   3.433   9.875   3.766
17454W        W78985   6.803   1.446   1.773
17455W        W78986  44.270  40.359   1.439
17456W        W78987  10.773  24.064   0.349
17457W        W78988   3.805  17.170  11.553
17458W        W78989   4.371  35.106  13.358
17459W        W78990   7.739  20.221   0.904
17460W        W78991  22.562   9.185  14.990
17461W        W78992  30.528  18.064   3.191
17462W        W78993  21.179  13.790  11.960
17463W        W78994  21.593  26.504   1.767
17464W        W78995  29.662  44.908  14.989
17465W        W78996  35.976  41.859   1.722
17466W        W78997   9.184  18.742   4.268
17467W        W78998   1.438  41.821  11.500
17468W        W78999  16.272  29.116   1.815
17469W        W79000  17.734  31.522  10.469
17470W        W79001  39.342  13.630   3.243
17471W        W79002  31.941   1.809  12.349
17472W        W79003  35.541  38.410   2.357
17473W        W79004   7.743  19.625  10.004
17474W        W79005  41.462   4.219   0.402
17475W        W79006  38.017  22.106   2.202
17476W        W79007   8.395   2.226  13.951
17477W        W79008  11.218  32.478   2.762
17478W        W79009  39.991  33.405  12.011
17479W        W79010  31.621  19.219   2.356
17480W        W79011  43.014   9.698  13.891
17481W        W79012  34.448  16.674   0.287
17482W        W79013   1.313  13.351  13.979
17483W        W79014  38.864  21.028   4.779
17484W        W79015  11.693   4.307   2.275
17485W        W79016  27.648  29.043  14.769
17486W        W79017  10.236  15.750  13.984
17487W        W79018  22.534  13.226  13.338
17488W        W79019  21.703  21.715  12.016
17489W        W79020  25.633  43.490  12.484
17490W        W79021  24.197  21.741   1.439
17491W        W79022  17.596  13.243  10.533
17492W        W79023  27.940  34.443  14.019
17493W        W79024  10.795   1.389   2.294
17494W        W79025  15.601  38.992  13.998
17495W        W79026  40.498   8.781  11.076
17496W        W79027  13.728  43.437  10.983
17497W        W79028   9.819   1.289   1.699
17498W        W79029  28.101  31.043  14.485
17499W        W79030   5.782  24.168  13.898
17500W        W79031   1.752  14.760  12.900
17501W        W79032   4.920  35.879  13.810
17502W        W79033   2.228  28.602   1.439
17503W        W79034  37.576  36.845  10.523
17504W        W79035   5.745  24.993   3.229
17505W        W79036  34.933  32.556  12.057
17506W        W79037  41.794   8.815   3.814
17507W        W79038  24.635  30.555  12.369
17508W        W79039  34.963  38.962  14.275
17509W        W79040  32.951  37.954  14.773
17510W        W79041  10.702   5.696   0.416
17511W        W79042  37.503  31.060   5.323
17512W        W79043  13.800  17.645   0.267
17513W        W79044   7.332   7.823  11.583
17514W        W79045   7.247  13.312   2.879
17515W        W79046  17.586  12.749  10.489
17516W        W79047  34.906  29.617  13.405
17517W        W79048   8.314  17.669   3.337
17518W        W79049  30.090  13.138  13.386
17519W        W79050  15.144  33.108  11.562
17520W        W79051  16.134  28.643  11.611
17521W        W79052  33.013  12.736  13.000
17522W        W79053  38.933  31.456   2.813
17523W        W79054  39.359  11.792   0.301
17524W        W79055   2.230   8.854  14.022
17525W        W79056  29.111   9.883   4.831
17526W        W79057  36.030   6.910  12.941
17527W        W79058  36.884  44.920  10.587
17528W        W79059  32.624  21.055   2.818
17529W        W79060  32.451   5.340   4.211
17530W        W79061  14.682  33.947   1.935
17531W        W79062  33.488  28.677   4.203
17532W        W79063  30.556   6.252  13.917
17533W        W79064  21.733  16.101  10.537
17534W        W79065  36.364  43.389   1.722
17535W        W79066  24.162   4.277  14.331
17536W        W79067  22.558  30.549  13.908
17537W        W79068  38.326  38.459   0.250
17538W        W79069   2.470  12.332  13.888
17539W        W79070  24.084  18.568  14.400
17540W        W79071  13.684   1.434   3.841
17541W        W79072   0.379   0.305  12.980
17542W        W79073  23.086  15.095  10.956
17543W        W79074  37.000   3.229   1.442
17544W        W79075  17.181  31.476  11.597
17545W        W79076  21.547  17.197   4.684
17546W        W79077  25.062  24.583   3.219
17547W        W79078   6.788  26.192  12.431
17548W        W79079  18.065  37.926   1.279
17549W        W79080   7.900   1.471  10.022
17550W        W79081  13.346   0.755   0.371
17551W        W79082  42.923  24.626   4.673
17552W        W79083  21.590   8.281  10.420
17553W        W79084  26.114  41.862  14.472
17554W        W79085  28.970  16.316   2.228
17555W        W79086   0.305  40.021   0.279
17556W        W79087  42.506  20.041  13.366
17557W        W79088  16.649  31.038   4.808
17558W        W79089   5.930   4.873  14.502
17559W        W79090  28.068   7.359   4.300
17560W        W79091  32.931   1.877   3.677
17561W        W79092  40.430  10.748   1.760
17562W        W79093  43.830  38.563   1.217
17563W        W79094   0.944  28.567   0.881
17564W        W79095   3.285  27.090  11.517
17565W        W79096  26.126  29.624   1.823
17566W        W79097  16.672  30.950   2.800
17567W        W79098   9.371  34.614   0.291
17568W        W79099   5.398  12.732   0.900
17569W        W79100  27.457   1.409   4.793
17570W        W79101  13.301  28.618   5.090
17571W        W79102  40.955  15.246   4.716
17572W        W79103   7.381  16.082  14.372
17573W        W79104  43.798  11.708  12.474
17574W        W79105  16.217  42.331   1.830
17575W        W79106  16.597  31.578  11.040
17576W        W79107  14.099   5.713  12.391
17577W        W79108   9.742   7.788   0.334
17578W        W79109  15.193  31.002  11.519
17579W        W79110  42.785   0.777  12.048
17580W        W79111   7.226   7.905  12.017
17581W        W79112  40.347  15.765  12.070
17582W        W79113  44.464   3.865   3.763
17583W        W79114  25.091   0.903   1.840
17584W        W79115  13.113   3.793  14.926
17585W        W79116  13.298  38.555   0.395
17586W        W79117  43.308   5.330   4.134
17587W        W79118   4.920  14.124   0.825
17588W        W79119  29.623  41.464  12.962
17589W        W79120  14.813  36.559   4.335
17590W        W79121  42.334  24.493   4.303
17591W        W79122  22.243   2.948  11.004
17592W        W79123  15.249  13.118  14.345
17593W        W79124   4.929  17.064   1.780
17594W        W79125  38.943   1.441   3.668
17595W        W79126  13.351  36.880   0.853
17596W        W79127   3.784  43.768  12.463
17597W        W79128  32.948  24.229   0.391
17598W        W79129  25.123  33.581  11.891
17599W        W79130  38.964  16.105   4.822
17600W        W79131  24.154  11.791  10.637
17601W        W79132  20.056  27.466   2.864
17602W        W79133  14.798  24.977   2.819
17603W        W79134  44.973   7.189  14.297
17604W        W79135   5.918  22.127   4.691
17605W        W79136   3.767  20.189   0.435
17606W        W79137  41.460  35.378   0.386
17607W        W79138   4.318  38.558   4.155
17608W        W79139  27.520  44.351   1.713
17609W        W79140  19.719  31.069  13.034
17610W        W79141  24.675  38.379   3.835
17611W        W79142  12.144  19.136   3.635
17612W        W79143   5.775  42.508  10.959
17613W        W79144  44.876  23.667  11.379
17614W        W79145  19.087  11.137  14.881
17615W        W79146  30.120   1.851   0.954
17616W        W79147  29.612   5.717   1.390
17617W        W79148  33.051  22.012   0.774
17618W        W79149  40.806  21.656   3.714
17619W        W79150  19.229  12.671   2.665
17620W        W79151  41.863  40.393   9.962
17621W        W79152  31.499  34.109   3.254
17622W        W79153  34.103  38.325   0.803
17623W        W79154  28.471  34.084   1.212
17624W        W79155  23.491  10.687   0.823
17625W        W79156   9.273  38.525   2.271
17626W        W79157   9.728  22.245  13.016
17627W        W79158  16.698  15.797   3.209
17628W        W79159  33.098   7.701   4.328
17629W        W79160  22.709  22.165   2.313
17630W        W79161   6.293  38.489   3.160
17631W        W79162   0.873  13.199  13.983
17632W        W79163  41.315  14.174  12.517
17633W        W79164  41.368  15.167  14.848
17634W        W79165  20.612  20.237   2.770
17635W        W79166  20.744  25.172  10.591
17636W        W79167  23.040  10.709   0.456
17637W        W79168  17.275  10.384  13.449
17638W        W79169  32.463   1.831  12.956
17639W        W79170  33.108  18.764   0.318
17640W        W79171  30.467   8.304  12.069
17641W        W79172   0.986   0.811   1.873
17642W        W79173   6.283   1.260   4.741
17643W        W79174  12.780   9.161  10.581
17644W        W79175   1.819   6.279   1.795
17645W        W79176   8.368  18.689   1.816
17646W        W79177  32.464  11.863   3.807
17647W        W79178   0.493  26.088  14.511
17648W        W79179  43.383  13.633  10.594
17649W        W79180  21.727  10.261  13.832
17650W        W79181  24.087   6.860   2.227
17651W        W79182   8.691  11.310   3.838
17652W        W79183  29.144  20.040   2.253
17653W        W79184  39.866   1.258   3.245
17654W        W79185  16.723  41.418   2.865
17655W        W79186   4.439   5.689  12.399
17656W        W79187  12.124  23.550   2.391
17657W        W79188  31.905   7.208   3.284
17658W        W79189  23.089  11.663  14.496
17659W        W79190  33.435   1.934   3.656
17660W        W79191  41.916  25.633   3.291
17661W        W79192  14.826  37.901   2.686
17662W        W79193  40.473   0.753   0.336
17663W        W79194   0.960  27.495  13.536
17664W        W79195  34.936  19.124   2.876
17665W        W79196  43.472  13.222   4.661
17666W        W79197  44.862   7.872   3.265
17667W        W79198  15.111  37.933   0.470
17668W        W79199   2.398   2.769  10.594
17669W        W79200   0.437  44.294   2.812
17670W        W79201  41.967  39.928  10.625
17671W        W79202  29.483  18.637  10.484
17672W        W79203  11.247  11.816  10.443
17673W        W79204   0.268  31.933   1.304
17674W        W79205   2.903  39.376  14.768
17675W        W79206  14.213  41.867  13.955
17676W        W79207   2.258  33.937   1.746
17677W        W79208  19.105  22.167   1.246
17678W        W79209   6.198   8.867  14.817
17679W        W79210  38.384  38.497   5.285
17680W        W79211   4.825  10.192  12.548
17681W        W79212  13.245  21.244   0.954
17682W        W79213  12.680  42.363   0.779
17683W        W79214   6.309   9.647   0.334
17684W        W79215  38.966  35.473   1.405
17685W        W79216  33.508   4.390  13.932
17686W        W79217  38.923   5.436  13.488
17687W        W79218  16.719  35.583  11.467
17688W        W79219  33.548  25.188  13.470
17689W        W79220  11.861   9.377  11.969
17690W        W79221  42.964   9.240  14.836
17691W        W79222  21.145  22.058  13.853
17692W        W79223  32.592   4.379   4.121
17693W        W79224  32.496  25.661  11.432
17694W        W79225   6.314   4.431   0.460
17695W        W79226  23.012  26.143  13.842
17696W        W79227  42.402  14.640  11.381
17697W        W79228  12.137  37.510   3.360
17698W        W79229  37.372   2.756  12.517
17699W        W79230  14.664   7.785  12.962
17700W        W79231  38.509  26.152  10.560
17701W        W79232   1.905  17.560  14.857
17702W        W79233  30.147   4.793  14.314
17703W        W79234   8.277  37.043  13.024
17704W        W79235  21.157  38.012  11.471
17705W        W79236  16.298  14.198  10.491
17706W        W79237  26.203  12.120   1.773
17707W        W79238  42.308  35.029   2.230
17708W        W79239  11.244  15.207   2.379
17709W        W79240  42.014  27.599   0.928
17710W        W79241   6.820   5.716   2.377
17711W        W79242  23.240  25.090  12.545
17712W        W79243  16.711  30.931  12.039
17713W        W79244   7.731   1.281  10.908
17714W        W79245  38.015  27.164   4.168
17715W        W79246  39.995  20.241   4.263
17716W        W79247  24.660  43.838   2.866
17717W        W79248   1.791  32.047  11.537
17718W        W79249  21.637  12.814   4.120
17719W        W79250  40.953  30.565   0.428
17720W        W79251  21.091  13.240  12.076
17721W        W79252  26.080  18.107  14.385
17722W        W79253  21.125  25.663   2.410
17723W        W79254  28.648  16.215   4.682
17724W        W79255  17.236  22.689   2.743
17725W        W79256  44.840  21.667   3.720
17726W        W79257  36.074  39.370  12.848
17727W        W79258  38.418   8.793  12.420
17728W        W79259  23.102   5.433  12.404
17729W        W79260   4.267   1.310  13.994
17730W        W79261  43.316  14.243   4.669
17731W        W79262  22.681  31.942   3.654
17732W        W79263  31.603  24.512   4.754
17733W        W79264  43.311  15.666   3.205
17734W        W79265  17.723  13.138  11.996
17735W        W79266  32.525  31.639  11.866
17736W        W79267  15.139  12.769  10.443
17737W        W79268   8.191  26.207  11.952
17738W        W79269  15.318  24.681   0.265
17739W        W79270   7.732  14.775  12.435
17740W        W79271  11.687   2.226  14.824
17741W        W79272  22.528  41.371  12.052
17742W        W79273  41.490  12.346   2.387
17743W        W79274  35.977   2.392   3.818
17744W        W79275  44.478   1.449   1.362
17745W        W79276   9.652   8.203   1.435
17746W        W79277   2.377  19.257  14.793
17747W        W79278  27.136   0.375   1.404
17748W        W79279  18.574  39.882   0.771
17749W        W79280   3.270  39.037   5.277
17750W        W79281  44.328  44.793  13.816
17751W        W79282  20.666   3.792  11.502
17752W        W79283   2.722  20.594  13.377
17753W        W79284  35.985  15.309   2.306
17754W        W79285  13.827   5.344   1.842
17755W        W79286  17.233  30.016   4.763
17756W        W79287   5.382  22.083   3.188
17757W        W79288   7.325  29.090  14.341
17758W        W79289   4.318  34.439  10.930
17759W        W79290  23.529  10.353  11.537
17760W        W79291  15.148   9.165   3.868
17761W        W79292   2.305   4.932   2.243
17762W        W79293   3.931  16.254  11.910
17763W        W79294  40.878  42.505  13.310
17764W        W79295   0.453  24.189  11.601
17765W        W79296  22.212  31.436  12.015
17766W        W79297  12.250  12.161  13.337
17767W        W79298   3.348  36.528   4.308
17768W        W79299  11.353  42.885  12.095
17769W        W79300   9.388   2.454   1.385
17770W        W79301  16.172  15.304   0.843
17771W        W79302  25.605  24.045  12.934
17772W        W79303  13.288  21.650   1.341
17773W        W79304  43.845  40.401   4.270
17774W        W79305  39.549  20.701  11.497
17775W        W79306  34.550  36.094  12.931
17776W        W79307  28.443  42.440   0.468
17777W        W79308  30.985  17.073   3.721
17778W        W79309  43.418  15.587  14.891
17779W        W79310  43.902   8.852  12.955
17780W        W79311  30.151  19.235   4.231
17781W        W79312  22.595  26.673  14.795
17782W        W79313  29.127  21.183  10.941
17783W        W79314  40.469  39.475   4.710
17784W        W79315  31.986   9.223   0.868
17785W        W79316  32.894  41.023  10.449
17786W        W79317   8.824  15.774  11.986
17787W        W79318   5.285  24.622   0.887
17788W        W79319  18.570  20.767   1.758
17789W        W79320   6.746  14.826   2.802
17790W        W79321   3.279   1.895  11.040
17791W        W79322  33.429  39.950  11.861
17792W        W79323   6.701   6.207  14.999
17793W        W79324  25.496  16.129  14.291
17794W        W79325  17.800  32.988  14.858
17795W        W79326  28.066   1.380   4.839
17796W        W79327  25.490  13.786  11.989
17797W        W79328   0.965  15.185  13.523
17798W        W79329   7.271  15.586   4.219
17799W        W79330  44.345  20.034  12.885
17800W        W79331   9.165  35.022   1.927
17801W        W79332  32.629  23.500   1.410
17802W        W79333  35.371  29.982  12.077
17803W        W79334  33.887  44.296   0.893
17804W        W79335  16.102  18.585  11.916
17805W        W79336  43.336  37.405   4.761
17806W        W79337  33.500  31.463  13.494
17807W        W79338  13.798   2.900   3.275
17808W        W79339   1.739  24.721  13.437
17809W        W79340  23.637  16.609  11.510
17810W        W79341  43.863  19.557   0.359
17811W        W79342  31.444  29.615   3.256
17812W        W79343  13.112  38.433  14.491
17813W        W79344  44.268   1.830   4.159
17814W        W79345  32.429  31.002   0.243
17815W        W79346  29.121   6.845  14.869
17816W        W79347  26.527  14.297  10.096
17817W        W79348  12.135  23.601   4.775
17818W        W79349  26.495  37.352   2.689
17819W        W79350   5.343  12.838   2.902
17820W        W79351   3.893  16.170  13.434
17821W        W79352  37.573   2.418   4.708
17822W        W79353  15.642  26.123  12.412
17823W        W79354  29.654  36.934   0.845
17824W        W79355  29.931  39.370  13.366
17825W        W79356  10.823  22.009   4.284
17826W        W79357  24.538  18.195  13.000
17827W        W79358  36.859  41.033  11.107
17828W        W79359  16.769  17.105   4.616
17829W        W79360  15.098  12.199  11.079
17830W        W79361  43.914  26.975   0.775
17831W        W79362  36.517  41.403  14.876
17832W        W79363   0.360  14.652  10.467
17833W        W79364  14.777   4.844   3.324
17834W        W79365  14.699  27.685  10.593
17835W        W79366  27.093  37.914  14.945
17836W        W79367  22.613  36.526   0.286
17837W        W79368  11.251  10.705  12.987
17838W        W79369  40.373  32.527   0.322
17839W        W79370  18.613  39.490  13.832
17840W        W79371  37.556  27.987   3.759
17841W        W79372  16.619   5.256   4.120
17842W        W79373  11.143  40.403  11.403
17843W        W79374   8.355  10.299   4.300
17844W        W79375  40.544   4.387   0.930
17845W        W79376   6.918  24.530   0.397
17846W        W79377  18.555  29.483   1.849
17847W        W79378  26.173  22.744   0.302
17848W        W79379  11.867   7.908   0.374
17849W        W79380   8.264   1.827   3.305
17850W        W79381   3.922  23.577   5.116
17851W        W79382  42.418  41.993   3.261
17852W        W79383  19.649  41.798   0.296
17853W        W79384  31.929  30.934   0.251
17854W        W79385  30.080  40.954  12.427
17855W        W79386  11.666  20.075  10.451
17856W        W79387  37.443  34.408   0.412
17857W        W79388  34.469  37.903   1.451
17858W        W79389  13.152  19.574   1.870
17859W        W79390   7.407   2.960   2.860
17860W        W79391  19.265  30.127  11.871
17861W        W79392   0.356  20.128  12.467
17862W        W79393  30.651  24.541  11.935
17863W        W79394  33.566  39.455  14.856
17864W        W79395  16.260  17.169   0.403
17865W        W79396  30.045  29.669   1.906
17866W        W79397  12.179  22.700  11.570
17867W        W79398  15.152  21.064   0.760
17868W        W79399  25.981   0.957  12.372
17869W        W79400  18.780  31.597   1.294
17870W        W79401   2.240  44.496  14.379
17871W        W79402  23.240   6.788   1.723
17872W        W79403  40.371  35.926   3.819
17873W        W79404   6.724   0.415  14.323
17874W        W79405  17.276   3.889  12.473
17875W        W79406  30.527  15.309   2.267
17876W        W79407  22.559  16.761   0.452
17877W        W79408  29.135   8.330  13.934
17878W        W79409   8.354   9.884  10.561
17879W        W79410  25.071   0.389   4.762
17880W        W79411  22.091  30.911   0.277
17881W        W79412   1.379  39.952   0.404
17882W        W79413  36.588  42.837  11.034
17883W        W79414  39.346  23.096  13.890
17884W        W79415  11.725  34.439   5.127
17885W        W79416  35.058  10.652  12.887
17886W        W79417  19.616   9.381  10.430
17887W        W79418  19.585  36.415   0.449
17888W        W79419  44.816  34.590   4.602
17889W        W79420  34.045  31.970  10.407
17890W        W79421  35.088  31.647   2.686
17891W        W79422   5.713  26.505   1.218
17892W        W79423  29.062  10.162   1.438
17893W        W79424  32.594   7.799  10.592
17894W        W79425  38.832  19.128   3.265
17895W        W79426  44.502  15.226  13.917
17896W        W79427  33.932  44.302   2.304
17897W        W79428   9.395   6.732  11.961
17898W        W79429  42.810  14.724   3.244
17899W        W79430   4.301  30.125  13.973
17900W        W79431  11.268   9.861  13.546
17901W        W79432   1.334  31.954   1.358
17902W        W79433   6.818  17.150  13.866
17903W        W79434   7.864  44.766  12.912
17904W        W79435  17.159  29.056  12.883
17905W        W79436   6.822   3.813  11.409
17906W        W79437  38.898  25.566  14.758
17907W        W79438  26.698  18.674  12.368
17908W        W79439   5.261  34.608   0.460
17909W        W79440  34.461  25.201   3.806
17910W        W79441   7.697  16.111   2.672
17911W        W79442  29.502   3.838   3.381
17912W        W79443  34.533  10.683   4.646
17913W        W79444  19.681   1.351  13.484
17914W        W79445  33.066  31.918  14.496
17915W        W79446  43.825  27.685   0.246
17916W        W79447   6.186   9.299   3.774
17917W        W79448  22.652  29.090   3.278
17918W        W79449  30.583  33.580   4.269
17919W        W79450  25.118  17.560  13.535
17920W        W79451   2.320  38.905   4.127
17921W        W79452  36.864  32.466  12.023
17922W        W79453  29.441   1.352  12.069
17923W        W79454  19.103   3.890   2.307
17924W        W79455  12.751  40.350   0.902
17925W        W79456   9.230  44.914  12.528
17926W        W79457  37.377  22.086   0.368
17927W        W79458   4.785   2.759  13.515
17928W        W79459  14.213  39.340  11.964
17929W        W79460   4.232   5.704   0.735
17930W        W79461  41.024   1.774  11.578
17931W        W79462   0.456  29.041   2.326
17932W        W79463  42.811  28.487   0.964
17933W        W79464   7.892   2.304  12.059
17934W        W79465  18.576  29.645  11.986
17935W        W79466  39.058  15.631   4.172
17936W        W79467  42.776  23.196   3.307
17937W        W79468   1.894   2.262   1.874
17938W        W79469  19.253  32.015   2.369
17939W        W79470  18.696   0.893  12.088
17940W        W79471  31.085   1.397   4.136
17941W        W79472  37.477  31.600   3.823
17942W        W79473  26.550   9.286  10.916
17943W        W79474  30.501  25.628   4.661
17944W        W79475  41.916  17.092  14.958
17945W        W79476  40.846   5.249   0.322
17946W        W79477  42.948  32.625   0.307
17947W        W79478  28.135  13.711  13.358
17948W        W79479  13.650  40.443  12.846
17949W        W79480  15.710  16.286   2.822
17950W        W79481  18.190  22.713  13.020
17951W        W79482  33.565  28.596  10.980
17952W        W79483   0.834  37.343   3.841
17953W        W79484  35.965  34.578   3.658
17954W        W79485  30.491  29.936   4.703
17955W        W79486  35.951  33.460   3.675
17956W        W79487  10.185  42.385  11.046
17957W        W79488  41.894   8.695  14.276
17958W        W79489  24.611  44.296  13.055
17959W        W79490  28.458  14.626   0.762
17960W        W79491   7.388   3.752  13.894
17961W        W79492   1.763  44.362  13.807
17962W        W79493  32.126  27.639  13.922
17963W        W79494  38.463  26.464   0.360
17964W        W79495  31.929   7.401   4.225
17965W        W79496  25.172  23.560   0.256
17966W        W79497  33.066  33.093  13.526
17967W        W79498  20.036  12.152   1.252
17968W        W79499   9.223  12.658   2.383
17969W        W79500   8.237  35.359   3.149
17970W        W79501   1.966  24.631  14.793
17971W        W79502  12.138   8.776  12.421
17972W        W79503  23.219  18.738  11.063
17973W        W79504  36.962  27.101  14.005
17974W        W79505  40.314   7.226  14.446
17975W        W79506  44.006  34.878  13.404
17976W        W79507   3.886   1.242  14.373
17977W        W79508  33.100  34.481   4.730
17978W        W79509  35.935  20.028  12.472
17979W        W79510  37.999  24.074  11.932
17980W        W79511  44.969   7.846  14.350
17981W        W79512  23.010  34.605   2.901
17982W        W79513  43.513  16.574   0.293
17983W        W79514  34.977  20.726  11.591
17984W        W79515  37.425  24.551   0.266
17985W        W79516  34.531   1.921  14.492
17986W        W79517  29.169  10.311   2.330
17987W        W79518  15.164  30.938   0.860
17988W        W79519  27.683  12.164  10.575
17989W        W79520  27.971  17.212  10.094
17990W        W79521  11.701   0.475   0.334
17991W        W79522  22.067  10.220   3.686
17992W        W79523  41.862   4.332   3.682
17993W        W79524   0.474  40.474   3.641
17994W        W79525  35.001  36.841  10.633
17995W        W79526  11.719  30.062  12.970
17996W        W79527   2.435  12.840   3.318
17997W        W79528  32.948  37.374   2.330
17998W        W79529  14.308   5.858  11.391
17999W        W79530   1.242  31.907  12.547
18000W        W79531  40.324  25.537  11.537
18001W        W79532  25.568  10.203  10.005
18002W        W79533  14.727  18.646   1.396
18003W        W79534  23.608  39.437  13.039
18004W        W79535  14.833  43.283   1.265
18005W        W79536  16.212   4.848   3.381
18006W        W79537  35.531  30.580   0.895
18007W        W79538  20.652  13.755  14.423
18008W        W79539   6.882  30.632   2.724
18009W        W79540  36.384  35.056  13.844
18010W        W79541  37.433  41.816   3.743
18011W        W79542  15.209  43.342  14.397
18012W        W79543   3.250  33.029  14.805
18013W        W79544   7.911   3.412   4.130
18014W        W79545  35.421   1.339   0.367
18015W        W79546   6.343   8.831  12.929
18016W        W79547   1.278   6.762  12.898
18017W        W79548   4.222  18.108   3.698
18018W        W79549  22.133  21.560  14.326
18019W        W79550  31.549  31.092  14.873
18020W        W79551  24.152   2.400  11.090
18021W        W79552  37.891  26.079   4.822
18022W        W79553   0.332  37.493   3.365
18023W        W79554  11.700   3.931   0.307
18024W        W79555   6.825  14.646   4.266
18025W        W79556  22.705  28.649  11.080
18026W        W79557   3.392  31.492  11.022
18027W        W79558   0.479  21.603   1.922
18028W        W79559  34.513   7.745  11.108
18029W        W79560  29.921  13.144   4.173
18030W        W79561  44.456  44.897  12.838
18031W        W79562  19.588  34.453  10.997
18032W        W79563  43.366  23.498   1.770
18033W        W79564   9.312  11.797  12.829
18034W        W79565  29.637  25.068   2.770
18035W        W79566  17.096  28.528  11.951
18036W        W79567  22.507   2.862   1.285
18037W        W79568  32.139  12.703  11.601
18038W        W79569  29.662  33.109   4.180
18039W        W79570  11.285  19.659   2.847
18040W        W79571   8.235  24.622   3.246
18041W        W79572  42.014  14.620   3.684
18042W        W79573  27.070  23.138  13.888
18043W        W79574  23.005  38.922   0.351
18044W        W79575  16.158  37.468  12.908
18045W        W79576  41.497  26.081   0.387
18046W        W79577   5.222  30.516   2.895
18047W        W79578  38.907   4.711   2.245
18048W        W79579  38.015  27.069   1.841
18049W        W79580  23.524  38.531   0.295
18050W        W79581   5.833  41.397   0.753
18051W        W79582  13.805  32.999   3.726
18052W        W79583  16.253   6.918   4.729
18053W        W79584  41.381  14.759   1.334
18054W        W79585  38.326  14.776  10.468
18055W        W79586  20.522  31.985  14.008
18056W        W79587  34.535  33.955  14.930
18057W        W79588  27.171  30.575  13.327
18058W        W79589  13.791   5.318   2.832
18059W        W79590  15.101  16.286  13.909
18060W        W79591   6.909   3.410  14.503
18061W        W79592   5.724  31.993  13.916
18062W        W79593  25.139  13.655   0.255
18063W        W79594   4.414  20.062  14.031
18064W        W79595  23.078  18.108  10.931
18065W        W79596  34.874  30.462   3.348
18066W        W79597  30.027   2.387   2.718
18067W        W79598  41.479  42.488  13.915
18068W        W79599  38.073  44.836   3.630
18069W        W79600  13.233   9.828  11.447
18070W        W79601  21.244  22.621  12.359
18071W        W79602  16.149  36.452   3.714
18072W        W79603  40.365  12.288   4.283
18073W        W79604   3.403   7.873   4.838
18074W        W79605   5.690  26.538   3.157
18075W        W79606   3.305   9.832   2.702
18076W        W79607   4.432  31.123  14.297
18077W        W79608  36.970  32.016  10.614
18078W        W79609  31.929   9.718   4.599
18079W        W79610  29.928  23.536   4.166
18080W        W79611  33.565  40.310   1.878
18081W        W79612  14.620  26.679  13.412
18082W        W79613  32.610  14.623   1.735
18083W        W79614  36.471   3.811   4.283
18084W        W79615  34.401  40.439   2.879
18085W        W79616  23.498   4.856  10.518
18086W        W79617  23.142  32.542  13.525
18087W        W79618   8.759  10.324   3.339
18088W        W79619   9.769  17.617  14.351
18089W        W79620  25.508  25.015  11.538
18090W        W79621  36.442  27.514  14.987
18091W        W79622   5.835   8.776   1.700
18092W        W79623  44.299  13.158  13.312
18093W        W79624  23.536  31.532  10.110
18094W        W79625   2.364  10.380  11.517
18095W        W79626  28.006  24.154  14.929
18096W        W79627  19.270  31.144   2.780
18097W        W79628  20.244   0.882   3.271
18098W        W79629  39.335   1.268   3.720
18099W        W79630  21.536  11.765  12.557
18100W        W79631  21.672   9.311   0.456
18101W        W79632  18.257  30.985   2.357
18102W        W79633  21.193  20.205   4.680
18103W        W79634  25.170  43.013  12.441
18104W        W79635  39.860   4.830   3.293
18105W        W79636  22.615  13.329   0.888
18106W        W79637   5.850   3.719   0.326
18107W        W79638  44.403  14.784   0.950
18108W        W79639  24.162  28.000  11.994
18109W        W79640  14.609  20.170  13.972
18110W        W79641   5.891  18.786   1.825
18111W        W79642  11.688  32.017   1.406
18112W        W79643  23.691   6.320  14.023
18113W        W79644  40.875  38.035   1.814
18114W        W79645   8.330  25.000  12.579
18115W        W79646  44.291  23.720  11.959
18116W        W79647  23.099  13.654  11.601
18117W        W79648   2.786  36.075  14.823
18118W        W79649  44.917  39.881  13.335
18119W        W79650  13.276  23.656   3.241
18120W        W79651  20.646  14.697   2.184
18121W        W79652   7.264  21.516   0.872
18122W        W79653   7.725  18.260  11.917
18123W        W79654  11.208  13.337   1.756
18124W        W79655  14.796   6.726  13.496
18125W        W79656  44.383  31.565  12.387
18126W        W79657  29.518  14.650  14.801
18127W        W79658  18.791  13.210   1.306
18128W        W79659  37.559   0.267   4.688
18129W        W79660   4.871   7.310  13.000
18130W        W79661   5.275  33.529   4.735
18131W        W79662  41.461  36.933  11.086
18132W        W79663   4.850  43.791   4.120
18133W        W79664   7.248  33.910   1.383
18134W        W79665  35.094  18.129  13.517
18135W        W79666  27.096  21.141   2.795
18136W        W79667  26.092  40.871   0.754
18137W        W79668  35.366  22.202  14.937
18138W        W79669  33.080  35.873  13.899
18139W        W79670  44.931  40.839  11.504
18140W        W79671  13.127  28.476   4.155
18141W        W79672  11.845  26.546   1.219
18142W        W79673  31.072  35.025  14.009
18143W        W79674  30.520  13.166  11.982
18144W        W79675   2.735   1.888   2.342
18145W        W79676   8.844  39.496  11.432
18146W        W79677   1.938  44.393   4.614
18147W        W79678  43.447  15.612   2.228
18148W        W79679  13.138  42.889  10.624
18149W        W79680  30.440   3.333  11.050
18150W        W79681  42.852  14.213  10.628
18151W        W79682  14.813  18.173  11.610
18152W        W79683  20.030  36.459   2.769
18153W        W79684   2.912  37.016  13.955
18154W        W79685   3.718   1.881   1.227
18155W        W79686  20.105  14.790   2.703
18156W        W79687   5.865  42.952  12.538
18157W        W79688   9.777  17.572  12.377
18158W        W79689  16.129  42.782  11.513
18159W        W79690  39.030  25.980   0.823
18160W        W79691  40.985  14.591  14.513
18161W        W79692  40.814  12.851  14.846
18162W        W79693  25.148   1.456   2.838
18163W        W79694  26.970   6.732  11.043
18164W        W79695  26.149  21.682  11.518
18165W        W79696  24.989  20.738  12.054
18166W        W79697   7.723  21.742   3.293
18167W        W79698  11.132  28.136  12.453
18168W        W79699  18.190   7.715   1.274
18169W        W79700  44.394  16.089  12.572
18170W        W79701  40.901  34.063  12.096
18171W        W79702  30.659  43.988  12.543
18172W        W79703  25.623  42.790  11.003
18173W        W79704  28.062   2.290   0.265
18174W        W79705  11.310  25.968  10.636
18175W        W79706  33.559   3.315  10.081
18176W        W79707  27.963  30.915   4.794
18177W        W79708  18.640  10.374  13.405
18178W        W79709  19.631  39.022  12.373
18179W        W79710  32.977  20.080  14.341
18180W        W79711   7.714   2.247  11.567
18181W        W79712  32.002  20.755   0.411
18182W        W79713   8.288  12.610  13.829
18183W        W79714  20.660  29.553  13.835
18184W        W79715   8.368  18.657  11.081
18185W        W79716   3.304  40.950  13.393
18186W        W79717   1.876  36.097   4.691
18187W        W79718  20.703  34.064  14.450
18188W        W79719   1.272   3.220  12.999
18189W        W79720  26.100  40.515   4.303
18190W        W79721  32.540   9.739  12.381
18191W        W79722   7.671  35.887   9.992
18192W        W79723  33.893  22.627   2.354
18193W        W79724  25.590  19.574  13.360
18194W        W79725  22.174  22.738   0.311
18195W        W79726  35.048  39.393  12.517
18196W        W79727   4.880  39.333   0.833
18197W        W79728  22.226  33.583   0.369
18198W        W79729  24.187  13.152   1.813
18199W        W79730   5.758  28.117  11.524
18200W        W79731   1.880  21.676   3.196
18201W        W79732  19.608  26.517  12.535
18202W        W79733  22.605  20.124  13.874
18203W        W79734   3.275  22.655   1.765
18204W        W79735   0.477  30.500   0.366
18205W        W79736  34.065   5.304  13.028
18206W        W79737  43.497   3.250  13.462
18207W        W79738  31.405   0.254  12.008
18208W        W79739  12.710  41.944   1.904
18209W        W79740  18.221   6.801   4.722
18210W        W79741   2.949  40.532   0.399
18211W        W79742  28.497  15.743   2.255
18212W        W79743  27.446  15.579  14.352
18213W        W79744  35.950  30.567  12.576
18214W        W79745  43.921  25.085   3.708
18215W        W79746  13.304  12.701  11.516
18216W        W79747  44.409  24.675  14.030
18217W        W79748  20.564  43.998   1.388
18218W        W79749  11.746  21.034   0.852
18219W        W79750  18.602  42.391  10.644
18220W        W79751  30.095   4.257  14.823
18221W        W79752  25.150  29.530  12.051
18222W        W79753   0.804  16.162   1.307
18223W        W79754  13.241  27.090   4.300
18224W        W79755  42.363   4.449   2.313
18225W        W79756  18.565   7.839   0.469
18226W        W79757  24.717  23.656   1.228
18227W        W79758  15.214  34.418  10.583
18228W        W79759  17.216  36.378  14.407
18229W        W79760  21.102   3.898   2.791
18230W        W79761   2.886  23.221   1.451
18231W        W79762   3.239  42.000  10.623
18232W        W79763  23.663  11.746   1.369
18233W        W79764  41.344   6.337  11.575
18234W        W79765  39.883  29.059  13.416
18235W        W79766   9.253   5.822   1.395
18236W        W79767  28.176   1.449   3.856
18237W        W79768   0.984   3.449  11.986
18238W        W79769   8.873  12.679   3.276
18239W        W79770  31.135  10.650   3.798
18240W        W79771  11.682  18.148  10.067
18241W        W79772   4.911  25.496   1.297
18242W        W79773   8.763  16.711  11.859
18243W        W79774  23.639  39.907  14.025
18244W        W79775  38.033   0.954  12.480
18245W        W79776  19.550  21.701   3.289
18246W        W79777  14.332  38.457  14.983
18247W        W79778  27.604  13.281  12.994
18248W        W79779  18.081  39.928  10.422
18249W        W79780   5.822  31.606   3.649
18250W        W79781  24.599  15.772  14.300
18251W        W79782  22.583  30.923   1.755
18252W        W79783  37.034  20.185   3.708
18253W        W79784  10.344  11.150   3.774
18254W        W79785  16.778  23.053   2.364
18255W        W79786  33.115   7.391  10.914
18256W        W79787  39.506  28.075   2.763
18257W        W79788  15.310  18.132  14.826
18258W        W79789  21.044   2.471  12.853
18259W        W79790   2.808  15.203  13.857
18260W        W79791   9.356  44.305  12.912
18261W        W79792  38.424  15.755  10.556
18262W        W79793  30.615  26.179  14.772
18263W        W79794  17.599  16.254  14.318
18264W        W79795  18.776   7.311  11.378
18265W        W79796  28.101  12.757   1.293
18266W        W79797  29.623  33.901  14.015
18267W        W79798  35.983  40.336   1.310
18268W        W79799  42.947   2.960  13.818
18269W        W79800   6.851  13.260  12.411
18270W        W79801  41.318  19.078  10.626
18271W        W79802  12.303   1.389   0.403
18272W        W79803  24.587  42.964  12.394
18273W        W79804  19.779  13.705  11.129
18274W        W79805  39.812  12.158  13.798
18275W        W79806   6.313  36.520   2.890
18276W        W79807  38.486  32.131   0.338
18277W        W79808  17.270   5.407  13.871
18278W        W79809   8.709   0.776   5.680
18279W        W79810   9.803  38.417   2.188
18280W        W79811  26.989  42.319  13.527
18281W        W79812  20.553  20.138   0.924
18282W        W79813  38.031  20.581  14.926
18283W        W79814  27.164  39.895  14.002
18284W        W79815  34.891  40.527   2.853
18285W        W79816   2.921  31.925   2.864
18286W        W79817  15.308  20.234  10.923
18287W        W79818  22.555  42.950   1.794
18288W        W79819  10.753   9.815  12.402
18289W        W79820  23.572  21.169   4.826
18290W        W79821   0.336  35.101   3.740
18291W        W79822  21.020  39.514   3.810
18292W        W79823  34.055  14.822  12.883
18293W        W79824  13.157   6.352  11.898
18294W        W79825  27.605  33.997   1.289
18295W        W79826   9.715  15.243  11.012
18296W        W79827  42.402  21.026  12.398
18297W        W79828  23.527  15.749   1.827
18298W        W79829   5.249  31.910  14.289
18299W        W79830  10.143  33.925   3.325
18300W        W79831  28.051  27.509   4.147
18301W        W79832  42.296  43.867   3.693
18302W        W79833  31.971   9.276  12.365
18303W        W79834  32.955  31.410   4.825
18304W        W79835   1.362  43.869  12.483
18305W        W79836  20.697  21.071  10.432
18306W        W79837  42.442  34.048   4.299
18307W        W79838  21.103   3.256  11.456
18308W        W79839   4.281  11.694   1.263
18309W        W79840  37.838  12.259   4.230
18310W        W79841  28.654   7.797  10.086
18311W        W79842   3.799   4.434  14.476
18312W        W79843   5.218  20.646  10.901
18313W        W79844   9.877  18.160   1.914
18314W        W79845  20.044  30.911   2.832
18315W        W79846  30.029  18.690   1.222
18316W        W79847  15.787   1.316  12.007
18317W        W79848  14.703  15.105   1.920
18318W        W79849  43.943  24.994  10.514
18319W        W79850  33.469   6.883   0.335
18320W        W79851  11.736  44.350   3.856
18321W        W79852   0.449  34.982  11.033
18322W        W79853  39.551  20.265   0.791
18323W        W79854  21.709   4.231  10.985
18324W        W79855  39.416  18.247   2.693
18325W        W79856  24.105  15.170  11.974
18326W        W79857   6.808  40.015  12.385
18327W        W79858  28.542   3.789   3.749
18328W        W79859   3.785  26.549  12.886
18329W        W79860   7.731  23.034   3.646
18330W        W79861  31.636  13.838   2.732
18331W        W79862  12.614  22.554   1.810
18332W        W79863  29.510   2.891   2.180
18333W        W79864  24.490  14.602  11.483
18334W        W79865  17.255  17.099  12.358
18335W        W79866  30.911  20.229  13.924
18336W        W79867  14.764  34.073   4.305
18337W        W79868  11.326  34.873   2.321
18338W        W79869  38.520   4.906  14.465
18339W        W79870  24.152  36.904   3.283
18340W        W79871   8.740  12.209  12.345
18341W        W79872  26.986  24.484  11.421
18342W        W79873  32.601  14.120   3.787
18343W        W79874  38.024  37.858   0.832
18344W        W79875  40.337   9.261  10.416
18345W        W79876  28.679  36.082   2.793
18346W        W79877  41.006  38.460  14.294
18347W        W79878  35.911  43.901   4.641
18348W        W79879   3.787  29.476  12.888
18349W        W79880  29.460   6.377  12.959
18350W        W79881  27.589   7.204   3.300
18351W        W79882  20.261   5.236  13.407
18352W        W79883  26.969  23.653  14.884
18353W        W79884  12.180  24.722  14.027
18354W        W79885  24.634   4.720  10.895
18355W        W79886  17.719  43.959   0.320
18356W        W79887  20.257  33.028  12.020
18357W        W79888  27.507  43.465  14.778
18358W        W79889  38.824  18.257   3.826
18359W        W79890  32.556  11.324  11.381
18360W        W79891  36.882  28.650   3.852
18361W        W79892  28.580  19.776   1.257
18362W        W79893  44.843  22.237   2.195
18363W        W79894  44.393  35.506   4.309
18364W        W79895  44.927   3.765  11.448
18365W        W79896  37.941  40.850  12.392
18366W        W79897  33.515  27.511  12.024
18367W        W79898  21.648  17.729  14.484
18368W        W79899  44.336   8.198   4.236
18369W        W79900  31.640  24.051   1.869
18370W        W79901  43.388  41.459  14.921
18371W        W79902  24.662   3.756  13.877
18372W        W79903   8.743  17.174   0.416
18373W        W79904  34.986  37.382   2.259
18374W        W79905  16.691  11.685  10.993
18375W        W79906  30.970  44.463  12.401
18376W        W79907  37.375  21.730  12.512
18377W        W79908  42.840  23.610   3.841
18378W        W79909   9.382   0.767   2.413
18379W        W79910  34.955  17.668   1.318
18380W        W79911  35.106  11.298   3.189
18381W        W79912  33.047   0.891   2.325
18382W        W79913  10.788  44.309  14.312
18383W        W79914   1.813  39.472   4.301
18384W        W79915  20.214  31.609   1.870
18385W        W79916  38.490  33.038  14.768
18386W        W79917  36.586  42.798   0.910
18387W        W79918  29.939   2.239   1.800
18388W        W79919  11.660  20.195  13.794
18389W        W79920   9.350  11.662   4.771
18390W        W79921   3.745  27.028   4.823
18391W        W79922  12.228  30.121  12.023
18392W        W79923  29.949   0.875  10.482
18393W        W79924  10.673   1.919   3.871
18394W        W79925  32.022  44.378   3.828
18395W        W79926  41.930  21.594   1.365
18396W        W79927  30.085  44.895   4.201
18397W        W79928  10.170  34.481  14.450
18398W        W79929  28.464  39.894  12.575
18399W        W79930  27.594  27.631   1.880
18400W        W79931  40.017   9.692  12.553
18401W        W79932   3.891  34.615  13.377
18402W        W79933  27.463  21.551   0.474
18403W        W79934  23.159  37.942  12.980
18404W        W79935  24.043  41.324  13.918
18405W        W79936   8.389  23.680  13.538
18406W        W79937  12.780  22.093  13.052
18407W        W79938  43.835  15.114  12.351
18408W        W79939  13.642   7.214   3.265
18409W        W79940   0.785  21.580   2.249
18410W        W79941   3.908   0.370  12.393
18411W        W79942   3.783  12.838  14.415
18412W        W79943   9.346  38.353   4.723
18413W        W79944  14.140  42.782   0.315
18414W        W79945  38.539  12.283  12.473
18415W        W79946  23.028  30.998  13.965
18416W        W79947  19.248  37.068  13.952
18417W        W79948   5.419  19.285   0.313
18418W        W79949  44.840  24.152   0.306
18419W        W79950  41.810  13.682   4.803
18420W        W79951  24.989  35.408  11.481
18421W        W79952  28.533  13.691   0.428
18422W        W79953  14.793  25.129  10.093
18423W        W79954  20.668  20.685   4.155
18424W        W79955   3.914  29.080   4.767
18425W        W79956  21.548  22.061   3.173
18426W        W79957  41.508  14.648   2.391
18427W        W79958  19.257  38.336  10.117
18428W        W79959  16.188   7.809  10.890
18429W        W79960  16.587  13.136   3.714
18430W        W79961  14.129  25.036  14.468
18431W        W79962  40.948  32.398  14.334
18432W        W79963  30.068   7.667  12.545
18433W        W79964  43.843  23.578   4.139
18434W        W79965  22.999  40.378   2.669
18435W        W79966  19.736  42.375  14.292
18436W        W79967  26.964  34.483   1.734
18437W        W79968  22.572  36.854   0.402
18438W        W79969  36.469   1.753  13.413
18439W        W79970  15.707  22.512  13.337
18440W        W79971  37.904  23.121  10.962
18441W        W79972  10.363  21.748  14.344
18442W        W79973  20.199  27.605   0.911
18443W        W79974  34.117  16.150   0.832
18444W        W79975  41.447  36.022   4.697
18445W        W79976  12.786  26.543  12.907
18446W        W79977   7.858  23.521  12.553
18447W        W79978   4.212  39.908   1.365
18448W        W79979  10.647  39.550   4.314
18449W        W79980  14.728  30.420   3.246
18450W        W79981  16.763  16.655  11.423
18451W        W79982   1.840  38.488  10.460
18452W        W79983  22.703  44.378   4.837
18453W        W79984  44.480  20.231  11.382
18454W        W79985  24.505  39.034   3.772
18455W        W79986  15.266  44.359  14.310
18456W        W79987  39.349  23.225   4.150
18457W        W79988  24.651   8.666   1.904
18458W        W79989  30.427  12.142  10.975
18459W        W79990  43.295   8.776   5.144
18460W        W79991  12.291   8.277   1.897
18461W        W79992   3.954   0.424   4.146
18462W        W79993  33.092   3.919  11.003
18463W        W79994  44.836  40.376  10.631
18464W        W79995  28.018   9.736   2.355
18465W        W79996   6.726  30.934   2.231
18466W        W79997  17.084   8.237  11.515
18467W        W79998   2.725   4.374   1.740
18468W        W79999  40.327  31.940   1.757
18469W        W80000  32.889  13.804  13.499
18470W        W80001  38.863  27.657   3.673
18471W        W80002  33.560  28.493  12.419
18472W        W80003  18.190  38.906  14.879
18473W        W80004   5.301  37.475  14.770
18474W        W80005  13.318  20.240   0.872
18475W        W80006   7.385  44.301   4.786
18476W        W80007  18.760  23.081  13.540
18477W        W80008  10.270  13.755   3.687
18478W        W80009   4.346  12.647  13.959
18479W        W80010  24.578  40.845   1.707
18480W        W80011  27.186  39.432  12.847
18481W        W80012  20.115  15.651   0.274
18482W        W80013  33.892   7.375  14.401
18483W        W80014  34.460  38.855  13.977
18484W        W80015  24.976  16.653  10.411
18485W        W80016   9.359   4.383  13.857
18486W        W80017  40.976  25.005  12.077
18487W        W80018  21.599  31.073   4.752
18488W        W80019   4.245  33.071  11.093
18489W        W80020  12.250  27.509  14.509
18490W        W80021  22.177   1.927   3.776
18491W        W80022  39.377   7.376   1.412
18492W        W80023  44.338  44.295  14.367
18493W        W80024  37.859   5.870  11.436
18494W        W80025  20.708   7.251   3.668
18495W        W80026  30.614  11.247   1.880
18496W        W80027  30.989  11.675  12.849
18497W        W80028   7.829  30.539   3.840
18498W        W80029   5.817  27.627  10.914
18499W        W80030  12.326   9.354   0.471
18500W        W80031  44.500  12.654   1.432
18501W        W80032  44.340  27.501   3.699
18502W        W80033  32.570   4.246   2.783
18503W        W80034  36.428  32.408  14.865
18504W        W80035  29.574  35.101  14.467
18505W        W80036   0.300   6.223  10.563
18506W        W80037  27.499  39.545  12.043
18507W        W80038  12.304  11.653   1.836
18508W        W80039   2.424  26.104  12.487
18509W        W80040   7.323  41.786  14.841
18510W        W80041   5.861  19.225  12.462
18511W        W80042  41.503  42.927  10.123
18512W        W80043  26.579  31.615  12.438
18513W        W80044  12.681  32.067  14.409
18514W        W80045  21.601  18.750  11.935
18515W        W80046  37.003   7.401   0.260
18516W        W80047  37.521  25.526  11.067
18517W        W80048  37.944  15.662  10.629
18518W        W80049  26.546  31.899  10.493
18519W        W80050  35.529  25.692   2.821
18520W        W80051   6.308   5.743  10.894
18521W        W80052  43.826  23.181  10.549
18522W        W80053  15.136  12.802   1.231
18523W        W80054   9.828  12.240   1.828
18524W        W80055  42.873  18.736  10.973
18525W        W80056  13.206  42.994   9.964
18526W        W80057   2.734  16.132  14.468
18527W        W80058   7.717  23.226   4.632
18528W        W80059  29.555  26.471  11.017
18529W        W80060  27.554  16.796  12.507
18530W        W80061   2.258  41.420   0.812
18531W        W80062  27.139  31.029   0.896
18532W        W80063  33.003  38.990   2.280
18533W        W80064   4.776  31.050   2.685
18534W        W80065  22.618  29.662   3.189
18535W        W80066  28.063  41.947   1.325
18536W        W80067  23.634   3.948  10.986
18537W        W80068  29.040  12.197   1.396
18538W        W80069   5.752  10.322  12.916
18539W        W80070  19.717  42.381  11.470
18540W        W80071  18.700   1.330  12.896
18541W        W80072   8.834  26.997   4.168
18542W        W80073  32.527  16.091  11.925
18543W        W80074  13.688  25.536   3.261
18544W        W80075  14.620  19.160  13.316
18545W        W80076   2.813   6.203   3.829
18546W        W80077  15.592  16.087  13.530
18547W        W80078  16.635  22.509  14.858
18548W        W80079   1.258  20.196   2.402
18549W        W80080  36.456  30.468   2.895
18550W        W80081  27.495  16.302  14.974
18551W        W80082  36.964   1.335  13.482
18552W        W80083  20.723  34.534  10.610
18553W        W80084  20.180  28.179   4.291
18554W        W80085  12.160  35.967  13.027
18555W        W80086  15.244  21.051   3.256
18556W        W80087   9.764  32.563   1.325
18557W        W80088  10.741   4.207  13.513
18558W        W80089  23.172  43.880   1.395
18559W        W80090  22.117  40.475   4.642
18560W        W80091   7.893  28.680  10.426
18561W        W80092  25.102  25.626  12.044
18562W        W80093   4.231   4.370   1.740
18563W        W80094  32.015   0.268   4.614
18564W        W80095  37.559  21.117   1.378
18565W        W80096  24.610  27.586   3.663
18566W        W80097  37.931  24.575   2.788
18567W        W80098   2.385  20.525   3.718
18568W        W80099  15.237  11.168   1.886
18569W        W80100  10.225  23.193   1.283
18570W        W80101  16.183   8.280  12.087
18571W        W80102   6.290  11.639  10.151
18572W        W80103  21.525   1.738   1.787
18573W        W80104  35.000   6.214   1.383
18574W        W80105  31.055  21.116  12.008
18575W        W80106   0.835  42.331  11.383
18576W        W80107  21.722  43.765   1.233
18577W        W80108  33.433  18.121   1.445
18578W        W80109  25.614   0.468  14.381
18579W        W80110  29.972  18.642  13.406
18580W        W80111  33.589  42.354   1.729
18581W        W80112   2.348  10.853  13.360
18582W        W80113  29.547  41.436  13.828
18583W        W80114  40.442  11.685  12.061
18584W        W80115   4.910  29.622   0.333
18585W        W80116   2.787  24.189   3.214
18586W        W80117   5.265  23.496   3.256
18587W        W80118   7.328  30.549   3.165
18588W        W80119  30.634  30.019  13.857
18589W        W80120  19.277  38.384   9.616
18590W        W80121  36.420  16.103   1.437
18591W        W80122  41.361  36.086  12.483
18592W        W80123  29.637  28.046   1.849
18593W        W80124  32.637  24.593  12.345
18594W        W80125   8.392  36.062  10.583
18595W        W80126   0.261  43.493   0.270
18596W        W80127  19.595  16.763   1.736
18597W        W80128  25.212  33.089   0.381
18598W        W80129  32.505  23.711   0.247
18599W        W80130  33.901   3.777  14.440
18600W        W80131   1.827  22.638  11.957
18601W        W80132  19.651  42.479  10.128
18602W        W80133  35.569   0.266   0.430
18603W        W80134  23.732  43.464   2.888
18604W        W80135  37.513  38.967  14.339
18605W        W80136  12.235  44.753  14.855
18606W        W80137  35.559  29.045   4.340
18607W        W80138   0.911  16.681  11.103
18608W        W80139  42.850   8.291  11.926
18609W        W80140  15.612  42.371  14.780
18610W        W80141  29.940  21.580   3.219
18611W        W80142   1.332  11.679  13.896
18612W        W80143  40.840   0.747   0.959
18613W        W80144   9.733  19.173  10.947
18614W        W80145  24.496  13.299   2.850
18615W        W80146   4.251  44.795  13.932
18616W        W80147  14.186  12.739  11.506
18617W        W80148   1.913  37.392  10.455
18618W        W80149  36.921   1.769  12.452
18619W        W80150  16.674  37.963  13.443
18620W        W80151   0.302  35.445  11.065
18621W        W80152  27.039  35.508  11.903
18622W        W80153  32.131  37.384   5.097
18623W        W80154  23.567  37.876  12.436
18624W        W80155  40.523  28.169   1.286
18625W        W80156  34.085   6.310   4.201
18626W        W80157  19.741  17.151   4.737
18627W        W80158  39.867  23.662  11.879
18628W        W80159   4.445  17.109  13.307
18629W        W80160   8.746  17.221  12.502
18630W        W80161  14.292  22.107  12.410
18631W        W80162  17.698   7.292  13.793
18632W        W80163  10.252  11.286  10.001
18633W        W80164  26.073  12.339  13.310
18634W        W80165  34.394  36.094   0.263
18635W        W80166  40.428   8.828  12.937
18636W        W80167  40.535  42.996  10.090
18637W        W80168  29.438  14.109   3.292
18638W        W80169   8.188  32.432  10.448
18639W        W80170  41.833   4.893   0.337
18640W        W80171  30.022  38.939   1.700
18641W        W80172  14.630  44.869   2.178
18642W        W80173  31.640  33.077   0.735
18643W        W80174  37.355  33.070   4.609
18644W        W80175   3.298  34.580  11.875
18645W        W80176  34.940  19.159  11.969
18646W        W80177  21.036  40.973   4.289
18647W        W80178  32.140  36.448   1.408
18648W        W80179   4.873  38.044  11.003
18649W        W80180  31.582  17.112  14.373
18650W        W80181  21.618  33.425   2.411
18651W        W80182   5.278  10.863  10.498
18652W        W80183  25.090  41.798   3.630
18653W        W80184   5.922  31.006  11.067
18654W        W80185  29.017  44.943  12.355
18655W        W80186  20.167  36.961  13.889
18656W        W80187  39.996  21.596  13.339
18657W        W80188  18.652  41.487  12.435
18658W        W80189  39.319  15.657  14.854
18659W        W80190  42.849  13.289   5.212
18660W        W80191  12.343   7.784   0.472
18661W        W80192  35.410   6.318   1.694
18662W        W80193  37.894   8.669   1.406
18663W        W80194   4.416  30.073   2.419
18664W        W80195  26.206  10.745   3.193
18665W        W80196   1.864  22.240   4.269
18666W        W80197  30.528  42.511  11.594
18667W        W80198  26.062   2.431  14.958
18668W        W80199  33.523  43.449   1.231
18669W        W80200  32.959  26.098   1.327
18670W        W80201  29.055  40.977  11.928
18671W        W80202  32.000  12.781  11.026
18672W        W80203  12.663  41.518   4.183
18673W        W80204  44.369  22.171   4.216
18674W        W80205   2.732  21.159  12.838
18675W        W80206  25.659  14.803  12.412
18676W        W80207  31.023  16.193  14.386
18677W        W80208   3.925  27.474   5.306
18678W        W80209   8.394  28.577  12.570
18679W        W80210   3.334  23.505   1.331
18680W        W80211  35.955  11.623   4.194
18681W        W80212  34.939  11.820  14.320
18682W        W80213  11.804  21.731   1.738
18683W        W80214   5.885  26.097  13.024
18684W        W80215  17.597  23.662  12.497
18685W        W80216  32.936  34.559  11.508
18686W        W80217  44.501   3.336   0.276
18687W        W80218  28.659  14.818  12.049
18688W        W80219  26.196  35.446   4.821
18689W        W80220   9.392  42.806   5.234
18690W        W80221  23.677  32.586   3.238
18691W        W80222  16.695  14.212  12.339
18692W        W80223   9.643  31.083  10.116
18693W        W80224  17.714  24.544   3.712
18694W        W80225  35.557  41.510   3.737
18695W        W80226  30.442  37.353   4.214
18696W        W80227  26.177  33.129   0.484
18697W        W80228  12.651   1.883  13.055
18698W        W80229  42.848  37.050   0.402
18699W        W80230  42.830   9.767  14.844
18700W        W80231  22.171  36.861   1.258
18701W        W80232  18.702  11.710   1.776
18702W        W80233  18.129  41.388  13.502
18703W        W80234  38.535  27.997   3.735
18704W        W80235  32.120  30.420   2.406
18705W        W80236  23.207   6.279  10.905
18706W        W80237  44.827  18.722  14.507
18707W        W80238   2.353  29.563  14.826
18708W        W80239  21.234  12.792   1.402
18709W        W80240  27.560   1.334  10.918
18710W        W80241   4.715   3.926  13.406
18711W        W80242  13.761   7.892   0.270
18712W        W80243   3.815  36.973   1.741
18713W        W80244  10.284   4.886   4.335
18714W        W80245  37.505  11.628   4.198
18715W        W80246  20.034  41.960   4.715
18716W        W80247  29.465   9.849  12.064
18717W        W80248  12.734  26.174  10.551
18718W        W80249  38.967  14.821   4.683
18719W        W80250  15.270  29.595  10.623
18720W        W80251  11.803  36.097  13.338
18721W        W80252  24.711  10.701   1.210
18722W        W80253  28.035  10.845   1.781
18723W        W80254  43.768  31.921  13.909
18724W        W80255  43.850  43.488  13.344
18725W        W80256  29.661  12.178  14.490
18726W        W80257   5.906  24.692   0.932
18727W        W80258   5.240  29.140   0.927
18728W        W80259  35.441  21.591   4.598
18729W        W80260  23.041  35.912  14.970
18730W        W80261   1.387  31.044   1.368
18731W        W80262  34.561  42.366  12.989
18732W        W80263  16.749   2.452  12.505
18733W        W80264   1.339  40.421   4.725
18734W        W80265   8.307   1.260  13.333
18735W        W80266   3.279  30.096  10.546
18736W        W80267  39.847  28.001  12.854
18737W        W80268  20.038  19.709   1.854
18738W        W80269  30.063   2.746  12.407
18739W        W80270  23.063   2.797   3.220
18740W        W80271  19.187   9.690  11.541
18741W        W80272  22.528   8.802   4.326
18742W        W80273  42.931  14.734  13.015
18743W        W80274   4.860   2.258   0.772
18744W        W80275  38.326  24.603   4.691
18745W        W80276  40.442  43.931   4.693
18746W        W80277  10.344  10.846  12.003
18747W        W80278  12.780  14.257  13.932
18748W        W80279  10.639  36.990   2.881
18749W        W80280  44.858  37.951   4.744
18750W        W80281   2.418   9.240   4.167
18751W        W80282  24.504  34.978  13.337
18752W        W80283  28.067  26.507   5.198
18753W        W80284  22.020   8.219  10.611
18754W        W80285  28.128  30.613  12.855
18755W        W80286  35.604   4.732  11.985
18756W        W80287  24.987  14.662   5.172
18757W        W80288  32.901  29.106   4.652
18758W        W80289  19.584  26.592  10.975
18759W        W80290   4.737  13.176  10.954
18760W        W80291  14.208  13.220  13.418
18761W        W80292  19.180  12.625  14.032
18762W        W80293  30.142  17.200   1.236
18763W        W80294   5.917   8.210   2.880
18764W        W80295   1.953  14.277   2.697
18765W        W80296   4.405  14.834  11.612
18766W        W80297  37.853   3.343   4.197
18767W        W80298  34.063  44.298  14.437
18768W        W80299  39.560  10.698  11.377
18769W        W80300  40.937  37.533  12.392
18770W        W80301  22.147  11.621   0.470
18771W        W80302  23.239  38.894   1.306
18772W        W80303  34.383  15.286   1.747
18773W        W80304  11.685   9.180   4.679
18774W        W80305   4.235   0.321  10.589
18775W        W80306  43.460  34.416   1.859
18776W        W80307  40.396  32.012   2.337
18777W        W80308   6.761  35.969  10.960
18778W        W80309  20.108  13.138   4.751
18779W        W80310  18.201  22.527   0.249
18780W        W80311  15.627  16.576  12.890
18781W        W80312  19.091  10.779  14.876
18782W        W80313  18.669  32.998  13.803
18783W        W80314  20.164   4.275   1.752
18784W        W80315   3.359  14.607   3.780
18785W        W80316  14.772  38.333  11.466
18786W        W80317  33.933  30.650   3.760
18787W        W80318   8.366  42.909  12.092
18788W        W80319  18.197   3.863   3.736
18789W        W80320  17.252   9.324   0.349
18790W        W80321  19.045  24.131   2.384
18791W        W80322  29.483  43.840   3.211
18792W        W80323  20.098  33.512   0.840
18793W        W80324  20.669  41.811   3.745
18794W        W80325  21.216  15.761  10.944
18795W        W80326  17.555  36.510   2.875
18796W        W80327  20.244  37.046   2.865
18797W        W80328  18.572   7.305  14.299
18798W        W80329  24.666  15.233  13.859
18799W        W80330  17.214   0.324  12.486
18800W        W80331   9.212  43.271   1.747
18801W        W80332   0.336  29.174   3.332
18802W        W80333  12.671  26.639  12.523
18803W        W80334  14.313  23.007  11.509
18804W        W80335  17.654  41.330  10.949
18805W        W80336  39.453  44.476   0.755
18806W        W80337   8.684  24.144  12.897
18807W        W80338  28.579   3.361   0.444
18808W        W80339  12.237  41.040   4.284
18809W        W80340  37.514   9.824  12.528
18810W        W80341  10.823  17.653   1.803
18811W        W80342  38.036  13.698   4.176
18812W        W80343  41.391  29.071  14.291
18813W        W80344   6.920  36.914  12.096
18814W        W80345  14.128  13.218  12.436
18815W        W80346  42.458  27.080   2.189
18816W        W80347  29.963   8.307   1.768
18817W        W80348  24.670   8.821  13.513
18818W        W80349  10.875  19.132   3.784
18819W        W80350  27.995   1.936  14.764
18820W        W80351  37.838  30.634   5.227
18821W        W80352   4.817  15.142  14.879
18822W        W80353  39.403  26.036   4.191
18823W        W80354  32.482   8.807   2.727
18824W        W80355  44.321  34.932   0.245
18825W        W80356  18.625  31.107   1.449
18826W        W80357  11.317  12.693  11.399
18827W        W80358   1.753   5.210  14.957
18828W        W80359  41.869  36.975  12.359
18829W        W80360  18.567  10.284  11.047
18830W        W80361  20.246  12.644   0.834
18831W        W80362  27.569  39.923   3.798
18832W        W80363  33.965  42.296   2.720
18833W        W80364  11.736   2.877   2.217
18834W        W80365  21.192  20.579  14.900
18835W        W80366  31.932  20.093   4.632
18836W        W80367  40.004  11.710  10.961
18837W        W80368  15.578  31.084   5.272
18838W        W80369   7.389   5.221  11.007
18839W        W80370  31.902  27.537   0.918
18840W        W80371  40.912  22.743   2.326
18841W        W80372  43.859  43.913  14.984
18842W        W80373  38.961   7.320   0.478
18843W        W80374  24.558  25.508   0.729
18844W        W80375  42.360   2.375  12.953
18845W        W80376   3.391  28.450   0.863
18846W        W80377  30.578  34.594  11.002
18847W        W80378  39.342  10.323  11.547
18848W        W80379  38.546  42.387  11.422
18849W        W80380  16.613  34.465  10.457
18850W        W80381  16.249  44.800  14.316
18851W        W80382  29.613  35.094   2.182
18852W        W80383   4.398  11.339   3.299
18853W        W80384  43.288  36.354   1.734
18854W        W80385  14.637  17.174   0.764
18855W        W80386   4.849  28.625  13.386
18856W        W80387  10.785  22.740   1.388
18857W        W80388  33.904  22.647  14.492
18858W        W80389  40.815  42.948  11.990
18859W        W80390  31.005  28.664   2.418
18860W        W80391  33.505  24.651   2.817
18861W        W80392  19.101  34.012   0.738
18862W        W80393  44.290  11.197  10.426
18863W        W80394   7.887  42.830   1.396
18864W        W80395  13.233   2.904  14.918
18865W        W80396  23.199   4.765  12.894
18866W        W80397  36.450  20.525   3.725
18867W        W80398   0.922   1.926   4.238
18868W        W80399   1.299  26.137  14.861
18869W        W80400  10.324  41.994   3.807
18870W        W80401  34.543  33.914  14.285
18871W        W80402  14.096  28.056  13.968
18872W        W80403  26.121  32.045  11.426
18873W        W80404  37.539  13.765   3.277
18874W        W80405  41.515  41.430   1.429
18875W        W80406  15.780  28.132  10.497
18876W        W80407  41.013  31.503  13.534
18877W        W80408  44.862  18.546   2.331
18878W        W80409   4.308   8.813   1.349
18879W        W80410  29.089  12.620   0.464
18880W        W80411  17.079  23.143   2.314
18881W        W80412  15.643   6.691   3.761
18882W        W80413   6.420  10.674  13.824
18883W        W80414  23.203  38.072  13.840
18884W        W80415  12.683   2.917   5.217
18885W        W80416   6.358  11.855   3.358
18886W        W80417  13.803  23.218  12.537
18887W        W80418  35.933   6.851   1.737
18888W        W80419  19.689   0.473  11.529
18889W        W80420   5.347  25.503   4.243
18890W        W80421  33.625  10.358   0.876
18891W        W80422  41.378  33.608  14.510
18892W        W80423  10.150  39.021   1.739
18893W        W80424  25.140  21.649  13.853
18894W        W80425  16.248  22.021   0.747
18895W        W80426  21.707  31.642   1.270
18896W        W80427  19.153  25.490   2.687
18897W        W80428  41.901  13.187   0.481
18898W        W80429  39.818  18.223  13.516
18899W        W80430   4.935  30.983   4.767
18900W        W80431  13.247  39.411  10.515
18901W        W80432   0.968  10.766  10.451
18902W        W80433  20.763  35.995   2.394
18903W        W80434  34.574  44.767  12.898
18904W        W80435  39.892  15.108   4.313
18905W        W80436  31.506   0.786  11.499
18906W        W80437  14.136  34.034   3.688
18907W        W80438  44.461   4.720  14.937
18908W        W80439   7.799  43.013  13.374
18909W        W80440  40.489  31.419  12.058
18910W        W80441  42.900   4.722   2.775
18911W        W80442   4.817  16.081   9.929
18912W        W80443  15.768  28.653  12.444
18913W        W80444   7.760   7.871   4.225
18914W        W80445  43.897  11.157  12.049
18915W        W80446  12.657  33.511  10.496
18916W        W80447   1.434   3.841   3.201
18917W        W80448  36.580  24.517   0.847
18918W        W80449   0.872  38.559   3.220
18919W        W80450   8.822  24.578  13.881
18920W        W80451   8.248  10.646   2.865
18921W        W80452  18.242   2.906  10.890
18922W        W80453   5.262  26.698  14.317
18923W        W80454  33.584  19.597  13.960
18924W        W80455   4.236  13.644  10.643
18925W        W80456   8.817  36.987   3.831
18926W        W80457  12.265   4.309  11.487
18927W        W80458  28.674  40.022  12.018
18928W        W80459  27.176   7.344   1.708
18929W        W80460  15.143  30.532  11.518
18930W        W80461  22.694  41.506   4.149
18931W        W80462  31.517  36.488   2.693
18932W        W80463  38.008  42.908  12.915
18933W        W80464  11.218  32.089   1.874
18934W        W80465  17.611  23.729  11.444
18935W        W80466  26.664   5.413  12.507
18936W        W80467  13.809   0.843  13.995
18937W        W80468  40.468  10.668   3.727
18938W        W80469  34.024  13.290   2.252
18939W        W80470  12.287   5.301   2.663
18940W        W80471  18.728  38.929   4.660
18941W        W80472  36.969  17.261  12.939
18942W        W80473  20.187   9.169   4.128
18943W        W80474  28.620  35.464  13.355
18944W        W80475   9.745  40.817  12.421
18945W        W80476   7.831  31.134  10.634
18946W        W80477  13.822  35.520   3.712
18947W        W80478  44.283  26.478   1.920
18948W        W80479  13.788  23.530  14.301
18949W        W80480  11.786  12.779   0.795
18950W        W80481  29.006  24.518  11.066
18951W        W80482  30.641  24.496  14.792
18952W        W80483  16.076  39.341   2.687
18953W        W80484  34.069   4.433  13.312
18954W        W80485  11.696  10.169   2.711
18955W        W80486   5.369   7.882  13.819
18956W        W80487   2.946  27.171  13.507
18957W        W80488  15.665  35.547   3.797
18958W        W80489  12.321  11.715  14.408
18959W        W80490  14.319   9.231   1.911
18960W        W80491  22.709  37.508  11.895
18961W        W80492   7.901   8.367  12.875
18962W        W80493   8.245   4.210   0.729
18963W        W80494   5.742  19.068   4.181
18964W        W80495  33.088  31.118  13.441
18965W        W80496  10.790  14.796   1.347
18966W        W80497  29.655   2.344   0.473
18967W        W80498  34.018  33.396  11.564
18968W        W80499  15.686   0.801   1.844
18969W        W80500  37.338  16.701   1.744
18970W        W80501  23.092  20.040   4.677
18971W        W80502  17.207  22.642   1.429
18972W        W80503  34.993   4.759   3.753
18973W        W80504  10.205  17.744  10.515
18974W        W80505  42.484  37.889  14.440
18975W        W80506   3.904   2.236  11.034
18976W        W80507  33.453   6.760   5.121
18977W        W80508  42.929  13.294  12.902
18978W        W80509  23.038  18.082  13.471
18979W        W80510  39.059  11.861   2.789
18980W        W80511  42.876  40.459  11.445
18981W        W80512  25.690  36.911  12.463
18982W        W80513  13.781  13.185   4.712
18983W        W80514   4.721  42.490   2.183
18984W        W80515  34.076  19.167   1.450
18985W        W80516  16.769  18.144  14.898
18986W        W80517   2.444  29.640   5.298
18987W        W80518  29.976  22.742   1.400
18988W        W80519  12.734   0.963  14.275
18989W        W80520  41.865  43.855   2.197
18990W        W80521  17.168  16.318  11.921
18991W        W80522   0.870  28.175   1.893
18992W        W80523  38.511  22.547  11.506
18993W        W80524   8.862  30.071   3.717
18994W        W80525  24.089   1.788  12.374
18995W        W80526  16.235  31.533   3.774
18996W        W80527  19.762  11.173  11.371
18997W        W80528  42.780  22.619  11.011
18998W        W80529   7.747   5.821   0.407
18999W        W80530  31.432  14.153   1.417
19000W        W80531  44.945  27.601   1.340
19001W        W80532  30.063  12.199  13.054
19002W        W80533  22.120  27.171  11.950
19003W        W80534  16.109  21.019   0.316
19004W        W80535  30.566  27.656   1.909
19005W        W80536   1.300   1.768   2.688
19006W        W80537  31.598  19.192  14.878
19007W        W80538   9.778  39.520  12.949
19008W        W80539   8.391  43.855   1.321
19009W        W80540  21.588  30.455   2.810
19010W        W80541  17.741  25.199   5.739
19011W        W80542  28.035  43.484   0.392
19012W        W80543   7.258  14.647   0.258
19013W        W80544  18.190  18.695  14.955
19014W        W80545  16.574  40.998   1.441
19015W        W80546   3.758  16.076   1.719
19016W        W80547  24.147  16.749   3.261
19017W        W80548  17.704  23.989  12.423
19018W        W80549  10.679  12.620  12.871
19019W        W80550  23.145  39.955   2.343
19020W        W80551   4.243  32.990   3.793
19021W        W80552  42.368  25.485   3.266
19022W        W80553  42.842  39.055  10.088
19023W        W80554  27.082  28.489  14.979
19024W        W80555   1.446  37.531  11.860
19025W        W80556  25.026  40.412  11.542
19026W        W80557  27.953  13.621   9.978
19027W        W80558  19.604  16.803  12.350
19028W        W80559  27.683  41.787  10.893
19029W        W80560   3.269   1.364   2.673
19030W        W80561  41.525  28.493   2.361
19031W        W80562  11.271  21.115  13.866
19032W        W80563   7.797   2.375   3.373
19033W        W80564   6.219   0.256  13.894
19034W        W80565  37.558  10.197   2.390
19035W        W80566  18.241  22.231   5.140
19036W        W80567  34.552  19.556  11.994
19037W        W80568  44.451  13.832   1.865
19038W        W80569  17.676   8.338   4.150
19039W        W80570  25.182   4.710   4.712
19040W        W80571  36.572  35.046  13.326
19041W        W80572  12.224   2.433   1.384
19042W        W80573  22.125  43.893   1.906
19043W        W80574  35.520  22.717  10.433
19044W        W80575  35.580  14.106   1.321
19045W        W80576  18.625  22.027   1.895
19046W        W80577  24.715  42.880   3.813
19047W        W80578  36.871  17.259  13.357
19048W        W80579  34.916  43.385  11.987
19049W        W80580   9.827  13.138   4.814
19050W        W80581  18.072  30.566  12.975
19051W        W80582  21.251  32.023   3.158
19052W        W80583  32.934  20.182  11.507
19053W        W80584   6.779  16.703   3.853
19054W        W80585  23.995  34.900  14.316
19055W        W80586  25.481  38.062   4.217
19056W        W80587  31.013   4.715  10.592
19057W        W80588  41.460  25.984  11.438
19058W        W80589  32.507  22.511   4.353
19059W        W80590  19.216  20.122  11.980
19060W        W80591  23.720  20.702  14.344
19061W        W80592  10.679  43.277   1.363
19062W        W80593  24.694   3.267   4.693
19063W        W80594   2.791  38.869  13.506
19064W        W80595  33.021   9.310  13.942
19065W        W80596  25.591  33.594   3.778
19066W        W80597  34.119   5.392  12.079
19067W        W80598  32.542  17.727  13.426
19068W        W80599  27.012  18.564  11.862
19069W        W80600  44.449   0.286   0.803
19070W        W80601  34.513  23.029   2.765
19071W        W80602  23.073   8.214   4.647
19072W        W80603  21.205  40.051  13.315
19073W        W80604  42.908  38.392   0.768
19074W        W80605  25.527  15.122  14.879
19075W        W80606   7.690  29.531  14.346
19076W        W80607  28.077  31.897   4.607
19077W        W80608  26.063  39.043   2.383
19078W        W80609   6.806  37.420   0.370
19079W        W80610   8.259  19.141   2.396
19080W        W80611  42.346   0.792  13.848
19081W        W80612  32.142   0.951  11.449
19082W        W80613   3.950  18.673  11.522
19083W        W80614  18.717  28.000  14.311
19084W        W80615  33.036   4.909  11.908
19085W        W80616  23.019   9.246  14.362
19086W        W80617   4.892  28.956   3.368
19087W        W80618  30.562  36.500  13.997
19088W        W80619  37.881  29.511  10.640
19089W        W80620   5.339  16.627  13.854
19090W        W80621  30.615   0.432  11.391
19091W        W80622  10.181  42.309   3.341
19092W        W80623  29.141  44.775   1.214
19093W        W80624  37.033  31.564  14.001
19094W        W80625  20.269  21.648   3.693
19095W        W80626  27.985  40.358  13.520
19096W        W80627  41.918  24.498  13.448
19097W        W80628   0.288   5.222  14.007
19098W        W80629  18.194   7.248  14.331
19099W        W80630  35.359  14.745   9.976
19100W        W80631  32.506  43.766  11.122
19101W        W80632   7.302  12.260  13.500
19102W        W80633  42.995  36.423   2.407
19103W        W80634  28.186  27.566  11.858
19104W        W80635  44.307  44.414   0.822
19105W        W80636  15.219  42.399   4.332
19106W        W80637   8.723   2.876   0.456
19107W        W80638   6.393  36.049   3.702
19108W        W80639   8.685  18.603  11.971
19109W        W80640  42.385  17.190  11.917
19110W        W80641  28.509  27.189   3.860
19111W        W80642  42.977   7.748   4.761
19112W        W80643  40.410  35.918   1.811
19113W        W80644  11.845  37.866   4.700
19114W        W80645   5.208  44.337  14.856
19115W        W80646  34.041  18.141   3.782
19116W        W80647  40.803  38.904  13.514
19117W        W80648  15.299  40.379   3.787
19118W        W80649  43.282   0.800  13.479
19119W        W80650  32.432  15.606   0.348
19120W        W80651  43.362  36.902  12.929
19121W        W80652  25.976   3.296   2.221
19122W        W80653  16.309  10.242   4.330
19123W        W80654   2.337   0.480   3.704
19124W        W80655  30.435  39.895   4.132
19125W        W80656  32.981  32.603  14.894
19126W        W80657  20.082  17.067  13.824
19127W        W80658  27.455   9.344  13.896
19128W        W80659  41.926  34.480   3.792
19129W        W80660  34.506  17.286   5.175
19130W        W80661  15.653  18.079   1.820
19131W        W80662  17.595  10.302   3.716
19132W        W80663  10.351  10.219   1.716
19133W        W80664  28.930  44.425  12.937
19134W        W80665  22.553   3.908   4.171
19135W        W80666  43.962  34.423  14.457
19136W        W80667  29.429  31.422   1.259
19137W        W80668   6.768  16.138  14.006
19138W        W80669  44.481  28.946   2.876
19139W        W80670  32.530   5.907   0.318
19140W        W80671  23.984  13.314   3.320
19141W        W80672  34.454   1.373  11.470
19142W        W80673   4.767  21.615  11.390
19143W        W80674   3.783   3.847  13.422
19144W        W80675  35.013  42.409  14.463
19145W        W80676   2.328  23.213   4.692
19146W        W80677  39.979  36.872  12.927
19147W        W80678   8.741  33.433  11.427
19148W        W80679  41.452  18.752   0.906
19149W        W80680  29.002  26.050   4.665
19150W        W80681  38.838  25.524   2.741
19151W        W80682  35.400  25.652  10.936
19152W        W80683  39.408   3.286  13.891
19153W        W80684  17.259  10.826   3.276
19154W        W80685  40.541  35.029   0.835
19155W        W80686  17.303  27.560  14.327
19156W        W80687  20.729   7.840  10.601
19157W        W80688  26.686  32.122   4.774
19158W        W80689   7.837   7.306  13.930
19159W        W80690   5.916  16.089   4.268
19160W        W80691   6.238  12.331  12.859
19161W        W80692  10.717  14.299  14.414
19162W        W80693  37.064  16.107   0.964
19163W        W80694   0.319  17.193  13.406
19164W        W80695  22.145   9.876  13.025
19165W        W80696  29.165  27.607   4.699
19166W        W80697   2.330  23.618   9.568
19167W        W80698  10.144  14.823  12.035
19168W        W80699   2.931   3.346   0.855
19169W        W80700  22.192  20.666  12.469
19170W        W80701  41.038   9.204   4.159
19171W        W80702   4.925  29.115   1.875
19172W        W80703  29.962  36.988   2.245
19173W        W80704   5.236   9.214   2.238
19174W        W80705  17.107   9.798   1.912
19175W        W80706  30.630  21.070   5.226
19176W        W80707  26.623  24.174  12.845
19177W        W80708   5.293   9.239   1.413
19178W        W80709  10.828  20.737   3.234
19179W        W80710  19.534  24.611   1.804
19180W        W80711  30.082   2.734   3.290
19181W        W80712  42.996  17.606  13.334
19182W        W80713  10.743  29.164  14.972
19183W        W80714  20.530  29.512   3.149
19184W        W80715  29.920   8.371  14.367
19185W        W80716   1.268  30.422   2.707
19186W        W80717   3.366  13.170  14.852
19187W        W80718  10.707  33.434  11.090
19188W        W80719  31.091  26.521   5.253
19189W        W80720   0.836  43.471  14.919
19190W        W80721  34.558  11.824   3.634
19191W        W80722  10.671  38.459  10.956
19192W        W80723  35.538  10.263  10.623
19193W        W80724  31.950   5.700  10.932
19194W        W80725  24.587  11.200   4.638
19195W        W80726  33.497  41.390  11.434
19196W        W80727  23.062  36.487   2.321
19197W        W80728  41.892  24.174   4.765
19198W        W80729  37.578   8.668  11.112
19199W        W80730  32.095  43.318   1.905
19200W        W80731   3.348  23.605   3.703
19201W        W80732  16.769  36.912  14.837
19202W        W80733   3.302   4.279   2.302
19203W        W80734  21.722  19.549   4.815
19204W        W80735  33.038  34.537   4.291
19205W        W80736   6.328  22.737   4.316
19206W        W80737  37.575  31.065   4.731
19207W        W80738  26.144  41.833  13.997
19208W        W80739  10.747   8.700  12.011
19209W        W80740   7.763  32.408  12.022
19210W        W80741  28.579  13.643   4.119
19211W        W80742  29.932  30.656   2.851
19212W        W80743  41.479  43.396  13.919
19213W        W80744  20.704   8.738  14.890
19214W        W80745  40.488  44.825  10.524
19215W        W80746   7.796   6.752  10.440
19216W        W80747   6.686  29.040   0.901
19217W        W80748  25.484  32.584  14.984
19218W        W80749   1.776  19.258  13.997
19219W        W80750  34.009  44.984   0.746
19220W        W80751  39.424  29.596   4.716
19221W        W80752  40.484  44.482  14.767
19222W        W80753  13.618  17.561   2.392
19223W        W80754  33.496  21.758  13.314
19224W        W80755  35.081  33.428   0.379
19225W        W80756  27.049  40.001  13.434
19226W        W80757  12.784   3.853   0.362
19227W        W80758  16.786  44.929  14.300
19228W        W80759  39.950   8.376   0.732
19229W        W80760  12.323   8.332  14.841
19230W        W80761  38.487  25.098   4.802
19231W        W80762  14.801   0.745  10.631
19232W        W80763  22.999  43.490   4.611
19233W        W80764  11.763  40.435  10.971
19234W        W80765  34.925  37.366   0.319
19235W        W80766  14.731  14.301   4.814
19236W        W80767  33.882  20.243   4.651
19237W        W80768  18.629  34.556   2.368
19238W        W80769  22.608   2.908   3.670
19239W        W80770  14.223  29.549   3.699
19240W        W80771  32.523  22.619   2.892
19241W        W80772  29.433  35.920  12.365
19242W        W80773  24.146  43.829  10.547
19243W        W80774   9.256  28.637   2.762
19244W        W80775  16.793  20.116   2.326
19245W        W80776  32.985   6.679  13.063
19246W        W80777   9.257  43.847  11.983
19247W        W80778   7.748   4.384   0.280
19248W        W80779  19.670  43.386  11.938
19249W        W80780  22.594  22.583  14.305
19250W        W80781  42.369  22.996   3.798
19251W        W80782  40.392  28.035   2.819
19252W        W80783  38.477  20.745   4.276
19253W        W80784  35.984  34.534  11.894
19254W        W80785   9.800  34.010  10.449
19255W        W80786  26.133   1.330  10.449
19256W        W80787  18.615  29.170   0.413
19257W        W80788  16.224   4.818  14.893
19258W        W80789  10.170   3.871   0.763
19259W        W80790  42.990  11.718  12.070
19260W        W80791  37.842  15.624   2.257
19261W        W80792  18.296  31.053   0.912
19262W        W80793  26.633  27.521   9.962
19263W        W80794  19.774  26.965  10.445
19264W        W80795   7.279  10.287  10.590
19265W        W80796  44.914  17.703   1.336
19266W        W80797   8.752  14.769   2.259
19267W        W80798  30.564  29.449  11.605
19268W        W80799   8.319  24.664  14.026
19269W        W80800   0.389  37.533  14.511
19270W        W80801  36.966   8.296  14.459
19271W        W80802  12.793  31.621  14.829
19272W        W80803  35.070   6.212   1.872
19273W        W80804  35.478  38.568  10.006
19274W        W80805   5.771   0.936   4.644
19275W        W80806  41.803   8.730   2.774
19276W        W80807  19.269   4.304   4.203
19277W        W80808  23.052  37.444   3.806
19278W        W80809  26.669  42.415   1.236
19279W        W80810  20.132  10.222  11.910
19280W        W80811   5.401  37.888   1.802
19281W        W80812  30.427  25.112   2.820
19282W        W80813  17.608  39.537  12.354
19283W        W80814  35.448  29.484  11.459
19284W        W80815  30.070  15.732  10.965
19285W        W80816   6.261  40.921   0.327
19286W        W80817  14.318  41.948   4.187
19287W        W80818  13.822   3.730   2.403
19288W        W80819  23.032  10.289  10.438
19289W        W80820  11.346  40.973  14.843
19290W        W80821  11.860  13.199  14.908
19291W        W80822  42.885  28.102   4.222
19292W        W80823   6.765  41.333   2.749
19293W        W80824  16.627  34.452  10.939
19294W        W80825  22.130  12.784   1.289
19295W        W80826  37.937   1.862   0.872
19296W        W80827  13.239  16.135  13.942
19297W        W80828  25.563   7.785  14.496
19298W        W80829  31.023  30.977  12.065
19299W        W80830  20.102  16.148   4.312
19300W        W80831  18.280  25.631   0.450
19301W        W80832  38.981  40.893  12.341
19302W        W80833  26.554  44.413   0.870
19303W        W80834   5.758  38.845  12.944
19304W        W80835  20.766  12.184  11.559
19305W        W80836  36.984   0.405  11.404
19306W        W80837  25.691   1.875   3.343
19307W        W80838   2.720  30.635   1.710
19308W        W80839  17.691  10.822   2.878
19309W        W80840  35.545  30.930   4.671
19310W        W80841  28.020  43.815   3.741
19311W        W80842  43.963   0.249  14.978
19312W        W80843  43.516  29.024   4.632
19313W        W80844  44.359  36.498  11.023
19314W        W80845  17.240  36.080  11.476
19315W        W80846  17.099  44.908   3.198
19316W        W80847  31.551  21.756   4.621
19317W        W80848  15.320  30.075   4.281
19318W        W80849  33.029  40.482  13.917
19319W        W80850  18.727  30.025   2.359
19320W        W80851  27.625  42.911   2.244
19321W        W80852  29.992  26.201   1.266
19322W        W80853  40.516  31.609  10.966
19323W        W80854   5.756  32.115  12.505
19324W        W80855  26.634  22.731  14.987
19325W        W80856  30.979  39.819   3.291
19326W        W80857  25.029  42.988  11.572
19327W        W80858  15.784  26.649  11.566
19328W        W80859  27.102  38.028   1.410
19329W        W80860   0.390  40.956  14.275
19330W        W80861  19.768   5.797   2.817
19331W        W80862  19.275  16.586  10.906
19332W        W80863   4.440  16.189   0.750
19333W        W80864   7.223  32.977   1.752
19334W        W80865   3.713  27.589  10.449
19335W        W80866   9.338  27.055   2.731
19336W        W80867  20.093  24.010  13.915
19337W        W80868  20.699  41.991   0.256
19338W        W80869  22.550  37.566   2.394
19339W        W80870  18.052  23.088  11.065
19340W        W80871  33.613  40.863  13.853
19341W        W80872  10.705  18.700  13.994
19342W        W80873   8.180  37.504  13.321
19343W        W80874  42.906  30.492   4.229
19344W        W80875  20.768  18.552  11.577
19345W        W80876  35.537  42.344  12.932
19346W        W80877  26.588   9.726   0.477
19347W        W80878  42.910   2.228  11.422
19348W        W80879  22.190   6.760  11.584
19349W        W80880  10.762   4.856   0.781
19350W        W80881  30.985  11.721  10.022
19351W        W80882  34.416   6.200   1.848
19352W        W80883  42.500  11.807   1.368
19353W        W80884   2.836  11.650  14.950
19354W        W80885  32.469  41.450   1.370
19355W        W80886  26.459  22.198  10.035
19356W        W80887   8.183  13.301  13.051
19357W        W80888  15.688  30.031  11.469
19358W        W80889  15.664  21.089   4.172
19359W        W80890   0.883  35.896   4.204
19360W        W80891  37.468  42.294  11.399
19361W        W80892   6.716  25.102  14.478
19362W        W80893  16.282  17.266   2.811
19363W        W80894  14.142  26.160   3.295
19364W        W80895  42.506  26.166   4.808
19365W        W80896  39.970  36.499   2.419
19366W        W80897  32.547  43.865  13.504
19367W        W80898  15.218   8.814  13.474
19368W        W80899   9.280  44.437   3.273
19369W        W80900  32.499  27.107  14.982
19370W        W80901  24.091  14.813  11.057
19371W        W80902  41.535   9.848  12.997
19372W        W80903  27.167  37.887  12.421
19373W        W80904   6.886   3.243   2.269
19374W        W80905  14.294   3.724  10.978
19375W        W80906  29.002  34.038   2.661
19376W        W80907  25.108  16.690   2.278
19377W        W80908  34.997  14.808   1.712
19378W        W80909  16.312  12.229   4.636
19379W        W80910  26.091  19.660   3.780
19380W        W80911  18.659  42.801   0.827
19381W        W80912  29.998  38.555   0.363
19382W        W80913   0.908  41.396  14.414
19383W        W80914  22.164  28.142  11.065
19384W        W80915  40.852  40.033  14.766
19385W        W80916  35.475  14.281  11.431
19386W        W80917  26.508  43.875  11.023
19387W        W80918  15.665  17.116  14.919
19388W        W80919  31.015  17.667  10.955
19389W        W80920  13.601   4.409   4.778
19390W        W80921   9.381  25.498  11.916
19391W        W80922  19.073  37.832   2.877
19392W        W80923  26.622  14.666  13.390
19393W        W80924  24.563  16.717   1.698
19394W        W80925   3.742  43.965  12.902
19395W        W80926  31.632  22.123   3.250
19396W        W80927  36.973   0.761   1.315
19397W        W80928  22.021  16.794   3.848
19398W        W80929  11.372  26.525   4.775
19399W        W80930  17.681  10.264   3.326
19400W        W80931  24.619  36.926   4.279
19401W        W80932  16.104   9.234   0.470
19402W        W80933  25.192   8.807  13.412
19403W        W80934  33.937  21.055  12.065
19404W        W80935  18.732  44.831  10.431
19405W        W80936  18.578  28.634   4.156
19406W        W80937  14.221  24.653  13.999
19407W        W80938  33.476  15.109   3.809
19408W        W80939  41.015  29.169  11.059
19409W        W80940  30.107  34.069  10.450
19410W        W80941   8.237  38.351   2.736
19411W        W80942  23.555  21.634  12.435
19412W        W80943  27.970  12.727   5.189
19413W        W80944   7.785   6.908   1.704
19414W        W80945   0.857  13.608   0.429
19415W        W80946  15.098  40.902  13.341
19416W        W80947  27.536  23.107   3.832
19417W        W80948   2.279  14.754   0.813
19418W        W80949  16.761  39.514  11.470
19419W        W80950   6.886  34.049  14.877
19420W        W80951  12.817   5.704   2.368
19421W        W80952   3.380  33.915  14.408
19422W        W80953  22.611  28.677  12.496
19423W        W80954  28.139  26.152  13.378
19424W        W80955  18.559  25.034  14.861
19425W        W80956  26.106  15.694  11.520
19426W        W80957  38.005  14.827   1.421
19427W        W80958   5.214  39.367   3.861
19428W        W80959  35.908  39.974  14.462
19429W        W80960  12.295   7.293  14.329
19430W        W80961  34.516  18.175  13.044
19431W        W80962  41.370   5.216   3.795
19432W        W80963  40.049  10.321  12.380
19433W        W80964  41.402  39.958  12.916
19434W        W80965  29.614  43.982   0.414
19435W        W80966  14.134  18.102  14.016
19436W        W80967   3.292  43.779  14.317
19437W        W80968  30.532  31.906  14.883
19438W        W80969  36.496  28.128  10.082
19439W        W80970  38.006  14.186  12.449
19440W        W80971  41.853  10.799   1.858
19441W        W80972  27.195  16.811  11.008
19442W        W80973  23.084  18.214   3.257
19443W        W80974  35.093  37.400   0.850
19444W        W80975  29.169   2.316   3.835
19445W        W80976  43.819  28.962  10.581
19446W        W80977  27.624  27.522  13.985
19447W        W80978  27.062   4.701  13.920
19448W        W80979  15.695  22.224   2.684
19449W        W80980  24.500   7.176   3.164
19450W        W80981   7.852  27.957   4.328
19451W        W80982  34.523  40.839  14.374
19452W        W80983  11.706   5.361   3.846
19453W        W80984  22.566  21.757  12.938
19454W        W80985   7.748  11.164   1.854
19455W        W80986   4.314  18.242   4.344
19456W        W80987  15.146  14.337   1.911
19457W        W80988  23.134   1.372   2.859
19458W        W80989  33.122   4.244  13.336
19459W        W80990  21.240   2.745   2.714
19460W        W80991  23.235  33.028  11.415
19461W        W80992  36.407  18.560  12.467
19462W        W80993  38.852  25.538  12.010
19463W        W80994  20.602  19.579  11.893
19464W        W80995  35.087   4.724   9.945
19465W        W80996  34.890   9.210   3.210
19466W        W80997  23.494  26.595   4.206
19467W        W80998   6.729  43.809  13.425
19468W        W80999  24.176  22.570  14.949
19469W        W81000  26.615  37.485   0.820
19470W        W81001  26.107  14.133   3.340
19471W        W81002  32.054  21.660  13.410
19472W        W81003  40.427  18.582  10.892
19473W        W81004   9.759  13.733   0.362
19474W        W81005  32.913   7.203   0.908
19475W        W81006  26.477  20.149   1.368
19476W        W81007  32.122  32.044  14.481
19477W        W81008  18.109  40.836  13.863
19478W        W81009  41.793   3.848   0.951
19479W        W81010  26.053  39.989  12.961
19480W        W81011   3.736  41.976   1.237
19481W        W81012  38.494  31.589   1.772
19482W        W81013  41.871  41.537   3.234
19483W        W81014  24.550  13.703  13.466
19484W        W81015  15.685  13.636   4.645
19485W        W81016  27.617   8.252   0.269
19486W        W81017  30.628  10.659  11.885
19487W        W81018  29.055  34.997  13.808
19488W        W81019  35.875  10.641  14.988
19489W        W81020  35.571  32.496  11.464
19490W        W81021   1.756   6.811   0.448
19491W        W81022  25.671  18.682  11.468
19492W        W81023  30.088  43.981  10.564
19493W        W81024  32.617  34.502  13.965
19494W        W81025  28.108  31.013  13.386
19495W        W81026  14.330  15.121  12.997
19496W        W81027  36.849  27.031   1.829
19497W        W81028  36.992  26.536   0.952
19498W        W81029   6.847  13.668  12.849
19499W        W81030  23.219  34.032   1.723
19500W        W81031   9.227  39.827  14.501
19501W        W81032  32.102  20.643   3.227
19502W        W81033  10.849  19.560  11.432
19503W        W81034  14.803  43.407  10.893
19504W        W81035  19.189   5.327  12.535
19505W        W81036  16.087   1.952   0.251
19506W        W81037  10.384   9.381  12.454
19507W        W81038  28.659   5.722  10.570
19508W        W81039  42.894   2.867  11.574
19509W        W81040  13.743   1.276   5.258
19510W        W81041  27.053  20.075  14.015
19511W        W81042  11.249  39.417  12.042
19512W        W81043  28.646   8.697   1.749
19513W        W81044  34.557  27.973   3.780
19514W        W81045  34.548  32.112   4.119
19515W        W81046  37.412  34.536   3.370
19516W        W81047  33.908  24.154   0.389
19517W        W81048  10.210  44.502   4.257
19518W        W81049  36.879  44.375  11.610
19519W        W81050  17.170  40.987   1.708
19520W        W81051  24.168  41.028  11.081
19521W        W81052  19.134   2.889   0.299
19522W        W81053  16.698  27.177  14.365
19523W        W81054  41.801  16.577  11.894
19524W        W81055  44.324  21.565  14.929
19525W        W81056  33.599  14.181  10.953
19526W        W81057  12.721  37.560  13.343
19527W        W81058   7.256   8.841   3.761
19528W        W81059  32.634  24.019   1.416
19529W        W81060  26.684  12.768  14.783
19530W        W81061   4.930  37.400  12.473
19531W        W81062   0.398   7.282  10.536
19532W        W81063  33.947   8.785   2.331
19533W        W81064  10.174  10.169   3.209
19534W        W81065  13.690  13.251  11.979
19535W        W81066  12.170   4.378  10.505
19536W        W81067  13.288  43.935   0.867
19537W        W81068   4.820  38.025   4.181
19538W        W81069  33.505  21.722   4.283
19539W        W81070  19.164  14.174  13.844
19540W        W81071  20.572  27.520  14.339
19541W        W81072  42.925  14.783  12.422
19542W        W81073   9.260  12.340  12.961
19543W        W81074  13.749   4.726   1.902
19544W        W81075  34.936  23.203   2.793
19545W        W81076  23.001  43.497  10.412
19546W        W81077  42.860  29.021  13.004
19547W        W81078   2.775  14.764  11.017
19548W        W81079   2.727  31.500   4.150
19549W        W81080   5.702  13.187   1.210
19550W        W81081  42.501  20.183  12.998
19551W        W81082   0.451  33.979   2.735
19552W        W81083  32.582  44.486   3.682
19553W        W81084  31.622  13.320  13.821
19554W        W81085  39.559  19.548  14.861
19555W        W81086  41.459  32.961  11.917
19556W        W81087  10.228  13.233   1.827
19557W        W81088  16.121  33.910   1.350
19558W        W81089  19.219  29.595   1.400
19559W        W81090  44.819  38.549   4.782
19560W        W81091  32.085  18.568   1.366
19561W        W81092   3.417  33.408   4.228
19562W        W81093  19.099  44.351   4.308
19563W        W81094  28.164  28.943  10.596
19564W        W81095  34.094  35.913   2.747
19565W        W81096  25.510  41.014   0.410
19566W        W81097  23.042   6.200  12.429
19567W        W81098  31.638  11.740   3.865
19568W        W81099  26.564  26.663  13.534
19569W        W81100  25.679  17.691   1.926
19570W        W81101  37.863  43.391   2.742
19571W        W81102  37.922   7.257  14.827
19572W        W81103  37.907  40.360   1.227
19573W        W81104  33.096   3.409   2.280
19574W        W81105   6.422  37.410   1.700
19575W        W81106  32.063  15.308   0.833
19576W        W81107  11.781  24.690   0.373
19577W        W81108   2.236  34.564  12.396
19578W        W81109  22.214  32.634  13.432
19579W        W81110  42.345  43.402   4.123
19580W        W81111  24.115  25.114  14.279
19581W        W81112  37.451  20.716   0.266
19582W        W81113  10.659  20.551   2.288
19583W        W81114  14.818  32.981   4.318
19584W        W81115  34.509  32.580  13.907
19585W        W81116  42.505  31.967  12.022
19586W        W81117   0.771   4.851  12.377
19587W        W81118  43.911  14.590  14.825
19588W        W81119  38.341  38.955   4.284
19589W        W81120  26.158  39.028   9.955
19590W        W81121   7.249  24.521   3.304
19591W        W81122  36.093  43.854   0.378
19592W        W81123  16.098  18.711   4.282
19593W        W81124   3.803   4.223   4.738
19594W        W81125  40.922  40.397   4.738
19595W        W81126  41.916  43.516  11.493
19596W        W81127  40.918   4.283   4.296
19597W        W81128  15.674  29.626   2.352
19598W        W81129  31.566  40.923  13.331
19599W        W81130  20.661  19.565   3.719
19600W        W81131  24.160  28.973   9.444
19601W        W81132  24.019   6.900   1.836
19602W        W81133   2.929  28.137  10.451
19603W        W81134  15.252  16.178   4.275
19604W        W81135  41.818  29.512   4.675
19605W        W81136  41.364  25.512  13.377
19606W        W81137   7.347  43.783   0.951
19607W        W81138   3.823  36.443   2.379
19608W        W81139  21.639  40.536   0.279
19609W        W81140  12.705  12.612   2.223
19610W        W81141  15.695  38.491   0.898
19611W        W81142  39.900  31.924  14.915
19612W        W81143  23.080  12.138  11.416
19613W        W81144  11.292  39.390  11.492
19614W        W81145  37.019  27.087  14.787
19615W        W81146  41.914  25.486  12.031
19616W        W81147   4.837  31.633  13.032
19617W        W81148  35.082  25.481   2.736
19618W        W81149  10.187  41.419   2.412
19619W        W81150   8.259  15.696  10.943
19620W        W81151  32.519  41.891  13.984
19621W        W81152   8.700  43.403  11.009
19622W        W81153  12.757  37.573  11.542
19623W        W81154  36.425   5.854  12.921
19624W        W81155  12.834  17.593   2.364
19625W        W81156   6.823  35.372   1.223
19626W        W81157  21.258  10.711  12.882
19627W        W81158  25.088  30.094  11.536
19628W        W81159  23.020  44.423  13.542
19629W        W81160  11.668  44.284  13.360
19630W        W81161  40.825  31.572  11.019
19631W        W81162  20.072  17.599   0.296
19632W        W81163  32.559  26.538  13.924
19633W        W81164  31.952   4.249   0.446
19634W        W81165  44.860  37.357   0.941
19635W        W81166  16.318  23.563   0.403
19636W        W81167  34.438  13.169  10.491
19637W        W81168  27.645   7.324   4.310
19638W        W81169  41.892   2.954  10.934
19639W        W81170  35.423   3.401   0.743
19640W        W81171  21.063  17.178   5.241
19641W        W81172  40.005  40.493  13.059
19642W        W81173  44.435  14.293  14.973
19643W        W81174  20.760  13.785  11.858
19644W        W81175   2.877   1.306  10.927
19645W        W81176   4.817  12.338  11.409
19646W        W81177  20.048  31.934  10.892
19647W        W81178  15.704  26.142  11.007
19648W        W81179   5.342  26.041  12.902
19649W        W81180  38.354  16.591  12.990
19650W        W81181   0.964  24.619   5.654
19651W        W81182  13.796  36.018   2.752
19652W        W81183  40.508  12.745   0.752
19653W        W81184  25.182  26.053  10.563
19654W        W81185   6.900  14.832   2.392
19655W        W81186  34.428  12.263   4.712
19656W        W81187  39.903   9.656  11.579
19657W        W81188  18.190  28.135  12.985
19658W        W81189  25.007  22.203  10.438
19659W        W81190  35.590  30.488  10.473
19660W        W81191   9.232  41.985   3.730
19661W        W81192   1.928  44.444   3.306
19662W        W81193  18.624  30.925   1.928
19663W        W81194   6.216  18.696  12.506
19664W        W81195   9.861  43.835   0.378
19665W        W81196  35.018  25.637  12.942
19666W        W81197  36.052  27.975   5.216
19667W        W81198  12.118   0.472  11.018
19668W        W81199  35.868   3.384  12.359
19669W        W81200  29.493  43.295   4.328
19670W        W81201  39.866  22.163  10.437
19671W        W81202  25.609   7.776  12.466
19672W        W81203  29.596  43.840   1.275
19673W        W81204  36.059  24.997  12.347
19674W        W81205  29.433   3.257  12.567
19675W        W81206  42.466  37.882   0.269
19676W        W81207   7.349  41.934  10.576
19677W        W81208  16.187  29.426   4.231
19678W        W81209  39.471  19.578  12.952
19679W        W81210  27.655   4.208   1.807
19680W        W81211   8.337  32.545  10.993
19681W        W81212  37.911  25.064   2.899
19682W        W81213  31.410   7.906   1.734
19683W        W81214  29.151   2.813   2.849
19684W        W81215   2.770  17.730  13.878
19685W        W81216  24.492  36.394   0.435
19686W        W81217  34.884  24.107   0.383
19687W        W81218  24.093   2.764  13.434
19688W        W81219   1.934  16.227  11.604
19689W        W81220  17.063  22.224   3.187
19690W        W81221  40.860  25.521  11.433
19691W        W81222  31.626  37.928  11.059
19692W        W81223   5.384  23.705   4.353
19693W        W81224  12.346  16.686   2.208
19694W        W81225  18.287  15.679  12.409
19695W        W81226  26.063   8.824   1.336
19696W        W81227  29.659  29.083  10.933
19697W        W81228  13.680   0.983  11.424
19698W        W81229  25.120  22.096   2.797
19699W        W81230   7.199  27.116  14.317
19700W        W81231   1.751  30.604  10.483
19701W        W81232  42.873   1.263   3.657
19702W        W81233  33.041  40.897   3.860
19703W        W81234  23.512  28.930   4.285
19704W        W81235  30.508  43.393   0.369
19705W        W81236  21.744  13.710   3.352
19706W        W81237  12.327   9.804  13.376
19707W        W81238  32.129  43.516   3.233
19708W        W81239  14.655   1.383   1.863
19709W        W81240  19.768  16.676  11.506
19710W        W81241  41.868   2.400  11.049
19711W        W81242   3.730  43.912   3.684
19712W        W81243  18.761   7.255   4.814
19713W        W81244  16.798  18.289   3.323
19714W        W81245  20.765  34.001   2.231
19715W        W81246  27.563  14.252   4.214
19716W        W81247   8.882  12.181  11.941
19717W        W81248  12.840   2.960   1.918
19718W        W81249  41.037  31.138  13.058
19719W        W81250  38.908  19.741   4.597
19720W        W81251  18.639  43.015  12.445
19721W        W81252  20.157  19.629   2.690
19722W        W81253  43.777  44.300   2.750
19723W        W81254  44.281  27.052  10.474
19724W        W81255  25.581  30.531   0.911
19725W        W81256  20.029   7.876   4.823
19726W        W81257  36.099   0.320  14.303
19727W        W81258  35.085   2.366   4.827
19728W        W81259  43.839  40.370   0.285
19729W        W81260  39.330  28.661  14.009
19730W        W81261  14.619  27.125   4.140
19731W        W81262   2.348  17.072   2.768
19732W        W81263  31.589  41.301   2.771
19733W        W81264  41.466   8.835   0.411
19734W        W81265  32.491   3.401   1.888
19735W        W81266   2.333  17.712   0.788
19736W        W81267  13.669   9.887   1.291
19737W        W81268   8.731  13.819   2.228
19738W        W81269   3.252  43.928   0.900
19739W        W81270  32.448   7.409   3.798
19740W        W81271  35.894  37.536   2.846
19741W        W81272  11.250  33.903   1.723
19742W        W81273  10.191  43.308   4.327
19743W        W81274  33.547  31.494  13.889
19744W        W81275  18.185  27.023   4.682
19745W        W81276  30.911  34.509  12.878
19746W        W81277   1.265  37.438  13.391
19747W        W81278   0.309  41.792  11.545
19748W        W81279  42.918  38.465  12.941
19749W        W81280   4.823  16.191  13.796
19750W        W81281   8.275  32.451  13.960
19751W        W81282  33.999  24.996  13.006
19752W        W81283  42.959   7.856   4.320
19753W        W81284  29.458  38.054  11.087
19754W        W81285  17.558  37.981   1.320
19755W        W81286  14.727  14.617   3.635
19756W        W81287  12.723  19.562   3.292
19757W        W81288   7.765  35.908  12.868
19758W        W81289  37.839  10.309   3.223
19759W        W81290  11.349  21.751  13.992
19760W        W81291  34.936  16.619  13.852
19761W        W81292   4.439  16.774  14.294
19762W        W81293  17.296   8.285   2.859
19763W        W81294  16.109  31.038  11.566
19764W        W81295  31.403   8.189   9.524
19765W        W81296  24.159  32.580  12.383
19766W        W81297  16.805  28.949   1.238
19767W        W81298  20.531  14.233  11.045
19768W        W81299  23.022  27.086  11.085
19769W        W81300  15.736  28.651   3.825
19770W        W81301   7.256  40.378   3.711
19771W        W81302  35.499  23.219  12.471
19772W        W81303  18.770  22.024   1.296
19773W        W81304   8.748  31.931   4.609
19774W        W81305   4.748  19.760  13.831
19775W        W81306  33.950  18.566  12.517
19776W        W81307  12.168  15.666  14.436
19777W        W81308  44.457  25.698  14.016
19778W        W81309  23.073  28.962  12.462
19779W        W81310   3.415  31.525   4.828
19780W        W81311  36.059   6.801  11.949
19781W        W81312  19.077  40.984   2.416
19782W        W81313  37.958  27.681  11.518
19783W        W81314  44.292  25.637  13.429
19784W        W81315  38.545  41.503  13.806
19785W        W81316  15.725   1.456  14.006
19786W        W81317  37.006  13.735  13.900
19787W        W81318  10.801  16.748  12.823
19788W        W81319  16.093  20.750   3.314
19789W        W81320  42.949  44.316  13.527
19790W        W81321   3.892   5.758   0.452
19791W        W81322  41.388  15.148  12.038
19792W        W81323  41.534   9.255   1.342
19793W        W81324   6.797  25.152   2.374
19794W        W81325  31.419  43.996  11.411
19795W        W81326  27.945  42.396  10.888
19796W        W81327  11.730  11.728  13.856
19797W        W81328  37.485   0.436  13.359
19798W        W81329   9.872  44.952   3.679
19799W        W81330  32.542  21.756   3.735
19800W        W81331  41.376   9.256  10.446
19801W        W81332  20.161  19.265  11.600
19802W        W81333  43.874   4.764   0.436
19803W        W81334  33.625  21.107  14.870
19804W        W81335   0.313  36.401   4.787
19805W        W81336  33.394  42.864  11.394
19806W        W81337  34.566  17.616   1.302
19807W        W81338  35.991  18.743   5.092
19808W        W81339   4.748  15.321   1.272
19809W        W81340  36.593  27.077  14.279
19810W        W81341   1.917  21.154  13.429
19811W        W81342   3.836  32.083   0.903
19812W        W81343  11.653  42.524   2.412
19813W        W81344  15.167  37.501  13.545
19814W        W81345  26.200  38.403  13.024
19815W        W81346   6.205  24.188   5.298
19816W        W81347  13.602  28.455   4.301
19817W        W81348  36.571  19.586   4.193
19818W        W81349  26.627   7.845   1.346
19819W        W81350   6.915  18.121  13.014
19820W        W81351   9.175  29.145   2.230
19821W        W81352  16.244   8.198  14.489
19822W        W81353  28.158  39.319   1.383
19823W        W81354  15.772  42.871  14.803
19824W        W81355  40.335   1.321   1.271
19825W        W81356  10.273  21.087  13.809
19826W        W81357  20.143  40.365   3.239
19827W        W81358   3.880  12.144   1.380
19828W        W81359  15.766  41.483  10.986
19829W        W81360  10.711  10.788  13.314
19830W        W81361  23.037  18.067  14.817
19831W        W81362   9.776  16.567   1.703
19832W        W81363  43.846   0.743   0.737
19833W        W81364  22.152  20.638  13.483
19834W        W81365  41.494  12.794  14.828
19835W        W81366  41.423  12.725   4.240
19836W        W81367  42.442  10.155   0.277
19837W        W81368  36.574   5.243  11.049
19838W        W81369  42.961  33.397   2.822
19839W        W81370  41.909   7.316   2.800
19840W        W81371  37.890  31.950   4.770
19841W        W81372  25.095   5.930   2.701
19842W        W81373   3.920  40.004  13.531
19843W        W81374  22.740  12.686   0.253
19844W        W81375  43.789  14.207   3.209
19845W        W81376  40.485  39.043   3.630
19846W        W81377  42.421   5.426  10.927
19847W        W81378  37.520  22.684   1.400
19848W        W81379   3.889  43.873  14.999
19849W        W81380  39.323  35.874   3.867
19850W        W81381  35.008  40.850   2.843
19851W        W81382  25.628   2.347   3.225
19852W        W81383   3.369  27.132  12.409
19853W        W81384  35.986  43.375  12.479
19854W        W81385  33.427  29.110   4.789
19855W        W81386  13.108   1.266   9.981
19856W        W81387  32.031  18.754  12.528
19857W        W81388  31.490  19.151   2.778
19858W        W81389  30.580   5.715  13.866
19859W        W81390  25.060  22.023  12.901
19860W        W81391  22.183   2.814   4.203
19861W        W81392  11.863  11.721   4.243
19862W        W81393  41.843  16.728  13.804
19863W        W81394  21.660  11.336  11.871
19864W        W81395  28.600  33.595  13.513
19865W        W81396  22.035  30.955   3.339
19866W        W81397  21.625  31.947  12.884
19867W        W81398   5.248  40.325   4.652
19868W        W81399  28.532  31.912   4.620
19869W        W81400  42.402  17.276   1.365
19870W        W81401  30.581   9.813   1.884
19871W        W81402  12.190  38.505  10.617
19872W        W81403  26.153  20.033   4.328
19873W        W81404  34.864  18.647  13.315
19874W        W81405   4.937  12.313  12.848
19875W        W81406  12.715  15.085  13.546
19876W        W81407  29.015  23.238   3.663
19877W        W81408  36.383  12.236  13.406
19878W        W81409  21.154  22.232  11.966
19879W        W81410  44.998  13.345   2.312
19880W        W81411  11.624  21.057   2.257
19881W        W81412   4.377  32.969  11.605
19882W        W81413   3.909   1.904   4.146
19883W        W81414  20.571   1.379   0.749
19884W        W81415  16.790  19.542  14.345
19885W        W81416   0.811  26.208  12.515
19886W        W81417  19.754  13.780   2.277
19887W        W81418  37.497   1.879   3.704
19888W        W81419  10.375  44.497  14.001
19889W        W81420  27.656  12.295   2.275
19890W        W81421  20.274  15.173   0.834
19891W        W81422  22.157  22.077  11.435
19892W        W81423  43.474  41.440   0.346
19893W        W81424   5.855  13.766  12.042
19894W        W81425   6.817  29.959   1.233
19895W        W81426  22.156  29.459   3.643
19896W        W81427  11.321   4.340  14.792
19897W        W81428   2.303   6.689  14.473
19898W        W81429  12.728   1.359   3.820
19899W        W81430  34.882   3.224   2.189
19900W        W81431   2.878   0.806  13.405
19901W        W81432   7.312  26.598  12.971
19902W        W81433  14.724  43.369   4.195
19903W        W81434   6.865  24.718  14.953
19904W        W81435  43.378  14.710  11.858
19905W        W81436  26.573   2.453  14.436
19906W        W81437   7.814  29.596   4.764
19907W        W81438  16.767   4.846  13.049
19908W        W81439  18.190  22.739   3.780
19909W        W81440  19.158  24.705   3.768
19910W        W81441  30.912  39.509   1.386
19911W        W81442  43.816  43.337  10.495
19912W        W81443   8.865   4.421   2.695
19913W        W81444  27.014  11.751  10.540
19914W        W81445  40.431  21.086  12.339
19915W        W81446  42.371  34.110   0.885
19916W        W81447  42.407  38.482   1.218
19917W        W81448  36.092  28.057   4.352
19918W        W81449  35.431  13.186   2.755
19919W        W81450  13.268  26.084  12.950
19920W        W81451   8.827  31.132   1.740
19921W        W81452   0.840   1.284  12.007
19922W        W81453   3.358  35.521   4.683
19923W        W81454  20.067  22.121   0.430
19924W        W81455  39.436  21.237   2.873
19925W        W81456  13.749  38.911   4.222
19926W        W81457  22.165  17.773   3.366
19927W        W81458  38.001   4.735  13.352
19928W        W81459  37.521  15.808   0.959
19929W        W81460  35.387  31.421   2.739
19930W        W81461  21.556  38.004   1.883
19931W        W81462   4.305  40.861  11.031
19932W        W81463   6.748   6.837   0.436
19933W        W81464  40.051  16.118  13.448
19934W        W81465   9.799  21.537   3.322
19935W        W81466   8.165  44.839   4.247
19936W        W81467  12.212  16.101  13.501
19937W        W81468  27.034  41.938   0.820
19938W        W81469  30.431  36.488  10.453
19939W        W81470  20.208  31.928   3.386
19940W        W81471  14.105  12.697   4.683
19941W        W81472  40.466  35.432   4.796
19942W        W81473  17.753  40.386   4.331
19943W        W81474  32.133  26.600  14.948
19944W        W81475   2.375   7.290   1.834
19945W        W81476  32.886  44.269  10.989
19946W        W81477  18.051   3.438  11.608
19947W        W81478  17.083   8.718   2.198
19948W        W81479   2.963  11.129   2.354
19949W        W81480  44.007  17.292   1.212
19950W        W81481  16.812  32.525  13.959
19951W        W81482  25.968   3.405   1.739
19952W        W81483  38.390   4.788  11.409
19953W        W81484  32.431  12.826  13.384
19954W        W81485  32.933  19.698  11.010
19955W        W81486  43.288  34.913  14.865
19956W        W81487  37.009  32.480  12.484
19957W        W81488  42.919  33.985  14.301
19958W        W81489  16.165  21.243  10.931
19959W        W81490  17.585  40.967   3.702
19960W        W81491  35.084   6.356   5.246
19961W        W81492  25.012  43.394   1.398
19962W        W81493  24.034  28.451   0.813
19963W        W81494   1.912  21.517   2.813
19964W        W81495  12.641   6.835  14.516
19965W        W81496  22.186   2.375  14.784
19966W        W81497  27.690  30.513  11.009
19967W        W81498  31.039   3.431   1.736
19968W        W81499  40.540  22.075   2.359
19969W        W81500  16.236  34.084  14.448
19970W        W81501  15.764   0.374   3.323
19971W        W81502  38.511  28.087   4.210
19972W        W81503   0.881   7.348   5.229
19973W        W81504   1.951  15.231   3.345
19974W        W81505  41.963  37.572   3.670
19975W        W81506  10.270  22.240   3.654
19976W        W81507   4.806  37.346   2.357
19977W        W81508  25.508  30.422  11.103
19978W        W81509  31.935  33.969  11.035
19979W        W81510  37.015  15.317   1.263
19980W        W81511  17.287  22.027  10.024
19981W        W81512  34.882  17.286  14.820
19982W        W81513   4.824  34.583  12.964
19983W        W81514  10.730  24.003  11.867
19984W        W81515  37.492  17.591  12.934
19985W        W81516  31.995  32.887   2.388
19986W        W81517  33.063  21.057   0.767
19987W        W81518  14.776   2.933   0.316
19988W        W81519  13.251  11.337  11.913
19989W        W81520  40.875  16.634   3.665
19990W        W81521  39.430  43.009   0.903
19991W        W81522  34.501   3.919   1.448
19992W        W81523  29.012  23.216  12.361
19993W        W81524  36.858   1.365   0.269
19994W        W81525   8.354   3.215  14.443
19995W        W81526  30.444  12.208  13.925
19996W        W81527  40.379   6.892  12.017
19997W        W81528   7.410   4.823   4.612
19998W        W81529  17.063  42.399   1.439
19999W        W81530   8.898  44.872   3.654
20000W        W81531  26.050   9.879   9.606
20001W        W81532  17.699  24.138  11.451
20002W        W81533  24.693  12.615   4.173
20003W        W81534  30.589  20.614  10.445
20004W        W81535  42.299  26.026  13.019
20005W        W81536  39.327  36.965   1.770
20006W        W81537  39.403  13.629   4.204
20007W        W81538  31.093  35.474   1.778
20008W        W81539   2.439  38.927  14.344
20009W        W81540  44.288  35.556   1.709
20010W        W81541  24.532  38.559   4.160
20011W        W81542   0.320  37.052  14.869
20012W        W81543  30.439  14.632  11.377
20013W        W81544  10.375   5.868  10.155
20014W        W81545   3.909  28.618   0.254
20015W        W81546  19.535  14.591  13.527
20016W        W81547  25.083  12.136  14.497
20017W        W81548  12.836  27.076   3.642
20018W        W81549   0.305  14.656   2.385
20019W        W81550   2.857  14.189  10.465
20020W        W81551  26.089   0.800   3.798
20021W        W81552  12.345   8.255   0.871
20022W        W81553  22.097  27.558  13.403
20023W        W81554   4.370   6.799  11.556
20024W        W81555  27.477  22.601  14.374
20025W        W81556  28.013  24.097   4.113
20026W        W81557  29.050  17.776   2.284
20027W        W81558  34.018  21.583  11.114
20028W        W81559  24.186   6.259  10.638
20029W        W81560  13.325  16.721   3.686
20030W        W81561  25.045  19.214  11.398
20031W        W81562   5.237  36.576  10.571
20032W        W81563  40.439   5.900  11.381
20033W        W81564  43.876   5.835  13.378
20034W        W81565   3.947   1.972  10.918
20035W        W81566  21.589  25.049  10.979
20036W        W81567  31.427  34.602  14.469
20037W        W81568  22.158   2.819  12.919
20038W        W81569   3.406  31.116  10.593
20039W        W81570  26.164   1.404   2.802
20040W        W81571  28.537  10.814  10.060
20041W        W81572  22.702   0.277  12.359
20042W        W81573  10.219  25.037   0.310
20043W        W81574  28.580  18.616   2.878
20044W        W81575   3.275   9.306  14.779
20045W        W81576  36.935  43.398  12.847
20046W        W81577  33.978  24.642   4.677
20047W        W81578  41.306  24.203   3.841
20048W        W81579  36.991  24.487  11.103
20049W        W81580  18.670  25.039  13.432
20050W        W81581   4.735  41.329  12.021
20051W        W81582  27.007  11.700  11.580
20052W        W81583   5.333  39.475  12.536
20053W        W81584  38.058   6.786  13.878
20054W        W81585   3.372  28.435   1.730
20055W        W81586  42.825   9.212   4.754
20056W        W81587  17.088  42.018   2.778
20057W        W81588  32.436  40.959  14.312
20058W        W81589   8.716  31.443   2.184
20059W        W81590  35.431  28.997  10.933
20060W        W81591  40.045  34.112   3.731
20061W        W81592   8.888  19.146  14.303
20062W        W81593  12.614   2.746   4.156
20063W        W81594  33.061  41.832  12.874
20064W        W81595   3.745  37.022  12.443
20065W        W81596  24.090   3.238  10.995
20066W        W81597   8.173  42.785  12.544
20067W        W81598  18.730  37.964   3.276
20068W        W81599  42.513  12.739  10.636
20069W        W81600  20.527   0.426  12.487
20070W        W81601  11.781  11.704   0.311
20071W        W81602   0.926  37.983  10.588
20072W        W81603  32.028  31.416  11.979
20073W        W81604   5.805  41.887   3.756
20074W        W81605  27.682  33.481   0.245
20075W        W81606  41.974  41.966  10.630
20076W        W81607  20.594  30.072   4.310
20077W        W81608  19.778   5.910  13.886
20078W        W81609  28.034  41.026   4.722
20079W        W81610  34.069  13.735   9.453
20080W        W81611   4.918   1.356   2.697
20081W        W81612  31.045  10.191   4.189
20082W        W81613  40.506   6.820   3.659
20083W        W81614  34.025  26.616   4.263
20084W        W81615   4.830   0.883   4.746
20085W        W81616  40.491  22.599  12.883
20086W        W81617  43.870  32.918   0.435
20087W        W81618  28.580   0.881  11.934
20088W        W81619  14.238   2.399  10.568
20089W        W81620  28.026  34.118  11.010
20090W        W81621  41.397  39.531   1.873
20091W        W81622  30.080   9.650   2.809
20092W        W81623  18.544  11.190   0.461
20093W        W81624   7.833  27.101  11.400
20094W        W81625  26.627  37.003   0.799
20095W        W81626  38.378  42.938   4.143
20096W        W81627   3.874  38.336  13.939
20097W        W81628  29.435  36.894   0.285
20098W        W81629  27.481   9.809  13.314
20099W        W81630  38.921  35.030  11.124
20100W        W81631  37.986  34.451   3.715
20101W        W81632  21.593  11.293  12.829
20102W        W81633   6.902  38.438   2.684
20103W        W81634  41.467  28.109  10.554
20104W        W81635  35.399  13.751  13.950
20105W        W81636   8.192  14.213  13.844
20106W        W81637  18.082   1.366  13.320
20107W        W81638   9.277  29.119   0.761
20108W        W81639  27.004   6.283   0.250
20109W        W81640  28.145  21.636   4.119
20110W        W81641   6.897  29.984   3.809
20111W        W81642  16.235  24.589   0.291
20112W        W81643   7.708  30.655  12.046
20113W        W81644   2.817  17.140   2.353
20114W        W81645  17.233  20.560  14.316
20115W        W81646  22.647  37.930   5.770
20116W        W81647   0.985  34.553   4.200
20117W        W81648   4.932   3.396   3.710
20118W        W81649  28.459   3.848  11.537
20119W        W81650  32.045   2.936   3.265
20120W        W81651  15.636   0.830  11.492
20121W        W81652  28.492   6.684   1.259
20122W        W81653  43.514  33.048  14.480
20123W        W81654  43.783  36.465   2.819
20124W        W81655  20.609  24.056  10.414
20125W        W81656  35.948   3.405  13.453
20126W        W81657   6.734  38.519  14.801
20127W        W81658  28.572   6.872  13.326
20128W        W81659  16.119   0.440  11.608
20129W        W81660   4.236   9.775   2.335
20130W        W81661  17.239   9.356  13.999
20131W        W81662  28.144  25.545  13.019
20132W        W81663  30.074   7.218   3.703
20133W        W81664  23.608   8.239  14.951
20134W        W81665  14.290  41.910   4.653
20135W        W81666  38.836  29.963  12.828
20136W        W81667  17.588   1.966  11.899
20137W        W81668   6.319  24.080  11.994
20138W        W81669  17.732   8.721   0.364
20139W        W81670   2.322   6.874   1.706
20140W        W81671  29.462  18.168   1.328
20141W        W81672  24.713  26.601  14.277
20142W        W81673  22.241  25.098  10.622
20143W        W81674  34.582  42.932  14.997
20144W        W81675  31.899  39.864  13.389
20145W        W81676  25.975  13.218   4.729
20146W        W81677  29.601  31.492  12.906
20147W        W81678   7.682  20.262   3.711
20148W        W81679  23.212  11.302   4.733
20149W        W81680  33.995  22.666   4.319
20150W        W81681  40.978  17.256   0.869
20151W        W81682   4.781   3.800  12.951
20152W        W81683   5.815   6.309   4.320
20153W        W81684   4.801   3.408  12.409
20154W        W81685  43.008  41.313   3.250
20155W        W81686  40.538  23.701   4.658
20156W        W81687  39.040  20.541   4.234
20157W        W81688  28.643  44.265   1.329
20158W        W81689  30.526   2.723   2.367
20159W        W81690  16.181  41.834  13.059
20160W        W81691  22.120  21.722  12.008
20161W        W81692  26.963  14.734   4.831
20162W        W81693  34.410   6.777   4.824
20163W        W81694   1.263  38.010   1.342
20164W        W81695  28.114  29.161   4.698
20165W        W81696  25.003   4.304  13.796
20166W        W81697  19.600  17.586   1.890
20167W        W81698  18.084  33.428   1.411
20168W        W81699   1.341  14.339   4.715
20169W        W81700  42.808  29.455   0.298
20170W        W81701  42.393  24.178  11.080
20171W        W81702  10.789  30.519   2.233
20172W        W81703   7.900  14.122   0.759
20173W        W81704  39.557  29.594  12.543
20174W        W81705  32.481   7.175  12.888
20175W        W81706  35.495  29.531   2.790
20176W        W81707  34.538  13.749   2.712
20177W        W81708   1.732  21.548  12.835
20178W        W81709  24.198   4.248  11.505
20179W        W81710  26.198  43.944   0.251
20180W        W81711   3.801  39.857  12.963
20181W        W81712  17.673  37.432   1.244
20182W        W81713   7.390   5.334   3.210
20183W        W81714  10.177   5.231  11.042
20184W        W81715  44.360  35.389   3.302
20185W        W81716  27.190  44.333   4.816
20186W        W81717   5.389  31.024  13.996
20187W        W81718  44.928  15.157   2.305
20188W        W81719  27.058  39.053  11.072
20189W        W81720  40.043  36.581  11.908
20190W        W81721   9.248  39.855  13.505
20191W        W81722  25.179  13.263   5.186
20192W        W81723   2.278  38.959   0.772
20193W        W81724  40.960   5.930   0.764
20194W        W81725  20.619  12.284   1.248
20195W        W81726   1.875   9.264   2.215
20196W        W81727  23.655  15.218  13.896
20197W        W81728   9.206  19.210   2.816
20198W        W81729  43.455  10.791  12.026
20199W        W81730  43.008  11.316   4.310
20200W        W81731  37.919  40.829   0.846
20201W        W81732   3.435   5.218  13.805
20202W        W81733  29.587  11.774   0.480
20203W        W81734  22.698  39.493  13.405
20204W        W81735  10.168  18.634  11.968
20205W        W81736  20.190  15.280   2.812
20206W        W81737  31.937  39.974   4.138
20207W        W81738  43.353  29.551  14.280
20208W        W81739  42.285  38.831   4.337
20209W        W81740  26.467   8.712  13.931
20210W        W81741  20.060  35.890  14.373
20211W        W81742  33.108  35.492   4.326
20212W        W81743  16.138   5.293   4.689
20213W        W81744  35.471  18.181   3.809
20214W        W81745  39.059  37.350   5.147
20215W        W81746  44.771  30.519  12.570
20216W        W81747  23.026  29.545   4.136
20217W        W81748   3.895  39.842   4.738
20218W        W81749  25.143   7.390  12.093
20219W        W81750  31.148  25.979  12.985
20220W        W81751   0.344   2.427   0.344
20221W        W81752  40.311  33.615   0.407
20222W        W81753   0.357  41.440   2.788
20223W        W81754   4.433  43.805  13.018
20224W        W81755  35.897  26.957  12.984
20225W        W81756  37.050  29.611   0.732
20226W        W81757   2.421  21.166   4.194
20227W        W81758  24.165  20.217   3.849
20228W        W81759  23.113   7.727   2.184
20229W        W81760  42.361  17.745   1.382
20230W        W81761  16.316  22.143   0.352
20231W        W81762   3.326  16.106   3.210
20232W        W81763  44.382  33.907   4.738
20233W        W81764  29.538   1.894  11.952
20234W        W81765  31.038  11.150  12.552
20235W        W81766  43.828  41.407   4.260
20236W        W81767  38.343   1.334   0.347
20237W        W81768  21.578  44.986  12.371
20238W        W81769  13.155  26.663  13.893
20239W        W81770  23.559   1.940  12.523
20240W        W81771   1.902  38.850   0.257
20241W        W81772  10.248  43.945   1.874
20242W        W81773  38.883  19.286  12.082
20243W        W81774  34.396  36.969   3.160
20244W        W81775  26.550  37.036   1.694
20245W        W81776  40.805  25.993   3.782
20246W        W81777  37.574  35.391  10.491
20247W        W81778  11.798  26.527   1.758
20248W        W81779  15.129  19.097   1.704
20249W        W81780  27.468  20.564  13.836
20250W        W81781   1.318  41.974  13.990
20251W        W81782  42.441  17.752   4.785
20252W        W81783   0.267  16.245  11.915
20253W        W81784  14.675   2.272   2.260
20254W        W81785  25.169  28.001   2.310
20255W        W81786   6.876  43.490   1.312
20256W        W81787  41.955  35.374  12.013
20257W        W81788  44.868  42.844  11.859
20258W        W81789  27.551   2.888   4.311
20259W        W81790   9.229  31.046   1.773
20260W        W81791  32.897  17.718   1.280
20261W        W81792   1.371   3.821  12.907
20262W        W81793   3.823   3.377  11.448
20263W        W81794   5.790   0.385   2.299
20264W        W81795  29.586  27.522   4.733
20265W        W81796  12.167  14.665  11.461
20266W        W81797  26.586   0.984  14.854
20267W        W81798  23.528  19.689   2.273
20268W        W81799  40.968  39.367   3.744
20269W        W81800  31.430  28.473   3.318
20270W        W81801  22.180   8.794  12.094
20271W        W81802  23.733   5.284   4.751
20272W        W81803  29.655  13.255  11.891
20273W        W81804  34.571   6.288  10.583
20274W        W81805  26.073   9.201   0.858
20275W        W81806  25.963  43.984   1.926
20276W        W81807  43.453   2.773  14.980
20277W        W81808  16.171  30.568   1.894
20278W        W81809  10.249   0.260   5.226
20279W        W81810  31.020  18.293  11.099
20280W        W81811  35.954   7.869  13.890
20281W        W81812  31.013  18.099  11.985
20282W        W81813  21.725  29.995  14.442
20283W        W81814   1.355  27.468  13.905
20284W        W81815  39.837  28.443  14.793
20285W        W81816  33.508  34.999  10.953
20286W        W81817   8.760  20.274  13.473
20287W        W81818  11.302  43.409  14.439
20288W        W81819   7.737  12.298   3.857
20289W        W81820   7.376  41.923  12.855
20290W        W81821  42.027  23.658   4.712
20291W        W81822  37.996   0.341   1.822
20292W        W81823  20.236   6.867  13.449
20293W        W81824  35.463  13.806   2.283
20294W        W81825  19.078  30.020  12.882
20295W        W81826  17.213  34.932   3.751
20296W        W81827  37.049  35.441  10.567
20297W        W81828  15.745  15.105   1.794
20298W        W81829  14.206  15.311  12.418
20299W        W81830   8.349  10.368  12.852
20300W        W81831   8.765  35.095  14.983
20301W        W81832  29.485   7.337   3.301
20302W        W81833  28.671  30.132   3.863
20303W        W81834  41.923  42.288   1.441
20304W        W81835  36.986   6.760  14.440
20305W        W81836  36.573   4.861  14.331
20306W        W81837  33.581  27.592   2.754
20307W        W81838   4.324  33.999  10.578
20308W        W81839  24.483  38.950   5.290
20309W        W81840  12.205   9.271   1.740
20310W        W81841  25.551  34.529   9.956
20311W        W81842  43.454  15.819  11.519
20312W        W81843  38.822  13.343   4.822
20313W        W81844  20.623   2.859   4.351
20314W        W81845  39.818  40.827  11.463
20315W        W81846   3.841   1.798  11.949
20316W        W81847  33.874  17.129   0.346
20317W        W81848  24.499  17.680   3.658
20318W        W81849  18.068  16.647   4.265
20319W        W81850  26.150  32.043   0.383
20320W        W81851   4.331  38.872  13.971
20321W        W81852  33.004  35.915   3.290
20322W        W81853  25.612  34.584   0.743
20323W        W81854  22.111   8.857  14.016
20324W        W81855  19.264  32.138  11.413
20325W        W81856  17.745  14.221   4.814
20326W        W81857  31.027  43.833  12.902
20327W        W81858  22.638   6.395   1.857
20328W        W81859  41.902  32.042   0.383
20329W        W81860   3.433  30.982   3.794
20330W        W81861  41.334  27.454  13.012
20331W        W81862  22.656  26.698   0.878
20332W        W81863  43.767   4.401   3.766
20333W        W81864  27.035  33.424  14.829
20334W        W81865  21.058  22.138  13.426
20335W        W81866  22.036   9.666  14.465
20336W        W81867  16.661  13.253   2.409
20337W        W81868   1.748  36.368  12.028
20338W        W81869  34.917  36.534   2.690
20339W        W81870   0.923  13.180   1.844
20340W        W81871  21.249  25.111   0.391
20341W        W81872  11.745  26.502  12.540
20342W        W81873  33.918  12.644  14.368
20343W        W81874  16.799  18.683  11.572
20344W        W81875  13.113   5.868  14.806
20345W        W81876   5.785   9.874  10.574
20346W        W81877  41.864  44.501  14.951
20347W        W81878  34.581  26.137  13.500
20348W        W81879  34.971  11.721   5.199
20349W        W81880   7.356  24.658   2.696
20350W        W81881  43.285  10.634  13.815
20351W        W81882   3.241   9.660  11.991
20352W        W81883  37.505   4.437   1.391
20353W        W81884  21.728   5.362  14.819
20354W        W81885  13.825   6.203   3.698
20355W        W81886   5.306   1.788  13.410
20356W        W81887  37.862  42.295  12.970
20357W        W81888  12.763  36.392   2.709
20358W        W81889   4.849  22.020   1.906
20359W        W81890  17.763  20.254  11.511
20360W        W81891  22.192  13.618   2.327
20361W        W81892  24.572  16.797  12.095
20362W        W81893   5.701  37.002  14.810
20363W        W81894  16.094  28.533   4.336
20364W        W81895   6.190  17.746  14.344
20365W        W81896   9.707   3.290   3.648
20366W        W81897  11.697  40.466   3.736
20367W        W81898  28.150  29.471   0.751
20368W        W81899  23.095   7.243  14.401
20369W        W81900  18.736   6.341  12.059
20370W        W81901   6.905  38.483  12.529
20371W        W81902   4.698   5.352  14.847
20372W        W81903  36.508  20.597  14.842
20373W        W81904   5.369  24.667   3.751
20374W        W81905  35.465  37.946  13.877
20375W        W81906  40.959  36.462   3.707
20376W        W81907   3.902  17.212  13.310
20377W        W81908   3.268  37.891   1.729
20378W        W81909  40.447  12.672  13.498
20379W        W81910  41.338  43.992   0.827
20380W        W81911  25.653   5.276  10.950
20381W        W81912  10.299  22.187  13.530
20382W        W81913  13.657  27.078   0.792
20383W        W81914  26.538  28.508   3.352
20384W        W81915  37.976  35.013  11.905
20385W        W81916  26.178  12.754   4.779
20386W        W81917  41.972  17.582   0.326
20387W        W81918  41.950  21.085   1.211
20388W        W81919   6.786  38.491   0.854
20389W        W81920  32.141  39.360   1.895
20390W        W81921  17.085   0.799   1.772
20391W        W81922  16.091  39.848  11.548
20392W        W81923  35.430  37.003   0.283
20393W        W81924   9.376  26.457  11.432
20394W        W81925  19.201   7.323   4.809
20395W        W81926  12.771  29.442   9.644
20396W        W81927  32.904  18.247   0.356
20397W        W81928  26.036  26.499  14.818
20398W        W81929  36.502  21.564   3.378
20399W        W81930  16.190  23.191   4.189
20400W        W81931  31.097  29.995  13.503
20401W        W81932  43.915  37.060   2.178
20402W        W81933  21.052  10.723   3.159
20403W        W81934  19.088  43.959  13.850
20404W        W81935  25.549  29.565   3.188
20405W        W81936  24.642  33.877   4.685
20406W        W81937  30.498   0.786   1.699
20407W        W81938  39.926  33.533  14.913
20408W        W81939  25.177  17.568   3.164
20409W        W81940   8.865   7.263  13.987
20410W        W81941  27.657  40.848  13.914
20411W        W81942  41.311   2.322  10.423
20412W        W81943   6.731  27.103  11.420
20413W        W81944  41.453  37.960   2.411
20414W        W81945   1.386  40.452   0.773
20415W        W81946  13.221  43.812  14.931
20416W        W81947   7.678  27.550   3.781
20417W        W81948  18.054  24.194   3.652
20418W        W81949  42.374  36.465  10.920
20419W        W81950  27.108  38.892  11.488
20420W        W81951  42.997   3.727  12.947
20421W        W81952  44.995   5.393   3.360
20422W        W81953   5.834  12.825   4.614
20423W        W81954  33.380   0.448   3.655
20424W        W81955  31.514   7.381  10.550
20425W        W81956  38.974  39.037  13.332
20426W        W81957  27.524  14.319   2.739
20427W        W81958  11.243  35.571  14.903
20428W        W81959   7.417  21.089  12.028
20429W        W81960  27.053  28.596  12.072
20430W        W81961   8.862   1.249   1.907
20431W        W81962  31.038   7.708  14.819
20432W        W81963   0.752  31.619   0.421
20433W        W81964   5.248  33.953   2.189
20434W        W81965  37.966  17.269  13.891
20435W        W81966   2.235   7.794   3.697
20436W        W81967  12.631  37.582  13.892
20437W        W81968  13.611  11.152   1.219
20438W        W81969  25.179  36.439  11.458
20439W        W81970   3.795  18.772  11.941
20440W        W81971  41.530  37.351   0.940
20441W        W81972  14.709  15.580   4.281
20442W        W81973  16.150  26.573   4.347
20443W        W81974  13.209  37.875   4.730
20444W        W81975  33.946  32.487  11.454
20445W        W81976   8.265  15.652   1.438
20446W        W81977  19.699   6.684   3.224
20447W        W81978  17.564  11.779   4.818
20448W        W81979   4.402   7.216   1.243
20449W        W81980  16.249  35.972  11.039
20450W        W81981  15.625  19.779   0.390
20451W        W81982  22.532  34.073  12.507
20452W        W81983  12.795  17.206  10.574
20453W        W81984  42.382  15.185  13.023
20454W        W81985  30.458  18.210  14.323
20455W        W81986  29.109  19.137  12.497
20456W        W81987  10.255  31.526   0.904
20457W        W81988   8.840  10.289   5.119
20458W        W81989  40.908  11.642  13.485
20459W        W81990   3.908  22.014  14.018
20460W        W81991   2.466  22.638   1.700
20461W        W81992  18.642  25.122  12.993
20462W        W81993  43.864  42.976  11.405
20463W        W81994  20.055  25.481  14.803
20464W        W81995  43.764  37.456  14.836
20465W        W81996   1.294  44.801   3.322
20466W        W81997  10.681  11.350  13.518
20467W        W81998  13.228  15.688  11.989
20468W        W81999   4.243  39.003   0.348
20469W        W82000  30.454  26.654   4.643
20470W        W82001  42.864  28.183   3.251
20471W        W82002  43.388  34.575   4.613
20472W        W82003  44.819  31.007   1.905
20473W        W82004  16.700  36.053  11.069
20474W        W82005   9.758  25.112  11.985
20475W        W82006  15.797  40.913   2.786
20476W        W82007   7.899  31.497   3.685
20477W        W82008  12.649  36.397  12.899
20478W        W82009  24.638  33.067  10.898
20479W        W82010  36.893   6.404  14.909
20480W        W82011  27.686   0.982  14.470
20481W        W82012  32.482  19.276   3.332
20482W        W82013  33.451  38.819  11.478
20483W        W82014   2.418  42.005  10.586
20484W        W82015  34.413  38.013  12.500
20485W        W82016  39.961   5.209  14.938
20486W        W82017   4.738  38.390  11.039
20487W        W82018  25.536  37.401  12.391
20488W        W82019  40.524  18.626   4.348
20489W        W82020  36.394  43.983   2.205
20490W        W82021  21.646   8.738   2.265
20491W        W82022  42.437  11.362  11.901
20492W        W82023  35.877  14.774  10.949
20493W        W82024  16.244  11.828   4.253
20494W        W82025  21.213  23.601   9.925
20495W        W82026   8.317  32.066  11.077
20496W        W82027   4.812  13.184  12.085
20497W        W82028  39.851   0.912   2.828
20498W        W82029  35.866  30.966   3.269
20499W        W82030  36.947   6.680   2.367
20500W        W82031   3.730  16.700   0.429
20501W        W82032  43.420  40.816  14.764
20502W        W82033  42.317   1.931   2.686
20503W        W82034  39.017   6.244  11.112
20504W        W82035  44.817  14.608  14.860
20505W        W82036  24.009  40.323   2.701
20506W        W82037  37.392  20.688  13.062
20507W        W82038  16.698  10.751  14.300
20508W        W82039  18.276  11.340  14.972
20509W        W82040   8.317  23.185   4.239
20510W        W82041  20.164  16.608   2.687
20511W        W82042  12.757  16.665  14.338
20512W        W82043  11.356  30.551  13.357
20513W        W82044  16.185  27.086   4.665
20514W        W82045   3.412  11.229  14.897
20515W        W82046  31.024  31.560   3.737
20516W        W82047   6.872  19.099  12.579
20517W        W82048  15.686  21.693   0.470
20518W        W82049  32.544   9.655  10.103
20519W        W82050  19.721  35.558   3.271
20520W        W82051   8.216   9.322  14.908
20521W        W82052  18.138  30.160   0.377
20522W        W82053  34.882  10.786  11.886
20523W        W82054  12.246  16.229  12.388
20524W        W82055  12.124  15.737   3.287
20525W        W82056   6.193  31.514  11.028
20526W        W82057   4.447  17.669   1.894
20527W        W82058  35.518  15.115  13.373
20528W        W82059  10.746  38.869   4.132
20529W        W82060  33.535   9.180  14.830
20530W        W82061   0.267   9.202  14.390
20531W        W82062  42.384   7.875  13.027
20532W        W82063   8.677  10.761  10.967
20533W        W82064  31.581  26.980   2.766
20534W        W82065  10.305  38.502  14.373
20535W        W82066  17.648   0.442  10.513
20536W        W82067   9.195   3.721   0.318
20537W        W82068   9.262   7.909   1.734
20538W        W82069  14.832  27.656   4.354
20539W        W82070  40.507   5.772  12.344
20540W        W82071  33.512  37.960   0.379
20541W        W82072   5.734  28.949  13.405
20542W        W82073  39.361   1.901  11.891
20543W        W82074  26.652   5.727   1.694
20544W        W82075   0.831  24.486  11.411
20545W        W82076  38.856  39.547   2.722
20546W        W82077  22.566  17.574   2.227
20547W        W82078  38.349  41.448  14.935
20548W        W82079   9.675   1.890   1.718
20549W        W82080  43.291   0.381   4.673
20550W        W82081  20.058  36.366   0.730
20551W        W82082  12.153  11.186  14.809
20552W        W82083  26.100  10.706   0.880
20553W        W82084  20.182   3.856  14.491
20554W        W82085   8.210  34.908  11.382
20555W        W82086  30.948  44.336   4.117
20556W        W82087  22.146   4.900  12.578
20557W        W82088  17.243  34.045   4.225
20558W        W82089  36.001  31.090   0.436
20559W        W82090   4.922  27.971   3.857
20560W        W82091  38.064   8.779  12.410
20561W        W82092  20.733  10.322   3.244
20562W        W82093  36.514   1.942   3.372
20563W        W82094  44.841  22.198   3.697
20564W        W82095  14.722  11.320  11.054
20565W        W82096  13.199  33.541   0.343
20566W        W82097  37.465   2.239  13.977
20567W        W82098  44.332  34.994  10.450
20568W        W82099  36.981  35.861  10.979
20569W        W82100  40.853  18.617   2.868
20570W        W82101   7.319  19.087   1.284
20571W        W82102  40.921   7.842   1.307
20572W        W82103  29.958  42.882   0.902
20573W        W82104  38.038  39.847   2.800
20574W        W82105   9.267   6.726   4.627
20575W        W82106  22.588  25.029   2.860
20576W        W82107  26.622  29.503   4.291
20577W        W82108  25.213  20.139  12.017
20578W        W82109   5.708  39.406  14.796
20579W        W82110  12.675  24.995   4.769
20580W        W82111  10.152   9.782  10.051
20581W        W82112  43.890  38.455  10.918
20582W        W82113  22.090   0.279   3.182
20583W        W82114  34.111  23.705  10.405
20584W        W82115  24.205  36.537   0.736
20585W        W82116   2.430   1.916  12.891
20586W        W82117   0.359  36.954   1.877
20587W        W82118  30.133  29.155   0.362
20588W        W82119  43.516   4.904   3.367
20589W        W82120  39.014   5.880   0.317
20590W        W82121  34.114   3.766   0.807
20591W        W82122  12.675  39.817  11.454
20592W        W82123  14.334  13.746   1.913
20593W        W82124   7.796  18.637  11.901
20594W        W82125  14.760   4.919   0.745
20595W        W82126  12.754  29.165   4.619
20596W        W82127  27.187   4.716   0.386
20597W        W82128  14.118  38.388   0.468
20598W        W82129  15.327  32.558   5.141
20599W        W82130   3.285  13.141  11.069
20600W        W82131  39.378  33.057  13.342
20601W        W82132  22.208  25.547   1.410
20602W        W82133  33.926  27.674   1.258
20603W        W82134   9.719  25.034   4.177
20604W        W82135   6.201  38.073  13.439
20605W        W82136  26.690   1.939   2.371
20606W        W82137  17.697  14.789  11.404
20607W        W82138  22.216  19.676   4.341
20608W        W82139  25.591  13.288   1.793
20609W        W82140  14.648  40.873   4.671
20610W        W82141   5.236  35.383  12.433
20611W        W82142  21.595   4.928   4.265
20612W        W82143   5.337  35.054   3.247
20613W        W82144  22.109  21.567   1.263
20614W        W82145  30.503  34.395  11.924
20615W        W82146  21.118  31.967   3.761
20616W        W82147  38.349  33.473  10.627
20617W        W82148  33.530   4.325  14.498
20618W        W82149  37.416  30.542   2.752
20619W        W82150  25.990  28.160  13.367
20620W        W82151  17.100  16.119   4.812
20621W        W82152  34.926  11.772  13.915
20622W        W82153  31.114  24.193   2.374
20623W        W82154  10.729  37.493   4.298
20624W        W82155  30.589  39.929  11.506
20625W        W82156  17.076   0.385   3.683
20626W        W82157  15.608  10.666   3.267
20627W        W82158  13.279  38.972  12.996
20628W        W82159  30.517   7.343   3.324
20629W        W82160  32.611  12.148  14.386
20630W        W82161  25.176  43.475   3.317
20631W        W82162  27.648  28.135   1.316
20632W        W82163  23.585  18.128  12.458
20633W        W82164  31.551  40.839   4.607
20634W        W82165   0.443  14.596  10.935
20635W        W82166  15.109  15.104  10.561
20636W        W82167  24.645  36.922   0.437
20637W        W82168  22.223  43.427  12.012
20638W        W82169  31.526  23.630  13.394
20639W        W82170  11.666  17.168  10.142
20640W        W82171  38.884  24.725   1.875
20641W        W82172  16.796   8.720   3.189
20642W        W82173  15.666  34.500   0.747
20643W        W82174  35.479  13.736  14.403
20644W        W82175  14.635  31.592  14.866
20645W        W82176  12.737  44.307  11.487
20646W        W82177   6.719  24.673  12.036
20647W        W82178  38.003   8.327  11.461
20648W        W82179  39.373  11.227   1.271
20649W        W82180  35.375   0.300   3.372
20650W        W82181   7.890  10.727  11.974
20651W        W82182  42.410  13.348   2.369
20652W        W82183  35.023   7.196  10.532
20653W        W82184  36.591  37.982   3.795
20654W        W82185  39.395  30.010  10.581
20655W        W82186  30.490  39.368  11.492
20656W        W82187   2.851   7.681   2.280
20657W        W82188  42.378  14.832   2.194
20658W        W82189  13.280  39.376   3.808
20659W        W82190  30.054  37.072   1.800
20660W        W82191  22.144  27.049  12.848
20661W        W82192  28.449   1.349  11.959
20662W        W82193  26.528  25.966  11.413
20663W        W82194  14.118  22.182   0.785
20664W        W82195  14.758  24.993   5.245
20665W        W82196  18.651  15.742   4.252
20666W        W82197   1.254   6.280  10.943
20667W        W82198   7.844  34.585  11.570
20668W        W82199   8.349   4.759   5.143
20669W        W82200  13.838  21.687   2.297
20670W        W82201  40.336  43.270  14.838
20671W        W82202  18.587   8.773  14.804
20672W        W82203  25.096   0.355   4.115
20673W        W82204  44.901   1.437   4.800
20674W        W82205  27.454  14.829  10.945
20675W        W82206  39.504  34.612  14.970
20676W        W82207  33.951  13.299   0.421
20677W        W82208  30.425  44.982   1.887
20678W        W82209  20.579  17.189   2.380
20679W        W82210  26.120  43.510  11.539
20680W        W82211  32.997  44.390  13.819
20681W        W82212   7.707  37.889   2.287
20682W        W82213  27.138  20.544   0.851
20683W        W82214  16.578  37.916   2.416
20684W        W82215   5.749  39.329   4.717
20685W        W82216  14.312  22.662  13.353
20686W        W82217  29.112  35.592  13.925
20687W        W82218  26.527   3.291   2.185
20688W        W82219   3.909  19.666   4.240
20689W        W82220  29.080  28.572  14.508
20690W        W82221   2.445   4.814  13.921
20691W        W82222  15.753  30.611   2.791
20692W        W82223  28.460  40.426  14.900
20693W        W82224  30.927  41.892   4.701
20694W        W82225   9.345  30.577   0.733
20695W        W82226  24.653  33.062   2.256
20696W        W82227  34.588  35.377  13.926
20697W        W82228  36.917  22.657   0.284
20698W        W82229  15.710   0.323  12.902
20699W        W82230   0.805  22.208   9.928
20700W        W82231  39.483  40.975  12.842
20701W        W82232   1.406  43.411   3.374
20702W        W82233  31.403   7.729   5.099
20703W        W82234  32.037  12.249   4.660
20704W        W82235  14.761  23.182  11.005
20705W        W82236   1.809  28.102   0.887
20706W        W82237  32.584   0.367  10.904
20707W        W82238  13.130  13.620   2.180
20708W        W82239   6.244  44.381   0.341
20709W        W82240  30.021  41.837   0.441
20710W        W82241   5.694  21.206  14.371
20711W        W82242  24.016  14.231   4.601
20712W        W82243  30.028   3.849  13.518
20713W        W82244  25.598   1.349   0.777
20714W        W82245   0.777   0.289   3.200
20715W        W82246  15.098   6.232   1.934
20716W        W82247   2.890  28.586  11.965
20717W        W82248   2.967  11.370  12.025
20718W        W82249   9.327  17.076   0.904
20719W        W82250   6.351  43.312   3.167
20720W        W82251  13.229  32.101   4.186
20721W        W82252  27.513  42.828   0.264
20722W        W82253  42.831  27.075   1.311
20723W        W82254  35.389  35.431  14.972
20724W        W82255  22.537  18.606   2.379
20725W        W82256  29.016  11.702  10.479
20726W        W82257   2.257  27.571   0.920
20727W        W82258  40.865  28.612  10.475
20728W        W82259   2.322  19.618   9.996
20729W        W82260   6.251  36.944   2.417
20730W        W82261  35.029  22.057   0.787
20731W        W82262  38.069  23.676   5.311
20732W        W82263  42.990  10.311   1.770
20733W        W82264  33.085  28.488   2.239
20734W        W82265  33.542   6.333   2.741
20735W        W82266  13.299  31.050  14.856
20736W        W82267  36.459  20.188   1.419
20737W        W82268   5.928  17.197  12.886
20738W        W82269   1.871  38.032   2.404
20739W        W82270  27.990  30.606  12.503
20740W        W82271  32.494   6.902   1.931
20741W        W82272  33.380  16.246   4.242
20742W        W82273  42.320  11.264   2.345
20743W        W82274   8.655   9.869   0.947
20744W        W82275  14.106  22.109   1.364
20745W        W82276  27.456  43.317   2.259
20746W        W82277  20.565   9.158   3.275
20747W        W82278   9.392  25.969  10.546
20748W        W82279  40.478  10.799   0.731
20749W        W82280   4.341  18.614  13.453
20750W        W82281  11.159  18.260  13.961
20751W        W82282  26.967  10.344  14.354
20752W        W82283   6.219  32.464  11.925
20753W        W82284  42.515  29.056   0.834
20754W        W82285  30.499  32.436  14.778
20755W        W82286  25.131  30.117   0.421
20756W        W82287  15.188   6.400   0.964
20757W        W82288  33.052   5.324  12.964
20758W        W82289   2.740  17.759   1.450
20759W        W82290  28.648  11.331   0.252
20760W        W82291  16.658  25.072  13.338
20761W        W82292   8.395  37.427   4.236
20762W        W82293  14.194  33.530   2.737
20763W        W82294  14.247  33.454   4.799
20764W        W82295  23.536  27.182  10.433
20765W        W82296  34.060  36.515   3.756
20766W        W82297  39.538  37.395  13.317
20767W        W82298  16.111   1.304   4.127
20768W        W82299  43.382  33.604  10.558
20769W        W82300   8.311  14.795  14.431
20770W        W82301  39.036  27.187   1.377
20771W        W82302  35.037  35.966   1.387
20772W        W82303  28.494  25.143   0.845
20773W        W82304  24.713  26.476  12.577
20774W        W82305  24.606   6.338  11.567
20775W        W82306  14.253  34.941  13.543
20776W        W82307  36.433   7.351   3.696
20777W        W82308  19.212  31.024  10.640
20778W        W82309  13.828  25.191   0.278
20779W        W82310  31.634  37.502  10.988
20780W        W82311   2.246  26.565  10.504
20781W        W82312   9.732  24.638   1.883
20782W        W82313  23.588   5.317  12.527
20783W        W82314  21.183   3.750   0.337
20784W        W82315   8.348  30.475  11.097
20785W        W82316  28.445  44.957   1.228
20786W        W82317   2.898  23.231  14.762
20787W        W82318   3.858   1.804  12.926
20788W        W82319   4.348   9.827  13.935
20789W        W82320  18.717  18.648   2.885
20790W        W82321  19.283  42.804   3.663
20791W        W82322  19.123  39.366  13.850
20792W        W82323   3.754  34.948  12.413
20793W        W82324  23.101   0.350  11.919
20794W        W82325  16.242   7.702  12.877
20795W        W82326  11.792  20.557   0.470
20796W        W82327  36.967  17.735   9.607
20797W        W82328  21.537  28.005  11.965
20798W        W82329  26.068  39.049  13.812
20799W        W82330  38.009   5.432   0.828
20800W        W82331  22.654  40.392   4.344
20801W        W82332  44.306  20.731  10.555
20802W        W82333  19.104  28.657  13.372
20803W        W82334  18.075  15.815  14.915
20804W        W82335  23.103  22.034   4.646
20805W        W82336  44.997  21.676  10.923
20806W        W82337  29.977  19.701   4.615
20807W        W82338  16.160  29.531   2.292
20808W        W82339  28.930  34.080   0.277
20809W        W82340  16.113  38.359   1.425
20810W        W82341   9.228  42.906   1.261
20811W        W82342   2.861  36.935  11.562
20812W        W82343  38.074  30.919   2.693
20813W        W82344  12.655   9.801   3.794
20814W        W82345  31.108   9.233   3.642
20815W        W82346   4.312  17.180   4.813
20816W        W82347   4.379  12.353   0.253
20817W        W82348  14.299  31.518  13.846
20818W        W82349  41.893   6.294  11.943
20819W        W82350  14.631  23.140  13.823
20820W        W82351  37.541  33.026  14.029
20821W        W82352   8.188  25.679   1.225
20822W        W82353  17.649  31.511  14.862
20823W        W82354  35.584  15.101   2.237
20824W        W82355   2.456   0.805   0.373
20825W        W82356  31.015   9.843   3.309
20826W        W82357  20.620  20.144  12.526
20827W        W82358  29.166  18.630  14.319
20828W        W82359  43.360  13.726   3.340
20829W        W82360  31.076   1.419  13.874
20830W        W82361  32.526  32.992  10.640
20831W        W82362  28.473  21.213  13.814
20832W        W82363  32.139  30.414  12.987
20833W        W82364  38.959  23.697  13.976
20834W        W82365  44.953  41.865   3.376
20835W        W82366   3.415  20.647  13.548
20836W        W82367  19.196  38.880  14.336
20837W        W82368  43.967  16.260  11.949
20838W        W82369  39.466   1.844   2.781
20839W        W82370  21.064  32.540  10.630
20840W        W82371   0.752  37.004   4.649
20841W        W82372  42.324  28.645   2.230
20842W        W82373  42.937  23.705   3.341
20843W        W82374  25.218  13.651   3.346
20844W        W82375  16.305  40.472   2.247
20845W        W82376  15.236   6.409  12.515
20846W        W82377  24.525  40.427  13.452
20847W        W82378  13.212  44.902   1.891
20848W        W82379  38.057  28.086   3.832
20849W        W82380   6.261  38.395   4.341
20850W        W82381  10.219   2.749  12.578
20851W        W82382  39.840  25.980   3.214
20852W        W82383  22.711  20.528   3.657
20853W        W82384   2.338   2.382   4.116
20854W        W82385  27.497  21.679  13.534
20855W        W82386  23.183  31.641  11.036
20856W        W82387  14.239  41.921  12.421
20857W        W82388   6.902  26.067   4.172
20858W        W82389  24.114  41.828  11.932
20859W        W82390  44.997  31.494  13.018
20860W        W82391  27.015  41.820   4.695
20861W        W82392  37.451  35.010   0.896
20862W        W82393  42.879  28.668   4.654
20863W        W82394  20.217  41.028  14.430
20864W        W82395  36.095  16.127   5.636
20865W        W82396  16.230   6.318  11.383
20866W        W82397  35.898   7.817  10.503
20867W        W82398  42.358  10.260  12.075
20868W        W82399  20.761  31.408   1.702
20869W        W82400  15.224  40.801   4.668
20870W        W82401  24.983  43.848   2.273
20871W        W82402  27.069  38.328  11.584
20872W        W82403  15.615   1.831   4.220
20873W        W82404  14.154  23.993   1.317
20874W        W82405  19.082  34.050  13.806
20875W        W82406  44.424   1.413   3.660
20876W        W82407  10.344   9.395   3.160
20877W        W82408  31.454  16.694  10.126
20878W        W82409  36.501  22.723   3.782
20879W        W82410  16.785  32.414   1.322
20880W        W82411  40.941   3.842  11.024
20881W        W82412  27.559  31.124   5.773
20882W        W82413  28.444  38.897  13.052
20883W        W82414  30.591   1.389  11.913
20884W        W82415  41.406   0.876   3.868
20885W        W82416   7.248  29.087   0.894
20886W        W82417   3.893  31.415   4.733
20887W        W82418  11.791  22.681  10.086
20888W        W82419  44.363  11.852  13.495
20889W        W82420  40.814  27.652  13.035
20890W        W82421  38.966   0.454  11.964
20891W        W82422  32.424   4.872   0.329
20892W        W82423   2.848  23.500  14.444
20893W        W82424  25.688  14.728  11.437
20894W        W82425  10.844  39.901  11.970
20895W        W82426  38.016   6.332   2.226
20896W        W82427  15.811  23.127   4.192
20897W        W82428  25.661  21.211  10.591
20898W        W82429  12.329  11.833   0.843
20899W        W82430  33.113   7.701   2.780
20900W        W82431   1.471  15.268   3.748
20901W        W82432  34.599  34.018   4.701
20902W        W82433  38.460  26.661   0.802
20903W        W82434  19.274   9.342  13.529
20904W        W82435  15.652   4.419  12.578
20905W        W82436  31.416  16.639  14.939
20906W        W82437  41.316  23.601   4.321
20907W        W82438   0.344  11.761   4.192
20908W        W82439  17.596  32.485  11.066
20909W        W82440  25.689  35.365  14.908
20910W        W82441   3.346  21.146   4.698
20911W        W82442  25.983  44.921   1.882
20912W        W82443  18.752  42.472   1.443
20913W        W82444   4.889   1.445   1.258
20914W        W82445   0.450   0.977   3.752
20915W        W82446  28.994   4.907   0.763
20916W        W82447  21.595  36.955  13.057
20917W        W82448  21.619   8.333   2.769
20918W        W82449   5.770  26.677  14.317
20919W        W82450  25.552   1.321  12.548
20920W        W82451   5.808  24.650   2.677
20921W        W82452  39.005  29.649   1.441
20922W        W82453   3.918  12.848  10.137
20923W        W82454   8.891  21.096  11.944
20924W        W82455  44.435  26.508   0.816
20925W        W82456  20.214  38.952   0.324
20926W        W82457  31.560  16.653   0.434
20927W        W82458  17.613  44.818   1.363
20928W        W82459  18.687  18.083   1.884
20929W        W82460   4.398  36.072  14.855
20930W        W82461  14.097  20.615  12.919
20931W        W82462  25.613   2.435  11.546
20932W        W82463  18.777  22.545   3.818
20933W        W82464  24.159  39.453  14.497
20934W        W82465  17.673  21.257  12.035
20935W        W82466   4.400  25.073   9.606
20936W        W82467   6.370   8.355   0.467
20937W        W82468  15.611  34.009  13.952
20938W        W82469  32.888  11.751  12.850
20939W        W82470  18.657  30.029  10.568
20940W        W82471  20.735  14.193   0.966
20941W        W82472   1.346  21.152  10.582
20942W        W82473   8.743   1.454   1.245
20943W        W82474  18.675  10.310  11.516
20944W        W82475  19.100  31.628   3.645
20945W        W82476  31.627  30.559   4.178
20946W        W82477  42.027  18.081  13.445
20947W        W82478  17.095   5.409   0.763
20948W        W82479   9.230   5.419  11.918
20949W        W82480  23.214   7.890   0.459
20950W        W82481  30.580  29.990   1.410
20951W        W82482  24.067  44.402  13.355
20952W        W82483  35.032   8.177   4.156
20953W        W82484   0.426  22.200  11.586
20954W        W82485   7.703  41.788   2.224
20955W        W82486  16.285  35.601  12.056
20956W        W82487  40.341  33.600  13.469
20957W        W82488   4.822  43.392  14.973
20958W        W82489   3.891  30.135   1.400
20959W        W82490  43.297  14.790  10.955
20960W        W82491  41.004  28.127  12.837
20961W        W82492   0.428  31.975  13.516
20962W        W82493  23.547  32.536   2.339
20963W        W82494  28.126  29.961   1.250
20964W        W82495  35.590  18.215  11.449
20965W        W82496   9.678  12.357   0.783
20966W        W82497  18.175  39.559   4.277
20967W        W82498  28.056  42.999  13.889
20968W        W82499  32.526   1.917  12.477
20969W        W82500  19.212  33.953  13.432
20970W        W82501  24.046   8.783  11.561
20971W        W82502   9.308  34.968   1.326
20972W        W82503  11.689  32.937  12.924
20973W        W82504   1.813  22.180   0.436
20974W        W82505  20.528  38.848  14.311
20975W        W82506  31.593  43.420  11.532
20976W        W82507  10.779  37.063   4.269
20977W        W82508  16.286  16.626   0.917
20978W        W82509  20.530  23.557  14.776
20979W        W82510  43.820  34.906   4.829
20980W        W82511  26.142  11.188   2.210
20981W        W82512   7.852  19.141   0.376
20982W        W82513  20.162  21.243  14.408
20983W        W82514  32.034  44.439   1.330
20984W        W82515  15.634   8.664   2.372
20985W        W82516  36.516  16.668   4.265
20986W        W82517  22.638  29.550   4.197
20987W        W82518   9.335  22.721   1.308
20988W        W82519   8.826  21.537   2.742
20989W        W82520  16.703  41.894  13.387
20990W        W82521  44.859   0.975   3.195
20991W        W82522  34.958  44.420   2.860
20992W        W82523  11.739   6.894  14.326
20993W        W82524   6.225   1.447   3.238
20994W        W82525  21.213   4.708   0.455
20995W        W82526  12.695  17.661  11.393
20996W        W82527  14.242   2.814  13.828
20997W        W82528  37.063  42.406  11.548
20998W        W82529  32.131  14.273  11.389
20999W        W82530  34.942  25.522  12.082
21000W        W82531  31.072  18.632   4.298
21001W        W82532  24.546   3.267  12.508
21002W        W82533  44.286   6.257  12.502
21003W        W82534   3.364  26.134   2.843
21004W        W82535  22.689  16.184   2.771
21005W        W82536  41.354  18.052   0.923
21006W        W82537  13.791  12.701   3.768
21007W        W82538  19.125  20.533   0.453
21008W        W82539   8.877  14.754   1.876
21009W        W82540  42.013  37.861   3.708
21010W        W82541  21.513  11.282   4.839
21011W        W82542  36.026  11.292   0.908
21012W        W82543  17.183   6.282   3.675
21013W        W82544  25.100  30.464   2.830
21014W        W82545  23.653  35.863   3.292
21015W        W82546  38.025   1.335   2.340
21016W        W82547  28.620   7.834  12.388
21017W        W82548  32.511  39.912   2.239
21018W        W82549  12.119  29.096   4.330
21019W        W82550  13.253  20.153   1.401
21020W        W82551  30.479  25.093  11.906
21021W        W82552  10.310  21.755   2.244
21022W        W82553   5.397  25.564  12.048
21023W        W82554   0.476  38.063   1.315
21024W        W82555  39.918  13.649  12.984
21025W        W82556   3.874  29.011   1.282
21026W        W82557   0.319   2.881   0.432
21027W        W82558  19.098  20.719   0.962
21028W        W82559  35.108  22.103   1.339
21029W        W82560  37.486  28.463   0.872
21030W        W82561  16.319  16.308  13.063
21031W        W82562  17.693  10.240  11.015
21032W        W82563   3.778   0.903   4.722
21033W        W82564   4.868   6.696   4.665
21034W        W82565   6.385   1.932   9.998
21035W        W82566  44.442   7.375   1.783
21036W        W82567  14.809   7.781   4.775
21037W        W82568  29.086   3.857   2.224
21038W        W82569  17.568  12.843   2.371
21039W        W82570   8.796  22.622  10.493
21040W        W82571  22.040  25.209   4.697
21041W        W82572   3.932   4.829   9.998
21042W        W82573   7.757  18.685   3.770
21043W        W82574  35.091  11.311   9.979
21044W        W82575   7.193   6.676  10.545
21045W        W82576   8.223  34.535   4.803
21046W        W82577  42.885   6.762   1.718
21047W        W82578  35.411  11.660  10.600
21048W        W82579  40.882   1.374  11.944
21049W        W82580  11.685  32.139   1.905
21050W        W82581  15.175  19.533   2.408
21051W        W82582  40.002  22.639   4.262
21052W        W82583  33.465  28.439  10.083
21053W        W82584  20.059  40.472   4.215
21054W        W82585  37.000  29.038   0.923
21055W        W82586   1.251  43.355   0.365
21056W        W82587  20.758   7.859  11.048
21057W        W82588  12.702  25.663   1.728
21058W        W82589   7.779  25.203   2.830
21059W        W82590  36.070  23.064  13.987
21060W        W82591  40.409  44.974   1.243
21061W        W82592  21.034  43.830   0.447
21062W        W82593  32.918  41.794   0.804
21063W        W82594  14.274  10.330   1.213
21064W        W82595  43.425  44.897  14.457
21065W        W82596   3.307  12.808  13.499
21066W        W82597  42.839  17.743  12.565
21067W        W82598  33.100  10.764   1.265
21068W        W82599   3.338   6.849   0.905
21069W        W82600  30.018  31.147  12.826
21070W        W82601  36.387   1.955   0.881
21071W        W82602  10.307  38.822  14.810
21072W        W82603   8.276  32.620  12.416
21073W        W82604  34.398  27.636   4.204
21074W        W82605  24.595  25.061   2.671
21075W        W82606  41.519  24.090   3.293
21076W        W82607  38.523  44.980   1.935
21077W        W82608   9.786  40.532  14.922
21078W        W82609  35.080  32.468  13.394
21079W        W82610   9.262  25.989  12.872
21080W        W82611  36.469  17.747   1.328
21081W        W82612  31.963   3.770  12.862
21082W        W82613   9.343  10.287   3.328
21083W        W82614   3.259  41.364  14.831
21084W        W82615  26.656   4.710  10.931
21085W        W82616  42.356  22.155  10.989
21086W        W82617   9.209  18.554  13.345
21087W        W82618   0.833  23.590   4.142
21088W        W82619   3.764  21.531   9.674
21089W        W82620  18.599   1.854  12.853
21090W        W82621  16.258  30.976   2.775
21091W        W82622  18.754  33.041   3.768
21092W        W82623  18.072  29.003   3.637
21093W        W82624  28.112  31.136  13.928
21094W        W82625  10.161  31.490  13.904
21095W        W82626  14.131  27.984   5.251
21096W        W82627  24.058  32.593   5.622
21097W        W82628  30.532  21.064  13.962
21098W        W82629  35.967  29.968  12.451
21099W        W82630  14.099  32.394   2.717
21100W        W82631   6.912  43.442   3.793
21101W        W82632  27.628  13.686   0.937
21102W        W82633  18.147   4.722  10.968
21103W        W82634  17.120  35.427   2.733
21104W        W82635   3.852   4.723   1.717
21105W        W82636  12.344   9.746   4.336
21106W        W82637  33.061   1.823  10.897
21107W        W82638  37.553  19.543   2.239
21108W        W82639  31.977  34.032   2.408
21109W        W82640  44.311  10.368  14.911
21110W        W82641   2.241  18.133  12.962
21111W        W82642  43.014  22.586   4.205
21112W        W82643   6.867   5.884  10.633
21113W        W82644   8.369  39.398   4.261
21114W        W82645  40.993  32.974  14.289
21115W        W82646  29.924  44.504  11.863
21116W        W82647  23.209  17.222  10.988
21117W        W82648  35.445   8.254  11.418
21118W        W82649  19.771  37.448   3.767
21119W        W82650  19.712  22.571   2.697
21120W        W82651  27.496  31.920  11.072
21121W        W82652  20.031   1.372  10.442
21122W        W82653  40.431  40.029   4.771
21123W        W82654   4.874  22.540   3.365
21124W        W82655  10.682   4.750  11.944
21125W        W82656  36.952  38.039   3.793
21126W        W82657   7.697  37.536   0.921
21127W        W82658  16.076  43.998   3.676
21128W        W82659  44.395  26.582   0.336
21129W        W82660  27.962   1.815   1.801
21130W        W82661  35.518  20.200  10.889
21131W        W82662   6.277  28.978   4.772
21132W        W82663  20.590  36.946   2.894
21133W        W82664  24.076  31.630   0.933
21134W        W82665  41.905  38.075  12.960
21135W        W82666  31.959   0.297  11.531
21136W        W82667  22.068  25.028   4.322
21137W        W82668   5.900   7.719  10.424
21138W        W82669  23.099  23.079  14.900
21139W        W82670   2.400  12.326   4.274
21140W        W82671  11.249  37.072   1.337
21141W        W82672   4.817   5.882  12.531
21142W        W82673  43.465  12.135  14.503
21143W        W82674  27.045  36.947  13.015
21144W        W82675  38.919  34.936  10.567
21145W        W82676   5.318  43.822  12.345
21146W        W82677  40.980   5.788   1.862
21147W        W82678   0.410  33.382   1.710
21148W        W82679  19.261  40.497   0.810
21149W        W82680   4.751  11.632  14.458
21150W        W82681  44.391  30.967   1.411
21151W        W82682   6.342  13.778   1.832
21152W        W82683  44.956  25.184  13.012
21153W        W82684  42.327  36.364  11.421
21154W        W82685   1.331  37.950  13.809
21155W        W82686   5.355  37.547   4.336
21156W        W82687  40.420  29.439   1.836
21157W        W82688  30.522  11.755   0.849
21158W        W82689  14.733  42.808  10.110
21159W        W82690  21.067  17.127  14.277
21160W        W82691   0.887  28.993   2.867
21161W        W82692   2.330  43.396  10.409
21162W        W82693  22.110  21.126   4.131
21163W        W82694  25.208   6.847  14.801
21164W        W82695  29.157  12.827  10.486
21165W        W82696  36.027  41.484  14.863
21166W        W82697  23.035  21.662  11.579
21167W        W82698   3.391  28.020   3.245
21168W        W82699  44.407  42.449   1.765
21169W        W82700   5.347  11.846   4.671
21170W        W82701  20.103  44.466   4.634
21171W        W82702  23.989  15.152   1.401
21172W        W82703  30.999  23.642  14.305
21173W        W82704  21.683   8.341  14.840
21174W        W82705  43.937  22.694   3.691
21175W        W82706  20.219  28.113   4.654
21176W        W82707  14.142  39.968   1.348
21177W        W82708  11.321  44.284   4.775
21178W        W82709   2.791   2.958  12.912
21179W        W82710  31.052  32.603   1.436
21180W        W82711  16.181   3.754   0.427
21181W        W82712  23.599  15.179   0.733
21182W        W82713  17.776   3.295   1.364
21183W        W82714  34.487  26.581  14.776
21184W        W82715  18.729   9.338   4.290
21185W        W82716  37.356  11.669   4.606
21186W        W82717  26.046  39.383  10.588
21187W        W82718  16.248  34.113   3.819
21188W        W82719  17.272  35.086  10.123
21189W        W82720  33.561   7.411  14.865
21190W        W82721  43.953  20.670   4.609
21191W        W82722  42.815   3.911  11.962
21192W        W82723  34.596  19.766  12.981
21193W        W82724   9.204  18.100  14.838
21194W        W82725  13.294  40.524   1.854
21195W        W82726   3.413  36.453  11.116
21196W        W82727  29.510  30.983   4.288
21197W        W82728  12.811  14.187   3.287
21198W        W82729   3.821  23.581   2.699
21199W        W82730  26.162  27.635  12.439
21200W        W82731   0.893  17.625  12.084
21201W        W82732  23.655   0.411  13.932
21202W        W82733  38.861   4.923   0.835
21203W        W82734  38.347  26.531   3.188
21204W        W82735  35.897  35.413  12.415
21205W        W82736  20.694  43.312   0.378
21206W        W82737  34.056   7.783   4.304
21207W        W82738   7.898  21.047  11.857
21208W        W82739  30.600  10.165  11.980
21209W        W82740  44.457  15.641   4.805
21210W        W82741   2.892  19.698  14.999
21211W        W82742  16.680   9.871  13.887
21212W        W82743  38.390  39.880  14.879
21213W        W82744  44.287   0.436   1.307
21214W        W82745  43.884  41.796   0.892
21215W        W82746  43.428   0.410  12.051
21216W        W82747  44.388  24.172   5.256
21217W        W82748  18.566  21.664  13.469
21218W        W82749  23.508  22.078   4.822
21219W        W82750  19.186  33.456  12.075
21220W        W82751  38.570  21.036  12.463
21221W        W82752  17.705  38.382  14.391
21222W        W82753  28.528  42.381  11.905
21223W        W82754  14.158  43.805  11.889
21224W        W82755  33.386   1.928   0.454
21225W        W82756   7.243  31.906  12.892
21226W        W82757  10.822  42.947  11.918
21227W        W82758  13.766  30.557   2.703
21228W        W82759  32.956  30.537   4.236
21229W        W82760  20.060  34.091  13.031
21230W        W82761  19.254  25.079   0.330
21231W        W82762  38.474  38.019  11.486
21232W        W82763  27.984  38.849   2.774
21233W        W82764  41.428  18.737   4.171
21234W        W82765   5.785  11.207  10.991
21235W        W82766   0.287  22.726  12.538
21236W        W82767  38.488  35.042  12.348
21237W        W82768   8.289  23.493   0.953
21238W        W82769   0.459   1.836   4.646
21239W        W82770  23.087  11.287   0.420
21240W        W82771  37.950   5.916  13.026
21241W        W82772   1.744  43.481  12.448
21242W        W82773  37.895  36.437  11.856
21243W        W82774  24.644  36.405   4.146
21244W        W82775  14.765  25.041  11.417
21245W        W82776  24.004  34.089  12.929
21246W        W82777   2.290   3.430   5.103
21247W        W82778   4.272  21.651  13.416
21248W        W82779  20.730  15.666   1.346
21249W        W82780  19.243  14.734  14.315
21250W        W82781  26.172  38.926  13.037
21251W        W82782  39.341  33.422   3.863
21252W        W82783   7.354  21.032   2.335
21253W        W82784  18.178  15.798  12.972
21254W        W82785  31.484  38.039  14.866
21255W        W82786  15.702  42.014   0.764
21256W        W82787  36.519  40.805   3.164
21257W        W82788  43.464  20.667   3.757
21258W        W82789  29.506  40.509   9.926
21259W        W82790   0.845   2.236  12.531
21260W        W82791  10.223   8.369  11.891
21261W        W82792   8.208  23.117   2.196
21262W        W82793  15.766  27.639  11.492
21263W        W82794  18.290  22.045   2.378
21264W        W82795   8.360   0.974   4.724
21265W        W82796  43.819  28.594   2.205
21266W        W82797  13.709  40.029   2.896
21267W        W82798   4.872  12.130   1.418
21268W        W82799  14.249  29.453  11.547
21269W        W82800  24.103  19.085   2.756
21270W        W82801   7.202  35.424  13.488
21271W        W82802  40.390  15.232  12.533
21272W        W82803   9.168  30.139   1.370
21273W        W82804   8.814  37.041   3.373
21274W        W82805  20.154   4.402  14.341
21275W        W82806   2.856  16.674  11.933
21276W        W82807  26.201   5.334  10.979
21277W        W82808  20.187  38.539  11.896
21278W        W82809  19.649  34.053   4.201
21279W        W82810  40.962  32.593   4.695
21280W        W82811  32.928  17.246   3.352
21281W        W82812   6.897  38.015   1.877
21282W        W82813  29.640   4.811  11.936
21283W        W82814  24.642  26.471   1.762
21284W        W82815   1.438   0.465  14.889
21285W        W82816  17.289  37.841   4.285
21286W        W82817  35.899  24.612   4.274
21287W        W82818   4.450   9.350  13.873
21288W        W82819  34.424   3.791   3.661
21289W        W82820  16.687   5.198   3.288
21290W        W82821  39.855  42.340  12.444
21291W        W82822  32.519   8.798  14.275
21292W        W82823   9.721  38.516  11.121
21293W        W82824  39.320  44.415  11.058
21294W        W82825  41.897  31.544   1.901
21295W        W82826  20.601  10.819   3.289
21296W        W82827   9.294   8.692  14.909
21297W        W82828  14.666  12.205  12.425
21298W        W82829   8.323   9.662   1.719
21299W        W82830  17.104  14.706  12.410
21300W        W82831  37.360  28.129  14.765
21301W        W82832   3.369   5.758  12.025
21302W        W82833  33.465  42.959   4.691
21303W        W82834   1.760  15.786  11.539
21304W        W82835  41.008  14.222   4.810
21305W        W82836  27.520  30.942   0.926
21306W        W82837  35.501   7.376  10.590
21307W        W82838  44.881  26.606   2.184
21308W        W82839  40.926  43.774  13.378
21309W        W82840  25.176  19.638   4.180
21310W        W82841   3.398  30.633   1.355
21311W        W82842  22.599   3.793  14.976
21312W        W82843  12.680  44.468  11.085
21313W        W82844  24.587  18.286  11.534
21314W        W82845  37.836  11.235  14.834
21315W        W82846  18.785  37.479   3.202
21316W        W82847  30.417   6.785   4.750
21317W        W82848  10.356  14.624   1.449
21318W        W82849   8.674  20.207  11.046
21319W        W82850  27.529  24.973   3.335
21320W        W82851   5.384  27.688  13.806
21321W        W82852  13.302  27.069   1.443
21322W        W82853  11.183  17.723  14.356
21323W        W82854  10.156  30.575   2.710
21324W        W82855   4.764  29.664   4.307
21325W        W82856  21.699  25.601  13.335
21326W        W82857  28.039  43.433  11.469
21327W        W82858   4.734  14.702  13.489
21328W        W82859   2.426  12.768   0.854
21329W        W82860  31.898   7.904   2.323
21330W        W82861  25.603  11.239   0.343
21331W        W82862  20.029   9.224  14.493
21332W        W82863  13.136  35.496   3.770
21333W        W82864  25.142   1.305   1.755
21334W        W82865   3.240  28.559   4.132
21335W        W82866  34.510  23.706   2.813
21336W        W82867  34.883   7.333   1.255
21337W        W82868  10.338  37.468  10.643
21338W        W82869   2.266  31.925   4.115
21339W        W82870  37.044  21.685  12.481
21340W        W82871   5.290  44.461   0.402
21341W        W82872  38.445   6.825   0.764
21342W        W82873  21.564   0.883   2.719
21343W        W82874  27.535  23.217   1.312
21344W        W82875  20.615  43.976  11.409
21345W        W82876  31.626  15.178   9.606
21346W        W82877  28.500  11.263  13.056
21347W        W82878  32.130  31.419  12.514
21348W        W82879   1.384  26.701  14.891
21349W        W82880  18.156  33.032   1.422
21350W        W82881   1.782  18.691   0.904
21351W        W82882   1.804  18.744   3.372
21352W        W82883  28.456   3.817  14.904
21353W        W82884   5.702  18.241  14.007
21354W        W82885   6.385  33.405  13.039
21355W        W82886  21.154  31.085   2.722
21356W        W82887  24.503  36.374   3.324
21357W        W82888  43.394  12.638   3.674
21358W        W82889   2.423   3.446   4.307
21359W        W82890  38.480  28.530  14.491
21360W        W82891  16.664   1.946   2.384
21361W        W82892   5.326   7.272  10.436
21362W        W82893  41.382  29.965   3.217
21363W        W82894   0.328  21.240   3.785
21364W        W82895  25.154  31.512   1.739
21365W        W82896  40.413  37.455   5.282
21366W        W82897  42.502  36.583   2.796
21367W        W82898  34.120  14.660   2.866
21368W        W82899   3.944  11.639  14.381
21369W        W82900   1.331  36.036  14.380
21370W        W82901  33.466  13.629   5.313
21371W        W82902   1.337  41.332   3.199
21372W        W82903  26.118   5.781   2.181
21373W        W82904  37.081  10.714   3.309
21374W        W82905  41.014  16.665  12.023
21375W        W82906   2.787  19.649   4.663
21376W        W82907  32.511  10.800  13.396
21377W        W82908  29.427  32.413   1.280
21378W        W82909  32.977   1.250   2.319
21379W        W82910   4.737  22.743  13.496
21380W        W82911  10.722  40.816  12.023
21381W        W82912  21.238  18.593   0.429
21382W        W82913   2.306  34.906   2.701
21383W        W82914  16.136  37.401   4.117
21384W        W82915   6.856   7.731  11.524
21385W        W82916   9.746   5.432   0.406
21386W        W82917  17.767  39.065  12.530
21387W        W82918  39.020  10.162  12.969
21388W        W82919  25.101  37.372  14.000
21389W        W82920  36.033   8.390   3.850
21390W        W82921   0.799  44.329  12.860
21391W        W82922   0.317   8.718   2.724
21392W        W82923   2.362  36.882   2.238
21393W        W82924  13.225   7.778   0.268
21394W        W82925  40.355  29.542  10.493
21395W        W82926  29.037  31.060   1.768
21396W        W82927  24.981  14.134  14.355
21397W        W82928   8.389   5.295   3.801
21398W        W82929  12.239  31.143   3.867
21399W        W82930  37.440   0.917   1.442
21400W        W82931  12.270   7.209   4.721
21401W        W82932  14.195   2.965   3.252
21402W        W82933  42.975  43.486   2.806
21403W        W82934  40.424   8.682  11.977
21404W        W82935  11.708  38.426  14.875
21405W        W82936  33.881  20.084  13.889
21406W        W82937  11.245  16.302   3.844
21407W        W82938  32.018  18.782  12.978
21408W        W82939  34.531  13.275  13.488
21409W        W82940  25.546  44.810  11.997
21410W        W82941  24.697  33.490   2.764
21411W        W82942  30.586  20.571  11.905
21412W        W82943   6.339   3.756  10.916
21413W        W82944   1.836  25.986   3.282
21414W        W82945  12.736  17.758   3.358
21415W        W82946  23.603   9.358   0.849
21416W        W82947  30.016  38.556  11.055
21417W        W82948  38.476  28.511   2.851
21418W        W82949  28.969  11.302  10.988
21419W        W82950  39.406  10.145   2.835
21420W        W82951   8.386  14.206  10.525
21421W        W82952  43.909   7.885  12.984
21422W        W82953  33.596  29.154   1.228
21423W        W82954  36.015   2.845   2.320
21424W        W82955  37.536  40.813  13.859
21425W        W82956  38.024  22.087  11.407
21426W        W82957   8.698  36.426   1.439
21427W        W82958  34.525  41.502   2.697
21428W        W82959  25.134  16.158  12.395
21429W        W82960  22.164   4.224   0.270
21430W        W82961  18.766  26.182   0.964
21431W        W82962  36.981  24.480   0.921
21432W        W82963   9.885  19.613   5.305
21433W        W82964  11.314  43.871   0.274
21434W        W82965  16.260  26.048  11.075
21435W        W82966   2.401  10.293  14.857
21436W        W82967  25.542  17.565   2.381
21437W        W82968   7.188  28.043   1.932
21438W        W82969  17.568  29.430   4.714
21439W        W82970  28.130  43.331  14.377
21440W        W82971  38.844   7.885   2.280
21441W        W82972   4.900  34.036  14.886
21442W        W82973   9.863  42.905   2.320
21443W        W82974  10.859  13.175   1.290
21444W        W82975  11.765  17.759   1.239
21445W        W82976  32.060  34.481   0.367
21446W        W82977  28.524  23.090   0.857
21447W        W82978   8.894   4.712   0.795
21448W        W82979  23.492  33.087  11.969
21449W        W82980  21.583  17.625   1.376
21450W        W82981  32.516   3.261   2.809
21451W        W82982  37.927   1.770   2.781
21452W        W82983  36.935  18.564  13.871
21453W        W82984  17.068  32.887   1.715
21454W        W82985  24.078  15.787   2.903
21455W        W82986  23.202  34.890   2.194
21456W        W82987  41.356   6.822  14.406
21457W        W82988  25.589  30.001  12.093
21458W        W82989  41.979   2.350   0.276
21459W        W82990  42.491  39.474  13.307
21460W        W82991  23.682  41.398   2.705
21461W        W82992  18.712  24.126   3.147
21462W        W82993   8.736  40.012   0.446
21463W        W82994  41.846  19.149   1.331
21464W        W82995  20.656   8.304  12.564
21465W        W82996   1.328  28.117  14.761
21466W        W82997   2.291   7.375  13.828
21467W        W82998  32.459  13.273   0.257
21468W        W82999  24.502  31.946   5.124
21469W        W83000  25.572  26.036  14.373
21470W        W83001   5.874  40.942   1.300
21471W        W83002  15.328  14.672  10.498
21472W        W83003  10.836  42.511  11.121
21473W        W83004  25.568   4.320  11.929
21474W        W83005  41.899  32.543  11.480
21475W        W83006  28.615  14.642   2.241
21476W        W83007  14.277   5.803  10.454
21477W        W83008  19.039  13.802   1.860
21478W        W83009  39.005  23.627  13.308
21479W        W83010   6.368   0.890   1.870
21480W        W83011   6.294  40.310  12.401
21481W        W83012   9.258  10.739  11.520
21482W        W83013  31.122  37.419   1.906
21483W        W83014  22.747  40.971   2.822
21484W        W83015  44.484  33.995  14.005
21485W        W83016  14.597   0.306   4.240
21486W        W83017  24.549  27.027   0.461
21487W        W83018   7.891  28.008   4.725
21488W        W83019  32.998  31.057  14.337
21489W        W83020  43.796  30.457  11.608
21490W        W83021  38.942  10.780   0.326
21491W        W83022   4.356  30.477  13.936
21492W        W83023   5.786  33.552   4.279
21493W        W83024  25.166   9.227   2.364
21494W        W83025   3.441  36.081   3.229
21495W        W83026  12.644  25.608  12.854
21496W        W83027   1.268  16.574  11.025
21497W        W83028   1.326   0.850  10.622
21498W        W83029  14.175  23.495  10.591
21499W        W83030  42.458  32.609   3.727
21500W        W83031  38.949  15.690  12.486
21501W        W83032  25.621  41.904  11.970
21502W        W83033  28.622  27.977  12.045
21503W        W83034   0.276  40.529   2.864
21504W        W83035  30.649  34.875   0.966
21505W        W83036  34.915  29.647   4.668
21506W        W83037   4.815   5.262   3.719
21507W        W83038   8.333   1.314   3.332
21508W        W83039  25.558  22.072   4.175
21509W        W83040  33.886  27.151   2.275
21510W        W83041   4.809   9.329   1.377
21511W        W83042  21.603  24.130  14.819
21512W        W83043  37.502  35.400   0.362
21513W        W83044  21.138  34.412   5.141
21514W        W83045  43.976  29.950  13.365
21515W        W83046   6.193  13.693   3.776
21516W        W83047   1.298  36.456  11.032
21517W        W83048  27.128  27.463  14.456
21518W        W83049  17.562  23.023   0.889
21519W        W83050  15.211   7.720  13.453
21520W        W83051  14.643  18.063  14.398
21521W        W83052   0.251  31.061   1.297
21522W        W83053  39.404  13.276  13.322
21523W        W83054   6.287  39.850  14.448
21524W        W83055   4.854  13.639  11.979
21525W        W83056   7.274  20.724   2.804
21526W        W83057  24.716  18.186   2.252
21527W        W83058  33.420  24.989  12.512
21528W        W83059  11.626  40.436  11.533
21529W        W83060  16.670  37.468  12.078
21530W        W83061  14.680  10.360   9.928
21531W        W83062  30.945  34.376  10.900
21532W        W83063  21.756  24.088   1.420
21533W        W83064  18.594   5.690   3.838
21534W        W83065   0.793  24.607   5.301
21535W        W83066  40.913   4.353   0.374
21536W        W83067  20.752  10.742  12.420
21537W        W83068  30.473  21.148  12.861
21538W        W83069   1.974  41.811  14.994
21539W        W83070  30.934   3.914  14.325
21540W        W83071  15.755  12.151   3.698
21541W        W83072   1.745  15.660  10.423
21542W        W83073  13.741  16.632  13.356
21543W        W83074  40.399  29.555   0.771
21544W        W83075  34.494  17.604  10.637
21545W        W83076   3.931   8.841   1.348
21546W        W83077   8.214  39.918   4.257
21547W        W83078  41.460  23.140  11.107
21548W        W83079  28.031  31.020   2.827
21549W        W83080  30.973   4.418   0.410
21550W        W83081  37.422  29.593  11.928
21551W        W83082  11.738  36.530   4.834
21552W        W83083  16.271   9.341  13.026
21553W        W83084   0.828  21.078   2.764
21554W        W83085   7.804   4.853  14.362
21555W        W83086   2.919  24.065  11.024
21556W        W83087   5.199  32.915   3.341
21557W        W83088  43.793  37.854   4.735
21558W        W83089  10.690   6.717   4.756
21559W        W83090   3.897   8.797  14.987
21560W        W83091  38.907  11.692  11.417
21561W        W83092  14.188  30.563  13.522
21562W        W83093  15.746  22.631   3.305
21563W        W83094  22.727  23.985  13.400
21564W        W83095  28.639   0.883   0.365
21565W        W83096  26.464  20.525   3.309
21566W        W83097  14.322  16.802   3.291
21567W        W83098   3.295   9.836  12.433
21568W        W83099   7.772  24.626   3.340
21569W        W83100   2.840  39.499  11.885
21570W        W83101  21.722  10.162  14.956
21571W        W83102   7.355   4.779   1.840
21572W        W83103  21.225  31.419   4.810
21573W        W83104  23.190  13.171   4.786
21574W        W83105   6.785  18.639  12.343
21575W        W83106  22.626   7.754   2.188
21576W        W83107  41.861  26.548   5.273
21577W        W83108  28.633  10.806  11.974
21578W        W83109   5.753  33.900   3.200
21579W        W83110  28.587  38.958  13.978
21580W        W83111  17.244  10.860  12.421
21581W        W83112   0.958  41.002   0.432
21582W        W83113  35.932  39.972   1.326
21583W        W83114  23.075  23.708   2.407
21584W        W83115  16.774   1.441  13.522
21585W        W83116   5.709  14.661  13.345
21586W        W83117   7.320  40.936  13.507
21587W        W83118  39.503  12.630   3.250
21588W        W83119  24.018  19.607  14.014
21589W        W83120   9.339  41.946   3.323
21590W        W83121  29.492  27.008  13.376
21591W        W83122  18.132  18.079  14.909
21592W        W83123   7.864   5.934   4.305
21593W        W83124  38.914  37.014   2.879
21594W        W83125  13.836  33.992  10.943
21595W        W83126   0.804   5.391   0.452
21596W        W83127  15.733  28.589  10.445
21597W        W83128  40.893   2.286  11.921
21598W        W83129  41.432  33.970   3.717
21599W        W83130  12.834  28.638   2.205
21600W        W83131  12.243  24.569  10.514
21601W        W83132  16.745  34.048   3.778
21602W        W83133  44.934  23.666  12.056
21603W        W83134  29.047   4.825  10.930
21604W        W83135   4.870  19.594  12.381
21605W        W83136  23.557  26.545   0.903
21606W        W83137  33.113   8.278  12.865
21607W        W83138  11.784  28.026  11.419
21608W        W83139  38.905   2.242  11.937
21609W        W83140  39.041  32.508  14.918
21610W        W83141  43.017  27.966  10.418
21611W        W83142  23.676  20.601   2.885
21612W        W83143  14.218  35.544  11.992
21613W        W83144   9.709  34.900   2.209
21614W        W83145  19.216  31.480  14.472
21615W        W83146  31.027  24.019   1.336
21616W        W83147  26.533  18.694   4.355
21617W        W83148  44.808  27.547  11.890
21618W        W83149  36.078  31.904  13.865
21619W        W83150  10.837  24.646  10.970
21620W        W83151  31.977  38.042  12.049
21621W        W83152  22.738   3.233  14.914
21622W        W83153  40.850   0.872  13.927
21623W        W83154  12.199  42.884  13.469
21624W        W83155   7.359  18.088  14.394
21625W        W83156   1.414  15.274  12.431
21626W        W83157  30.965  12.758   9.928
21627W        W83158   9.647  20.767  14.393
21628W        W83159  40.972  36.470  10.951
21629W        W83160  20.232  33.576   3.826
21630W        W83161   9.357  21.114   2.812
21631W        W83162  39.870   3.229  12.950
21632W        W83163  36.560  36.909  14.837
21633W        W83164   6.188   9.793  11.413
21634W        W83165   7.241  38.448   4.131
21635W        W83166  27.565  34.894  12.486
21636W        W83167  39.033  29.628  11.912
21637W        W83168  17.219   8.789  10.027
21638W        W83169   0.813  23.735   2.749
21639W        W83170  23.497  12.647  13.871
21640W        W83171   5.361  34.872  13.981
21641W        W83172   6.226  14.818   3.856
21642W        W83173  38.547  33.084   4.200
21643W        W83174   7.772  41.861  10.473
21644W        W83175  15.746   0.260  13.544
21645W        W83176  29.430  16.590   4.249
21646W        W83177  42.452  44.362  14.499
21647W        W83178   3.420  19.211  11.418
21648W        W83179  27.068  37.045   0.455
21649W        W83180  12.677   1.254  12.516
21650W        W83181  18.697   5.724  13.315
21651W        W83182  13.708  37.940  13.322
21652W        W83183  14.787  19.685   0.737
21653W        W83184   2.728  33.045  12.002
21654W        W83185   6.835  24.033  12.498
21655W        W83186   0.884  25.546   2.836
21656W        W83187  26.609  42.339  14.286
21657W        W83188  37.425  26.643  11.395
21658W        W83189  12.619  10.262   0.401
21659W        W83190  25.070  30.505   2.406
21660W        W83191   0.935  25.714   1.412
21661W        W83192  37.877  26.659  12.067
21662W        W83193  41.349  35.001   2.193
21663W        W83194  13.741  19.148  11.012
21664W        W83195  31.032  23.664   0.414
21665W        W83196  42.360  11.855  11.079
21666W        W83197   8.690  11.174  14.515
21667W        W83198  10.722   2.236   2.881
21668W        W83199   3.300  35.464   2.785
21669W        W83200  10.184  33.589  14.312
21670W        W83201   7.875   5.693  10.428
21671W        W83202  16.216  43.773   2.839
21672W        W83203  12.304  16.186  11.487
21673W        W83204  42.425  37.514   0.375
21674W        W83205  40.519  14.725  10.569
21675W        W83206  42.357  33.043  11.384
21676W        W83207   6.428  11.702  11.063
21677W        W83208  39.406  17.639  13.799
21678W        W83209  43.279  42.320   0.374
21679W        W83210  16.310  39.059   4.792
21680W        W83211  32.593  14.822  13.858
21681W        W83212  26.177  23.145  14.483
21682W        W83213   0.440  15.634  10.427
21683W        W83214  29.986   7.693  14.804
21684W        W83215  35.094  19.605  11.915
21685W        W83216  12.323  18.072  14.990
21686W        W83217  37.840  31.977   2.237
21687W        W83218   3.425  12.145   0.280
21688W        W83219  24.126  30.651   0.741
21689W        W83220  21.653  40.443  12.430
21690W        W83221   3.923   5.225   4.333
21691W        W83222  11.179  31.408  14.883
21692W        W83223  28.151   6.351   0.907
21693W        W83224  16.111  17.283  11.476
21694W        W83225  24.210  13.636  14.489
21695W        W83226  15.763  22.541  12.850
21696W        W83227  42.432  43.344  12.034
21697W        W83228   5.422  10.743  11.061
21698W        W83229   0.477  10.203   0.784
21699W        W83230  12.254  36.091  10.542
21700W        W83231  10.178  42.887  12.942
21701W        W83232   4.928   8.251   1.837
21702W        W83233  15.228  23.233   2.712
21703W        W83234  31.479  37.026   2.769
21704W        W83235  38.474  11.672   4.707
21705W        W83236  30.018  38.528   4.636
21706W        W83237  32.064  40.477  13.414
21707W        W83238  43.796  42.347   0.414
21708W        W83239  28.517   3.220   3.853
21709W        W83240  29.090  41.387   4.201
21710W        W83241   3.873  41.441  11.026
21711W        W83242  38.497   5.293  10.551
21712W        W83243  13.125  37.831  11.461
21713W        W83244  39.993   7.713  11.386
21714W        W83245   6.697  19.541  12.989
21715W        W83246  19.616   1.749   0.808
21716W        W83247  41.482  44.297  13.791
21717W        W83248   0.371   5.691  12.346
21718W        W83249   9.210   9.212   4.209
21719W        W83250  23.726  22.716   2.258
21720W        W83251   0.480  32.441  11.948
21721W        W83252  36.494  36.417  13.521
21722W        W83253  30.603  24.512   0.331
21723W        W83254   0.781  31.933   0.276
21724W        W83255  37.423  36.967  12.857
21725W        W83256  17.064  44.354  14.469
21726W        W83257  14.655  32.436   0.431
21727W        W83258  19.631  26.643  10.615
21728W        W83259  41.001  20.255  12.407
21729W        W83260  28.155  11.279   0.888
21730W        W83261   4.700  26.656  11.083
21731W        W83262  35.933  27.046   0.388
21732W        W83263   7.848  32.524   2.237
21733W        W83264  22.545  24.016  10.905
21734W        W83265  39.910   3.908  11.517
21735W        W83266  34.504  31.998   0.244
21736W        W83267  43.845   9.188   2.353
21737W        W83268   8.253  36.895  10.569
21738W        W83269  12.188  29.086   9.467
21739W        W83270  11.329   8.820  14.968
21740W        W83271  10.707  24.621   0.379
21741W        W83272  35.864   0.291   3.262
21742W        W83273   2.768  28.937  11.880
21743W        W83274  17.166   1.893  11.392
21744W        W83275   7.234  23.507  12.892
21745W        W83276   4.338  42.465  11.538
21746W        W83277  43.788  23.088  11.430
21747W        W83278   1.925  11.128  10.642
21748W        W83279  17.735  14.740   4.191
21749W        W83280  19.183  32.431   1.788
21750W        W83281   2.274  44.330  12.351
21751W        W83282  27.056  23.625   0.894
21752W        W83283  33.925  35.031  10.628
21753W        W83284  22.077   6.771  14.419
21754W        W83285   6.241  31.530  11.528
21755W        W83286  37.543  43.864  13.417
21756W        W83287   6.206  23.673  10.619
21757W        W83288  40.030  23.583   1.826
21758W        W83289  38.863  23.064  14.957
21759W        W83290  18.194  22.125  11.449
21760W        W83291  31.497  42.891  11.571
21761W        W83292  37.348  15.315   0.466
21762W        W83293   0.771  29.157   2.191
21763W        W83294  31.617  33.483  11.392
21764W        W83295  31.526  11.327  13.309
21765W        W83296  13.765  19.149   3.190
21766W        W83297   9.750  42.498  14.371
21767W        W83298   2.421   5.277  12.368
21768W        W83299  37.843   3.724   2.302
21769W        W83300  10.166  14.255   1.281
21770W        W83301  23.693  20.128   0.408
21771W        W83302   1.850  14.589   3.649
21772W        W83303  18.170  42.014  10.547
21773W        W83304   8.893   7.284   0.800
21774W        W83305   3.924   8.754  12.452
21775W        W83306  23.013  25.700  14.876
21776W        W83307  29.475  36.873  11.548
21777W        W83308  30.924  15.598  10.612
21778W        W83309   5.371  24.700   0.372
21779W        W83310  27.598  12.652  12.017
21780W        W83311  10.770  38.350   4.140
21781W        W83312   2.753  35.494  13.420
21782W        W83313  22.596  36.469   3.357
21783W        W83314   5.892   8.348   1.215
21784W        W83315   7.213  43.789  12.553
21785W        W83316  36.490  16.798  13.971
21786W        W83317  42.441  14.780   3.170
21787W        W83318   0.762  23.180  12.053
21788W        W83319  21.586  22.207  11.477
21789W        W83320  31.578  25.537  14.029
21790W        W83321   5.823   4.277   1.386
21791W        W83322  19.677  15.328  13.974
21792W        W83323  27.564  13.259   1.320
21793W        W83324   5.809  11.715  10.519
21794W        W83325  25.642  20.712  10.412
21795W        W83326  19.247  30.575  14.338
21796W        W83327  40.522  42.874  10.938
21797W        W83328  34.998  15.281  13.002
21798W        W83329  22.222  40.006   1.288
21799W        W83330  38.349   2.235  14.291
21800W        W83331   2.778  10.661  14.780
21801W        W83332  42.845  34.952  12.533
21802W        W83333   2.319  17.123   4.294
21803W        W83334  26.496  28.956   3.255
21804W        W83335  12.803   1.279  12.920
21805W        W83336   7.405  39.849   2.707
21806W        W83337  27.130  20.660  12.542
21807W        W83338   4.297  14.198   2.318
21808W        W83339  24.674  23.736  13.056
21809W        W83340  39.318  20.583  13.980
21810W        W83341  18.167  10.867   0.868
21811W        W83342  22.630   3.224   0.285
21812W        W83343  40.503  25.178  14.814
21813W        W83344  32.610  40.426   2.414
21814W        W83345  26.689   6.261   2.313
21815W        W83346   5.308  17.777   4.789
21816W        W83347  40.332  13.317  11.479
21817W        W83348  34.562  27.108   0.270
21818W        W83349  11.360   8.667   2.717
21819W        W83350  38.949  27.608  14.872
21820W        W83351  13.695  34.571  13.856
21821W        W83352   6.787  30.441  10.889
21822W        W83353  41.392  36.485   2.710
21823W        W83354  38.051   0.259  11.528
21824W        W83355  27.966  20.253  11.400
21825W        W83356  13.676  30.002  12.854
21826W        W83357  41.291  34.075  13.903
21827W        W83358  10.865  26.135  14.780
21828W        W83359  26.537  42.862  10.531
21829W        W83360   1.927  32.016  13.936
21830W        W83361  10.245   6.391  14.919
21831W        W83362  33.619   9.153  14.410
21832W        W83363  18.282  30.482  11.919
21833W        W83364  42.286  44.262  10.957
21834W        W83365  44.796  36.858  10.934
21835W        W83366   0.984  20.647   1.285
21836W        W83367  15.132  41.487  10.988
21837W        W83368  39.373  21.601   0.330
21838W        W83369   9.839  21.709  10.610
21839W        W83370  33.604   1.939   4.685
21840W        W83371  32.128   8.202  11.546
21841W        W83372   8.664  29.103   0.925
21842W        W83373  42.947  29.530   1.295
21843W        W83374  44.883  36.045   4.685
21844W        W83375   6.373  22.091   1.297
21845W        W83376  29.670  35.474  12.018
21846W        W83377   8.206   9.359   3.148
21847W        W83378  12.855  44.383   4.802
21848W        W83379  39.554   0.318   4.172
21849W        W83380  13.194   0.299  10.573
21850W        W83381   8.762  34.077  10.414
21851W        W83382  13.844  42.823  14.485
21852W        W83383  32.592  30.415   0.886
21853W        W83384  27.534  11.136  14.333
21854W        W83385  11.219  13.267   3.870
21855W        W83386  21.733   8.279  14.438
21856W        W83387  33.894  38.014  13.820
21857W        W83388  42.399  37.567   2.719
21858W        W83389  14.191   4.772  14.375
21859W        W83390  36.929  43.469   1.370
21860W        W83391  23.550  27.455   4.323
21861W        W83392  30.085  40.047  12.485
21862W        W83393  32.054  17.675  14.778
21863W        W83394   9.885  15.190  14.959
21864W        W83395  30.659  29.654   3.666
21865W        W83396  17.758   2.462   3.689
21866W        W83397  26.565   5.217  11.954
21867W        W83398  36.527   1.823  13.849
21868W        W83399  36.444   9.374   3.814
21869W        W83400  39.474  19.695   0.323
21870W        W83401  19.120  16.635  11.467
21871W        W83402  31.973  24.703  12.990
21872W        W83403  39.396  36.545   3.214
21873W        W83404  20.131  18.715  13.364
21874W        W83405   6.424  31.634   0.913
21875W        W83406  43.980  24.583   4.352
21876W        W83407   4.845   1.972   5.199
21877W        W83408   1.912   4.828   1.292
21878W        W83409  36.352  24.208  13.506
21879W        W83410  42.444  18.559  12.386
21880W        W83411  44.925  42.860   1.364
21881W        W83412   6.814   6.725  14.909
21882W        W83413   9.728  37.422   4.639
21883W        W83414  11.370  13.280  11.025
21884W        W83415  14.805  39.499   4.745
21885W        W83416  33.578   9.325   1.739
21886W        W83417  32.450   4.223   4.600
21887W        W83418  43.367  30.438   2.751
21888W        W83419   4.920  40.971  13.514
21889W        W83420  13.168   9.175  13.936
21890W        W83421  38.051  17.573  12.427
21891W        W83422  35.401  15.246  12.859
21892W        W83423  16.632  31.050  10.621
21893W        W83424  25.129  21.240  12.982
21894W        W83425  33.090  32.933  12.878
21895W        W83426  28.669  30.106  14.938
21896W        W83427  35.876   2.732   1.706
21897W        W83428   4.817  18.751   1.270
21898W        W83429  37.834  31.613  13.046
21899W        W83430  39.458  37.871   4.763
21900W        W83431  38.530  43.371   1.281
21901W        W83432  10.256  15.736   4.819
21902W        W83433   2.272  20.736   0.383
21903W        W83434  24.130  40.436  10.451
21904W        W83435   0.782  25.487  14.874
21905W        W83436  26.003  27.535   2.232
21906W        W83437  24.699  37.530  10.999
21907W        W83438  40.344  36.557  14.777
21908W        W83439   3.258  44.901   4.693
21909W        W83440  42.363  42.334   2.291
21910W        W83441  23.505  12.241  11.384
21911W        W83442   1.967  29.001   2.735
21912W        W83443  34.456  24.112   1.859
21913W        W83444  13.831  16.121   4.703
21914W        W83445   5.215  12.158   1.234
21915W        W83446  29.933   1.246  12.991
21916W        W83447  31.148  33.601   1.887
21917W        W83448  13.146  33.534   2.247
21918W        W83449  26.098  39.328  12.482
21919W        W83450  43.938  14.312   3.662
21920W        W83451  26.142  43.021   3.262
21921W        W83452  25.156  12.617  14.405
21922W        W83453   5.196  29.488   3.160
21923W        W83454  24.111  25.590   1.291
21924W        W83455   6.706  25.636  13.389
21925W        W83456  14.299   4.267   3.149
21926W        W83457  42.281  11.771  10.516
21927W        W83458  44.841   0.311  10.450
21928W        W83459  41.890   9.216  12.939
21929W        W83460  33.890  43.409   0.260
21930W        W83461  17.173  17.654  10.016
21931W        W83462   2.414  34.889   4.670
21932W        W83463  38.882  44.484   5.270
21933W        W83464  24.694  42.390  13.050
21934W        W83465   6.904  16.312  11.372
21935W        W83466  27.045  25.965   3.171
21936W        W83467  36.096  33.573  12.574
21937W        W83468  20.568  26.612  11.059
21938W        W83469  30.985   4.249   3.680
21939W        W83470  27.587   9.227   3.318
21940W        W83471  10.316  34.920  11.572
21941W        W83472  24.677  41.293   3.755
21942W        W83473  22.194   8.384   1.279
21943W        W83474  25.034   2.803   1.795
21944W        W83475  25.580  29.095  13.467
21945W        W83476  20.193  35.881  12.409
21946W        W83477  10.718   7.887   4.703
21947W        W83478   3.767   8.202   0.447
21948W        W83479  43.408  28.483  14.344
21949W        W83480  32.961  27.679  12.458
21950W        W83481   5.285   3.263  12.388
21951W        W83482  38.854  23.612  14.869
21952W        W83483  44.322   5.298   4.189
21953W        W83484  14.140  24.123   5.154
21954W        W83485  14.144  15.707  13.510
21955W        W83486  21.122  11.217   3.366
21956W        W83487   3.406  14.107   3.782
21957W        W83488  18.192  30.600  10.536
21958W        W83489  23.664  21.173   9.947
21959W        W83490  24.658  38.864   2.410
21960W        W83491   4.323   8.725  10.429
21961W        W83492  27.945  24.723  12.394
21962W        W83493  42.404  25.210   2.206
21963W        W83494  35.082  31.086  14.382
21964W        W83495  41.436   0.391  12.905
21965W        W83496  42.805  28.941  13.349
21966W        W83497  38.384  10.140  10.100
21967W        W83498  39.954  18.569   0.388
21968W        W83499  27.191   8.798  12.443
21969W        W83500  16.147  25.502   3.199
21970W        W83501   1.417  28.148   4.788
21971W        W83502  29.169   4.853   3.297
21972W        W83503   7.861  11.140   4.621
21973W        W83504  37.549  40.941  11.383
21974W        W83505  37.067  25.482   3.802
21975W        W83506  19.124  11.860   2.316
21976W        W83507  27.673   8.870   3.651
21977W        W83508   2.337  14.191  10.146
21978W        W83509  21.056  24.127  13.520
21979W        W83510  13.730  33.479  14.935
21980W        W83511  10.333  16.273   2.731
21981W        W83512  20.270  37.056  10.945
21982W        W83513  35.435  15.238   3.187
21983W        W83514  44.835  26.990  11.603
21984W        W83515   3.892  18.053   1.226
21985W        W83516  24.573  13.814  13.993
21986W        W83517   6.700  18.730   2.802
21987W        W83518  27.682  33.879  14.941
21988W        W83519  33.013  26.566  14.419
21989W        W83520  11.835  44.387   4.707
21990W        W83521  35.012  36.369  11.514
21991W        W83522  21.079   2.766   4.832
21992W        W83523  36.041   0.752   1.264
21993W        W83524  29.620  15.320  13.457
21994W        W83525  12.714  22.176  14.949
21995W        W83526  40.396  30.998   0.361
21996W        W83527  18.691  29.038  14.846
21997W        W83528  26.169  40.053  11.856
21998W        W83529   3.887  40.992  14.790
21999W        W83530  41.321  25.050   3.315
22000W        W83531  36.569  39.448   3.317
22001W        W83532  16.701  25.583   4.148
22002W        W83533  30.511  33.539  12.988
22003W        W83534  24.506  26.093  10.966
22004W        W83535  25.606  39.418   2.243
22005W        W83536  43.795  30.984   4.152
22006W        W83537   4.802  33.880   1.350
22007W        W83538   5.360  32.102   5.221
22008W        W83539   6.315  17.618   3.173
22009W        W83540  42.026   7.733  10.483
22010W        W83541  43.487  40.804  11.388
22011W        W83542  10.142  10.695   2.302
22012W        W83543  42.361   1.328  12.046
22013W        W83544  44.445  22.739  11.547
22014W        W83545   6.733  21.023   2.416
22015W        W83546   8.322  44.855  14.903
22016W        W83547  20.193  18.247   0.272
22017W        W83548  18.666  22.536  11.504
22018W        W83549  19.057  38.372   3.774
22019W        W83550  28.516  29.031   2.756
22020W        W83551  34.548  13.672  13.537
22021W        W83552  40.856  38.856   2.847
22022W        W83553   8.356  38.925   0.292
22023W        W83554  19.619  21.145   0.760
22024W        W83555   6.360  11.744   1.368
22025W        W83556  13.814  39.555  14.904
22026W        W83557  18.731   2.810   4.716
22027W        W83558  39.901  38.839   0.898
22028W        W83559  28.978  15.779   3.636
22029W        W83560  21.113  34.056  11.991
22030W        W83561  32.618  10.753  11.496
22031W        W83562   7.688  24.033   4.204
22032W        W83563  40.038  42.795   1.445
22033W        W83564  41.924  43.940  11.598
22034W        W83565   4.228   3.743  13.540
22035W        W83566   4.251   3.262  14.842
22036W        W83567  28.037  22.689   3.651
22037W        W83568   0.778   3.445  10.130
22038W        W83569  17.694  22.095   4.267
22039W        W83570  30.458  26.643   2.873
22040W        W83571   5.275  24.173   2.895
22041W        W83572  38.886   3.874  14.784
22042W        W83573  22.102  17.594  10.902
22043W        W83574  37.356  32.479  11.395
22044W        W83575   3.731  13.637  12.532
22045W        W83576  33.575   2.415   4.752
22046W        W83577  11.759  39.927  14.948
22047W        W83578  43.384  30.112   4.757
22048W        W83579  42.829  20.704  13.890
22049W        W83580   2.435  41.353  14.816
22050W        W83581  38.478  25.615  12.978
22051W        W83582   3.712   2.947   2.669
22052W        W83583  19.155  43.896   4.804
22053W        W83584  33.113  39.041  13.367
22054W        W83585  11.662  25.131   0.377
22055W        W83586  12.739  29.949  13.846
22056W        W83587   5.240  28.140   4.221
22057W        W83588  44.871  37.055  12.975
22058W        W83589  37.522  38.899   2.753
22059W        W83590  22.574  36.871  14.813
22060W        W83591  35.906  21.718   1.316
22061W        W83592  26.679  44.502   1.935
22062W        W83593  13.760  35.427   2.261
22063W        W83594  24.086  28.463  13.968
22064W        W83595  39.524  15.624   0.391
22065W        W83596  38.566   7.771   2.345
22066W        W83597  29.071  25.651  13.418
22067W        W83598   5.205   0.385   1.424
22068W        W83599  17.291  29.556  10.937
22069W        W83600  16.758   2.255  13.379
22070W        W83601  31.969  33.576  13.542
22071W        W83602  11.355   6.209   0.386
22072W        W83603  12.310  35.880  12.077
22073W        W83604  31.959  27.571   3.734
22074W        W83605  13.609  25.034   1.730
22075W        W83606  35.866   0.875  11.911
22076W        W83607   6.885   2.801  11.933
22077W        W83608  29.075  43.358   2.771
22078W        W83609  21.692  38.540   1.336
22079W        W83610  11.248  38.966  11.452
22080W        W83611  38.541  20.704   1.883
22081W        W83612   6.847  30.622   0.257
22082W        W83613  31.517  10.730  12.031
22083W        W83614  25.076  27.151  13.315
22084W        W83615   6.299  15.694   1.382
22085W        W83616   2.284  14.694  13.999
22086W        W83617  12.840  32.077   0.425
22087W        W83618  26.105  29.937  12.377
22088W        W83619  27.007   2.232  14.512
22089W        W83620  34.458  16.112   1.856
22090W        W83621  40.976  27.547   3.825
22091W        W83622  15.280  10.676  11.114
22092W        W83623  39.062  44.438   0.373
22093W        W83624   2.837  25.096   0.890
22094W        W83625  10.761  42.486  12.423
22095W        W83626  31.903  18.679  10.978
22096W        W83627  12.263   3.346  13.464
22097W        W83628  25.590  42.463  13.319
22098W        W83629  42.507  35.382   1.798
22099W        W83630  43.305  44.450   0.385
22100W        W83631  42.351  43.794  13.800
22101W        W83632  37.432   7.259   4.116
22102W        W83633   2.234  23.150   2.340
22103W        W83634  41.978   5.413  14.915
22104W        W83635  24.022  33.889   0.425
22105W        W83636  44.969  33.922   4.781
22106W        W83637  30.052   4.292  12.571
22107W        W83638  10.139   4.335  10.942
22108W        W83639  19.583  31.409  11.376
22109W        W83640   6.224  42.315   1.364
22110W        W83641  20.672   9.696  12.443
22111W        W83642  18.773  42.012   4.780
22112W        W83643   7.824  39.441  12.930
22113W        W83644  38.395   2.434   1.839
22114W        W83645  41.803  29.593  12.878
22115W        W83646  38.500  10.266   2.827
22116W        W83647  31.007  19.667   2.320
22117W        W83648   7.304  12.193   4.246
22118W        W83649  26.685  26.003  14.327
22119W        W83650  29.953  10.285   3.216
22120W        W83651  41.503   9.187  13.438
22121W        W83652  27.597  23.531   0.298
22122W        W83653  31.968  36.529   4.751
22123W        W83654  11.829   8.716  12.087
22124W        W83655  10.657  41.515  12.512
22125W        W83656   0.908   8.768   5.223
22126W        W83657  24.484  28.667  10.445
22127W        W83658  34.603  30.061   1.809
22128W        W83659  35.571  24.676   0.882
22129W        W83660  34.550  43.364   3.744
22130W        W83661  37.924  18.757   0.339
22131W        W83662  14.123  28.976   2.336
22132W        W83663  35.399  21.081   0.309
22133W        W83664   2.809   3.345   3.697
22134W        W83665  36.937   5.253   3.175
22135W        W83666  34.399  14.120  13.540
22136W        W83667  12.168   3.250  14.865
22137W        W83668  30.112  30.435  14.376
22138W        W83669  21.606   4.704  14.516
22139W        W83670  40.798  35.526  12.900
22140W        W83671  19.765  35.603   2.883
22141W        W83672  44.763  42.909  14.982
22142W        W83673   0.780  29.546   5.090
22143W        W83674  35.595  19.118  11.877
22144W        W83675   9.281  29.982  14.000
22145W        W83676  38.409  35.040   3.317
22146W        W83677   2.932  24.149   3.630
22147W        W83678  36.348  41.525  13.054
22148W        W83679  18.184  37.569  13.497
22149W        W83680  37.933   7.850   2.213
22150W        W83681  40.439  30.156   2.771
22151W        W83682  38.010  12.644   2.734
22152W        W83683  32.084  41.990  14.915
22153W        W83684  29.451  40.851   0.454
22154W        W83685  42.825  44.901   2.356
22155W        W83686  30.543  11.206   0.414
22156W        W83687  16.755  15.744  14.003
22157W        W83688  25.497  39.555  14.026
22158W        W83689  12.710  26.188  13.489
22159W        W83690  24.572  18.050   1.844
22160W        W83691  24.022  19.640  11.063
22161W        W83692  23.510  37.560   1.232
22162W        W83693  32.466  14.150   4.638
22163W        W83694  34.074  30.488  12.416
22164W        W83695  44.486  26.563  10.515
22165W        W83696  10.775  29.544  14.784
22166W        W83697  12.769  23.023   3.167
22167W        W83698  23.224  39.522  11.411
22168W        W83699   0.815   6.380   2.891
22169W        W83700  41.950  38.516  14.926
22170W        W83701  17.722   0.852   1.315
22171W        W83702  10.709  27.091  13.342
22172W        W83703   9.854  21.104   0.857
22173W        W83704  19.589   4.264   1.309
22174W        W83705   7.411  20.223  10.512
22175W        W83706  29.464   0.443   1.837
22176W        W83707  29.505   5.267  14.444
22177W        W83708  19.655   7.225  14.816
22178W        W83709  34.050  40.967  10.889
22179W        W83710   1.846  15.209  12.980
22180W        W83711  32.477  13.736  14.280
22181W        W83712   7.890  28.120   1.341
22182W        W83713  29.999  11.284   2.408
22183W        W83714  17.773   0.952   2.755
22184W        W83715  24.576  41.388  13.835
22185W        W83716  27.053  35.583  13.449
22186W        W83717  10.689  32.454  12.021
22187W        W83718  35.889  26.640  10.890
22188W        W83719  10.685   5.872  14.986
22189W        W83720  18.635  23.688  14.318
22190W        W83721  34.423  32.921  10.438
22191W        W83722  11.141   6.286   1.222
22192W        W83723   9.756  37.843   4.787
22193W        W83724  27.470  36.021  11.947
22194W        W83725  27.620   6.235  10.522
22195W        W83726   8.338  30.042   2.753
22196W        W83727   4.393  29.098   2.273
22197W        W83728   2.448   2.858  12.353
22198W        W83729  38.394  43.477  10.502
22199W        W83730  23.646  13.194   1.441
22200W        W83731   1.420  15.275   4.830
22201W        W83732  39.320  42.927   2.715
22202W        W83733   5.205  42.326   4.690
22203W        W83734  17.584  19.122   2.701
22204W        W83735  35.431  31.115  12.880
22205W        W83736   8.863  34.561  14.333
22206W        W83737  42.445  40.930   3.638
22207W        W83738  22.735  29.110  10.623
22208W        W83739   5.784  33.102  12.576
22209W        W83740  21.618  28.503   0.387
22210W        W83741  40.876  19.094  13.414
22211W        W83742  34.988  39.045   3.330
22212W        W83743   9.775   6.844  13.926
22213W        W83744  42.803   1.799  10.154
22214W        W83745  38.349  35.521   1.805
22215W        W83746  12.801  37.380  14.384
22216W        W83747  22.555  22.648  11.575
22217W        W83748  21.061  39.328  11.033
22218W        W83749  23.177  40.441   3.190
22219W        W83750  33.397  25.113  14.902
22220W        W83751  29.631   6.806   1.360
22221W        W83752  31.076   3.262   4.602
22222W        W83753   6.406  10.261  11.551
22223W        W83754  32.488  34.380   1.827
22224W        W83755  39.410  34.514   1.746
22225W        W83756  44.320  27.485  10.568
22226W        W83757  17.777   7.665  13.908
22227W        W83758  31.043  24.200  12.079
22228W        W83759  37.964  22.723  10.942
22229W        W83760  31.990  11.740  11.984
22230W        W83761  37.987   4.380  11.925
22231W        W83762  11.690  21.551  11.074
22232W        W83763  16.759  35.554   3.868
22233W        W83764  21.223  15.757   3.236
22234W        W83765  11.663  30.921  14.853
22235W        W83766  39.505  18.621  11.527
22236W        W83767   1.908  21.632   1.815
22237W        W83768  26.040  44.975  10.986
22238W        W83769  34.418  20.569  12.056
22239W        W83770   8.710  36.005   0.727
22240W        W83771  24.143  44.485  11.932
22241W        W83772  32.007  38.983  12.503
22242W        W83773  20.692   4.356   2.244
22243W        W83774   6.376  10.221   4.244
22244W        W83775   7.211  38.353  14.505
22245W        W83776  13.840  40.915   1.266
22246W        W83777  11.706  39.331  11.970
22247W        W83778  16.650  32.615   4.742
22248W        W83779  21.544  24.533   3.254
22249W        W83780   7.323  11.846  13.998
22250W        W83781  37.499  18.147   3.182
22251W        W83782   6.322  33.517   1.844
22252W        W83783   8.815  28.989   4.653
22253W        W83784  12.848  39.507  11.425
22254W        W83785  24.042  29.476  13.367
22255W        W83786  29.432  13.643  12.075
22256W        W83787  23.174   4.313  13.894
22257W        W83788  25.195  27.572  12.838
22258W        W83789   4.742  18.575   3.771
22259W        W83790  25.563  29.596  11.403
22260W        W83791  25.156  40.475   5.210
22261W        W83792  21.143  36.845   5.222
22262W        W83793  31.476  25.580  12.913
22263W        W83794  40.477  28.558   0.812
22264W        W83795  20.105  36.517  10.411
22265W        W83796  32.540   9.797  12.840
22266W        W83797  12.224  29.939  12.361
22267W        W83798  27.560  24.668   2.786
22268W        W83799  42.434   1.863  11.545
22269W        W83800  22.713  15.657   4.181
22270W        W83801  17.073   8.277   3.761
22271W        W83802  41.020   9.328  14.339
22272W        W83803  23.164  28.500  12.874
22273W        W83804   7.242  33.910  13.543
22274W        W83805  11.292  15.235   4.833
22275W        W83806  17.195  33.462   2.700
22276W        W83807  35.383  17.153   9.985
22277W        W83808  42.495  37.399   3.292
22278W        W83809  33.397   7.780   1.267
22279W        W83810  44.470  22.236   2.826
22280W        W83811  43.808  41.034  13.341
22281W        W83812  40.459  27.038  14.917
22282W        W83813  41.928  28.567  14.487
22283W        W83814  26.540  21.580  14.028
22284W        W83815  10.820  11.724   3.695
22285W        W83816  43.998   4.445  11.985
22286W        W83817  34.389  28.640  14.825
22287W        W83818   9.386  27.967  11.864
22288W        W83819   5.312  41.998   4.700
22289W        W83820  36.039   7.855  14.304
22290W        W83821  29.107  26.514   0.799
22291W        W83822  17.656  34.511  13.483
22292W        W83823  42.355  39.029   3.644
22293W        W83824  39.927  44.919  11.455
22294W        W83825  37.888  34.426  10.485
22295W        W83826  21.195   4.364  13.453
22296W        W83827  30.524  34.062   3.236
22297W        W83828  19.170  43.379   4.263
22298W        W83829   5.734  25.123  10.438
22299W        W83830   3.393  41.301  12.890
22300W        W83831   2.442  41.998  14.990
22301W        W83832   1.926  29.626   3.682
22302W        W83833  36.895  35.928   2.761
22303W        W83834  36.431  33.049   3.840
22304W        W83835  25.112  43.400  13.441
22305W        W83836   7.698  15.664   3.815
22306W        W83837  38.334  20.068   4.661
22307W        W83838  41.013   1.397   0.908
22308W        W83839  34.876  44.334  13.519
22309W        W83840  17.263  14.330   1.849
22310W        W83841  27.099  44.005  10.437
22311W        W83842  16.637  11.780   0.340
22312W        W83843  43.443  19.051   4.114
22313W        W83844  20.754  42.397  10.489
22314W        W83845  44.417  26.541   3.834
22315W        W83846  37.982   3.441  12.913
22316W        W83847   6.259   1.413  11.114
22317W        W83848   3.899  14.205  10.507
22318W        W83849   6.367   6.423  12.404
22319W        W83850  18.603  18.186  10.561
22320W        W83851   8.391  39.520   0.958
22321W        W83852  14.608  33.083   1.262
22322W        W83853  25.565  31.075  14.422
22323W        W83854  20.534  10.654  14.486
22324W        W83855  37.368   2.348  11.859
22325W        W83856  10.188  36.916  13.526
22326W        W83857  10.274  38.482  11.902
22327W        W83858   6.400  37.555  13.460
22328W        W83859   2.965  20.088   0.851
22329W        W83860  27.586  44.341   3.754
22330W        W83861  11.622  22.128  12.096
22331W        W83862  25.219  31.999  11.448
22332W        W83863  42.286  37.394   1.425
22333W        W83864  24.725  19.569   1.926
22334W        W83865  30.030  21.219   0.731
22335W        W83866  35.950  38.549  13.348
22336W        W83867  42.023  12.812  12.900
22337W        W83868  12.808  43.792  10.584
22338W        W83869  12.244  44.777   3.158
22339W        W83870  34.041  40.996   1.378
22340W        W83871  43.896  17.776  11.001
22341W        W83872  25.536   6.207  14.422
22342W        W83873  42.283   7.244  11.605
22343W        W83874  31.460  19.161   3.867
22344W        W83875  14.119  35.430  10.986
22345W        W83876   0.490  23.134  11.973
22346W        W83877   5.221   4.220   1.371
22347W        W83878   2.721  33.932  13.400
22348W        W83879  23.123  21.226  12.459
22349W        W83880  20.625  26.169  14.994
22350W        W83881  40.962  18.640   1.374
22351W        W83882  40.540  15.620   0.253
22352W        W83883  19.715  35.593   0.443
22353W        W83884  27.195  27.654   3.862
22354W        W83885  15.647  29.607  11.958
22355W        W83886   4.913  25.476   9.932
22356W        W83887  17.306  17.075   0.448
22357W        W83888  13.768  17.652   1.902
22358W        W83889   6.778   1.330  12.021
22359W        W83890   3.800  32.463  14.313
22360W        W83891   7.728  10.811  10.448
22361W        W83892  38.536   8.275   3.722
22362W        W83893   3.770  40.873  13.313
22363W        W83894   3.899  42.010  13.930
22364W        W83895  32.082  44.441  10.404
22365W        W83896  25.000  25.216  13.846
22366W        W83897  23.170  17.571  11.388
22367W        W83898  36.888  17.124   4.328
22368W        W83899  41.018  27.657   0.416
22369W        W83900  33.526  14.710  14.505
22370W        W83901  12.788  11.245  12.828
22371W        W83902  25.707   1.271   1.331
22372W        W83903   9.179  35.369   4.628
22373W        W83904  10.824   3.778   2.280
22374W        W83905  25.565  42.791   2.263
22375W        W83906  35.422   8.820  14.930
22376W        W83907  22.504  41.808   0.435
22377W        W83908  25.568  27.670  13.794
22378W        W83909  12.333   0.749  13.045
22379W        W83910  39.044  13.128  12.850
22380W        W83911   1.365  15.316  13.504
22381W        W83912  41.392   5.404   2.195
22382W        W83913  14.714  40.871   1.367
22383W        W83914   0.753   2.358   4.627
22384W        W83915  42.835   1.910   4.753
22385W        W83916  36.028  14.756  11.590
22386W        W83917  15.317   3.796   2.366
22387W        W83918  30.572  10.193  11.117
22388W        W83919  12.143  15.672  12.369
22389W        W83920  23.597  37.336   2.719
22390W        W83921  10.304  29.466   2.898
22391W        W83922  24.696  44.489  10.945
22392W        W83923  42.799   3.239  10.949
22393W        W83924   5.715   3.733   4.756
22394W        W83925  26.516   9.664  13.527
22395W        W83926  33.127  38.508  13.397
22396W        W83927  32.069  19.119  12.898
22397W        W83928  34.882  44.387   0.909
22398W        W83929   6.837  37.058  10.923
22399W        W83930  22.119  16.194   2.322
22400W        W83931   5.312   2.902   1.798
22401W        W83932  38.467   1.925   1.862
22402W        W83933   8.816  35.868  14.424
22403W        W83934  36.016  11.835   2.297
22404W        W83935  37.501   7.811   2.269
22405W        W83936   8.706  36.972  14.307
22406W        W83937   3.221  35.000   0.885
22407W        W83938  41.980   6.242   3.696
22408W        W83939  36.525  25.170  11.892
22409W        W83940  11.341  21.160  14.383
22410W        W83941  35.082   3.728  14.960
22411W        W83942   2.432  10.376   3.860
22412W        W83943  40.008  18.622   3.376
22413W        W83944   7.746  41.855  10.940
22414W        W83945  22.664   7.819   1.264
22415W        W83946   7.844  33.396   5.287
22416W        W83947   3.868   2.934   3.231
22417W        W83948  20.632  16.178   4.656
22418W        W83949  28.492  25.144  12.408
22419W        W83950  14.122  30.104   3.367
22420W        W83951  30.627  14.675  14.501
22421W        W83952  41.034  17.094  11.984
22422W        W83953   8.199   0.894   1.919
22423W        W83954  29.932  20.531   0.272
22424W        W83955   5.880   0.935   2.193
22425W        W83956  39.398  25.069   3.216
22426W        W83957  26.511  29.566  10.094
22427W        W83958  16.774  10.202  14.887
22428W        W83959  21.581   7.173   3.242
22429W        W83960  19.172  35.012   4.763
22430W        W83961  18.741   6.695  12.354
22431W        W83962  16.803  12.818   1.735
22432W        W83963   2.839   0.321  13.479
22433W        W83964   1.913  27.979  11.013
22434W        W83965  37.381  37.580   4.597
22435W        W83966  33.972   4.226   0.277
22436W        W83967  22.220  19.557  11.570
22437W        W83968  44.453  32.466  10.894
22438W        W83969  44.753  23.630   1.446
22439W        W83970  10.288  31.533  13.038
22440W        W83971  28.619  13.733  12.044
22441W        W83972   8.673  13.175  14.015
22442W        W83973  42.525   6.257   4.202
22443W        W83974  28.005  41.824  11.933
22444W        W83975  26.675  42.932  11.972
22445W        W83976  37.027  43.832  11.582
22446W        W83977  43.894  42.526   0.779
22447W        W83978  36.023  41.347   3.198
22448W        W83979  39.854   0.919  11.388
22449W        W83980  27.118  34.533  14.347
22450W        W83981  34.465  36.362   3.266
22451W        W83982   3.914   2.326  12.556
22452W        W83983   1.835  34.404  10.936
22453W        W83984  35.499   9.205   0.914
22454W        W83985  10.171  28.949   2.375
22455W        W83986  44.967  34.580   2.762
22456W        W83987  13.260  21.680  11.518
22457W        W83988  28.607   0.291   4.780
22458W        W83989   5.379  27.531   2.669
22459W        W83990   7.291   1.782   2.724
22460W        W83991  15.800  20.750   3.338
22461W        W83992  10.677  31.970  11.599
22462W        W83993  28.149  13.799  11.478
22463W        W83994  43.479  42.863  11.954
22464W        W83995  41.530  32.895   3.173
22465W        W83996  41.813  15.108  14.812
22466W        W83997  27.670  41.308   2.898
22467W        W83998  28.493  11.329   4.626
22468W        W83999  11.312  12.841  12.041
22469W        W84000  40.911  12.237  10.447
22470W        W84001  39.447  14.710  13.471
22471W        W84002  12.763  42.032  13.443
22472W        W84003  22.746  33.875  13.964
22473W        W84004  34.105  17.717   1.288
22474W        W84005   0.954  41.989  13.416
22475W        W84006  26.069   5.239   3.320
22476W        W84007  35.365  35.377   1.829
22477W        W84008  30.039  36.007   1.217
22478W        W84009  41.879  13.611   3.744
22479W        W84010  31.150  34.406  12.339
22480W        W84011  35.894  42.477   4.327
22481W        W84012   3.399   3.896   1.824
22482W        W84013  14.630   7.742  11.441
22483W        W84014  38.939  35.866  12.828
22484W        W84015  41.414   1.851   1.829
22485W        W84016  43.917  29.089   3.172
22486W        W84017   8.354  23.706  11.953
22487W        W84018  22.223  28.181   4.217
22488W        W84019  11.702   7.812   2.883
22489W        W84020  36.368  19.744   3.265
22490W        W84021  37.870  33.888  10.529
22491W        W84022   6.315  36.865  14.480
22492W        W84023  25.150  11.832  12.907
22493W        W84024   3.434  25.048  11.995
22494W        W84025  39.360  39.337   1.311
22495W        W84026   0.858  17.686  11.530
22496W        W84027  42.484  32.894   3.700
22497W        W84028  16.610  30.517   1.904
22498W        W84029   6.801  42.312  11.953
22499W        W84030  10.199  36.441  14.375
22500W        W84031  35.968   9.774   2.702
22501W        W84032   7.846   1.795   0.841
22502W        W84033  27.012  31.074  12.355
22503W        W84034  12.278  36.553   1.260
22504W        W84035  29.930  42.444   2.777
22505W        W84036  16.236  24.641   2.867
22506W        W84037  13.752  27.189  13.510
22507W        W84038  17.630  33.420   0.789
22508W        W84039   4.446  36.484  10.415
22509W        W84040  23.110  14.135  13.328
22510W        W84041  43.448   0.853   2.340
22511W        W84042  21.263  23.230   0.380
22512W        W84043  20.049  42.815  14.475
22513W        W84044  15.805  27.679  13.890
22514W        W84045  10.142  36.040   0.760
22515W        W84046  14.791  13.805  14.369
22516W        W84047   1.910  34.880   3.825
22517W        W84048  41.795   6.705   4.603
22518W        W84049  18.123  12.726  13.363
22519W        W84050  39.056  36.508   1.917
22520W        W84051  12.724  29.636   3.853
22521W        W84052   8.794  43.469   3.823
22522W        W84053  11.682  44.439   4.160
22523W        W84054  21.602   3.438  11.958
22524W        W84055   6.288  13.644   0.328
22525W        W84056   6.190  42.998  12.355
22526W        W84057  18.229  19.180  12.085
22527W        W84058   9.224  39.380  13.014
22528W        W84059  29.598  43.928   2.722
22529W        W84060  17.731  40.445   2.375
22530W        W84061  14.276  13.685   1.210
22531W        W84062   7.281  39.446  14.291
22532W        W84063  33.015  25.049  13.447
22533W        W84064   6.420  38.993  14.759
22534W        W84065  34.967  28.577   4.600
22535W        W84066  37.837   5.231  11.901
22536W        W84067  32.406   6.377  13.443
22537W        W84068  10.687  37.968  12.426
22538W        W84069  41.985  22.120  13.017
22539W        W84070  23.084  17.697   1.754
22540W        W84071   8.212  30.485   3.817
22541W        W84072  32.397  15.142   1.798
22542W        W84073  35.073   1.237   3.369
22543W        W84074   3.287  32.468   1.788
22544W        W84075   9.749  37.574   5.217
22545W        W84076   8.838  36.065   2.901
22546W        W84077  31.579  10.685   1.932
22547W        W84078  25.048  41.471   3.362
22548W        W84079  15.717  17.292   2.365
22549W        W84080  27.453  17.727  13.479
22550W        W84081   6.691  42.846  10.555
22551W        W84082  41.878  36.554  11.046
22552W        W84083  37.998   9.858   3.233
22553W        W84084  33.543  16.596   5.241
22554W        W84085  14.110  44.796   1.715
22555W        W84086  20.768  19.620  13.805
22556W        W84087  23.684   9.802   0.456
22557W        W84088  34.020  35.893   0.249
22558W        W84089  30.025  10.823  11.477
22559W        W84090  40.946   2.828  14.461
22560W        W84091  43.475  16.152   3.246
22561W        W84092  27.627  39.556  11.478
22562W        W84093  22.098   0.845  13.355
22563W        W84094  19.608  21.558  12.014
22564W        W84095  21.586  38.022  12.067
22565W        W84096  12.200  36.523   4.792
22566W        W84097  33.890  10.213   1.912
22567W        W84098   2.791   5.826   4.300
22568W        W84099   6.861  10.697   3.632
22569W        W84100   6.720  39.897  14.986
22570W        W84101  16.243  27.657   2.847
22571W        W84102   0.336  41.885   0.786
22572W        W84103  16.717  26.084  12.826
22573W        W84104  14.791  44.342   4.714
22574W        W84105   4.874   8.374   4.809
22575W        W84106  40.848  12.262  14.769
22576W        W84107  38.464   9.286  10.495
22577W        W84108  13.776  19.079   0.862
22578W        W84109   2.352  33.068   4.638
22579W        W84110  28.492   2.892   2.237
22580W        W84111  16.650  10.733  11.530
22581W        W84112  21.520  42.984   0.479
22582W        W84113  10.381  29.468   5.162
22583W        W84114  42.811  43.798  11.118
22584W        W84115  12.652   1.334  10.109
22585W        W84116  20.169   7.686  10.621
22586W        W84117  31.154  41.514  10.624
22587W        W84118   2.959  29.955   3.852
22588W        W84119  18.583  21.538   3.310
22589W        W84120  35.100   1.954  12.490
22590W        W84121  20.143  26.473  10.528
22591W        W84122  26.479   9.194  14.329
22592W        W84123   7.254  37.377  10.500
22593W        W84124  36.422   6.680  12.948
22594W        W84125  29.583  42.480   4.297
22595W        W84126   2.342  11.161  11.469
22596W        W84127   3.407  14.250   1.826
22597W        W84128  29.587  39.002   2.367
22598W        W84129  35.999  37.575   2.264
22599W        W84130  29.934   0.884  14.284
22600W        W84131  21.232   8.193  13.793
22601W        W84132   2.357   3.217   2.245
22602W        W84133  43.432  17.236   2.781
22603W        W84134   5.233  31.557   2.327
22604W        W84135  43.766  14.710   4.621
22605W        W84136  20.556  29.625   3.631
22606W        W84137  16.580  37.519   1.764
22607W        W84138  19.603  39.930  13.459
22608W        W84139  11.172  22.583   0.338
22609W        W84140  16.081  28.161  11.102
22610W        W84141  39.975  33.388   4.732
22611W        W84142  30.161  23.229  13.016
22612W        W84143   7.773   6.214   1.896
22613W        W84144  30.014  28.132  13.328
22614W        W84145  25.521  26.523  13.858
22615W        W84146   0.919  38.009   1.297
22616W        W84147  16.715  23.124  12.055
22617W        W84148  23.124  12.163  13.964
22618W        W84149  17.276   0.950   4.229
22619W        W84150  13.757  38.413  11.582
22620W        W84151  31.897  33.487   4.633
22621W        W84152  10.314   0.383  11.450
22622W        W84153  38.885  31.510  10.997
22623W        W84154  12.156  12.751   0.319
22624W        W84155  28.597   9.223  12.365
22625W        W84156  22.578  34.084   3.656
22626W        W84157  23.599  32.961   4.718
22627W        W84158   2.904  19.141  14.419
22628W        W84159   0.868  29.175  11.514
22629W        W84160  32.902   8.859  10.519
22630W        W84161  35.107   3.400   2.679
22631W        W84162  23.622  19.277   3.239
22632W        W84163  37.929   4.287  13.819
22633W        W84164  36.404   5.297  13.832
22634W        W84165  41.899  36.982   3.638
22635W        W84166  29.564   6.266   0.334
22636W        W84167  23.716   9.880   1.352
22637W        W84168  37.869  19.192   2.388
22638W        W84169  31.459   0.864  14.432
22639W        W84170  20.742  15.577   3.213
22640W        W84171   0.385  26.024   4.233
22641W        W84172  36.377  28.136  13.468
22642W        W84173  29.167  38.485  14.924
22643W        W84174  42.356   5.421  12.036
22644W        W84175  43.916  21.222  10.925
22645W        W84176  22.133  12.131   2.344
22646W        W84177  39.515  16.663  11.414
22647W        W84178  37.489  32.956   0.769
22648W        W84179   9.835   0.390   4.132
22649W        W84180   9.739   7.219  10.540
22650W        W84181   1.800  43.834   4.800
22651W        W84182  29.531  30.599  12.928
22652W        W84183  23.602   3.856  14.484
22653W        W84184  27.145  44.754   2.794
22654W        W84185   0.412  19.143   3.378
22655W        W84186  28.111  25.631  11.946
22656W        W84187  11.703  19.550  12.024
22657W        W84188   8.768  37.338  13.444
22658W        W84189  30.484  36.045   2.395
22659W        W84190  11.334  32.932   2.275
22660W        W84191  20.058  20.601  11.074
22661W        W84192  40.027  21.087  10.922
22662W        W84193  19.676   4.369   4.611
22663W        W84194  38.558  22.139  10.587
22664W        W84195  21.065  29.559  14.423
22665W        W84196  17.609  38.014  14.023
22666W        W84197  40.321  27.635  13.010
22667W        W84198  22.039  37.503   3.176
22668W        W84199  40.939  37.520   1.422
22669W        W84200  22.117  37.050   2.885
22670W        W84201  29.459  32.142   0.954
22671W        W84202  31.579  40.396   2.793
22672W        W84203  11.367  29.932  13.356
22673W        W84204  23.535  33.474   3.769
22674W        W84205  39.424  35.598  11.470
22675W        W84206  42.962   7.757  11.408
22676W        W84207  12.136  44.356   2.673
22677W        W84208   3.837  36.069   3.193
22678W        W84209   0.793  35.889  11.479
22679W        W84210  15.219  42.291   0.795
22680W        W84211  16.647   3.415  12.568
22681W        W84212  38.469  39.351  14.389
22682W        W84213  10.206  33.493   3.225
22683W        W84214  38.381   9.876   1.790
22684W        W84215  21.593  21.077  10.464
22685W        W84216  30.004  10.823   1.794
22686W        W84217  26.018  29.134  11.544
22687W        W84218  31.008  21.564   3.805
22688W        W84219  17.265  21.116   1.335
22689W        W84220  17.663  44.999   1.765
22690W        W84221  25.141  25.164  13.418
22691W        W84222  13.331  41.928  10.980
22692W        W84223   9.834  29.936  11.608
22693W        W84224   0.289   1.380   2.277
22694W        W84225  24.532  39.510  13.431
22695W        W84226  13.700  34.075  13.481
22696W        W84227  23.185  42.986   0.391
22697W        W84228  39.369   9.224   1.442
22698W        W84229  32.990   2.249  13.036
22699W        W84230  10.237  43.835   4.795
22700W        W84231   8.260  27.610  13.376
22701W        W84232  15.742  27.625   4.212
22702W        W84233  28.069  28.127   4.823
22703W        W84234  12.163  25.707  10.617
22704W        W84235  33.607  17.069  14.958
22705W        W84236  30.621   7.206   4.354
22706W        W84237  27.569  40.931   1.288
22707W        W84238  18.707   8.901  11.868
22708W        W84239   0.369  39.449  10.461
22709W        W84240   6.295   3.716  13.003
22710W        W84241  33.470  35.967   2.252
22711W        W84242  41.882  18.289  11.995
22712W        W84243  34.038  40.922   2.797
22713W        W84244  38.067  12.140  10.039
22714W        W84245  18.189   2.779  13.314
22715W        W84246  31.106  31.075   4.238
22716W        W84247  36.946  21.187   2.345
22717W        W84248  35.565  12.342  11.436
22718W        W84249   6.204  34.450   4.266
22719W        W84250  30.636   2.361   3.293
22720W        W84251  38.847  38.880   1.699
22721W        W84252  10.160  38.942   2.197
22722W        W84253  29.025   8.374   4.241
22723W        W84254  31.919  18.771  14.514
22724W        W84255   6.777   7.709  14.025
22725W        W84256  12.149  26.600  14.411
22726W        W84257  27.477  10.219  10.437
22727W        W84258   7.823  27.670   0.386
22728W        W84259  31.625  24.657  11.567
22729W        W84260  32.972  25.181   1.902
22730W        W84261  23.498  22.678  14.762
22731W        W84262  38.931   0.851  10.439
22732W        W84263  44.864  34.399  11.608
22733W        W84264   6.409  12.192   3.691
22734W        W84265  26.008  28.159   2.705
22735W        W84266   2.461  12.349  12.094
22736W        W84267  34.044   7.798   3.867
22737W        W84268  42.379   2.916   1.261
22738W        W84269   0.905  28.036  13.533
22739W        W84270  41.296  26.492   2.301
22740W        W84271   9.222  31.472  10.423
22741W        W84272  21.158   1.390  11.865
22742W        W84273  39.461  41.388   2.679
22743W        W84274   5.297  32.079  10.490
22744W        W84275  43.996  15.597   3.218
22745W        W84276   1.945  34.009   3.675
22746W        W84277   2.306   5.416  11.488
22747W        W84278   5.214  38.931   3.227
22748W        W84279  15.101   0.747   4.781
22749W        W84280  32.552  30.425   4.631
22750W        W84281  21.207  40.887  14.772
22751W        W84282  21.039   1.251  12.857
22752W        W84283  40.995  28.067  12.378
22753W        W84284  28.508   3.236   1.433
22754W        W84285  40.852   3.750   1.729
22755W        W84286  40.480  34.458  14.924
22756W        W84287  27.648  37.898   2.855
22757W        W84288  40.370  23.086   2.233
22758W        W84289  42.831  35.604   2.883
22759W        W84290   6.318  25.543   1.859
22760W        W84291  16.173   9.301   3.845
22761W        W84292  38.862  14.745  13.915
22762W        W84293  39.835  43.294  12.883
22763W        W84294   5.385  22.728  10.086
22764W        W84295  12.195  38.422   1.867
22765W        W84296  21.135  28.464   4.164
22766W        W84297  31.468  11.758  11.571
22767W        W84298  39.480   6.846   1.266
22768W        W84299   9.151   1.453  12.502
22769W        W84300  11.304  36.062   0.766
22770W        W84301  41.434  19.046   4.129
22771W        W84302  23.217  25.614  13.791
22772W        W84303  21.611   8.252  13.530
22773W        W84304   9.359  22.638  14.391
22774W        W84305  40.547  42.907  12.358
22775W        W84306  27.961  43.919   4.235
22776W        W84307   4.311   9.652   3.159
22777W        W84308  28.940  23.543  14.864
22778W        W84309  44.496   0.455   0.434
22779W        W84310   4.431   1.460  12.995
22780W        W84311  30.529  23.076   1.764
22781W        W84312  29.545  14.796  11.397
22782W        W84313   0.851   1.238  11.611
22783W        W84314  14.196  42.517  13.417
22784W        W84315  16.143   3.780   0.933
22785W        W84316  42.990  34.980  11.908
22786W        W84317  15.312  34.086   2.256
22787W        W84318  42.299   8.743   1.779
22788W        W84319  40.378  37.536  10.931
22789W        W84320  30.414  41.397   0.748
22790W        W84321  41.313  25.653  14.489
22791W        W84322  34.565  10.694  13.034
22792W        W84323  32.550  30.650  11.029
22793W        W84324  17.767  38.981  13.528
22794W        W84325  41.035  34.936  10.888
22795W        W84326  10.695  35.555  13.319
22796W        W84327  33.918   7.250   2.679
22797W        W84328  32.456   1.883   1.898
22798W        W84329  26.963  14.700  14.500
22799W        W84330  21.092  43.414  13.927
22800W        W84331  40.398  10.297   0.952
22801W        W84332  44.369  27.088   1.869
22802W        W84333  11.252  13.189  12.914
22803W        W84334  33.112  34.994  12.402
22804W        W84335  18.709  38.023  13.051
22805W        W84336  42.865  30.923  11.088
22806W        W84337  10.717  34.100   1.336
22807W        W84338  29.529  28.527  14.786
22808W        W84339   5.407  31.952   4.680
22809W        W84340   3.765   8.196  10.483
22810W        W84341  23.229   0.450   1.735
22811W        W84342  18.087  22.191  12.086
22812W        W84343   1.242   3.767  10.996
22813W        W84344  42.885  23.085   4.684
22814W        W84345  14.734  44.930   2.702
22815W        W84346  12.835   3.899  13.496
22816W        W84347   8.828  18.767  14.295
22817W        W84348  19.151  13.250  13.467
22818W        W84349   5.730  34.071  13.414
22819W        W84350   6.680  13.647   2.805
22820W        W84351  19.166  10.807   4.342
22821W        W84352  12.749  17.796   0.482
22822W        W84353  19.198  13.702   3.792
22823W        W84354  23.130  15.663   2.257
22824W        W84355  20.737  44.887  14.354
22825W        W84356  10.309   8.172  13.384
22826W        W84357  42.815   9.869  11.545
22827W        W84358  32.943  28.036   3.655
22828W        W84359   5.835  34.080   2.218
22829W        W84360  40.441  26.124  12.016
22830W        W84361  26.483  35.873   4.761
22831W        W84362  17.667  24.595   3.163
22832W        W84363  25.068  39.972   3.194
22833W        W84364  19.048  32.472  13.529
22834W        W84365  28.449  41.828   3.222
22835W        W84366  30.446   4.909   3.638
22836W        W84367  42.300  44.273  10.436
22837W        W84368   7.307  44.981  14.469
22838W        W84369   5.264  13.293  12.555
22839W        W84370  10.852   9.878   3.860
22840W        W84371   0.826  28.639  11.606
22841W        W84372  24.120  10.305   0.459
22842W        W84373  22.128   9.358   4.633
22843W        W84374   4.828  30.924  13.508
22844W        W84375   3.434  43.393   3.196
22845W        W84376  31.642  14.664  11.427
22846W        W84377   8.279  38.935  12.429
22847W        W84378  40.973  33.425  14.493
22848W        W84379  31.579   4.853   4.652
22849W        W84380  42.809  14.630  14.019
22850W        W84381  37.038   8.880  12.994
22851W        W84382  33.074  42.365   1.340
22852W        W84383  17.178  30.473   1.372
22853W        W84384   2.883  16.779   0.882
22854W        W84385  15.753  26.650   4.757
22855W        W84386   3.917  44.800   2.837
22856W        W84387  18.665   0.437  14.355
22857W        W84388  20.048  22.253  13.506
22858W        W84389  31.531  39.497   3.257
22859W        W84390   5.302  22.078  12.969
22860W        W84391  17.771   0.318  14.798
22861W        W84392   1.768  10.779   1.913
22862W        W84393  38.540  23.074  12.420
22863W        W84394  21.591   0.344   4.643
22864W        W84395  27.062  29.548   0.900
22865W        W84396  22.058  10.655   2.193
22866W        W84397  43.427  32.588   4.149
22867W        W84398  35.966  43.884  12.835
22868W        W84399  17.096  34.434  10.551
22869W        W84400  28.633  44.882  11.108
22870W        W84401  37.023  29.547   4.669
22871W        W84402  37.940   0.460  14.334
22872W        W84403  23.626  19.592  10.420
22873W        W84404  29.142  14.321  12.452
22874W        W84405  33.548  24.162   4.123
22875W        W84406   7.346  13.343   0.273
22876W        W84407   0.830  28.487   2.711
22877W        W84408  35.943   6.718  14.969
22878W        W84409  21.028  22.041  12.404
22879W        W84410   8.714  18.123   4.678
22880W        W84411  27.972  34.115   0.749
22881W        W84412  37.547  27.471   4.726
22882W        W84413  31.485  43.480   0.371
22883W        W84414   2.301  22.167   1.771
22884W        W84415  32.534  24.506  12.969
22885W        W84416  39.492  28.029  12.555
22886W        W84417  23.998   3.874   2.719
22887W        W84418  37.893  26.037  13.030
22888W        W84419  36.369  28.549   4.232
22889W        W84420   0.982  27.156   4.790
22890W        W84421  44.277  21.745   0.358
22891W        W84422   8.214  34.482   2.673
22892W        W84423  15.092  16.663  13.342
22893W        W84424  33.091  43.978  14.315
22894W        W84425  40.002  27.042   0.949
22895W        W84426  17.772  36.916   3.300
22896W        W84427  36.013  39.383   4.632
22897W        W84428  12.199   4.878  11.439
22898W        W84429   7.203  20.156  14.349
22899W        W84430  16.782   1.970   4.652
22900W        W84431  10.326  22.745   4.325
22901W        W84432  40.427   8.780  13.410
22902W        W84433  37.878  23.508  10.570
22903W        W84434  16.684  25.630  14.774
22904W        W84435   1.745   5.886   3.854
22905W        W84436  11.743  43.926  12.543
22906W        W84437  38.956   2.899  10.547
22907W        W84438  28.082  38.976  13.018
22908W        W84439  43.418  28.659  11.090
22909W        W84440   3.237  11.339  13.856
22910W        W84441  36.432  42.522  10.542
22911W        W84442   7.248  27.561   1.877
22912W        W84443  27.455  43.410   3.716
22913W        W84444   9.716  27.101  10.893
22914W        W84445  34.864  23.677   2.823
22915W        W84446   3.237  24.588  14.394
22916W        W84447  41.346  11.156  10.404
22917W        W84448   7.901  20.062  11.962
22918W        W84449  15.715  20.178  13.347
22919W        W84450   4.242  34.534  11.939
22920W        W84451  37.411  31.038  14.900
22921W        W84452   6.901  11.734  12.046
22922W        W84453  25.064   6.791  13.939
22923W        W84454  29.029  39.826  10.569
22924W        W84455  42.835  16.614   1.785
22925W        W84456  24.482  43.873   1.759
22926W        W84457   4.775  33.917   1.708
22927W        W84458  26.561  41.299  10.100
22928W        W84459   7.326  10.682  14.378
22929W        W84460   7.380  38.987  13.310
22930W        W84461   7.911   8.387   1.892
22931W        W84462  12.195   3.285   2.881
22932W        W84463  23.117  39.555   0.926
22933W        W84464   2.428  35.583  10.542
22934W        W84465  39.928  34.511   1.345
22935W        W84466  23.504  29.992  13.868
22936W        W84467  23.056  44.319  12.902
22937W        W84468  31.636  29.020  11.474
22938W        W84469  34.108   1.956   5.175
22939W        W84470  43.807  10.328  13.899
22940W        W84471  32.543   8.244   1.380
22941W        W84472  31.541  14.757  10.968
22942W        W84473  25.178  26.080   3.255
22943W        W84474  27.040  24.072  10.472
22944W        W84475  13.323  25.177   3.208
22945W        W84476  25.637  27.562  10.602
22946W        W84477  14.169  35.017   3.183
22947W        W84478  28.594  16.123   2.412
22948W        W84479  31.956  32.013   0.906
22949W        W84480   9.393  40.820   3.778
22950W        W84481   0.460  19.175  11.107
22951W        W84482   1.264   9.259  11.538
22952W        W84483  41.814  20.541   2.320
22953W        W84484   0.930  21.141   0.459
22954W        W84485  33.006  37.448  10.509
22955W        W84486  34.886  39.840  10.572
22956W        W84487  38.522  40.965   2.821
22957W        W84488  10.149  33.519   0.902
22958W        W84489  26.123   8.311  14.472
22959W        W84490  22.580  39.346  14.469
22960W        W84491  16.600  23.060  12.551
22961W        W84492  36.925  20.554  13.861
22962W        W84493  21.241   1.344   2.229
22963W        W84494  17.214  27.119  11.129
22964W        W84495  12.140  21.086   3.258
22965W        W84496   9.710   6.903   0.394
22966W        W84497   2.378  31.536  14.798
22967W        W84498  41.335  32.982   2.888
22968W        W84499  11.309   8.372  11.015
22969W        W84500  39.340   1.804   0.828
22970W        W84501  21.106  11.296   1.390
22971W        W84502  30.103  34.948  14.833
22972W        W84503  19.104   8.721   0.853
22973W        W84504  26.693  35.958   1.262
22974W        W84505  23.116  43.360   2.707
22975W        W84506   0.760  25.053  11.532
22976W        W84507  11.773   2.829   0.952
22977W        W84508  24.611  17.170  14.467
22978W        W84509  35.510  39.408  11.927
22979W        W84510   6.682  44.913   2.846
22980W        W84511  21.248   4.289   0.833
22981W        W84512  25.570  36.845  11.065
22982W        W84513  40.373  21.124   4.771
22983W        W84514  21.610  43.961  13.347
22984W        W84515  18.063   1.928  12.351
22985W        W84516  24.214   1.825   0.440
22986W        W84517  44.907   6.358  10.945
22987W        W84518  41.867  28.949   4.304
22988W        W84519  43.881   0.920   1.448
22989W        W84520  28.669  20.062   0.443
22990W        W84521  43.387  32.951  11.467
22991W        W84522  30.497   0.414  12.511
22992W        W84523  39.434  21.236  12.930
22993W        W84524  43.283  27.527   3.635
22994W        W84525  31.964  33.456  13.889
22995W        W84526  38.897   8.820  11.899
22996W        W84527  24.649  21.154   0.414
22997W        W84528   0.283  22.641   1.744
22998W        W84529  37.839  30.082   3.257
22999W        W84530  39.818  15.670   2.735
23000W        W84531  33.068  29.030   0.435
23001W        W84532   1.878  10.360  10.507
23002W        W84533  12.286   1.243  13.024
23003W        W84534   9.881  41.513  13.406
23004W        W84535  27.556  42.868  10.578
23005W        W84536  23.011  37.875   3.858
23006W        W84537  23.614  19.243  14.986
23007W        W84538   2.866  41.535   2.248
23008W        W84539  19.185  13.640   4.164
23009W        W84540  31.942  14.728   0.832
23010W        W84541  44.864  32.041  14.913
23011W        W84542  24.558  23.502  14.788
23012W        W84543   9.226  25.180  10.459
23013W        W84544  28.965   9.157  10.135
23014W        W84545  25.213  19.139   3.206
23015W        W84546  10.213  41.434   2.822
23016W        W84547  14.591   4.267   0.431
23017W        W84548  15.184  25.139   4.787
23018W        W84549  41.870  35.390   1.782
23019W        W84550  32.544  32.945  11.612
23020W        W84551  17.666  16.160   4.748
23021W        W84552  43.427  33.030   2.248
23022W        W84553  24.201  16.243  10.987
23023W        W84554  42.789  40.530   3.343
23024W        W84555  17.144  21.555   0.780
23025W        W84556   9.815  22.508   4.827
23026W        W84557  18.561  25.067   2.724
23027W        W84558   6.418  12.212   0.732
23028W        W84559   3.287  42.393   1.848
23029W        W84560   9.848  21.083  14.883
23030W        W84561   3.847  11.136   0.296
23031W        W84562  27.567   1.361  13.326
23032W        W84563  33.448  20.105   0.419
23033W        W84564   1.268  15.684  13.961
23034W        W84565  20.623  21.116  10.906
23035W        W84566   3.784  38.479   1.817
23036W        W84567  35.999  26.556   1.293
23037W        W84568  43.846  17.632   4.342
23038W        W84569  42.983  40.799   2.673
23039W        W84570  20.191  25.636  12.480
23040W        W84571  17.077   3.273  10.922
23041W        W84572   0.858  40.859   2.190
23042W        W84573  14.117  39.386   1.755
23043W        W84574  44.486  36.063  14.896
23044W        W84575  39.986  14.747  12.480
23045W        W84576  13.794   9.861   2.218
23046W        W84577  10.326   6.764  13.474
23047W        W84578  22.531  43.800   0.728
23048W        W84579  33.609  23.724  13.994
23049W        W84580  30.052  21.028   3.715
23050W        W84581  34.985  41.449   3.774
23051W        W84582   9.340  36.452   1.885
23052W        W84583  34.459  11.252  10.955
23053W        W84584  11.178  20.741  11.127
23054W        W84585  37.082  41.394   2.900
23055W        W84586   6.183  31.930   4.210
23056W        W84587  34.542  15.279   1.317
23057W        W84588   5.868  25.578  10.068
23058W        W84589  35.928  38.461   2.316
23059W        W84590  41.889  32.617   1.227
23060W        W84591  17.093  34.034   0.817
23061W        W84592  41.396  20.203  11.923
23062W        W84593  27.990  27.945   3.261
23063W        W84594  15.655  38.054   2.186
23064W        W84595  25.001  32.928  13.401
23065W        W84596  10.738  22.578   4.807
23066W        W84597  37.965  43.948   1.791
23067W        W84598  42.296  26.686  14.378
23068W        W84599  40.497  39.022  13.408
23069W        W84600  22.022  41.370   2.809
23070W        W84601  27.094  11.642   2.223
23071W        W84602   0.926  15.624  10.094
23072W        W84603  20.150  10.225  13.999
23073W        W84604   7.305  38.893  12.465
23074W        W84605   0.279  24.682   0.379
23075W        W84606  18.707   4.350  12.387
23076W        W84607  10.647   5.929   4.748
23077W        W84608  19.721  36.417   5.271
23078W        W84609  35.534  18.574  10.465
23079W        W84610  39.885  16.810   2.668
23080W        W84611  27.992  41.886  12.853
23081W        W84612   5.754   1.363   2.777
23082W        W84613   7.875  16.767  11.941
23083W        W84614   1.795  24.483  13.794
23084W        W84615  20.560  12.147   0.788
23085W        W84616  43.821  35.093  14.365
23086W        W84617   0.766   5.817   3.222
23087W        W84618  11.268  36.371  11.944
23088W        W84619  12.801  24.012  13.343
23089W        W84620  39.485   3.438  13.503
23090W        W84621  20.680  31.930  14.825
23091W        W84622  16.721  24.630   0.866
23092W        W84623  42.428  39.474   0.876
23093W        W84624  23.097   1.775   0.830
23094W        W84625  19.263  10.827  10.458
23095W        W84626  26.631   7.366  11.452
23096W        W84627  35.578  23.696  11.442
23097W        W84628  33.426  13.290   5.086
23098W        W84629  18.254   7.267  11.607
23099W        W84630  11.868   2.417  13.340
23100W        W84631  21.527  14.722  12.410
23101W        W84632  39.922   3.259  10.499
23102W        W84633  29.060   6.771   1.234
23103W        W84634  27.112  41.446  12.484
23104W        W84635  35.377  11.804   1.296
23105W        W84636   1.919  21.728   4.327
23106W        W84637  19.653  21.661   4.270
23107W        W84638   8.160  28.081  13.441
23108W        W84639  31.605   6.299   3.320
23109W        W84640  41.880  15.784   0.828
23110W        W84641  12.625  32.094  14.771
23111W        W84642  11.315  42.510  13.863
23112W        W84643  23.515  42.292   4.243
23113W        W84644  40.900  30.513  12.965
23114W        W84645   0.470  27.170  12.508
23115W        W84646   4.407   0.394  12.411
23116W        W84647  12.259  28.970   3.756
23117W        W84648  14.208  35.510   4.350
23118W        W84649   7.872  31.138   1.826
23119W        W84650   0.892  25.198   4.282
23120W        W84651  10.736  25.660   1.287
23121W        W84652   4.341  40.987  10.464
23122W        W84653  27.597  11.789  11.962
23123W        W84654   7.879  40.409   3.655
23124W        W84655  40.983  40.913  13.387
23125W        W84656  29.464  40.934  12.992
23126W        W84657  33.470  14.794   5.645
23127W        W84658  14.325  43.414   3.240
23128W        W84659   2.420  15.633   5.252
23129W        W84660  44.319  17.128   3.735
23130W        W84661   7.709  39.878  13.944
23131W        W84662  26.622   1.831  12.067
23132W        W84663  30.450  23.720   2.743
23133W        W84664  14.760   2.396   4.616
23134W        W84665  44.924   2.226   4.730
23135W        W84666  40.874  38.017  10.907
23136W        W84667  44.293  40.339   3.248
23137W        W84668  14.678  44.457  13.443
23138W        W84669  28.102  19.711  12.093
23139W        W84670   0.869   0.418   3.759
23140W        W84671  41.516  26.986  14.500
23141W        W84672  15.325  23.681   2.255
23142W        W84673  30.059  17.798  12.997
23143W        W84674  12.358  10.745  14.394
23144W        W84675   7.747  23.507   3.814
23145W        W84676  19.055  37.393  11.379
23146W        W84677  30.423  13.198   3.751
23147W        W84678  25.480  20.661  13.792
23148W        W84679  41.499  23.081  10.515
23149W        W84680   4.759  39.919   2.879
23150W        W84681  18.155  26.120   5.726
23151W        W84682  38.896  40.382   2.230
23152W        W84683  10.207   7.835  14.796
23153W        W84684  33.021   0.852   2.811
23154W        W84685  44.841  16.700   0.420
23155W        W84686  17.560  24.598  14.379
23156W        W84687  35.033  28.567  11.953
23157W        W84688  32.986  15.325  11.461
23158W        W84689  15.305  26.505  11.878
23159W        W84690  30.131  14.827   2.788
23160W        W84691  38.897  29.970  14.830
23161W        W84692  37.411  44.289  10.494
23162W        W84693   0.335  12.155  11.996
23163W        W84694  27.617   3.778  14.282
23164W        W84695  21.168  29.458   0.777
23165W        W84696  13.155  42.947  12.449
23166W        W84697   2.455  27.643  11.977
23167W        W84698   4.736  16.616  12.827
23168W        W84699  26.474  13.630   0.875
23169W        W84700  34.904   1.458   0.759
23170W        W84701  15.177   2.335   0.339
23171W        W84702  12.119  30.508   1.768
23172W        W84703  30.143  28.955   1.874
23173W        W84704  31.559  11.325   2.191
23174W        W84705  19.271  25.165  10.636
23175W        W84706  26.530  33.526   5.150
23176W        W84707  11.716  17.753  10.599
23177W        W84708   5.273  17.170   0.250
23178W        W84709  18.290  11.717  10.933
23179W        W84710   4.377   4.715   3.296
23180W        W84711  12.328  23.164   2.379
23181W        W84712  13.843  27.688   3.717
23182W        W84713  22.703  44.359   3.717
23183W        W84714   9.676  38.361   1.841
23184W        W84715   3.849  35.017  10.548
23185W        W84716  34.983  35.395   0.804
23186W        W84717  20.710  31.438   4.302
23187W        W84718  16.280  40.885   1.849
23188W        W84719  30.009  26.189  11.412
23189W        W84720  24.018  17.154  13.058
23190W        W84721  38.460  16.274   3.240
23191W        W84722  13.827  38.875   1.450
23192W        W84723   3.732  22.237  14.461
23193W        W84724  41.486  24.220   1.923
23194W        W84725   4.859  22.614   1.770
23195W        W84726  30.638   4.698   4.260
23196W        W84727  10.343   1.909  10.445
23197W        W84728   2.888  43.790  14.806
23198W        W84729  34.416  23.496  14.870
23199W        W84730  35.000   8.836   3.252
23200W        W84731  40.999  14.619  11.412
23201W        W84732   6.347  34.981  11.508
23202W        W84733  33.986  13.137   0.931
23203W        W84734  13.321  38.330  10.473
23204W        W84735  22.204   9.690   0.749
23205W        W84736  27.567  41.794   1.295
23206W        W84737   5.932  17.110  13.350
23207W        W84738  12.846  31.143   2.187
23208W        W84739  42.814  21.617   0.871
23209W        W84740  18.067  23.045   4.720
23210W        W84741  16.267  33.922   3.379
23211W        W84742  41.356  36.354  13.498
23212W        W84743  22.618   3.797  12.511
23213W        W84744  13.770  36.385   1.224
23214W        W84745  37.840  36.388  13.443
23215W        W84746  19.732  13.266   0.263
23216W        W84747  16.271  30.511   5.081
23217W        W84748  11.254  31.408   3.719
23218W        W84749  31.593  34.019   2.361
23219W        W84750  14.125  23.507   0.473
23220W        W84751  11.326  30.545   4.675
23221W        W84752   4.425  10.147   3.368
23222W        W84753  40.490  31.928   1.355
23223W        W84754  12.797  38.377   3.194
23224W        W84755   5.394  10.380  10.472
23225W        W84756  14.112   2.748   4.215
23226W        W84757  17.127  44.896   2.694
23227W        W84758  41.977  31.062  11.991
23228W        W84759  28.566   2.407  14.839
23229W        W84760   3.336  41.988  13.507
23230W        W84761  11.749  29.981   2.667
23231W        W84762   5.784  17.769   3.736
23232W        W84763  11.703  23.015   0.436
23233W        W84764  10.362   3.356   0.313
23234W        W84765  36.019  23.201  14.455
23235W        W84766  38.551  10.863  10.004
23236W        W84767  35.511  44.967  11.454
23237W        W84768  23.078  15.309  11.378
23238W        W84769   7.280  31.074  11.607
23239W        W84770  40.818  23.535  13.007
23240W        W84771  23.225   5.233  13.931
23241W        W84772  15.124  18.057  14.344
23242W        W84773  23.690  23.670  11.089
23243W        W84774  17.699  38.907   4.833
23244W        W84775  34.500  14.732  11.072
23245W        W84776  30.069  30.060  13.434
23246W        W84777   2.966   3.770  12.825
23247W        W84778  10.239   3.887   1.814
23248W        W84779   6.750  19.161   3.277
23249W        W84780  44.939   1.307   0.275
23250W        W84781   4.232   6.256   1.824
23251W        W84782  34.386  41.535  12.389
23252W        W84783  38.384  41.460  11.975
23253W        W84784   5.423   1.419   1.854
23254W        W84785  38.932  44.802  10.897
23255W        W84786  33.003  43.438  12.395
23256W        W84787   2.913  33.112   0.786
23257W        W84788   0.288  17.720  10.893
23258W        W84789  22.239  33.619   3.347
23259W        W84790   0.381   8.279   3.193
23260W        W84791  29.445  37.054  14.323
23261W        W84792   4.709  23.564   5.116
23262W        W84793  11.332  35.855  11.911
23263W        W84794  26.057  30.088  14.958
23264W        W84795   9.354  10.720   3.823
23265W        W84796  34.064   6.790   1.216
23266W        W84797   5.397  34.425  10.934
23267W        W84798  10.783  28.499   1.357
23268W        W84799  26.028   3.712   4.721
23269W        W84800  35.915   1.304  11.397
23270W        W84801  42.421   8.793   5.196
23271W        W84802  27.973  36.059   1.812
23272W        W84803  31.586  12.689   0.786
23273W        W84804   0.916   8.881  11.875
23274W        W84805   2.737  19.208   2.752
23275W        W84806  35.903  44.306   3.163
23276W        W84807   2.281  38.071  14.013
23277W        W84808   6.250  13.338  14.791
23278W        W84809   7.795  18.672   4.615
23279W        W84810  28.601  38.533   3.293
23280W        W84811  10.723   7.345   4.342
23281W        W84812  12.199  38.927  11.486
23282W        W84813   5.332  18.574   0.801
23283W        W84814  18.659  19.605   4.354
23284W        W84815   3.403  41.340  10.984
23285W        W84816  29.135  30.628   0.878
23286W        W84817  33.906  31.477  14.929
23287W        W84818   4.713  38.850   2.268
23288W        W84819   6.811   5.233   1.378
23289W        W84820  13.832  11.867   1.354
23290W        W84821   3.255  11.801   4.323
23291W        W84822  17.109  26.602   2.310
23292W        W84823  43.329  24.587   2.311
23293W        W84824   8.307   5.769  12.002
23294W        W84825  36.035   6.681  11.103
23295W        W84826   5.315  25.557  10.944
23296W        W84827  23.697   0.755   3.681
23297W        W84828  36.592   4.759   3.155
23298W        W84829  18.709  30.575  14.287
23299W        W84830   5.432  30.558  11.950
23300W        W84831  37.039  43.816  14.759
23301W        W84832   1.414   8.280  14.887
23302W        W84833  39.488  35.529  11.878
23303W        W84834  13.278  34.064   4.303
23304W        W84835  27.503  26.179   3.167
23305W        W84836  18.668  29.601  14.428
23306W        W84837  19.195  42.845   4.274
23307W        W84838  10.652   6.724  10.975
23308W        W84839  34.389  21.028   3.642
23309W        W84840  39.873  19.103   2.415
23310W        W84841  33.455  40.338   0.423
23311W        W84842  44.995  11.330   0.834
23312W        W84843  34.895  13.196  14.776
23313W        W84844  30.631  13.245   3.369
23314W        W84845  20.725  24.577   1.824
23315W        W84846  10.257  15.731   3.706
23316W        W84847  27.641  12.711   4.299
23317W        W84848   2.314  37.947   3.761
23318W        W84849  16.674   7.183  10.622
23319W        W84850  17.297  38.534   4.814
23320W        W84851  29.526  42.013   4.148
23321W        W84852  23.607   6.909   2.316
23322W        W84853  27.512  24.686   4.298
23323W        W84854  11.216  43.379   4.145
23324W        W84855  23.689  24.177   1.326
23325W        W84856   8.368  41.890  13.355
23326W        W84857   3.449  35.448   1.746
23327W        W84858  26.094  15.114   1.850
23328W        W84859   7.828  44.994  12.357
23329W        W84860   9.758  19.227  13.809
23330W        W84861   3.830  12.160  13.820
23331W        W84862  20.177  10.232  10.070
23332W        W84863  20.037  25.712   3.268
23333W        W84864  21.550  42.969  14.879
23334W        W84865  15.085  35.489   0.252
23335W        W84866  17.692  36.901   0.438
23336W        W84867  25.637  14.732   0.947
23337W        W84868  44.988  29.040   3.322
23338W        W84869  35.532   5.285  14.901
23339W        W84870   8.203   6.366   2.320
23340W        W84871   5.236  34.933  14.415
23341W        W84872  27.628  43.338  13.411
23342W        W84873   9.188  41.456   4.338
23343W        W84874   8.375  44.456  14.436
23344W        W84875   7.367   2.433  10.511
23345W        W84876  39.367  13.337  11.443
23346W        W84877   9.188   8.709  10.524
23347W        W84878   8.296  44.795  13.433
23348W        W84879  24.093  20.676  14.502
23349W        W84880  19.222  21.684   2.833
23350W        W84881  11.699  25.554   0.888
23351W        W84882  40.411  29.138  10.056
23352W        W84883  26.080   4.389  14.325
23353W        W84884  18.791  15.164   2.359
23354W        W84885  27.048  14.245   1.724
23355W        W84886  27.624   5.285   4.784
23356W        W84887  38.067  33.054   1.247
23357W        W84888  34.421  31.403  12.435
23358W        W84889   1.292  22.151   2.380
23359W        W84890   6.794  44.991  11.577
23360W        W84891  17.190  40.546   1.289
23361W        W84892  33.428  44.867  13.353
23362W        W84893  26.540  30.931  11.511
23363W        W84894  30.435  19.777   5.277
23364W        W84895  16.285  34.915  14.351
23365W        W84896  34.871  26.669  14.807
23366W        W84897  29.428  13.832   1.375
23367W        W84898  20.107   6.682   3.330
23368W        W84899  21.065  30.507   2.667
23369W        W84900  15.258  41.474   0.843
23370W        W84901  18.670  11.175   3.354
23371W        W84902   2.757  17.294   1.344
23372W        W84903  32.921  13.780   5.639
23373W        W84904  38.991  36.508   0.833
23374W        W84905   5.927  25.518   0.942
23375W        W84906  19.629  38.535  12.456
23376W        W84907   3.237   2.225  14.776
23377W        W84908  22.625  32.082  11.422
23378W        W84909  38.029  36.475   0.854
23379W        W84910  17.243  30.016   0.881
23380W        W84911  25.118  19.124  14.890
23381W        W84912  37.396  43.303   5.154
23382W        W84913   7.742  33.617   2.270
23383W        W84914  23.093  36.002   1.226
23384W        W84915  32.071  10.775  10.559
23385W        W84916  22.557  25.468  12.512
23386W        W84917  18.780  14.205  10.417
23387W        W84918  30.636   7.197   1.921
23388W        W84919  12.121   3.883  14.793
23389W        W84920  29.448  42.889   0.253
23390W        W84921  27.013  19.147   4.609
23391W        W84922  32.074   4.271  10.951
23392W        W84923   4.806  44.283  12.402
23393W        W84924  30.441  17.193  10.600
23394W        W84925  39.858  42.469  14.932
23395W        W84926   9.394  10.650  11.098
23396W        W84927  34.387   8.185  10.893
23397W        W84928   9.822  24.642   3.853
23398W        W84929  18.689  33.078   1.212
23399W        W84930  15.255   2.861  11.482
23400W        W84931  16.114  20.090  12.931
23401W        W84932  26.661  13.680  11.969
23402W        W84933   6.421  41.461  10.970
23403W        W84934  10.340   0.838   2.393
23404W        W84935  33.975  10.721   2.265
23405W        W84936  32.110   2.321   0.389
23406W        W84937  40.393  33.503   1.419
23407W        W84938  34.440  36.418   0.440
23408W        W84939  40.353   3.903   3.241
23409W        W84940   2.806  40.403  12.533
23410W        W84941  22.676  28.621   4.116
23411W        W84942  12.744   7.335  12.909
23412W        W84943  43.446  25.606  13.332
23413W        W84944  40.476  39.907   0.395
23414W        W84945  28.589  24.643   1.734
23415W        W84946  25.478  15.586  14.415
23416W        W84947  24.222  40.005   1.747
23417W        W84948  27.167  27.515  11.491
23418W        W84949  22.523  12.248  12.946
23419W        W84950   4.216  13.709   3.715
23420W        W84951   1.355  32.463   4.690
23421W        W84952  33.502  43.780  12.914
23422W        W84953  20.249  30.926  10.596
23423W        W84954  33.603  40.971   0.827
23424W        W84955  41.905  44.371   2.288
23425W        W84956  32.915  33.601  11.500
23426W        W84957  28.071   1.308   2.315
23427W        W84958  34.557  41.854   9.659
23428W        W84959   2.366  41.315   5.309
23429W        W84960  37.915  34.077  13.912
23430W        W84961   8.343  34.519  11.411
23431W        W84962  29.592   5.342  12.368
23432W        W84963  21.119  40.426   3.192
23433W        W84964  24.698  26.579  14.959
23434W        W84965  21.089   0.492  12.937
23435W        W84966  17.610  21.574   3.693
23436W        W84967  11.329  24.632  14.291
23437W        W84968  38.959  42.436  11.417
23438W        W84969   8.316  26.554  12.524
23439W        W84970  44.795  19.151  14.903
23440W        W84971  19.196  19.594   1.713
23441W        W84972  37.932  26.044   2.781
23442W        W84973  23.039   2.346   0.439
23443W        W84974  24.522  35.598  14.877
23444W        W84975  29.036  36.916   2.207
23445W        W84976  22.080  24.163  13.379
23446W        W84977  34.910  30.140   2.893
23447W        W84978   1.793  43.324  14.979
23448W        W84979  29.468   0.934   4.675
23449W        W84980   4.904  16.635   2.181
23450W        W84981  33.025  42.400  10.456
23451W        W84982  25.684  11.266  10.595
23452W        W84983   9.738  42.777  13.018
23453W        W84984  37.027  22.641   3.307
23454W        W84985  29.566  38.570   1.807
23455W        W84986  34.072   1.295   1.405
23456W        W84987   7.250  18.063   2.340
23457W        W84988  12.127  31.542   3.645
23458W        W84989  39.542   2.860   3.259
23459W        W84990   9.154   3.220  14.865
23460W        W84991  32.076  24.057  11.420
23461W        W84992  15.144  32.522  12.041
23462W        W84993  28.537  43.398   4.836
23463W        W84994  20.675   3.290  13.913
23464W        W84995  39.982  18.738   1.712
23465W        W84996  44.408  32.395   3.353
23466W        W84997  16.797  22.698  13.901
23467W        W84998   0.750  23.516  11.933
23468W        W84999   2.268   0.753  11.923
23469W        W85000  34.581  43.829  12.086
23470W        W85001  40.011  37.581   1.826
23471W        W85002   9.725  43.476   3.756
23472W        W85003  14.123  21.032  13.830
23473W        W85004  30.152  10.264  12.384
23474W        W85005  37.520   5.264  12.926
23475W        W85006   2.807  29.167  12.529
23476W        W85007   4.836   0.394  13.055
23477W        W85008   8.897  29.465   3.282
23478W        W85009  28.448  21.581   3.280
23479W        W85010  36.067   0.896  10.597
23480W        W85011   3.857  33.054   2.271
23481W        W85012  14.785  30.545  14.928
23482W        W85013  23.013  12.711   4.320
23483W        W85014  17.742  24.025   1.334
23484W        W85015  28.444  19.700   2.774
23485W        W85016  39.496  41.471  12.463
23486W        W85017  13.116  27.670  13.034
23487W        W85018  14.283  11.303   3.632
23488W        W85019  44.311  30.089  10.910
23489W        W85020  19.103   9.379  12.866
23490W        W85021  35.063  16.147   3.243
23491W        W85022  34.595  10.644  14.428
23492W        W85023  32.417   8.381  10.024
23493W        W85024  33.956  10.337   3.691
23494W        W85025  35.379  42.336  10.541
23495W        W85026   3.892  31.999   5.178
23496W        W85027  15.748  33.484  12.868
23497W        W85028  30.021  43.005  12.010
23498W        W85029  14.294  34.409   1.273
23499W        W85030  19.261  25.555  10.892
23500W        W85031   8.176  35.062  14.878
23501W        W85032   5.242   3.366   4.708
23502W        W85033  28.592   1.915  12.536
23503W        W85034  37.571  20.156   0.889
23504W        W85035  11.165  30.515  13.008
23505W        W85036  18.548  41.336  13.914
23506W        W85037  28.973   9.363  13.893
23507W        W85038  24.107  21.722  12.431
23508W        W85039  41.536   4.288   0.946
23509W        W85040  35.953  16.675  13.902
23510W        W85041  18.197  16.676  11.549
23511W        W85042  21.583  15.292   3.737
23512W        W85043  41.830  27.127   4.703
23513W        W85044  42.794  10.205   5.130
23514W        W85045  41.351  11.349   2.238
23515W        W85046  40.528  44.462  10.587
23516W        W85047  39.030  26.465  12.830
23517W        W85048  33.118  27.174   4.694
23518W        W85049   0.949  12.268   4.281
23519W        W85050   3.356  42.448  14.878
23520W        W85051  19.234  33.902   3.350
23521W        W85052   9.760  30.994   1.779
23522W        W85053  17.218  25.970  12.418
23523W        W85054  43.924   5.758   3.385
23524W        W85055  35.432   2.800  14.384
23525W        W85056  40.517   3.923  14.773
23526W        W85057   6.832  24.988  10.625
23527W        W85058  40.506   6.869   0.865
23528W        W85059   2.442   7.739   2.852
23529W        W85060  29.642   2.233  14.009
23530W        W85061  13.315  23.597   3.809
23531W        W85062   4.740  10.333   4.729
23532W        W85063  16.709  12.119   0.255
23533W        W85064  24.573  29.038  10.544
23534W        W85065  42.891  36.402  14.840
23535W        W85066  26.570  14.180   2.223
23536W        W85067  29.171  25.636   1.761
23537W        W85068  14.182   4.906   0.353
23538W        W85069   6.262   7.753  10.489
23539W        W85070  13.683   8.256   4.146
23540W        W85071   8.278  28.513   3.746
23541W        W85072  18.692  39.029   1.281
23542W        W85073  32.538  23.026   4.142
23543W        W85074  21.658  22.028  12.847
23544W        W85075  20.760  44.319   0.783
23545W        W85076  10.783  28.139   0.295
23546W        W85077  28.124   2.252  10.552
23547W        W85078  28.049  11.349   1.882
23548W        W85079  26.674   0.470   0.308
23549W        W85080   0.762   4.229   2.414
23550W        W85081  32.125  25.634  12.911
23551W        W85082  21.093  39.492  14.893
23552W        W85083  17.626   1.450   2.318
23553W        W85084  28.172  17.731   3.212
23554W        W85085  23.537   4.700   1.808
23555W        W85086  42.386   1.932   0.478
23556W        W85087  15.170  37.897   0.777
23557W        W85088  23.191  42.780  10.448
23558W        W85089  17.266  28.077  14.929
23559W        W85090  32.946   5.865   0.800
23560W        W85091  41.877  12.793   2.898
23561W        W85092  17.651  31.914   0.935
23562W        W85093   0.477  30.427   4.341
23563W        W85094  22.049   8.859   0.801
23564W        W85095  37.540  11.168   9.995
23565W        W85096  28.588  26.180   4.731
23566W        W85097  44.349  20.245   3.832
23567W        W85098  43.828  15.241  10.948
23568W        W85099  42.860   1.327  11.899
23569W        W85100  27.992  44.464   0.919
23570W        W85101  35.092  28.440  11.002
23571W        W85102  39.909   4.291  11.385
23572W        W85103  28.005  20.523   3.802
23573W        W85104   1.270  20.708  11.931
23574W        W85105  26.055  23.696  14.879
23575W        W85106   6.238   3.239  12.886
23576W        W85107  35.910  20.536   4.176
23577W        W85108  36.846  44.303   2.881
23578W        W85109  22.190  40.917   2.819
23579W        W85110  41.828  44.368  11.523
23580W        W85111   3.760  43.773   3.174
23581W        W85112  13.184  25.554   0.474
23582W        W85113   7.302  11.730  11.868
23583W        W85114  33.947  30.993   1.813
23584W        W85115   7.772  44.489  12.866
23585W        W85116  11.333   8.689  11.999
23586W        W85117   6.421  33.891  12.366
23587W        W85118  27.606  35.594  13.509
23588W        W85119   6.849  42.828  13.963
23589W        W85120   8.851   4.699  11.468
23590W        W85121  17.285   3.949   4.616
23591W        W85122   8.168  18.231  11.545
23592W        W85123  32.899  24.678  13.335
23593W        W85124  24.095  36.994   4.145
23594W        W85125  27.138  23.602   4.305
23595W        W85126  34.069   2.444   3.179
23596W        W85127  38.392  28.183   4.686
23597W        W85128  15.817  20.032   1.225
23598W        W85129  33.387  27.169  14.313
23599W        W85130  37.889  26.576  12.497
23600W        W85131  40.798  41.981  13.342
23601W        W85132  34.439   0.923  12.896
23602W        W85133   5.737   7.184  13.437
23603W        W85134  34.464  11.805   0.788
23604W        W85135  30.597  12.270  14.479
23605W        W85136   8.853   9.280   1.289
23606W        W85137   6.422  15.224   1.359
23607W        W85138   8.815  25.590  14.496
23608W        W85139  12.262  40.957  10.554
23609W        W85140   3.323   1.927  14.800
23610W        W85141  33.524  32.966  13.444
23611W        W85142  19.085  41.385  14.812
23612W        W85143  10.700  23.994  10.441
23613W        W85144  13.774  44.974  13.339
23614W        W85145  39.002  14.757   3.192
23615W        W85146  23.654   7.780  14.944
23616W        W85147  26.485  40.048  12.364
23617W        W85148  41.419  12.143   4.707
23618W        W85149  44.406  36.448   0.453
23619W        W85150  39.390  17.223   2.817
23620W        W85151  34.486   9.758  13.407
23621W        W85152  41.945  40.519   4.162
23622W        W85153  38.001  12.625   0.244
23623W        W85154  34.886  39.819   4.810
23624W        W85155   6.899  21.241  11.942
23625W        W85156   9.238  43.835  12.381
23626W        W85157  14.611  42.016   2.775
23627W        W85158  26.636  12.686  12.448
23628W        W85159  22.096  15.752  12.887
23629W        W85160  34.961  16.265   5.702
23630W        W85161  41.454  30.048  13.960
23631W        W85162  40.829  34.925  14.023
23632W        W85163  20.691  12.164   3.212
23633W        W85164  35.390  42.853  11.604
23634W        W85165  19.735  32.926   1.441
23635W        W85166  35.064   4.931  11.945
23636W        W85167  41.355   7.902   0.301
23637W        W85168  11.245  35.104  12.905
23638W        W85169  32.477  32.523  12.017
23639W        W85170  12.648  14.217  10.476
23640W        W85171  40.507  32.583  10.898
23641W        W85172   4.436  16.620  14.889
23642W        W85173  43.873  22.527  14.768
23643W        W85174  11.286   4.255   3.783
23644W        W85175  27.496  32.636  11.946
23645W        W85176  12.248   3.734  12.378
23646W        W85177   1.359  44.480   1.307
23647W        W85178  34.902  26.989  13.479
23648W        W85179  22.059   1.915  14.860
23649W        W85180  36.355  25.114  11.527
23650W        W85181  25.964  24.645   0.371
23651W        W85182  25.702  29.053   0.782
23652W        W85183  15.272  20.267  13.342
23653W        W85184   3.282   5.404   0.796
23654W        W85185   4.426   0.466  11.514
23655W        W85186  15.602  24.692   1.836
23656W        W85187   3.364   7.285  12.535
23657W        W85188  29.098  29.073   4.767
23658W        W85189  44.283  10.259  10.478
23659W        W85190   1.769  21.676   3.827
23660W        W85191   7.681   4.782   0.431
23661W        W85192  28.520  21.255   3.785
23662W        W85193  19.238  29.132  10.933
23663W        W85194  19.053  32.009  10.604
23664W        W85195  10.201   8.824  12.538
23665W        W85196  44.281  41.004  10.961
23666W        W85197   8.685  12.220   1.769
23667W        W85198  26.536  44.431  11.111
23668W        W85199  31.428  36.545  11.442
23669W        W85200  30.607  41.324   1.891
23670W        W85201  25.669  26.545   2.757
23671W        W85202  36.876  22.089  10.926
23672W        W85203  29.023   5.915   5.174
23673W        W85204  14.147  31.501   2.206
23674W        W85205  29.176  42.933   0.277
23675W        W85206  27.178   9.676   1.904
23676W        W85207  29.603  43.022  13.810
23677W        W85208  17.569  37.007   1.803
23678W        W85209   8.729  35.865  11.573
23679W        W85210  38.834  34.915  13.033
23680W        W85211  28.551  38.382  11.062
23681W        W85212   8.401  28.453   2.258
23682W        W85213  30.483  11.271   2.775
23683W        W85214  14.314  27.459  11.927
23684W        W85215  27.572  11.720  12.368
23685W        W85216   5.716  42.866   2.263
23686W        W85217  17.229  27.464  10.580
23687W        W85218  31.516  44.369  12.986
23688W        W85219   3.891  10.220   0.476
23689W        W85220  16.137  25.704   2.217
23690W        W85221  15.188  13.172  13.830
23691W        W85222  33.490  15.129  12.375
23692W        W85223  18.699  37.439   0.942
23693W        W85224  41.971  32.135   4.187
23694W        W85225  11.822  16.089  12.994
23695W        W85226  24.160   1.354   4.657
23696W        W85227  14.606  43.010  13.415
23697W        W85228   6.814  10.689   1.409
23698W        W85229  23.652  35.424  11.982
23699W        W85230  12.825   5.390   3.235
23700W        W85231  18.100  41.897  13.030
23701W        W85232   1.297  24.005  11.859
23702W        W85233  20.543  18.190  11.061
23703W        W85234  38.326  11.623   5.703
23704W        W85235  31.607  36.971  13.310
23705W        W85236   6.738  36.881   0.392
23706W        W85237   6.824   4.728   4.618
23707W        W85238  31.620  23.211   2.767
23708W        W85239  11.783   4.822   5.278
23709W        W85240  32.886  40.873   3.370
23710W        W85241  14.758   2.266   1.421
23711W        W85242   2.244  26.062  12.086
23712W        W85243   9.278  40.458  12.471
23713W        W85244  16.099  22.059  13.004
23714W        W85245   4.922  34.945   0.332
23715W        W85246  19.645   7.710  11.518
23716W        W85247  27.454  18.134   2.797
23717W        W85248   4.259  31.521   0.326
23718W        W85249  25.115  15.194  11.115
23719W        W85250  21.058  42.372   4.661
23720W        W85251  39.367   1.733  11.578
23721W        W85252  31.110  36.949  14.431
23722W        W85253  30.960  27.576  13.867
23723W        W85254  42.338  12.298   0.729
23724W        W85255  14.291  42.361   0.390
23725W        W85256  42.823  41.827   1.894
23726W        W85257  28.540  44.266   0.251
23727W        W85258  10.688  43.422   2.339
23728W        W85259  41.976  18.607  10.464
23729W        W85260   5.347  17.116  14.792
23730W        W85261  42.337  19.534   3.808
23731W        W85262  29.649  31.412   3.303
23732W        W85263   8.749  24.618  11.449
23733W        W85264  42.989  39.853  10.903
23734W        W85265  12.259  27.063   2.194
23735W        W85266  24.167  27.142   4.708
23736W        W85267   7.761  12.278  14.798
23737W        W85268  29.647  41.317   5.146
23738W        W85269  42.328   3.813   1.274
23739W        W85270  12.715  29.447  11.902
23740W        W85271  42.910   4.808  13.910
23741W        W85272  28.056  14.278   3.263
23742W        W85273  33.574  38.491  14.351
23743W        W85274  40.341  41.949   4.623
23744W        W85275  28.068  14.704  10.050
23745W        W85276  43.499  36.878  10.604
23746W        W85277  22.664  31.538  14.425
23747W        W85278  32.515  17.661   2.714
23748W        W85279   5.224   6.917  13.537
23749W        W85280   0.865  29.478   0.842
23750W        W85281   3.724  28.099  12.426
23751W        W85282  27.180  22.208  13.353
23752W        W85283  10.334  42.527   2.690
23753W        W85284  18.548  17.767   2.363
23754W        W85285  18.617  41.441   9.982
23755W        W85286  40.369  33.888   4.672
23756W        W85287  33.075  37.579   1.768
23757W        W85288   2.900  25.532  13.817
23758W        W85289   9.735   5.843   3.758
23759W        W85290  18.170  16.129   1.807
23760W        W85291  17.081  22.609  12.938
23761W        W85292  44.359  41.969   1.350
23762W        W85293  44.985  40.843  13.913
23763W        W85294   4.725  28.456  11.968
23764W        W85295  28.999   7.193   3.330
23765W        W85296  35.079  43.800  10.899
23766W        W85297   9.841  24.214   1.351
23767W        W85298  24.562  16.694  12.407
23768W        W85299  32.499  26.139   2.817
23769W        W85300  41.000  24.109  13.429
23770W        W85301  43.324  29.647   4.279
23771W        W85302  41.376  11.168  12.357
23772W        W85303  40.952  25.480   2.392
23773W        W85304   4.916   6.316   0.772
23774W        W85305  28.579  16.091  12.043
23775W        W85306  10.205  44.937   3.167
23776W        W85307  11.319  30.438   2.668
23777W        W85308   8.347  35.487  10.508
23778W        W85309  32.040  35.901   0.832
23779W        W85310   8.848  26.067   1.359
23780W        W85311  18.657  16.722   2.366
23781W        W85312  15.209   3.320  12.914
23782W        W85313  13.316  38.824  13.370
23783W        W85314   0.294  23.490  12.908
23784W        W85315   6.183  16.706  14.841
23785W        W85316  28.128   0.824   4.597
23786W        W85317  29.445   8.874   1.337
23787W        W85318   2.794   6.685   0.813
23788W        W85319  21.547  40.836   9.981
23789W        W85320  15.218  30.912  13.056
23790W        W85321   4.910  24.035  14.321
23791W        W85322  20.541  28.559   1.384
23792W        W85323  33.921  25.488   0.440
23793W        W85324  28.493  40.377   2.887
23794W        W85325  24.572   7.337   2.201
23795W        W85326  12.786  10.209   3.344
23796W        W85327  39.980  12.854  13.801
23797W        W85328  35.438  39.504   3.259
23798W        W85329  44.753  40.013  13.796
23799W        W85330   4.704  19.158  14.341
23800W        W85331  28.087  10.367   0.904
23801W        W85332  34.092  27.520  11.498
23802W        W85333   7.323   1.260   5.761
23803W        W85334  11.281  28.503   1.261
23804W        W85335  12.252  24.557   3.848
23805W        W85336  15.779   1.348  10.553
23806W        W85337  32.503  35.941   5.121
23807W        W85338   1.261   6.319   3.223
23808W        W85339  35.939  28.127   3.780
23809W        W85340   7.287  21.100   1.702
23810W        W85341   1.806  44.988   2.199
23811W        W85342  11.149  23.071  10.949
23812W        W85343  39.371  10.716  11.986
23813W        W85344  44.499  13.676   3.228
23814W        W85345  41.997  39.473  12.852
23815W        W85346  19.050  27.150   4.136
23816W        W85347  26.033   1.921  14.822
23817W        W85348  14.784  30.452  13.333
23818W        W85349   9.661   4.708  13.019
23819W        W85350  42.850   3.321   5.317
23820W        W85351   8.833   4.926   1.706
23821W        W85352  20.615  11.624   1.357
23822W        W85353  39.020  41.891   4.135
23823W        W85354  29.154  13.300   3.219
23824W        W85355   6.687   9.340   0.443
23825W        W85356  36.953  44.293  13.831
23826W        W85357  40.322   7.745  14.959
23827W        W85358   5.432  28.165   2.847
23828W        W85359  36.484  28.501  10.934
23829W        W85360  21.174  39.882  11.536
23830W        W85361   6.286  18.551   2.340
23831W        W85362  36.993  38.887  11.506
23832W        W85363  21.116  22.081   4.237
23833W        W85364  31.570  15.278  13.938
23834W        W85365  14.190  38.939   3.643
23835W        W85366  40.455  14.276  14.987
23836W        W85367   3.433  13.113   0.902
23837W        W85368  15.154  25.532   4.289
23838W        W85369   7.809  35.523   1.298
23839W        W85370  23.728  11.226  10.485
23840W        W85371  30.424  27.979  14.933
23841W        W85372   3.254  34.454   1.892
23842W        W85373   2.250  21.107   1.710
23843W        W85374  27.115   2.357   2.893
23844W        W85375  34.994   1.431   0.258
23845W        W85376   8.865  43.512  14.793
23846W        W85377  22.097  26.465   0.756
23847W        W85378  33.964   8.760   9.920
23848W        W85379  27.607  19.677   3.218
23849W        W85380   4.348   9.179  14.898
23850W        W85381   0.947   6.324  14.305
23851W        W85382  12.742  10.823   2.806
23852W        W85383  31.922  35.359   0.858
23853W        W85384  21.685  31.478  10.131
23854W        W85385  40.497  21.519   4.757
23855W        W85386   7.335  13.121  11.864
23856W        W85387  39.033   7.241   2.736
23857W        W85388   9.246  34.471   4.277
23858W        W85389  25.563  22.169  11.522
23859W        W85390  17.072  22.555  12.027
23860W        W85391  43.478  16.099   0.476
23861W        W85392  25.963  42.962   0.851
23862W        W85393  12.151  36.476   3.166
23863W        W85394  21.110   8.170   4.748
23864W        W85395  16.777  44.902   1.838
23865W        W85396  27.587  33.429  12.461
23866W        W85397  38.884   4.906  11.114
23867W        W85398  37.502  29.451  11.449
23868W        W85399  35.384  26.129  12.567
23869W        W85400  15.219  19.735   1.398
23870W        W85401  37.069  18.170  14.826
23871W        W85402  12.660  12.348   2.816
23872W        W85403  28.436  42.967  12.499
23873W        W85404  33.043  33.504   0.777
23874W        W85405  13.224   6.706  13.902
23875W        W85406  11.717   5.787   0.326
23876W        W85407   9.374  12.244   2.819
23877W        W85408  34.605  24.646  13.988
23878W        W85409  33.444  44.853   0.463
23879W        W85410  25.048   7.720  10.434
23880W        W85411   9.674  30.116   4.815
23881W        W85412   6.716  34.550  13.040
23882W        W85413  28.612  27.492  13.928
23883W        W85414   7.892  10.171   3.323
23884W        W85415   7.781   2.238   4.217
23885W        W85416  26.107  38.062  10.610
23886W        W85417  43.916  43.022  13.796
23887W        W85418  21.156  35.561   1.855
23888W        W85419  35.980   4.416   4.654
23889W        W85420  16.592   8.285   3.706
23890W        W85421  43.387   6.893  10.422
23891W        W85422  11.777  33.956   1.249
23892W        W85423  16.746  12.620  10.477
23893W        W85424   8.372  29.103   4.670
23894W        W85425   0.277  40.029  14.774
23895W        W85426  32.985  44.908  11.496
23896W        W85427  23.204  23.667   2.834
23897W        W85428  38.471  30.566  10.557
23898W        W85429   1.311  25.997  11.466
23899W        W85430  40.915   2.294  11.590
23900W        W85431  22.127   7.265  11.585
23901W        W85432  20.157   7.263   9.933
23902W        W85433  29.519  22.192  11.946
23903W        W85434  43.453  18.699   1.860
23904W        W85435  26.531  18.105   2.869
23905W        W85436  21.045  31.612  10.147
23906W        W85437   2.912  19.123   2.370
23907W        W85438  18.743  10.800  14.834
23908W        W85439  17.718   0.806  11.022
23909W        W85440   2.390  39.835   3.147
23910W        W85441  30.957  10.875  13.840
23911W        W85442   8.734  22.637   0.463
23912W        W85443  31.451  43.845  13.379
23913W        W85444  16.200   4.933   0.814
23914W        W85445  42.017   4.221   2.817
23915W        W85446   6.905  31.506  11.079
23916W        W85447  10.230  29.082  14.023
23917W        W85448   8.242   1.814  11.549
23918W        W85449  25.649  22.063  12.405
23919W        W85450   5.391   9.812  13.979
23920W        W85451  15.617  38.870   1.787
23921W        W85452  43.478   4.225  12.441
23922W        W85453  26.629  28.176   1.450
23923W        W85454  18.670  11.655   4.735
23924W        W85455  25.691  18.626  13.982
23925W        W85456   2.786  40.921  10.520
23926W        W85457  13.145   9.174   2.318
23927W        W85458  28.109  34.100  11.525
23928W        W85459  18.608  12.717   2.285
23929W        W85460  13.232  15.122   0.445
23930W        W85461  15.670  14.780  13.035
23931W        W85462  41.528  41.924  13.047
23932W        W85463   3.729  11.781  14.025
23933W        W85464   3.398  22.215  14.331
23934W        W85465  26.662  31.016   1.259
23935W        W85466  33.515  34.061   4.625
23936W        W85467  37.850  26.034   0.816
23937W        W85468  16.276  24.601  14.766
23938W        W85469  12.119  25.682  12.463
23939W        W85470  35.361   4.758   2.366
23940W        W85471  20.642  42.385  14.821
23941W        W85472  32.073  13.842  11.506
23942W        W85473  29.574  27.692   4.231
23943W        W85474  42.988   9.244   3.756
23944W        W85475  16.573  15.308   1.716
23945W        W85476  36.947  22.042  13.791
23946W        W85477  23.231  34.480   3.764
23947W        W85478  24.605  40.516   5.118
23948W        W85479  37.350   3.449  10.505
23949W        W85480  18.134  15.605  13.333
23950W        W85481  14.682   9.689   0.351
23951W        W85482  40.008  42.309   2.701
23952W        W85483  13.743  36.424  13.525
23953W        W85484  37.348   8.207   0.420
23954W        W85485   3.385  20.079  10.966
23955W        W85486   3.244  21.570  10.537
23956W        W85487   4.230  36.416   0.820
23957W        W85488  22.202  41.904  12.389
23958W        W85489   3.347  20.182   2.294
23959W        W85490  19.211  39.323  13.352
23960W        W85491   5.358  40.455  10.558
23961W        W85492  37.952   7.671   5.276
23962W        W85493  30.991  12.748   2.732
23963W        W85494  14.294  11.729  14.834
23964W        W85495  17.776  27.661  13.323
23965W        W85496   3.300  43.021  14.027
23966W        W85497  28.995  22.673   3.158
23967W        W85498  30.992  32.923  11.962
23968W        W85499  31.097  15.687   2.727
23969W        W85500  16.273  11.630   1.899
23970W        W85501  28.073  13.312  11.443
23971W        W85502   5.405  29.561   4.242
23972W        W85503   6.353  22.115  13.944
23973W        W85504  11.704  39.483   3.734
23974W        W85505   0.480  35.985  14.988
23975W        W85506   6.727  26.061  11.902
23976W        W85507  25.481  41.418   1.331
23977W        W85508  27.964  44.923  14.937
23978W        W85509  20.196  35.588  12.456
23979W        W85510   4.361  20.192   2.668
23980W        W85511  32.455  42.020   1.253
23981W        W85512  28.678  19.533  14.881
23982W        W85513  38.069  13.688  13.543
23983W        W85514  22.064  41.928   2.877
23984W        W85515  43.784   1.952   0.840
23985W        W85516   3.374   9.645   0.378
23986W        W85517  24.556  21.196   2.357
23987W        W85518   9.771  15.125  13.796
23988W        W85519   7.799   3.441  14.018
23989W        W85520   8.871  30.032   2.805
23990W        W85521  29.164  38.420  12.457
23991W        W85522  10.177  18.632  10.976
23992W        W85523  14.672  26.535   3.284
23993W        W85524  44.312  31.925  13.396
23994W        W85525   6.274   9.830   4.190
23995W        W85526   8.662   9.225   2.892
23996W        W85527   5.258  42.282  13.800
23997W        W85528  25.630  41.800  14.764
23998W        W85529  17.688  14.752  13.376
23999W        W85530  31.069  13.782  14.393
24000W        W85531  38.855  44.853   0.280
24001W        W85532   6.898  39.322   0.916
24002W        W85533  39.875  34.608  14.842
24003W        W85534   8.660  31.614  13.916
24004W        W85535   7.804  10.665   1.257
24005W        W85536  24.645   4.257  14.822
24006W        W85537  11.370  13.113   2.188
24007W        W85538  37.524   8.786   1.807
24008W        W85539  11.803  26.139  11.046
24009W        W85540  41.907  32.024  10.094
24010W        W85541  41.494  18.091   3.688
24011W        W85542  43.420  20.068   4.626
24012W        W85543  18.545  29.154  12.948
24013W        W85544  34.016  30.574   3.374
24014W        W85545   2.728  39.975   0.242
24015W        W85546  44.807  42.366   0.946
24016W        W85547  43.328  41.919  10.530
24017W        W85548  12.347  20.177   2.374
24018W        W85549  24.103  21.134  14.786
24019W        W85550  10.264  23.727  11.108
24020W        W85551  13.797   5.376  14.408
24021W        W85552  10.692  16.225  10.443
24022W        W85553  44.498   8.376  12.889
24023W        W85554  33.492  33.120   2.710
24024W        W85555  23.239  25.523   0.285
24025W        W85556  16.180   9.733   1.433
24026W        W85557  37.524  12.309  13.448
24027W        W85558  36.892   5.863   0.727
24028W        W85559   7.314  29.933  11.613
24029W        W85560  21.048  25.181  13.511
24030W        W85561  28.640  36.069  10.513
24031W        W85562  24.050   4.333  10.946
24032W        W85563  21.100  14.160   4.312
24033W        W85564  41.362   6.356  14.862
24034W        W85565  33.549  41.788  14.854
24035W        W85566  41.517  33.583  12.896
24036W        W85567   6.326   1.406  13.455
24037W        W85568   7.670  33.027   4.257
24038W        W85569  16.301  44.474  12.996
24039W        W85570  19.257   3.753  13.826
24040W        W85571  29.588  40.521   3.862
24041W        W85572   9.306  29.499  13.390
24042W        W85573  22.214  42.857  14.414
24043W        W85574  22.163  19.246  13.437
24044W        W85575   3.268  17.206  13.001
24045W        W85576  18.276  30.013  12.512
24046W        W85577   2.469   5.247   0.836
24047W        W85578   9.290  41.798   0.909
24048W        W85579  35.443  21.105  14.362
24049W        W85580  40.018  12.805   4.271
24050W        W85581  36.059  16.087  13.360
24051W        W85582  43.865  18.620   2.306
24052W        W85583  44.833  14.659  11.568
24053W        W85584   5.266  27.676  14.390
24054W        W85585  35.871  43.289   0.887
24055W        W85586  31.023  42.352   0.765
24056W        W85587  23.063   7.203   4.815
24057W        W85588  33.475   2.259  14.437
24058W        W85589   8.676  39.535   2.275
24059W        W85590  37.415  21.640   1.400
24060W        W85591   0.375  13.702   4.608
24061W        W85592  13.315  15.250   1.837
24062W        W85593  31.938  32.087  12.827
24063W        W85594  44.305  28.651  11.409
24064W        W85595  23.624  34.098  12.087
24065W        W85596   9.380  35.054  13.424
24066W        W85597  10.762  33.024  13.032
24067W        W85598  24.668  22.202   2.902
24068W        W85599   7.183  26.508  11.462
24069W        W85600  22.690  17.197  14.491
24070W        W85601   3.779   1.777   2.669
24071W        W85602   6.713  40.442  11.592
24072W        W85603  17.226   9.782   0.484
24073W        W85604   8.828  26.498  13.364
24074W        W85605  23.615   1.393  10.895
24075W        W85606  33.920  30.658  12.838
24076W        W85607  44.497  12.189   0.808
24077W        W85608  32.979  15.784  14.294
24078W        W85609  13.642   4.324   0.924
24079W        W85610  19.727   8.777   1.374
24080W        W85611  16.620  39.023  14.453
24081W        W85612  43.834  41.492  14.766
24082W        W85613  25.161   5.883  11.407
24083W        W85614  13.817   9.779   2.848
24084W        W85615  25.495   2.239   1.422
24085W        W85616   5.315  44.389   1.214
24086W        W85617   5.212  14.724   4.190
24087W        W85618  19.121   8.296  13.418
24088W        W85619  11.701  21.625  14.861
24089W        W85620  12.318  22.721   4.321
24090W        W85621  24.161  18.777   2.258
24091W        W85622  43.817  14.324   2.333
24092W        W85623  35.527  19.088   0.808
24093W        W85624  18.196  11.202  13.470
24094W        W85625  38.472  12.702  12.069
24095W        W85626  16.136  24.144  12.052
24096W        W85627   9.877  14.732  12.965
24097W        W85628   2.732  10.689  14.296
24098W        W85629   3.364  38.441   1.863
24099W        W85630  28.957  40.888   1.330
24100W        W85631  24.135   2.464  13.387
24101W        W85632  42.486  18.279   4.192
24102W        W85633  43.497  13.308   1.934
24103W        W85634   0.369  18.146  12.981
24104W        W85635  24.721   9.715   4.669
24105W        W85636  30.442  11.654  10.532
24106W        W85637   9.729  42.390   0.264
24107W        W85638  40.036  22.628  11.888
24108W        W85639   3.806  11.694  12.052
24109W        W85640  18.156  17.780  12.961
24110W        W85641  12.732  35.967   4.737
24111W        W85642  30.076  41.299   4.732
24112W        W85643  30.649  20.542   3.781
24113W        W85644  35.555  37.375   2.708
24114W        W85645  30.538   7.845   1.238
24115W        W85646   5.237  10.224   2.737
24116W        W85647  28.475   4.294  10.891
24117W        W85648  24.061  11.254   3.285
24118W        W85649   8.672   0.942  10.017
24119W        W85650  23.621  43.360   0.927
24120W        W85651  29.632  33.083   3.256
24121W        W85652  44.336   6.895   0.779
24122W        W85653  39.428   7.768   0.875
24123W        W85654  11.190   7.185  11.121
24124W        W85655   9.298  12.835  11.082
24125W        W85656   3.384   3.442  10.444
24126W        W85657   9.828  36.579   3.854
24127W        W85658   9.887  15.586   4.776
24128W        W85659  34.988  34.563   0.763
24129W        W85660  44.319   2.955   1.765
24130W        W85661   4.395  17.068  12.845
24131W        W85662  35.929  14.189  11.971
24132W        W85663  10.637  26.022   0.893
24133W        W85664  23.631  23.148  13.351
24134W        W85665  44.483  10.284  11.951
24135W        W85666  32.392  14.758  10.940
24136W        W85667  10.647  18.666   0.731
24137W        W85668   7.755   9.199  11.969
24138W        W85669  13.698   3.244   2.281
24139W        W85670  44.372  38.889   1.860
24140W        W85671  22.179  10.142   4.253
24141W        W85672  17.122  17.600  11.414
24142W        W85673  15.160  22.561   2.669
24143W        W85674  26.972   3.285  12.556
24144W        W85675  39.401  24.062  10.525
24145W        W85676  37.918  44.374  11.047
24146W        W85677  43.924  23.032  11.105
24147W        W85678   3.227  34.573  13.372
24148W        W85679  26.517  29.556  11.562
24149W        W85680  23.094   4.845  11.963
24150W        W85681  22.228  29.154   4.256
24151W        W85682   4.738  11.373   0.356
24152W        W85683   2.725  12.155  11.120
24153W        W85684   0.956  16.275   3.299
24154W        W85685  22.553  14.616   2.739
24155W        W85686  16.578  27.532  13.430
24156W        W85687  26.676   8.366   0.357
24157W        W85688  19.625   5.803  13.416
24158W        W85689  40.858  29.424  11.422
24159W        W85690   2.276   9.743   4.821
24160W        W85691  25.537  12.254   2.891
24161W        W85692  28.477  42.360  14.420
24162W        W85693  18.640   0.890  10.446
24163W        W85694   5.432  30.603  13.007
24164W        W85695  41.841  25.086  12.421
24165W        W85696  39.409  35.396   2.698
24166W        W85697  39.457   3.775   4.315
24167W        W85698  29.624  44.455  10.130
24168W        W85699  40.016   1.898   1.270
24169W        W85700  15.250  33.964  11.519
24170W        W85701   3.339  22.053   5.180
24171W        W85702  42.983   9.267  12.038
24172W        W85703  28.535  35.877   4.721
24173W        W85704  20.182  37.507  11.386
24174W        W85705   1.823  29.019  10.637
24175W        W85706  12.251  44.766   3.708
24176W        W85707  21.100   4.236   0.265
24177W        W85708   6.227  22.511  14.399
24178W        W85709  27.582   9.701   1.919
24179W        W85710   4.273   0.825  12.521
24180W        W85711  27.195   6.686  10.559
24181W        W85712  15.226  26.590  14.420
24182W        W85713   0.959  13.116   0.278
24183W        W85714   0.789  35.550   2.779
24184W        W85715  23.687  18.220  13.461
24185W        W85716   0.752  40.470   4.158
24186W        W85717  18.243   7.804  13.838
24187W        W85718  32.570   1.276  14.391
24188W        W85719  19.698   0.317   0.478
24189W        W85720  31.985  38.350  13.376
24190W        W85721  29.972   9.742  14.782
24191W        W85722  20.029  29.000  13.355
24192W        W85723  19.709  25.142   0.472
24193W        W85724  27.464  15.818  11.865
24194W        W85725  14.778  27.513   2.285
24195W        W85726  16.705  41.971   4.778
24196W        W85727  36.542  19.583  10.622
24197W        W85728  13.834  26.473  14.342
24198W        W85729  14.672  17.771   2.683
24199W        W85730   5.803  23.219  10.015
24200W        W85731  32.937  37.423  12.503
24201W        W85732  17.174   8.346  12.961
24202W        W85733  10.644  42.381   2.888
24203W        W85734   8.223  24.566  11.063
24204W        W85735  21.714  23.540   4.770
24205W        W85736  28.946  42.300  11.489
24206W        W85737  28.641  37.854   3.654
24207W        W85738   9.330  28.943   3.850
24208W        W85739  32.942   4.282   2.227
24209W        W85740  10.222   3.442  11.078
24210W        W85741  41.415   5.370  10.467
24211W        W85742  42.025   9.659  13.004
24212W        W85743   2.303  27.101   1.816
24213W        W85744   0.829  23.682   1.295
24214W        W85745  15.197  12.121   4.269
24215W        W85746   4.872  29.573  14.908
24216W        W85747  32.121  15.778  13.843
24217W        W85748   2.776  19.161  12.903
24218W        W85749  21.585  19.111   2.260
24219W        W85750  36.350  27.082  13.900
24220W        W85751  35.461  23.116   0.301
24221W        W85752  41.325  41.354  14.304
24222W        W85753   5.269   4.899  13.998
24223W        W85754  44.924  44.819  10.436
24224W        W85755  40.545  38.507   3.781
24225W        W85756  30.069  33.048   3.323
24226W        W85757  31.541  14.191   0.377
24227W        W85758  39.527  35.495  14.304
24228W        W85759  28.486  43.838  10.479
24229W        W85760   9.395  43.981   1.391
24230W        W85761   5.430   6.414   1.356
24231W        W85762  37.554  16.786   4.165
24232W        W85763  17.683   9.292  11.396
24233W        W85764  37.511   9.305  12.960
24234W        W85765  24.111  40.876   4.643
24235W        W85766  13.244  20.210  12.886
24236W        W85767   9.151  24.572   0.481
24237W        W85768  43.365   7.774  14.843
24238W        W85769  22.018   1.417  12.532
24239W        W85770   6.361   1.937  11.899
24240W        W85771  38.966   6.218   4.711
24241W        W85772  39.348  40.942  14.803
24242W        W85773  12.324  12.789  11.964
24243W        W85774   5.691  39.528  13.970
24244W        W85775  20.679  13.767  14.852
24245W        W85776  24.173  21.226   1.295
24246W        W85777  10.143  28.011   0.380
24247W        W85778  35.551  30.645   3.178
24248W        W85779  26.162  24.485  13.910
24249W        W85780  32.546  35.908  14.868
24250W        W85781  12.712  26.520  14.026
24251W        W85782   7.367   3.290   0.480
24252W        W85783  16.667  16.166   0.903
24253W        W85784  31.918   5.895   3.857
24254W        W85785  25.690  13.713   2.704
24255W        W85786  32.507  20.697   3.366
24256W        W85787  20.646  28.131  14.768
24257W        W85788  18.062  23.199   1.933
24258W        W85789  18.620  26.984   0.890
24259W        W85790  20.768  43.811   3.178
24260W        W85791  43.861   3.259  14.377
24261W        W85792  38.327  31.072  14.018
24262W        W85793   8.677   7.676  13.809
24263W        W85794   1.419   3.929  13.328
24264W        W85795  25.148  42.860   3.299
24265W        W85796  42.025  28.117  12.511
24266W        W85797  16.582  18.745  14.454
24267W        W85798  26.080  40.463   0.868
24268W        W85799  33.917   3.338  11.422
24269W        W85800  26.058   2.914   3.286
24270W        W85801   9.300  26.578   0.794
24271W        W85802   0.492  20.176   2.278
24272W        W85803  38.939  33.608  12.943
24273W        W85804  25.499  11.349   2.679
24274W        W85805  24.036  40.996   1.747
24275W        W85806   0.897  16.792   0.384
24276W        W85807  35.507   4.358  11.600
24277W        W85808  10.330  22.212   3.217
24278W        W85809  24.646  35.471  11.588
24279W        W85810  19.640  17.705  11.433
24280W        W85811  39.471  13.283  14.454
24281W        W85812  12.788  10.672   3.240
24282W        W85813  17.649   5.699   0.388
24283W        W85814  20.263  34.574  12.069
24284W        W85815  24.642   0.792   0.259
24285W        W85816  41.470  36.404  13.993
24286W        W85817  32.018  37.840  14.905
24287W        W85818  28.947  23.049  10.630
24288W        W85819   8.321  18.131   4.819
24289W        W85820  29.051  13.630  10.603
24290W        W85821   9.164  10.846   1.703
24291W        W85822  39.457  43.324   2.816
24292W        W85823   5.708   6.894  10.630
24293W        W85824   8.782   3.774   2.778
24294W        W85825  13.681   2.250   3.680
24295W        W85826   7.329  30.141   0.438
24296W        W85827  39.454  38.846  14.324
24297W        W85828  23.132  21.141   0.452
24298W        W85829  23.582  29.542   3.645
24299W        W85830   0.886  35.983  14.284
24300W        W85831   3.345  12.835  11.014
24301W        W85832  39.043  28.165   0.888
24302W        W85833   4.404  44.882   2.239
24303W        W85834  11.820   0.745   1.775
24304W        W85835  36.930  42.464   2.689
24305W        W85836  29.497   3.882  11.408
24306W        W85837  42.292  33.999  10.425
24307W        W85838  12.337  24.571   2.198
24308W        W85839  18.570  42.503   3.733
24309W        W85840   3.955   0.311   1.372
24310W        W85841  29.531   5.427   2.326
24311W        W85842   5.287  32.119   2.695
24312W        W85843  11.844  28.099   2.902
24313W        W85844  30.976  36.869  14.943
24314W        W85845  11.244  39.957   2.254
24315W        W85846  13.760  34.545   2.841
24316W        W85847  20.257  31.927  14.866
24317W        W85848  10.774  36.505   4.751
24318W        W85849  32.932  28.118  10.597
24319W        W85850  14.208  10.732   4.752
24320W        W85851   9.647  17.671   2.903
24321W        W85852  17.691   6.812   4.267
24322W        W85853  16.263   7.807  12.088
24323W        W85854  12.221  33.977   4.812
24324W        W85855  30.552   5.734  13.499
24325W        W85856  24.562   2.401   0.403
24326W        W85857  30.047  24.644  11.563
24327W        W85858  32.071  18.702   5.171
24328W        W85859  16.210   5.321  14.018
24329W        W85860  36.480  42.921  12.493
24330W        W85861   2.937   0.401  12.396
24331W        W85862   7.811  28.077   9.985
24332W        W85863  35.410   7.743   0.950
24333W        W85864  18.591  29.938   3.667
24334W        W85865   3.350  21.627   4.721
24335W        W85866   6.846  14.224   1.328
24336W        W85867  27.517  15.605   1.368
24337W        W85868   3.296  36.550   4.760
24338W        W85869  34.594  37.967   0.809
24339W        W85870  12.649   4.273  13.908
24340W        W85871   3.751  29.568  14.032
24341W        W85872   8.667   0.330   4.766
24342W        W85873  35.593   5.194   4.760
24343W        W85874  29.448  40.824  12.512
24344W        W85875   7.321  21.212  13.338
24345W        W85876   1.790  26.578   3.697
24346W        W85877  15.714   2.833   1.211
24347W        W85878   2.801   7.268  12.479
24348W        W85879   4.875  41.444  12.960
24349W        W85880   6.753  26.201  11.532
24350W        W85881  18.164   4.308   1.902
24351W        W85882  18.701  22.555  13.887
24352W        W85883  24.515  34.384   4.336
24353W        W85884  32.133  35.447  10.936
24354W        W85885  42.853  18.790  10.526
24355W        W85886  28.032   9.377  13.481
24356W        W85887   3.822  35.027  13.942
24357W        W85888  29.593  38.525   4.763
24358W        W85889  35.523   9.299  11.997
24359W        W85890  18.133  34.483   4.276
24360W        W85891  27.957  33.926  12.032
24361W        W85892   7.335  11.664   0.435
24362W        W85893  25.175  14.110   2.747
24363W        W85894  37.072  10.143   4.262
24364W        W85895   6.187  35.087  11.903
24365W        W85896  25.003   7.879  11.865
24366W        W85897   4.425   6.851   1.427
24367W        W85898  41.345  23.695  13.042
24368W        W85899  41.329  35.407   2.408
24369W        W85900   4.352  31.050   1.896
24370W        W85901  19.740  42.796  13.994
24371W        W85902   8.171  34.874  14.428
24372W        W85903  24.143   1.449  14.277
24373W        W85904  28.502   2.736  13.814
24374W        W85905  31.936  17.079  14.278
24375W        W85906  11.753  14.606  12.916
24376W        W85907  27.622  21.707  14.758
24377W        W85908  28.141  30.621   1.811
24378W        W85909   8.727  33.045   0.331
24379W        W85910   5.825  25.102  14.972
24380W        W85911  17.660  21.689  13.811
24381W        W85912  35.368  34.960   4.167
24382W        W85913  22.205  25.962   0.762
24383W        W85914  43.451   1.247   3.346
24384W        W85915  17.606   1.317  14.856
24385W        W85916   7.333   3.922  14.408
24386W        W85917  35.903  41.942  11.932
24387W        W85918  43.516   8.171   2.703
24388W        W85919  43.963  25.500  13.343
24389W        W85920  38.998   1.790  13.847
24390W        W85921   9.658  41.466  12.863
24391W        W85922  35.398  43.345  10.494
24392W        W85923   9.754  20.662   0.890
24393W        W85924  40.983  35.562  13.372
24394W        W85925  28.164  15.720  13.791
24395W        W85926  12.644  11.651   3.846
24396W        W85927  31.146  44.409  14.342
24397W        W85928  15.582  11.225   1.765
24398W        W85929  26.700  10.765   1.805
24399W        W85930  41.450  39.832   3.376
24400W        W85931  35.020  10.223   5.259
24401W        W85932  43.457  41.422   4.173
24402W        W85933  34.613   4.205  12.408
24403W        W85934  38.839  27.185  12.410
24404W        W85935  23.175  16.767  12.966
24405W        W85936  29.017   1.265  13.434
24406W        W85937  27.140  37.507   1.234
24407W        W85938   6.247  15.801   0.889
24408W        W85939   0.352  43.867   2.189
24409W        W85940   2.950   5.897  12.430
24410W        W85941  22.057  12.784  10.510
24411W        W85942  44.296  29.445  11.537
24412W        W85943  28.159  40.907  11.128
24413W        W85944   8.688  40.453   5.162
24414W        W85945  35.987  35.470  10.998
24415W        W85946  32.524  21.255  14.405
24416W        W85947  17.773  42.954   2.214
24417W        W85948  10.745  22.022  12.361
24418W        W85949  15.298   9.790   3.265
24419W        W85950  26.536  40.864  12.437
24420W        W85951  42.811  42.001   3.706
24421W        W85952   7.825  33.994   0.854
24422W        W85953  27.526   2.740  13.379
24423W        W85954   1.750  18.618   4.604
24424W        W85955   7.244  13.211   3.730
24425W        W85956  42.321  26.962   3.651
24426W        W85957  10.299  38.835  12.403
24427W        W85958   3.821  14.245   1.342
24428W        W85959  37.942  15.283   3.808
24429W        W85960  17.270  32.509   0.886
24430W        W85961  33.992  11.330  13.033
24431W        W85962  14.822  37.901  13.037
24432W        W85963  37.002   7.264  11.938
24433W        W85964   9.249  25.110  12.464
24434W        W85965  16.176  38.387   1.904
24435W        W85966  44.007  26.604  11.433
24436W        W85967  27.008  31.115   1.920
24437W        W85968  16.269  36.914  12.896
24438W        W85969  41.393  12.804   2.779
24439W        W85970   2.778  22.159   2.418
24440W        W85971   5.780  11.719   4.262
24441W        W85972  43.911  26.518   4.321
24442W        W85973  17.202  28.440  12.457
24443W        W85974  22.133   5.917  11.939
24444W        W85975  34.452  30.579   2.390
24445W        W85976   7.362  25.061  13.935
24446W        W85977  19.102  11.222   0.278
24447W        W85978  15.582  24.996  14.322
24448W        W85979  19.771  17.266  13.345
24449W        W85980  16.248  19.213   3.211
24450W        W85981   5.724  24.588  14.507
24451W        W85982  23.588  18.580   0.847
24452W        W85983  11.693   7.860   2.412
24453W        W85984  26.573  28.052  13.370
24454W        W85985  23.002   6.282  13.988
24455W        W85986   3.406   6.878  13.007
24456W        W85987  24.525  29.539   3.761
24457W        W85988  20.601  14.827   3.149
24458W        W85989  41.786  36.408  13.899
24459W        W85990  17.189  42.923  14.004
24460W        W85991  41.303   6.298  12.530
24461W        W85992  31.628   7.855   1.388
24462W        W85993  30.010  38.013  13.411
24463W        W85994  15.611  25.553   0.767
24464W        W85995  37.952  34.935   4.270
24465W        W85996  32.939  24.081   1.335
24466W        W85997  37.559  24.502  14.516
24467W        W85998  17.622  17.641   1.777
24468W        W85999  40.424  15.099   4.656
24469W        W86000   6.269  11.353  11.096
24470W        W86001  31.469   5.326  12.883
24471W        W86002  33.086  39.424   1.885
24472W        W86003  28.987  22.219  11.448
24473W        W86004  22.189  17.110   3.148
24474W        W86005  36.073  31.983   0.342
24475W        W86006  19.139  25.672   0.796
24476W        W86007  31.913  31.134  10.958
24477W        W86008   7.815  34.531   2.672
24478W        W86009  10.827  44.283  13.375
24479W        W86010   0.430  28.159   1.880
24480W        W86011   0.849  27.098  11.454
24481W        W86012  37.347  14.246  11.087
24482W        W86013  26.636  10.151   1.724
24483W        W86014  34.467   4.835  11.022
24484W        W86015  43.472  31.441   2.838
24485W        W86016  13.724  32.635   2.296
24486W        W86017   2.320  41.349   2.180
24487W        W86018  41.509  18.713  13.825
24488W        W86019   0.916  27.076   0.815
24489W        W86020  35.580  32.111  12.951
24490W        W86021  39.852  20.581  10.447
24491W        W86022  13.324  35.021  12.980
24492W        W86023  40.813  31.918   2.710
24493W        W86024   7.744   0.359  13.012
24494W        W86025  43.917   8.678   4.139
24495W        W86026  37.504  10.365  12.463
24496W        W86027  19.780  29.130  11.070
24497W        W86028  16.689  38.004  12.973
24498W        W86029  31.913   6.730  14.763
24499W        W86030  21.661  15.221   1.748
24500W        W86031  33.418   8.203  12.047
24501W        W86032   2.734  14.325   2.801
24502W        W86033   3.953   4.859  12.969
24503W        W86034   6.893  37.868   2.900
24504W        W86035  17.093  39.840   3.724
24505W        W86036  18.253  31.560  11.552
24506W        W86037  23.626  30.602  14.793
24507W        W86038  17.735   5.889  14.467
24508W        W86039  17.281  37.360  13.358
24509W        W86040  22.057  38.340   1.854
24510W        W86041  43.486   6.741   0.815
24511W        W86042  40.016  38.367  14.970
24512W        W86043  28.585  40.510  11.977
24513W        W86044  17.173  30.961   2.368
24514W        W86045  15.158  38.417   2.406
24515W        W86046  24.143  15.685   4.750
24516W        W86047  11.825  44.311   2.727
24517W        W86048  38.012   0.749  13.031
24518W        W86049  25.127  20.587   1.750
24519W        W86050   4.310  35.895   2.269
24520W        W86051  25.094  15.315  12.422
24521W        W86052  29.573  26.031  13.923
24522W        W86053  35.510  43.859  10.477
24523W        W86054  29.497  10.142   1.757
24524W        W86055   5.854   8.368  13.946
24525W        W86056   5.762   1.266  14.329
24526W        W86057   3.419  21.241   3.853
24527W        W86058  38.066  13.791  10.889
24528W        W86059   1.933  21.719   2.400
24529W        W86060  15.226  41.377  12.967
24530W        W86061  41.315  24.681   0.351
24531W        W86062  41.530   5.689  12.952
24532W        W86063  41.818  11.308  14.288
24533W        W86064  42.414  14.291   0.788
24534W        W86065  22.509  28.026   0.425
24535W        W86066   2.411  37.472  10.975
24536W        W86067   4.872   0.323   5.188
24537W        W86068  43.490   9.205  14.397
24538W        W86069  14.317  14.249  14.405
24539W        W86070  13.153  15.609  13.362
24540W        W86071  34.059  21.190  11.076
24541W        W86072  35.427   0.963   3.676
24542W        W86073  26.479  17.287   3.750
24543W        W86074   1.743  17.065  11.439
24544W        W86075  16.642   7.253  14.947
24545W        W86076  25.605  19.053   4.307
24546W        W86077  10.676  38.408   2.298
24547W        W86078  31.519  35.075   3.369
24548W        W86079  19.205  32.941   1.934
24549W        W86080  25.472   2.850   0.357
24550W        W86081  42.423  26.477  11.936
24551W        W86082  35.594  13.802  10.449
24552W        W86083  20.141  34.031   3.786
24553W        W86084   6.308   4.420  12.504
24554W        W86085   5.353  32.527   0.353
24555W        W86086   8.255  40.375   2.766
24556W        W86087  32.025  31.472   2.261
24557W        W86088   9.740  37.832   1.379
24558W        W86089  31.403  15.777   2.661
24559W        W86090  37.354  39.952  14.326
24560W        W86091  38.885   1.887   4.729
24561W        W86092  27.515  19.135   4.711
24562W        W86093  17.656   0.812  14.278
24563W        W86094  31.135  15.176  10.901
24564W        W86095  16.727  22.250   5.665
24565W        W86096   6.183  17.223   5.132
24566W        W86097   1.391  42.295   2.716
24567W        W86098  21.094  20.766  12.384
24568W        W86099  26.197  16.610   2.260
24569W        W86100  38.946   3.891  10.980
24570W        W86101  14.589  35.886   0.403
24571W        W86102  29.553  39.862   4.246
24572W        W86103  23.687  42.970  13.825
24573W        W86104  15.807  40.432   4.778
24574W        W86105   0.375  44.897  13.418
24575W        W86106  22.730  31.099   2.227
24576W        W86107  13.202  20.108  11.924
24577W        W86108  42.891   0.923  11.082
24578W        W86109   8.803  19.556  14.769
24579W        W86110   0.748  33.116   2.276
24580W        W86111  35.476  37.002  14.429
24581W        W86112  25.521  41.320   5.297
24582W        W86113   3.292  11.867   2.356
24583W        W86114  38.865  14.218   2.350
24584W        W86115  30.578  23.034   0.401
24585W        W86116   4.416  24.093   1.254
24586W        W86117  14.169   5.214   0.930
24587W        W86118  21.748  17.580   4.797
24588W        W86119  27.158  29.019   3.641
24589W        W86120   6.207  41.466   4.805
24590W        W86121  31.436   7.195  13.394
24591W        W86122  15.653  24.020   0.304
24592W        W86123   7.213  36.382  14.999
24593W        W86124   7.776  12.631  11.006
24594W        W86125  15.736  15.263   4.194
24595W        W86126  34.029  25.970   4.601
24596W        W86127  22.543  31.983   0.952
24597W        W86128   5.381  12.660  11.417
24598W        W86129  14.633  22.133   2.896
24599W        W86130   7.869  13.305   2.362
24600W        W86131   7.406   2.416  13.827
24601W        W86132  44.753  16.103   0.962
24602W        W86133  36.875  41.296  12.543
24603W        W86134   1.376  41.830  14.415
24604W        W86135  30.580  43.294  11.965
24605W        W86136  36.095  15.745  13.854
24606W        W86137  40.979  20.651  12.370
24607W        W86138   9.257   1.456  14.864
24608W        W86139   0.780   9.852   1.717
24609W        W86140  44.301  17.136   3.355
24610W        W86141  12.774  27.996  10.499
24611W        W86142  10.759  20.725  12.355
24612W        W86143  43.508  31.032   0.771
24613W        W86144  20.094  14.651  14.298
24614W        W86145   2.843  32.411   1.702
24615W        W86146   9.663  42.833   0.321
24616W        W86147   5.778  22.720  10.426
24617W        W86148   1.738  38.373  13.463
24618W        W86149  30.475   5.353   2.683
24619W        W86150  33.482  31.425  14.305
24620W        W86151  24.047  10.295  11.038
24621W        W86152   2.298  10.666  14.862
24622W        W86153  14.834   4.846  11.856
24623W        W86154  29.434  27.003   1.872
24624W        W86155  30.021  25.564   0.452
24625W        W86156  31.436   3.294   4.191
24626W        W86157  33.421   5.396  11.909
24627W        W86158   5.853  31.424  11.011
24628W        W86159  31.141  26.522  10.971
24629W        W86160  42.791   3.337  13.456
24630W        W86161   7.394  40.043   1.769
24631W        W86162  31.427   8.308   3.720
24632W        W86163  25.610   4.216   3.232
24633W        W86164  22.143  33.975  11.008
24634W        W86165  36.032  13.244   4.795
24635W        W86166  42.519   8.859  13.029
24636W        W86167  16.072  38.429  13.007
24637W        W86168   4.897  18.570  13.416
24638W        W86169  34.949   6.422  13.353
24639W        W86170  14.241   4.746  11.968
24640W        W86171  34.529  40.352  14.376
24641W        W86172  28.112   7.888  13.795
24642W        W86173  44.972   7.780  14.955
24643W        W86174  15.736  30.111  13.500
24644W        W86175   0.779  12.673  10.435
24645W        W86176   8.745  40.988  11.080
24646W        W86177   7.782   9.770  13.793
24647W        W86178  22.222   0.906   0.432
24648W        W86179  38.473  22.191  11.880
24649W        W86180  33.431   8.781  14.759
24650W        W86181   2.967   3.790  11.122
24651W        W86182   5.893  24.199   1.709
24652W        W86183  41.529   7.374   1.860
24653W        W86184  33.955  29.525  12.504
24654W        W86185  20.271  37.451  14.405
24655W        W86186  40.479  10.831  10.121
24656W        W86187  18.666  27.662  13.523
24657W        W86188  20.228   1.784  13.841
24658W        W86189  26.548  23.612   2.206
24659W        W86190  13.720  17.143   1.931
24660W        W86191  15.791  22.590  10.507
24661W        W86192  37.033  32.092   2.765
24662W        W86193  23.711  25.583   2.830
24663W        W86194  14.756  37.031  10.458
24664W        W86195  15.282  23.211   3.737
24665W        W86196  38.983  16.659  13.470
24666W        W86197  43.909   7.240   1.761
24667W        W86198  23.997  18.548   0.344
24668W        W86199  10.226  35.378   1.816
24669W        W86200  22.999  24.063  12.915
24670W        W86201  43.874   4.863  10.598
24671W        W86202  30.415  39.382   3.825
24672W        W86203  35.970  20.552  14.794
24673W        W86204  44.994  10.147   1.897
24674W        W86205   8.298  28.647  11.961
24675W        W86206  12.129  39.929   4.336
24676W        W86207  10.236  38.973  10.474
24677W        W86208  29.075  41.898  14.407
24678W        W86209  12.618  39.476  11.930
24679W        W86210  14.237  28.676  12.992
24680W        W86211   9.775  28.650   0.759
24681W        W86212  22.031  26.186  14.451
24682W        W86213  19.070   8.370   2.383
24683W        W86214  25.670  38.924   3.351
24684W        W86215  37.486   2.387  14.429
24685W        W86216   2.909   1.419   0.893
24686W        W86217  42.972  19.598  13.548
24687W        W86218  32.609   9.658   0.946
24688W        W86219  31.453  13.660   2.415
24689W        W86220   7.246   3.304   4.151
24690W        W86221  40.998   0.466  13.337
24691W        W86222  43.932  38.036  10.914
24692W        W86223  37.469   2.802  11.122
24693W        W86224  34.383  31.412  11.492
24694W        W86225   1.909   4.727  11.037
24695W        W86226  19.196  29.554  10.529
24696W        W86227  34.385  19.161  10.597
24697W        W86228  34.020   9.284   2.191
24698W        W86229  33.069   4.772  11.526
24699W        W86230  11.735   6.322   4.701
24700W        W86231  30.053  35.584  10.500
24701W        W86232   4.911   2.773  12.889
24702W        W86233   3.916  25.679  11.572
24703W        W86234   8.333  21.130  13.493
24704W        W86235  24.725  37.361   1.923
24705W        W86236  13.156  35.053   0.261
24706W        W86237  16.222   4.861  11.933
24707W        W86238  23.711  44.975  14.815
24708W        W86239  34.580  35.001  11.079
24709W        W86240  22.550  44.303  13.383
24710W        W86241  33.983  20.565  10.928
24711W        W86242  20.179  28.613  13.485
24712W        W86243  20.166  35.069   3.378
24713W        W86244   7.298   7.783  11.063
24714W        W86245  24.145  29.010  14.386
24715W        W86246  41.969  33.944  11.895
24716W        W86247  42.490  23.203   1.803
24717W        W86248  37.856  13.223   2.211
24718W        W86249  35.098  36.094   1.930
24719W        W86250  38.999  39.989   3.675
24720W        W86251  28.645   3.800   1.805
24721W        W86252   7.756   2.746  12.072
24722W        W86253  26.575  13.712   3.375
24723W        W86254  43.993  13.751  12.927
24724W        W86255  25.666   9.198  10.472
24725W        W86256  32.129   8.868   0.304
24726W        W86257  13.127  17.655  11.469
24727W        W86258  14.728  37.384  14.975
24728W        W86259  38.413  11.840   4.342
24729W        W86260  44.412  29.598  13.861
24730W        W86261  29.572   8.676   2.289
24731W        W86262  24.619  37.502  12.483
24732W        W86263  21.731   2.386  12.348
24733W        W86264  44.994  25.091  10.582
24734W        W86265  43.784  26.615   1.771
24735W        W86266  12.258   7.223  10.444
24736W        W86267  35.996  27.165  10.510
24737W        W86268  25.599  16.142   2.809
24738W        W86269  35.852  33.022  14.919
24739W        W86270  41.035  15.128   1.840
24740W        W86271   4.217  27.104  13.051
24741W        W86272   9.805  43.329  12.907
24742W        W86273  18.146   8.797  11.107
24743W        W86274  14.748  17.129  12.919
24744W        W86275  21.681  24.177   2.340
24745W        W86276  15.613  10.286  13.868
24746W        W86277   0.814  22.566   4.113
24747W        W86278   2.299   6.194   4.277
24748W        W86279  35.079   9.857   2.396
24749W        W86280  37.865  12.798   5.227
24750W        W86281   3.858  14.808   2.394
24751W        W86282  16.107  35.091   0.252
24752W        W86283  42.890  20.107  10.569
24753W        W86284  34.064   5.768   4.176
24754W        W86285  15.205   2.292   4.257
24755W        W86286  44.848   7.738   2.870
24756W        W86287  32.092  29.053   2.258
24757W        W86288  32.121   7.784   5.213
24758W        W86289  41.039  14.246   0.798
24759W        W86290  27.594   5.787   4.278
24760W        W86291  14.653  14.636   4.119
24761W        W86292  18.054   6.386  13.798
24762W        W86293   8.284  38.008  14.913
24763W        W86294  35.087   0.832  13.476
24764W        W86295  35.910  11.649   3.811
24765W        W86296  15.756  41.927  10.540
24766W        W86297  44.285  22.534  14.498
24767W        W86298  31.081  32.496  13.864
24768W        W86299   5.816  23.595   3.299
24769W        W86300  36.031  40.477   3.816
24770W        W86301  17.152  15.311   0.398
24771W        W86302   2.249  36.062  13.464
24772W        W86303   9.317  19.124   3.656
24773W        W86304  40.354   6.786   2.721
24774W        W86305  40.548  25.130  12.873
24775W        W86306  41.963  27.012  13.849
24776W        W86307  33.399  21.646   3.647
24777W        W86308  28.642  12.250   2.893
24778W        W86309  13.275  40.030  10.983
24779W        W86310  20.046   3.851  12.946
24780W        W86311  40.872  36.351   4.700
24781W        W86312   9.797  30.070  10.995
24782W        W86313  15.283  36.551  12.548
24783W        W86314   6.732  12.825   2.705
24784W        W86315   5.424  12.256   3.203
24785W        W86316  24.197  22.721   1.869
24786W        W86317  36.979  31.906  14.805
24787W        W86318  39.344  29.614  12.941
24788W        W86319  15.609  42.495  12.548
24789W        W86320   9.831  21.562   0.362
24790W        W86321   3.784  20.687  13.434
24791W        W86322  37.078  39.938   3.303
24792W        W86323  39.559  20.630   0.391
24793W        W86324  40.905  40.312   2.349
24794W        W86325  17.120  40.865  10.916
24795W        W86326  12.764   8.680  13.956
24796W        W86327   0.939  29.514  11.114
24797W        W86328  43.314  11.212  12.467
24798W        W86329  11.822   5.311   1.248
24799W        W86330  17.758  37.857   1.826
24800W        W86331  27.457  36.870   4.277
24801W        W86332   4.255  19.662   3.146
24802W        W86333  10.846  26.582  13.535
24803W        W86334  40.967  32.415   3.316
24804W        W86335  29.983  22.686  14.405
24805W        W86336  15.775  44.455   0.268
24806W        W86337   1.894  32.124   4.687
24807W        W86338  38.837  43.516  14.901
24808W        W86339  32.017   7.220  10.612
24809W        W86340   2.729  39.842  12.083
24810W        W86341  33.567  16.721  12.944
24811W        W86342  42.809  44.886   4.212
24812W        W86343  34.950  14.694   3.268
24813W        W86344   8.750  22.999   4.339
24814W        W86345  18.264  14.678   4.813
24815W        W86346  12.626   6.299   2.806
24816W        W86347   6.184  17.764  14.902
24817W        W86348   4.803  26.969   2.359
24818W        W86349  23.166  18.554  13.493
24819W        W86350  10.290  44.793   4.234
24820W        W86351  32.003  28.603   4.230
24821W        W86352  30.981  42.933  12.025
24822W        W86353  40.543   8.676   1.855
24823W        W86354  32.469   0.764   0.272
24824W        W86355  30.439   6.795   4.179
24825W        W86356  35.598  40.393   2.222
24826W        W86357  29.615  15.150   3.740
24827W        W86358  11.813  29.938   1.707
24828W        W86359  30.582  33.602   1.364
24829W        W86360   4.923  31.047   3.796
24830W        W86361  35.461  33.448   0.953
24831W        W86362  41.432  42.410  14.355
24832W        W86363  14.608  30.054  13.048
24833W        W86364   8.824   5.870  13.005
24834W        W86365  21.532  36.370   4.600
24835W        W86366  10.643  23.734   0.425
24836W        W86367  13.714  19.174  12.472
24837W        W86368  37.975  18.757  14.325
24838W        W86369  28.644  10.310   4.747
24839W        W86370  10.227  17.723   0.257
24840W        W86371  23.543  33.055   0.774
24841W        W86372   4.709  26.140  10.502
24842W        W86373  25.585  25.668  11.529
24843W        W86374  13.603  36.391  12.976
24844W        W86375  24.990  41.874  12.874
24845W        W86376   7.848   0.747   1.754
24846W        W86377  20.648  36.849   2.199
24847W        W86378  27.054  22.035  10.956
24848W        W86379  27.553  35.545   4.733
24849W        W86380  16.728  42.296   0.852
24850W        W86381  38.470   4.334  12.902
24851W        W86382  37.478  16.587  11.870
24852W        W86383  28.074   3.910   0.941
24853W        W86384  11.336  17.223   3.343
24854W        W86385   0.754   2.380   1.244
24855W        W86386  21.216  42.502  14.840
24856W        W86387   0.786  37.841  12.063
24857W        W86388  12.151  44.289   1.246
24858W        W86389  29.022   6.840   5.291
24859W        W86390  22.077  31.600  12.915
24860W        W86391  43.921  24.687   0.382
24861W        W86392  28.054  16.146   1.402
24862W        W86393   3.218  37.867   2.225
24863W        W86394  32.501  31.598   0.380
24864W        W86395   0.967  27.674   1.254
24865W        W86396  25.967   6.678  11.499
24866W        W86397  35.952  35.919   1.401
24867W        W86398   5.382   0.860   4.790
24868W        W86399  16.270  31.521   0.872
24869W        W86400  34.915  13.768  14.969
24870W        W86401  18.214  12.333  13.524
24871W        W86402  18.068   9.299   0.325
24872W        W86403  37.002   3.736   1.441
24873W        W86404  23.625  31.088  14.847
24874W        W86405  38.552  13.339  13.013
24875W        W86406   6.808  44.924  12.526
24876W        W86407  15.142  41.364   1.798
24877W        W86408   7.266   1.306  12.509
24878W        W86409  34.486   5.300   0.307
24879W        W86410  30.653  17.115  12.936
24880W        W86411  43.270  35.974   4.760
24881W        W86412  16.217  25.019   3.769
24882W        W86413  41.012  33.401  12.459
24883W        W86414  18.135  20.261   2.674
24884W        W86415  41.443  36.529  14.817
24885W        W86416   6.247   3.368  13.952
24886W        W86417  11.840  43.454  10.967
24887W        W86418  33.430  39.042   2.856
24888W        W86419  38.388   5.238   3.767
24889W        W86420   3.428   5.816   3.268
24890W        W86421  37.040   1.837   3.336
24891W        W86422   7.825   0.957   3.353
24892W        W86423  38.822  24.622   4.708
24893W        W86424  18.776  30.569  11.606
24894W        W86425  16.655   3.296  10.933
24895W        W86426  19.764  38.917  14.016
24896W        W86427   9.828  13.318   2.405
24897W        W86428  38.945   5.737  13.319
24898W        W86429  22.733   1.941   2.773
24899W        W86430   7.906  10.319  13.498
24900W        W86431  11.816  32.558  13.476
24901W        W86432  21.093   5.410   2.394
24902W        W86433   2.892  17.640  11.427
24903W        W86434  14.749  33.462   1.776
24904W        W86435   0.388  22.716  14.786
24905W        W86436  11.184  27.010  12.970
24906W        W86437   7.687  28.637   1.312
24907W        W86438  16.599  39.010   4.729
24908W        W86439  42.865  42.826   9.938
24909W        W86440  11.711  24.121  11.565
24910W        W86441  18.204   6.891   4.166
24911W        W86442  34.868  31.998   4.290
24912W        W86443   0.750   1.883  10.981
24913W        W86444   9.807   3.803   5.618
24914W        W86445  29.505  40.494  13.818
24915W        W86446  34.096   4.780   1.926
24916W        W86447  43.331   9.234   3.720
24917W        W86448   2.225  14.664  12.475
24918W        W86449  29.062  27.558   2.363
24919W        W86450   2.236  10.848   3.275
24920W        W86451  24.018  18.194  10.081
24921W        W86452  21.606  22.574   3.797
24922W        W86453   5.847  39.326   4.165
24923W        W86454  10.362  37.007   2.183
24924W        W86455  26.477  32.503  11.986
24925W        W86456  11.754  12.168  14.877
24926W        W86457  37.987  16.793   4.681
24927W        W86458  17.768  38.951   1.391
24928W        W86459  23.564  27.567  11.014
24929W        W86460  35.372  35.870  10.451
24930W        W86461  44.771   0.747   2.259
24931W        W86462  22.628   6.731   3.314
24932W        W86463  43.362   0.844  13.926
24933W        W86464  12.289  39.045  11.925
24934W        W86465  40.878  44.944   2.199
24935W        W86466  14.704   5.356   3.197
24936W        W86467  33.950   0.368   1.773
24937W        W86468  27.576  26.601  11.416
24938W        W86469  35.384   7.378   2.766
24939W        W86470  28.031  18.247  12.053
24940W        W86471  13.733  26.174   4.633
24941W        W86472  38.843  30.656   2.731
24942W        W86473  29.133  38.011   4.214
24943W        W86474   5.910  39.441  14.374
24944W        W86475  29.087  10.240   3.317
24945W        W86476  17.626  25.973  14.978
24946W        W86477  38.375  16.292  11.594
24947W        W86478  18.055   6.867   3.813
24948W        W86479  29.049  12.845  13.443
24949W        W86480  34.968  18.630   2.901
24950W        W86481   1.798  30.417   0.472
24951W        W86482   9.150  30.076   4.267
24952W        W86483   4.724  16.186  12.399
24953W        W86484  40.468  39.369   3.719
24954W        W86485  42.354  31.142  10.997
24955W        W86486  31.904  42.375   4.277
24956W        W86487   2.398   1.333  11.904
24957W        W86488  35.062  36.350   3.340
24958W        W86489  44.277  26.678  14.988
24959W        W86490  28.441  17.267   0.939
24960W        W86491  36.961   8.392   0.396
24961W        W86492  13.697  18.101  13.820
24962W        W86493  23.103   6.793   4.351
24963W        W86494   9.861   9.854  14.806
24964W        W86495  10.860  28.613  13.834
24965W        W86496  10.303  14.765  12.885
24966W        W86497  27.007  41.319   4.768
24967W        W86498  36.938  40.428   3.739
24968W        W86499  17.244  37.377   1.840
24969W        W86500  41.824  33.411  14.313
24970W        W86501  10.315   2.270  10.625
24971W        W86502   1.284   5.726  12.037
24972W        W86503  29.979  15.319   0.907
24973W        W86504   8.726  26.514   3.268
24974W        W86505  10.805   5.361  13.015
24975W        W86506   3.249  10.182  12.935
24976W        W86507   3.440  36.872  11.372
24977W        W86508  35.496  25.484  11.502
24978W        W86509  43.929  15.313   0.367
24979W        W86510  31.144  17.717   1.882
24980W        W86511   3.914  26.127   3.233
24981W        W86512  26.004   3.305  14.355
24982W        W86513   0.851   8.212  10.941
24983W        W86514   5.706  23.635  10.489
24984W        W86515   9.783  44.287   2.187
24985W        W86516   5.912  21.184   3.254
24986W        W86517  23.200  43.325  12.448
24987W        W86518  29.040  15.169   0.879
24988W        W86519   4.887  26.549   0.400
24989W        W86520  32.620  44.346   4.633
24990W        W86521  25.157   7.814   4.718
24991W        W86522   4.903  30.482   0.828
24992W        W86523   5.818   8.324  13.358
24993W        W86524  12.647   6.368   4.696
24994W        W86525  37.552  17.239   3.707
24995W        W86526  31.114  17.652   2.233
24996W        W86527  12.773   2.887  14.313
24997W        W86528  14.610   8.326   1.787
24998W        W86529  35.365  28.110   3.287
24999W        W86530   3.819  33.079  12.558
25000W        W86531  20.607  13.351   3.292
25001W        W86532  40.809  11.154  10.144
25002W        W86533   0.443  43.975   0.900
25003W        W86534  41.413   0.835  14.354
25004W        W86535  31.098  28.619   2.844
25005W        W86536  28.668   5.839  12.952
25006W        W86537  37.391  38.528  11.427
25007W        W86538  36.995  40.899  13.324
25008W        W86539  34.954  23.053  13.893
25009W        W86540  30.933  36.412  12.972
25010W        W86541  30.977   3.771  10.970
25011W        W86542  35.886  21.550   1.852
25012W        W86543  28.945  39.881  13.444
25013W        W86544  27.081  13.806   0.248
25014W        W86545  37.516   6.387   3.832
25015W        W86546  23.639  23.657  11.450
25016W        W86547  31.013  34.084   1.924
25017W        W86548  21.150  22.141   4.620
25018W        W86549   6.746  30.637   3.354
25019W        W86550  35.532  29.470   4.242
25020W        W86551  30.018  23.554   0.728
25021W        W86552  29.643  27.177  14.920
25022W        W86553  28.663  30.628  11.515
25023W        W86554  33.023   6.340  13.900
25024W        W86555  41.993  22.136  12.521
25025W        W86556  10.299  37.980   0.383
25026W        W86557  16.195  26.697   0.865
25027W        W86558  34.040  30.432   2.834
25028W        W86559  17.143   6.187  13.490
25029W        W86560   6.754  33.502  14.292
25030W        W86561  41.883  30.453  12.471
25031W        W86562  32.459   2.854  13.946
25032W        W86563  20.568  31.622  13.309
25033W        W86564   5.912  37.040   4.343
25034W        W86565  22.085  14.255  12.824
25035W        W86566  42.397  15.669  12.952
25036W        W86567  26.688  16.205   3.687
25037W        W86568   1.285  27.532  12.470
25038W        W86569   2.391  15.145   2.753
25039W        W86570  34.371   0.778  10.906
25040W        W86571  41.400  23.993   4.145
25041W        W86572  15.608   7.269  12.572
25042W        W86573  28.452  13.828   3.232
25043W        W86574  18.694  29.648  14.838
25044W        W86575   3.241  32.565   2.192
25045W        W86576  10.810   0.494   3.853
25046W        W86577   8.761  37.391   2.889
25047W        W86578  18.634  44.939   3.228
25048W        W86579  27.608   5.918  11.412
25049W        W86580  25.183  37.954   5.321
25050W        W86581  24.207  38.466   0.800
25051W        W86582  18.703   2.868   2.696
25052W        W86583  22.609  41.986   4.606
25053W        W86584  25.113  30.476  11.528
25054W        W86585  27.010  22.997   2.330
25055W        W86586  31.402  23.682   1.760
25056W        W86587   4.882  35.547   0.894
25057W        W86588  43.468  27.160   4.129
25058W        W86589   3.909  42.291   3.673
25059W        W86590  25.659   8.858   1.290
25060W        W86591  34.522  24.669  10.514
25061W        W86592   4.872   6.257   3.257
25062W        W86593   3.954   5.701   1.920
25063W        W86594  44.360   7.824   3.702
25064W        W86595  38.844   8.782   0.822
25065W        W86596  20.093  41.370   2.796
25066W        W86597  24.064  12.674  11.505
25067W        W86598  32.407  37.577  13.321
25068W        W86599  27.644  28.939  11.470
25069W        W86600  33.040  43.942   4.200
25070W        W86601  30.943  41.891   0.923
25071W        W86602  35.868  13.312  11.415
25072W        W86603  28.558  41.330  13.063
25073W        W86604  18.763  38.867   1.762
25074W        W86605  24.681  31.932   2.724
25075W        W86606  10.295  30.603   5.241
25076W        W86607  30.016  35.873  13.439
25077W        W86608  17.732  20.266   0.297
25078W        W86609  43.006  19.225  12.003
25079W        W86610   6.220  31.445  12.077
25080W        W86611  26.523  33.947  12.029
25081W        W86612  11.322  11.850   3.339
25082W        W86613  25.074   8.826   2.823
25083W        W86614  44.427  34.428  14.452
25084W        W86615  16.083  40.524  10.077
25085W        W86616  14.817   5.195   1.835
25086W        W86617  31.946   1.960  14.827
25087W        W86618  27.121  31.601   4.349
25088W        W86619  14.692  28.012   3.721
25089W        W86620   0.482  12.799   0.479
25090W        W86621  36.481  27.043  12.921
25091W        W86622  11.285  25.713   3.797
25092W        W86623  42.300  35.959  12.483
25093W        W86624  18.115  38.452   0.312
25094W        W86625   3.357  34.537   1.254
25095W        W86626   0.920  36.480   4.153
25096W        W86627  34.392  22.146  11.934
25097W        W86628  24.022  30.143  12.911
25098W        W86629  20.111  17.153  14.951
25099W        W86630   9.840   4.275   3.256
25100W        W86631  14.740  34.001   0.741
25101W        W86632  22.607  13.732   3.675
25102W        W86633   8.744  17.239   4.605
25103W        W86634   1.952  40.870  11.024
25104W        W86635   6.314  26.183  13.989
25105W        W86636  42.809  33.047  12.036
25106W        W86637  44.881   2.878  10.458
25107W        W86638  14.139  40.524  12.943
25108W        W86639  18.589  24.108   1.935
25109W        W86640  37.370  21.042   2.229
25110W        W86641  21.702  18.203   0.306
25111W        W86642  34.869  28.678   3.756
25112W        W86643  44.996  17.106  11.090
25113W        W86644  32.504  11.170  12.067
25114W        W86645  44.264  23.677   0.733
25115W        W86646  34.117  14.198   3.147
25116W        W86647  26.568  16.179   0.920
25117W        W86648  33.414  41.891   0.845
25118W        W86649  30.954  33.890  11.474
25119W        W86650   7.895  18.136   0.820
25120W        W86651  19.625   5.726  10.909
25121W        W86652  22.536  16.077   0.457
25122W        W86653  10.354  33.043  13.470
25123W        W86654  29.963  24.002  11.891
25124W        W86655  19.104   4.429   0.419
25125W        W86656  12.266  41.354  14.478
25126W        W86657  39.811   2.305   2.249
25127W        W86658  43.876  41.946   4.222
25128W        W86659   9.769   3.286  13.812
25129W        W86660  35.514   1.886   4.697
25130W        W86661  24.617  12.854  11.528
25131W        W86662  11.807   0.373  12.370
25132W        W86663  39.472  15.287   2.667
25133W        W86664  31.152  44.980  11.008
25134W        W86665  43.386  30.951   1.337
25135W        W86666  30.643  17.713   2.682
25136W        W86667  38.551  13.233  13.834
25137W        W86668  26.158   3.815  11.953
25138W        W86669  29.467  11.738   1.928
25139W        W86670  42.376  42.961   0.359
25140W        W86671  25.063   8.722  10.523
25141W        W86672  31.089  13.606   3.636
25142W        W86673  20.085  33.095   1.364
25143W        W86674  11.244  40.474  10.607
25144W        W86675   7.393  27.470  10.644
25145W        W86676  20.143  16.125  14.437
25146W        W86677  29.133  27.555  12.379
25147W        W86678   7.800   2.453   5.198
25148W        W86679  36.846   3.902   0.309
25149W        W86680   3.228   0.285  10.962
25150W        W86681  37.453  18.631  13.326
25151W        W86682  38.517  28.475   3.217
25152W        W86683  27.025  43.979   3.649
25153W        W86684  24.670  16.247  10.520
25154W        W86685   6.730  23.128  13.312
25155W        W86686   8.265  34.420  10.508
25156W        W86687  27.662  26.199  14.319
25157W        W86688   1.737   1.763  14.915
25158W        W86689  14.271  24.523   3.348
25159W        W86690   4.785  24.553  12.960
25160W        W86691  24.483   5.797   0.782
25161W        W86692  32.497   9.674   1.429
25162W        W86693   1.363   1.955  10.973
25163W        W86694  21.545  31.471  14.316
25164W        W86695  16.577   3.942   3.834
25165W        W86696  14.704  37.976  14.840
25166W        W86697  10.704  13.665   3.762
25167W        W86698  37.840  20.644  13.474
25168W        W86699  16.290  11.339   3.384
25169W        W86700   1.959  34.564   0.297
25170W        W86701  37.045  27.458   4.691
25171W        W86702  40.380   7.417  11.058
25172W        W86703  42.918   5.286   4.123
25173W        W86704  40.976  34.482   0.295
25174W        W86705  33.546  40.489  12.360
25175W        W86706  19.769  28.638   3.762
25176W        W86707  24.080  11.291  11.082
25177W        W86708  18.105   8.322   4.637
25178W        W86709   9.876  39.550   4.779
25179W        W86710  31.640  23.994   0.410
25180W        W86711  38.467  29.009  11.038
25181W        W86712   1.403  36.419   1.749
25182W        W86713  34.542  23.186  14.804
25183W        W86714  36.488  13.307  12.933
25184W        W86715   3.389  33.423  14.886
25185W        W86716  21.757  43.888  13.016
25186W        W86717  41.809  38.513   2.395
25187W        W86718  38.387   4.817   3.801
25188W        W86719  30.978  26.542   2.735
25189W        W86720  41.935   1.334  12.967
25190W        W86721   0.815  12.263  12.471
25191W        W86722   6.910  44.919   3.741
25192W        W86723   3.878  36.377  11.931
25193W        W86724   0.357   0.908  12.361
25194W        W86725  10.154  11.756   0.393
25195W        W86726  28.482  31.953  12.515
25196W        W86727  10.866  23.179   1.328
25197W        W86728  41.321  11.842   1.857
25198W        W86729  38.907  35.930   1.843
25199W        W86730  42.401  42.025   2.271
25200W        W86731   9.748  31.406   4.720
25201W        W86732  27.479  41.451  12.558
25202W        W86733  39.373  24.213  13.432
25203W        W86734  41.482  27.186  14.969
25204W        W86735  29.153  26.584  12.464
25205W        W86736  41.833  31.913   3.368
25206W        W86737   3.806   2.471  12.850
25207W        W86738  10.338  42.306  14.834
25208W        W86739  36.480  39.451  12.031
25209W        W86740  38.486  38.013   0.921
25210W        W86741  40.379  24.521  14.990
25211W        W86742  17.729  14.622   0.835
25212W        W86743  12.319  11.745   2.823
25213W        W86744   8.835  24.629   3.227
25214W        W86745  28.055  29.441   4.807
25215W        W86746  20.074   9.830   1.797
25216W        W86747   3.886  38.412  11.552
25217W        W86748  39.499  40.423  11.906
25218W        W86749  41.487  25.000  12.555
25219W        W86750  30.942  24.647  11.126
25220W        W86751  36.073  40.043   4.143
25221W        W86752  21.554   7.304   3.805
25222W        W86753  43.897  10.236   4.736
25223W        W86754   1.249  19.285  12.029
25224W        W86755  33.051   9.738  10.953
25225W        W86756   1.315  17.608  11.446
25226W        W86757   5.363  27.652   1.422
25227W        W86758   3.799  28.985  12.011
25228W        W86759  36.411  12.661  14.979
25229W        W86760  30.009  17.631   1.289
25230W        W86761  30.997  11.814   4.210
25231W        W86762  32.581   1.384  11.465
25232W        W86763  23.736  15.696  12.340
25233W        W86764  20.633  29.946  12.941
25234W        W86765  10.368   1.772   4.325
25235W        W86766  14.228  32.574   1.909
25236W        W86767  44.284  31.541  11.989
25237W        W86768  23.627  12.143  13.961
25238W        W86769  21.694  32.066   5.177
25239W        W86770  12.810   7.272  13.391
25240W        W86771  29.610   9.281  12.899
25241W        W86772  17.149  23.065  14.883
25242W        W86773   4.796  10.187  12.858
25243W        W86774   9.722  15.637   1.848
25244W        W86775  28.612   7.393   0.750
25245W        W86776  37.928  13.307  13.824
25246W        W86777  41.337   5.257   1.803
25247W        W86778  19.145  42.428   4.220
25248W        W86779  34.450  18.198   4.705
25249W        W86780   3.878   3.231  12.882
25250W        W86781  24.223   0.490   3.255
25251W        W86782  35.570  38.840   3.228
25252W        W86783  29.167  38.411   0.815
25253W        W86784  18.777  33.475   0.967
25254W        W86785  37.026  11.622   0.913
25255W        W86786  24.224  15.209  13.877
25256W        W86787  44.875  33.964   3.168
25257W        W86788  11.148  31.510  13.433
25258W        W86789  26.469  10.244  12.831
25259W        W86790  39.379   5.782   1.324
25260W        W86791  34.460   4.438   0.396
25261W        W86792  38.885  20.188   0.886
25262W        W86793   8.823  32.932  13.423
25263W        W86794  35.037  21.523   2.268
25264W        W86795  35.408  37.024   4.194
25265W        W86796  35.892  30.959  13.805
25266W        W86797   3.228  43.853  11.516
25267W        W86798   7.321  39.361   2.272
25268W        W86799  14.292  39.812   4.678
25269W        W86800  31.970   7.801  11.413
25270W        W86801  18.195  42.917  11.608
25271W        W86802  44.895  21.056   3.357
25272W        W86803  36.001  39.917   9.574
25273W        W86804  24.691  25.206  10.639
25274W        W86805  29.545  13.680   3.300
25275W        W86806  25.143  20.557   2.320
25276W        W86807  35.421   4.408  12.541
25277W        W86808  29.593  19.549   5.181
25278W        W86809  17.260  38.838   4.816
25279W        W86810  17.062  25.023   0.896
25280W        W86811  26.177  24.037  11.460
25281W        W86812  29.471  35.406   0.451
25282W        W86813  29.465  24.063   0.762
25283W        W86814   2.792  42.310   4.752
25284W        W86815  23.683  39.490   3.245
25285W        W86816  26.009  25.163  14.023
25286W        W86817  26.977  39.469  14.984
25287W        W86818  39.002  37.066  14.944
25288W        W86819  37.037  17.164  10.487
25289W        W86820  34.020  14.164   0.408
25290W        W86821  15.823   0.787   4.320
25291W        W86822  40.991  39.906   3.355
25292W        W86823  26.603  13.138  10.588
25293W        W86824  30.553   6.243   1.392
25294W        W86825  12.217  32.439  14.796
25295W        W86826  43.455   9.205   2.339
25296W        W86827  19.621   0.770   2.340
25297W        W86828  44.874   2.405  14.299
25298W        W86829  27.071  44.818  12.533
25299W        W86830  34.570   8.680  12.831
25300W        W86831  32.407   4.432  13.548
25301W        W86832  27.081  28.644  11.565
25302W        W86833  39.834   5.223   4.142
25303W        W86834   1.837  11.624  10.930
25304W        W86835  12.725  37.879  12.051
25305W        W86836  43.858  44.309  10.499
25306W        W86837   2.798  10.246  12.964
25307W        W86838  17.733  18.701   3.257
25308W        W86839  20.632   5.852   4.821
25309W        W86840  22.579  20.691   1.371
25310W        W86841  37.946   4.295   1.449
25311W        W86842  16.151  42.978   3.159
25312W        W86843  27.081  27.684   3.243
25313W        W86844  43.774   1.914  13.364
25314W        W86845   5.843  35.057   2.221
25315W        W86846  10.167  40.499   1.361
25316W        W86847  20.571   4.412  13.395
25317W        W86848   6.794  43.330  13.515
25318W        W86849  33.069  13.755  12.094
25319W        W86850   9.355  30.089   3.206
25320W        W86851  24.978  33.613  14.877
25321W        W86852   8.862  11.330   1.360
25322W        W86853  11.865  41.300  11.443
25323W        W86854  21.124  43.826  13.325
25324W        W86855  28.114  19.096   3.812
25325W        W86856  11.819  31.478  11.124
25326W        W86857  23.144  40.324   1.277
25327W        W86858  12.740  22.708  11.003
25328W        W86859  26.664  10.798   3.275
25329W        W86860  22.527   0.787  10.572
25330W        W86861  18.064  26.018  14.373
25331W        W86862  43.301  24.657   1.230
25332W        W86863  21.552  37.878  13.324
25333W        W86864  38.458   3.729  13.792
25334W        W86865  23.498  32.911   3.149
25335W        W86866  43.312   6.770  12.990
25336W        W86867  28.128  13.253   1.309
25337W        W86868  16.709  35.451   4.630
25338W        W86869  22.126  31.463  13.920
25339W        W86870  22.724  14.655  13.350
25340W        W86871  17.602   8.880   2.743
25341W        W86872   6.347  31.898  12.028
25342W        W86873  37.401  10.248  14.809
25343W        W86874   4.704  36.436  12.537
25344W        W86875  14.198  32.091  12.578
25345W        W86876  28.178  30.115  13.869
25346W        W86877  19.102   7.861   4.614
25347W        W86878   2.360  44.953  13.811
25348W        W86879  40.953   2.308  10.535
25349W        W86880  31.046  22.636  11.415
25350W        W86881  36.071  33.949   2.231
25351W        W86882  24.053   4.413   3.339
25352W        W86883   4.450  18.782   0.441
25353W        W86884  17.582  20.703   3.324
25354W        W86885  29.521  11.164  10.471
25355W        W86886   1.776  40.962  10.531
25356W        W86887   0.369  29.166  13.419
25357W        W86888  15.804  11.230  11.063
25358W        W86889  34.875  13.639   3.218
25359W        W86890   6.863  30.125  14.382
25360W        W86891  29.166  19.633   2.282
25361W        W86892  18.695   3.727  13.361
25362W        W86893  15.220  29.665  11.922
25363W        W86894  27.009  29.573  14.940
25364W        W86895   1.379   7.876  13.966
25365W        W86896  24.640   8.849   0.814
25366W        W86897  12.614  35.515  10.603
25367W        W86898  22.621   2.233  13.450
25368W        W86899  14.792   3.952   2.402
25369W        W86900   2.286  33.921  14.417
25370W        W86901  17.774  42.298  11.452
25371W        W86902   6.189   4.742   4.133
25372W        W86903   4.231  32.628   1.883
25373W        W86904  43.480   1.872  12.853
25374W        W86905   2.267  19.552  13.056
25375W        W86906   4.764  21.718  14.971
25376W        W86907  11.846  20.625   2.727
25377W        W86908  34.607   5.279  12.025
25378W        W86909  25.219   3.311   4.609
25379W        W86910  21.729   7.176  12.986
25380W        W86911  22.544  41.965   5.116
25381W        W86912   0.746  13.245   4.676
25382W        W86913  29.431   0.904   5.309
25383W        W86914  41.326   7.316   2.716
25384W        W86915  35.489  41.503   1.266
25385W        W86916  32.579  22.216   1.889
25386W        W86917   9.176  15.300  10.892
25387W        W86918   7.319  15.582   2.338
25388W        W86919  24.577   9.291  10.561
25389W        W86920  27.622  15.582  12.417
25390W        W86921  39.469   9.769  14.974
25391W        W86922  20.254  40.968   2.770
25392W        W86923  24.628  19.749  14.423
25393W        W86924   3.446  17.591   2.336
25394W        W86925   3.311  35.003  13.840
25395W        W86926  14.589  35.063  14.394
25396W        W86927  16.677  29.574   3.758
25397W        W86928  23.089  31.053  13.310
25398W        W86929  25.031   6.726   1.907
25399W        W86930   5.796  32.415  14.438
25400W        W86931  38.341   8.306   4.284
25401W        W86932   2.837   5.847  11.898
25402W        W86933  12.659  16.709  13.462
25403W        W86934   8.365  12.680   0.428
25404W        W86935  41.979   4.942   3.376
25405W        W86936   0.298  26.601  10.978
25406W        W86937  16.759  44.994  13.378
25407W        W86938  16.779  14.153   1.341
25408W        W86939   0.745  36.540  14.932
25409W        W86940  15.761  29.012  14.936
25410W        W86941  28.448  13.618   4.753
25411W        W86942   9.807  35.520   3.635
25412W        W86943  23.039  41.320  12.869
25413W        W86944  16.103  24.156   2.902
25414W        W86945  43.886  37.080   0.269
25415W        W86946  44.320  14.277   4.737
25416W        W86947   2.733  41.332   0.863
25417W        W86948  32.084  25.180   1.904
25418W        W86949  18.184  27.948   2.682
25419W        W86950  12.283  17.676   3.250
25420W        W86951   1.330  20.754   0.320
25421W        W86952   5.338  18.622   4.200
25422W        W86953   6.794  37.919   4.178
25423W        W86954  22.104  32.542  14.980
25424W        W86955  38.860  19.742   3.639
25425W        W86956   8.405  39.451   4.638
25426W        W86957  39.545  41.456   3.354
25427W        W86958  25.682   5.888  13.357
25428W        W86959  36.572  26.006   0.367
25429W        W86960  17.647   3.867  14.419
25430W        W86961  14.186  44.370   5.131
25431W        W86962  17.728  14.094  12.846
25432W        W86963  31.903  30.457  14.000
25433W        W86964  19.275  37.522   5.202
25434W        W86965  28.083  22.150  13.795
25435W        W86966  15.170   6.872   4.141
25436W        W86967  38.058   5.343  12.832
25437W        W86968  38.466  38.545   5.595
25438W        W86969  16.646   3.768  12.539
25439W        W86970  31.131  26.464   4.781
25440W        W86971   7.803  36.901  12.467
25441W        W86972  24.068  25.664  12.057
25442W        W86973  35.101  25.210  11.960
25443W        W86974  44.289  10.854   4.224
25444W        W86975  14.326  20.069   3.798
25445W        W86976  20.153   3.227   1.826
25446W        W86977  10.720  38.976  10.890
25447W        W86978  26.584  39.493  13.459
25448W        W86979  14.744  40.938  11.910
25449W        W86980  35.423   6.709   0.754
25450W        W86981  34.934   7.743   4.659
25451W        W86982  29.427  29.636   4.818
25452W        W86983   3.711  12.745  11.526
25453W        W86984   3.831  44.370  13.428
25454W        W86985  16.754  25.078   1.719
25455W        W86986   0.375  29.115  11.603
25456W        W86987  42.376   6.735   1.358
25457W        W86988   0.840   3.786   3.812
25458W        W86989   5.708   2.401  13.529
25459W        W86990  13.698  20.767   4.774
25460W        W86991  25.651  11.805  14.332
25461W        W86992   4.877  29.012   4.121
25462W        W86993  12.328  33.414   4.319
25463W        W86994  31.631  39.541  12.953
25464W        W86995  10.862   8.842  11.054
25465W        W86996   3.936  34.534  11.530
25466W        W86997  43.830  34.049   0.283
25467W        W86998  43.978  31.494  13.532
25468W        W86999  34.993  18.695   5.208
25469W        W87000  17.631  16.267   2.666
25470W        W87001  24.675  44.948   2.325
25471W        W87002  34.940  40.323  14.392
25472W        W87003  34.450  11.231  10.059
25473W        W87004  25.009  17.756   1.841
25474W        W87005   5.813  37.484   4.201
25475W        W87006   4.924  13.787   1.767
25476W        W87007  26.652  44.772  11.089
25477W        W87008   6.318  43.312   4.169
25478W        W87009  17.558  36.564   1.336
25479W        W87010   7.287  21.184  13.055
25480W        W87011  44.787  20.264   1.323
25481W        W87012  44.881  41.473  14.988
25482W        W87013  18.129   7.399  13.468
25483W        W87014  10.692  20.540   0.768
25484W        W87015  17.670  22.230   3.814
25485W        W87016   7.812  31.556  13.926
25486W        W87017   3.906   0.278  13.794
25487W        W87018   9.386  37.571  14.422
25488W        W87019  40.444   5.732   3.727
25489W        W87020   4.920  39.049   0.739
25490W        W87021   9.368  29.512   4.826
25491W        W87022  24.041  12.684   1.388
25492W        W87023  15.096  36.036  13.042
25493W        W87024  43.438  33.122  14.980
25494W        W87025  25.477  24.986   2.267
25495W        W87026  11.859  40.428  10.152
25496W        W87027  35.445  26.527  12.457
25497W        W87028  21.232   8.764  11.574
25498W        W87029   5.894  38.017  12.010
25499W        W87030  28.992  23.070   1.271
25500W        W87031  22.251  27.512  12.842
25501W        W87032   7.212  31.902  14.953
25502W        W87033   8.723  29.574  10.514
25503W        W87034  28.944  16.576  14.880
25504W        W87035   9.181  17.279   2.852
25505W        W87036  15.607  18.562   2.339
25506W        W87037  40.329  38.027  11.942
25507W        W87038   8.279   4.441  12.981
25508W        W87039  44.484   7.686   4.268
25509W        W87040  15.611  28.970   0.911
25510W        W87041  19.650  12.289   3.241
25511W        W87042  40.353  11.666  12.493
25512W        W87043  28.938  21.630  12.951
25513W        W87044  17.672  24.058   2.730
25514W        W87045   7.376  40.323   2.333
25515W        W87046  35.943   4.296   1.748
25516W        W87047   0.278  43.277  10.626
25517W        W87048  39.918  20.259   1.935
25518W        W87049  43.896  27.572  11.017
25519W        W87050  13.198  18.132  11.100
25520W        W87051  18.680  43.854  10.971
25521W        W87052   9.222   0.976   0.751
25522W        W87053  10.862   9.301  11.902
25523W        W87054  35.562  36.382   0.869
25524W        W87055  28.613  37.909  11.919
25525W        W87056  13.185  17.713   2.224
25526W        W87057  22.719   0.896  10.937
25527W        W87058  15.254  34.530   3.314
25528W        W87059  39.452  36.452  10.586
25529W        W87060  35.492  31.056   3.796
25530W        W87061  21.246  35.376  14.762
25531W        W87062   0.959  33.925  12.485
25532W        W87063  28.672  18.170  12.851
25533W        W87064  36.904  34.871   4.651
25534W        W87065   9.813  16.081  13.330
25535W        W87066  36.070  27.169  12.404
25536W        W87067   2.406  33.612  13.526
25537W        W87068  15.813  39.336   0.369
25538W        W87069  18.075   0.453   1.428
25539W        W87070  17.717  24.038  10.602
25540W        W87071   3.878  42.920   0.407
25541W        W87072  25.061  35.471   3.269
25542W        W87073   3.737  30.990   1.918
25543W        W87074  25.007  44.986   1.285
25544W        W87075  14.826  38.864   3.338
25545W        W87076  21.209  20.039   4.322
25546W        W87077  36.949   7.710  14.508
25547W        W87078  33.573  11.207   2.665
25548W        W87079  15.237  41.930   0.403
25549W        W87080   2.742  38.912   0.431
25550W        W87081  18.113  41.483   0.401
25551W        W87082  42.867   5.404  13.045
25552W        W87083  15.634   2.245   4.670
25553W        W87084  35.887  26.997  13.382
25554W        W87085  25.132   7.395  10.436
25555W        W87086  21.601   6.808  12.037
25556W        W87087   3.415  26.583   9.922
25557W        W87088  15.778  19.617  13.414
25558W        W87089  23.671  17.767   2.821
25559W        W87090  42.894  22.526   5.205
25560W        W87091   9.667   2.311  12.963
25561W        W87092  32.935  36.914   4.202
25562W        W87093  29.553  18.658  14.310
25563W        W87094  29.467  40.923   3.161
25564W        W87095  38.983  42.356   1.832
25565W        W87096  35.488  13.642  10.967
25566W        W87097   6.308  13.760  11.996
25567W        W87098  12.778  40.833  11.540
25568W        W87099  10.778  12.637   3.713
25569W        W87100  43.794  36.361  13.530
25570W        W87101  13.302  18.075   3.679
25571W        W87102   1.399  29.102   3.844
25572W        W87103   3.922  35.093   1.866
25573W        W87104  21.227  29.923  14.952
25574W        W87105  20.097  20.552   4.812
25575W        W87106   4.827  22.075  14.337
25576W        W87107  34.019  35.360  14.925
25577W        W87108  37.917   9.200  14.918
25578W        W87109  11.370  29.539  12.079
25579W        W87110  24.201  11.235   0.314
25580W        W87111  11.209  39.966   4.719
25581W        W87112  14.262  29.635   2.335
25582W        W87113  32.125  38.455   0.354
25583W        W87114  33.397  28.150  12.079
25584W        W87115  16.083  35.414   3.366
25585W        W87116   8.327  32.076  11.404
25586W        W87117   1.978  14.290  14.878
25587W        W87118  32.414  23.665  12.364
25588W        W87119  37.471   5.225   0.448
25589W        W87120   4.843  17.286  10.925
25590W        W87121  20.765  44.834  13.983
25591W        W87122  18.791  18.608   3.639
25592W        W87123   2.722   5.266   3.762
25593W        W87124  17.300  19.686  12.971
25594W        W87125  36.094  14.603   1.789
25595W        W87126  16.668  39.502   3.240
25596W        W87127  43.478  40.521   2.781
25597W        W87128  21.059  34.392  11.608
25598W        W87129   2.360  38.993  11.030
25599W        W87130  42.329  32.594   4.649
25600W        W87131   9.761   5.851   4.768
25601W        W87132  16.108  37.940   2.341
25602W        W87133   4.804  16.089   1.857
25603W        W87134  41.397  10.342   4.708
25604W        W87135   1.383   7.853  14.344
25605W        W87136  37.909  37.351   3.229
25606W        W87137  38.908   4.699  10.067
25607W        W87138  25.483  14.758  14.886
25608W        W87139   8.359  11.708   3.204
25609W        W87140  20.198  11.696   1.719
25610W        W87141  21.075  22.014  11.458
25611W        W87142  38.380   6.773  10.003
25612W        W87143   8.280  14.288  14.446
25613W        W87144  44.969  11.735  12.347
25614W        W87145  11.269  30.002   2.216
25615W        W87146  20.199  14.193   4.697
25616W        W87147  41.912   3.757   1.780
25617W        W87148  42.864  28.012  13.489
25618W        W87149  28.986  38.869   2.855
25619W        W87150   4.867   4.923   1.418
25620W        W87151  34.482  30.612   0.433
25621W        W87152   1.241  24.086  11.581
25622W        W87153  38.348   7.759   4.253
25623W        W87154  21.133  37.565   4.624
25624W        W87155  31.941   4.785  10.479
25625W        W87156  13.619  24.121  13.932
25626W        W87157  37.366  15.126   2.736
25627W        W87158  19.543  33.963   4.635
25628W        W87159  40.483  43.864   2.278
25629W        W87160  30.150  26.523  14.969
25630W        W87161   7.407   1.935   2.305
25631W        W87162  15.653  12.245   2.814
25632W        W87163  20.255  36.882  11.507
25633W        W87164   6.901  14.683   0.242
25634W        W87165  12.765   0.492  12.368
25635W        W87166   6.404  21.224   5.302
25636W        W87167  23.038  31.053  14.447
25637W        W87168  15.221  36.512  13.840
25638W        W87169   8.785  44.911  11.087
25639W        W87170  11.634  12.169   4.183
25640W        W87171  25.141  36.951   0.745
25641W        W87172   1.800   5.844  11.415
25642W        W87173  39.038   4.838   2.711
25643W        W87174  27.969  39.861  13.547
25644W        W87175  40.845  32.405  12.453
25645W        W87176  32.594  20.202   3.778
25646W        W87177   2.762  22.510  12.884
25647W        W87178   5.216  27.098  14.459
25648W        W87179  26.520   4.796   3.732
25649W        W87180  25.530  15.594   4.602
25650W        W87181  30.423  28.555  10.453
25651W        W87182  30.617  20.623  13.368
25652W        W87183  20.632   9.786  12.058
25653W        W87184  39.518  33.418   2.758
25654W        W87185   2.296  40.517   4.646
25655W        W87186   4.441  35.954   3.655
25656W        W87187  29.086  39.539   1.926
25657W        W87188  18.079  34.968   1.810
25658W        W87189  25.002   9.883   3.633
25659W        W87190   3.805  31.903   1.719
25660W        W87191  20.219   6.289  11.479
25661W        W87192  24.639  38.451   2.692
25662W        W87193  26.960  11.244  14.765
25663W        W87194  40.016  24.102   1.343
25664W        W87195  13.224  11.148  14.435
25665W        W87196  13.841  17.755  12.008
25666W        W87197   0.922  15.752   0.760
25667W        W87198  18.148  17.277  12.410
25668W        W87199   3.352  41.301   2.210
25669W        W87200  20.534  13.204  12.078
25670W        W87201  38.549  31.533   1.329
25671W        W87202   7.373  24.617   0.439
25672W        W87203   5.860  12.809  12.530
25673W        W87204   5.287  43.871   1.882
25674W        W87205  11.652   2.425  12.084
25675W        W87206  42.864  42.342  12.345
25676W        W87207  15.677  35.411  12.518
25677W        W87208  33.130  24.712  12.423
25678W        W87209   3.711   4.754  11.384
25679W        W87210  13.769  31.524   3.164
25680W        W87211  38.035  40.854  14.898
25681W        W87212  23.166   4.801   2.770
25682W        W87213  27.485   0.989  13.980
25683W        W87214  32.528  29.504   2.889
25684W        W87215  36.404  22.595   2.373
25685W        W87216  31.408  24.190  11.871
25686W        W87217  21.138   8.771  12.409
25687W        W87218  31.934  44.394  13.374
25688W        W87219  42.778  18.771  12.362
25689W        W87220  22.563  17.572  12.580
25690W        W87221  36.471  20.075  14.812
25691W        W87222   4.330  19.190   2.278
25692W        W87223  18.755  33.111   4.176
25693W        W87224  30.419  24.054   2.879
25694W        W87225   4.418   5.239  12.568
25695W        W87226  13.220   9.351  11.100
25696W        W87227  44.870  42.519  10.528
25697W        W87228  27.004  27.498   4.704
25698W        W87229  17.601  26.471   2.825
25699W        W87230   1.409  37.008  12.478
25700W        W87231  42.470  22.188  13.309
25701W        W87232  39.994  38.847   4.345
25702W        W87233  28.158  24.628   2.390
25703W        W87234   8.285  24.973   4.267
25704W        W87235  42.032  31.464  11.541
25705W        W87236  27.117   5.885   3.651
25706W        W87237  44.757  19.552   1.226
25707W        W87238  37.435   6.748  11.865
25708W        W87239  13.176  12.129  10.557
25709W        W87240   7.746  26.146   4.228
25710W        W87241  20.220  14.242   3.150
25711W        W87242  17.635  15.824   4.149
25712W        W87243  28.659  16.749   1.320
25713W        W87244  23.604   0.342  14.430
25714W        W87245  24.565  13.827   3.722
25715W        W87246  43.920  37.571  10.464
25716W        W87247   2.291  42.502   3.299
25717W        W87248   8.265  27.005  14.302
25718W        W87249  18.263   2.380   3.687
25719W        W87250  19.205  33.130   3.833
25720W        W87251  38.017   6.400  10.624
25721W        W87252   2.314  40.323  14.781
25722W        W87253  39.489  21.669  14.386
25723W        W87254  43.368  34.585   4.228
25724W        W87255  34.909  35.966  13.310
25725W        W87256   0.374   2.378   2.409
25726W        W87257  24.000  31.582   3.771
25727W        W87258   0.373  30.125  13.926
25728W        W87259  32.422  28.628   3.699
25729W        W87260   2.846  14.698   0.795
25730W        W87261  22.216  44.954   2.185
25731W        W87262  43.488   1.743  12.024
25732W        W87263  21.203  24.054  12.024
25733W        W87264  32.579   0.906  10.062
25734W        W87265   6.818  25.695  12.992
25735W        W87266   3.863   2.344   1.783
25736W        W87267  41.501  35.359  14.975
25737W        W87268  14.206  43.397   0.244
25738W        W87269  32.062  35.105   0.944
25739W        W87270  11.231  33.591  14.450
25740W        W87271   0.747   5.347   2.750
25741W        W87272  19.566  23.178   3.211
25742W        W87273  33.025  37.459  14.870
25743W        W87274  26.103   5.871  11.117
25744W        W87275  41.438  29.588  11.892
25745W        W87276   7.854  27.531   4.220
25746W        W87277   7.772  26.198   1.353
25747W        W87278  14.187  40.038  14.350
25748W        W87279  42.831   3.451  14.787
25749W        W87280  33.875  30.564  12.073
25750W        W87281  26.995   0.445  12.850
25751W        W87282  29.995  23.687  11.539
25752W        W87283  28.563   5.907  11.870
25753W        W87284  22.174  24.549  12.362
25754W        W87285  23.615  13.808   0.901
25755W        W87286  25.202  40.871   4.261
25756W        W87287  11.349  38.368  10.474
25757W        W87288  35.365  29.426  12.469
25758W        W87289  40.467   4.799   1.928
25759W        W87290  32.959  43.444   2.266
25760W        W87291  13.627  27.565   1.861
25761W        W87292  22.240  38.026   0.354
25762W        W87293  11.253  36.880  13.041
25763W        W87294   5.813  42.924  13.801
25764W        W87295   0.494  43.496  13.957
25765W        W87296   4.299  37.841  10.643
25766W        W87297   6.305  12.705   1.289
25767W        W87298  43.275  10.364  10.917
25768W        W87299  41.301   3.290   0.258
25769W        W87300   8.731  11.283  11.607
25770W        W87301   6.419  14.167  13.445
25771W        W87302   7.679  27.181  12.425
25772W        W87303  43.796   4.932  14.889
25773W        W87304   6.383  16.657   4.117
25774W        W87305  29.447   9.302  10.060
25775W        W87306  28.626   6.921   9.983
25776W        W87307   1.780  42.395   4.347
25777W        W87308   9.701  18.586  13.820
25778W        W87309   6.397  35.008   4.794
25779W        W87310  30.908  40.542  13.044
25780W        W87311  35.896   3.770  12.485
25781W        W87312  28.941  11.307   3.254
25782W        W87313  33.488   7.302   3.307
25783W        W87314  37.006  22.704  11.943
25784W        W87315   0.921  38.932   1.365
25785W        W87316  42.413  34.456  12.547
25786W        W87317  24.568  40.346   4.794
25787W        W87318  16.726  31.028  13.493
25788W        W87319  38.388  34.474  12.043
25789W        W87320  22.039  41.834  13.486
25790W        W87321  36.084  18.782  10.974
25791W        W87322  11.290  38.335  13.441
25792W        W87323  25.180  25.156  11.071
25793W        W87324  18.656  14.715   3.273
25794W        W87325  19.129   9.233   0.454
25795W        W87326  35.424  25.490   2.340
25796W        W87327  36.017   6.882  14.328
25797W        W87328   8.659  16.786   2.802
25798W        W87329  38.486   7.896  11.554
25799W        W87330  21.618  15.315   2.877
25800W        W87331  14.759  32.543  13.468
25801W        W87332   9.797  18.706  11.559
25802W        W87333  32.982  23.173   2.719
25803W        W87334  25.041   0.763  13.473
25804W        W87335  12.687   7.818   1.819
25805W        W87336  43.858  33.466  11.050
25806W        W87337  35.409  31.118   0.271
25807W        W87338  11.293  24.499   0.799
25808W        W87339  42.478  10.731   1.391
25809W        W87340  23.136  42.498   2.367
25810W        W87341  15.680  17.652   1.882
25811W        W87342   4.396   1.820   3.255
25812W        W87343  19.134  36.909   3.297
25813W        W87344  43.000  19.108   1.917
25814W        W87345  32.431  23.159  11.471
25815W        W87346   4.755  21.020   2.791
25816W        W87347  25.054  43.945   0.325
25817W        W87348  17.624  35.530   2.755
25818W        W87349  35.532  12.834   1.859
25819W        W87350  21.589   1.801  13.535
25820W        W87351  30.496  40.969  12.097
25821W        W87352  33.909  40.500   1.744
25822W        W87353  29.585  26.491   1.927
25823W        W87354  23.227  18.712   4.165
25824W        W87355   6.262  32.100   1.433
25825W        W87356  11.686   3.861  14.027
25826W        W87357  19.228   0.755  12.343
25827W        W87358  38.475  22.015  13.481
25828W        W87359  15.722  25.477  10.910
25829W        W87360   3.237   8.728  14.878
25830W        W87361  22.082  21.609   4.680
25831W        W87362   4.925   9.737   0.270
25832W        W87363  33.909  25.971   2.879
25833W        W87364   5.300  31.998  14.912
25834W        W87365  19.172   2.347  14.965
25835W        W87366  10.230  34.080  12.857
25836W        W87367  40.828  39.048  14.971
25837W        W87368   0.840   9.871   4.627
25838W        W87369  22.742  26.201  13.504
25839W        W87370   3.941  30.583  14.381
25840W        W87371   3.229  37.948   1.287
25841W        W87372  38.467   2.370   3.756
25842W        W87373  29.507   7.790   1.417
25843W        W87374  13.336  25.580   1.932
25844W        W87375   9.846  43.500  12.569
25845W        W87376   5.380  38.003  11.548
25846W        W87377  35.410  13.295   3.847
25847W        W87378  31.574   5.757  10.917
25848W        W87379  32.453  26.046   4.767
25849W        W87380  36.410  22.574   0.471
25850W        W87381  12.721  22.218  10.558
25851W        W87382   6.891  31.490   3.225
25852W        W87383   7.350  26.480   0.934
25853W        W87384  25.220  26.477   2.770
25854W        W87385  40.473  39.853   4.184
25855W        W87386   3.267  42.367  11.565
25856W        W87387  19.735  23.017   4.266
25857W        W87388  30.432  40.843   1.237
25858W        W87389  24.553  35.956  10.897
25859W        W87390  14.821  30.060   1.256
25860W        W87391  26.541  22.092  13.898
25861W        W87392  18.253  35.093   2.787
25862W        W87393  41.871  24.573  13.847
25863W        W87394  31.006  28.983   4.349
25864W        W87395  38.560  19.093   2.827
25865W        W87396  39.957  43.945   2.782
25866W        W87397  19.759  12.294  11.896
25867W        W87398  23.233   4.711  10.991
25868W        W87399  35.877   0.938  13.861
25869W        W87400   2.344  23.227  13.064
25870W        W87401   5.929  44.794  13.936
25871W        W87402  35.039  19.747  10.565
25872W        W87403  41.015  34.476  13.930
25873W        W87404  18.077  17.096   4.645
25874W        W87405   0.989  36.978   1.798
25875W        W87406   3.261   2.891   3.668
25876W        W87407  19.634  21.050  13.031
25877W        W87408  38.535  27.160   0.953
25878W        W87409  38.842   0.248   4.254
25879W        W87410  18.077  20.618  11.008
25880W        W87411  27.116  37.487  11.904
25881W        W87412   5.210   8.322  13.016
25882W        W87413  19.654  25.086  14.955
25883W        W87414  36.506  44.879   3.702
25884W        W87415  21.133  24.987   2.769
25885W        W87416   7.776  34.104   2.211
25886W        W87417  42.004  42.342   0.902
25887W        W87418   5.932   2.459   0.319
25888W        W87419  31.477  28.116  14.012
25889W        W87420   6.855   2.762   5.132
25890W        W87421   6.246  12.176  12.440
25891W        W87422  37.355   9.353  14.024
25892W        W87423  37.483  21.201  13.406
25893W        W87424  44.931  35.096   0.947
25894W        W87425  39.828   9.267  12.341
25895W        W87426  28.663  16.621  10.967
25896W        W87427  14.280  14.689   0.814
25897W        W87428  42.014  44.767  10.625
25898W        W87429  23.490  15.734  11.527
25899W        W87430  38.346  27.167  14.360
25900W        W87431  30.609  33.971   1.753
25901W        W87432  28.491  34.453  11.587
25902W        W87433   9.655  26.479  14.009
25903W        W87434  18.788  26.542  12.003
25904W        W87435  36.028  15.251   1.251
25905W        W87436  21.259  39.030   0.404
25906W        W87437  41.326   3.945  12.440
25907W        W87438  20.131  30.526  10.630
25908W        W87439  35.035  22.186   2.234
25909W        W87440  22.544  27.987   4.671
25910W        W87441  25.590  39.422   1.694
25911W        W87442  41.910  18.170   4.701
25912W        W87443   4.764   7.671  11.477
25913W        W87444  12.193  40.328   0.775
25914W        W87445  28.659   7.322  10.032
25915W        W87446  31.538  35.888  10.428
25916W        W87447  20.212  13.164  11.961
25917W        W87448   3.290  16.122  14.001
25918W        W87449  29.579  31.470   2.217
25919W        W87450  37.977   4.858  12.459
25920W        W87451   3.380  25.025  14.864
25921W        W87452  10.736  22.244  11.604
25922W        W87453  36.087  10.780   1.400
25923W        W87454   1.951  18.120  11.113
25924W        W87455  11.332  29.568  12.863
25925W        W87456   8.300  34.917  13.906
25926W        W87457  35.056   8.808   4.739
25927W        W87458  26.634  27.122   3.778
25928W        W87459  36.435  41.850   4.618
25929W        W87460  33.474  37.051  10.126
25930W        W87461  16.660  17.064  14.512
25931W        W87462  39.446  19.083   4.309
25932W        W87463   5.398  20.221   0.926
25933W        W87464   3.724  18.579  13.398
25934W        W87465  16.702  30.489   4.807
25935W        W87466  44.776  40.530  14.373
25936W        W87467   6.799  16.591  12.071
25937W        W87468  42.314  20.600   2.741
25938W        W87469   0.445   5.252  12.002
25939W        W87470  40.966  31.590   0.463
25940W        W87471  19.759  36.003  14.515
25941W        W87472  37.932  17.273  12.864
25942W        W87473  29.150   0.780   2.217
25943W        W87474  18.653  36.523  12.472
25944W        W87475  22.615  19.196   0.922
25945W        W87476  24.691   6.342  14.457
25946W        W87477  28.607  19.161  10.992
25947W        W87478   3.449   8.357   4.718
25948W        W87479   6.336  21.151   3.378
25949W        W87480  15.088  16.121   0.813
25950W        W87481  40.000  22.232   4.129
25951W        W87482  37.432   1.341   4.801
25952W        W87483  39.319  27.662  11.989
25953W        W87484  29.118  15.306  11.951
25954W        W87485  31.110  23.234   2.370
25955W        W87486  34.064  37.957   2.761
25956W        W87487   1.445   6.911  14.906
25957W        W87488  19.243   7.279   0.946
25958W        W87489   9.836  20.636   0.331
25959W        W87490   0.438  19.648  11.466
25960W        W87491  26.541   3.862  11.476
25961W        W87492  23.150  37.900   4.205
25962W        W87493  24.495  31.470   9.933
25963W        W87494  31.083  44.781   1.868
25964W        W87495  30.027  24.705  13.971
25965W        W87496  15.674   3.742   0.791
25966W        W87497  22.129  37.962  11.398
25967W        W87498  25.540  31.500  13.501
25968W        W87499  24.583  31.489   0.393
25969W        W87500  27.559  23.011  13.055
25970W        W87501  40.360   9.729  11.544
25971W        W87502   2.738  14.256   1.843
25972W        W87503  29.982  29.066   4.692
25973W        W87504  11.152  18.730   3.678
25974W        W87505   6.301  33.422  11.584
25975W        W87506   3.763  11.139  13.538
25976W        W87507  30.514  43.433  13.320
25977W        W87508   8.681  21.213  11.046
25978W        W87509  15.579  30.447   5.770
25979W        W87510  31.514  44.962  10.507
25980W        W87511   9.193   4.934   1.272
25981W        W87512  25.608   0.269  10.486
25982W        W87513  29.449  30.458   3.175
25983W        W87514   3.346  16.294   2.741
25984W        W87515  35.398   7.781   3.370
25985W        W87516  16.270  34.906  10.553
25986W        W87517  18.189  43.430   1.302
25987W        W87518  11.161   0.889  11.520
25988W        W87519   2.791  14.317  14.423
25989W        W87520  42.421  39.514   4.206
25990W        W87521  20.147  21.226   3.209
25991W        W87522   5.203   5.876  12.943
25992W        W87523  14.281   0.885   1.307
25993W        W87524  38.453  23.071  10.610
25994W        W87525  21.213   9.337   4.681
25995W        W87526  40.356  22.507  14.889
25996W        W87527  30.414  29.923   2.250
25997W        W87528  30.594  16.214   0.965
25998W        W87529  16.253  40.926  13.827
25999W        W87530  27.006  28.170  10.467
26000W        W87531  13.311  31.003  10.925
26001W        W87532  26.956  33.575  13.885
26002W        W87533  17.082  18.583  13.432
26003W        W87534   8.835  38.039   3.724
26004W        W87535  37.881   4.698   0.324
26005W        W87536   9.160  17.195  11.992
26006W        W87537  10.332  18.230  13.375
26007W        W87538  14.126  10.335   0.828
26008W        W87539  43.822  20.167  13.518
26009W        W87540  39.009  24.139  12.915
26010W        W87541  25.014   3.765   2.314
26011W        W87542  13.708  34.985  12.539
26012W        W87543  14.234  20.039  14.329
26013W        W87544  30.044  36.558  14.434
26014W        W87545  13.239   5.283   0.876
26015W        W87546  31.602  11.829  14.887
26016W        W87547  44.989  12.839   4.334
26017W        W87548   7.172   3.890  13.312
26018W        W87549  32.966  40.890   2.858
26019W        W87550   3.459  44.878   2.217
26020W        W87551  24.625  23.209   4.709
26021W        W87552  42.858  34.976  10.405
26022W        W87553  34.035  23.580   3.372
26023W        W87554  31.126  13.113   3.157
26024W        W87555  38.411  25.177   1.278
26025W        W87556  24.997  35.398  13.535
26026W        W87557  32.057   2.961   0.864
26027W        W87558  19.195  13.713   0.356
26028W        W87559  44.956   6.424   0.287
26029W        W87560  11.755   6.202   2.713
26030W        W87561  20.600  36.437  10.892
26031W        W87562  25.041  40.489   4.127
26032W        W87563  20.619  37.990   1.357
26033W        W87564   5.375   2.460  11.081
26034W        W87565  28.083  31.636  10.476
26035W        W87566  40.808  19.609   2.735
26036W        W87567   7.342  18.293  12.372
26037W        W87568  25.549   8.823   2.237
26038W        W87569   0.867  34.591   5.081
26039W        W87570  28.445   3.396  11.601
26040W        W87571  12.615  28.508   4.273
26041W        W87572  27.106  32.538   4.615
26042W        W87573  39.431  42.030  13.336
26043W        W87574  43.416  25.997   1.317
26044W        W87575  20.722   8.712  12.361
26045W        W87576  32.995  11.645  13.545
26046W        W87577  44.756  39.455  12.388
26047W        W87578  12.831  23.073  13.890
26048W        W87579  19.053   5.692   1.898
26049W        W87580  37.040  31.907   3.331
26050W        W87581  38.927  11.675   1.912
26051W        W87582  27.178  32.414  11.597
26052W        W87583  21.537  40.855  14.337
26053W        W87584  20.107   9.736   4.618
26054W        W87585  33.555  20.075   0.767
26055W        W87586  12.671   8.703   4.259
26056W        W87587   8.866   4.750  10.977
26057W        W87588  33.910  30.595  14.436
26058W        W87589   1.297   3.229   4.649
26059W        W87590  11.660  37.059  12.577
26060W        W87591   2.241  42.416   1.409
26061W        W87592  35.533   0.355  13.318
26062W        W87593  17.628  36.948  13.027
26063W        W87594   7.293  25.214   1.289
26064W        W87595  41.303   6.732   0.393
26065W        W87596   6.216  21.754  10.430
26066W        W87597  38.401   3.908   1.288
26067W        W87598  43.874  32.618   2.704
26068W        W87599  29.485  36.376  13.013
26069W        W87600   6.814  12.229   2.820
26070W        W87601  35.391  31.489  11.378
26071W        W87602  40.992  27.959   4.330
26072W        W87603  26.495  22.562   0.960
26073W        W87604  17.573  11.739   1.349
26074W        W87605  24.147  44.426   4.217
26075W        W87606  30.920  35.932  10.061
26076W        W87607  17.163  25.640   0.729
26077W        W87608  43.335  25.094  12.050
26078W        W87609  34.035  44.896  12.572
26079W        W87610  24.630  30.122   2.731
26080W        W87611  24.594  29.075   3.328
26081W        W87612   4.235  38.450  12.348
26082W        W87613  16.660  32.592   1.814
26083W        W87614  20.766   6.306   4.778
26084W        W87615   5.883  16.287   1.435
26085W        W87616  15.603  44.460  13.340
26086W        W87617  10.323   4.903  12.919
26087W        W87618   9.168  38.921  11.436
26088W        W87619  35.903   6.730  14.017
26089W        W87620  30.515   1.380  10.512
26090W        W87621   9.183  29.981  11.940
26091W        W87622  17.752   1.310   1.298
26092W        W87623  43.828  32.125  14.477
26093W        W87624  43.335  30.487  14.338
26094W        W87625  21.555  21.150   3.853
26095W        W87626  28.552  21.252  12.563
26096W        W87627  29.621  26.568   1.243
26097W        W87628  16.804  22.159  13.036
26098W        W87629  43.021  40.961  14.880
26099W        W87630   7.357  24.084   0.953
26100W        W87631  33.109   2.956   3.329
26101W        W87632  44.320  23.092   3.810
26102W        W87633  13.827   8.865  12.067
26103W        W87634  22.112   0.437  10.478
26104W        W87635  30.119  30.054   1.257
26105W        W87636  32.448   0.382   4.796
26106W        W87637  12.787  41.345  13.995
26107W        W87638  24.002  33.474   2.704
26108W        W87639  44.449   2.304   2.258
26109W        W87640   6.872  32.605  14.492
26110W        W87641   9.782   2.471  11.611
26111W        W87642  14.148  20.064   1.410
26112W        W87643  31.037  13.844   1.915
26113W        W87644  35.563  38.550  11.939
26114W        W87645  16.591  14.787  11.515
26115W        W87646   8.727  34.913  14.392
26116W        W87647  39.049  39.429   3.821
26117W        W87648  27.635   0.955   2.408
26118W        W87649  17.557  10.864  10.470
26119W        W87650  42.906  37.932   4.165
26120W        W87651  16.805   3.410   1.229
26121W        W87652  13.810  44.897  13.855
26122W        W87653  37.507  15.216  10.478
26123W        W87654   7.808   1.400  13.952
26124W        W87655  43.953  25.075   4.658
26125W        W87656  40.427   6.882  14.963
26126W        W87657  18.627  23.490  11.476
26127W        W87658   2.808  34.006  11.099
26128W        W87659   2.366  14.187  14.914
26129W        W87660  19.537   2.785   3.367
26130W        W87661  43.469  20.152   1.339
26131W        W87662  18.280  11.273  10.450
26132W        W87663  18.630  36.055  14.501
26133W        W87664   0.423  38.453  10.636
26134W        W87665  32.072  15.790  12.019
26135W        W87666  31.581   4.434  13.959
26136W        W87667  25.574  19.717  11.401
26137W        W87668  33.435  39.345   2.819
26138W        W87669   3.846   7.790   3.243
26139W        W87670  15.656  36.423   2.418
26140W        W87671  22.567  29.601  12.057
26141W        W87672  15.118  11.172  12.831
26142W        W87673  35.998  18.104   1.269
26143W        W87674  22.607  14.321  14.357
26144W        W87675  16.613  35.367   2.825
26145W        W87676  15.172  21.726   1.394
26146W        W87677  36.033  11.188   1.780
26147W        W87678  41.394   4.205   3.224
26148W        W87679   2.260  32.538   0.451
26149W        W87680  27.999  17.587   2.294
26150W        W87681   6.680  22.039  12.829
26151W        W87682   1.419  33.607   3.235
26152W        W87683  33.074  22.590   0.330
26153W        W87684   1.758  17.185  14.879
26154W        W87685  21.049   8.262  14.956
26155W        W87686   7.683  14.192  12.970
26156W        W87687  13.337   3.319  13.939
26157W        W87688   0.325  34.038  10.644
26158W        W87689  12.682  44.937   0.728
26159W        W87690  32.026  39.411   0.911
26160W        W87691  37.389   0.938   2.213
26161W        W87692  37.557   2.870  14.473
26162W        W87693  17.279   0.434   3.283
26163W        W87694  36.070  20.243  13.967
26164W        W87695  42.864   2.360  14.867
26165W        W87696  28.535  23.008   1.727
26166W        W87697  31.450  32.532   4.323
26167W        W87698   4.327  10.385  13.349
26168W        W87699  42.999  31.033  12.460
26169W        W87700  33.397  31.590   3.729
26170W        W87701   8.825  33.487   1.754
26171W        W87702   1.921  31.111  13.948
26172W        W87703   4.324   2.766   0.385
26173W        W87704  38.879   7.867   1.280
26174W        W87705  22.550   4.885  11.913
26175W        W87706  41.363  11.229   2.856
26176W        W87707   2.738   5.732  12.993
26177W        W87708  44.011  12.160   1.377
26178W        W87709  19.543   2.367   2.718
26179W        W87710  44.381  22.573   1.436
26180W        W87711  11.289   7.766   3.779
26181W        W87712   4.787  22.704   0.875
26182W        W87713  11.802   5.769  10.611
26183W        W87714   5.865  31.505   4.188
26184W        W87715  14.316  37.415  11.575
26185W        W87716  32.899  13.790  10.138
26186W        W87717  24.603  28.159   2.866
26187W        W87718   4.917  27.983   2.402
26188W        W87719   9.258  38.016   3.295
26189W        W87720  27.044  11.865   2.806
26190W        W87721   2.887  24.568  14.413
26191W        W87722  15.278  17.144   1.850
26192W        W87723  28.119   1.879  13.923
26193W        W87724  43.494  31.451  13.318
26194W        W87725   7.384   8.749   0.424
26195W        W87726  40.009   1.257  12.846
26196W        W87727  10.227  26.550  12.444
26197W        W87728  11.196  36.954  13.424
26198W        W87729  13.155   2.299   2.819
26199W        W87730  38.377  11.304  13.463
26200W        W87731  44.420  31.965   3.810
26201W        W87732  44.767  38.921   2.822
26202W        W87733  18.781   3.356  13.351
26203W        W87734  28.477   1.240  12.517
26204W        W87735  10.671  40.546  13.417
26205W        W87736  25.172  41.318   3.835
26206W        W87737  41.493  14.670   0.311
26207W        W87738  26.001  39.010  14.365
26208W        W87739  30.481  25.046  13.353
26209W        W87740  15.678  36.591  13.366
26210W        W87741   9.163   5.805   1.783
26211W        W87742  44.395  18.218   2.388
26212W        W87743  25.132   6.404   4.743
26213W        W87744   3.842  19.649  13.048
26214W        W87745  23.181  16.297   0.895
26215W        W87746  37.920  14.804  12.927
26216W        W87747   6.777   7.188   4.197
26217W        W87748   4.870   3.349   2.300
26218W        W87749   5.393  24.022   5.140
26219W        W87750   2.876   5.360  13.993
26220W        W87751  16.797  27.068  14.853
26221W        W87752  28.975  20.702   4.119
26222W        W87753  35.916  16.571  14.423
26223W        W87754  17.653   9.353  14.788
26224W        W87755  21.737  32.444   3.197
26225W        W87756  42.420  11.694   0.297
26226W        W87757  41.388   4.892   4.799
26227W        W87758  33.005  33.603  12.532
26228W        W87759  42.904  36.511  11.582
26229W        W87760  25.973  17.584  12.051
26230W        W87761  42.477   6.206   1.265
26231W        W87762  25.662   9.328  11.515
26232W        W87763  11.738  44.925  14.345
26233W        W87764  30.974  33.493   4.749
26234W        W87765   6.765  42.458   1.222
26235W        W87766  23.242  33.019  12.487
26236W        W87767  25.183  44.428  10.514
26237W        W87768   1.453  19.551  11.584
26238W        W87769   8.759  43.784  10.446
26239W        W87770  43.510  30.933  13.938
26240W        W87771  44.438  39.850   2.281
26241W        W87772  37.440  24.026   4.727
26242W        W87773  43.951   9.827   0.254
26243W        W87774  12.331  19.253  12.346
26244W        W87775   0.840  35.480   0.426
26245W        W87776  10.646   9.713   4.617
26246W        W87777  29.946  41.970  13.998
26247W        W87778  18.089  32.540  12.482
26248W        W87779  37.556  10.836   1.732
26249W        W87780  20.548  28.449  11.505
26250W        W87781  35.089   4.788  10.475
26251W        W87782   9.271  39.380  14.873
26252W        W87783  33.575  25.042   2.315
26253W        W87784  27.037  14.823  14.831
26254W        W87785  12.641  11.192  12.340
26255W        W87786  19.122  19.775  14.378
26256W        W87787  37.875  28.656   0.758
26257W        W87788  23.187  19.049   4.725
26258W        W87789   5.876   3.807   2.226
26259W        W87790  38.865   1.364  12.984
26260W        W87791   5.239  15.170  13.509
26261W        W87792   2.360  37.856  14.333
26262W        W87793  31.037  15.256  12.345
26263W        W87794  43.374  34.006  11.523
26264W        W87795   4.299  30.064   4.157
26265W        W87796   7.359  36.050  14.321
26266W        W87797  35.912  44.409   4.681
26267W        W87798  17.641  16.801  13.428
26268W        W87799  27.001   4.934   4.337
26269W        W87800  37.035  42.374   0.945
26270W        W87801   2.793   8.655   4.175
26271W        W87802   7.788   8.741   5.238
26272W        W87803  15.755  29.544   1.242
26273W        W87804   8.168  10.692  10.493
26274W        W87805  34.580  27.983  10.487
26275W        W87806  37.343   3.781   0.245
26276W        W87807  26.091  33.436   3.179
26277W        W87808  30.927  13.808  13.417
26278W        W87809  17.735  16.205  14.924
26279W        W87810   9.757  13.231  10.992
26280W        W87811  13.784  12.149  13.326
26281W        W87812  34.916  16.672   0.365
26282W        W87813  38.939  43.492  12.921
26283W        W87814  30.445   0.753  13.005
26284W        W87815  33.027  26.542  11.485
26285W        W87816  35.391  15.622   2.689
26286W        W87817   0.891  40.379   1.913
26287W        W87818   7.765  32.054   5.210
26288W        W87819  33.094   9.797  13.515
26289W        W87820  30.643   6.302   0.458
26290W        W87821  32.024  37.953  12.463
26291W        W87822  37.356  22.703   0.416
26292W        W87823  13.828  24.134  11.463
26293W        W87824   6.265  29.425   3.777
26294W        W87825  24.598  25.708   0.253
26295W        W87826  37.523  21.051   1.814
26296W        W87827  34.446  13.765   4.779
26297W        W87828  39.901  18.578   2.277
26298W        W87829  34.459  43.779  14.464
26299W        W87830  19.631  42.475   3.386
26300W        W87831  26.702  33.413   1.876
26301W        W87832  30.160  10.330   4.731
26302W        W87833  31.035  22.637   2.690
26303W        W87834  39.031   0.837  11.124
26304W        W87835  11.293  39.045   3.663
26305W        W87836  27.087  15.302  11.475
26306W        W87837   2.785  32.999   1.725
26307W        W87838  10.214   2.913   0.292
26308W        W87839  39.500  13.752  13.808
26309W        W87840  23.007  24.619  10.623
26310W        W87841  27.459  23.613  12.396
26311W        W87842  28.088  34.878  13.411
26312W        W87843  41.401  41.526  12.457
26313W        W87844   0.965  38.843   0.254
26314W        W87845  32.972  43.494   0.867
26315W        W87846  19.112  42.436  12.004
26316W        W87847  11.199  10.356  10.056
26317W        W87848   6.336  38.941  10.926
26318W        W87849  22.120  20.071   1.860
26319W        W87850  33.880  20.243  11.099
26320W        W87851  23.545  37.410   0.398
26321W        W87852   6.315  42.517  11.055
26322W        W87853  19.772   7.189   2.832
26323W        W87854  12.323  39.031   3.735
26324W        W87855  39.395  30.423   4.319
26325W        W87856  44.306  27.131  14.924
26326W        W87857  14.719  26.066  12.448
26327W        W87858  32.543  43.918   3.272
26328W        W87859   6.896  37.348  11.419
26329W        W87860  17.119  36.846  12.836
26330W        W87861  32.113  36.577  13.375
26331W        W87862   2.952  32.913   3.204
26332W        W87863  37.063  23.643   3.799
26333W        W87864  20.667  10.758   4.318
26334W        W87865  23.494  41.893  10.000
26335W        W87866  34.001  13.130  12.889
26336W        W87867  20.225  26.668   5.181
26337W        W87868  21.711   2.318   3.256
26338W        W87869   2.762   1.375  11.413
26339W        W87870   5.820   9.330  12.459
26340W        W87871  29.427  39.945  10.497
26341W        W87872  17.645  13.743   3.769
26342W        W87873  28.072  41.860   2.735
26343W        W87874  16.194  21.077   2.716
26344W        W87875   6.755   4.212  12.393
26345W        W87876  14.712  38.474   4.294
26346W        W87877  22.596  12.171  10.562
26347W        W87878   4.218  29.029  12.500
26348W        W87879  37.488  12.262  11.556
26349W        W87880   3.280  36.398   3.669
26350W        W87881  32.573  39.839  13.496
26351W        W87882  36.483  18.119  12.960
26352W        W87883  34.370  26.680   4.271
26353W        W87884  11.843  27.611   2.898
26354W        W87885   5.351  15.608   0.376
26355W        W87886  34.371   9.810  11.126
26356W        W87887  22.140  40.928   4.776
26357W        W87888  40.816  41.817  11.975
26358W        W87889  13.319  16.119   0.246
26359W        W87890   9.150  16.245  12.387
26360W        W87891  39.960   9.155  14.315
26361W        W87892  43.994  34.536   0.784
26362W        W87893  41.795  11.161   4.718
26363W        W87894   2.440  27.553  14.429
26364W        W87895  31.411  43.851  14.515
26365W        W87896  35.359  11.164  11.023
26366W        W87897   2.428  15.278   4.631
26367W        W87898  41.829  34.506   1.854
26368W        W87899  32.467  16.606   5.322
26369W        W87900  22.235  13.114  12.468
26370W        W87901   3.253   5.831   2.698
26371W        W87902  16.287   5.242   1.780
26372W        W87903   8.267  44.317  10.956
26373W        W87904   3.749  17.747   2.850
26374W        W87905  21.140  11.684   1.889
26375W        W87906  41.374   6.341   4.163
26376W        W87907  22.560  27.109  10.962
26377W        W87908  40.868  23.060  13.415
26378W        W87909  30.612  25.699  12.914
26379W        W87910  43.004  12.177  12.870
26380W        W87911  31.462  39.500  14.404
26381W        W87912  43.290  20.755  14.891
26382W        W87913   6.798  32.037  14.434
26383W        W87914   4.337  20.226  11.592
26384W        W87915  11.859   5.200  13.010
26385W        W87916  36.520  44.768  14.930
26386W        W87917  13.308  44.816   4.148
26387W        W87918  18.638   5.840   4.670
26388W        W87919   6.194  38.859  10.644
26389W        W87920  37.036  32.919  12.954
26390W        W87921   5.886   0.330   1.803
26391W        W87922  34.565  39.004   2.295
26392W        W87923  18.289  44.374   4.673
26393W        W87924  40.482  24.697  11.968
26394W        W87925  32.586  24.103  13.895
26395W        W87926  34.069  12.617  13.492
26396W        W87927  33.968  35.526  14.453
26397W        W87928   5.809  31.480   4.804
26398W        W87929  44.880  28.120  10.511
26399W        W87930   7.712  37.059  14.809
26400W        W87931   8.811   7.340   4.798
26401W        W87932  27.144  39.477  12.573
26402W        W87933  20.528  44.466  12.499
26403W        W87934  15.728  12.269  13.453
26404W        W87935  22.105  21.616  12.425
26405W        W87936   6.824  19.149   1.921
26406W        W87937  35.010  20.248  13.492
26407W        W87938  27.056   6.336  10.910
26408W        W87939   6.254  31.084  14.353
26409W        W87940  40.034  28.170   1.894
26410W        W87941  43.290  26.141  11.948
26411W        W87942  41.487  11.650  11.004
26412W        W87943  29.084  15.609  11.986
26413W        W87944   4.934  21.598  13.821
26414W        W87945  10.351   2.431   0.913
26415W        W87946   8.177   7.871   0.746
26416W        W87947   0.916  10.242   3.788
26417W        W87948  37.435  30.445  13.374
26418W        W87949   8.324  17.779  10.587
26419W        W87950  15.168   4.308  11.895
26420W        W87951  17.667  42.843  12.087
26421W        W87952  33.910  12.139   1.731
26422W        W87953  19.190   9.710   2.359
26423W        W87954  39.412  36.479  11.388
26424W        W87955  38.456   9.835   4.632
26425W        W87956  22.240  21.172  12.542
26426W        W87957  21.060  37.462  14.852
26427W        W87958   0.377  23.229   2.406
26428W        W87959  14.326   4.447   2.362
26429W        W87960  40.481  43.933   1.332
26430W        W87961  37.957  39.404  11.396
26431W        W87962  35.413  16.766  13.015
26432W        W87963   9.846  38.969   2.806
26433W        W87964  37.547   9.811   0.459
26434W        W87965  21.024   9.218  14.440
26435W        W87966  42.994  21.512  12.383
26436W        W87967  10.186  18.169   2.795
26437W        W87968  12.730  44.921   3.253
26438W        W87969  40.437  34.602  14.021
26439W        W87970  12.320  24.197  12.935
26440W        W87971  16.076  22.549  14.376
26441W        W87972  29.165   1.797   2.848
26442W        W87973  28.072  12.166   3.763
26443W        W87974  36.018   1.958  11.013
26444W        W87975   0.892  15.630  13.307
26445W        W87976   6.191   0.743  13.372
26446W        W87977   8.188  43.870  13.545
26447W        W87978  13.654  22.684  13.883
26448W        W87979   1.888  17.654   3.320
26449W        W87980  39.842   6.825  11.509
26450W        W87981  38.934  39.938  12.533
26451W        W87982  11.322   0.941  14.502
26452W        W87983  13.775   5.277   3.661
26453W        W87984   3.288   2.288  11.016
26454W        W87985  10.224  35.542   0.287
26455W        W87986  36.497  14.768  11.077
26456W        W87987  39.518   6.879   2.778
26457W        W87988   0.813  11.786   1.791
26458W        W87989  37.424   5.806   3.257
26459W        W87990  13.621  25.119  13.041
26460W        W87991  44.487  20.066  14.936
26461W        W87992  25.630   6.415  12.520
26462W        W87993  36.552  37.067   3.333
26463W        W87994  13.298  19.131   3.309
26464W        W87995  41.980  29.085   3.636
26465W        W87996  31.492   2.910  13.474
26466W        W87997  14.264  31.007  14.328
26467W        W87998  29.142   3.359  12.032
26468W        W87999  39.324  18.236  14.825
26469W        W88000  24.201  32.080  13.057
26470W        W88001  40.415   3.740  11.535
26471W        W88002   4.332  38.902  10.538
26472W        W88003  42.397  25.071  11.391
26473W        W88004  32.032  35.416   2.344
26474W        W88005  37.494   9.825  11.434
26475W        W88006  28.458  40.874  10.533
26476W        W88007  34.979   7.714   3.804
26477W        W88008  18.105  10.264  14.367
26478W        W88009  40.852  43.391   2.725
26479W        W88010  28.083  39.493  11.554
26480W        W88011   9.737   0.396   5.658
26481W        W88012  41.844   8.238  11.429
26482W        W88013  38.908  36.547  12.953
26483W        W88014  43.967  42.320   3.176
26484W        W88015  24.496  39.377   3.678
26485W        W88016  27.171   3.240  10.955
26486W        W88017  42.524  25.621  14.913
26487W        W88018  16.794  17.267   1.709
26488W        W88019  11.368  41.368   3.689
26489W        W88020  39.013  41.041  11.019
26490W        W88021  11.294  11.709  14.298
26491W        W88022   6.284   5.769   1.253
26492W        W88023  36.992  31.141   0.916
26493W        W88024  29.050  18.066   1.750
26494W        W88025  15.678  43.289  12.355
26495W        W88026  33.114  40.486  14.288
26496W        W88027   8.802  31.099   2.182
26497W        W88028  21.060  11.771   4.819
26498W        W88029   0.487  20.077   3.251
26499W        W88030   3.237  17.174   0.753
26500W        W88031  26.196   3.254  13.406
26501W        W88032  12.145   7.395  10.940
26502W        W88033  39.897  31.601   2.207
26503W        W88034  39.395   0.893   3.722
26504W        W88035  18.578   5.256  13.519
26505W        W88036  10.301  25.674  12.942
26506W        W88037  22.087  25.680   3.814
26507W        W88038  16.088  10.845  13.359
26508W        W88039  25.601  43.907  10.597
26509W        W88040  26.080  18.678  10.434
26510W        W88041  18.150  40.893   3.371
26511W        W88042   0.857   8.316  13.864
26512W        W88043   3.911  26.183   2.823
26513W        W88044  38.456  37.395   5.175
26514W        W88045  22.124  23.670   4.275
26515W        W88046  41.846  26.540   2.244
26516W        W88047  23.733  27.531   1.901
26517W        W88048  20.146  40.823   0.899
26518W        W88049  40.864  29.105  14.435
26519W        W88050  24.683  24.689  10.533
26520W        W88051  25.522   5.799   2.785
26521W        W88052  26.619  35.479  13.043
26522W        W88053  42.805  30.024  13.398
26523W        W88054   3.383   3.332  14.439
26524W        W88055   9.264   0.820   9.676
26525W        W88056  16.162  24.168   1.918
26526W        W88057   5.800  27.186   9.929
26527W        W88058  37.406  39.475   2.671
26528W        W88059  28.500   9.210  12.935
26529W        W88060  13.118  44.343  11.988
26530W        W88061  22.079  40.823  10.979
26531W        W88062   3.400  40.950  10.644
26532W        W88063  23.046  10.157   1.294
26533W        W88064  41.419  29.162  11.060
26534W        W88065   6.746   0.379  13.887
26535W        W88066  16.266  29.449   0.747
26536W        W88067  32.964  10.798   4.263
26537W        W88068  41.397  27.053  13.426
26538W        W88069  27.446  18.154   1.887
26539W        W88070  16.201  26.509  10.924
26540W        W88071  41.423  30.068   3.800
26541W        W88072   8.759  37.480   1.397
26542W        W88073  37.483  26.568  11.976
26543W        W88074  14.261  16.633  11.422
26544W        W88075  28.988  14.667   2.690
26545W        W88076  29.099  41.815  12.940
26546W        W88077  37.400  34.545  13.320
26547W        W88078   0.952  35.970  14.805
26548W        W88079  13.269  36.048  13.342
26549W        W88080   8.390  31.629  14.855
26550W        W88081   6.920  13.245  10.434
26551W        W88082  36.501  28.094   3.828
26552W        W88083  33.384  37.392   0.766
26553W        W88084  17.705  42.286   4.639
26554W        W88085  42.283   9.355   4.649
26555W        W88086  19.626  42.784   2.313
26556W        W88087  34.872   3.323  10.911
26557W        W88088   5.322  30.160  10.493
26558W        W88089   4.740  15.810  11.059
26559W        W88090  20.764  26.069  10.485
26560W        W88091  18.586  14.590  11.591
26561W        W88092  11.730   8.303  10.539
26562W        W88093  18.623  31.954  14.817
26563W        W88094  42.799  44.855   3.737
26564W        W88095  36.433  43.835   4.341
26565W        W88096  44.812  14.713   0.398
26566W        W88097  33.913   2.863  10.520
26567W        W88098   1.442  25.178  13.393
26568W        W88099  41.999  16.669  10.469
26569W        W88100  43.324   0.861   4.754
26570W        W88101   1.482  34.391  14.968
26571W        W88102  27.681  31.604  12.054
26572W        W88103  21.691   8.340   1.930
26573W        W88104   9.715  22.214   4.169
26574W        W88105  10.738  37.450  11.949
26575W        W88106  29.582  43.852  11.554
26576W        W88107  41.856  44.790  10.918
26577W        W88108  43.817   3.225   3.650
26578W        W88109  24.570  14.157   2.396
26579W        W88110  26.674  14.287  14.030
26580W        W88111  14.168  13.729  12.849
26581W        W88112  31.109  22.643  13.039
26582W        W88113  30.546   0.969  11.568
26583W        W88114  26.147  17.166   1.272
26584W        W88115   8.330  17.092   4.296
26585W        W88116  32.071  35.592   0.444
26586W        W88117  37.957   1.428   1.219
26587W        W88118  38.050  38.371  11.387
26588W        W88119  10.663  30.648  12.037
26589W        W88120   8.189  15.322   4.156
26590W        W88121  19.742  28.007   0.434
26591W        W88122  31.071   5.733   1.417
26592W        W88123  30.989  43.498  14.945
26593W        W88124  41.400  30.958   3.217
26594W        W88125  41.025  19.562   4.692
26595W        W88126  11.710   8.174   4.150
26596W        W88127  25.989  37.937   0.317
26597W        W88128  20.067  27.160  14.963
26598W        W88129  35.470   0.320   2.777
26599W        W88130  10.282   2.344   3.630
26600W        W88131  27.194  42.378  11.998
26601W        W88132  29.024  20.174   2.866
26602W        W88133  21.717  27.482  10.632
26603W        W88134  33.386  29.081   2.857
26604W        W88135  13.174   6.842   0.457
26605W        W88136   0.767  33.550   4.760
26606W        W88137   2.948  39.473   0.363
26607W        W88138  41.820  40.378   5.312
26608W        W88139  34.959  12.713  13.869
26609W        W88140  13.119  34.915   0.893
26610W        W88141  29.424  12.180  12.964
26611W        W88142  37.400  35.009  10.430
26612W        W88143  42.007   5.223   4.264
26613W        W88144  34.609   7.734   1.228
26614W        W88145  29.983  36.522  11.581
26615W        W88146  22.156  43.431   2.340
26616W        W88147  30.588  12.664   2.813
26617W        W88148   8.277  33.437  10.587
26618W        W88149  32.997  26.978  11.062
26619W        W88150  17.158  31.435  13.921
26620W        W88151  31.500   1.934   1.415
26621W        W88152  19.192  40.492  13.349
26622W        W88153  38.396  33.927   0.801
26623W        W88154  33.522  10.349  11.456
26624W        W88155  28.665  17.667  12.894
26625W        W88156  39.357  37.538  12.894
26626W        W88157  14.150  19.119   2.888
26627W        W88158  31.007  24.071  11.471
26628W        W88159  30.112  32.935   0.477
26629W        W88160  39.047   3.223  13.514
26630W        W88161  23.548   4.308  10.931
26631W        W88162  13.831  37.961  14.939
26632W        W88163  30.087   8.850  14.029
26633W        W88164  32.902  32.616  11.381
26634W        W88165  37.893   9.396  11.455
26635W        W88166  43.004   7.820   2.771
26636W        W88167   3.776  12.229  10.920
26637W        W88168  12.248  42.296  13.995
26638W        W88169  23.213  20.689  13.946
26639W        W88170  16.782  35.904  12.985
26640W        W88171  30.924  40.854  11.027
26641W        W88172  42.811   8.185  13.818
26642W        W88173  25.147  10.824   0.963
26643W        W88174   3.408  42.339   4.638
26644W        W88175  44.928  36.536   1.317
26645W        W88176  40.377  32.435   1.826
26646W        W88177  42.919  36.478  13.317
26647W        W88178   8.251  25.550   4.827
26648W        W88179  31.440  25.470  14.994
26649W        W88180   8.287  32.526  14.899
26650W        W88181   9.347  22.540   0.748
26651W        W88182   7.680  41.922  13.503
26652W        W88183  41.829   5.379  12.554
26653W        W88184  11.336  11.157   4.256
26654W        W88185   5.380   4.329   1.809
26655W        W88186  31.574  38.875  14.454
26656W        W88187  30.156  11.162   1.893
26657W        W88188  15.733  41.843   3.851
26658W        W88189  44.427  42.428  13.002
26659W        W88190  21.157  32.053  14.360
26660W        W88191  32.598  22.160   3.278
26661W        W88192  32.959  10.859  12.826
26662W        W88193   7.749  34.413  12.827
26663W        W88194  23.098   5.808  13.024
26664W        W88195  30.133  44.869   2.195
26665W        W88196  21.139   7.812   0.391
26666W        W88197  12.262  16.711  13.470
26667W        W88198   0.270  12.229   0.782
26668W        W88199  27.531  27.156   4.745
26669W        W88200   3.321  22.739   3.672
26670W        W88201   2.416  33.495  12.085
26671W        W88202  34.517  32.002  10.628
26672W        W88203  20.263  14.659   1.923
26673W        W88204  40.514   3.815  14.383
26674W        W88205   6.287  36.499  12.933
26675W        W88206   8.290  29.994  14.392
26676W        W88207   7.794  15.216  13.529
26677W        W88208  11.693  18.247   4.794
26678W        W88209  13.779  41.787   1.380
26679W        W88210  29.934   2.227  12.944
26680W        W88211  23.721   7.861  12.345
26681W        W88212   7.901  21.077  11.001
26682W        W88213   0.328  16.728  13.489
26683W        W88214   6.296   7.401   0.282
26684W        W88215  18.609  17.601  13.989
26685W        W88216  41.295  25.967  13.957
26686W        W88217  24.071  26.579  11.018
26687W        W88218  30.576   5.403  13.955
26688W        W88219   8.895  12.255  13.828
26689W        W88220  39.979  25.036   1.369
26690W        W88221  24.987  35.065  11.432
26691W        W88222  13.242  31.603  11.603
26692W        W88223  36.530  44.466   2.755
26693W        W88224  10.254  29.063  14.812
26694W        W88225  27.111  27.454  12.844
26695W        W88226  39.855  38.833  11.590
26696W        W88227  27.177   8.715  11.608
26697W        W88228  31.628  25.627   0.406
26698W        W88229  23.207   8.829  14.760
26699W        W88230  23.608  30.084  12.936
26700W        W88231   3.720  44.443   4.295
26701W        W88232  17.597  35.567  12.910
26702W        W88233   5.766   9.729  12.882
26703W        W88234  21.513  21.755  13.904
26704W        W88235   5.927  18.713  13.537
26705W        W88236  23.734  12.681   3.729
26706W        W88237  33.432  14.223   1.214
26707W        W88238  37.901  11.662   3.218
26708W        W88239   4.281  18.611  11.981
26709W        W88240  26.026  37.431   2.776
26710W        W88241   6.391  14.598   3.191
26711W        W88242  35.446  37.488  11.554
26712W        W88243  37.924   0.985  14.501
26713W        W88244  31.497  34.567  10.949
26714W        W88245  30.910   6.209   4.221
26715W        W88246  22.036  31.085  11.610
26716W        W88247  32.062  15.731   1.928
26717W        W88248  25.609   2.250  10.506
26718W        W88249  36.966   9.317  11.858
26719W        W88250  22.533   3.384  10.915
26720W        W88251  22.661  38.454  12.518
26721W        W88252  41.939  31.927   4.628
26722W        W88253  13.135   2.819   5.095
26723W        W88254  18.266  24.683   9.504
26724W        W88255  19.702   7.839   4.715
26725W        W88256  15.579  44.476   1.708
26726W        W88257  27.473  29.560  13.427
26727W        W88258   3.336   4.425  13.469
26728W        W88259  22.235  35.587  12.903
26729W        W88260  16.166  42.015  13.891
26730W        W88261  43.765  38.964   1.258
26731W        W88262  34.998  42.013  10.431
26732W        W88263  19.552   0.488  14.379
26733W        W88264   1.959   7.338  12.088
26734W        W88265  17.126  21.091   3.332
26735W        W88266   5.764  19.275  13.394
26736W        W88267  41.900  12.761  10.534
26737W        W88268   7.835  31.617   2.742
26738W        W88269  35.421  33.043  11.064
26739W        W88270   6.718  13.119   0.475
26740W        W88271  41.812   0.911  12.017
26741W        W88272  27.583  24.145  14.848
26742W        W88273  18.684   1.476   0.465
26743W        W88274  30.530  31.067  11.128
26744W        W88275  19.753  20.651  12.882
26745W        W88276  42.283   4.302   4.683
26746W        W88277  14.722   3.395   3.661
26747W        W88278  34.998  28.463  12.532
26748W        W88279  34.491  25.979   2.369
26749W        W88280  21.554  42.312  13.807
26750W        W88281  27.640  18.667   4.142
26751W        W88282  41.452  31.926  14.848
26752W        W88283  41.305  43.979  14.348
26753W        W88284  13.191  29.980  13.975
26754W        W88285   8.874   7.697   1.334
26755W        W88286  32.142  44.892  11.102
26756W        W88287  36.508  32.495   2.756
26757W        W88288  24.623  11.850   1.918
26758W        W88289   1.238  31.434  13.463
26759W        W88290  20.142  13.750  12.544
26760W        W88291  16.717   0.479   1.800
26761W        W88292  12.235  29.607   2.860
26762W        W88293  40.918  36.494   0.858
26763W        W88294  16.233  11.637  14.342
26764W        W88295  32.427   0.781   2.821
26765W        W88296   7.384  40.332   0.424
26766W        W88297   5.350  14.187  12.557
26767W        W88298  37.002  37.408   0.919
26768W        W88299  25.107  44.916  10.561
26769W        W88300  24.550  39.840  14.876
26770W        W88301  24.155  37.578   4.335
26771W        W88302  42.817  20.728  14.768
26772W        W88303  38.974  32.139   1.771
26773W        W88304  21.726  34.565  14.014
26774W        W88305   0.862  40.344   2.663
26775W        W88306  19.748  36.362   4.757
26776W        W88307  24.066  38.559  10.602
26777W        W88308  41.953  17.195   9.932
26778W        W88309  16.303  44.903   1.342
26779W        W88310  41.820  10.688  12.902
26780W        W88311  26.633  27.028  10.640
26781W        W88312   7.775  32.506  12.876
26782W        W88313  41.933  21.161   0.380
26783W        W88314  27.673   4.292  11.025
26784W        W88315  15.646   8.861   2.819
26785W        W88316  16.217   3.772   1.706
26786W        W88317   3.417   3.301   1.239
26787W        W88318  25.190  34.996   3.652
26788W        W88319   5.192  25.573   2.349
26789W        W88320  44.960   3.724   0.808
26790W        W88321  44.298  19.266   4.330
26791W        W88322  10.839  16.702  11.932
26792W        W88323  13.222  22.527  12.569
26793W        W88324  32.948   1.362  13.894
26794W        W88325  20.056   6.254   4.599
26795W        W88326  23.194  42.888   1.339
26796W        W88327  33.577  29.639   1.712
26797W        W88328   2.401  39.923  12.008
26798W        W88329  39.998  44.934  14.011
26799W        W88330  12.647  39.982   3.318
26800W        W88331  34.886  10.206  14.454
26801W        W88332  14.598  26.081   4.623
26802W        W88333  26.469   6.816  12.080
26803W        W88334  35.454  15.182   3.686
26804W        W88335   3.862  17.785   3.636
26805W        W88336  14.817  41.822   1.775
26806W        W88337  17.674  36.407  14.843
26807W        W88338  42.468  16.160   0.830
26808W        W88339  32.063  29.978   1.772
26809W        W88340  34.956  34.389  13.429
26810W        W88341  23.236  22.521   3.700
26811W        W88342  27.071  20.659  11.008
26812W        W88343  19.591  42.328  10.489
26813W        W88344  44.791   9.659   1.774
26814W        W88345  12.743  17.597   2.814
26815W        W88346   8.855  25.154  12.371
26816W        W88347   5.729  10.750  12.405
26817W        W88348  23.039  26.608  14.940
26818W        W88349  43.269  25.157   2.894
26819W        W88350  13.780   0.893   3.641
26820W        W88351   8.228  34.373  12.545
26821W        W88352  19.281  41.521  11.912
26822W        W88353  41.792  25.617   0.810
26823W        W88354  24.664  40.506  11.047
26824W        W88355  16.161   2.887  14.983
26825W        W88356  11.819  14.271   0.733
26826W        W88357   2.274  21.521  13.364
26827W        W88358   2.875  44.301   4.747
26828W        W88359  27.157  13.785   2.335
26829W        W88360  25.615  11.143   3.780
26830W        W88361   6.861  40.434  14.297
26831W        W88362   1.786  11.373   1.866
26832W        W88363  10.696  16.230   0.966
26833W        W88364  32.022  11.738  10.991
26834W        W88365  12.660  44.301  11.961
26835W        W88366  42.286   3.408  10.919
26836W        W88367  42.803  20.134   0.930
26837W        W88368  12.664  17.575  12.956
26838W        W88369  10.361  23.567  13.907
26839W        W88370  44.834  29.920   2.775
26840W        W88371   9.780  12.748  12.852
26841W        W88372   9.180  18.129   1.928
26842W        W88373  18.731   9.316   3.222
26843W        W88374  15.161  29.429  14.323
26844W        W88375   5.344  19.131   0.783
26845W        W88376  21.172  11.797   2.897
26846W        W88377  29.035  43.434  10.889
26847W        W88378  33.491   3.782   0.891
26848W        W88379  38.070  10.633   3.858
26849W        W88380  41.916  13.601  12.967
26850W        W88381   3.417  14.148  11.113
26851W        W88382  40.499  19.159  12.871
26852W        W88383  15.647  10.778   4.771
26853W        W88384  44.462  15.608  14.824
26854W        W88385  35.373  18.631  10.145
26855W        W88386   1.449  19.265  10.958
26856W        W88387  34.092  29.075  13.947
26857W        W88388  21.097  14.724   3.205
26858W        W88389  37.885  13.190  12.500
26859W        W88390  13.114   7.313  12.907
26860W        W88391  42.029  32.462   4.150
26861W        W88392  41.811  29.535   4.176
26862W        W88393   2.814  29.493   4.615
26863W        W88394   7.787  21.545   2.391
26864W        W88395  19.227   6.850  12.454
26865W        W88396  40.392  15.198  13.818
26866W        W88397  16.595   2.355  14.445
26867W        W88398  16.683   1.741   1.735
26868W        W88399  27.535   7.413   1.786
26869W        W88400  34.517   9.873   4.267
26870W        W88401  23.552  43.866   1.746
26871W        W88402  18.170  36.381  12.348
26872W        W88403   0.791  16.769  11.552
26873W        W88404  23.616  15.747   4.226
26874W        W88405  14.266  21.025   0.833
26875W        W88406  21.173  42.799   0.932
26876W        W88407  33.582  31.440   0.745
26877W        W88408  30.076  30.645   4.795
26878W        W88409  15.179  39.852   0.862
26879W        W88410   6.747   6.859   2.825
26880W        W88411  17.189  12.741  11.522
26881W        W88412  33.985  32.538   1.749
26882W        W88413   8.678  21.573   2.276
26883W        W88414   6.414  27.193   4.665
26884W        W88415   2.246   0.366  13.842
26885W        W88416  17.109   1.390  13.537
26886W        W88417  27.459  43.316  12.826
26887W        W88418  39.541  28.109  13.797
26888W        W88419  26.969   1.952  12.457
26889W        W88420  21.702  37.535   5.735
26890W        W88421   7.718  20.666   4.351
26891W        W88422  41.806  36.397   1.361
26892W        W88423  42.845   5.830  11.127
26893W        W88424  38.957  16.760   0.481
26894W        W88425   5.254  17.150   0.897
26895W        W88426   8.769  31.000   0.367
26896W        W88427   2.723  14.231   4.261
26897W        W88428  29.043  43.416  13.902
26898W        W88429  21.676  33.625  12.348
26899W        W88430  42.326  32.125   2.884
26900W        W88431  33.088  28.017  13.506
26901W        W88432  13.166  22.668   3.659
26902W        W88433  34.021  39.515  11.089
26903W        W88434  42.436  20.593   1.221
26904W        W88435   0.408  31.634   0.786
26905W        W88436   3.433  37.987   3.246
26906W        W88437   3.422  41.390   1.337
26907W        W88438  37.426  23.089   2.199
26908W        W88439  34.927  15.719  12.014
26909W        W88440  15.123   2.851  12.367
26910W        W88441  44.500   7.414   3.265
26911W        W88442   3.417  26.100  12.399
26912W        W88443   7.282  11.279   3.260
26913W        W88444  21.263  33.923  14.302
26914W        W88445  41.792   9.182  13.818
26915W        W88446  20.675  29.608  12.357
26916W        W88447  29.629  34.089  13.444
26917W        W88448  25.637  40.359  11.921
26918W        W88449  20.098  24.086   2.180
26919W        W88450   0.843   8.761   1.370
26920W        W88451  11.289  35.073   1.858
26921W        W88452  40.845  24.500   2.328
26922W        W88453  18.261  23.215  14.381
26923W        W88454  31.620  14.617   1.390
26924W        W88455  22.023  31.567   4.188
26925W        W88456  29.559  25.997  11.899
26926W        W88457  36.081  12.668   1.451
26927W        W88458  37.042  35.530  12.468
26928W        W88459  12.169  43.494  11.046
26929W        W88460   8.828  20.086   4.342
26930W        W88461  24.070  44.979  12.952
26931W        W88462  36.914  35.868   3.736
26932W        W88463   7.753  44.421   2.741
26933W        W88464  13.753  23.512  12.540
26934W        W88465   6.237   3.336   3.339
26935W        W88466  21.588  44.769  11.505
26936W        W88467  29.656  30.648  10.625
26937W        W88468  26.124  10.742   4.299
26938W        W88469   8.354  33.104  12.887
26939W        W88470  44.443   8.891  12.911
26940W        W88471  13.295   7.393   3.812
26941W        W88472  31.906  23.184   0.782
26942W        W88473  31.588  40.836  14.297
26943W        W88474   1.378  37.986   4.240
26944W        W88475  34.496  11.849  10.517
26945W        W88476  14.660  25.480  10.972
26946W        W88477  14.248  38.025  10.623
26947W        W88478  13.192  17.783  12.458
26948W        W88479  14.601  23.142  14.803
26949W        W88480  25.624  34.536  12.521
26950W        W88481  34.880  12.696  11.425
26951W        W88482  21.642  23.050  14.497
26952W        W88483  26.016  22.198   3.686
26953W        W88484  40.857  21.080   1.750
26954W        W88485  17.228  31.070   3.775
26955W        W88486  11.700   7.294   0.780
26956W        W88487   6.920  27.688  10.405
26957W        W88488  26.617  13.811   2.901
26958W        W88489  24.555  26.605   3.304
26959W        W88490  15.789  18.214  10.135
26960W        W88491  27.685   6.318   3.300
26961W        W88492  38.517  18.743  10.552
26962W        W88493  38.847   2.946  10.935
26963W        W88494  16.567  16.151  14.897
26964W        W88495  23.058  35.382   2.216
26965W        W88496   5.831  28.110  12.981
26966W        W88497  38.077  41.461  11.106
26967W        W88498  32.535  32.006   1.772
26968W        W88499  36.449   6.908   3.691
26969W        W88500   9.190  18.248   0.823
26970W        W88501  44.357   8.854  13.968
26971W        W88502   1.453  24.707   1.701
26972W        W88503  11.728  41.844  10.610
26973W        W88504   0.907  34.942   4.268
26974W        W88505  40.959  12.142   0.943
26975W        W88506  38.446  23.617   4.827
26976W        W88507  25.982  41.398  13.001
26977W        W88508  41.537   5.413  14.976
26978W        W88509  40.964  24.172  14.370
26979W        W88510  23.098  20.216   2.416
26980W        W88511  36.035  20.730  12.084
26981W        W88512   4.329  39.338  12.417
26982W        W88513  43.797  38.908  14.314
26983W        W88514  26.036  40.457  12.052
26984W        W88515   2.881  39.451   1.932
26985W        W88516  20.033   8.392  10.931
26986W        W88517   1.459   1.445   0.304
26987W        W88518   4.718  41.361   3.698
26988W        W88519   8.309  21.133  11.858
26989W        W88520  16.693  18.173   1.704
26990W        W88521  29.061  27.091   0.790
26991W        W88522  39.885  31.122  11.408
26992W        W88523   8.824  21.189   0.837
26993W        W88524   2.842   3.257   0.330
26994W        W88525  14.647  18.778  14.377
26995W        W88526   6.217  43.335   3.856
26996W        W88527  14.711  13.769   1.237
26997W        W88528  25.073   6.367   2.851
26998W        W88529  41.968  19.165  12.899
26999W        W88530  13.331  32.490  10.630
27000W        W88531  16.719   5.261  14.381
27001W        W88532  26.968   4.443  14.401
27002W        W88533   7.843  32.907  11.871
27003W        W88534  10.170  21.668   1.814
27004W        W88535  36.560  41.836  14.475
27005W        W88536  17.568  36.016   0.353
27006W        W88537  26.582  36.917   4.114
27007W        W88538   4.767  38.485   9.961
27008W        W88539  34.075  23.106  12.015
27009W        W88540  11.656  35.600   0.334
27010W        W88541   2.350   3.360  11.947
27011W        W88542  41.021  14.336   2.216
27012W        W88543   5.889   3.886  11.876
27013W        W88544  43.887   9.237  12.348
27014W        W88545  18.647  39.369  11.872
27015W        W88546  27.550   8.755  11.607
27016W        W88547  17.567  20.683  12.967
27017W        W88548  19.105  37.008  12.853
27018W        W88549   8.312   6.234  14.498
27019W        W88550  36.021  23.071   3.674
27020W        W88551  26.071  32.025   0.876
27021W        W88552   7.371  21.214  12.541
27022W        W88553  23.516  36.468   4.717
27023W        W88554   1.878  24.658   2.381
27024W        W88555  44.787  13.658   4.127
27025W        W88556  11.862  26.951   3.383
27026W        W88557  29.466  25.129   0.370
27027W        W88558  15.659  31.915  10.001
27028W        W88559  38.994  41.832  12.012
27029W        W88560  32.415   4.385   3.180
27030W        W88561  40.040  10.693   1.409
27031W        W88562  38.990  19.595   0.780
27032W        W88563  42.433  29.540  14.480
27033W        W88564  11.211  22.539  12.351
27034W        W88565   3.297  44.973   3.151
27035W        W88566  27.584  15.258   2.275
27036W        W88567  12.283  19.629   4.748
27037W        W88568  35.092  22.068  13.539
27038W        W88569  34.430  35.916   4.333
27039W        W88570   2.851  30.976   3.783
27040W        W88571  18.187  39.861  13.428
27041W        W88572   3.334  24.621  11.064
27042W        W88573  22.020  14.755  12.919
27043W        W88574  32.554  41.501  10.572
27044W        W88575  28.053  20.180  11.973
27045W        W88576   6.897  13.758   2.376
27046W        W88577  14.623  22.647  14.368
27047W        W88578   9.376  31.011   0.279
27048W        W88579  43.348   7.278   9.937
27049W        W88580  23.174   9.857  14.804
27050W        W88581  35.550  40.419   0.370
27051W        W88582  23.562  42.786   0.881
27052W        W88583  29.009  35.889  13.402
27053W        W88584  42.838  44.983   1.334
27054W        W88585   7.316  42.299  14.982
27055W        W88586   3.792  36.500  13.372
27056W        W88587  10.852  20.080  10.623
27057W        W88588  40.960  34.558   1.899
27058W        W88589   8.247  18.727  12.877
27059W        W88590  22.215  41.877  12.009
27060W        W88591  12.132  26.995   4.745
27061W        W88592   2.952  36.546   0.335
27062W        W88593  18.194  17.699  13.978
27063W        W88594  35.463  43.905   0.929
27064W        W88595  32.636   2.787  10.924
27065W        W88596   7.824  15.669   5.102
27066W        W88597  20.253  24.200   3.816
27067W        W88598  19.237  44.262   3.787
27068W        W88599   6.375  25.561   9.975
27069W        W88600  32.582  27.609   2.694
27070W        W88601  30.532  38.569   1.870
27071W        W88602  11.185  11.712   0.409
27072W        W88603  30.067  11.729   5.596
27073W        W88604  37.473   4.733  12.494
27074W        W88605  35.551  39.921  12.928
27075W        W88606  16.779  28.597  14.451
27076W        W88607  44.814  32.490   1.265
27077W        W88608  30.951   6.779  13.311
27078W        W88609  39.908  29.510   3.799
27079W        W88610  27.523  36.516   2.419
27080W        W88611  30.932  23.666  15.000
27081W        W88612   9.694  36.907  11.565
27082W        W88613  35.510  18.698  14.814
27083W        W88614  28.519  24.167  12.562
27084W        W88615  24.145   6.235   1.870
27085W        W88616  10.150  17.172  12.544
27086W        W88617   2.454   8.663  12.987
27087W        W88618  21.655   7.739   3.722
27088W        W88619  40.802  19.119  10.620
27089W        W88620   5.221  41.833  11.567
27090W        W88621  10.275   3.269  13.022
27091W        W88622   1.862  41.512  13.483
27092W        W88623   4.390  17.239   0.772
27093W        W88624  37.081  18.289  12.996
27094W        W88625   9.391  22.052   0.428
27095W        W88626  12.116  26.203   0.298
27096W        W88627  16.783  31.642  10.639
27097W        W88628  12.137  40.502   4.159
27098W        W88629  18.127   7.695   3.229
27099W        W88630   7.791  26.078  10.967
27100W        W88631   1.862  39.313  12.003
27101W        W88632  39.349   7.401  10.930
27102W        W88633  18.116   4.750  14.398
27103W        W88634  11.831  15.328   1.911
27104W        W88635  20.226   7.338  12.532
27105W        W88636  29.061  35.594  13.524
27106W        W88637  16.160  32.515   4.265
27107W        W88638  32.392  23.103  13.512
27108W        W88639  33.450   5.860  13.923
27109W        W88640  14.289  28.632  14.780
27110W        W88641  36.479  28.538   0.850
27111W        W88642  20.116  43.865   4.673
27112W        W88643  22.018  22.539   4.286
27113W        W88644  20.577  27.644   4.196
27114W        W88645  43.486  28.502  11.402
27115W        W88646  33.064  26.673  11.099
27116W        W88647  16.653  38.455  11.473
27117W        W88648  34.062  31.424   3.804
27118W        W88649  23.601  10.144   3.292
27119W        W88650   9.711  31.581   3.301
27120W        W88651  13.846  36.407   0.354
27121W        W88652   4.774  42.902   4.790
27122W        W88653   6.733  40.987  13.320
27123W        W88654  41.928  37.562   0.311
27124W        W88655  11.280  29.035   0.479
27125W        W88656   7.868  44.331  12.539
27126W        W88657  19.125  38.952  14.976
27127W        W88658  44.008   9.744  12.366
27128W        W88659  28.653  21.587  12.480
27129W        W88660  20.221  26.640   1.835
27130W        W88661  38.058  35.998  13.331
27131W        W88662  41.461   7.221  10.616
27132W        W88663   6.873  19.586   2.357
27133W        W88664  41.515   2.304  13.371
27134W        W88665  10.685  41.831   2.341
27135W        W88666   1.926  34.405   1.748
27136W        W88667  26.561  36.526   1.371
27137W        W88668  38.026  20.258   0.469
27138W        W88669  30.596  10.799  12.407
27139W        W88670  26.004   8.397   4.613
27140W        W88671  39.373   1.469  10.602
27141W        W88672  24.095  16.308   0.803
27142W        W88673  44.433  42.964  12.423
27143W        W88674  10.783   3.929   1.915
27144W        W88675  12.166  20.211   1.224
27145W        W88676  12.162   6.307   0.934
27146W        W88677   1.773  28.436  14.442
27147W        W88678   6.271  30.076  14.867
27148W        W88679  22.539  27.982  12.073
27149W        W88680  40.013  30.457   2.278
27150W        W88681  12.778  44.367   0.937
27151W        W88682  27.661   9.673   2.689
27152W        W88683  21.720  26.009   3.854
27153W        W88684  21.207  32.411  13.406
27154W        W88685  17.794  34.461  13.904
27155W        W88686  26.147  27.133  10.483
27156W        W88687  26.013  34.373  11.599
27157W        W88688  43.803  39.962  11.527
27158W        W88689  39.994  32.497   3.364
27159W        W88690  35.594  15.085   0.323
27160W        W88691  19.571  16.798  14.976
27161W        W88692  35.957  13.740  13.429
27162W        W88693  29.509  13.626   3.641
27163W        W88694  43.010   1.890  14.343
27164W        W88695  12.745  20.666  12.487
27165W        W88696   3.773  24.988  11.522
27166W        W88697  29.571   2.291   3.167
27167W        W88698  43.872  39.960   4.753
27168W        W88699  41.490   8.264   1.318
27169W        W88700  21.113  20.208  13.384
27170W        W88701  17.123  20.055   0.427
27171W        W88702   4.718  20.226  11.102
27172W        W88703  28.656  29.637   4.216
27173W        W88704  20.202  31.503  10.921
27174W        W88705  12.279   8.350  12.488
27175W        W88706  21.235  13.706   4.748
27176W        W88707  24.137  25.474   0.812
27177W        W88708  34.047  23.153  12.462
27178W        W88709  28.080   1.273  11.091
27179W        W88710  41.408  11.767   2.708
27180W        W88711  27.967  13.165   2.188
27181W        W88712  11.762  12.165  13.831
27182W        W88713  11.338   2.837  11.523
27183W        W88714  17.251  36.425   4.118
27184W        W88715   9.293  38.008  10.550
27185W        W88716  26.052  18.751  13.888
27186W        W88717   3.718   0.766  12.065
27187W        W88718  17.703  36.501  11.048
27188W        W88719   3.275  37.014  13.820
27189W        W88720  14.196  16.162   0.844
27190W        W88721  17.180   7.247  14.029
27191W        W88722   2.834  37.080   1.431
27192W        W88723   4.440  14.336  10.975
27193W        W88724  10.845   4.234   4.666
27194W        W88725   7.781   8.861  11.377
27195W        W88726   2.849  29.154  11.057
27196W        W88727   1.903  43.787  11.903
27197W        W88728  36.055   5.716   3.663
27198W        W88729   8.380   0.370   4.145
27199W        W88730  39.371  33.975  14.495
27200W        W88731   2.295   1.934   4.271
27201W        W88732  41.016  39.031  11.915
27202W        W88733  18.293  10.870  11.989
27203W        W88734  37.892  12.848  10.455
27204W        W88735   3.224  30.126   1.810
27205W        W88736  28.588  30.459  11.099
27206W        W88737  32.028  38.508   4.221
27207W        W88738  34.556  13.261   4.706
27208W        W88739  17.302  35.580  11.585
27209W        W88740  10.140  26.499   5.146
27210W        W88741  25.692  28.480   4.771
27211W        W88742  30.110  24.074   0.737
27212W        W88743  23.189  24.191   0.832
27213W        W88744  44.829  37.579   4.273
27214W        W88745   1.251  44.364  13.536
27215W        W88746   4.823  10.639   3.848
27216W        W88747  13.181  12.646  14.412
27217W        W88748  43.372  17.725   4.837
27218W        W88749  11.298  30.063   4.222
27219W        W88750  16.080   2.422  12.083
27220W        W88751  15.262   3.445   5.109
27221W        W88752  43.808   9.287   4.319
27222W        W88753  26.113   3.408  12.829
27223W        W88754   2.460   0.831   1.242
27224W        W88755  10.775  14.739   3.200
27225W        W88756  39.482  20.625  14.333
27226W        W88757  35.982   5.842  13.954
27227W        W88758  27.078  27.049  13.387
27228W        W88759   5.918  38.455  13.426
27229W        W88760   2.902   6.261   1.723
27230W        W88761  11.214  17.730   2.760
27231W        W88762  16.595  42.308  11.863
27232W        W88763   4.913  19.241   0.935
27233W        W88764   7.256  20.199  13.876
27234W        W88765  27.569   5.216  11.593
27235W        W88766  38.331   9.158   1.319
27236W        W88767  37.035  30.084  11.485
27237W        W88768   7.183  13.844  12.562
27238W        W88769  15.806  14.157  12.440
27239W        W88770  12.744  36.063   0.880
27240W        W88771  29.642  15.301   4.332
27241W        W88772  29.489  16.567   0.365
27242W        W88773  43.377  31.565  10.543
27243W        W88774   7.224   5.932  13.487
27244W        W88775  42.428  28.559   0.768
27245W        W88776  23.502  15.779   3.732
27246W        W88777  42.491  21.618   4.115
27247W        W88778  32.501  29.653  11.021
27248W        W88779  12.311  26.457  14.902
27249W        W88780  17.234  43.949  10.973
27250W        W88781   2.869  32.462   2.290
27251W        W88782  10.756  27.033  10.545
27252W        W88783  39.378  27.161   1.395
27253W        W88784   2.308  28.964   4.144
27254W        W88785  41.980  16.805  13.417
27255W        W88786  38.558  22.657  10.601
27256W        W88787  44.302   2.275   1.248
27257W        W88788  11.358   1.807  12.834
27258W        W88789  39.871   6.894   4.795
27259W        W88790  25.203  26.639  11.538
27260W        W88791   9.833  20.665  13.894
27261W        W88792   2.769  20.633   3.756
27262W        W88793  19.222  44.327  12.431
27263W        W88794  37.845   4.308  14.474
27264W        W88795  16.109  34.110   0.322
27265W        W88796  23.586  40.494   2.399
27266W        W88797   1.787  18.648  10.960
27267W        W88798  11.293  37.378   3.646
27268W        W88799  11.275  44.921  14.794
27269W        W88800  39.362  17.142  12.037
27270W        W88801   0.947   7.309  14.792
27271W        W88802   1.456  14.717  10.478
27272W        W88803  17.147  20.596   3.655
27273W        W88804  21.664  28.646  11.080
27274W        W88805   4.748  29.067  13.426
27275W        W88806  26.673  14.127  13.512
27276W        W88807  30.961  44.006  11.037
27277W        W88808  32.457  42.401  12.984
27278W        W88809   1.925  19.154  14.818
27279W        W88810  23.062  37.012  13.958
27280W        W88811  34.438  12.635   3.862
27281W        W88812  29.137   8.185   1.707
27282W        W88813  41.444   9.199  14.437
27283W        W88814  13.167   3.748   2.200
27284W        W88815  27.116  29.150   2.415
27285W        W88816  11.144  37.397  14.825
27286W        W88817  38.418  40.821  13.325
27287W        W88818  29.609   1.959   4.785
27288W        W88819  10.157   2.870   1.229
27289W        W88820  13.603  11.829   2.771
27290W        W88821  14.809  32.050  14.330
27291W        W88822  21.193  37.025  10.135
27292W        W88823  12.269  44.410  14.476
27293W        W88824  38.427  33.408   1.279
27294W        W88825   0.872  13.186  10.546
27295W        W88826  44.977  25.577  13.911
27296W        W88827  15.098  14.162   4.817
27297W        W88828   4.829  22.209  14.877
27298W        W88829   6.278   2.261  10.594
27299W        W88830   6.894  35.968  13.483
27300W        W88831   8.288   5.392  10.438
27301W        W88832  27.492  13.282  14.314
27302W        W88833  13.816  38.023  10.619
27303W        W88834  37.472  31.969   0.254
27304W        W88835  34.477  34.901  14.005
27305W        W88836  34.904  44.426  12.016
27306W        W88837  21.108  15.638   4.781
27307W        W88838  37.911  27.640  13.861
27308W        W88839   9.207  14.668   4.299
27309W        W88840  11.238  17.123  14.831
27310W        W88841  22.130  15.600  13.965
27311W        W88842  15.783  29.946  13.905
27312W        W88843  22.115   4.849   2.843
27313W        W88844  24.562  37.476   0.815
27314W        W88845  32.532  28.543   0.847
27315W        W88846  19.079  23.524  14.477
27316W        W88847   0.433  18.251   1.889
27317W        W88848  41.997  40.863   1.324
27318W        W88849   0.921   7.363   9.941
27319W        W88850   3.237  11.251   3.775
27320W        W88851  39.878  25.158   3.709
27321W        W88852  33.984  21.742   2.844
27322W        W88853  40.930  12.735   1.447
27323W        W88854  23.163   4.758  14.838
27324W        W88855  38.926  41.295  14.455
27325W        W88856  24.987  13.634   4.634
27326W        W88857  16.567   5.198  13.878
27327W        W88858  27.664   1.817   2.781
27328W        W88859  10.236  32.931   2.678
27329W        W88860  24.122  24.125  13.324
27330W        W88861   9.380  28.112   9.920
27331W        W88862  18.626  41.016   4.799
27332W        W88863   8.883   6.860  14.940
27333W        W88864  12.744  36.967  12.951
27334W        W88865  23.229   9.272  11.942
27335W        W88866  41.470  44.270   4.231
27336W        W88867   3.714  12.341   3.178
27337W        W88868  28.490   7.376   2.686
27338W        W88869  27.619  39.974  10.605
27339W        W88870  44.802  40.497  12.996
27340W        W88871   6.262  32.960  11.919
27341W        W88872  35.509   4.355   0.458
27342W        W88873  26.092   9.309  13.972
27343W        W88874  38.851  14.275   0.738
27344W        W88875  13.654  29.056  14.777
27345W        W88876   0.260  19.222   2.244
27346W        W88877  42.841  41.857  12.864
27347W        W88878  25.480   1.911  14.391
27348W        W88879  16.727  41.335  11.428
27349W        W88880  15.744  35.924  12.025
27350W        W88881  27.174  16.779  13.540
27351W        W88882   7.408  44.324   2.263
27352W        W88883  13.238  19.653  14.775
27353W        W88884   7.205   3.839   3.260
27354W        W88885  43.885  32.621   3.736
27355W        W88886  13.162  26.537   4.724
27356W        W88887  41.456  37.400  10.513
27357W        W88888  17.288   4.870  12.011
27358W        W88889  31.075   9.765   1.439
27359W        W88890  18.728  21.641  11.078
27360W        W88891  32.996  30.048   2.665
27361W        W88892  24.003  32.534   2.775
27362W        W88893  40.856  13.674   1.405
27363W        W88894  15.748  29.011   3.323
27364W        W88895  34.963  18.767   2.250
27365W        W88896  23.599  28.124  14.918
27366W        W88897   0.855  24.480  14.376
27367W        W88898  19.217  26.110   4.243
27368W        W88899  34.066  29.448  13.933
27369W        W88900  16.253  23.007  12.867
27370W        W88901   9.339  22.184  11.013
27371W        W88902  19.702  18.126   1.363
27372W        W88903  31.519  27.448   4.835
27373W        W88904  15.210  33.975   1.270
27374W        W88905  32.946  21.068   2.395
27375W        W88906  40.889  32.925  13.926
27376W        W88907  15.702   6.682   4.343
27377W        W88908  21.710   1.467   2.364
27378W        W88909  34.889  15.287  11.383
27379W        W88910  37.418  33.027  14.828
27380W        W88911  20.164  44.815   4.614
27381W        W88912  31.083   9.312  11.413
27382W        W88913  13.651  13.746   2.762
27383W        W88914  38.067  15.649  10.140
27384W        W88915   4.703  36.936  12.434
27385W        W88916  24.723  41.041  14.982
27386W        W88917   0.459   7.233   3.371
27387W        W88918  27.955   8.819   3.213
27388W        W88919  20.571  12.729  14.870
27389W        W88920   7.761   0.421   2.665
27390W        W88921   2.367  42.318   2.722
27391W        W88922  15.270  15.800  11.377
27392W        W88923  41.916  21.691  12.545
27393W        W88924  16.602   9.155   3.761
27394W        W88925   5.811  43.454  13.058
27395W        W88926  38.458   9.287   4.678
27396W        W88927  19.748  19.709   1.750
27397W        W88928   6.795  41.876   1.419
27398W        W88929  23.572  12.795   2.256
27399W        W88930  15.710  12.283   4.160
27400W        W88931  27.982  37.014  10.565
27401W        W88932  15.597  17.170  10.993
27402W        W88933  32.094  21.065  12.351
27403W        W88934  28.542  18.593   1.269
27404W        W88935  43.847   2.818   2.184
27405W        W88936  41.389  43.289  13.511
27406W        W88937  39.498  11.336   0.471
27407W        W88938   7.293   3.228   1.888
27408W        W88939  13.686  27.567  10.472
27409W        W88940  40.448  25.967  13.527
27410W        W88941  25.134  19.544   1.250
27411W        W88942   7.386   9.834   0.411
27412W        W88943  24.597  28.526   9.586
27413W        W88944  13.719  33.556   2.408
27414W        W88945  10.671  18.293   1.392
27415W        W88946  39.391  25.686   3.634
27416W        W88947  22.018   1.783  12.431
27417W        W88948  18.185  36.866   4.333
27418W        W88949  36.434  24.204  12.890
27419W        W88950  32.122  12.806   1.718
27420W        W88951  10.302   2.379   4.647
27421W        W88952  10.734   9.309  12.444
27422W        W88953  38.971   4.233   0.938
27423W        W88954   0.834   4.362  10.415
27424W        W88955  18.222  34.611  11.099
27425W        W88956  37.346   2.951   4.116
27426W        W88957  37.480  44.431   5.280
27427W        W88958  29.554   9.276  12.499
27428W        W88959   6.781  33.949   0.786
27429W        W88960  30.080  39.852   3.376
27430W        W88961  28.977  43.864   0.873
27431W        W88962  34.499  17.795  12.955
27432W        W88963   3.266  30.978  13.897
27433W        W88964   4.743  38.874  14.475
27434W        W88965  44.448  15.291  12.895
27435W        W88966  19.640   4.305  12.037
27436W        W88967  23.220  32.068   1.732
27437W        W88968  16.072  32.078  11.946
27438W        W88969  22.700  34.552   9.954
27439W        W88970  17.591  38.351   2.854
27440W        W88971  44.864  12.792  13.959
27441W        W88972  44.976   0.794  13.911
27442W        W88973  33.510  20.181   3.642
27443W        W88974  27.945  44.353  14.280
27444W        W88975  13.746   2.962   0.851
27445W        W88976   5.417   4.889  12.077
27446W        W88977  36.577   2.852  14.300
27447W        W88978  44.419  21.222  10.987
27448W        W88979  16.730  24.071  14.400
27449W        W88980   7.302   5.863   4.680
27450W        W88981  27.173  26.502  10.571
27451W        W88982  16.089   8.670   1.915
27452W        W88983  25.176   9.865   0.961
27453W        W88984  20.079  27.093   0.471
27454W        W88985  44.281  32.614   3.779
27455W        W88986   4.332  30.588   2.197
27456W        W88987  36.052  32.918   1.779
27457W        W88988  22.524   7.324  12.405
27458W        W88989  22.172  15.305  11.407
27459W        W88990  20.577  26.694  10.618
27460W        W88991  36.403  15.285   0.848
27461W        W88992  41.301  21.688  10.976
27462W        W88993  16.582  40.900   1.932
27463W        W88994  44.334   5.710  12.361
27464W        W88995   2.724  26.607  14.798
27465W        W88996  19.760  13.203   4.186
27466W        W88997   1.887  26.178  13.995
27467W        W88998  16.197  44.841  11.003
27468W        W88999  19.161  27.515  11.512
27469W        W89000   0.746  18.106  12.540
27470W        W89001  14.149  39.382   2.673
27471W        W89002  38.434  13.684  12.427
27472W        W89003  38.949  11.158  14.781
27473W        W89004  33.496  27.104  14.854
27474W        W89005  18.609   1.462  11.526
27475W        W89006  22.227  25.534   3.384
27476W        W89007  11.649  27.128  12.436
27477W        W89008  22.141   3.804  13.341
27478W        W89009  31.463   0.270   4.293
27479W        W89010   6.874   7.181   2.387
27480W        W89011  11.669  41.969   4.148
27481W        W89012   3.370  22.207  12.044
27482W        W89013  16.281  38.891   4.176
27483W        W89014  25.191  31.038  13.490
27484W        W89015  21.561  32.960  11.103
27485W        W89016   7.273   9.858  10.491
27486W        W89017  37.549  25.528   1.787
27487W        W89018  43.318  33.387   0.945
27488W        W89019   0.321   0.327   4.684
27489W        W89020  31.118   7.247  13.408
27490W        W89021  25.619  16.594   0.345
27491W        W89022  19.164  39.841   2.850
27492W        W89023  35.938   8.658  11.438
27493W        W89024   3.935  12.619  13.968
27494W        W89025  27.480  25.186   1.845
27495W        W89026  41.868   9.228  10.551
27496W        W89027  12.246   3.754  11.035
27497W        W89028   4.703   7.753  14.853
27498W        W89029  38.038  28.646  13.489
27499W        W89030  11.158  30.972  13.309
27500W        W89031  33.388   5.720  14.935
27501W        W89032   0.770  18.248   0.746
27502W        W89033  39.324  13.303  11.063
27503W        W89034   2.843  14.108  13.417
27504W        W89035  26.464  37.490  12.506
27505W        W89036  29.451  42.428  11.457
27506W        W89037  30.599   2.731   0.920
27507W        W89038   6.262  18.629  10.959
27508W        W89039  15.783  32.439   4.351
27509W        W89040  22.161  14.610   3.317
27510W        W89041  30.954  36.080   5.131
27511W        W89042  24.570  12.218  13.817
27512W        W89043  17.685  30.463  10.474
27513W        W89044  24.497  39.971  13.829
27514W        W89045  14.324  18.701   4.304
27515W        W89046  30.948  35.975   0.254
27516W        W89047  13.261   0.492  14.395
27517W        W89048  25.648  42.903  11.944
27518W        W89049   7.217  34.603   4.260
27519W        W89050  26.521  35.450   4.751
27520W        W89051  38.824  41.990  14.486
27521W        W89052   9.790  36.917   3.164
27522W        W89053  31.081   2.810  11.961
27523W        W89054  26.977  19.739  13.022
27524W        W89055  42.839   4.266  12.579
27525W        W89056  38.039  43.355  10.969
27526W        W89057  21.589  17.266   1.362
27527W        W89058  14.642   6.284   0.326
27528W        W89059  42.386  40.400   4.243
27529W        W89060   3.746  13.627  14.362
27530W        W89061  34.421  20.211   3.334
27531W        W89062  39.485  14.269  15.000
27532W        W89063   5.308   4.442  14.335
27533W        W89064  33.933  38.459  13.019
27534W        W89065  34.894  36.502   5.164
27535W        W89066   8.253  13.329  13.814
27536W        W89067   0.862  38.508  10.971
27537W        W89068   6.254   1.348  13.894
27538W        W89069  17.680   7.273  12.946
27539W        W89070  44.395  10.748   3.704
27540W        W89071  32.899  15.808   0.773
27541W        W89072  24.175  39.464  11.051
27542W        W89073   8.213  42.974  13.930
27543W        W89074  28.096   4.729   4.354
27544W        W89075  22.632   1.910  13.967
27545W        W89076  16.724  39.544   3.763
27546W        W89077  29.462  29.946  14.315
27547W        W89078  24.082   7.231  13.846
27548W        W89079  25.497  19.666   1.228
27549W        W89080  29.633  10.747   1.266
27550W        W89081   5.709  42.943  11.115
27551W        W89082  25.040  33.929   9.982
27552W        W89083  20.251  22.166  10.632
27553W        W89084   6.921  29.056   1.282
27554W        W89085  37.373  40.445  11.984
27555W        W89086   3.259   2.292  11.863
27556W        W89087  36.009  40.405   2.182
27557W        W89088  10.258  35.484  12.518
27558W        W89089  17.275   3.865  14.031
27559W        W89090  23.097  16.776   2.697
27560W        W89091  31.509  23.014  10.495
27561W        W89092   2.845  32.625   3.709
27562W        W89093  34.475  43.392  14.774
27563W        W89094  41.852  12.298  14.885
27564W        W89095  41.444   4.371  14.996
27565W        W89096  16.306   7.277  11.479
27566W        W89097  42.956   3.325  10.027
27567W        W89098  42.422  14.144  12.886
27568W        W89099  29.646  34.885  10.528
27569W        W89100  44.808  18.183  11.583
27570W        W89101   2.937  29.511   0.948
27571W        W89102  35.926  44.489  10.943
27572W        W89103  16.783  26.152   1.849
27573W        W89104  21.716   4.411  12.853
27574W        W89105  34.472  40.382  13.353
27575W        W89106  10.731   7.741  14.007
27576W        W89107  44.483  30.500  13.797
27577W        W89108   3.948  41.917   4.743
27578W        W89109  21.102  11.131  10.042
27579W        W89110  24.533  44.269   3.347
27580W        W89111  25.684   7.251   3.194
27581W        W89112  41.786  10.645  14.809
27582W        W89113  28.097  40.519  11.040
27583W        W89114   0.476  42.316  12.935
27584W        W89115  27.997   9.783   2.703
27585W        W89116  30.037  42.411   0.306
27586W        W89117   7.247  14.614  13.063
27587W        W89118  31.648  41.024  14.858
27588W        W89119  37.500  12.165   2.231
27589W        W89120   3.899   9.194   1.853
27590W        W89121  40.001  33.956  13.929
27591W        W89122   4.433  31.520   1.905
27592W        W89123  36.452   8.695  10.589
27593W        W89124  41.441  17.650  12.916
27594W        W89125  16.749   6.272   0.928
27595W        W89126  31.066  20.564  14.950
27596W        W89127  25.689  40.468  10.609
27597W        W89128   6.821  35.946   0.892
27598W        W89129  33.587  23.565   3.842
27599W        W89130   1.414  10.634   4.758
27600W        W89131  11.760   8.320   3.776
27601W        W89132   0.785  24.021  13.898
27602W        W89133  26.483  44.399   2.419
27603W        W89134  18.743  44.324   9.988
27604W        W89135  15.729  13.127   3.869
27605W        W89136  41.847  34.026  14.769
27606W        W89137  31.610  24.149  14.912
27607W        W89138  10.290  27.544   0.887
27608W        W89139   9.325  44.431   2.896
27609W        W89140  35.050  26.631  11.051
27610W        W89141  27.579  30.466   0.420
27611W        W89142  11.166  10.336   0.730
27612W        W89143  11.730   6.233   3.307
27613W        W89144  40.830  30.089  11.382
27614W        W89145   1.365  29.430   0.355
27615W        W89146   4.935  16.726   1.858
27616W        W89147  16.731  22.054   9.926
27617W        W89148  28.029   7.760   2.304
27618W        W89149  34.389   3.293  12.440
27619W        W89150  16.161  19.174   2.394
27620W        W89151  37.440  34.458  12.970
27621W        W89152  21.721  29.978   0.258
27622W        W89153  31.107  28.559  12.469
27623W        W89154  21.638  38.914  14.814
27624W        W89155   6.235  35.551   1.438
27625W        W89156  16.585   2.877   4.803
27626W        W89157  25.027  12.219  12.493
27627W        W89158  40.039  21.604   3.178
27628W        W89159  19.744  25.008  13.539
27629W        W89160  32.450  42.010  12.359
27630W        W89161  31.629  26.598   1.356
27631W        W89162   8.345  30.454   1.256
27632W        W89163  38.936  18.788  12.454
27633W        W89164   3.410  30.995  13.321
27634W        W89165  42.978   6.790  10.573
27635W        W89166  13.748  41.301   3.323
27636W        W89167   3.337   2.899  13.829
27637W        W89168  24.513   3.869  10.508
27638W        W89169   0.916   7.348  14.314
27639W        W89170  13.124  21.108  14.943
27640W        W89171  41.382  31.591  13.543
27641W        W89172  35.988   4.425  11.045
27642W        W89173   5.926   6.340  13.890
27643W        W89174  44.410   8.816   9.947
27644W        W89175   8.895  24.723   2.672
27645W        W89176  37.552   7.693  11.091
27646W        W89177  40.343   4.308  12.883
27647W        W89178  28.638  30.550  13.339
27648W        W89179   3.315  44.827  13.008
27649W        W89180  44.505  43.019   0.727
27650W        W89181  11.865   4.410  11.430
27651W        W89182  14.756  14.103   3.728
27652W        W89183  20.602  38.961  12.091
27653W        W89184   3.760  21.586   2.892
27654W        W89185  37.931  44.797   2.289
27655W        W89186  17.653  23.122  12.378
27656W        W89187  15.750   5.345  11.064
27657W        W89188  11.302  13.685   4.329
27658W        W89189  43.983  40.806  14.482
27659W        W89190  38.845   7.850  12.468
27660W        W89191  20.207  12.262   2.742
27661W        W89192  29.136   7.905  14.847
27662W        W89193  22.212  41.812   1.737
27663W        W89194  38.002  12.679   5.648
27664W        W89195  26.554  36.061  12.539
27665W        W89196  31.540   9.855   1.818
27666W        W89197  35.074  15.703  14.019
27667W        W89198   6.199   5.415   1.275
27668W        W89199  12.801   6.362   1.706
27669W        W89200  27.516  18.757  10.980
27670W        W89201  15.670  10.722   4.123
27671W        W89202  21.516  22.226   2.903
27672W        W89203  33.925  13.722  14.396
27673W        W89204  20.200  19.710   5.270
27674W        W89205  24.230  34.381  11.111
27675W        W89206  30.156  24.051   4.216
27676W        W89207  27.481  40.406  13.377
27677W        W89208  19.741  15.744   3.687
27678W        W89209  21.050  24.704   1.893
27679W        W89210   7.890  36.006  12.372
27680W        W89211  23.148  40.307  13.945
27681W        W89212  33.452  15.172   9.955
27682W        W89213  12.811  42.522  14.028
27683W        W89214  43.921  17.620  10.416
27684W        W89215  36.450  25.060   3.279
27685W        W89216  31.447   9.194  12.075
27686W        W89217   6.344  25.580   4.796
27687W        W89218   4.422  10.791  13.035
27688W        W89219   7.812  25.115  13.327
27689W        W89220  14.819   1.283   3.380
27690W        W89221  44.796  31.033  12.480
27691W        W89222  18.226  34.035   4.159
27692W        W89223  16.648  31.575   2.856
27693W        W89224  28.160   2.810  12.990
27694W        W89225   6.718  41.818  11.554
27695W        W89226   8.382  16.080   1.377
27696W        W89227  40.999   3.919   2.892
27697W        W89228  29.625   9.851  14.957
27698W        W89229  29.446  22.518  13.885
27699W        W89230  27.184  21.158  11.085
27700W        W89231  22.041  17.793  14.850
27701W        W89232  21.648   0.898  10.965
27702W        W89233  17.197   6.712  11.022
27703W        W89234   3.820   4.741   4.786
27704W        W89235  42.968   5.692   0.934
27705W        W89236  32.122  37.047  12.436
27706W        W89237  26.974  28.105   3.296
27707W        W89238  12.159  13.109  13.866
27708W        W89239  35.987  36.043  14.440
27709W        W89240   3.791  15.697   0.278
27710W        W89241  17.754  26.623   4.604
27711W        W89242  30.040  17.132  11.500
27712W        W89243   5.400  34.002   1.268
27713W        W89244  40.804  27.583  13.976
27714W        W89245  27.495  26.961  10.533
27715W        W89246  12.346  15.759   3.675
27716W        W89247   3.903  23.691  14.511
27717W        W89248   2.815  39.483  13.361
27718W        W89249  19.677   4.387   3.179
27719W        W89250  38.399  27.197   1.448
27720W        W89251  18.746   8.849  14.001
27721W        W89252   5.400  43.846   3.849
27722W        W89253  10.834  36.078  11.606
27723W        W89254   8.402  24.644  11.610
27724W        W89255   3.339  35.921   0.481
27725W        W89256   8.857  15.780  12.962
27726W        W89257   4.350  44.957   1.238
27727W        W89258  21.558  40.890  10.928
27728W        W89259  18.105  36.925  12.025
27729W        W89260  36.069  33.919  13.961
27730W        W89261  12.760   3.441  12.068
27731W        W89262   2.839  12.138  12.944
27732W        W89263  36.965  25.965  13.791
27733W        W89264  43.855  23.645   1.844
27734W        W89265   9.780   5.222  11.053
27735W        W89266  34.087  26.610  12.523
27736W        W89267   6.419  43.350  11.425
27737W        W89268   5.851   6.703  11.862
27738W        W89269  28.562  18.271   3.380
27739W        W89270  23.612  19.121   3.733
27740W        W89271  39.501  33.026   3.826
27741W        W89272  25.651  34.984   2.690
27742W        W89273   5.247  12.682   0.375
27743W        W89274  28.632  35.454  14.297
27744W        W89275   9.848  29.576   4.194
27745W        W89276   3.736  10.773   0.365
27746W        W89277  28.080  34.384  12.961
27747W        W89278  20.130  42.397  14.430
27748W        W89279   3.760  23.086   2.247
27749W        W89280  16.774  26.053   0.468
27750W        W89281  20.604  15.796  12.946
27751W        W89282  12.279  36.384   0.476
27752W        W89283  14.284  31.575   0.349
27753W        W89284  25.136  20.550  13.805
27754W        W89285  37.044  18.655  13.031
27755W        W89286  31.579  43.305   0.833
27756W        W89287  27.612  26.631  13.064
27757W        W89288  29.118   9.199   1.817
27758W        W89289  34.478  27.498  10.489
27759W        W89290  27.991   5.892  11.047
27760W        W89291   3.796  26.146  13.878
27761W        W89292  33.604  38.431  14.959
27762W        W89293  39.367  18.778  13.937
27763W        W89294  39.996   2.757  11.113
27764W        W89295  27.537  37.013   2.697
27765W        W89296   2.817  30.549   1.236
27766W        W89297   0.887  22.700   3.376
27767W        W89298   1.277  39.980   3.346
27768W        W89299  22.535  32.075  14.280
27769W        W89300  18.594   0.910   2.393
27770W        W89301  36.424   3.851  13.032
27771W        W89302  12.612  13.133   2.758
27772W        W89303  19.055   7.401  11.863
27773W        W89304  12.251  18.584   2.238
27774W        W89305  25.128  22.118  14.998
27775W        W89306  19.692  32.420   2.313
27776W        W89307  37.918  31.938  13.485
27777W        W89308  43.777   0.899  14.936
27778W        W89309  40.805  23.652   4.250
27779W        W89310  13.144  30.931   3.805
27780W        W89311  38.930  42.953   3.665
27781W        W89312  24.995  18.206  11.074
27782W        W89313  19.610  29.002   2.717
27783W        W89314  11.146  15.749  14.511
27784W        W89315   1.912  27.587  11.073
27785W        W89316  27.049  25.978  12.044
27786W        W89317  40.018  13.240  11.390
27787W        W89318  33.535   3.806   4.680
27788W        W89319  23.194  12.167   0.401
27789W        W89320  38.007  38.477   3.221
27790W        W89321   4.252  13.716  11.461
27791W        W89322  37.507   2.358  12.369
27792W        W89323   8.202  16.700  10.605
27793W        W89324  38.436   2.875  11.399
27794W        W89325  29.431  19.196   1.224
27795W        W89326   7.730   0.783   0.852
27796W        W89327  38.857   8.770  13.812
27797W        W89328  15.601  34.437  11.020
27798W        W89329  36.050  41.928  14.487
27799W        W89330  20.680  41.007  10.526
27800W        W89331  23.717   0.278   0.843
27801W        W89332  36.089  34.523  11.045
27802W        W89333  31.095  44.819   1.420
27803W        W89334  29.121  34.592  11.395
27804W        W89335  44.784  13.157  11.434
27805W        W89336  42.442  19.691  14.872
27806W        W89337  42.787   8.334   4.626
27807W        W89338  29.496   1.320  13.048
27808W        W89339  31.542  33.552   1.764
27809W        W89340  10.165  13.212  13.802
27810W        W89341  22.504  36.055  12.890
27811W        W89342  38.497  36.390  13.860
27812W        W89343  23.640   1.394   4.150
27813W        W89344  32.944  25.522   4.626
27814W        W89345  33.461  14.292   3.731
27815W        W89346  29.432  27.123  13.028
27816W        W89347  14.630  38.891  14.283
27817W        W89348  18.728  25.647   1.210
27818W        W89349   4.842  31.972  10.565
27819W        W89350  35.444   9.740   2.233
27820W        W89351   8.202  29.164  14.349
27821W        W89352  33.468   9.822   2.782
27822W        W89353  20.144  29.459   4.240
27823W        W89354  28.963   8.271   4.751
27824W        W89355  36.421   4.314  10.491
27825W        W89356   3.740  28.551   4.161
27826W        W89357   3.803  16.805  14.490
27827W        W89358  25.523  34.030  10.573
27828W        W89359  10.142  22.722   3.738
27829W        W89360  17.642  20.757   3.741
27830W        W89361  30.037  25.102  13.394
27831W        W89362   1.338   0.921  11.591
27832W        W89363   8.785  41.044  10.586
27833W        W89364   5.933   3.928   4.210
27834W        W89365  38.477  42.775  12.430
27835W        W89366  40.365  10.869   4.240
27836W        W89367   7.283  32.589  13.432
27837W        W89368  39.538   0.954   2.793
27838W        W89369  22.573  10.852  12.976
27839W        W89370  43.422   8.791   3.871
27840W        W89371  26.194  41.534  10.491
27841W        W89372   5.201   2.465  14.445
27842W        W89373  24.693  18.730  11.100
27843W        W89374   4.710  15.196   4.311
27844W        W89375  27.650  32.135  13.493
27845W        W89376  32.099   1.405  11.387
27846W        W89377  26.953  37.412   4.198
27847W        W89378  20.208  38.508  13.801
27848W        W89379  26.107  32.062  13.431
27849W        W89380  17.769  39.853   4.608
27850W        W89381  11.721  24.118  10.578
27851W        W89382  31.989  40.332   1.780
27852W        W89383  42.939  22.146   2.268
27853W        W89384  23.059  38.376   1.820
27854W        W89385  14.709  10.699   0.478
27855W        W89386  25.135   4.935   1.863
27856W        W89387  42.474  14.198  11.994
27857W        W89388  19.694  19.122  11.011
27858W        W89389  17.725  19.225   0.915
27859W        W89390  20.068  20.697   1.435
27860W        W89391  27.565  37.874   1.920
27861W        W89392  38.889  18.578  13.495
27862W        W89393   7.323  44.810   2.306
27863W        W89394   6.911   1.937  13.943
27864W        W89395  27.645  39.424  13.328
27865W        W89396  36.488  22.149  12.496
27866W        W89397  29.551  25.655   3.208
27867W        W89398  22.159  16.607   2.782
27868W        W89399  11.768  39.392   2.887
27869W        W89400   1.854  36.063   1.786
27870W        W89401  17.187  32.105   0.481
27871W        W89402   4.878  32.555  14.321
27872W        W89403  12.329  39.928   0.475
27873W        W89404  14.277  14.817   3.205
27874W        W89405   5.415  14.668   0.817
27875W        W89406   2.798  28.496   1.697
27876W        W89407  36.968  32.601  14.915
27877W        W89408   3.766   6.756   1.295
27878W        W89409   5.759   3.822   0.934
27879W        W89410   5.775  20.119  13.982
27880W        W89411  11.663  34.079   4.132
27881W        W89412   7.292  20.566   4.322
27882W        W89413  26.609  19.053  11.395
27883W        W89414  29.089  18.259  11.508
27884W        W89415  32.481  16.294   2.779
27885W        W89416  32.569  10.756  12.420
27886W        W89417  37.340  36.040   4.704
27887W        W89418  31.963  37.549  14.800
27888W        W89419   8.727  32.951   0.931
27889W        W89420  44.959  35.891  11.007
27890W        W89421  11.174  11.189  12.909
27891W        W89422  39.985  28.574   3.653
27892W        W89423  10.206  12.190   5.308
27893W        W89424  42.352  32.528   2.402
27894W        W89425  27.081  13.749  11.901
27895W        W89426  10.873  17.123   9.923
27896W        W89427  25.124  22.589  12.982
27897W        W89428   0.875  16.595   3.166
27898W        W89429  16.638  34.113  11.608
27899W        W89430   6.712   6.877  12.415
27900W        W89431   2.721  23.059   0.930
27901W        W89432   4.775   0.455   4.742
27902W        W89433  26.557   9.762   4.168
27903W        W89434  39.463   1.817  12.563
27904W        W89435  12.752  10.164   0.792
27905W        W89436  21.678  44.407  13.427
27906W        W89437  12.615  44.962   1.908
27907W        W89438  26.578   1.863  14.466
27908W        W89439  26.590  35.596  10.915
27909W        W89440  25.594  25.028  14.855
27910W        W89441  21.054  33.910   3.181
27911W        W89442  37.877   6.859   0.892
27912W        W89443   1.470  37.844   3.816
27913W        W89444  27.574  34.974   3.308
27914W        W89445  10.356   6.427   2.321
27915W        W89446  11.823  16.727   4.761
27916W        W89447  36.950  33.483   4.664
27917W        W89448  31.412  33.601   0.321
27918W        W89449  39.062   5.788   3.854
27919W        W89450   2.362  42.835  14.799
27920W        W89451   7.355  41.312  14.795
27921W        W89452  37.838  24.681   4.794
27922W        W89453  22.520  18.619   0.483
27923W        W89454   9.807  20.559  14.800
27924W        W89455   2.395  29.012  14.399
27925W        W89456  39.964  22.107   0.315
27926W        W89457  12.126  18.736  12.580
27927W        W89458  15.602   7.173  11.543
27928W        W89459   5.234   1.959  14.402
27929W        W89460  43.281  37.042   4.799
27930W        W89461  34.397  11.300   2.376
27931W        W89462  26.629  14.193  10.561
27932W        W89463   8.810  34.907  12.509
27933W        W89464  43.902  41.043  14.998
27934W        W89465  28.452  20.208  11.576
27935W        W89466  11.685  28.059  10.474
27936W        W89467  17.783   8.770  14.776
27937W        W89468  38.440  44.839  13.929
27938W        W89469  35.395  27.977  11.899
27939W        W89470   8.666  41.999  11.525
27940W        W89471  31.995  11.624  10.620
27941W        W89472  25.008  20.726   3.685
27942W        W89473  17.586   8.862   0.831
27943W        W89474  15.762  39.473  14.999
27944W        W89475  19.614  44.476  13.462
27945W        W89476   4.435  43.932   2.373
27946W        W89477  12.278  26.139   1.908
27947W        W89478   5.777  38.016  13.797
27948W        W89479  12.302  32.901  14.295
27949W        W89480  29.932  43.446  11.926
27950W        W89481  28.465  37.034   0.880
27951W        W89482  30.129  44.939  11.963
27952W        W89483  36.356  13.181  13.914
27953W        W89484   3.807  26.142   0.903
27954W        W89485  20.727  18.580  10.915
27955W        W89486  34.097   5.745  14.418
27956W        W89487  31.921  30.913  14.503
27957W        W89488  39.457  30.651  12.549
27958W        W89489  16.612  33.107   3.178
27959W        W89490   6.697  15.811  12.357
27960W        W89491  44.964  13.701  11.929
27961W        W89492   5.869   6.414  11.433
27962W        W89493  43.477  22.501   0.325
27963W        W89494   4.731   9.647  13.439
27964W        W89495  19.092   4.255  11.057
27965W        W89496  13.114  19.283  14.499
27966W        W89497  37.513  10.848   3.176
27967W        W89498  36.590  24.174   4.801
27968W        W89499  28.153  16.670  11.045
27969W        W89500  34.390   9.720   1.331
27970W        W89501  43.447  38.052  12.510
27971W        W89502   0.450  41.017   2.193
27972W        W89503  18.226  22.543  10.458
27973W        W89504  40.484  24.598   3.288
27974W        W89505   3.251  38.547   4.162
27975W        W89506  12.851  35.852   4.350
27976W        W89507  36.423  33.098   4.836
27977W        W89508  29.500  34.048   3.299
27978W        W89509  22.243  13.153   4.236
27979W        W89510   3.417   1.963  11.393
27980W        W89511  35.926   4.450   1.218
27981W        W89512   2.466  36.853  14.821
27982W        W89513  27.182  43.838   2.184
27983W        W89514   4.348  35.516  11.978
27984W        W89515   7.826   3.431  13.455
27985W        W89516   8.273  13.224  11.921
27986W        W89517  10.256  42.323  12.409
27987W        W89518   1.419  10.242   0.422
27988W        W89519  42.923  34.961   3.813
27989W        W89520   5.280  44.920  12.008
27990W        W89521   2.920  37.560  14.953
27991W        W89522  24.044  35.532   1.354
27992W        W89523  21.174  44.876  13.935
27993W        W89524  12.147   4.799  11.055
27994W        W89525  17.782  40.479   1.289
27995W        W89526  18.089  37.477   4.287
27996W        W89527  13.761  41.957  13.912
27997W        W89528  30.498  36.044   0.361
27998W        W89529   3.318  17.183   0.475
27999W        W89530  23.116  21.641  13.016
28000W        W89531   1.249  40.992   1.928
28001W        W89532  13.804   3.952   2.819
28002W        W89533  21.558  23.178   0.868
28003W        W89534  35.367  41.858  12.915
28004W        W89535  17.225   2.897  12.829
28005W        W89536   9.224  42.366  10.463
28006W        W89537  18.635  12.789   1.391
28007W        W89538  38.539  14.609   4.129
28008W        W89539  10.337  39.353  12.077
28009W        W89540  23.021   6.882  12.824
28010W        W89541  11.136  15.684   3.296
28011W        W89542  21.677  26.519   0.779
28012W        W89543  34.534  10.825  10.407
28013W        W89544  13.325   3.797  13.976
28014W        W89545  44.314  30.457  13.349
28015W        W89546  37.918  37.501  11.002
28016W        W89547  10.681  23.653  13.908
28017W        W89548   7.736  34.503  10.925
28018W        W89549  32.611  15.142   3.354
28019W        W89550   4.866  10.215   2.318
28020W        W89551  38.964  43.377   1.234
28021W        W89552  17.076  11.231   3.273
28022W        W89553  32.629  16.180   3.285
28023W        W89554  18.771  39.958   2.745
28024W        W89555  14.232  34.946  12.845
28025W        W89556  10.190   0.896  10.135
28026W        W89557  39.894  30.978   3.688
28027W        W89558   0.345  37.840  13.506
28028W        W89559  29.168  31.487  12.853
28029W        W89560   9.179  14.156   3.690
28030W        W89561  25.035   9.683   2.331
28031W        W89562  22.618   7.181   2.375
28032W        W89563  27.109  38.832  13.832
28033W        W89564   6.264  10.192  11.102
28034W        W89565   2.918  13.224  14.981
28035W        W89566  24.195  42.291   2.299
28036W        W89567   3.220  21.135  10.996
28037W        W89568  26.130  44.279  12.830
28038W        W89569   7.808  10.856  13.824
28039W        W89570  27.196  36.423   2.264
28040W        W89571  15.641   3.789  10.440
28041W        W89572   1.913   3.386   4.654
28042W        W89573  41.820  26.185   4.664
28043W        W89574   9.343  40.955  12.402
28044W        W89575  24.690   7.812   4.804
28045W        W89576  39.064   9.256  14.386
28046W        W89577  15.322   0.419  11.600
28047W        W89578  13.828  42.916  11.592
28048W        W89579   0.778  16.155  12.011
28049W        W89580  24.561  22.540  11.392
28050W        W89581  28.042  41.343   4.168
28051W        W89582   4.784  32.995   2.186
28052W        W89583  10.186  29.099  10.964
28053W        W89584  24.609  37.493   2.744
28054W        W89585  17.736  36.466   4.168
28055W        W89586  14.311  39.413  11.610
28056W        W89587  25.508   9.211   4.207
28057W        W89588  29.545   0.254  14.444
28058W        W89589  12.259  34.937   0.939
28059W        W89590  44.982  22.693  12.046
28060W        W89591   8.737  31.411  10.644
28061W        W89592  11.714  23.998   4.175
28062W        W89593  16.241  20.255  10.600
28063W        W89594  10.639  34.431   5.086
28064W        W89595  25.675  33.396   9.925
28065W        W89596  41.295  15.091   0.871
28066W        W89597  31.522  44.898   2.374
28067W        W89598  43.022  38.044   0.728
28068W        W89599  19.158   8.798   3.726
28069W        W89600  40.515  10.776   1.438
28070W        W89601  13.347  33.428   0.876
28071W        W89602  16.295  42.913   0.836
28072W        W89603  30.643   9.187  13.909
28073W        W89604  19.139  26.095  14.461
28074W        W89605  41.436   8.789   2.694
28075W        W89606  30.498  13.175  13.940
28076W        W89607   5.337  28.968  12.002
28077W        W89608  19.177   0.337  12.491
28078W        W89609   6.870  11.689  12.968
28079W        W89610   8.250  33.408  14.825
28080W        W89611  16.603  37.965   2.794
28081W        W89612   0.468  23.573   0.271
28082W        W89613  18.713  38.408   4.810
28083W        W89614  32.580   0.865   3.163
28084W        W89615  14.627  24.557   2.213
28085W        W89616   4.779  41.896   1.836
28086W        W89617   7.735  37.422  14.839
28087W        W89618  11.350  10.697   4.708
28088W        W89619  42.907  19.152   0.795
28089W        W89620  38.936  43.945   3.792
28090W        W89621  24.480  21.677   1.402
28091W        W89622  11.733  12.687  10.494
28092W        W89623  13.761  28.082  12.540
28093W        W89624  44.877  22.081   3.248
28094W        W89625  13.270  22.169   2.787
28095W        W89626  22.056  34.398   2.220
28096W        W89627  39.883  41.820   3.720
28097W        W89628   0.913  15.139  12.565
28098W        W89629  41.824   1.415  14.988
28099W        W89630   6.222  42.894   2.416
28100W        W89631   1.303  27.496   4.607
28101W        W89632  41.458   4.318   3.660
28102W        W89633  18.152  44.372   9.930
28103W        W89634  10.223   0.449   9.666
28104W        W89635   3.850  37.564  11.099
28105W        W89636  38.519  30.531   4.254
28106W        W89637   6.727  35.062   2.793
28107W        W89638  22.643  10.821   2.780
28108W        W89639  35.549   8.222   0.958
28109W        W89640   0.947  22.068   0.783
28110W        W89641   6.371  39.869  11.883
28111W        W89642  20.651  13.270   4.681
28112W        W89643   6.194  43.874   2.792
28113W        W89644  38.501  16.275  14.840
28114W        W89645  42.345  33.386   2.377
28115W        W89646  20.121   2.374  13.836
28116W        W89647  11.701  14.218  12.513
28117W        W89648  13.683  44.951  14.842
28118W        W89649  28.182  37.444   1.278
28119W        W89650  16.573  38.865   2.685
28120W        W89651   5.722   6.786  13.794
28121W        W89652  13.174  43.436   3.672
28122W        W89653   5.845   7.237   1.399
28123W        W89654  23.092  32.054  12.540
28124W        W89655  36.870  19.235  14.763
28125W        W89656  20.589  23.648   0.965
28126W        W89657  41.319  33.064   2.262
28127W        W89658   6.827  11.862   4.614
28128W        W89659  19.685  37.004  10.527
28129W        W89660  15.192  41.949  13.929
28130W        W89661  24.089  28.519  10.488
28131W        W89662  13.820  23.615  11.044
28132W        W89663  35.981  17.733   4.127
28133W        W89664  29.594   4.355  13.045
28134W        W89665  31.008  32.957  10.609
28135W        W89666   5.919  12.622  13.500
28136W        W89667   7.358   1.900   1.447
28137W        W89668  40.001  39.059  13.326
28138W        W89669  10.695  22.170  12.905
28139W        W89670  38.396  17.668  14.789
28140W        W89671   2.795  24.605  13.358
28141W        W89672  32.069  39.939   1.933
28142W        W89673  26.540  42.005  11.482
28143W        W89674  24.514  37.482   3.195
28144W        W89675  38.886  34.509   3.758
28145W        W89676  27.175  43.334  12.070
28146W        W89677   4.371  29.095  14.503
28147W        W89678  17.624  30.991   3.294
28148W        W89679   5.806  40.431  11.976
28149W        W89680   6.329  14.662   0.772
28150W        W89681  44.396   7.306   4.737
28151W        W89682   0.324  17.088   0.749
28152W        W89683  34.398  19.565   0.793
28153W        W89684  26.475   4.390   2.178
28154W        W89685  16.761   0.826  12.569
28155W        W89686   2.274  18.759   1.880
28156W        W89687  40.524  15.577  12.929
28157W        W89688  32.922  18.653   0.808
28158W        W89689   2.842  43.436   2.896
28159W        W89690  23.702  32.128  12.372
28160W        W89691   3.797  33.577  14.931
28161W        W89692  33.039  34.598   2.303
28162W        W89693  14.263  40.430  13.972
28163W        W89694  41.478  42.515   0.939
28164W        W89695  18.631  24.661  12.026
28165W        W89696  23.558   9.876  11.988
28166W        W89697  21.652  27.617   0.286
28167W        W89698  22.205  22.539  10.499
28168W        W89699  26.162  39.344  11.387
28169W        W89700  35.091   4.914   4.808
28170W        W89701  10.741  36.864  14.289
28171W        W89702  28.159  35.919  12.347
28172W        W89703   2.441   3.265   4.777
28173W        W89704   4.337  38.570  10.432
28174W        W89705  37.941  23.010   0.381
28175W        W89706  20.626  11.260  11.458
28176W        W89707  38.848  30.432  10.959
28177W        W89708  22.682   8.361   2.234
28178W        W89709   4.868  41.921  14.775
28179W        W89710  32.060  38.935   3.747
28180W        W89711  32.426  23.652  14.879
28181W        W89712  25.992  38.849  12.558
28182W        W89713  41.964   0.750   0.766
28183W        W89714   2.827  36.087   1.811
28184W        W89715   1.930  26.535   1.794
28185W        W89716  27.457  29.139   4.777
28186W        W89717   9.321  24.480   1.411
28187W        W89718  28.495  30.912   3.246
28188W        W89719  23.077   0.952   3.820
28189W        W89720  39.866  43.415  13.464
28190W        W89721  14.165   6.371  12.980
28191W        W89722   5.884   1.840   0.299
28192W        W89723  38.550   3.333   1.929
28193W        W89724   6.682   9.224  12.402
28194W        W89725  36.032  13.676   0.745
28195W        W89726  10.700   6.729  12.528
28196W        W89727   7.294  38.338  12.030
28197W        W89728   4.721  22.183  13.379
28198W        W89729  16.229  42.779  12.057
28199W        W89730  30.567  18.129  10.976
28200W        W89731  21.758  34.038   1.859
28201W        W89732   4.919  23.045  10.949
28202W        W89733  41.402  28.665  10.500
28203W        W89734  14.243  20.768   3.195
28204W        W89735  34.865  19.114  10.145
28205W        W89736  25.201  11.699   3.304
28206W        W89737  25.620  35.868  14.306
28207W        W89738  38.857   8.760   3.190
28208W        W89739  41.914  31.946  12.379
28209W        W89740  16.302   0.259   0.933
28210W        W89741  29.547  38.064  14.400
28211W        W89742  36.928  34.996   3.358
28212W        W89743   8.239   8.723   0.353
28213W        W89744   5.783  10.831   4.314
28214W        W89745  24.077  28.529   3.237
28215W        W89746  40.980   5.215   3.695
28216W        W89747  36.026  40.842  12.875
28217W        W89748   4.890   9.160  12.867
28218W        W89749  19.120  12.267   2.294
28219W        W89750  25.559  43.323  10.404
28220W        W89751   4.740  26.678  14.883
28221W        W89752  34.895  19.229   5.122
28222W        W89753  17.260   2.384  10.968
28223W        W89754  10.376  38.409  13.969
28224W        W89755  21.597  31.595   0.352
28225W        W89756  19.582  18.122  11.999
28226W        W89757  38.558  14.252   0.732
28227W        W89758  27.532  15.628   0.329
28228W        W89759  29.545  23.011   4.780
28229W        W89760  25.541  30.638  14.991
28230W        W89761   2.828  28.518  12.575
28231W        W89762  30.637  26.701  12.531
28232W        W89763  35.998  15.216  14.484
28233W        W89764  27.125  21.752   3.163
28234W        W89765   9.676  36.356   4.716
28235W        W89766  30.966  16.250  14.843
28236W        W89767   2.236  36.006   1.724
28237W        W89768  19.098  44.962  10.439
28238W        W89769  19.777  10.333  12.378
28239W        W89770  34.106  14.703  11.977
28240W        W89771  43.297  13.167  10.619
28241W        W89772  22.620  17.096  13.967
28242W        W89773  12.342  17.291   0.315
28243W        W89774  14.628   0.359   1.237
28244W        W89775  13.685   3.774   0.939
28245W        W89776  25.508  32.629  10.140
28246W        W89777  36.399  18.773   0.834
28247W        W89778  36.473  28.468  11.453
28248W        W89779  35.938  42.000  14.957
28249W        W89780  28.571  15.696   4.130
28250W        W89781  24.060  26.615  13.340
28251W        W89782  12.721  28.565  12.909
28252W        W89783  23.644  13.766  12.933
28253W        W89784  35.000   9.259  10.895
28254W        W89785  15.291  43.354   2.813
28255W        W89786  24.181  40.510  11.001
28256W        W89787  38.490  33.971   0.450
28257W        W89788  22.204  40.798   4.170
28258W        W89789   7.202   3.429  12.383
28259W        W89790  20.736   3.718   4.681
28260W        W89791  31.103  22.517   4.780
28261W        W89792  41.334  20.583   3.732
28262W        W89793  22.222  19.041  10.965
28263W        W89794  34.991   0.798  10.901
28264W        W89795  44.504  41.888   3.807
28265W        W89796  35.522  16.140   0.318
28266W        W89797  21.610  26.556  10.027
28267W        W89798  31.412  16.731  13.541
28268W        W89799  14.304  20.624   2.353
28269W        W89800  26.634  25.127  10.949
28270W        W89801  17.294  18.169   1.848
28271W        W89802  35.023   7.742  14.329
28272W        W89803  24.975  24.212  11.895
28273W        W89804  35.415  35.055  13.339
28274W        W89805  15.244  35.069  12.863
28275W        W89806  39.850  20.049   0.819
28276W        W89807  33.919  22.060   4.786
28277W        W89808  15.653   0.918   0.929
28278W        W89809  19.133  14.638   0.863
28279W        W89810  13.799  26.689  12.967
28280W        W89811  31.903  11.344  10.513
28281W        W89812  35.361   8.818   0.942
28282W        W89813  42.383  31.909   1.450
28283W        W89814  19.242  14.104   0.892
28284W        W89815  26.621  33.983   0.285
28285W        W89816  26.594  30.105   3.762
28286W        W89817  21.529   2.328   4.756
28287W        W89818  14.594   6.401  14.377
28288W        W89819  42.326  29.159  13.892
28289W        W89820  36.350  14.114  13.513
28290W        W89821  37.420  10.797  13.449
28291W        W89822  44.761  22.196  13.953
28292W        W89823  15.215  11.668  11.465
28293W        W89824   5.431   8.825   4.833
28294W        W89825  33.599   2.723   0.325
28295W        W89826  26.534   4.767   1.904
28296W        W89827   5.303  12.361   4.633
28297W        W89828  39.396   6.189   4.648
28298W        W89829  32.515  14.151  14.405
28299W        W89830  44.405  18.294  11.073
28300W        W89831   7.380  20.577  11.965
28301W        W89832  40.329  41.479   5.146
28302W        W89833  14.105  28.485  10.550
28303W        W89834  31.590  22.081   4.287
28304W        W89835  32.505  40.001  14.455
28305W        W89836  12.739  27.672  13.906
28306W        W89837  44.979  29.947   2.278
28307W        W89838  31.595  11.336   1.232
28308W        W89839  44.440   0.290   3.766
28309W        W89840  27.018  25.553  12.497
28310W        W89841  36.412  11.625   0.817
28311W        W89842  33.952  16.172   0.320
28312W        W89843  35.058   2.916  11.863
28313W        W89844  21.050  41.527  10.640
28314W        W89845   5.284   2.750  11.051
28315W        W89846  33.006   3.363  14.375
28316W        W89847  42.400  29.632  10.909
28317W        W89848  30.952  42.938   2.822
28318W        W89849  35.560  37.400  13.852
28319W        W89850  26.601  29.555  13.377
28320W        W89851  18.645  10.783  13.317
28321W        W89852  41.890  14.754   3.273
28322W        W89853  38.840   1.763   2.739
28323W        W89854   3.808   4.755  14.770
28324W        W89855  44.468   0.886   0.358
28325W        W89856  33.586  43.800   4.340
28326W        W89857   3.802  30.012  13.963
28327W        W89858  18.692  29.973   1.445
28328W        W89859  17.568  14.322   3.295
28329W        W89860  14.727   8.201  13.951
28330W        W89861  13.691  39.869  11.982
28331W        W89862  15.726  15.327  11.475
28332W        W89863  13.655   9.753   3.811
28333W        W89864  24.218   2.447   3.770
28334W        W89865   4.312  36.445   4.335
28335W        W89866  38.845  21.662   2.317
28336W        W89867  18.097   9.150   1.426
28337W        W89868  43.953  32.041  13.423
28338W        W89869  31.981  20.260  11.459
28339W        W89870  20.573  14.831  10.967
28340W        W89871  17.262  21.110   0.408
28341W        W89872  23.507  26.025  14.312
28342W        W89873  14.214  25.124   0.953
28343W        W89874   4.945  32.558  10.598
28344W        W89875   8.259  23.652  14.337
28345W        W89876  35.470  32.007  11.445
28346W        W89877   6.895  14.820  14.504
28347W        W89878  12.172  10.720   1.420
28348W        W89879  21.061  34.550  11.985
28349W        W89880  42.414   6.896  13.063
28350W        W89881  41.043   0.296   0.365
28351W        W89882  44.368  30.156  14.944
28352W        W89883  26.103  43.311   2.671
28353W        W89884  21.646   9.705  10.443
28354W        W89885  19.690   7.215  14.324
28355W        W89886  44.816  10.358  10.572
28356W        W89887  18.158  23.005   9.996
28357W        W89888   0.983  26.098   2.220
28358W        W89889  39.874  33.454   2.358
28359W        W89890  32.039  24.713   3.211
28360W        W89891  24.636  38.413  12.576
28361W        W89892   2.810   7.391  10.541
28362W        W89893  10.853  12.196  11.460
28363W        W89894  31.125  41.485   3.706
28364W        W89895   0.953  42.459  14.794
28365W        W89896  26.978  30.053   5.254
28366W        W89897  38.407  39.893   1.903
28367W        W89898  41.859  40.476   3.232
28368W        W89899  39.876  11.711  11.567
28369W        W89900  37.035  24.512  11.598
28370W        W89901  20.597  40.447   1.697
28371W        W89902   7.839  27.178  14.925
28372W        W89903   2.957  17.083  11.890
28373W        W89904  36.360  34.065  14.839
28374W        W89905   8.806  27.513   3.798
28375W        W89906   9.680   2.727  13.440
28376W        W89907  28.473  31.565  10.031
28377W        W89908  33.534  29.472  11.553
28378W        W89909  20.733  37.533  12.436
28379W        W89910  35.029  43.808   1.434
28380W        W89911  33.028  11.778   1.915
28381W        W89912  27.982  24.702  13.953
28382W        W89913  23.227  33.505  10.585
28383W        W89914  23.060   1.906  12.395
28384W        W89915  21.570  27.656  14.463
28385W        W89916  22.705  16.769   2.307
28386W        W89917  33.483  12.632  14.761
28387W        W89918  19.705  17.788   3.298
28388W        W89919  37.998  26.129  13.999
28389W        W89920  29.506   4.259   3.343
28390W        W89921  35.911  24.142   1.279
28391W        W89922  28.659   9.761   2.307
28392W        W89923  28.554  15.202   3.146
28393W        W89924  40.459  11.686   0.453
28394W        W89925  14.276  44.931   3.828
28395W        W89926  12.778  22.111   0.291
28396W        W89927  19.561  43.905  12.959
28397W        W89928  29.517  43.463   1.379
28398W        W89929  17.667  25.075   3.815
28399W        W89930  43.792  29.174  12.032
28400W        W89931  24.210  25.556   3.758
28401W        W89932  42.785   3.403   3.221
28402W        W89933  34.465  43.409  11.879
28403W        W89934  29.546  17.122   1.397
28404W        W89935  39.928  36.980  11.452
28405W        W89936  22.057  28.655   4.270
28406W        W89937  19.534  19.690  10.460
28407W        W89938   3.335  44.755   1.332
28408W        W89939   5.748   5.907  10.916
28409W        W89940  39.530   5.407   2.233
28410W        W89941   0.838  38.012  13.456
28411W        W89942  13.828   5.890  13.949
28412W        W89943  11.808  39.340   3.200
28413W        W89944  44.309  17.702   1.431
28414W        W89945  43.321  26.596  14.477
28415W        W89946  19.651   1.246   4.687
28416W        W89947  25.170  36.582  11.879
28417W        W89948  43.417   6.385  10.410
28418W        W89949  28.152  14.831   0.924
28419W        W89950  18.553   1.457  12.366
28420W        W89951  13.811  29.496  14.004
28421W        W89952  34.022  35.931  13.952
28422W        W89953  27.185  35.467   3.801
28423W        W89954  20.753   7.671   3.720
28424W        W89955  42.799   8.266   3.719
28425W        W89956  15.793  23.997  14.396
28426W        W89957   1.817  32.064  14.930
28427W        W89958  11.823  11.841   1.418
28428W        W89959  19.239  37.023   0.417
28429W        W89960  38.554   7.314  11.438
28430W        W89961  36.913   5.785  13.394
28431W        W89962  44.004  34.109   0.756
28432W        W89963  23.688  17.599  11.058
28433W        W89964  32.034  24.712   0.251
28434W        W89965  14.589  25.185  10.571
28435W        W89966  35.870  20.110  14.874
28436W        W89967   2.791   7.831   4.636
28437W        W89968  27.631  21.536  14.493
28438W        W89969  31.983  11.787  14.844
28439W        W89970  27.453  11.638   1.872
28440W        W89971  23.583  32.090  11.861
28441W        W89972   5.922  12.841  11.087
28442W        W89973   6.883   4.713  12.862
28443W        W89974  21.561   0.432  12.890
28444W        W89975  15.191  43.795  13.307
28445W        W89976   5.237  31.898   0.271
28446W        W89977  25.108  21.223  11.940
28447W        W89978  36.476   3.320   4.640
28448W        W89979  38.884  33.425  13.439
28449W        W89980  19.743  31.028  10.583
28450W        W89981  28.153  18.634  12.343
28451W        W89982  32.636  23.734   1.720
28452W        W89983  38.852  24.002   3.336
28453W        W89984  29.619  29.033  13.516
28454W        W89985  31.038  24.141   3.795
28455W        W89986   4.781   3.243  11.942
28456W        W89987   9.215  26.467  14.865
28457W        W89988  24.154  18.669  12.439
28458W        W89989   6.817  18.692   4.241
28459W        W89990  30.551  38.946  13.386
28460W        W89991  21.145  26.146   1.276
28461W        W89992  11.722  17.719   2.307
28462W        W89993  44.901  41.972  12.884
28463W        W89994  15.687  26.164   4.323
28464W        W89995  34.916  13.177   4.649
28465W        W89996   5.891  41.952  11.596
28466W        W89997   4.341  19.091   0.480
28467W        W89998  35.898  25.585  12.084
28468W        W89999  43.327   1.922   5.129
28469W        W90000  18.716  27.150   4.294
28470W        W90001  33.463  31.052   2.358
28471W        W90002  40.437  14.627   3.727
28472W        W90003  26.459  24.056  14.903
28473W        W90004   6.372  33.077  14.846
28474W        W90005  12.846   3.339   1.437
28475W        W90006  30.136   2.397  13.337
28476W        W90007  22.507  32.516  10.917
28477W        W90008  10.644  12.356  11.022
28478W        W90009   3.802   5.209  14.359
28479W        W90010   4.395  44.944  10.577
28480W        W90011  12.296  25.000   2.196
28481W        W90012  12.738  13.131  10.412
28482W        W90013   6.713  15.156   0.422
28483W        W90014  28.005  30.090   0.472
28484W        W90015  20.749   2.388  13.940
28485W        W90016  40.365   3.763  11.040
28486W        W90017   4.427  32.140   0.388
28487W        W90018  16.247  44.929   2.302
28488W        W90019  42.445  25.487  13.510
28489W        W90020   4.929   0.859   2.365
28490W        W90021  42.906  38.873   3.745
28491W        W90022  25.631  21.606   3.227
28492W        W90023  42.926  38.324   3.828
28493W        W90024  20.139  38.536   0.320
28494W        W90025  21.060  43.894  13.978
28495W        W90026  27.107   2.921  14.946
28496W        W90027  36.556   8.171  14.935
28497W        W90028   8.894  34.093  12.395
28498W        W90029  27.453   1.736  13.422
28499W        W90030  19.699  33.036   0.953
28500W        W90031  27.075  33.891  12.496
28501W        W90032  12.709   9.645   1.925
28502W        W90033  26.616   2.809   4.152
28503W        W90034   6.367  18.173   4.225
28504W        W90035  28.601  26.685   2.232
28505W        W90036  29.487  30.644  10.895
28506W        W90037  10.203  23.590   3.344
28507W        W90038  31.454  37.411   1.736
28508W        W90039  32.971  34.582  14.952
28509W        W90040  26.632  10.720   1.336
28510W        W90041  19.272  41.458   3.236
28511W        W90042  44.973  20.694   1.885
28512W        W90043  41.291  38.971  12.904
28513W        W90044  31.979  35.403   3.173
28514W        W90045   4.275   0.901   3.867
28515W        W90046  19.207  13.613  14.809
28516W        W90047  21.092   8.851  13.869
28517W        W90048  24.206  44.837   2.312
28518W        W90049  41.980  26.612   0.887
28519W        W90050  31.583   8.799   4.604
28520W        W90051  15.166  32.908   1.866
28521W        W90052  12.237  28.632  14.329
28522W        W90053  41.038  28.133   3.221
28523W        W90054   1.458  30.633  11.907
28524W        W90055  26.139   0.338   3.779
28525W        W90056  18.583   4.866   4.618
28526W        W90057  32.506   1.887  14.776
28527W        W90058  40.972  41.400   3.648
28528W        W90059   9.315  26.477  10.049
28529W        W90060   1.911  32.920   4.249
28530W        W90061  23.712  37.350   0.916
28531W        W90062   8.735   6.198  12.544
28532W        W90063  25.164  32.929   4.302
28533W        W90064  10.655  17.744   4.231
28534W        W90065  24.557  31.963  11.402
28535W        W90066  15.162  11.828   3.227
28536W        W90067  22.242  43.908  11.552
28537W        W90068  10.664  32.138  12.846
28538W        W90069  44.949  18.115   1.923
28539W        W90070  15.317  14.597   1.772
28540W        W90071   3.763  10.162   2.706
28541W        W90072   0.862   8.371   4.605
28542W        W90073   6.227  24.012   1.841
28543W        W90074  37.513  13.794   4.758
28544W        W90075  12.122  25.140  11.523
28545W        W90076  20.717  34.489   1.237
28546W        W90077  31.030  44.398   1.379
28547W        W90078  19.597   4.408  14.298
28548W        W90079  41.029   9.829  10.891
28549W        W90080  16.075   6.872   4.187
28550W        W90081  12.713   0.909   1.839
28551W        W90082   9.710  38.394   4.757
28552W        W90083   9.388  23.604   3.152
28553W        W90084   2.844   3.240  11.420
28554W        W90085   9.813  21.155   2.296
28555W        W90086   3.856  10.668  13.460
28556W        W90087  34.898  15.238  13.538
28557W        W90088  40.041  36.556   4.816
28558W        W90089  13.311  37.538   1.882
28559W        W90090  23.159  22.515  10.947
28560W        W90091  18.288  42.829  12.445
28561W        W90092  29.659   5.715   4.791
28562W        W90093   3.327  23.009   4.287
28563W        W90094  32.950  11.215  12.985
28564W        W90095  18.766  22.604  10.602
28565W        W90096   5.913  14.621  11.498
28566W        W90097  24.522  32.619   0.451
28567W        W90098   0.891   0.916   0.391
28568W        W90099  33.523  18.137  10.996
28569W        W90100   6.231   6.694   2.744
28570W        W90101  41.337   3.942  14.312
28571W        W90102  43.821   7.691  11.998
28572W        W90103  44.802   1.392   2.802
28573W        W90104  15.191  27.619   4.815
28574W        W90105  15.268  23.137  13.875
28575W        W90106  14.768  10.181   4.658
28576W        W90107   7.681  24.644  11.952
28577W        W90108   9.761  37.867   1.881
28578W        W90109  28.010  30.076   4.192
28579W        W90110  30.459   1.766   4.329
28580W        W90111  26.190  25.685  12.453
28581W        W90112  20.121  20.126  13.463
28582W        W90113  36.581  26.173  10.411
28583W        W90114  13.679   7.248  14.987
28584W        W90115  22.519  17.578   1.860
28585W        W90116   8.815  38.416  11.571
28586W        W90117   2.912   9.163   2.208
28587W        W90118  42.314  15.176   0.338
28588W        W90119  11.176  15.742   0.258
28589W        W90120   2.451  17.797   1.369
28590W        W90121  38.505  42.965  14.456
28591W        W90122  42.907  16.590   0.283
28592W        W90123  10.632  14.137  10.430
28593W        W90124  42.851  18.763   2.401
28594W        W90125  16.184   2.414   0.410
28595W        W90126  24.049  16.256   0.437
28596W        W90127   8.877  28.937  12.867
28597W        W90128  17.650  21.637   9.922
28598W        W90129  35.474  13.701   2.795
28599W        W90130  11.640  37.884   0.355
28600W        W90131  33.584  37.870  13.954
28601W        W90132  26.125  15.192   0.373
28602W        W90133  27.069  34.519   3.350
28603W        W90134  34.041  19.764  10.626
28604W        W90135  44.309  16.648  10.424
28605W        W90136  32.585  42.793  14.464
28606W        W90137   0.492  31.541  14.507
28607W        W90138  24.042   6.776   0.299
28608W        W90139   8.867   6.316  12.945
28609W        W90140  15.657  11.338   0.918
28610W        W90141   6.261  20.131   2.195
28611W        W90142  12.847   5.698   3.722
28612W        W90143  43.502  28.005  12.512
28613W        W90144   3.729  13.662   4.193
28614W        W90145   9.703  27.640  12.854
28615W        W90146  38.899  43.974   0.255
28616W        W90147  30.128  19.621   4.171
28617W        W90148  37.933  41.424   5.199
28618W        W90149  15.253  28.514   3.729
28619W        W90150   9.303   6.785  13.929
28620W        W90151   0.920  37.988  13.915
28621W        W90152  28.543  30.149  12.955
28622W        W90153  36.541  42.024  12.480
28623W        W90154  19.081  23.024  10.632
28624W        W90155  32.055  26.465  13.004
28625W        W90156  14.213  18.092  14.872
28626W        W90157  25.671  20.216   0.277
28627W        W90158  40.891   6.853   4.287
28628W        W90159  16.186  33.476   4.211
28629W        W90160  24.667  21.057   1.848
28630W        W90161  10.273  15.756   2.240
28631W        W90162  12.719  26.118   4.693
28632W        W90163  24.487   2.806  11.408
28633W        W90164   9.738  38.946  14.911
28634W        W90165  13.752  38.333   2.709
28635W        W90166   0.797  42.019   1.418
28636W        W90167  26.630  38.910   1.402
28637W        W90168  26.054  39.328   4.290
28638W        W90169  38.403   3.231   3.384
28639W        W90170   7.265  14.706  12.392
28640W        W90171  38.963  23.626  14.352
28641W        W90172  34.062  34.030   2.279
28642W        W90173  44.444  40.001  12.508
28643W        W90174  34.375  12.700   4.695
28644W        W90175  28.048  16.117  14.758
28645W        W90176  18.734  12.767   3.776
28646W        W90177   8.342  27.515  13.027
28647W        W90178  34.946  33.092  10.495
28648W        W90179   4.438  16.122   3.856
28649W        W90180   3.840  44.331   9.921
28650W        W90181  33.519   0.458  14.980
28651W        W90182  10.637  22.538   3.778
28652W        W90183   6.799  13.259   3.239
28653W        W90184  34.543   0.752   4.779
28654W        W90185  37.025   2.794   3.764
28655W        W90186  14.596  33.580  10.959
28656W        W90187  36.973  20.705   3.718
28657W        W90188  35.898  33.998   3.727
28658W        W90189  28.666  21.586   1.810
28659W        W90190  38.821  31.640   4.327
28660W        W90191  23.042   0.459  14.761
28661W        W90192   4.344  26.478   1.439
28662W        W90193  24.610  19.632   3.748
28663W        W90194   8.683  36.002  13.501
28664W        W90195  20.095  29.519  14.978
28665W        W90196  23.998  16.589   3.724
28666W        W90197  21.639  23.670  12.018
28667W        W90198  12.335  28.003   4.281
28668W        W90199  40.335  19.206  11.906
28669W        W90200  10.856   5.689  13.875
28670W        W90201   4.819  28.513  10.610
28671W        W90202   4.270  12.681  12.525
28672W        W90203  32.010   6.834   4.655
28673W        W90204  29.153  10.312  10.126
28674W        W90205  32.391  38.496  13.532
28675W        W90206  32.462  11.190  13.870
28676W        W90207  22.714  23.217  10.105
28677W        W90208  30.572  21.101  10.043
28678W        W90209  13.664   4.739  13.884
28679W        W90210   9.680  11.186   3.782
28680W        W90211  13.843  28.571   0.327
28681W        W90212  23.007   2.866   2.358
28682W        W90213  29.588  37.991   4.768
28683W        W90214  38.884  29.517   1.892
28684W        W90215  36.979   5.902   4.713
28685W        W90216  31.599  35.033  12.447
28686W        W90217  11.820  25.673  10.610
28687W        W90218  12.188   7.850  14.515
28688W        W90219  18.692  25.178  11.588
28689W        W90220  26.607  30.990   2.391
28690W        W90221   9.657  33.583  12.378
28691W        W90222  28.605  14.270   1.379
28692W        W90223  16.175   7.681   4.615
28693W        W90224  21.113  35.054   1.262
28694W        W90225  13.655   2.854  10.490
28695W        W90226  20.743   1.823   2.267
28696W        W90227  17.572  29.080   4.808
28697W        W90228  22.182  19.731   2.894
28698W        W90229  25.057   3.713  14.435
28699W        W90230  31.927  45.000  10.582
28700W        W90231   1.832   6.809  12.902
28701W        W90232  27.050  32.531   1.261
28702W        W90233  13.134   6.899  14.776
28703W        W90234  38.886  38.018   3.291
28704W        W90235  34.547  43.777   3.826
28705W        W90236  31.556   6.835   4.724
28706W        W90237  43.483   1.890   3.252
28707W        W90238  22.555  27.196   2.775
28708W        W90239   0.813  30.654  13.534
28709W        W90240  15.120  42.804  13.404
28710W        W90241   4.219  12.644   0.825
28711W        W90242   7.846  29.125   4.822
28712W        W90243  23.071  11.349  14.452
28713W        W90244  25.489  24.988  14.401
28714W        W90245  14.600  33.091   0.311
28715W        W90246  33.625  17.253   3.308
28716W        W90247  29.644  12.313   1.391
28717W        W90248  42.027  39.980  14.292
28718W        W90249  26.102  18.786   4.745
28719W        W90250  36.364  19.620  10.093
28720W        W90251  10.799  37.066  13.350
28721W        W90252  24.565  21.665  10.507
28722W        W90253  23.094   3.715  14.764
28723W        W90254   2.805  29.145   3.707
28724W        W90255   6.270  11.232   3.861
28725W        W90256  40.981  21.177   1.240
28726W        W90257  14.698  38.861   5.118
28727W        W90258  26.986  34.572   2.198
28728W        W90259  34.563   1.946   4.290
28729W        W90260  15.707   3.333  13.498
28730W        W90261  41.010  14.613   1.239
28731W        W90262  34.503   6.245   4.344
28732W        W90263  18.193  35.047   3.372
28733W        W90264   7.251  22.707   4.335
28734W        W90265  42.996  37.867   5.106
28735W        W90266  14.115   8.827  10.500
28736W        W90267  23.542  31.936   1.291
28737W        W90268  42.826  17.238   0.726
28738W        W90269  21.526  25.470   3.710
28739W        W90270   7.275  10.750  11.060
28740W        W90271  15.676  41.990   1.893
28741W        W90272  26.464  22.227   2.764
28742W        W90273  35.079  10.171   4.720
28743W        W90274  17.208  21.131   1.863
28744W        W90275   6.203  42.338  10.411
28745W        W90276   7.908  40.376   4.837
28746W        W90277  15.736  24.010  13.833
28747W        W90278   9.170  30.443   2.869
28748W        W90279  27.031  28.453  11.076
28749W        W90280  23.722  13.229   0.308
28750W        W90281  27.448  16.258  13.363
28751W        W90282  23.657   8.674   1.416
28752W        W90283  40.403  22.729  10.598
28753W        W90284  33.096  35.465  14.820
28754W        W90285  18.161  25.195   1.768
28755W        W90286  19.775   6.790   2.884
28756W        W90287  44.881  32.063  12.911
28757W        W90288  38.998   2.376  13.522
28758W        W90289  38.511  42.889  12.908
28759W        W90290  26.699  41.889  12.992
28760W        W90291  18.263  26.159  13.850
28761W        W90292   3.852  32.910   2.691
28762W        W90293  41.428  29.520  13.902
28763W        W90294  25.962  31.978  11.004
28764W        W90295  17.244  38.474   4.175
28765W        W90296  15.311  29.141  14.354
28766W        W90297  18.264  23.007   5.760
28767W        W90298   9.285   8.187  11.017
28768W        W90299  44.472  19.223   1.844
28769W        W90300  23.551  23.715  10.431
28770W        W90301   3.880  22.185  11.611
28771W        W90302  26.493  41.405  12.456
28772W        W90303  40.444   2.462  11.934
28773W        W90304  38.461  36.036   1.277
28774W        W90305  11.332  30.065   1.443
28775W        W90306  20.751  12.827   0.436
28776W        W90307   9.887  13.163  12.415
28777W        W90308  20.764   7.310   1.440
28778W        W90309   5.248   6.725   0.774
28779W        W90310  39.995  31.033   0.910
28780W        W90311   8.350  20.249  11.082
28781W        W90312   7.770  19.558  11.047
28782W        W90313  26.585  12.129  11.038
28783W        W90314  40.446   0.883   3.791
28784W        W90315  31.979  33.901  14.825
28785W        W90316   3.448  39.486  11.882
28786W        W90317  12.215  30.021   1.745
28787W        W90318   3.353  17.136  10.893
28788W        W90319   5.895  17.295  14.893
28789W        W90320   2.440  29.468  13.509
28790W        W90321  24.976  31.153  14.903
28791W        W90322  32.137  35.600  14.911
28792W        W90323  31.585   3.950  11.090
28793W        W90324  15.699  20.087  11.405
28794W        W90325  18.170   5.299  11.461
28795W        W90326   6.255  14.273   1.902
28796W        W90327  21.193  33.414  11.864
28797W        W90328   7.278   1.459   3.278
28798W        W90329  16.688  32.011   2.830
28799W        W90330   2.783   7.668  14.463
28800W        W90331   2.297  43.012   1.815
28801W        W90332  42.526  20.687   1.915
28802W        W90333  43.806   8.788  13.518
28803W        W90334  37.428  19.269  12.495
28804W        W90335   0.291  26.192  11.374
28805W        W90336  25.073   8.181  14.315
28806W        W90337  37.899   3.735   0.470
28807W        W90338  42.008   1.296   0.443
28808W        W90339  28.014  40.325  14.792
28809W        W90340  21.025  30.118   3.645
28810W        W90341  20.080  24.161   9.973
28811W        W90342  23.002   8.658   0.414
28812W        W90343  43.925  27.483   3.771
28813W        W90344  36.923  31.491  12.011
28814W        W90345  12.351  19.093  12.871
28815W        W90346   9.339  15.585   1.868
28816W        W90347  35.544  30.121   0.909
28817W        W90348  20.645  43.859  12.862
28818W        W90349  14.715  36.076  14.888
28819W        W90350  38.386   9.847  13.937
28820W        W90351  22.509  27.154  12.908
28821W        W90352  20.219   4.833   4.719
28822W        W90353  43.764  14.776  11.975
28823W        W90354  35.522   1.410  14.015
28824W        W90355  28.121  14.131   0.356
28825W        W90356  32.498  21.198   2.223
28826W        W90357  41.366  35.085   2.854
28827W        W90358  34.500  13.189  14.778
28828W        W90359   7.813   7.723  12.953
28829W        W90360  14.670  19.744  10.068
28830W        W90361  17.127  15.168   2.769
28831W        W90362  44.832  22.634   2.234
28832W        W90363  20.131  10.200   1.834
28833W        W90364  16.671  29.468   0.731
28834W        W90365   0.969  43.495   0.287
28835W        W90366  17.765  40.914  13.888
28836W        W90367  29.174   9.349  14.437
28837W        W90368  29.955  25.687  14.355
28838W        W90369  11.369  10.384   0.327
28839W        W90370   9.812   4.293  12.361
28840W        W90371   1.846  39.964   0.342
28841W        W90372   9.178  36.898   0.352
28842W        W90373   4.727  20.638   3.208
28843W        W90374  18.751  39.044  12.940
28844W        W90375  40.512  37.850   4.335
28845W        W90376  40.038  13.181  10.404
28846W        W90377  39.864  13.283   2.798
28847W        W90378  30.500  28.993   1.840
28848W        W90379   4.889   7.252   0.278
28849W        W90380  12.828   9.230   0.312
28850W        W90381  35.068  21.528  12.826
28851W        W90382  15.667   4.805   2.259
28852W        W90383  34.007  25.083   0.777
28853W        W90384  36.395  40.017  13.520
28854W        W90385  40.527  31.571   1.387
28855W        W90386  22.590  39.508   3.379
28856W        W90387  13.663  19.662   2.820
28857W        W90388  34.465  16.731  13.939
28858W        W90389   9.787  18.245   3.660
28859W        W90390  13.293   1.415   4.795
28860W        W90391  35.359  37.393  12.036
28861W        W90392  14.171  19.761   0.244
28862W        W90393  31.994  25.618   0.333
28863W        W90394  29.010  27.481   3.331
28864W        W90395  17.240   1.932   3.836
28865W        W90396  39.815  14.152   0.786
28866W        W90397  32.947   4.859  10.482
28867W        W90398   5.802  32.440   4.837
28868W        W90399  27.183  24.537   4.621
28869W        W90400  14.126   2.923  10.506
28870W        W90401  23.693   6.740  13.026
28871W        W90402   9.228  13.752  13.430
28872W        W90403   7.792  32.885  14.781
28873W        W90404   0.378  36.093  11.377
28874W        W90405  11.213   1.798   0.263
28875W        W90406  33.438  19.634   2.731
28876W        W90407  31.970   3.950  10.439
28877W        W90408  21.743  23.035  12.837
28878W        W90409   1.838  14.684   3.299
28879W        W90410   8.171  20.117  13.467
28880W        W90411   1.966  25.978   4.326
28881W        W90412  33.009   7.881  14.925
28882W        W90413  41.005  30.632   2.358
28883W        W90414  17.785   3.827  14.914
28884W        W90415   5.880  18.563  14.011
28885W        W90416   8.732  22.034  13.990
28886W        W90417   1.439  20.198   0.827
28887W        W90418   9.159  11.161   2.893
28888W        W90419  20.134  17.584   2.318
28889W        W90420  11.847  21.192  12.847
28890W        W90421   8.794  24.113  12.561
28891W        W90422  14.760  13.842  11.520
28892W        W90423   9.272  18.762   3.194
28893W        W90424   2.797   3.742  13.837
28894W        W90425  23.642  13.695   2.787
28895W        W90426   0.868   7.264  13.955
28896W        W90427  22.543  40.891   2.211
28897W        W90428  17.244  28.091   1.845
28898W        W90429  25.626  18.291   2.270
28899W        W90430  34.480   6.873   2.747
28900W        W90431  31.086  22.167   0.866
28901W        W90432   8.802  39.927   4.787
28902W        W90433  23.731   8.771   1.934
28903W        W90434  40.035  21.666   0.423
28904W        W90435  43.485  12.618   2.230
28905W        W90436   9.201  28.982   1.705
28906W        W90437  43.017  41.963  14.768
28907W        W90438  21.154  36.573   2.809
28908W        W90439  41.864  38.839  14.966
28909W        W90440  41.384   5.708   0.769
28910W        W90441   3.798  25.023   2.225
28911W        W90442  39.372  20.169  13.812
28912W        W90443   4.372  17.633   4.224
28913W        W90444  44.000   3.877  14.509
28914W        W90445  36.924  40.391  11.499
28915W        W90446   8.211  12.173   0.916
28916W        W90447  30.083  11.656  12.950
28917W        W90448  42.004  17.103   3.260
28918W        W90449   7.386  23.164   4.249
28919W        W90450   9.311   9.239   0.849
28920W        W90451  12.310   8.721   4.764
28921W        W90452   1.407  41.937  13.009
28922W        W90453   6.695  40.469  13.385
28923W        W90454  22.641  38.074   2.880
28924W        W90455   7.727  25.684   2.199
28925W        W90456   9.195  37.358   0.862
28926W        W90457  33.123  22.720  13.016
28927W        W90458  41.987  26.065   4.227
28928W        W90459  14.600  37.453   0.475
28929W        W90460  27.662   0.266   0.264
28930W        W90461   4.800  30.616   4.778
28931W        W90462  23.140  44.488   4.266
28932W        W90463  11.704  26.542   3.741
28933W        W90464  23.998  21.202   0.862
28934W        W90465  22.516   4.320   2.234
28935W        W90466   7.294  39.343  12.909
28936W        W90467  30.044  17.247   3.711
28937W        W90468   6.316   3.324   2.682
28938W        W90469   4.368  23.212   2.696
28939W        W90470  38.435  17.277  13.863
28940W        W90471  14.309  34.988  10.631
28941W        W90472  25.690  20.149   3.356
28942W        W90473  43.472  15.759  12.825
28943W        W90474  11.178   5.342   4.161
28944W        W90475  32.597  27.058  12.515
28945W        W90476  14.810  41.350  10.489
28946W        W90477  11.170  21.570  12.852
28947W        W90478  32.469  20.535   0.851
28948W        W90479  13.802  34.055   3.163
28949W        W90480   3.839   9.245  14.426
28950W        W90481  35.524  19.171   1.267
28951W        W90482   9.239  15.137  14.385
28952W        W90483   3.325  38.982   0.245
28953W        W90484  24.209  23.082   0.307
28954W        W90485  34.980  43.334   3.866
28955W        W90486  19.100  25.537   4.314
28956W        W90487  38.074  26.563  10.956
28957W        W90488  34.592  43.876  10.456
28958W        W90489  10.225  43.995   2.677
28959W        W90490  11.858  35.027   3.283
28960W        W90491  29.555   6.352  13.381
28961W        W90492  40.506  14.329  10.911
28962W        W90493  27.450  34.964  14.515
28963W        W90494  24.207  24.079   2.355
28964W        W90495  25.107  18.683   2.237
28965W        W90496  11.662  41.489   4.128
28966W        W90497  23.005  15.817   4.256
28967W        W90498  17.734  34.943  13.500
28968W        W90499  33.905   6.818  12.083
28969W        W90500  25.712  27.030   3.159
28970W        W90501  34.992   5.894   1.301
28971W        W90502   7.380  11.206   4.832
28972W        W90503  13.110  44.363   3.727
28973W        W90504  31.909  43.368  11.896
28974W        W90505  31.576  22.064  13.361
28975W        W90506   7.692   6.277  12.392
28976W        W90507  14.608  32.887   2.183
28977W        W90508  41.829  26.201   3.362
28978W        W90509  10.761  13.299   0.917
28979W        W90510  13.292  40.841  10.477
28980W        W90511  29.941  33.965  13.029
28981W        W90512  11.329  42.864  14.999
28982W        W90513  24.701  37.873  11.921
28983W        W90514  42.904  24.617  13.015
28984W        W90515  20.251  11.211   0.865
28985W        W90516  16.735   1.901   1.421
28986W        W90517   8.260  43.435   4.352
28987W        W90518   9.266  12.796   1.833
28988W        W90519  29.970   4.928  11.933
28989W        W90520  16.261  28.624  12.422
28990W        W90521  31.938   8.187   3.763
28991W        W90522   6.775   2.313  10.432
28992W        W90523  28.930  32.913  12.002
28993W        W90524  12.359  13.790  11.032
28994W        W90525  13.173  23.590   1.712
28995W        W90526  14.114  35.983   4.158
28996W        W90527  29.519   4.392   0.835
28997W        W90528  29.070   1.440  11.925
28998W        W90529  11.161  15.173  12.981
28999W        W90530  25.588  34.417  11.001
29000W        W90531  33.615  35.545   2.352
29001W        W90532   3.715   3.424  13.882
29002W        W90533  25.057  20.114   2.332
29003W        W90534  43.006  37.035  14.023
29004W        W90535   0.942  12.225  11.994
29005W        W90536  32.579  28.558   2.348
29006W        W90537   1.842   1.256  11.123
29007W        W90538  39.924   4.376  12.353
29008W        W90539  23.493  29.132   5.099
29009W        W90540  11.856   3.398  12.078
29010W        W90541   4.298  13.234  13.474
29011W        W90542   0.823  27.515   1.915
29012W        W90543  34.479   8.868   2.825
29013W        W90544  24.176  12.336  13.923
29014W        W90545  42.336  31.101   3.841
29015W        W90546  31.002   7.855  14.391
29016W        W90547   7.392   9.752  12.394
29017W        W90548   0.801  30.531   0.252
29018W        W90549  18.558  21.189  11.119
29019W        W90550  29.447  34.892  10.051
29020W        W90551  27.979   3.358   0.374
29021W        W90552   0.328  19.177   3.674
29022W        W90553  14.280  38.488   0.894
29023W        W90554  40.519  36.879  10.450
29024W        W90555   6.695  41.336   4.696
29025W        W90556   7.346  31.909   4.277
29026W        W90557  40.928   5.415  13.964
29027W        W90558  29.585   6.755  10.596
29028W        W90559  31.033  11.687  11.877
29029W        W90560   3.332   2.768   0.406
29030W        W90561   4.700  21.606  10.404
29031W        W90562   2.940  44.276  11.107
29032W        W90563  33.518  23.192   0.336
29033W        W90564   7.698  27.135  10.622
29034W        W90565  11.259  41.302   3.321
29035W        W90566   8.890  32.631  14.458
29036W        W90567  22.024  39.428  12.858
29037W        W90568  25.508  34.067  13.395
29038W        W90569  23.607  39.455   0.376
29039W        W90570  14.115   5.356   4.279
29040W        W90571  30.958  39.517   0.802
29041W        W90572   6.755  44.448   4.208
29042W        W90573  36.539   6.280  13.411
29043W        W90574   5.824  18.278  13.322
29044W        W90575   7.890  20.610   4.612
29045W        W90576  16.601  28.651  14.760
29046W        W90577  13.134  38.053   2.765
29047W        W90578  13.829   7.346   1.703
29048W        W90579  29.586  23.176  12.858
29049W        W90580  30.553   4.355  14.446
29050W        W90581  21.149  28.984   1.430
29051W        W90582  18.707   0.877  13.950
29052W        W90583  35.862   2.279   4.620
29053W        W90584  23.704   0.345   1.360
29054W        W90585   8.845  22.111   4.283
29055W        W90586  10.150  15.606   4.322
29056W        W90587  31.097   2.418  13.352
29057W        W90588  34.956   6.735  11.375
29058W        W90589  19.771  22.735  11.965
29059W        W90590  44.804  41.423   5.116
29060W        W90591   2.846   7.212   0.435
29061W        W90592  28.938  44.489   3.653
29062W        W90593  18.249  25.586  14.785
29063W        W90594   5.326  24.669  11.121
29064W        W90595  26.976   7.859  13.484
29065W        W90596  32.111  39.981  13.823
29066W        W90597   5.913  41.825   1.349
29067W        W90598  10.379   1.449  14.806
29068W        W90599  31.923  21.679  12.985
29069W        W90600  30.059  21.123  13.058
29070W        W90601  40.520  25.079   5.112
29071W        W90602   3.759  14.771  12.020
29072W        W90603  34.390  19.743  11.590
29073W        W90604  20.186  17.135  10.081
29074W        W90605  32.391  23.492  12.917
29075W        W90606  16.074   4.271  13.480
29076W        W90607   3.860  42.957   1.881
29077W        W90608  31.098  19.755   4.242
29078W        W90609  34.420  28.613   1.340
29079W        W90610  10.727  13.229   2.831
29080W        W90611  28.564  36.043   2.362
29081W        W90612  30.129  31.577  13.461
29082W        W90613  28.149  24.203  13.058
29083W        W90614  43.947   4.933  10.992
29084W        W90615   0.248   6.899  10.484
29085W        W90616  19.680   6.239  14.310
29086W        W90617  21.250  31.067  13.949
29087W        W90618  12.810  38.390  12.351
29088W        W90619  25.530  17.634   2.705
29089W        W90620   6.272  12.141   4.131
29090W        W90621  16.780  39.386   1.242
29091W        W90622   7.213  28.551  13.012
29092W        W90623  41.365   0.790  14.882
29093W        W90624  12.137  41.393  12.089
29094W        W90625  16.720  23.173  14.277
29095W        W90626  21.025  32.424   2.767
29096W        W90627  35.482   6.185  13.436
29097W        W90628  18.559  36.555  14.456
29098W        W90629  38.537  34.485   3.326
29099W        W90630  16.143  39.339   3.831
29100W        W90631  41.408   4.907   1.749
29101W        W90632  10.773   4.808  14.343
29102W        W90633  23.620  34.871  14.865
29103W        W90634  43.928  20.069  14.291
29104W        W90635  18.670  31.939   0.484
29105W        W90636   3.282  27.175   0.259
29106W        W90637  21.754   8.874  13.438
29107W        W90638  33.458  33.028  13.021
29108W        W90639  13.111  41.334  14.451
29109W        W90640   1.757   9.684   1.846
29110W        W90641  18.558  37.425   3.784
29111W        W90642  38.833  33.961   1.448
29112W        W90643  15.676  23.046  11.384
29113W        W90644  30.068  36.544   2.852
29114W        W90645  39.377   7.773   4.338
29115W        W90646  11.321  34.556   4.124
29116W        W90647   9.818  40.507  14.402
29117W        W90648  31.511  18.567   2.747
29118W        W90649  41.464  21.254  11.509
29119W        W90650  21.734  42.936  12.095
29120W        W90651   0.478   0.794  14.434
29121W        W90652   7.178  13.129  13.447
29122W        W90653  31.028  32.513   4.635
29123W        W90654  24.072  19.122   2.419
29124W        W90655  11.201  20.233   4.761
29125W        W90656  16.286  12.135  11.467
29126W        W90657   9.173  24.618  14.943
29127W        W90658  31.014  20.055   0.947
29128W        W90659   8.249  25.100   3.332
29129W        W90660  39.379  11.718  12.531
29130W        W90661  19.153   9.153  12.458
29131W        W90662  13.704   1.897   1.284
29132W        W90663  18.788  34.116  13.337
29133W        W90664  39.970   8.872   4.719
29134W        W90665   9.174  14.100  12.356
29135W        W90666  20.545  20.155  13.843
29136W        W90667  28.159  11.251  12.475
29137W        W90668  26.166  40.422  14.000
29138W        W90669  27.617  10.347   4.273
29139W        W90670  18.176  29.937  11.478
29140W        W90671  31.536   1.458  11.066
29141W        W90672   7.259   8.342   2.337
29142W        W90673  28.602  12.335  12.490
29143W        W90674  24.185  39.966  11.397
29144W        W90675  13.772   0.313  13.963
29145W        W90676  17.062  40.041  14.421
29146W        W90677  38.928  39.339  11.473
29147W        W90678  21.061  28.478  14.274
29148W        W90679  33.592  23.083   2.708
29149W        W90680   6.882  28.068   0.305
29150W        W90681  14.273  42.509  13.997
29151W        W90682  16.264  22.504  11.951
29152W        W90683  42.286   3.931   2.764
29153W        W90684  39.971  30.442  13.795
29154W        W90685   6.731  20.252   2.196
29155W        W90686   4.219  34.594  12.982
29156W        W90687  21.754  40.543   5.213
29157W        W90688   6.314  44.288  10.135
29158W        W90689  39.395  16.736   0.782
29159W        W90690   2.795   4.353  14.832
29160W        W90691  28.607  19.219   2.317
29161W        W90692   0.473  16.181   0.798
29162W        W90693  39.831  43.823   0.385
29163W        W90694   5.857   8.792   2.419
29164W        W90695  31.995  14.285   1.416
29165W        W90696  41.524   5.242  13.495
29166W        W90697  38.541   1.955  11.899
29167W        W90698  21.717   5.819   0.312
29168W        W90699  17.567   1.963  14.973
29169W        W90700   0.249   8.399  10.564
29170W        W90701  23.109  28.009  12.492
29171W        W90702  15.250   6.274  11.420
29172W        W90703  21.236  19.558  10.974
29173W        W90704  43.503   5.800  10.610
29174W        W90705   9.329  39.442   3.289
29175W        W90706  38.952  44.357  13.433
29176W        W90707   8.776  20.584  14.761
29177W        W90708  34.477  23.184  11.417
29178W        W90709  30.024   5.711   3.154
29179W        W90710  28.560  43.372  10.535
29180W        W90711  16.218  40.809   2.749
29181W        W90712   9.756   3.749   5.240
29182W        W90713  44.792  31.425   3.360
29183W        W90714   6.336  33.952  13.382
29184W        W90715   5.770  13.738   2.882
29185W        W90716  32.965  11.172  13.538
29186W        W90717  32.569  25.172   3.737
29187W        W90718  18.610  42.415  13.812
29188W        W90719  39.987  36.555   0.345
29189W        W90720   0.934  14.676   1.290
29190W        W90721  11.245   9.331   3.755
29191W        W90722  29.025   4.444   3.810
29192W        W90723  32.057  15.194  10.888
29193W        W90724  17.607  32.945   3.319
29194W        W90725  26.190  44.290  11.993
29195W        W90726  37.909   6.213  11.963
29196W        W90727  37.351   8.230   1.393
29197W        W90728   5.768  41.877   3.155
29198W        W90729  42.290  44.941  13.972
29199W        W90730  22.713   6.842  11.582
29200W        W90731  27.032  43.439   1.265
29201W        W90732   0.893  21.168  10.563
29202W        W90733  21.126  18.090   3.188
29203W        W90734  41.373  30.426   2.804
29204W        W90735   3.937  27.674   1.221
29205W        W90736  27.167   9.661   2.276
29206W        W90737  22.685  43.770   1.265
29207W        W90738   1.338  15.780  13.038
29208W        W90739  23.635   3.814  14.903
29209W        W90740  37.057  16.696   4.685
29210W        W90741   6.902  29.121   3.647
29211W        W90742  22.125  31.516  10.584
29212W        W90743  17.781  15.120   1.333
29213W        W90744  10.275  42.799   2.252
29214W        W90745  23.056  35.409   0.883
29215W        W90746   0.447   0.931   0.857
29216W        W90747  24.707  25.151  13.013
29217W        W90748  29.601  28.968   1.237
29218W        W90749  43.330  10.308   1.247
29219W        W90750  22.055  21.217  11.590
29220W        W90751   2.722  33.404  13.865
29221W        W90752  16.123   9.758   0.888
29222W        W90753  16.688  43.499  11.501
29223W        W90754  15.817   3.275   0.334
29224W        W90755  24.575  28.142   5.274
29225W        W90756  42.505  36.516   2.185
29226W        W90757  30.948  30.073  11.933
29227W        W90758   0.879   3.261   2.183
29228W        W90759  42.863   6.800   0.924
29229W        W90760  23.187   7.902   2.872
29230W        W90761  36.375  23.127  13.012
29231W        W90762  19.048  37.370  12.356
29232W        W90763  10.139  40.813   4.155
29233W        W90764  32.574  42.934  11.477
29234W        W90765  42.432  26.575  11.537
29235W        W90766   2.731  41.878  11.009
29236W        W90767  16.089  29.484   2.861
29237W        W90768  17.664  43.444  10.964
29238W        W90769  39.052  32.538   0.950
29239W        W90770  21.605   2.237   0.353
29240W        W90771   9.693  44.441  11.054
29241W        W90772  10.778  37.878  14.935
29242W        W90773  31.458   6.736  14.351
29243W        W90774  17.217  19.722   2.667
29244W        W90775  41.851  28.931   5.269
29245W        W90776  23.195  21.690  11.883
29246W        W90777  43.849   0.969  13.336
29247W        W90778  28.519  35.975   1.280
29248W        W90779  24.563  44.459  11.990
29249W        W90780   8.211  17.573  14.874
29250W        W90781  38.332   5.337  12.389
29251W        W90782  44.500  20.202   2.283
29252W        W90783   8.882   7.734  14.948
29253W        W90784   6.714  34.551   1.255
29254W        W90785   3.290   1.460  11.006
29255W        W90786   8.390  15.138  10.514
29256W        W90787  33.028   5.255   2.373
29257W        W90788  22.013  43.808   3.277
29258W        W90789  23.227  43.279  14.989
29259W        W90790  44.821  15.677   1.911
29260W        W90791  12.845   0.462   1.914
29261W        W90792   8.387  38.060   2.893
29262W        W90793  20.570  37.373   1.932
29263W        W90794   4.207  20.688  13.894
29264W        W90795  27.639  37.838  13.035
29265W        W90796  22.577  21.610  14.771
29266W        W90797  15.810  23.125   2.261
29267W        W90798  34.448   0.431   2.415
29268W        W90799  21.582  21.690   0.783
29269W        W90800  12.269  26.023   2.839
29270W        W90801  40.844  22.133   3.254
29271W        W90802   8.247  21.223  13.914
29272W        W90803  37.961  39.930   4.716
29273W        W90804  30.479  24.122  13.986
29274W        W90805   7.830  17.258  14.282
29275W        W90806  25.586  38.499  11.551
29276W        W90807  21.071  15.299  12.859
29277W        W90808  10.824  37.377  12.912
29278W        W90809  23.583  19.064  10.497
29279W        W90810   6.701  26.042   4.797
29280W        W90811  30.991  31.449   1.758
29281W        W90812  40.453  14.832  12.980
29282W        W90813  17.148  14.689  13.900
29283W        W90814   6.740  39.063  11.960
29284W        W90815  24.982  26.189  11.450
29285W        W90816  33.445  30.008   0.798
29286W        W90817  16.750  34.372  13.913
29287W        W90818   9.214  12.715  13.330
29288W        W90819   9.298  34.950   4.269
29289W        W90820  24.172  27.034   0.473
29290W        W90821  31.910  16.652  11.602
29291W        W90822  32.479  32.630   3.270
29292W        W90823  20.645  39.874  14.309
29293W        W90824  29.668  13.796  10.416
29294W        W90825  12.693   1.901  10.953
29295W        W90826  43.881  37.438  12.042
29296W        W90827  35.575  10.377  12.899
29297W        W90828  19.625   4.761   1.267
29298W        W90829  30.476   6.783   1.818
29299W        W90830  38.427   7.798   3.854
29300W        W90831  42.438  14.170   4.646
29301W        W90832   5.303  28.493   4.810
29302W        W90833  15.261   4.340  14.279
29303W        W90834  35.990  36.592  14.291
29304W        W90835  28.108  39.506   4.298
29305W        W90836   2.840  31.066  11.973
29306W        W90837  28.139  31.072  12.896
29307W        W90838  36.943  41.328  11.129
29308W        W90839  17.194  44.370  12.458
29309W        W90840  14.257  18.578  14.287
29310W        W90841  37.554  43.765   2.199
29311W        W90842   0.292   2.820   2.704
29312W        W90843  14.765  29.477   1.425
29313W        W90844  23.098  14.168   2.717
29314W        W90845  11.634   9.714  11.084
29315W        W90846  40.902   6.273   1.251
29316W        W90847  23.689  17.279   0.755
29317W        W90848  20.190  21.746   4.753
29318W        W90849  30.917  32.561  11.542
29319W        W90850  31.071   7.904  10.573
29320W        W90851  31.631  28.153  10.953
29321W        W90852   7.208  18.773   0.416
29322W        W90853  31.466   3.406   3.639
29323W        W90854  35.595  27.685  11.040
29324W        W90855   9.698  35.458  13.039
29325W        W90856  40.049   6.896  13.946
29326W        W90857   0.358  36.457   1.929
29327W        W90858  38.479  13.308   1.361
29328W        W90859  38.436   1.966   1.343
29329W        W90860  44.296  24.622   0.895
29330W        W90861  39.397  14.636  12.559
29331W        W90862  34.940  23.726   3.637
29332W        W90863  31.535  39.858   3.354
29333W        W90864  15.790  40.014   4.771
29334W        W90865   9.719  20.116   2.313
29335W        W90866  14.288  24.093   1.901
29336W        W90867   5.725  37.984  11.052
29337W        W90868  15.630   2.917   3.347
29338W        W90869   4.903   0.882   5.134
29339W        W90870  34.927  29.498  14.814
29340W        W90871  36.444  25.036  13.834
29341W        W90872  32.089  24.062   2.718
29342W        W90873  15.682  43.006   0.479
29343W        W90874   6.800   3.902   0.264
29344W        W90875  18.292  31.601  11.977
29345W        W90876  27.453  10.175   3.174
29346W        W90877  44.417  31.897   0.255
29347W        W90878  38.072  28.556  12.504
29348W        W90879  32.978  29.972  13.806
29349W        W90880  22.079   1.883  11.875
29350W        W90881  35.545  41.043  12.962
29351W        W90882  25.090   9.806  12.857
29352W        W90883  21.543  43.395   0.876
29353W        W90884   8.165  39.508  11.093
29354W        W90885  31.591  22.205  12.949
29355W        W90886  15.701  38.372   2.749
29356W        W90887  17.646  37.993  11.594
29357W        W90888  18.609   1.241   4.345
29358W        W90889  32.103  31.921   4.203
29359W        W90890  18.605  26.615   2.344
29360W        W90891  10.746   2.450  13.423
29361W        W90892  22.585   6.377   0.335
29362W        W90893   4.894  42.881  13.476
29363W        W90894  35.998  13.653   9.974
29364W        W90895  27.094   7.208   2.741
29365W        W90896   0.790  23.653  12.889
29366W        W90897  37.529  25.574   1.320
29367W        W90898  41.371  33.533   3.177
29368W        W90899  37.444  21.249   2.705
29369W        W90900  24.718  32.414   9.987
29370W        W90901  13.656  20.164   3.808
29371W        W90902  18.757  36.566  11.418
29372W        W90903  16.705  21.748  10.088
29373W        W90904  24.672  22.633  12.983
29374W        W90905  32.980  41.499   2.261
29375W        W90906  18.585  35.868   3.160
29376W        W90907  21.048  40.949  11.468
29377W        W90908  26.610  43.418  11.911
29378W        W90909  19.696  14.315   3.287
29379W        W90910  13.821  20.072  12.507
29380W        W90911  11.253  33.565   5.598
29381W        W90912  43.857   1.332   0.392
29382W        W90913  29.523  17.104  12.400
29383W        W90914  18.274  43.330   0.409
29384W        W90915  11.781  39.915   1.352
29385W        W90916   8.374  20.746   2.804
29386W        W90917  10.238  44.485  14.411
29387W        W90918  14.750  31.490  12.407
29388W        W90919  31.408   9.244   2.336
29389W        W90920  27.162   9.323   2.348
29390W        W90921  31.418  24.700   3.182
29391W        W90922   2.720  40.020   2.720
29392W        W90923  31.408   5.388   1.925
29393W        W90924  17.684  40.951  14.903
29394W        W90925  21.521  39.415  10.920
29395W        W90926  32.525   5.391   0.955
29396W        W90927  44.408  42.490   4.213
29397W        W90928   1.804  14.662   0.444
29398W        W90929   2.880  33.977  13.864
29399W        W90930  21.038   3.403  12.403
29400W        W90931   3.361   9.206   1.434
29401W        W90932  19.596  42.916   3.304
29402W        W90933  22.619  24.145   4.315
29403W        W90934  40.847  26.628   3.368
29404W        W90935  33.998  16.746   4.611
29405W        W90936   9.879  38.481  14.349
29406W        W90937   1.378  42.011   3.795
29407W        W90938   2.371   7.258  13.354
29408W        W90939  36.559   4.850   0.838
29409W        W90940  21.241  34.996  11.989
29410W        W90941   8.850  35.383   3.164
29411W        W90942  12.666  31.047  12.549
29412W        W90943  12.740  22.116  11.027
29413W        W90944  11.156  12.174   3.769
29414W        W90945  30.068  30.067   0.334
29415W        W90946   8.299  14.780   0.275
29416W        W90947  37.986   8.355   0.352
29417W        W90948  22.218  24.602   0.422
29418W        W90949  18.585  12.234  12.904
29419W        W90950  44.842  12.848  14.872
29420W        W90951  40.841  41.421   4.147
29421W        W90952  37.576  15.737   2.202
29422W        W90953  44.291  24.688  14.416
29423W        W90954  15.210  37.447   2.873
29424W        W90955  25.577  22.747  14.888
29425W        W90956   7.342  37.865   3.187
29426W        W90957  36.958   9.696   0.735
29427W        W90958  40.391  41.428   4.647
29428W        W90959  39.909  39.884   4.672
29429W        W90960  14.333  32.978   3.187
29430W        W90961  11.335  27.665   0.386
29431W        W90962  10.270   2.824   4.707
29432W        W90963  38.462  32.485  11.084
29433W        W90964  24.518  25.650  14.956
29434W        W90965  14.294   8.878  12.538
29435W        W90966  38.480   0.927   0.858
29436W        W90967  43.514   7.354   1.258
29437W        W90968  43.432  30.415   1.299
29438W        W90969  29.634  41.890   4.825
29439W        W90970  16.641  34.477   4.271
29440W        W90971  40.817  44.321  14.842
29441W        W90972  19.166  25.545   3.329
29442W        W90973  22.682  31.502   4.782
29443W        W90974  42.857  43.964   1.427
29444W        W90975  33.468  15.308   2.358
29445W        W90976  10.784  42.946   3.756
29446W        W90977  33.052  10.661   0.342
29447W        W90978  35.930  23.634  11.519
29448W        W90979   3.943  26.645   0.781
29449W        W90980  35.878  13.806   1.404
29450W        W90981  41.299  38.396  10.616
29451W        W90982  37.501   7.324   2.178
29452W        W90983  44.877  36.563   2.245
29453W        W90984   3.860  25.481   1.832
29454W        W90985   7.727  24.982   4.703
29455W        W90986  20.557  27.956  14.420
29456W        W90987  42.492  39.430   4.782
29457W        W90988  11.129  35.387  12.536
29458W        W90989   9.329   2.309   2.683
29459W        W90990  29.992  28.662  13.031
29460W        W90991  42.480  23.184  12.015
29461W        W90992  37.032   8.247   3.190
29462W        W90993  33.512  12.650  12.961
29463W        W90994   6.345  34.570   3.211
29464W        W90995  19.071  33.132  10.541
29465W        W90996  25.160  14.255  13.883
29466W        W90997  33.492   7.771   4.335
29467W        W90998  27.089   1.241   1.842
29468W        W90999   9.215  16.267  14.896
29469W        W91000  37.884  16.187   2.391
29470W        W91001   6.375  27.567   2.193
29471W        W91002  13.289  37.538   2.796
29472W        W91003  30.534  12.670  11.531
29473W        W91004  35.940   2.231  12.856
29474W        W91005  16.135  33.879  13.458
29475W        W91006   1.278  11.293  11.044
29476W        W91007  42.295  29.428  13.444
29477W        W91008  37.505  22.105   2.662
29478W        W91009  32.056  36.480  10.973
29479W        W91010  38.407   3.262   4.670
29480W        W91011  20.055   9.800   0.746
29481W        W91012  28.067  16.636  13.495
29482W        W91013  18.610  12.269  10.569
29483W        W91014  24.992  23.031   3.795
29484W        W91015  43.006  26.173  13.958
29485W        W91016  19.130  24.125  14.803
29486W        W91017  13.657   8.692   0.784
29487W        W91018  11.373  26.525  14.435
29488W        W91019  21.053  16.731   0.916
29489W        W91020  37.852  14.301  11.477
29490W        W91021  14.611   6.272  13.338
29491W        W91022  28.456   8.238   2.727
29492W        W91023   9.644   4.718  10.435
29493W        W91024  21.198  32.952  12.929
29494W        W91025  36.051  23.493  10.605
29495W        W91026  28.552  42.797  11.071
29496W        W91027  30.536  17.749   2.349
29497W        W91028   5.342  20.761   4.152
29498W        W91029   3.927  31.449   1.839
29499W        W91030  20.569  24.565   4.132
29500W        W91031  40.348  41.412   3.745
29501W        W91032  21.648  14.610   1.437
29502W        W91033  44.792  28.987   2.699
29503W        W91034  43.455  43.805   2.407
29504W        W91035  42.821  39.880  13.470
29505W        W91036  28.577  20.230   1.287
29506W        W91037  33.482   9.651  11.472
29507W        W91038   0.974  34.512   2.257
29508W        W91039  22.536  42.940   9.922
29509W        W91040  18.615  12.287  14.342
29510W        W91041  44.299  19.573   1.379
29511W        W91042   6.917   1.285  14.376
29512W        W91043  43.465  26.508   3.232
29513W        W91044  18.154  20.580  13.938
29514W        W91045  16.164  42.326  11.383
29515W        W91046  33.109  39.473  11.549
29516W        W91047  27.673  21.167   4.677
29517W        W91048  34.380  36.439   5.217
29518W        W91049  44.926  24.005   2.273
29519W        W91050   9.656  19.575   2.191
29520W        W91051  24.488  30.421  10.627
29521W        W91052  37.435  44.929  14.882
29522W        W91053  34.498   0.289  12.471
29523W        W91054  27.674  41.841  11.453
29524W        W91055  33.930  43.854  14.761
29525W        W91056  31.082  42.444  14.422
29526W        W91057  29.615  24.151   0.335
29527W        W91058  36.968  25.182   4.219
29528W        W91059   5.246   6.841   4.815
29529W        W91060  21.131  34.553  10.010
29530W        W91061  18.573  26.515   4.256
29531W        W91062   9.669  12.301  10.485
29532W        W91063  31.434  42.939  10.626
29533W        W91064  11.832  44.375   1.850
29534W        W91065  44.890  23.595   0.942
29535W        W91066  23.047  21.083  13.810
29536W        W91067  30.154  30.057  13.937
29537W        W91068  44.266  24.183  14.316
29538W        W91069  18.738  32.587   3.342
29539W        W91070  30.023   3.379   3.215
29540W        W91071  20.041  22.624   1.211
29541W        W91072  37.422   5.261   3.278
29542W        W91073  21.201  26.096  13.439
29543W        W91074  20.629  41.831  12.971
29544W        W91075  10.224  30.431   1.416
29545W        W91076   7.340  36.516  13.484
29546W        W91077   3.928  16.181   2.757
29547W        W91078  25.617  43.771  13.473
29548W        W91079   7.771   4.348   4.802
29549W        W91080  18.590  39.939  10.588
29550W        W91081  44.906  23.045  14.898
29551W        W91082  40.830  30.512   3.795
29552W        W91083  15.129  36.086   1.329
29553W        W91084  39.345   0.844   2.310
29554W        W91085   6.198  28.084  12.061
29555W        W91086   1.377  40.305   1.840
29556W        W91087  15.659   2.449  11.465
29557W        W91088  42.524  12.199   0.343
29558W        W91089   9.185  44.313   9.952
29559W        W91090  40.304  16.723   2.744
29560W        W91091  41.899  11.275  14.029
29561W        W91092  11.694  41.857   1.403
29562W        W91093  14.753  36.500   0.866
29563W        W91094  17.617  43.905  10.632
29564W        W91095   2.775  10.750   0.961
29565W        W91096  24.080  14.761   1.802
29566W        W91097  25.086  21.172   3.810
29567W        W91098  32.011   6.285  11.537
29568W        W91099  12.651  28.675  14.875
29569W        W91100   7.400  21.595   0.330
29570W        W91101   1.478  10.147   9.971
29571W        W91102  13.644   3.366  13.992
29572W        W91103  36.510  16.156   2.695
29573W        W91104  32.574  29.540  14.419
29574W        W91105   4.280  33.501  14.392
29575W        W91106  34.581  14.716  11.892
29576W        W91107  40.992   3.409   2.789
29577W        W91108  29.473  29.034   3.220
29578W        W91109   9.188  24.210   2.327
29579W        W91110  40.351   0.780   5.164
29580W        W91111  29.967  29.953   1.874
29581W        W91112  19.197   7.703   0.737
29582W        W91113  41.333  31.557  10.562
29583W        W91114  42.317  43.515  13.346
29584W        W91115  30.038  12.278  12.349
29585W        W91116  39.338   0.400   3.771
29586W        W91117  30.563  37.963   4.179
29587W        W91118  10.867   0.345   1.249
29588W        W91119   0.468  19.254  10.410
29589W        W91120  15.143  38.923   2.356
29590W        W91121  35.408   3.853   0.934
29591W        W91122   0.958  44.477   0.398
29592W        W91123   5.904  39.927  11.503
29593W        W91124  20.110   1.354   2.750
29594W        W91125  42.967  27.616   3.732
29595W        W91126  11.824  30.928  12.829
29596W        W91127  23.620  35.587  13.850
29597W        W91128  16.666   6.329   4.290
29598W        W91129  23.569  39.356  14.492
29599W        W91130   3.392  22.243   1.320
29600W        W91131  15.278  31.961  14.899
29601W        W91132  33.910  39.414  11.595
29602W        W91133  44.333  42.475  11.586
29603W        W91134   0.779  29.052   3.773
29604W        W91135  37.370  43.823   2.734
29605W        W91136   6.343   1.906   2.872
29606W        W91137  40.427  33.505   3.166
29607W        W91138   2.871  24.683  13.943
29608W        W91139  40.910  30.091  13.539
29609W        W91140  23.530  40.548  11.979
29610W        W91141  38.048  33.457  14.870
29611W        W91142  26.029  41.888  12.499
29612W        W91143  33.969   2.313   4.673
29613W        W91144  24.496  17.674  13.488
29614W        W91145  44.764  36.913  14.414
29615W        W91146  44.967  37.480  12.398
29616W        W91147   9.881  30.977  10.921
29617W        W91148  26.186  13.256   1.295
29618W        W91149  41.452  41.454  13.054
29619W        W91150  10.224  20.209   1.724
29620W        W91151  27.556  40.905  13.016
29621W        W91152   2.964  11.639   4.655
29622W        W91153  18.138  21.195   4.125
29623W        W91154  28.004   1.464  10.628
29624W        W91155   1.953  16.574   1.762
29625W        W91156  20.675  32.944  13.015
29626W        W91157  20.227  13.325   0.822
29627W        W91158  28.505  32.469  13.425
29628W        W91159  23.128  13.126  13.386
29629W        W91160  15.115  29.527  10.946
29630W        W91161  22.027  27.985   4.663
29631W        W91162  25.686  14.730  14.450
29632W        W91163  14.217   6.785  14.767
29633W        W91164  15.281  34.536   0.896
29634W        W91165  43.446  36.469   4.834
29635W        W91166   0.461  22.037  13.798
29636W        W91167  15.710  37.893  13.046
29637W        W91168  11.325   4.782  11.543
29638W        W91169   5.743   1.440  10.537
29639W        W91170  23.694  17.794  14.372
29640W        W91171  10.375  25.702   2.714
29641W        W91172  38.908   4.402  12.010
29642W        W91173  42.292  33.114   1.826
29643W        W91174   4.855   0.905   0.742
29644W        W91175  21.093  32.125  10.966
29645W        W91176  10.248   1.398   3.809
29646W        W91177  37.033  37.077   0.876
29647W        W91178  29.595  32.893  12.833
29648W        W91179  33.990  23.167   1.812
29649W        W91180  22.691  24.514  11.875
29650W        W91181  15.271   1.777   3.761
29651W        W91182  35.401   9.258   2.761
29652W        W91183  39.428  16.657   2.184
29653W        W91184  18.152  10.873   4.281
29654W        W91185  23.001  12.719   3.711
29655W        W91186  19.551   5.362  13.819
29656W        W91187  27.160  16.584   1.865
29657W        W91188  44.847  21.099  11.890
29658W        W91189  35.401  18.745   3.216
29659W        W91190  17.720   0.833   3.674
29660W        W91191  15.624  26.618   3.216
29661W        W91192   5.378  41.505   1.846
29662W        W91193  33.437  43.984  12.083
29663W        W91194   2.324  15.750   4.316
29664W        W91195   2.769  20.606  14.844
29665W        W91196   5.286  26.152  13.479
29666W        W91197  15.142   6.240  14.465
29667W        W91198  22.094  30.591   4.247
29668W        W91199  36.982  44.847  13.329
29669W        W91200  31.414   7.852  11.927
29670W        W91201  39.912  18.112  13.046
29671W        W91202  20.264   9.163  13.817
29672W        W91203  32.556  28.598   4.262
29673W        W91204  19.198  32.908   4.791
29674W        W91205  36.095  17.706  12.843
29675W        W91206  22.554   6.789  13.393
29676W        W91207   2.366  30.029  14.916
29677W        W91208  43.821  11.192   2.341
29678W        W91209  25.594   5.853  13.806
29679W        W91210  34.932  39.343   1.322
29680W        W91211   9.776  19.134  10.514
29681W        W91212   9.274  17.703  12.993
29682W        W91213  15.823  25.122  11.100
29683W        W91214  16.128  27.065  14.404
29684W        W91215  15.600  43.934  11.385
29685W        W91216  14.649  25.609   2.285
29686W        W91217  32.561  30.567   4.219
29687W        W91218   4.265  42.330   4.825
29688W        W91219  24.527  30.007  13.471
29689W        W91220   3.329   7.885   4.222
29690W        W91221  37.572  19.157  13.536
29691W        W91222  18.112  22.701   4.676
29692W        W91223  14.824  26.029   4.212
29693W        W91224  36.988  29.135   1.236
29694W        W91225   1.253   6.825  12.467
29695W        W91226  32.014  27.960   2.271
29696W        W91227  27.598  32.506  13.447
29697W        W91228  34.595  11.265   1.377
29698W        W91229  41.382  12.655   1.871
29699W        W91230  30.525  14.796   2.873
29700W        W91231   6.908   6.903   3.225
29701W        W91232  17.568   0.387  14.493
29702W        W91233   5.362  33.007   0.391
29703W        W91234  23.225  25.623  11.612
29704W        W91235  23.653  37.853   0.283
29705W        W91236  41.521   0.887  13.015
29706W        W91237  30.923  12.677  11.396
29707W        W91238  23.502  34.073   4.344
29708W        W91239   9.659  25.585   4.723
29709W        W91240   6.181   0.460   4.240
29710W        W91241  24.523  28.655  12.504
29711W        W91242  37.945  38.921  12.913
29712W        W91243   2.367  22.559   0.434
29713W        W91244  25.525  17.725   4.247
29714W        W91245  28.534  10.235  10.459
29715W        W91246  21.132   6.293  10.431
29716W        W91247  21.086   9.227   5.244
29717W        W91248   6.371  42.328  13.354
29718W        W91249  19.080  14.713  13.344
29719W        W91250   1.417  38.345  14.344
29720W        W91251  10.308  38.443   1.923
29721W        W91252   2.930   9.254   3.642
29722W        W91253   0.403   9.650   3.803
29723W        W91254  31.002  23.656  10.604
29724W        W91255   3.381  21.639   2.310
29725W        W91256  42.492  44.484   4.712
29726W        W91257  13.827  11.781   2.193
29727W        W91258   5.224  36.545   2.209
29728W        W91259   8.853   9.218  13.835
29729W        W91260  43.001  37.490   4.210
29730W        W91261  32.087  24.196  12.927
29731W        W91262  35.464  19.766  11.125
29732W        W91263  21.071  11.838   0.297
29733W        W91264  39.352  23.542  13.896
29734W        W91265  17.305   7.763  12.020
29735W        W91266  19.560  38.413  11.902
29736W        W91267  21.605  22.575   4.600
29737W        W91268   9.666  24.647  13.385
29738W        W91269  23.566   0.970  11.882
29739W        W91270  28.447  21.557   4.814
29740W        W91271  32.106  17.799   0.959
29741W        W91272  26.017  30.502   0.880
29742W        W91273  20.062  31.010   0.803
29743W        W91274  16.234  35.395   2.378
29744W        W91275   9.808  27.155  11.421
29745W        W91276  19.139  36.005   4.202
29746W        W91277  20.236  30.506   2.700
29747W        W91278  16.603  17.644   0.963
29748W        W91279  36.868  33.385   0.322
29749W        W91280  23.606  37.847   1.921
29750W        W91281  30.023  30.598  14.909
29751W        W91282  32.930  11.747  11.433
29752W        W91283  18.664  38.494  10.076
29753W        W91284  39.992   0.788  13.469
29754W        W91285   9.759  34.039  13.843
29755W        W91286  17.728  13.272  13.307
29756W        W91287   8.287  37.569  14.899
29757W        W91288   9.838  16.130   3.228
29758W        W91289   2.876   2.418   3.808
29759W        W91290  37.841  36.071   2.220
29760W        W91291  27.165  44.411   3.177
29761W        W91292  19.041  31.472  11.874
29762W        W91293  20.623  37.498  10.603
29763W        W91294  16.298  26.071   3.385
29764W        W91295  19.137  29.962   3.867
29765W        W91296  32.005  32.550   2.387
29766W        W91297  43.516   5.362  13.927
29767W        W91298  38.950  43.784   4.186
29768W        W91299  19.677  41.800  12.990
29769W        W91300  19.682  27.047  14.853
29770W        W91301  33.916  43.857   2.883
29771W        W91302   3.335  35.394   1.435
29772W        W91303   0.778  23.211   4.795
29773W        W91304  22.534  16.581  14.977
29774W        W91305  33.440  12.316  11.861
29775W        W91306  31.903  11.267  14.869
29776W        W91307   7.396  41.959  14.484
29777W        W91308  14.290   0.950   5.245
29778W        W91309  11.773  20.641   2.267
29779W        W91310  28.582  27.013  12.888
29780W        W91311  42.958  28.587   2.253
29781W        W91312  31.500   7.216   1.806
29782W        W91313   3.448  32.528   2.876
29783W        W91314  31.118  33.464  11.377
29784W        W91315  40.333  16.664   1.283
29785W        W91316  26.040  37.961  14.843
29786W        W91317  13.745  42.794  14.781
29787W        W91318  40.405  15.686   4.805
29788W        W91319   1.899  23.059  12.966
29789W        W91320   8.371   5.373   2.299
29790W        W91321  26.642  30.541  11.394
29791W        W91322  14.654   3.909   0.807
29792W        W91323  30.076  41.391  12.915
29793W        W91324  32.095  11.235  12.459
29794W        W91325  42.362  24.712  13.452
29795W        W91326  15.676  34.109  10.629
29796W        W91327  43.992  14.207  13.822
29797W        W91328  34.045  26.960  10.960
29798W        W91329  11.659  36.921   2.391
29799W        W91330  39.007  10.341  12.439
29800W        W91331  25.208   5.269  11.575
29801W        W91332   0.947  17.671   3.186
29802W        W91333  23.672  26.597  13.487
29803W        W91334   2.424  22.689  12.445
29804W        W91335   0.884  19.049   4.136
29805W        W91336   9.149  42.850   0.756
29806W        W91337  13.136  14.135   0.294
29807W        W91338  43.451  19.172   2.181
29808W        W91339  37.970   9.260   3.325
29809W        W91340   1.860  42.784  13.360
29810W        W91341  35.856  17.685  12.500
29811W        W91342  14.812  22.636   1.390
29812W        W91343  29.599  29.547  10.606
29813W        W91344  44.485  44.756   1.821
29814W        W91345  17.776   9.303   0.358
29815W        W91346  30.046  40.425  14.413
29816W        W91347  41.999   0.304  13.922
29817W        W91348  41.309  25.662   0.283
29818W        W91349   9.749  21.068   1.247
29819W        W91350  26.462  26.685  13.949
29820W        W91351   8.301  40.873  13.325
29821W        W91352  33.402  27.032   2.357
29822W        W91353  33.016   3.832   4.128
29823W        W91354   1.287  17.632   1.281
29824W        W91355   9.348  13.602   2.191
29825W        W91356  35.437  42.496  11.538
29826W        W91357  18.274   5.891  10.899
29827W        W91358  34.504  14.311  12.908
29828W        W91359  33.597  31.044  14.874
29829W        W91360  39.949   2.411  11.552
29830W        W91361  21.157  25.044  11.488
29831W        W91362   0.356  22.713   2.257
29832W        W91363   1.299   2.315  10.470
29833W        W91364  41.477  26.690  11.906
29834W        W91365  29.443  23.641   1.777
29835W        W91366  14.607   1.907   1.249
29836W        W91367  32.964  18.765  13.406
29837W        W91368  22.616   9.194  13.830
29838W        W91369   7.849  22.231   3.181
29839W        W91370  33.958  11.153  12.413
29840W        W91371  25.085  14.828   3.145
29841W        W91372  33.445  42.807   0.312
29842W        W91373   0.325  16.790   2.359
29843W        W91374  23.659  40.872  11.116
29844W        W91375   2.857  27.094  10.493
29845W        W91376  32.511   4.253   1.223
29846W        W91377  13.139  19.065  10.959
29847W        W91378  38.003  20.714  12.477
29848W        W91379  40.490  20.667   2.662
29849W        W91380  32.109   1.319  10.618
29850W        W91381   0.922   2.262  13.028
29851W        W91382   1.933  26.117   1.238
29852W        W91383  31.016  21.221  10.970
29853W        W91384  22.219   6.881   4.624
29854W        W91385   0.359  11.285   3.760
29855W        W91386  32.115  23.565  10.025
29856W        W91387  37.407  29.097   3.693
29857W        W91388  38.830  40.371   0.924
29858W        W91389  34.492  29.501   4.680
29859W        W91390   3.422  35.945   9.964
29860W        W91391  35.453  22.573   3.844
29861W        W91392  36.859   2.917   3.310
29862W        W91393  42.834  29.662  12.913
29863W        W91394   8.873   0.416  13.448
29864W        W91395  30.556  32.022   4.126
29865W        W91396  30.015  44.282   3.337
29866W        W91397  40.937  14.687  10.487
29867W        W91398  31.528  15.102  14.459
29868W        W91399   9.240  35.522  12.022
29869W        W91400  31.126  43.498  12.886
29870W        W91401  41.320  12.306   4.261
29871W        W91402  41.997  14.327  13.494
29872W        W91403  26.982  40.968   2.701
29873W        W91404  42.906  32.912  14.490
29874W        W91405  11.730   1.343  10.532
29875W        W91406  32.634  12.336  13.529
29876W        W91407   1.935  24.528   2.735
29877W        W91408  15.269  15.269  11.561
29878W        W91409  27.118  37.505  14.461
29879W        W91410   0.264   2.796   3.246
29880W        W91411  10.311  38.376  14.943
29881W        W91412   3.215  30.054   3.744
29882W        W91413  36.379  34.391   0.750
29883W        W91414  30.946  14.759  14.806
29884W        W91415  44.478  20.618  14.970
29885W        W91416   3.914  13.737  13.340
29886W        W91417  34.481   8.261   0.459
29887W        W91418  25.147  15.595  10.423
29888W        W91419  36.399  36.384   3.313
29889W        W91420  38.878  38.446   3.670
29890W        W91421  35.557  39.537  14.407
29891W        W91422  34.073  38.418   1.413
29892W        W91423  27.463  37.065  14.870
29893W        W91424  11.169  29.002   1.324
29894W        W91425  12.757  35.939  13.402
29895W        W91426  43.299   9.817   4.717
29896W        W91427  14.756  21.681  14.826
29897W        W91428  19.195  32.090   3.836
29898W        W91429  38.949  26.990   4.123
29899W        W91430  43.828   6.836  11.602
29900W        W91431  24.516  27.633  11.002
29901W        W91432  34.010  18.131   2.265
29902W        W91433   7.838  44.334   3.635
29903W        W91434  16.811   8.334  12.372
29904W        W91435   6.419  23.623   5.156
29905W        W91436  15.792  13.254  13.454
29906W        W91437  22.559  26.554  11.485
29907W        W91438  29.670   9.389   2.719
29908W        W91439  23.582  12.666  14.774
29909W        W91440  15.740  35.893   2.739
29910W        W91441  15.091  19.670  10.560
29911W        W91442  23.146  27.484  12.856
29912W        W91443   2.472   9.273  13.346
29913W        W91444   1.294   5.236  12.421
29914W        W91445  23.534  22.706   0.352
29915W        W91446  15.586  25.026   2.729
29916W        W91447  37.024  36.997  11.457
29917W        W91448   9.851  18.710   2.699
29918W        W91449   7.720  11.744   1.894
29919W        W91450  18.270  33.993   1.383
29920W        W91451  24.199  39.346   4.732
29921W        W91452  23.684  21.590   1.333
29922W        W91453  16.252  40.493  13.420
29923W        W91454  31.006  30.003  10.984
29924W        W91455  17.247  11.733   1.216
29925W        W91456  22.575  24.163   1.388
29926W        W91457   4.208  37.471  13.342
29927W        W91458  43.891  21.688   3.735
29928W        W91459  26.962   7.775   0.948
29929W        W91460   3.437  30.575   4.193
29930W        W91461  27.465  39.839  12.418
29931W        W91462  24.492  17.572   2.321
29932W        W91463   1.783  14.744   4.201
29933W        W91464   7.238  30.518   2.702
29934W        W91465  29.508  15.115  11.562
29935W        W91466  28.943  35.036  12.912
29936W        W91467  26.192  35.386   0.761
29937W        W91468  28.068   3.830   2.674
29938W        W91469  27.618  28.599   2.218
29939W        W91470  23.703  21.046   3.362
29940W        W91471  27.600   5.832   1.447
29941W        W91472  18.749  21.054  11.881
29942W        W91473  21.740  39.029   0.281
29943W        W91474  22.521  26.554   3.753
29944W        W91475  33.479  30.651   0.340
29945W        W91476  25.113  25.626  14.784
29946W        W91477   9.823  40.364   2.849
29947W        W91478  22.618  37.885   1.705
29948W        W91479  14.140  31.967  11.483
29949W        W91480  35.530  16.790   0.260
29950W        W91481  39.427   0.286   0.751
29951W        W91482   0.395  19.125  12.000
29952W        W91483  16.316  17.138  14.832
29953W        W91484  16.287  35.395  13.005
29954W        W91485  37.476  36.003   0.294
29955W        W91486  17.107  19.684  14.501
29956W        W91487  14.239   8.692  14.373
29957W        W91488  27.063  15.759  10.506
29958W        W91489  35.510  42.810   2.846
29959W        W91490  38.891  37.890  14.995
29960W        W91491  44.261   9.273   4.734
29961W        W91492  13.336  43.396   1.784
29962W        W91493  32.608  31.137  14.801
29963W        W91494  37.056  14.195   0.879
29964W        W91495  12.750   3.907  12.419
29965W        W91496  22.149   7.193  14.812
29966W        W91497  21.043   6.711  13.895
29967W        W91498  41.515  32.566   1.293
29968W        W91499  18.289  11.194   4.243
29969W        W91500  35.015  11.229  12.507
29970W        W91501  15.631  14.659   0.727
29971W        W91502   6.228  13.774   0.785
29972W        W91503  39.876  36.870   1.854
29973W        W91504   9.357  38.555  13.968
29974W        W91505  28.461  37.078   3.164
29975W        W91506  12.616  22.644  14.511
29976W        W91507   2.825   8.289   0.746
29977W        W91508  10.795  15.250   3.740
29978W        W91509  16.579  33.037  12.080
29979W        W91510  33.396  34.119  14.760
29980W        W91511  10.298  12.259   3.852
29981W        W91512   7.358   3.730  12.469
29982W        W91513   4.359  26.483  14.338
29983W        W91514  18.689  20.701   0.475
29984W        W91515  22.655  20.692  13.527
29985W        W91516  22.060  17.637  13.936
29986W        W91517  28.930  17.195   0.414
29987W        W91518  19.650  25.661   4.761
29988W        W91519  30.119  12.209   0.962
29989W        W91520  25.648   6.309  13.044
29990W        W91521   3.456  14.285  12.389
29991W        W91522  18.709  38.825   0.277
29992W        W91523  23.180  30.067   3.720
29993W        W91524  31.449   5.282  14.852
29994W        W91525   2.446  15.662  12.841
29995W        W91526  37.928  16.205  14.907
29996W        W91527   0.364  11.133  11.381
29997W        W91528  16.175  36.895   0.409
29998W        W91529  32.952  30.492  11.979
29999W        W91530   0.980  27.167  13.446
30000W        W91531  35.037  13.834  13.464
30001W        W91532  20.235   3.810  14.984
30002W        W91533  36.429  15.183   2.770
30003W        W91534  15.234   1.774   2.664
30004W        W91535  37.024  42.498  14.854
30005W        W91536  23.187  33.564   2.762
30006W        W91537  24.633  39.942   0.297
30007W        W91538   2.373  38.028   2.357
30008W        W91539  15.198  32.464  12.967
30009W        W91540  34.867   9.719   5.160
30010W        W91541  25.670  26.468  11.482
30011W        W91542  18.716  10.734  14.458
30012W        W91543  20.154  23.526  12.444
30013W        W91544  44.399  44.302  11.399
30014W        W91545  43.338   3.857   2.785
30015W        W91546  34.870  38.401   1.790
30016W        W91547  43.996  10.151  14.392
30017W        W91548   5.873   2.416   4.342
30018W        W91549  43.273  13.646   2.391
30019W        W91550  20.262  11.767   2.674
30020W        W91551  22.038   6.782   0.865
30021W        W91552  38.073  34.881   0.310
30022W        W91553   4.762  26.967   4.156
30023W        W91554  13.187  19.728   4.802
30024W        W91555  27.985  15.147  10.016
30025W        W91556  30.641  18.710  13.454
30026W        W91557  28.620  39.857   4.634
30027W        W91558   2.786   6.749   3.849
30028W        W91559   7.271  20.691  11.043
30029W        W91560   0.286  41.877  10.936
30030W        W91561  39.888  39.931  10.899
30031W        W91562  40.457  35.428  12.881
30032W        W91563  19.659  25.210   1.770
30033W        W91564  29.542  44.455   4.618
30034W        W91565   6.351  20.717   1.905
30035W        W91566  20.259   9.690   2.784
30036W        W91567  12.356  29.494  12.051
30037W        W91568   8.893  23.579   3.848
30038W        W91569  19.752  43.401  14.792
30039W        W91570  19.130  11.803   2.839
30040W        W91571   1.756  18.771  13.484
30041W        W91572   0.317  29.937  11.126
30042W        W91573  22.740  13.195   1.433
30043W        W91574  20.662  36.537   3.371
30044W        W91575  22.508  41.818   2.781
30045W        W91576  13.804  35.033  13.510
30046W        W91577  23.617   4.328  13.825
30047W        W91578   3.350   2.758   1.878
30048W        W91579  31.019   9.360   9.436
30049W        W91580  32.045  11.289   2.670
30050W        W91581  40.025  41.400   4.210
30051W        W91582  24.056  25.008  10.960
30052W        W91583  34.120   8.656  13.949
30053W        W91584  33.011  25.173   2.735
30054W        W91585  10.153  26.518  14.400
30055W        W91586   3.855  41.926  11.974
30056W        W91587  31.025  28.577  12.987
30057W        W91588  26.625  38.916   1.761
30058W        W91589  37.510  15.088  14.296
30059W        W91590  25.608  28.030   4.803
30060W        W91591  40.473  39.864   3.366
30061W        W91592   5.892  38.484  13.846
30062W        W91593  27.002  33.388   0.905
30063W        W91594  44.833  18.086   4.629
30064W        W91595  20.252   5.869  10.968
30065W        W91596  41.861  25.177  10.997
30066W        W91597  12.339  36.459   2.388
30067W        W91598  23.154  16.593   0.312
30068W        W91599  39.861   4.859  13.545
30069W        W91600  20.578  33.620  14.963
30070W        W91601  37.475  41.297  10.921
30071W        W91602  44.334  10.876   0.370
30072W        W91603  14.205   5.412   2.762
30073W        W91604  11.237  25.697   1.809
30074W        W91605  34.587  11.173   3.341
30075W        W91606  42.980  26.613  13.501
30076W        W91607   8.723  17.153  13.799
30077W        W91608  13.263  26.967  14.309
30078W        W91609  35.410  39.955  14.475
30079W        W91610  24.992  33.058   2.759
30080W        W91611   1.356  40.042   1.772
30081W        W91612  11.319  30.629   1.839
30082W        W91613  13.617   2.379   2.761
30083W        W91614  26.088  15.189  13.343
30084W        W91615  12.639   3.883  11.435
30085W        W91616  41.891   8.765  11.036
30086W        W91617  20.071  24.651  12.358
30087W        W91618   8.183   9.334   0.801
30088W        W91619  10.858  22.015   1.275
30089W        W91620  36.069  42.974  14.924
30090W        W91621  24.998  19.146  11.068
30091W        W91622  44.842   6.913   2.302
30092W        W91623   1.331  44.917   1.340
30093W        W91624  34.027  27.611  10.950
30094W        W91625  15.308  11.638  11.935
30095W        W91626   2.726  16.699  10.513
30096W        W91627  24.622  32.476   1.382
30097W        W91628  29.596   7.910  14.487
30098W        W91629   4.877  36.842  11.575
30099W        W91630  20.744  33.557   3.168
30100W        W91631   2.791   6.820   1.874
30101W        W91632  11.783  41.430   1.888
30102W        W91633  29.563   6.785  12.001
30103W        W91634  15.608  30.455   9.946
30104W        W91635  28.085   8.826  12.415
30105W        W91636  14.595  43.296   2.899
30106W        W91637  18.743  28.575  10.936
30107W        W91638  32.004  15.755  12.993
30108W        W91639  18.190  17.777   1.859
30109W        W91640  22.010   9.280   3.179
30110W        W91641  31.486  19.087  11.604
30111W        W91642  27.177  38.524  12.947
30112W        W91643  39.834  32.897   2.674
30113W        W91644  25.661  35.015  10.470
30114W        W91645  15.117  37.957  11.491
30115W        W91646  15.124  34.605  13.038
30116W        W91647  19.561  43.787   0.746
30117W        W91648  17.565  25.678   0.328
30118W        W91649  10.148  38.008  14.005
30119W        W91650   3.253  25.503   3.343
30120W        W91651  18.079  42.388   2.719
30121W        W91652  36.867  20.593   1.907
30122W        W91653  36.889   6.331   2.178
30123W        W91654   8.894  20.257  11.953
30124W        W91655   8.310   2.844   4.806
30125W        W91656  34.119  10.261   2.195
30126W        W91657  43.830  44.985  10.560
30127W        W91658   2.725   7.383   2.682
30128W        W91659  37.538  36.046  10.538
30129W        W91660   8.704  19.104   1.329
30130W        W91661  37.900  33.496  12.997
30131W        W91662  42.511  43.503  10.922
30132W        W91663  19.745  18.099   3.164
30133W        W91664   2.720  15.642  10.975
30134W        W91665  36.044  40.038  10.121
30135W        W91666   2.421  16.178  14.424
30136W        W91667   3.358  15.602  12.859
30137W        W91668   1.924  18.782   2.682
30138W        W91669  43.433   6.825   1.447
30139W        W91670  20.717  12.676   3.150
30140W        W91671  42.911  21.643  14.933
30141W        W91672  12.769   8.370   0.374
30142W        W91673  34.863   9.865   5.716
30143W        W91674  11.640  26.555  11.941
30144W        W91675  30.994  29.648   3.337
30145W        W91676  18.170  33.091   3.728
30146W        W91677   3.884   5.217  11.609
30147W        W91678  27.458   4.724  10.515
30148W        W91679  29.562  41.310   1.415
30149W        W91680  35.549  12.710   2.418
30150W        W91681  15.165  29.043  13.405
30151W        W91682  31.634  24.121   2.378
30152W        W91683  18.175  43.328  11.447
30153W        W91684  34.953  36.441   0.290
30154W        W91685  37.904  21.096   1.422
30155W        W91686  28.662  28.121   2.384
30156W        W91687  17.740  44.451   1.269
30157W        W91688  15.804  13.755  11.388
30158W        W91689   4.914  21.210  11.075
30159W        W91690   7.804   2.395   2.281
30160W        W91691  23.080   7.728  11.399
30161W        W91692  27.111  29.598  12.878
30162W        W91693  29.063  28.052   4.696
30163W        W91694  27.972   4.377   1.932
30164W        W91695  25.126  16.243  11.505
30165W        W91696  36.021  28.594   3.145
30166W        W91697   0.845   5.731  10.536
30167W        W91698  38.035  25.105   2.313
30168W        W91699  41.463   9.647   2.772
30169W        W91700  26.082  24.073  14.787
30170W        W91701  10.843  13.220  14.436
30171W        W91702  32.965  20.108   1.440
30172W        W91703  13.266  14.621  10.993
30173W        W91704   1.821  13.799   4.772
30174W        W91705  33.099  23.154   0.758
30175W        W91706   4.715  32.142  14.392
30176W        W91707  31.461  32.071  10.591
30177W        W91708  13.114  15.726   4.334
30178W        W91709  35.363  10.650  13.341
30179W        W91710   5.887   4.728   1.250
30180W        W91711   2.783   6.765   2.879
30181W        W91712  32.955  44.312   1.241
30182W        W91713  19.141  38.913   5.280
30183W        W91714   1.799  41.871  10.492
30184W        W91715  29.069  21.093   1.270
30185W        W91716  36.458  37.514   1.321
30186W        W91717  22.505  24.039  11.559
30187W        W91718  14.784  34.537   4.738
30188W        W91719  39.826  32.058  12.577
30189W        W91720  29.031  31.104   3.791
30190W        W91721  14.758  21.106   0.940
30191W        W91722  43.001  19.689  14.769
30192W        W91723  26.070   7.263   2.275
30193W        W91724  12.662  38.416   3.678
30194W        W91725  37.999  39.952   1.399
30195W        W91726  13.687   9.173   2.350
30196W        W91727  14.702  27.667   4.632
30197W        W91728  20.633   3.757   0.949
30198W        W91729  10.819  43.816   1.436
30199W        W91730  18.615  29.069  13.955
30200W        W91731  22.567  24.086   1.697
30201W        W91732  20.190  24.643  13.892
30202W        W91733  18.185   7.751  11.467
30203W        W91734   7.358  20.605   2.363
30204W        W91735  14.742  35.064  14.875
30205W        W91736  12.670  39.056   0.780
30206W        W91737  39.402  20.696   4.779
30207W        W91738  12.275  15.754   0.459
30208W        W91739  36.395   1.311   4.712
30209W        W91740  39.541   1.901   4.602
30210W        W91741  44.812  14.806  14.487
30211W        W91742   3.858  14.784  10.893
30212W        W91743  41.422  20.697  12.024
30213W        W91744  10.203  39.848   3.372
30214W        W91745   9.790  40.910   2.781
30215W        W91746   1.440   0.264   3.215
30216W        W91747  17.191  32.495  13.888
30217W        W91748  27.144  27.164  10.519
30218W        W91749  43.006  33.061   4.787
30219W        W91750  39.365  12.137  11.936
30220W        W91751  23.534  23.534   1.759
30221W        W91752  10.383  12.697   3.798
30222W        W91753   5.316  28.448   2.798
30223W        W91754   3.394   1.457   1.813
30224W        W91755  30.573  34.520   2.742
30225W        W91756  11.171  30.533   3.633
30226W        W91757  18.726   8.295  12.862
30227W        W91758  14.170  41.390   4.289
30228W        W91759  29.053  28.031  12.867
30229W        W91760  13.683  26.694   1.782
30230W        W91761   7.767   0.412   1.439
30231W        W91762  26.033  25.998  10.933
30232W        W91763  30.417  41.868   1.280
30233W        W91764  40.930  44.359  11.969
30234W        W91765  34.573  42.295   4.251
30235W        W91766   8.657  13.280  12.405
30236W        W91767  15.815   4.913  12.577
30237W        W91768  25.473  14.335  11.123
30238W        W91769  32.593  14.140  12.089
30239W        W91770   9.362  42.483  12.993
30240W        W91771  17.112  41.495  11.564
30241W        W91772  11.288  22.213  14.296
30242W        W91773  29.989  11.203   0.741
30243W        W91774   9.198   2.892   1.297
30244W        W91775   6.305  25.674   2.186
30245W        W91776  44.287  15.695   1.243
30246W        W91777  36.532  29.989   1.847
30247W        W91778  15.327  13.176   2.851
30248W        W91779  20.060  21.192   1.360
30249W        W91780  27.633  12.186  12.502
30250W        W91781  16.164  35.391  13.528
30251W        W91782  43.862  28.094   2.667
30252W        W91783  26.550   6.774   3.191
30253W        W91784  31.430  37.436   2.861
30254W        W91785  25.045  22.503   0.828
30255W        W91786  14.705   8.839  10.462
30256W        W91787   5.215  19.586   2.275
30257W        W91788  14.100   6.878  14.427
30258W        W91789  11.803  42.394  12.389
30259W        W91790  14.098   6.679   2.336
30260W        W91791  28.017  44.993  11.553
30261W        W91792  14.789  31.552   0.270
30262W        W91793  34.982  37.566   1.812
30263W        W91794   7.194  22.229   2.845
30264W        W91795  28.661  20.592  13.409
30265W        W91796  12.313   8.273  13.811
30266W        W91797   1.879   2.931  13.544
30267W        W91798  33.911  36.448  12.361
30268W        W91799   9.221   8.171  12.073
30269W        W91800  23.138  44.920  14.486
30270W        W91801  19.775  29.963  14.340
30271W        W91802  41.866  25.189  14.464
30272W        W91803   8.169  44.898   0.809
30273W        W91804  37.050   5.340  13.312
30274W        W91805  36.411  13.741   2.886
30275W        W91806  22.023  44.969   3.161
30276W        W91807   5.928  11.196  13.858
30277W        W91808  17.783   1.940   0.789
30278W        W91809   4.207   1.462  13.358
30279W        W91810  28.544  28.958  14.004
30280W        W91811  24.975  16.793  11.943
30281W        W91812   3.238  41.036  12.956
30282W        W91813  24.110  36.856  10.907
30283W        W91814  36.429  20.236   1.843
30284W        W91815  32.637   5.818   0.960
30285W        W91816  10.190  30.097   1.379
30286W        W91817  13.713  31.925  11.586
30287W        W91818  19.662  11.155   2.871
30288W        W91819  14.757   7.813   0.415
30289W        W91820  20.056  12.272  14.440
30290W        W91821   4.443  37.029  11.554
30291W        W91822  38.409  17.072   1.325
30292W        W91823  20.137  26.599  13.447
30293W        W91824  16.728   9.660   1.328
30294W        W91825  10.725  27.957   2.857
30295W        W91826   1.957  35.482  12.916
30296W        W91827  28.121  13.247  10.055
30297W        W91828  36.097  33.110  11.900
30298W        W91829  11.652  34.531  11.863
30299W        W91830  25.086  24.639  12.072
30300W        W91831  10.872  32.119  10.142
30301W        W91832  33.048  23.679  14.940
30302W        W91833  43.303  27.944  13.821
30303W        W91834   3.755  12.708   3.825
30304W        W91835  36.380   3.732  14.489
30305W        W91836   3.939  41.942  13.515
30306W        W91837   9.746  28.492   3.752
30307W        W91838  25.199  42.961   2.360
30308W        W91839   9.699  14.196  14.495
30309W        W91840   0.414   8.243  12.450
30310W        W91841  37.924   4.231   0.303
30311W        W91842   7.259  22.613  11.951
30312W        W91843   5.849  10.261   1.786
30313W        W91844  12.697  40.438   1.327
30314W        W91845   2.893  12.218   3.759
30315W        W91846  26.965  31.416  10.450
30316W        W91847   0.908  10.219  13.421
30317W        W91848  22.086  43.813   2.403
30318W        W91849   3.318  10.182  14.796
30319W        W91850  23.220   9.359  10.507
30320W        W91851  18.061  41.860  11.967
30321W        W91852  16.665  39.540   4.310
30322W        W91853  16.294   9.749  10.611
30323W        W91854   5.924  18.066   0.738
30324W        W91855   2.920  37.424   4.715
30325W        W91856  14.192   6.890  13.878
30326W        W91857  39.495  23.051  12.964
30327W        W91858   9.164   0.365  10.566
30328W        W91859  17.263  25.049   1.772
30329W        W91860  23.012  22.073  12.991
30330W        W91861   3.340  31.419   0.891
30331W        W91862  15.205  31.974   5.306
30332W        W91863  21.184   7.188   9.951
30333W        W91864   4.372  16.752  11.043
30334W        W91865  29.032  35.980  14.844
30335W        W91866  11.849  32.405   4.281
30336W        W91867   0.937  14.677  11.866
30337W        W91868  22.117  32.000  10.469
30338W        W91869   5.916  17.703   0.800
30339W        W91870  20.164  44.944  12.833
30340W        W91871   4.871  19.692   0.399
30341W        W91872  33.498  39.054  13.449
30342W        W91873  15.730  35.067   0.477
30343W        W91874  30.527  30.112  14.469
30344W        W91875  21.253   4.389  14.974
30345W        W91876   2.273   8.770  10.118
30346W        W91877   7.691  41.477  11.595
30347W        W91878  31.552  39.866   4.645
30348W        W91879  16.306  18.189  13.840
30349W        W91880  32.030  38.056   5.617
30350W        W91881   2.312  26.131   0.381
30351W        W91882  11.242  41.788  13.520
30352W        W91883  30.123   4.421   3.348
30353W        W91884  35.000  37.040  13.880
30354W        W91885  21.755  12.786  10.969
30355W        W91886   6.749  31.532   1.289
30356W        W91887   6.882  34.008  12.079
30357W        W91888  28.543  39.401   3.263
30358W        W91889  36.428  32.490   3.365
30359W        W91890  38.452  39.047  12.887
30360W        W91891  39.950  23.079   1.809
30361W        W91892  41.478  35.548   4.328
30362W        W91893  43.291  38.368  11.072
30363W        W91894   8.191  11.277  13.831
30364W        W91895  35.983  33.618   2.695
30365W        W91896   1.309  38.335   2.817
30366W        W91897  44.338  10.336  14.323
30367W        W91898  31.426   3.921   4.321
30368W        W91899  37.858  24.533  11.441
30369W        W91900   6.688   1.760  12.500
30370W        W91901  22.234   7.370   2.878
30371W        W91902   5.272  42.891  11.472
30372W        W91903   6.275  23.187   2.754
30373W        W91904  12.228  28.475  14.909
30374W        W91905  32.088  12.837  12.357
30375W        W91906  12.657   9.378  14.903
30376W        W91907  16.584   5.790  10.901
30377W        W91908  30.418  38.046   1.733
30378W        W91909  15.301  41.333   2.398
30379W        W91910  32.589  19.102  11.102
30380W        W91911  26.622  32.402   3.278
30381W        W91912  40.009   9.225  12.001
30382W        W91913  41.839  12.191   1.435
30383W        W91914  15.644  44.921  13.343
30384W        W91915  13.306  41.025   4.740
30385W        W91916  37.888  36.043  13.880
30386W        W91917  36.973  36.424   3.705
30387W        W91918  24.724  17.719   0.778
30388W        W91919  32.064  16.587   2.327
30389W        W91920   5.854  20.162  11.966
30390W        W91921  25.193  35.039  13.050
30391W        W91922   5.213  43.330   3.153
30392W        W91923  26.032  26.192  11.409
30393W        W91924  11.786   9.648   0.437
30394W        W91925  32.898  33.401  10.973
30395W        W91926  38.354  17.188   0.469
30396W        W91927   5.378  22.729  11.105
30397W        W91928  22.164  32.549   9.637
30398W        W91929  29.662  13.192  14.454
30399W        W91930  39.478  18.055   4.128
30400W        W91931   0.857  32.954  12.521
30401W        W91932   0.936   3.715  13.927
30402W        W91933  16.174  26.123  14.908
30403W        W91934   1.287  41.791  14.800
30404W        W91935   9.671  35.026   4.647
30405W        W91936  35.481  29.958   1.783
30406W        W91937   8.734  12.283  10.907
30407W        W91938  41.992  19.184  10.523
30408W        W91939  34.874  23.005   4.189
30409W        W91940  11.690  43.983   3.263
30410W        W91941  12.827  11.197   0.883
30411W        W91942   1.354  28.629   3.769
30412W        W91943  26.199  37.366  13.436
30413W        W91944  17.749  33.918   0.421
30414W        W91945  41.931   3.765  14.413
30415W        W91946  38.980  28.064  14.275
30416W        W91947  11.861   1.336   9.671
30417W        W91948  30.468  28.598  14.022
30418W        W91949  31.018  24.097  13.824
30419W        W91950  14.244  36.875  14.310
30420W        W91951  39.558  31.916   4.207
30421W        W91952  26.081  27.487  12.020
30422W        W91953  17.702   3.352   2.678
30423W        W91954  31.575  17.178   4.155
30424W        W91955  35.952  38.528  10.492
30425W        W91956  37.994  42.841  13.516
30426W        W91957   0.397  30.563  10.431
30427W        W91958  16.622  39.386   0.332
30428W        W91959  27.499  24.608  13.313
30429W        W91960  27.169  22.125   0.921
30430W        W91961  23.517   1.412  13.033
30431W        W91962   4.267  29.520  12.860
30432W        W91963   9.803  18.248   0.830
30433W        W91964  27.537  32.087  13.972
30434W        W91965  17.077  42.910  14.464
30435W        W91966  28.934  26.048   4.279
30436W        W91967   3.451  35.954  12.048
30437W        W91968  22.745  10.144   4.733
30438W        W91969  13.339  33.507   4.252
30439W        W91970   4.836   2.466   1.281
30440W        W91971   4.343  42.429  10.571
30441W        W91972  10.647  11.774   2.730
30442W        W91973   8.677  32.979  11.001
30443W        W91974  15.729  43.391   4.655
30444W        W91975  30.934   1.378   1.745
30445W        W91976  28.113  32.096   5.143
30446W        W91977  36.060  14.298   1.857
30447W        W91978   1.816  35.408  14.366
30448W        W91979  40.482  13.289  10.151
30449W        W91980   3.215  40.421  12.011
30450W        W91981  38.333   4.385  12.482
30451W        W91982  27.122   5.347  14.010
30452W        W91983  23.997  35.373  11.090
30453W        W91984  22.031  44.457  13.062
30454W        W91985  14.685  32.992  12.427
30455W        W91986  42.413  33.580   3.804
30456W        W91987  14.689   0.984   0.243
30457W        W91988  35.515  11.360   1.902
30458W        W91989  26.127  31.121  13.030
30459W        W91990   3.875   6.412   1.350
30460W        W91991   3.950  29.528  10.524
30461W        W91992  19.713  41.520  11.534
30462W        W91993  32.952  24.064   4.801
30463W        W91994  11.685  15.801  14.854
30464W        W91995  40.373  15.644   1.729
30465W        W91996  38.849  35.002   3.263
30466W        W91997  20.528  17.743   3.227
30467W        W91998  12.719  19.755   4.820
30468W        W91999  11.302  22.087  12.364
30469W        W92000  31.052  33.475   0.762
30470W        W92001  22.690   2.321  14.908
30471W        W92002   9.334  43.934   2.346
30472W        W92003  10.665   2.828  14.349
30473W        W92004  38.051  28.175   1.401
30474W        W92005  34.376  17.574  14.511
30475W        W92006  25.472  15.823  12.050
30476W        W92007  37.418  19.778  12.876
30477W        W92008   0.248  42.396   0.400
30478W        W92009  34.061  39.848  12.962
30479W        W92010  34.115  36.358   2.243
30480W        W92011   8.686   1.286   0.737
30481W        W92012  35.967  36.484  11.460
30482W        W92013  25.537   4.429   3.835
30483W        W92014   0.429  41.424  13.815
30484W        W92015   4.728  35.974  13.399
30485W        W92016  32.972   6.386   1.705
30486W        W92017   0.978  14.724   3.202
30487W        W92018  22.200   0.814   0.894
30488W        W92019  31.915  10.154   3.666
30489W        W92020  34.417  40.898   4.115
30490W        W92021  21.034  33.615  11.413
30491W        W92022  27.617  14.339  10.613
30492W        W92023   9.188  36.870  13.010
30493W        W92024   3.376  38.570  12.403
30494W        W92025  26.117  17.168   3.723
30495W        W92026  41.886  16.601   3.705
30496W        W92027  29.171  16.773   1.214
30497W        W92028  33.444  30.632   3.339
30498W        W92029  30.951  27.500  10.626
30499W        W92030   9.229   8.299   4.338
30500W        W92031   6.217  39.850  12.392
30501W        W92032  19.091  29.948   1.735
30502W        W92033  28.145  21.525  12.521
30503W        W92034  43.414  33.469  13.849
30504W        W92035  38.010  33.057  11.413
30505W        W92036   5.397   3.813  11.446
30506W        W92037  27.677  37.432  10.965
30507W        W92038   2.306  39.397  13.485
30508W        W92039  27.019  32.023  12.022
30509W        W92040  33.092   8.319   2.371
30510W        W92041  30.015  30.481  12.420
30511W        W92042  17.179   4.352  14.296
30512W        W92043   0.805  14.264  14.979
30513W        W92044  41.370  20.592   3.193
30514W        W92045  38.392   2.730  12.926
30515W        W92046   8.255  33.912  14.975
30516W        W92047  26.169  17.720   3.806
30517W        W92048  35.941   2.399   0.304
30518W        W92049   8.377   2.922   1.253
30519W        W92050   5.325   4.402  11.552
30520W        W92051  41.492   3.943   3.766
30521W        W92052  15.119  12.338  14.410
30522W        W92053   5.840  40.406   2.782
30523W        W92054  42.823  43.920   4.759
30524W        W92055   6.770   8.386  11.523
30525W        W92056  34.062  33.956  14.825
30526W        W92057  17.185  44.396  13.972
30527W        W92058  38.562  34.069   1.244
30528W        W92059  15.273  39.509  14.987
30529W        W92060  21.150  42.000   3.860
30530W        W92061   0.895   8.195   2.414
30531W        W92062  23.109  42.326  12.875
30532W        W92063  26.203  21.756  11.951
30533W        W92064  20.685  19.271   4.247
30534W        W92065  41.476   1.774   4.190
30535W        W92066  31.996  17.596  12.876
30536W        W92067  16.255  33.073   4.657
30537W        W92068  35.456  33.462  10.624
30538W        W92069  30.414   7.197  13.894
30539W        W92070   5.385  39.842   4.775
30540W        W92071  33.924  38.484   2.395
30541W        W92072   9.857   5.907  10.452
30542W        W92073  40.864  35.361   0.329
30543W        W92074  43.277  23.005  12.537
30544W        W92075  29.586  23.000   1.396
30545W        W92076  17.234  29.430  12.439
30546W        W92077   3.827  21.140   2.790
30547W        W92078   0.450  27.197   2.240
30548W        W92079  12.691  18.610  13.322
30549W        W92080   8.268  44.898   3.161
30550W        W92081  10.368  32.105   4.826
30551W        W92082  23.623  10.730  14.855
30552W        W92083  40.803  37.010   0.314
30553W        W92084  41.792  43.954   4.132
30554W        W92085  35.480   7.848  10.607
30555W        W92086  20.745  33.911  13.441
30556W        W92087  15.306   6.702  11.077
30557W        W92088  19.623  23.991   2.381
30558W        W92089  40.446  43.419   4.714
30559W        W92090  18.069  31.059  13.967
30560W        W92091  32.904  12.278  11.096
30561W        W92092  35.866  34.118   0.967
30562W        W92093  27.608  25.124  12.823
30563W        W92094  33.075  21.140   2.759
30564W        W92095   6.319  34.028   1.767
30565W        W92096  19.650  24.574  13.334
30566W        W92097  27.600  44.841   1.265
30567W        W92098  22.705  16.699  11.958
30568W        W92099   5.222   0.902   1.906
30569W        W92100   8.722   7.344   2.684
30570W        W92101   8.808  36.495   0.346
30571W        W92102   1.773   2.775   2.694
30572W        W92103  30.547  17.675  14.843
30573W        W92104  10.328   0.458   2.265
30574W        W92105  13.338  26.087   4.347
30575W        W92106  40.052  35.060   2.787
30576W        W92107  27.072  16.780  10.485
30577W        W92108  25.165   0.298   0.385
30578W        W92109   3.296  22.703   4.641
30579W        W92110  41.535  24.988   1.813
30580W        W92111  38.955  36.089   5.133
30581W        W92112  28.657  34.986  10.442
30582W        W92113  37.338   4.793   1.881
30583W        W92114  32.927  21.544   2.875
30584W        W92115   8.782  15.737  13.441
30585W        W92116   2.801  20.055  14.304
30586W        W92117   6.891  10.327   0.462
30587W        W92118  18.657   8.192  11.389
30588W        W92119   9.889   6.683   4.702
30589W        W92120  15.695  17.730  10.643
30590W        W92121  43.935  27.096   2.811
30591W        W92122   2.854  10.681   2.414
30592W        W92123  43.007  31.926  12.873
30593W        W92124   2.805   9.724   2.410
30594W        W92125   9.755  36.564  14.776
30595W        W92126   5.282  43.005  14.783
30596W        W92127  21.731  26.146   3.277
30597W        W92128  21.036  14.599  12.537
30598W        W92129  21.171   0.303  11.554
30599W        W92130  39.476  16.165  12.369
30600W        W92131  42.985  42.362   1.253
30601W        W92132   8.194   8.659   1.708
30602W        W92133  15.119  11.217  14.020
30603W        W92134  43.350  24.180  12.384
30604W        W92135  13.799  31.095  11.945
30605W        W92136  38.045  26.208  14.352
30606W        W92137   2.326  34.898  12.448
30607W        W92138  37.542   0.354   4.236
30608W        W92139  32.920   6.190   3.237
30609W        W92140   5.791  24.215  10.135
30610W        W92141  31.460  23.170   0.841
30611W        W92142  32.586  42.377   1.326
30612W        W92143  14.600  19.658  14.376
30613W        W92144  44.468  10.306   4.718
30614W        W92145   5.890  15.733  14.356
30615W        W92146   1.481   4.895   0.963
30616W        W92147  20.718  30.539  14.286
30617W        W92148  36.458  28.586   3.158
30618W        W92149  42.417  10.772  12.388
30619W        W92150  21.159  44.924  11.962
30620W        W92151  11.638  29.501   3.811
30621W        W92152   6.359  26.993  11.510
30622W        W92153   5.230  35.913  11.508
30623W        W92154  37.017  39.321   3.644
30624W        W92155  14.186  17.724   1.709
30625W        W92156  15.669  15.274  10.934
30626W        W92157   9.189  44.842   5.762
30627W        W92158  37.559   3.748  13.039
30628W        W92159  11.702  31.531  13.044
30629W        W92160  38.331   6.914  11.410
30630W        W92161  14.637  34.563   2.199
30631W        W92162  11.252   4.743   3.341
30632W        W92163  25.197  36.895  10.560
30633W        W92164  24.642  11.166  13.383
30634W        W92165   6.680  30.559   1.221
30635W        W92166  32.566  13.706   4.724
30636W        W92167  34.032  11.214   2.215
30637W        W92168  12.802  21.145  12.879
30638W        W92169   8.660   1.932   0.377
30639W        W92170  42.522   1.923  14.477
30640W        W92171  20.224  31.946  10.588
30641W        W92172  12.280  30.507  13.944
30642W        W92173  13.331   6.214   0.261
30643W        W92174   2.396   0.358   1.901
30644W        W92175   7.359  12.217  10.889
30645W        W92176  37.389   8.319   1.882
30646W        W92177  28.951   9.291  11.558
30647W        W92178  31.153  12.683  12.972
30648W        W92179   1.769  33.473  13.326
30649W        W92180  42.507  31.524  11.875
30650W        W92181  17.112  37.978   2.336
30651W        W92182   3.826  36.028   4.737
30652W        W92183  26.697  25.201   2.883
30653W        W92184  10.794  33.926   4.597
30654W        W92185   8.398  41.010   4.120
30655W        W92186  11.274  15.108  12.361
30656W        W92187  34.398  35.875   2.756
30657W        W92188  20.750  23.089  11.930
30658W        W92189  44.436  30.062   4.236
30659W        W92190  25.979  41.815   2.376
30660W        W92191  13.279  30.538   0.275
30661W        W92192  16.810   4.412   2.361
30662W        W92193  37.008  21.104  14.434
30663W        W92194  37.837  20.273   2.890
30664W        W92195  41.981   6.880  11.602
30665W        W92196  25.650  28.128   3.172
30666W        W92197  23.069  32.114   2.902
30667W        W92198  20.544  44.450  10.611
30668W        W92199   5.843   1.731  13.441
30669W        W92200  14.657  39.922  14.775
30670W        W92201  19.646  30.628  14.490
30671W        W92202   9.845   1.377  14.354
30672W        W92203  38.060  23.637  13.047
30673W        W92204  19.239   5.312  13.874
30674W        W92205  12.718  38.862  13.904
30675W        W92206  44.971  35.563   1.744
30676W        W92207  28.590  31.990  14.433
30677W        W92208  35.031   6.715   1.365
30678W        W92209  43.897  36.504   4.311
30679W        W92210  39.375  15.262   1.927
30680W        W92211   2.854  18.210  14.992
30681W        W92212  43.941   8.289  10.951
30682W        W92213  19.661  12.737  14.450
30683W        W92214  42.301  28.077   2.187
30684W        W92215  10.327  43.486  13.515
30685W        W92216  40.955   3.397  13.874
30686W        W92217  11.333  20.533  13.454
30687W        W92218   4.719  29.464  13.912
30688W        W92219   2.233  20.254  12.350
30689W        W92220  41.383  18.123  10.986
30690W        W92221  18.240  27.663   3.186
30691W        W92222  15.679  41.872  12.381
30692W        W92223  44.995  18.652   1.701
30693W        W92224  15.287  10.875   1.319
30694W        W92225   6.384  23.196  13.004
30695W        W92226  22.072   7.338   0.390
30696W        W92227  22.554  12.712   1.722
30697W        W92228  29.579   8.669  14.464
30698W        W92229  10.263  39.825   4.679
30699W        W92230   9.395  21.115   4.290
30700W        W92231  25.966  40.487  14.446
30701W        W92232   4.427   8.360  11.113
30702W        W92233  19.249   4.792   2.262
30703W        W92234  42.435   5.324   1.225
30704W        W92235   5.873  32.575   3.646
30705W        W92236  33.027   0.843   4.151
30706W        W92237  17.196  25.646   4.767
30707W        W92238  26.010  22.518   2.817
30708W        W92239   8.188  17.762   3.811
30709W        W92240  37.951  39.059   3.354
30710W        W92241  32.099  39.547  14.903
30711W        W92242  29.986  39.457   0.391
30712W        W92243  21.566  35.027   2.663
30713W        W92244  20.765  30.523   3.241
30714W        W92245  18.234  42.989  14.455
30715W        W92246   2.820  15.135  12.415
30716W        W92247   1.921  29.541   4.235
30717W        W92248  18.608  40.457   0.930
30718W        W92249   6.922  22.165   0.814
30719W        W92250  13.635   6.840   0.796
30720W        W92251  42.916   4.761   3.828
30721W        W92252  41.350  31.099   4.244
30722W        W92253  28.949  31.457   4.691
30723W        W92254  16.165  35.939   4.237
30724W        W92255   3.845  30.469  10.563
30725W        W92256  43.841  11.641   4.747
30726W        W92257  41.013   9.859   3.242
30727W        W92258  18.233  33.032   1.880
30728W        W92259  41.948  26.483   1.834
30729W        W92260  41.445   1.352   2.847
30730W        W92261   4.829  26.177  11.519
30731W        W92262  35.364   9.828   4.726
30732W        W92263   0.299   3.813  12.047
30733W        W92264  15.729  31.408   2.235
30734W        W92265  24.097   3.459   3.699
30735W        W92266  25.537  33.435  10.540
30736W        W92267   2.288  19.760  14.321
30737W        W92268  18.264  20.535   4.628
30738W        W92269  31.064  31.004  11.513
30739W        W92270   5.718  14.184  13.441
30740W        W92271  36.931  16.798   5.742
30741W        W92272  13.714  13.599  11.898
30742W        W92273   7.317  43.923   3.707
30743W        W92274  43.375  41.467  11.439
30744W        W92275  24.225  38.012   0.797
30745W        W92276  21.557  39.460  13.852
30746W        W92277   7.704  42.827  10.917
30747W        W92278  42.479   1.810   4.296
30748W        W92279  40.472  34.396   2.383
30749W        W92280  37.469   8.369   4.612
30750W        W92281  20.108   0.961  14.954
30751W        W92282   6.712  42.823   1.821
30752W        W92283  12.694  12.255   0.764
30753W        W92284  30.120  18.704   4.346
30754W        W92285  40.979   0.973  14.374
30755W        W92286   9.881  43.419  13.991
30756W        W92287  30.448  21.523   0.251
30757W        W92288  13.755  38.061  14.396
30758W        W92289   1.919  44.279  13.535
30759W        W92290  20.619  21.028  13.962
30760W        W92291  23.103  11.165   1.397
30761W        W92292  15.091  13.245  11.901
30762W        W92293  26.999  15.797   0.876
30763W        W92294   0.948  29.633   2.789
30764W        W92295  32.056  14.175  12.487
30765W        W92296  10.693  12.200   3.688
30766W        W92297   7.672  11.646  12.433
30767W        W92298  33.589  41.403  14.889
30768W        W92299  42.001   8.708  14.857
30769W        W92300  11.737  25.487  12.362
30770W        W92301  31.530   1.435   3.266
30771W        W92302  12.734  15.780   3.667
30772W        W92303  30.987  29.095   0.395
30773W        W92304   8.851  34.437  11.116
30774W        W92305  26.467  41.878  14.802
30775W        W92306  41.811  37.475  12.547
30776W        W92307   1.792  43.454   1.897
30777W        W92308  13.113  42.426   0.807
30778W        W92309  40.329   7.760   3.820
30779W        W92310  37.859  21.618   1.215
30780W        W92311  31.625  30.588  11.063
30781W        W92312  41.859  33.544  13.997
30782W        W92313   1.968   6.916  10.641
30783W        W92314  29.161  36.025  11.939
30784W        W92315  23.635   4.747  12.369
30785W        W92316  15.609  40.384  13.907
30786W        W92317  22.560   5.331  11.920
30787W        W92318  43.838  34.431  14.922
30788W        W92319  13.645  35.552   0.426
30789W        W92320  30.011   0.421  11.585
30790W        W92321   3.308  16.742  13.397
30791W        W92322  32.466  12.135   2.221
30792W        W92323  28.661   3.810   4.214
30793W        W92324   5.418   9.156  10.906
30794W        W92325   2.791  25.970   9.989
30795W        W92326   5.919  22.251   3.864
30796W        W92327   2.945  44.462  10.046
30797W        W92328  10.238  16.077   1.291
30798W        W92329  29.653  35.926   4.189
30799W        W92330  43.893  24.124   4.311
30800W        W92331  25.516  41.346   9.948
30801W        W92332  43.900  44.416   3.279
30802W        W92333  24.689  33.962  13.530
30803W        W92334  41.842  17.585  14.013
30804W        W92335  29.530   2.412   2.839
30805W        W92336  16.714   7.856  10.900
30806W        W92337  31.470   2.379  11.510
30807W        W92338  40.431  26.050   0.892
30808W        W92339  44.287   6.384   1.725
30809W        W92340   0.746  18.238  11.923
30810W        W92341  20.133   7.860   4.233
30811W        W92342  29.549  17.161  14.885
30812W        W92343   9.814  13.822   4.183
30813W        W92344  39.818   9.239   3.735
30814W        W92345   4.242   2.441   4.236
30815W        W92346  27.686  24.995  10.573
30816W        W92347   2.316  31.052   1.785
30817W        W92348  30.118  35.948  11.571
30818W        W92349  43.892  23.529  14.771
30819W        W92350   3.791  30.568   0.891
30820W        W92351  31.064  39.825   3.669
30821W        W92352  11.865   5.322  10.457
30822W        W92353  17.237  17.627   0.956
30823W        W92354   5.227  26.975  10.019
30824W        W92355  43.321  19.151  12.942
30825W        W92356  29.064  39.465   2.787
30826W        W92357  41.888  19.545  10.424
30827W        W92358  41.478  13.267   0.848
30828W        W92359  11.839  17.278  11.920
30829W        W92360  16.608  23.519  14.415
30830W        W92361  21.646  11.212   0.335
30831W        W92362  22.205  33.119  13.909
30832W        W92363  18.560  31.031  11.599
30833W        W92364  20.633  35.398  12.919
30834W        W92365  28.186  24.076  10.125
30835W        W92366  26.619  21.679  13.433
30836W        W92367   4.252   3.912   1.408
30837W        W92368  24.022  23.605  10.591
30838W        W92369  13.279   8.238  11.053
30839W        W92370   6.251  29.452  12.340
30840W        W92371  13.693   9.781  10.925
30841W        W92372   8.871  36.909   2.251
30842W        W92373   3.829  27.525  13.399
30843W        W92374  36.501  30.597   0.344
30844W        W92375  44.864   2.955   4.666
30845W        W92376  44.810  21.702   4.783
30846W        W92377  41.351   6.280   2.733
30847W        W92378  32.419  17.106  13.369
30848W        W92379  22.232  33.458  12.919
30849W        W92380  41.532   1.438   3.204
30850W        W92381   8.716  39.477   0.910
30851W        W92382   1.292   9.797  12.345
30852W        W92383  25.556   1.937   5.223
30853W        W92384  31.413  39.956   3.779
30854W        W92385  36.359  15.299  10.101
30855W        W92386  42.434  24.662   2.403
30856W        W92387  23.213  27.965   0.791
30857W        W92388  12.360  44.305  10.919
30858W        W92389  31.401   4.932  11.581
30859W        W92390   2.721  25.967  11.116
30860W        W92391  19.710  34.947  12.015
30861W        W92392   2.427  14.126   0.827
30862W        W92393  36.442  39.492   4.230
30863W        W92394  26.972   5.283   0.289
30864W        W92395  30.046   9.815   1.266
30865W        W92396  14.796   5.332  13.513
30866W        W92397  28.017  33.405   0.293
30867W        W92398  19.264   9.740  14.861
30868W        W92399  28.468  13.210   4.719
30869W        W92400  44.406  39.955  11.016
30870W        W92401  24.641  19.039   1.451
30871W        W92402  34.409  16.597   2.819
30872W        W92403  17.620  12.267   1.888
30873W        W92404  44.356   9.258  13.956
30874W        W92405   2.227  12.341   0.443
30875W        W92406   1.439   0.825  13.353
30876W        W92407  24.096  35.059  10.509
30877W        W92408  17.680  17.785   3.707
30878W        W92409  31.457  25.210   1.306
30879W        W92410   4.814  40.388  13.044
30880W        W92411  14.216  44.330  11.587
30881W        W92412  24.566  24.590   3.355
30882W        W92413  36.884   0.465   0.768
30883W        W92414   2.833  41.511  11.579
30884W        W92415  15.622  35.108  14.815
30885W        W92416  30.480  41.860   2.361
30886W        W92417  24.047  28.448   1.317
30887W        W92418  34.911   8.693   1.796
30888W        W92419   6.347  41.321   4.315
30889W        W92420  37.401  14.673  13.442
30890W        W92421  24.557  37.954   1.812
30891W        W92422   9.804  22.038  11.910
30892W        W92423  11.689  26.103   3.855
30893W        W92424  25.187  36.070   3.183
30894W        W92425  18.148  13.651   0.389
30895W        W92426   2.907   9.699  13.804
30896W        W92427  31.960   9.223  12.946
30897W        W92428  38.942  18.261   0.321
30898W        W92429  36.520  24.174   0.408
30899W        W92430  30.998   4.304   1.766
30900W        W92431   9.777  34.901  13.053
30901W        W92432   2.832  37.016   4.270
30902W        W92433  10.778  19.100  12.341
30903W        W92434  16.696  33.603   0.288
30904W        W92435   4.790  22.181   4.181
30905W        W92436  30.983  32.484  14.427
30906W        W92437  37.425   4.831   1.344
30907W        W92438  20.148  41.494  13.500
30908W        W92439  24.609   5.720  12.555
30909W        W92440  24.093   3.242  14.976
30910W        W92441  37.346  23.100  13.895
30911W        W92442  37.932   4.723  14.783
30912W        W92443   4.916  21.156   3.660
30913W        W92444  23.094  19.136  14.323
30914W        W92445   6.727   6.280   2.722
30915W        W92446  10.650  22.669  11.478
30916W        W92447  42.895  18.195   4.225
30917W        W92448  22.665  11.269  10.017
30918W        W92449  39.495  23.137  12.354
30919W        W92450  14.756   7.286  11.509
30920W        W92451   1.302  39.481  11.952
30921W        W92452  16.267   8.166  10.456
30922W        W92453   4.338  43.276   0.753
30923W        W92454  10.307  32.923  12.974
30924W        W92455  25.210  15.756  14.295
30925W        W92456  32.398  16.226   5.581
30926W        W92457  13.266  41.010  14.026
30927W        W92458   4.273  26.006  14.370
30928W        W92459  16.709  12.117   0.871
30929W        W92460  12.791  29.061   0.460
30930W        W92461  44.866  30.562   0.819
30931W        W92462   8.328  34.527   1.846
30932W        W92463  36.500   0.822   2.220
30933W        W92464  36.378  40.330  13.509
30934W        W92465  41.845  12.141  11.860
30935W        W92466  23.151  14.645  14.488
30936W        W92467  14.694   1.389   1.253
30937W        W92468  41.988  13.105   2.344
30938W        W92469  32.059  21.110   4.273
30939W        W92470  32.494  15.195  13.499
30940W        W92471  11.151  19.668   3.656
30941W        W92472  17.705  34.375  12.084
30942W        W92473  31.402   7.837  13.389
30943W        W92474  29.039  37.431   1.284
30944W        W92475  13.341  41.812   1.714
30945W        W92476  29.958   1.871  12.860
30946W        W92477  21.211   2.772  12.419
30947W        W92478  18.554  26.990  14.013
30948W        W92479  27.583  13.666   1.919
30949W        W92480  25.530  27.550  14.865
30950W        W92481   6.194  14.313  11.110
30951W        W92482  31.119  43.973   2.852
30952W        W92483  19.233   2.901  10.450
30953W        W92484  29.491  24.130   1.841
30954W        W92485  18.629   6.790  10.469
30955W        W92486   8.716  20.137  11.399
30956W        W92487  11.792  22.700  14.454
30957W        W92488   4.870  17.625  13.338
30958W        W92489  34.370   7.807   2.317
30959W        W92490  30.921  40.344   0.873
30960W        W92491  20.275   0.817  11.980
30961W        W92492  28.930   0.937  10.632
30962W        W92493   5.226  28.039  14.284
30963W        W92494   3.457  33.460  10.577
30964W        W92495  28.102  26.664  12.501
30965W        W92496  17.696  13.746  13.859
30966W        W92497  41.934  12.292   4.314
30967W        W92498  24.973  17.770   4.248
30968W        W92499  36.855   9.378   2.406
30969W        W92500  21.568  26.086   4.342
30970W        W92501   0.447  40.926  10.606
30971W        W92502  16.289  29.121  11.018
30972W        W92503  40.531  27.130   2.200
30973W        W92504   5.863  44.379   2.726
30974W        W92505  10.744   4.301  14.324
30975W        W92506   8.896  15.577  10.464
30976W        W92507  39.830  13.136   0.929
30977W        W92508  17.221  13.777   4.605
30978W        W92509  12.301  26.157   3.675
30979W        W92510  18.081   7.844  14.392
30980W        W92511  31.597  44.315  13.819
30981W        W92512  44.294  34.585   3.784
30982W        W92513  39.461  30.650  12.027
30983W        W92514   9.723  10.821   4.315
30984W        W92515  13.225  26.036   1.226
30985W        W92516  25.515  37.079  14.020
30986W        W92517   2.763  25.664   1.926
30987W        W92518  14.266  44.413   2.896
30988W        W92519  42.291  17.558   2.845
30989W        W92520   9.321  26.569   1.371
30990W        W92521  44.271   9.767  11.457
30991W        W92522  22.544  21.157   5.252
30992W        W92523  20.242  38.835  14.414
30993W        W92524  16.219  30.438  13.991
30994W        W92525   8.673  13.193  13.440
30995W        W92526  44.950  27.959   3.288
30996W        W92527  38.937  30.921  13.448
30997W        W92528   2.320  34.898   1.351
30998W        W92529  29.035   3.913  12.453
30999W        W92530  28.669  14.110   5.149
31000W        W92531  41.814   2.274   2.818
31001W        W92532   7.207  27.163   0.301
31002W        W92533   3.780  42.810   2.828
31003W        W92534  25.519   8.764   4.127
31004W        W92535  31.110  17.703   3.842
31005W        W92536  41.935  12.141   1.898
31006W        W92537  24.979  19.182   1.238
31007W        W92538   1.771   7.414   1.787
31008W        W92539  33.575  44.322  12.579
31009W        W92540  14.163  24.653  10.577
31010W        W92541  30.485  21.638   2.395
31011W        W92542  13.699   8.812  10.469
31012W        W92543  15.328  13.641   2.762
31013W        W92544   6.859   3.876   0.799
31014W        W92545   0.947  39.936  12.399
31015W        W92546  11.705  38.389  12.469
31016W        W92547   6.703  12.793   3.231
31017W        W92548  19.168  11.717  11.572
31018W        W92549  24.718  31.139  13.817
31019W        W92550  32.559  13.188  11.094
31020W        W92551  40.343  20.264   4.799
31021W        W92552   9.795  26.462  12.406
31022W        W92553  41.507  36.843   0.253
31023W        W92554  36.555   9.688  11.050
31024W        W92555  44.982  20.768  13.935
31025W        W92556  17.144  19.690   9.931
31026W        W92557   6.826   0.873   0.833
31027W        W92558   0.301  15.254  14.402
31028W        W92559  17.258  44.362   3.157
31029W        W92560  22.730  28.043  13.934
31030W        W92561  15.104  40.445   2.383
31031W        W92562   3.717  20.177  10.555
31032W        W92563  14.240  10.803  12.937
31033W        W92564  11.282  38.004  11.487
31034W        W92565  27.974  24.172   2.202
31035W        W92566   8.684  36.378   3.808
31036W        W92567  36.496  22.573  14.279
31037W        W92568  36.947  36.577   3.214
31038W        W92569  19.637   8.726   3.714
31039W        W92570  15.754  32.901   0.891
31040W        W92571  15.596   5.275  13.404
31041W        W92572  34.887  33.897  13.380
31042W        W92573   6.319   3.726  11.494
31043W        W92574  31.019  41.801   3.695
31044W        W92575  32.546   8.310  13.355
31045W        W92576  40.868   3.757   0.952
31046W        W92577   5.719  33.580  11.918
31047W        W92578  36.553  11.195   2.216
31048W        W92579  40.840  29.635   3.755
31049W        W92580   5.410  14.211   1.246
31050W        W92581  26.015   0.271   4.245
31051W        W92582  44.335  27.609   2.779
31052W        W92583  20.621  36.841  14.778
31053W        W92584  36.041  20.758  13.530
31054W        W92585  10.205  20.734   1.759
31055W        W92586  41.379   7.389   2.320
31056W        W92587  39.486  16.274   1.265
31057W        W92588   9.294  28.162  12.893
31058W        W92589  17.559  26.186   0.774
31059W        W92590   5.756   2.369  10.438
31060W        W92591  44.406  42.404  13.973
31061W        W92592   7.728  20.563   1.346
31062W        W92593  33.969  27.192   1.283
31063W        W92594   8.402  15.589  13.811
31064W        W92595  16.806  15.594   4.637
31065W        W92596  41.418   9.303   2.799
31066W        W92597  41.897  11.798   5.226
31067W        W92598  43.319  13.786  11.447
31068W        W92599   5.208  28.486  12.420
31069W        W92600  12.744  22.512   2.318
31070W        W92601  31.462   7.371   0.856
31071W        W92602  18.575  29.007   4.645
31072W        W92603  33.966  12.249  14.771
31073W        W92604  23.198  38.919   1.802
31074W        W92605  12.779  16.639  11.602
31075W        W92606  34.423  10.706  14.768
31076W        W92607  44.784  34.600  12.826
31077W        W92608  39.396  17.630  11.458
31078W        W92609   7.303   3.936  11.019
31079W        W92610  30.489  13.747   2.205
31080W        W92611  44.844  31.596   4.709
31081W        W92612  35.064  27.952  14.858
31082W        W92613  23.984  25.663   2.214
31083W        W92614  15.670  31.647   4.282
31084W        W92615   8.790   0.441  11.952
31085W        W92616  22.052   1.472   4.253
31086W        W92617  23.663  18.088   3.800
31087W        W92618   1.340  37.072  10.572
31088W        W92619  11.713  41.336  10.991
31089W        W92620   6.787  10.275   3.669
31090W        W92621  20.585  31.440  11.115
31091W        W92622   7.839  18.129   3.324
31092W        W92623  22.189   6.182  11.526
31093W        W92624  41.909  14.176   0.860
31094W        W92625   7.380  25.682   4.288
31095W        W92626  29.940  18.703  14.895
31096W        W92627   0.433  27.537  11.375
31097W        W92628  29.144  20.117   3.183
31098W        W92629  26.173  35.920   1.732
31099W        W92630  17.118  42.323  10.550
31100W        W92631   7.336   8.888  11.919
31101W        W92632  32.115  26.965   5.299
31102W        W92633   6.349  30.588  11.888
31103W        W92634  28.951  30.510   1.308
31104W        W92635  12.134  21.605   3.169
31105W        W92636  43.404  17.193   4.674
31106W        W92637   0.769  42.854   0.877
31107W        W92638  42.481  44.758  14.336
31108W        W92639  26.183  39.474   1.723
31109W        W92640   6.679  35.588   2.766
31110W        W92641   6.250  14.320   4.785
31111W        W92642  37.408  18.625  10.527
31112W        W92643   3.268   7.797   3.269
31113W        W92644  15.822  28.520   2.681
31114W        W92645  34.077  26.583   2.270
31115W        W92646  42.971  34.075   2.771
31116W        W92647   2.445  16.251  10.472
31117W        W92648  33.001   3.794   2.290
31118W        W92649  20.748  20.108   1.743
31119W        W92650   8.278   6.236   3.864
31120W        W92651  11.258  21.522   1.770
31121W        W92652  43.362  20.135   2.356
31122W        W92653  17.168  36.066   1.704
31123W        W92654   0.972  28.581  13.896
31124W        W92655  23.125   6.854   3.147
31125W        W92656  27.090  16.091  10.445
31126W        W92657   3.894  27.066   5.196
31127W        W92658  27.674   5.791  14.890
31128W        W92659  28.035  33.388   0.944
31129W        W92660  32.035  27.950   3.229
31130W        W92661  26.578   7.816  10.941
31131W        W92662  40.348  27.007   1.429
31132W        W92663  15.777  41.364  12.466
31133W        W92664  36.930   3.878   0.756
31134W        W92665  43.306  42.962   1.403
31135W        W92666  30.421  44.009   1.719
31136W        W92667  21.750  44.435  14.938
31137W        W92668  33.059  20.760   3.665
31138W        W92669  36.075  30.438   1.323
31139W        W92670  10.299   2.244  11.955
31140W        W92671  29.964   9.702  12.898
31141W        W92672  33.929  13.299  13.809
31142W        W92673   5.687   1.950   1.317
31143W        W92674   8.344  44.340  13.931
31144W        W92675  25.183   9.850   5.156
31145W        W92676  42.345  22.587   0.897
31146W        W92677   0.931  21.113  10.031
31147W        W92678  35.521  39.868  10.141
31148W        W92679  35.094   4.277  14.398
31149W        W92680   4.431  31.479   3.699
31150W        W92681  13.730   1.324  10.943
31151W        W92682   4.249  42.373  14.309
31152W        W92683  44.369  29.135   4.744
31153W        W92684   6.256  27.001   1.773
31154W        W92685  10.205  13.291  12.847
31155W        W92686  41.025   9.860   4.208
31156W        W92687  42.875  25.116  12.983
31157W        W92688  26.611  30.530   9.554
31158W        W92689  39.897  34.579   3.296
31159W        W92690  20.742  43.011   2.313
31160W        W92691   6.391  27.562   1.746
31161W        W92692  14.122  39.390   3.296
31162W        W92693  29.611  16.697   1.249
31163W        W92694  24.089  28.460  12.344
31164W        W92695   3.951  33.977   0.417
31165W        W92696  30.562  15.269  14.294
31166W        W92697  43.886  15.581  14.515
31167W        W92698  41.034  20.536  13.012
31168W        W92699  18.607  20.218   1.777
31169W        W92700  30.093  32.473   0.856
31170W        W92701  35.407   6.198  14.806
31171W        W92702   7.274  34.912   3.369
31172W        W92703  38.479  10.156   3.193
31173W        W92704  14.735  27.118   1.257
31174W        W92705   1.817   4.353  14.317
31175W        W92706  15.619  31.478  11.119
31176W        W92707  19.247  40.861   0.747
31177W        W92708  29.518  19.062   2.810
31178W        W92709   2.420  17.766  12.854
31179W        W92710  43.324  21.717  13.519
31180W        W92711  39.007  23.034  10.581
31181W        W92712  33.478  11.787  13.399
31182W        W92713  18.637  20.654  13.317
31183W        W92714  44.767  27.586  13.000
31184W        W92715  16.259  19.156   0.363
31185W        W92716  36.921  14.701  11.541
31186W        W92717  40.053   0.789   3.190
31187W        W92718  26.605   4.209   3.223
31188W        W92719   2.427  37.838  12.366
31189W        W92720   4.270   2.798   3.267
31190W        W92721   6.290  42.968  11.917
31191W        W92722  28.496  18.596  10.627
31192W        W92723  26.014  10.150   4.732
31193W        W92724  27.124  41.526   1.703
31194W        W92725  15.777  16.181   4.701
31195W        W92726   2.963  21.692   3.315
31196W        W92727  18.143  36.413   1.804
31197W        W92728  22.544  33.478  13.935
31198W        W92729   0.946  23.171   3.279
31199W        W92730  15.183  12.712  14.803
31200W        W92731  35.495   5.423   3.731
31201W        W92732  40.965   4.811  14.942
31202W        W92733  36.932  36.039  14.802
31203W        W92734   9.658   8.180  12.526
31204W        W92735  27.029  14.099  11.563
31205W        W92736   0.459  42.297  14.277
31206W        W92737   5.395  16.184  14.384
31207W        W92738  11.668  13.290   3.842
31208W        W92739  26.634  31.982   1.420
31209W        W92740   0.296  24.196  12.537
31210W        W92741  26.032  20.078  13.360
31211W        W92742  17.118   7.737  14.385
31212W        W92743  13.236  32.445  14.939
31213W        W92744  24.114  42.935  10.051
31214W        W92745  36.923  44.920  13.868
31215W        W92746  24.063  18.618  12.040
31216W        W92747  26.552  27.004  13.974
31217W        W92748   0.364   4.353   3.168
31218W        W92749  40.851  36.043  12.411
31219W        W92750  23.690  22.042   2.781
31220W        W92751  26.505  30.926  10.134
31221W        W92752  39.934  19.181   4.778
31222W        W92753  18.242  18.278   4.602
31223W        W92754  35.958  30.970   2.735
31224W        W92755  10.158  34.948  14.329
31225W        W92756  44.427  39.532   2.302
31226W        W92757  16.212   4.864  13.314
31227W        W92758   6.397   3.729  14.472
31228W        W92759  25.543  14.104  13.872
31229W        W92760  39.482  28.980  13.492
31230W        W92761  11.266  31.145   2.754
31231W        W92762  35.487   5.872   0.793
31232W        W92763   6.916  27.078   4.305
31233W        W92764   2.827   2.269   2.725
31234W        W92765  38.056  35.104   3.687
31235W        W92766  43.015  13.302   0.254
31236W        W92767   0.903  32.124  13.391
31237W        W92768   4.311  10.285  10.050
31238W        W92769  37.478   4.332   4.304
31239W        W92770  26.570  28.470   1.249
31240W        W92771  44.322   3.376  11.064
31241W        W92772  35.453  11.205  10.428
31242W        W92773  20.117   2.847  13.403
31243W        W92774  29.079  41.976  10.922
31244W        W92775  40.467  38.021  12.930
31245W        W92776  34.518   4.815  12.091
31246W        W92777  43.470  44.976   3.679
31247W        W92778  40.849  41.789   4.128
31248W        W92779   6.814  38.916   4.823
31249W        W92780  25.484  21.104   1.297
31250W        W92781   4.234  25.648   3.867
31251W        W92782  42.517   4.385   4.219
31252W        W92783  18.254   2.827   0.409
31253W        W92784  30.924  36.924   3.791
31254W        W92785  25.555  22.073  11.928
31255W        W92786  36.903  29.530  13.340
31256W        W92787  18.061  15.762  11.048
31257W        W92788  10.373  22.656  14.451
31258W        W92789  14.106  43.794   4.212
31259W        W92790  18.670  38.950   2.714
31260W        W92791  24.101  25.203   4.339
31261W        W92792  11.340  40.530   2.895
31262W        W92793   2.452  29.098   0.750
31263W        W92794  37.067  12.348   0.251
31264W        W92795  28.943  23.094   0.950
31265W        W92796   6.223  44.267   1.314
31266W        W92797  29.953  34.456   4.637
31267W        W92798  43.372  24.625   2.824
31268W        W92799  39.522  22.037  13.464
31269W        W92800   4.713  28.120  12.358
31270W        W92801   8.339   0.433  10.426
31271W        W92802  19.120  37.070   1.262
31272W        W92803  29.467  28.156  14.991
31273W        W92804  21.162  35.548   4.233
31274W        W92805  14.297  28.033   2.762
31275W        W92806   4.436   5.798   1.216
31276W        W92807   8.363  33.593  13.988
31277W        W92808   2.760   6.295   4.178
31278W        W92809   4.788  34.463  10.057
31279W        W92810  36.430  26.633   0.792
31280W        W92811  16.183  16.602   4.310
31281W        W92812  24.510   7.796   0.797
31282W        W92813  14.743  10.269  11.086
31283W        W92814  16.108  31.140  10.429
31284W        W92815  15.790  28.976  11.578
31285W        W92816  27.086  12.818   2.282
31286W        W92817   4.914  35.477   4.783
31287W        W92818  13.721   8.388  14.798
31288W        W92819  13.664  39.869  14.958
31289W        W92820  13.237  13.304   1.411
31290W        W92821  43.403  38.070   4.268
31291W        W92822   8.768  29.101  11.097
31292W        W92823   9.869   8.366  13.020
31293W        W92824  41.896  19.257   2.184
31294W        W92825  43.312  30.140   0.754
31295W        W92826  12.129   2.395   0.440
31296W        W92827   3.255  25.659   5.249
31297W        W92828  33.937   8.248   2.206
31298W        W92829  36.019  35.391   0.941
31299W        W92830   0.270  23.215  13.324
31300W        W92831  21.555  23.704   2.331
31301W        W92832  20.687   0.788  12.548
31302W        W92833  21.234  24.660  14.399
31303W        W92834   6.380  37.408  12.522
31304W        W92835  25.195  18.643   2.751
31305W        W92836  38.377  22.553  12.377
31306W        W92837  19.582  36.000  10.940
31307W        W92838   7.666   2.394   2.667
31308W        W92839   4.851  12.116  12.027
31309W        W92840  13.606   1.253   2.728
31310W        W92841  23.559  26.129  11.379
31311W        W92842  15.089  10.207  14.513
31312W        W92843  29.966  10.321   1.377
31313W        W92844  40.459  24.212   2.296
31314W        W92845  23.724  22.647   2.858
31315W        W92846  15.598   9.227  14.515
31316W        W92847   4.424  26.488   4.222
31317W        W92848  41.303  13.245   1.290
31318W        W92849  26.093  31.021   5.283
31319W        W92850  37.938  29.040  12.356
31320W        W92851   6.345   2.846   1.764
31321W        W92852  26.620  14.635   4.748
31322W        W92853   8.663  29.922  12.575
31323W        W92854  42.416  15.208  10.427
31324W        W92855  25.994  17.798  14.450
31325W        W92856  29.438  11.337   0.763
31326W        W92857  32.421  26.643   0.460
31327W        W92858  37.927  18.683   4.139
31328W        W92859  19.224  10.866  12.527
31329W        W92860  37.340  18.661  11.510
31330W        W92861  20.544  27.983   2.837
31331W        W92862   8.695  36.936   1.853
31332W        W92863  23.729  21.236   4.282
31333W        W92864  21.227  42.781  11.382
31334W        W92865  32.497  31.512   1.339
31335W        W92866   5.384  34.119  11.889
31336W        W92867  33.990  24.642   0.408
31337W        W92868  33.431   2.878   2.220
31338W        W92869  43.368  10.291   4.667
31339W        W92870   8.725  43.415   2.875
31340W        W92871  43.822  35.970   3.354
31341W        W92872  23.132  16.716   3.697
31342W        W92873   0.283   3.405   2.785
31343W        W92874  38.434   5.199  11.575
31344W        W92875  11.277   3.278   5.270
31345W        W92876  22.509  39.958  14.340
31346W        W92877  10.721  26.500  11.968
31347W        W92878   3.808  23.701  12.989
31348W        W92879  42.376  27.001   1.236
31349W        W92880  28.648  10.208  14.791
31350W        W92881   7.721   9.823  11.481
31351W        W92882  27.602   5.352  12.045
31352W        W92883  26.157  38.419  12.086
31353W        W92884  37.538  32.957  12.951
31354W        W92885  18.072  32.510   4.640
31355W        W92886  17.135  30.155   2.715
31356W        W92887  37.497  17.756  13.482
31357W        W92888  33.016   4.736   2.674
31358W        W92889   2.751  38.325   2.785
31359W        W92890  10.371  18.240  10.482
31360W        W92891  39.985  32.955  14.918
31361W        W92892  33.973  23.570   4.135
31362W        W92893   4.821  15.128   0.334
31363W        W92894   9.757   1.277   0.458
31364W        W92895   2.840  19.709   0.349
31365W        W92896  39.346   3.876   0.882
31366W        W92897  26.570   6.899  10.426
31367W        W92898  34.596  29.439   1.702
31368W        W92899  27.161  41.340  10.591
31369W        W92900  18.631  12.266  11.067
31370W        W92901  24.715  16.699  10.926
31371W        W92902  18.586  34.058   3.660
31372W        W92903  15.254   8.763   3.154
31373W        W92904   9.645  27.020  14.358
31374W        W92905  28.544  43.383   1.897
31375W        W92906  26.007   8.370  12.938
31376W        W92907   3.225  32.598  13.433
31377W        W92908  37.572  11.296  14.292
31378W        W92909  35.467  32.136  11.087
31379W        W92910  27.677  10.684  11.524
31380W        W92911  33.116  37.946   1.786
31381W        W92912  12.149  25.694  11.536
31382W        W92913  13.675  33.976   2.841
31383W        W92914  44.427  18.169   0.881
31384W        W92915   3.937  30.967   0.467
31385W        W92916  12.735  28.963  12.876
31386W        W92917  29.157  20.648   4.795
31387W        W92918  40.485  10.144  13.455
31388W        W92919  21.256  19.108   4.697
31389W        W92920  26.956  29.990   0.367
31390W        W92921  17.122  17.658  14.497
31391W        W92922  16.083   8.769  12.974
31392W        W92923   8.257  30.156   2.371
31393W        W92924  27.612  19.550  11.423
31394W        W92925  25.988  14.612  11.966
31395W        W92926  26.690  34.055  13.811
31396W        W92927  32.034  40.409  13.967
31397W        W92928   2.294  40.857   4.189
31398W        W92929  16.639  17.795  11.900
31399W        W92930  23.500  33.106  14.492
31400W        W92931   7.276  34.477   1.385
31401W        W92932   8.387  40.023   4.769
31402W        W92933  22.523  32.528   0.275
31403W        W92934  40.885  10.243   1.365
31404W        W92935  42.904   9.236   2.704
31405W        W92936  31.081  11.766   3.799
31406W        W92937  40.871  38.454  13.352
31407W        W92938  30.949  42.032  12.509
31408W        W92939  18.144  22.131   1.817
31409W        W92940  16.089  12.824  10.613
31410W        W92941  35.001  34.981  14.790
31411W        W92942  23.505  25.657  12.960
31412W        W92943  23.126  28.467  10.622
31413W        W92944  14.658   5.762   1.912
31414W        W92945  33.518  12.672  11.972
31415W        W92946  37.418  16.671  13.859
31416W        W92947   8.656   6.700  12.447
31417W        W92948  30.112  10.376  14.397
31418W        W92949  39.502  25.507  12.901
31419W        W92950  30.465  19.739  14.376
31420W        W92951  38.549  23.170   4.207
31421W        W92952  29.981  16.720   3.859
31422W        W92953  42.949  20.085  14.381
31423W        W92954  34.534  33.070   3.279
31424W        W92955  33.974  34.427   1.324
31425W        W92956  26.023  19.236  13.844
31426W        W92957  11.628  25.476   4.645
31427W        W92958  37.905  19.727  11.412
31428W        W92959  16.682   2.900  11.100
31429W        W92960  20.589  31.044   0.747
31430W        W92961  42.387  31.529  12.406
31431W        W92962  22.110  18.584  10.934
31432W        W92963   7.829  34.882   4.163
31433W        W92964  33.437   8.748  12.458
31434W        W92965  33.086   9.379   3.866
31435W        W92966   1.273   8.820  14.420
31436W        W92967   1.448  19.082   0.483
31437W        W92968   2.403  11.687  14.886
31438W        W92969  22.027   6.281  13.471
31439W        W92970  23.698  34.033   4.835
31440W        W92971  41.462  23.721  11.601
31441W        W92972  32.937   0.913   0.317
31442W        W92973   2.774  32.573   2.737
31443W        W92974  27.060   6.796  14.979
31444W        W92975  16.228   2.831  12.399
31445W        W92976  15.656  35.508  11.037
31446W        W92977  36.457   1.918   4.758
31447W        W92978  38.546  31.590  13.472
31448W        W92979  29.580  34.962   0.837
31449W        W92980  20.076  25.129   3.333
31450W        W92981  20.251  15.272   1.402
31451W        W92982  21.692   3.881   1.836
31452W        W92983  40.008  23.606   4.626
31453W        W92984  28.056  34.414   3.756
31454W        W92985  16.209  27.970   3.655
31455W        W92986  24.108  29.495  13.834
31456W        W92987   7.705   1.284   2.402
31457W        W92988  25.517   1.886   2.393
31458W        W92989   2.924  22.633  11.461
31459W        W92990   3.850   0.488   0.964
31460W        W92991  38.569   2.237   3.311
31461W        W92992  35.405  41.342   0.774
31462W        W92993  29.522   1.798  11.463
31463W        W92994  44.999  19.617  13.371
31464W        W92995  43.420  27.592  13.475
31465W        W92996  40.481   5.781   2.763
31466W        W92997  28.553  26.992   4.138
31467W        W92998   7.338  28.946  10.634
31468W        W92999  43.935  28.093   4.669
31469W        W93000  30.494  16.622  10.441
31470W        W93001  22.714  42.324  12.070
31471W        W93002  21.106  11.160  14.808
31472W        W93003  32.950  18.721  12.416
31473W        W93004  11.185  19.047  12.091
31474W        W93005  43.296   0.803   1.778
31475W        W93006  37.460  20.137   0.319
31476W        W93007  38.435  10.796  10.547
31477W        W93008  33.598  37.455  13.992
31478W        W93009  20.151  19.777  11.516
31479W        W93010  42.298  13.308  11.515
31480W        W93011  39.959   6.313  12.879
31481W        W93012   0.754  20.071   3.827
31482W        W93013   5.741  32.916   1.285
31483W        W93014  22.585   1.425  13.879
31484W        W93015  43.010  24.050  11.945
31485W        W93016  42.868  11.737   4.227
31486W        W93017  35.400   1.305   2.238
31487W        W93018  31.027  22.554  11.025
31488W        W93019  26.045  35.073  14.404
31489W        W93020   6.793  10.722  14.028
31490W        W93021  21.245  33.495  10.538
31491W        W93022  39.542  30.511  13.473
31492W        W93023  25.579  26.025   1.399
31493W        W93024   4.242  12.188  14.303
31494W        W93025  24.535  37.448   2.254
31495W        W93026  21.636  22.577   2.827
31496W        W93027  17.780  25.121   0.821
31497W        W93028  17.564  35.059  10.904
31498W        W93029  34.579  36.405   1.764
31499W        W93030   7.199   2.308   1.861
31500W        W93031  26.536  17.259  11.898
31501W        W93032  22.571  23.508   2.808
31502W        W93033  23.082  31.148   0.346
31503W        W93034   4.323  35.104   3.746
31504W        W93035   4.414  44.274  13.490
31505W        W93036  10.725  41.973   4.803
31506W        W93037  34.443  35.055  12.050
31507W        W93038  22.244   1.452  10.928
31508W        W93039   5.197  11.296  13.333
31509W        W93040  14.339   9.282   3.651
31510W        W93041  33.451  31.951  13.431
31511W        W93042  28.585   7.898   0.382
31512W        W93043   1.373  13.699   3.742
31513W        W93044  34.005  15.589   1.277
31514W        W93045   8.733  42.384  11.578
31515W        W93046  26.974   5.792   4.250
31516W        W93047   7.678   1.397   3.150
31517W        W93048   0.316  37.904  10.930
31518W        W93049  17.104  26.698   2.847
31519W        W93050  35.081  42.970  10.981
31520W        W93051  28.634  43.776   4.170
31521W        W93052  31.132   7.356  11.925
31522W        W93053  12.333  16.749  11.508
31523W        W93054  31.940  38.916  12.842
31524W        W93055  41.804  16.100   3.752
31525W        W93056  41.993  20.585  11.023
31526W        W93057  14.315  19.285  11.569
31527W        W93058  43.374  43.927  10.440
31528W        W93059  15.298  28.952  10.565
31529W        W93060  43.950  19.561   4.826
31530W        W93061   0.258  25.177   4.758
31531W        W93062  12.225  22.594   2.401
31532W        W93063  23.521  34.954   0.942
31533W        W93064   2.965   8.754  10.428
31534W        W93065   9.350  27.964   1.254
31535W        W93066  30.633  42.518  14.898
31536W        W93067  41.043   6.317  11.573
31537W        W93068  27.671  16.636   4.286
31538W        W93069  23.170  42.480  11.930
31539W        W93070  33.386  39.961   1.379
31540W        W93071  13.665  32.007   1.334
31541W        W93072  36.400  34.054   3.799
31542W        W93073   9.389  38.459  11.494
31543W        W93074  44.955  11.287   3.151
31544W        W93075  20.554  10.315   2.186
31545W        W93076  24.522  22.150  13.372
31546W        W93077  27.958  42.285  12.833
31547W        W93078  39.423  26.533   0.340
31548W        W93079  12.130   2.268   2.735
31549W        W93080  28.643   4.752  14.506
31550W        W93081  37.832   8.388  14.323
31551W        W93082  15.225   6.300   4.143
31552W        W93083   8.219  26.567  13.369
31553W        W93084  43.456   0.787   2.721
31554W        W93085  26.118  17.211   3.338
31555W        W93086   9.848  15.588   2.858
31556W        W93087  27.626  11.168   1.869
31557W        W93088   9.384  44.809   0.361
31558W        W93089  12.632  37.053   2.265
31559W        W93090  36.090  15.139  11.958
31560W        W93091  43.784   0.829  10.931
31561W        W93092  29.484  24.169  14.340
31562W        W93093  37.880  18.633   0.769
31563W        W93094  28.556  26.674  12.495
31564W        W93095   2.955  39.945  13.828
31565W        W93096  23.713  35.973   0.326
31566W        W93097  23.543  36.862   2.692
31567W        W93098  40.464  29.619  14.998
31568W        W93099  27.178   5.913   1.797
31569W        W93100   6.865  36.501  10.994
31570W        W93101  15.114  35.528   1.324
31571W        W93102  25.182  26.503  11.044
31572W        W93103  13.688  37.559   4.175
31573W        W93104  44.815  32.401   2.704
31574W        W93105  42.426  12.271   2.766
31575W        W93106  39.999   9.172   0.868
31576W        W93107  43.458  31.971  13.828
31577W        W93108  19.732   4.274   2.693
31578W        W93109  15.700  18.231   4.195
31579W        W93110   5.796  37.905   1.399
31580W        W93111   8.660   1.970  12.976
31581W        W93112  41.041  14.322  12.448
31582W        W93113  28.945   7.201   9.541
31583W        W93114  24.491  38.526  14.896
31584W        W93115  20.603   5.718   3.348
31585W        W93116  29.654  41.976  14.504
31586W        W93117  21.133  26.654   3.761
31587W        W93118  35.561   8.852   1.806
31588W        W93119  14.197  42.517   1.909
31589W        W93120  18.294  39.537   4.599
31590W        W93121   5.854  34.495  11.122
31591W        W93122  11.663  26.638   2.663
31592W        W93123  15.650   2.239  11.959
31593W        W93124  25.567   7.881  12.969
31594W        W93125  16.273  43.438   1.793
31595W        W93126   8.776  10.634  10.637
31596W        W93127  32.959  40.504  12.055
31597W        W93128   6.377   6.775  11.947
31598W        W93129   5.864  26.084  12.425
31599W        W93130   0.253  43.355   1.721
31600W        W93131  21.724  42.023  14.451
31601W        W93132  26.700  12.733  13.794
31602W        W93133  38.854  35.432   2.246
31603W        W93134  44.778  40.522   2.702
31604W        W93135  20.732   4.372   1.765
31605W        W93136  41.409  23.581   2.816
31606W        W93137  22.521   9.217  10.450
31607W        W93138   9.655  36.985   4.644
31608W        W93139  40.381   9.884   1.921
31609W        W93140  13.672  33.408   3.795
31610W        W93141  11.275  40.488   4.297
31611W        W93142  10.232   9.669  11.504
31612W        W93143  20.042  20.725  12.924
31613W        W93144  19.719  23.588  11.095
31614W        W93145   6.853  10.640  13.335
31615W        W93146  32.924  34.030  11.527
31616W        W93147  18.593   7.741  14.351
31617W        W93148   9.343  21.182  12.895
31618W        W93149  37.468  23.063   4.729
31619W        W93150  26.576  28.985  12.925
31620W        W93151  11.179  11.183  14.382
31621W        W93152  38.436  27.555  11.037
31622W        W93153  11.164   6.842   4.354
31623W        W93154  13.693  20.216  14.978
31624W        W93155  18.731   9.720   0.813
31625W        W93156  30.950   8.836  14.465
31626W        W93157  23.599   7.363  14.993
31627W        W93158  24.156  14.217  14.879
31628W        W93159   7.389  31.099   0.877
31629W        W93160  20.743   8.666   1.370
31630W        W93161  32.137  41.879  11.104
31631W        W93162   1.784  30.956   0.408
31632W        W93163  26.122  10.193  13.323
31633W        W93164   2.280  37.559  13.898
31634W        W93165   4.221  37.343   2.881
31635W        W93166  41.503  40.945   3.209
31636W        W93167  25.711   3.271   2.893
31637W        W93168  14.604  19.083   3.798
31638W        W93169   8.235   5.699  13.852
31639W        W93170   5.864  26.107   1.298
31640W        W93171  41.385   4.438  10.488
31641W        W93172   0.868  14.174  12.533
31642W        W93173  34.413  34.981  10.584
31643W        W93174  27.678  34.377   1.286
31644W        W93175  39.981   2.837   4.290
31645W        W93176  37.961   1.955   1.871
31646W        W93177  44.295  10.834   3.363
31647W        W93178  33.074  43.767  13.900
31648W        W93179   7.873  37.431  12.575
31649W        W93180  10.383  10.220  13.041
31650W        W93181  14.785   3.417  10.524
31651W        W93182   4.412  35.097   0.449
31652W        W93183  38.426   9.844   0.341
31653W        W93184  11.828  24.599  11.375
31654W        W93185  37.887   0.263  10.448
31655W        W93186  30.964  12.171  11.002
31656W        W93187  19.284  39.464   0.851
31657W        W93188  32.109  10.786  14.898
31658W        W93189   4.331  29.075   1.365
31659W        W93190  28.464  25.468  10.623
31660W        W93191  31.980  13.255  14.502
31661W        W93192   6.718  13.760   0.958
31662W        W93193  16.801  37.537   4.781
31663W        W93194  26.570  11.835  14.819
31664W        W93195   4.717  28.149   4.643
31665W        W93196   4.425  15.112  12.979
31666W        W93197  12.165  10.354   1.697
31667W        W93198   8.805  11.783  12.578
31668W        W93199   1.474  21.209  12.536
31669W        W93200  26.689  14.800   5.162
31670W        W93201  40.531  19.583   1.908
31671W        W93202  21.584  20.684  14.760
31672W        W93203  10.815  31.938   2.727
31673W        W93204  24.593  41.974  13.368
31674W        W93205   0.859  31.434   9.978
31675W        W93206  19.602  17.559   2.365
31676W        W93207  43.358  11.185  14.470
31677W        W93208  44.876  18.260  10.489
31678W        W93209  11.712   2.944  14.973
31679W        W93210  13.707  26.959   2.753
31680W        W93211  20.131  15.633   3.157
31681W        W93212  31.428  22.654  10.932
31682W        W93213  16.778  38.324   3.321
31683W        W93214  42.300  10.220   4.763
31684W        W93215  34.547   8.297   3.811
31685W        W93216  37.410  13.842   0.477
31686W        W93217  15.776  27.135   2.333
31687W        W93218  21.740  44.872  11.862
31688W        W93219  14.669  24.051   2.382
31689W        W93220  33.508  22.125   0.828
31690W        W93221  26.498  28.978   4.113
31691W        W93222  21.715  38.977  12.340
31692W        W93223  29.935  39.894   1.338
31693W        W93224  14.723  16.287   4.823
31694W        W93225  25.646  15.742  14.971
31695W        W93226  22.214   8.313   4.138
31696W        W93227  11.868  43.780  13.513
31697W        W93228  35.076   9.742  13.522
31698W        W93229  24.656  39.954   1.741
31699W        W93230   8.838   6.410  11.869
31700W        W93231   1.788   0.395   4.607
31701W        W93232  15.596   4.812   3.380
31702W        W93233   5.932  42.298  12.005
31703W        W93234  13.152  40.841   3.177
31704W        W93235  18.257   8.393  12.477
31705W        W93236  39.331  39.869   4.299
31706W        W93237  17.593  26.603   3.785
31707W        W93238  32.521  10.262   2.878
31708W        W93239   3.383   3.926   4.608
31709W        W93240  27.949  22.594   2.874
31710W        W93241  36.013  19.245  10.507
31711W        W93242  26.030  29.485  13.004
31712W        W93243  39.999  10.259   2.872
31713W        W93244  13.245  22.693  12.964
31714W        W93245  13.341  20.628   0.428
31715W        W93246  16.091  10.177  10.514
31716W        W93247  28.537  38.520  13.978
31717W        W93248  32.496  27.548   1.422
31718W        W93249   8.368  24.089  13.891
31719W        W93250  31.547   8.351   2.755
31720W        W93251  26.123  26.167  11.963
31721W        W93252  14.672   8.876   4.763
31722W        W93253  31.046  24.561   1.917
31723W        W93254  42.295  24.605   0.425
31724W        W93255   9.827   8.336   0.355
31725W        W93256  27.999  32.932  13.544
31726W        W93257  15.696  30.593  13.406
31727W        W93258  13.308  37.966   3.666
31728W        W93259   8.869  24.216   1.399
31729W        W93260   5.904  21.226   2.320
31730W        W93261  15.623  14.147   1.411
31731W        W93262  23.083  22.234   2.772
31732W        W93263  10.193   2.245   3.325
31733W        W93264   8.311  22.166   4.224
31734W        W93265  21.216  23.059  12.071
31735W        W93266   6.874   3.413   4.683
31736W        W93267  41.366  35.414  13.404
31737W        W93268   7.220   4.825   4.251
31738W        W93269  13.840  25.212   0.934
31739W        W93270  21.205  12.144   0.285
31740W        W93271  12.772  24.223   4.775
31741W        W93272  25.027  34.092  10.634
31742W        W93273   4.278   7.867  10.525
31743W        W93274   9.266   8.296   3.840
31744W        W93275  40.893   7.826  13.322
31745W        W93276   2.947  15.609  13.814
31746W        W93277   7.382  30.961   1.400
31747W        W93278  34.377  18.206  14.284
31748W        W93279  17.198  27.447   0.266
31749W        W93280  20.029  11.707   5.228
31750W        W93281  27.558   5.864  12.840
31751W        W93282  23.222   4.900  12.414
31752W        W93283  10.757   4.781   4.152
31753W        W93284  23.076  36.540  13.045
31754W        W93285  33.082  35.913   4.829
31755W        W93286  25.125  14.144   3.778
31756W        W93287   2.964   5.811  13.913
31757W        W93288  37.894   5.397  12.480
31758W        W93289   6.849  20.071   1.828
31759W        W93290  25.164  19.273   0.811
31760W        W93291  33.951   6.831   3.840
31761W        W93292   2.819   4.838   2.320
31762W        W93293  35.909  14.290  14.025
31763W        W93294  24.024  23.544  12.999
31764W        W93295   0.294  18.272  14.430
31765W        W93296   7.373  17.645   3.321
31766W        W93297   8.288  15.097   1.911
31767W        W93298  32.988  23.675   1.835
31768W        W93299   9.269   2.819   2.210
31769W        W93300   5.910  38.522   4.230
31770W        W93301  38.976  22.526   3.334
31771W        W93302  21.080   8.325  10.636
31772W        W93303   7.886  28.995  10.926
31773W        W93304  30.974  11.203   4.750
31774W        W93305  28.099  30.139  11.577
31775W        W93306  25.109   0.333   1.438
31776W        W93307  24.012  13.345  10.415
31777W        W93308   8.900  41.887   0.868
31778W        W93309  35.538  22.525  14.012
31779W        W93310   7.341  19.752   1.320
31780W        W93311  35.099  10.335  13.362
31781W        W93312  24.674  10.689  10.637
31782W        W93313  30.917  22.157   2.268
31783W        W93314   8.824  18.103   3.358
31784W        W93315  18.719   1.300  11.865
31785W        W93316  22.691   5.238  10.127
31786W        W93317  13.298   8.403   2.764
31787W        W93318  21.628  44.284  10.032
31788W        W93319   1.351   8.379   3.687
31789W        W93320  18.072   1.277  11.915
31790W        W93321  39.952  38.071  11.122
31791W        W93322  26.534   1.403   4.330
31792W        W93323  42.486  41.400   1.451
31793W        W93324  31.083  43.865  11.498
31794W        W93325  30.998   1.965   1.717
31795W        W93326  21.544  18.139   0.846
31796W        W93327   8.737  23.490  13.929
31797W        W93328  30.584  18.199  13.953
31798W        W93329  41.302   3.336  13.883
31799W        W93330  10.712  43.009   0.912
31800W        W93331   4.878  17.569  12.931
31801W        W93332  23.657  17.135  14.920
31802W        W93333   7.813  20.116  10.544
31803W        W93334  19.108  32.070  12.445
31804W        W93335  11.671  25.032  13.431
31805W        W93336  27.666  10.367   1.934
31806W        W93337   1.275  22.124   3.661
31807W        W93338  18.549  41.005   1.715
31808W        W93339  27.637  22.692   2.338
31809W        W93340   4.816  22.688   0.459
31810W        W93341  37.389  14.695   2.276
31811W        W93342   6.773  35.937   0.351
31812W        W93343  27.470  37.023   3.372
31813W        W93344  33.611   8.851  14.459
31814W        W93345  35.871   5.740   4.325
31815W        W93346  10.877  43.450   2.813
31816W        W93347  32.926  31.053  10.453
31817W        W93348   1.306  42.025   4.832
31818W        W93349   3.835  15.107  10.595
31819W        W93350  42.414  30.474  13.344
31820W        W93351  34.545  13.731   2.252
31821W        W93352  44.998   8.889   0.409
31822W        W93353  25.143  30.078   3.345
31823W        W93354  27.473  21.260  12.365
31824W        W93355  33.959  20.544   0.250
31825W        W93356   7.755  32.095   3.730
31826W        W93357  31.036   1.925  13.924
31827W        W93358   5.855  29.623  13.354
31828W        W93359  27.976  33.020   0.895
31829W        W93360  29.588  35.467   2.207
31830W        W93361  43.832  22.643  14.286
31831W        W93362  36.946  35.470   3.629
31832W        W93363  33.131  36.989  12.532
31833W        W93364  32.601  43.446  11.419
31834W        W93365  21.572  39.055   1.892
31835W        W93366  28.680  25.505   4.303
31836W        W93367   3.950   9.188  10.508
31837W        W93368  25.979   6.797  13.010
31838W        W93369   6.239  13.657   2.699
31839W        W93370  10.208  36.046   4.721
31840W        W93371  41.823   3.396  10.612
31841W        W93372   6.301  16.611  13.316
31842W        W93373  33.562  23.014  13.372
31843W        W93374  28.570  39.814  11.110
31844W        W93375  24.172  31.608   3.382
31845W        W93376  22.672  23.582   2.375
31846W        W93377  33.074  36.535  11.421
31847W        W93378  27.583  14.621   4.811
31848W        W93379  37.346   5.737   2.312
31849W        W93380  28.066  32.020   3.669
31850W        W93381  38.565  42.398   2.292
31851W        W93382  41.963  42.309  13.969
31852W        W93383   5.307  30.993  12.412
31853W        W93384  27.974  11.356  14.461
31854W        W93385  24.045  33.565   5.137
31855W        W93386  35.455  26.988  13.837
31856W        W93387   7.217   1.238  10.926
31857W        W93388  15.122  16.609  14.466
31858W        W93389  16.803  29.117  14.953
31859W        W93390  35.423  13.136  11.077
31860W        W93391  20.212  29.036  14.827
31861W        W93392  11.363  14.664  12.434
31862W        W93393   5.827  19.260  14.011
31863W        W93394  38.433  33.121  11.401
31864W        W93395   8.718  34.027  13.466
31865W        W93396  36.550   3.336  14.364
31866W        W93397   0.278   1.293   2.783
31867W        W93398  34.372  32.113   1.904
31868W        W93399   9.653  21.045   3.750
31869W        W93400  41.520  39.006   4.246
31870W        W93401  23.014  10.671  11.448
31871W        W93402  19.765  29.966  13.374
31872W        W93403  42.460  13.333   4.321
31873W        W93404  31.457  20.585  14.863
31874W        W93405  32.906   3.355   2.826
31875W        W93406  13.751  39.023   0.400
31876W        W93407  36.087  37.397   1.793
31877W        W93408  30.003  26.051  13.482
31878W        W93409  19.080  37.437   9.971
31879W        W93410  16.075  33.035   9.486
31880W        W93411   1.410  40.356   1.290
31881W        W93412   6.912  25.127  13.851
31882W        W93413  36.425  22.014  14.356
31883W        W93414  26.955   4.435  14.955
31884W        W93415   4.824  36.975  11.082
31885W        W93416  35.361  23.703  12.521
31886W        W93417  30.442   6.345   2.250
31887W        W93418  28.061  44.999  14.494
31888W        W93419  39.045   0.472  10.075
31889W        W93420  17.563  33.892   2.385
31890W        W93421  11.354  40.482   0.427
31891W        W93422  14.605  13.843  10.605
31892W        W93423   8.715  35.366   4.277
31893W        W93424  34.952  17.114  14.453
31894W        W93425  34.582   0.940  10.413
31895W        W93426  19.581  39.023   3.720
31896W        W93427  22.599   6.760   0.364
31897W        W93428  15.326  29.971  12.030
31898W        W93429  20.713  31.083   3.339
31899W        W93430  31.981   5.395   3.153
31900W        W93431  23.183  13.671  11.868
31901W        W93432   2.844   1.759  11.011
31902W        W93433  12.328  24.974   0.334
31903W        W93434  15.094  34.374  14.830
31904W        W93435   8.683  27.666   0.936
31905W        W93436   5.800  29.953   2.373
31906W        W93437  17.632   8.358  10.518
31907W        W93438  11.746  23.209  14.439
31908W        W93439  11.326  17.740  13.981
31909W        W93440  34.613  25.701  12.854
31910W        W93441   9.280  12.280   0.313
31911W        W93442   3.417  28.962  10.573
31912W        W93443   2.965  41.041  14.865
31913W        W93444  26.549   6.271   5.214
31914W        W93445  18.082  31.555   4.814
31915W        W93446   1.479  43.874  12.870
31916W        W93447  10.170   3.258   0.823
31917W        W93448  18.261  26.156  11.112
31918W        W93449  12.702  25.599  13.824
31919W        W93450  14.144  26.010  12.511
31920W        W93451  13.202  17.063  13.030
31921W        W93452  28.985   8.368   2.220
31922W        W93453  20.569  11.297   3.177
31923W        W93454  25.059  13.732   2.202
31924W        W93455  43.803   1.298   4.204
31925W        W93456   6.897  28.946  10.455
31926W        W93457  11.212  20.204  11.464
31927W        W93458   9.258  12.803  12.883
31928W        W93459  31.978  43.012  13.406
31929W        W93460  43.367  29.112  13.390
31930W        W93461  19.048   4.227   1.866
31931W        W93462  14.589  44.002   2.784
31932W        W93463  11.693  31.126   0.290
31933W        W93464  43.339   1.735   2.372
31934W        W93465   7.225  34.040   2.264
31935W        W93466  24.692   2.772   0.467
31936W        W93467  10.174  31.585  13.451
31937W        W93468  14.310  24.662  14.852
31938W        W93469  39.898   2.836  10.533
31939W        W93470  14.100   9.187   4.272
31940W        W93471  43.845  24.650  13.339
31941W        W93472  25.491  30.485  12.477
31942W        W93473  44.898  27.674  13.344
31943W        W93474  29.564  24.658   2.773
31944W        W93475  11.838  43.776   1.784
31945W        W93476   2.471   1.737   0.402
31946W        W93477  40.426  38.527  14.863
31947W        W93478  14.290  43.350   2.362
31948W        W93479  44.777   3.310   4.158
31949W        W93480  40.309  38.902   1.354
31950W        W93481  20.051  40.814  12.947
31951W        W93482  23.118  43.980   2.387
31952W        W93483  12.347  21.086  14.357
31953W        W93484  26.590   7.394  11.869
31954W        W93485   1.289  13.236  11.519
31955W        W93486  10.775  18.724   3.863
31956W        W93487  41.375   6.258   3.251
31957W        W93488  39.534   2.843  13.362
31958W        W93489  32.923  27.126   1.721
31959W        W93490  40.936  21.148   3.695
31960W        W93491   0.948  31.455   1.430
31961W        W93492   9.796   2.749  11.100
31962W        W93493  23.562  40.020   1.833
31963W        W93494  17.588  19.748   0.887
31964W        W93495  38.895  40.321  11.439
31965W        W93496  14.795  25.992  14.818
31966W        W93497  31.516  12.240  10.999
31967W        W93498  36.433  16.073   0.867
31968W        W93499  15.237  29.451   2.672
31969W        W93500  33.994  10.857  13.025
31970W        W93501  39.026  42.427  13.521
31971W        W93502  20.562  44.263  14.336
31972W        W93503  27.463  33.074   1.847
31973W        W93504  16.206  19.673   0.901
31974W        W93505  37.464  34.391  14.027
31975W        W93506  24.173  10.305   0.871
31976W        W93507   6.794  29.519   1.346
31977W        W93508  21.071  30.013   1.787
31978W        W93509  41.941  12.711   4.667
31979W        W93510  31.017  44.838   3.678
31980W        W93511   4.280  11.152  14.884
31981W        W93512  29.944  41.948   4.240
31982W        W93513  32.441  11.211  14.968
31983W        W93514  13.236  37.363  14.350
31984W        W93515  21.590  34.947   4.349
31985W        W93516  41.312  16.084  11.896
31986W        W93517  19.612  17.198  12.002
31987W        W93518  21.264  24.198  13.042
31988W        W93519   2.237  36.924  13.028
31989W        W93520   6.855  21.725  12.578
31990W        W93521   8.893  33.454   3.322
31991W        W93522   9.773  40.810  11.861
31992W        W93523  14.310  24.209   2.711
31993W        W93524  31.443   0.438  13.864
31994W        W93525  16.092  29.668   0.245
31995W        W93526  25.032  37.086  12.006
31996W        W93527   0.261  14.215  12.922
31997W        W93528   8.301  16.724   4.181
31998W        W93529  24.176  24.560  13.968
31999W        W93530  44.946  11.269   3.750
32000W        W93531   6.878  35.073   1.905
32001W        W93532   8.208  31.944   1.808
32002W        W93533  44.894  22.621   3.830
32003W        W93534  43.419  22.501   2.193
32004W        W93535  40.409  28.629  13.337
32005W        W93536  10.706  29.929  12.545
32006W        W93537  22.031  14.109  14.342
32007W        W93538   7.344  43.018   4.657
32008W        W93539  10.374  38.426  12.863
32009W        W93540  34.506   7.873  12.067
32010W        W93541  13.704  18.720  14.355
32011W        W93542  12.766   5.379   2.354
32012W        W93543   8.679  12.728  13.385
32013W        W93544  25.527  25.185   3.800
32014W        W93545   5.746  20.747  12.964
32015W        W93546  22.505  16.218  13.466
32016W        W93547  11.706  42.462   0.385
32017W        W93548   5.838   8.315   3.747
32018W        W93549  25.621   8.250  10.641
32019W        W93550  15.647  30.629   2.297
32020W        W93551  26.586  13.300   2.348
32021W        W93552  24.594   6.288   3.859
32022W        W93553  10.167  27.564  11.994
32023W        W93554  23.723  43.862   1.364
32024W        W93555  29.469  31.961   4.325
32025W        W93556  29.037  38.957   3.721
32026W        W93557  30.100  14.751  13.371
32027W        W93558   3.899  20.063  12.480
32028W        W93559  11.832  25.968   1.751
32029W        W93560  32.486  30.954  12.004
32030W        W93561  22.240  29.036   3.804
32031W        W93562  14.696   3.820   4.206
32032W        W93563  18.787  33.925  14.819
32033W        W93564   7.865  13.148  12.568
32034W        W93565  40.343   2.422  12.464
32035W        W93566   1.949   6.233  14.845
32036W        W93567  31.897  21.035   3.718
32037W        W93568  20.236  42.797  14.782
32038W        W93569   0.851   5.269   3.159
32039W        W93570  29.983  44.265   1.221
32040W        W93571  25.167  42.363  10.518
32041W        W93572  12.117  43.839   0.466
32042W        W93573  24.203  22.010   3.264
32043W        W93574  12.299  41.368  13.842
32044W        W93575  43.466  33.533   1.894
32045W        W93576  27.601  18.295  13.064
32046W        W93577   2.729  16.139  10.474
32047W        W93578   4.869  39.478  11.875
32048W        W93579   1.839  26.530  13.975
32049W        W93580  18.677  35.014  13.496
32050W        W93581  24.655  22.620  14.025
32051W        W93582  10.874  40.955   0.358
32052W        W93583  31.598   0.818  10.635
32053W        W93584  35.928  32.394   3.216
32054W        W93585  44.277   6.900  11.571
32055W        W93586   8.338  10.225  11.435
32056W        W93587  18.276  25.133  13.978
32057W        W93588  22.154  29.576   0.881
32058W        W93589  20.688   1.310  12.923
32059W        W93590   2.392   8.382   0.483
32060W        W93591  36.383  18.763   1.876
32061W        W93592   0.399  31.942   1.731
32062W        W93593  37.076  40.418   2.281
32063W        W93594  39.959  26.492   1.748
32064W        W93595  28.604   3.445  10.930
32065W        W93596   6.857  12.297  10.899
32066W        W93597  21.122  18.721  13.384
32067W        W93598  25.188  22.066   1.909
32068W        W93599  44.301  28.538   1.447
32069W        W93600  14.105  34.057   0.410
32070W        W93601  25.638  33.981  11.042
32071W        W93602   9.816  28.185   4.195
32072W        W93603  26.191  35.012   4.181
32073W        W93604   9.670   0.257  12.981
32074W        W93605  24.201  34.058   2.864
32075W        W93606  16.177  44.985  13.377
32076W        W93607  29.496  40.468  12.421
32077W        W93608  28.464  29.650  14.986
32078W        W93609  15.642  23.114  14.861
32079W        W93610  43.975  39.930  14.024
32080W        W93611  26.669  30.434   1.249
32081W        W93612  18.208   0.809  12.470
32082W        W93613  42.463  19.156  10.901
32083W        W93614   5.809  32.505  13.944
32084W        W93615   9.715  43.931   3.315
32085W        W93616  17.585  13.776   4.698
32086W        W93617  21.600  30.469  11.095
32087W        W93618  44.474  28.121   3.705
32088W        W93619   2.345   2.407   1.445
32089W        W93620   3.808   4.217  10.931
32090W        W93621   5.260   1.325   2.319
32091W        W93622  41.966  18.146  12.997
32092W        W93623  41.383  43.953  12.927
32093W        W93624   3.266   8.847   4.164
32094W        W93625  39.960   0.976   0.747
32095W        W93626  11.234  32.905   0.316
32096W        W93627  38.495   4.414   3.802
32097W        W93628   8.687   5.274   1.272
32098W        W93629  10.774  43.464   3.800
32099W        W93630  24.978  14.634  10.629
32100W        W93631   3.801  44.439   1.736
32101W        W93632  31.581  34.029  10.517
32102W        W93633  37.498  29.978  12.975
32103W        W93634  39.487   2.951   0.755
32104W        W93635  23.093  26.031   2.224
32105W        W93636  18.570   3.458  10.629
32106W        W93637  10.840  27.082  11.412
32107W        W93638  22.541  32.498  10.473
32108W        W93639  35.061  17.091   2.267
32109W        W93640  28.120  36.403   1.921
32110W        W93641  34.960  15.591  12.835
32111W        W93642  12.280   5.748  13.350
32112W        W93643  14.291   7.848  11.448
32113W        W93644   3.309  21.123   0.873
32114W        W93645  15.744  43.995   2.287
32115W        W93646   3.874  33.406   4.326
32116W        W93647   2.372   8.788   0.739
32117W        W93648  12.155  22.529  11.111
32118W        W93649  13.191  18.188  11.560
32119W        W93650  33.602  26.025  14.450
32120W        W93651  25.092  14.135  12.042
32121W        W93652   4.203   0.265  11.124
32122W        W93653  10.351  44.286  11.548
32123W        W93654  33.050  32.567  13.862
32124W        W93655  30.510  10.220  11.486
32125W        W93656  34.598  38.446  14.511
32126W        W93657  34.396  23.028  12.471
32127W        W93658  43.806  20.170  12.051
32128W        W93659  33.478  20.145   2.836
32129W        W93660  12.143  27.962  14.288
32130W        W93661  28.511  32.960   3.271
32131W        W93662  38.942   5.326   0.348
32132W        W93663  44.810  18.702   4.293
32133W        W93664   5.783  39.995   3.298
32134W        W93665  41.862  17.739  11.115
32135W        W93666  10.152  42.982   4.189
32136W        W93667  11.263   5.285  11.449
32137W        W93668   3.895   1.375   2.835
32138W        W93669   7.700   5.889  13.966
32139W        W93670  44.863   7.695  11.905
32140W        W93671  22.080  40.813  11.950
32141W        W93672   9.775  22.627   2.666
32142W        W93673  40.009  22.724   2.248
32143W        W93674  21.675  17.206  11.070
32144W        W93675  19.065  17.109   4.643
32145W        W93676  19.198   3.371  11.517
32146W        W93677  44.880  19.568  12.914
32147W        W93678  34.015  27.952  11.921
32148W        W93679   1.293   4.735  11.005
32149W        W93680   5.823  13.341  13.380
32150W        W93681  16.689  11.740   1.294
32151W        W93682  21.146  27.557  12.921
32152W        W93683  32.524  17.698   1.735
32153W        W93684  27.526  41.421  13.367
32154W        W93685  27.496  29.532   9.966
32155W        W93686  40.886  19.713   3.249
32156W        W93687  14.262  27.503  14.002
32157W        W93688  10.349   8.899  10.082
32158W        W93689   2.910  18.296  13.409
32159W        W93690  19.107  19.107  10.893
32160W        W93691  15.747  26.641   5.099
32161W        W93692  42.394  33.126  10.420
32162W        W93693  14.630  34.994   1.375
32163W        W93694  40.303  38.365  13.487
32164W        W93695   2.339  42.870   0.319
32165W        W93696  23.567   7.876   1.303
32166W        W93697  29.018  33.124   0.333
32167W        W93698   5.406  18.196   1.293
32168W        W93699   5.783   2.814  13.948
32169W        W93700  18.544  10.221  11.994
32170W        W93701   3.928  21.238   0.806
32171W        W93702  19.572  16.306   3.854
32172W        W93703  35.976  35.359   0.344
32173W        W93704  15.704  20.160  10.524
32174W        W93705  32.442  30.054  12.375
32175W        W93706   2.952  23.574   5.162
32176W        W93707  34.949   2.819  14.421
32177W        W93708  15.105   4.928  10.468
32178W        W93709  23.622  23.665  11.954
32179W        W93710   2.910   1.329  14.803
32180W        W93711  31.429  10.381   4.645
32181W        W93712  28.645   0.931   1.343
32182W        W93713  41.791  32.134  13.479
32183W        W93714  12.172  33.489  14.342
32184W        W93715  26.488  14.697   0.415
32185W        W93716  16.728   1.474  10.564
32186W        W93717  27.186   5.329   1.791
32187W        W93718   0.804  25.569  12.449
32188W        W93719  35.598  17.214   3.809
32189W        W93720   4.854  28.104  11.441
32190W        W93721  30.105  11.149   9.579
32191W        W93722  23.066   5.806   1.294
32192W        W93723   4.747   8.183  14.294
32193W        W93724   1.244  31.466   2.238
32194W        W93725   0.476  42.795   3.366
32195W        W93726  18.642  21.711  11.877
32196W        W93727   1.834  39.052  11.978
32197W        W93728  21.619  15.606   0.901
32198W        W93729  31.094  29.656  14.446
32199W        W93730   7.225  41.324   4.736
32200W        W93731   0.852  11.652  13.505
32201W        W93732  27.558   2.314   1.403
32202W        W93733   6.275   0.763  10.473
32203W        W93734   2.911  21.524  11.584
32204W        W93735   2.236  40.376  11.941
32205W        W93736  21.224  35.891   0.347
32206W        W93737  41.412  33.066  10.538
32207W        W93738   2.809   4.864  12.473
32208W        W93739  32.071  28.930  14.907
32209W        W93740  14.606  27.046   1.750
32210W        W93741  11.772   0.447  11.937
32211W        W93742  33.987  23.581  13.945
32212W        W93743   0.774   7.327  12.866
32213W        W93744  25.607   6.750  11.057
32214W        W93745  31.134   3.414   2.346
32215W        W93746  27.138  25.644   4.136
32216W        W93747  17.116  33.525   3.294
32217W        W93748  23.510   0.883  12.846
32218W        W93749  25.522  20.591   1.330
32219W        W93750  13.636  27.026  14.830
32220W        W93751  33.925  30.090  10.429
32221W        W93752  34.420  43.969  13.380
32222W        W93753  27.448  10.879  12.857
32223W        W93754  25.701  36.377  14.897
32224W        W93755  21.650   4.294   2.709
32225W        W93756  33.936  17.748  11.051
32226W        W93757  22.166   7.383   3.275
32227W        W93758   5.809  34.613  10.462
32228W        W93759  27.959   6.234   3.815
32229W        W93760   4.777   1.836   1.240
32230W        W93761  13.316  29.097  12.511
32231W        W93762   3.914  12.663  10.545
32232W        W93763  32.470  39.866   3.175
32233W        W93764  10.224   5.317  12.579
32234W        W93765  30.530  12.642   0.837
32235W        W93766  28.171   4.926  12.461
32236W        W93767   1.808  44.867  14.456
32237W        W93768  44.266  22.252   9.997
32238W        W93769  24.198  22.081  12.423
32239W        W93770   3.728  31.044   0.903
32240W        W93771   5.866   8.214  12.072
32241W        W93772  15.688   1.248   4.647
32242W        W93773  19.550  16.300   3.256
32243W        W93774  27.105  36.928  13.438
32244W        W93775  36.552  26.643   1.740
32245W        W93776  28.140  27.140   4.776
32246W        W93777  11.150  19.197   2.212
32247W        W93778  14.286  25.495   2.325
32248W        W93779  26.664  24.037  14.395
32249W        W93780   9.391  25.020  11.983
32250W        W93781  37.942  27.037  12.053
32251W        W93782  33.591  43.790   0.275
32252W        W93783  38.339  41.852  12.826
32253W        W93784  22.077  43.483   0.912
32254W        W93785  28.962  22.682  10.979
32255W        W93786  14.321   6.261   4.658
32256W        W93787  40.979  27.568   1.437
32257W        W93788  29.105   6.851   4.748
32258W        W93789   6.205  27.470   0.894
32259W        W93790  33.522  27.584   3.666
32260W        W93791  11.770  34.033  11.384
32261W        W93792  36.003  41.027   3.744
32262W        W93793  21.153  29.062   1.913
32263W        W93794  11.257  24.078   4.330
32264W        W93795  15.273  31.100   1.721
32265W        W93796  30.973  28.075  14.944
32266W        W93797  31.009   5.365  10.594
32267W        W93798  27.688   2.324  14.982
32268W        W93799  30.089  15.092   5.761
32269W        W93800  27.627   9.354  11.595
32270W        W93801  28.136  39.819   4.136
32271W        W93802   3.737   6.801   0.854
32272W        W93803  11.231  16.085  11.431
32273W        W93804  39.407   0.985   4.200
32274W        W93805   9.210  25.000   0.421
32275W        W93806   5.272   7.794   0.762
32276W        W93807  18.729  35.584  13.484
32277W        W93808  31.148  32.480  14.900
32278W        W93809   5.886   1.420  14.855
32279W        W93810  37.404  15.788  10.415
32280W        W93811  28.465  14.689   3.639
32281W        W93812  27.527   4.329  13.880
32282W        W93813  23.023  34.874  13.022
32283W        W93814  29.512  36.536   3.792
32284W        W93815  16.075  26.567  14.335
32285W        W93816  36.428   2.419   4.706
32286W        W93817  42.462   9.190  12.517
32287W        W93818   6.875   3.908  12.983
32288W        W93819   9.729  43.948   4.324
32289W        W93820   7.862   2.928   3.245
32290W        W93821  13.607  26.469  13.799
32291W        W93822  26.503   9.775   1.373
32292W        W93823  15.611  25.584  10.612
32293W        W93824   0.309   1.420  11.085
32294W        W93825  35.569   4.851   1.334
32295W        W93826   8.874  17.275   0.857
32296W        W93827  12.657  18.149  13.504
32297W        W93828  26.516  10.203  12.394
32298W        W93829  10.856  12.181   1.827
32299W        W93830  44.487  18.637  11.565
32300W        W93831  25.560  41.006  11.567
32301W        W93832  19.742   1.386  11.060
32302W        W93833  23.691   3.352   4.171
32303W        W93834  43.369   1.452  12.076
32304W        W93835  21.614  33.383  14.802
32305W        W93836  16.709   6.184   1.854
32306W        W93837  39.531  37.489   3.670
32307W        W93838  20.154   8.757  10.911
32308W        W93839   3.881  11.840   0.442
32309W        W93840  23.097  44.766   3.683
32310W        W93841   9.727  34.549  11.932
32311W        W93842  25.479  20.169  12.553
32312W        W93843  37.006   4.340   1.342
32313W        W93844   3.376  18.055   2.766
32314W        W93845   8.836  42.356  11.886
32315W        W93846  13.290  20.268  10.964
32316W        W93847  31.423  31.953  11.078
32317W        W93848  18.632  31.918   3.356
32318W        W93849  42.379   9.750   3.278
32319W        W93850  30.588   2.428   4.648
32320W        W93851  39.488  13.204  10.452
32321W        W93852  13.644  26.171   3.249
32322W        W93853  19.210   2.408  10.556
32323W        W93854  31.013  33.911   2.713
32324W        W93855  35.539   5.856   3.222
32325W        W93856  26.618  10.794  10.978
32326W        W93857  39.977  38.862  12.578
32327W        W93858  31.621   1.426   1.822
32328W        W93859  18.138  35.933  10.518
32329W        W93860  31.925  10.186  10.015
32330W        W93861  44.904  18.196   2.734
32331W        W93862  32.547  22.029  10.938
32332W        W93863   0.758  11.828   0.450
32333W        W93864   3.244  10.775   2.235
32334W        W93865   9.239  26.140   1.851
32335W        W93866   2.786  21.717  14.941
32336W        W93867  20.594   0.437  13.915
32337W        W93868  35.380  11.662   4.262
32338W        W93869   3.263  36.943   3.346
32339W        W93870  26.204  36.363  11.887
32340W        W93871   9.849  32.588  14.965
32341W        W93872  22.652  29.587  12.564
32342W        W93873  17.094  44.849  12.867
32343W        W93874  11.259  21.589  14.992
32344W        W93875   0.373  35.539   0.243
32345W        W93876  31.913  42.906   5.262
32346W        W93877  24.627  32.607   4.288
32347W        W93878   2.865   7.256  11.112
32348W        W93879  43.470  12.757   4.698
32349W        W93880  30.010  39.454   4.196
32350W        W93881  30.993  18.125  10.508
32351W        W93882  15.145   3.803  12.886
32352W        W93883  39.475   7.353  14.502
32353W        W93884  44.866  13.642  12.562
32354W        W93885  30.017  24.521   4.781
32355W        W93886  21.611  33.014   1.414
32356W        W93887   6.795  22.142  14.765
32357W        W93888  24.030  13.241  12.441
32358W        W93889  37.030  28.078  11.903
32359W        W93890   4.423  30.532   4.605
32360W        W93891  44.000  39.877  11.048
32361W        W93892  27.531   8.777   1.744
32362W        W93893  44.482  20.615   1.298
32363W        W93894  34.090  44.425  12.824
32364W        W93895  43.281  17.176  12.049
32365W        W93896  28.932  16.152  11.408
32366W        W93897  36.938  44.791  11.421
32367W        W93898  19.747  17.566   2.769
32368W        W93899   8.233  33.982  10.981
32369W        W93900  32.006  27.507  11.964
32370W        W93901  33.068  21.654   1.375
32371W        W93902  39.056  29.979  11.431
32372W        W93903  19.635   7.678  13.473
32373W        W93904  22.055  21.156  13.893
32374W        W93905  23.615  26.478  13.809
32375W        W93906  16.316  37.412   0.750
32376W        W93907  35.395  10.738  10.502
32377W        W93908  41.370   3.447  13.045
32378W        W93909  30.038  42.289  10.488
32379W        W93910  10.380   0.360  14.827
32380W        W93911  34.993  26.619   3.678
32381W        W93912   0.884  23.022  14.791
32382W        W93913  37.560   5.348  13.532
32383W        W93914  23.556  23.073  12.045
32384W        W93915   6.385  18.636   1.282
32385W        W93916  22.087  12.247   0.378
32386W        W93917  40.498  21.235  14.923
32387W        W93918  14.258   4.206   1.801
32388W        W93919   9.765  24.550   0.759
32389W        W93920  18.068  35.604  14.883
32390W        W93921   4.430  19.241  13.877
32391W        W93922   3.777  35.049  11.940
32392W        W93923  43.449  32.137   0.324
32393W        W93924   5.319  35.568   2.831
32394W        W93925  29.029   7.694   2.849
32395W        W93926  24.587  16.107   3.230
32396W        W93927  27.019  13.650  13.054
32397W        W93928   6.729  43.877   0.884
32398W        W93929  36.582  24.560   1.405
32399W        W93930  31.554   1.749   2.371
32400W        W93931   2.326   4.910  13.047
32401W        W93932  13.630   3.780  14.301
32402W        W93933   8.852  13.243   3.185
32403W        W93934  10.709  25.543  14.762
32404W        W93935  39.371   2.251   1.239
32405W        W93936   6.192  33.383   5.180
32406W        W93937  41.396  36.401   4.179
32407W        W93938  22.585  32.901  13.473
32408W        W93939   8.333  16.103  14.315
32409W        W93940  31.531  30.604   1.307
32410W        W93941  17.631  44.416   4.198
32411W        W93942  40.831  19.066   4.283
32412W        W93943  36.979  23.218   0.806
32413W        W93944   7.378  16.800   0.380
32414W        W93945   8.375  41.507   4.638
32415W        W93946  43.951  20.525  14.859
32416W        W93947   3.711  33.606   4.742
32417W        W93948  15.245   3.344  10.555
32418W        W93949   7.293   9.872  13.808
32419W        W93950  33.895  31.948   2.801
32420W        W93951  29.472   6.747  13.364
32421W        W93952  25.609  22.643  10.405
32422W        W93953  34.551  35.458   0.751
32423W        W93954  14.205  17.205  14.909
32424W        W93955   2.288  30.619  13.430
32425W        W93956  22.063   7.717   4.286
32426W        W93957  15.182   5.264   3.257
32427W        W93958  26.045   9.650   3.178
32428W        W93959  11.157  24.540   0.304
32429W        W93960  34.028  11.317   4.655
32430W        W93961  29.006   8.799  14.426
32431W        W93962  34.437  36.934  14.026
32432W        W93963  31.642  21.137   4.194
32433W        W93964  24.575  39.020   0.430
32434W        W93965  34.072  42.295  10.574
32435W        W93966   0.271  32.997   4.633
32436W        W93967  26.469   4.730  14.326
32437W        W93968  43.865   4.880   3.688
32438W        W93969  16.662  10.154  13.465
32439W        W93970   2.293  11.650  14.448
32440W        W93971  17.097  10.662  14.354
32441W        W93972   5.787  41.000   1.907
32442W        W93973  14.104  12.298  12.367
32443W        W93974  34.080   9.191  12.423
32444W        W93975  41.395  35.062  10.414
32445W        W93976  12.687  33.591  13.350
32446W        W93977  28.112  42.433  11.495
32447W        W93978  37.381  30.120   3.193
32448W        W93979  43.869  17.296   1.787
32449W        W93980  38.902  20.736   2.750
32450W        W93981  25.143  44.889   0.912
32451W        W93982  16.305  43.462   0.949
32452W        W93983  38.420  17.273   2.822
32453W        W93984   6.186  44.805  12.400
32454W        W93985  28.065  10.164  12.991
32455W        W93986  27.613   9.821   3.870
32456W        W93987  14.822  11.685  13.033
32457W        W93988   1.408  43.370  13.372
32458W        W93989   5.738  17.665  12.039
32459W        W93990   0.834  11.240   3.273
32460W        W93991  15.813  19.662  12.031
32461W        W93992   7.195   2.332   2.763
32462W        W93993  41.538  36.996   1.283
32463W        W93994  44.993  31.052   3.352
32464W        W93995  36.960  35.866   4.773
32465W        W93996  22.208   8.235   0.330
32466W        W93997  27.630   5.214  13.436
32467W        W93998   5.208   1.940   2.267
32468W        W93999  42.335  36.957   3.243
32469W        W94000  22.637   8.870   3.792
32470W        W94001  22.146   8.709   0.424
32471W        W94002  14.147  34.880   1.709
32472W        W94003  44.337  19.074  14.393
32473W        W94004   9.647  28.178  10.482
32474W        W94005  44.275  40.990   2.848
32475W        W94006  32.070  17.669   1.408
32476W        W94007  42.777  19.237  14.959
32477W        W94008  26.123  24.023   4.819
32478W        W94009  41.903  24.217   0.479
32479W        W94010  21.167  42.799  10.973
32480W        W94011  42.337  43.009   1.915
32481W        W94012  28.997   2.823  12.400
32482W        W94013  30.994  12.661  12.032
32483W        W94014  30.424  11.692   3.707
32484W        W94015  44.805  30.545  11.603
32485W        W94016  10.642   2.419   3.382
32486W        W94017   1.957  42.368   0.858
32487W        W94018  29.012   7.272   4.347
32488W        W94019  24.700   8.856   0.283
32489W        W94020   1.422  35.948   2.669
32490W        W94021  10.823  14.300   3.300
32491W        W94022  11.683  42.357  13.052
32492W        W94023  35.974   0.330  12.066
32493W        W94024  35.358  15.785   0.444
32494W        W94025  19.220   5.280   2.275
32495W        W94026  41.481  10.688   2.394
32496W        W94027  22.617  36.002   2.203
32497W        W94028  15.210  16.638   2.242
32498W        W94029  32.450  31.954   4.802
32499W        W94030  36.414   4.418  12.069
32500W        W94031  38.915  17.187  14.421
32501W        W94032   7.742  28.580   2.766
32502W        W94033   9.682  40.400   3.773
32503W        W94034   8.230  29.442  13.355
32504W        W94035   8.830  40.513   0.966
32505W        W94036  24.523  17.698  10.906
32506W        W94037   9.210   4.404  10.982
32507W        W94038   0.332  41.797   2.355
32508W        W94039  37.053   6.258   3.311
32509W        W94040  30.462   3.311   4.282
32510W        W94041  39.375  29.046  11.488
32511W        W94042  33.525   9.704   3.307
32512W        W94043  39.514  44.296   3.749
32513W        W94044  39.425  30.086   2.342
32514W        W94045   1.375   9.324   2.743
32515W        W94046  17.159   7.403  14.970
32516W        W94047  16.770   3.788  10.900
32517W        W94048   6.773   6.839   4.773
32518W        W94049  15.215   3.920  14.395
32519W        W94050  34.419  31.407  14.906
32520W        W94051  32.975  36.437   0.262
32521W        W94052   7.717  33.481   0.734
32522W        W94053  34.383  32.630  11.109
32523W        W94054  30.140  28.601   2.181
32524W        W94055  33.548  12.349   0.965
32525W        W94056  37.054  42.980  12.069
32526W        W94057  35.560  17.642   2.671
32527W        W94058   4.755   2.375  12.397
32528W        W94059   6.844  36.441  10.563
32529W        W94060  12.678  44.505  14.427
32530W        W94061  38.404  43.976   2.725
32531W        W94062  32.076  25.639   5.309
32532W        W94063  28.635  13.107  12.878
32533W        W94064   0.301  35.853  13.033
32534W        W94065  11.217  43.773   1.815
32535W        W94066   6.749  10.174  10.990
32536W        W94067  26.652  23.620   1.249
32537W        W94068  24.002  35.603  14.802
32538W        W94069  36.475   5.809  12.411
32539W        W94070  26.667  17.174  11.596
32540W        W94071   5.751  10.373  14.290
32541W        W94072   2.764  13.626  11.461
32542W        W94073  38.439  28.040   2.678
32543W        W94074  26.660  15.297  12.347
32544W        W94075   3.435  39.376  10.974
32545W        W94076   4.739  31.407  10.473
32546W        W94077  15.784  39.423   2.380
32547W        W94078   3.256  17.629  13.863
32548W        W94079  25.188  43.789  10.504
32549W        W94080  20.237  42.828  10.459
32550W        W94081  20.136  28.534   1.412
32551W        W94082  14.158   6.255  11.975
32552W        W94083   5.279  37.963  12.961
32553W        W94084  10.827  15.096   0.965
32554W        W94085  34.120   2.458  13.959
32555W        W94086   1.243  21.732   1.803
32556W        W94087  42.300  43.924  14.347
32557W        W94088   8.827   3.449  13.544
32558W        W94089  29.167  14.823   2.336
32559W        W94090  36.429  35.930  12.070
32560W        W94091   6.283  13.301   0.816
32561W        W94092  30.585  31.633  11.964
32562W        W94093  16.601  18.095  14.392
32563W        W94094  29.555   1.732  13.955
32564W        W94095  27.125  33.936  14.022
32565W        W94096  13.190   6.292  14.313
32566W        W94097  41.026  36.382   2.756
32567W        W94098   7.674  12.739  11.419
32568W        W94099  24.694  38.560  10.126
32569W        W94100  30.927  40.419  11.964
32570W        W94101  39.465  23.037   2.765
32571W        W94102  15.323  41.499  11.462
32572W        W94103  30.039   3.945  12.452
32573W        W94104  41.453  37.958   2.666
32574W        W94105  32.022  31.645   1.305
32575W        W94106   6.223  31.132  13.334
32576W        W94107  13.628  11.840  14.489
32577W        W94108  29.061  21.727  13.476
32578W        W94109  40.374  16.149  14.311
32579W        W94110  36.912  30.971  13.794
32580W        W94111   5.251  29.011   1.239
32581W        W94112  22.535  39.931   2.702
32582W        W94113  21.226   0.405  13.818
32583W        W94114  16.669  20.248  13.019
32584W        W94115  42.428  35.459  14.508
32585W        W94116   1.738  43.833  13.039
32586W        W94117  19.041  42.847  12.017
32587W        W94118  25.127  16.149   3.839
32588W        W94119  23.042  25.525   3.248
32589W        W94120  13.646  39.545  13.329
32590W        W94121  22.628  17.087  14.942
32591W        W94122  10.749   5.728   3.750
32592W        W94123  13.743  23.634  11.418
32593W        W94124  40.983  21.154  12.433
32594W        W94125  24.581  38.365   1.716
32595W        W94126  28.163  20.151   0.770
32596W        W94127  28.564  41.850  14.475
32597W        W94128  12.674   9.830   2.196
32598W        W94129  44.361   8.303  14.285
32599W        W94130  29.516  27.501   1.934
32600W        W94131  11.712  37.550  13.055
32601W        W94132  29.165  19.209  12.068
32602W        W94133  30.614  42.305   2.848
32603W        W94134  36.905   4.945  13.929
32604W        W94135  10.305  28.494   1.376
32605W        W94136  13.304  21.210  10.150
32606W        W94137   9.274  40.910  11.918
32607W        W94138  35.454  29.658  13.891
32608W        W94139  41.929   8.761  13.421
32609W        W94140  42.442  16.318  14.979
32610W        W94141   8.861   5.915  14.388
32611W        W94142  37.536   5.883  11.880
32612W        W94143  11.852  37.388  11.887
32613W        W94144  44.785   3.870  14.404
32614W        W94145   0.742  42.350   2.895
32615W        W94146  42.984  35.998   2.352
32616W        W94147  10.657  11.162   3.159
32617W        W94148  13.351  12.155   1.399
32618W        W94149  16.199  17.722   1.886
32619W        W94150  26.578  43.347  12.891
32620W        W94151  34.021  12.713   1.825
32621W        W94152  33.451  36.348   4.120
32622W        W94153  32.578  24.993   2.408
32623W        W94154  12.786  41.510   1.929
32624W        W94155  23.226   9.290   0.403
32625W        W94156  10.270   8.160   2.747
32626W        W94157  38.450  21.647   3.167
32627W        W94158  41.789  23.644   1.259
32628W        W94159   4.299   5.792  14.841
32629W        W94160  28.544   3.823  11.925
32630W        W94161  38.907  29.084  13.500
32631W        W94162   8.393  29.630   0.941
32632W        W94163  14.121   4.796   1.702
32633W        W94164  19.168  25.033   2.218
32634W        W94165  21.185   9.267  13.887
32635W        W94166  15.170   1.345   0.324
32636W        W94167   3.938   8.263  13.026
32637W        W94168   3.738  35.928   0.246
32638W        W94169  41.354   4.303   4.116
32639W        W94170  36.039  26.987   2.673
32640W        W94171  28.442  23.239  11.026
32641W        W94172   0.903  42.775  12.987
32642W        W94173  16.208  37.832   4.781
32643W        W94174  35.498  14.231   4.827
32644W        W94175   9.292  18.085   4.152
32645W        W94176  30.597  26.488  12.026
32646W        W94177  16.155  36.887  11.420
32647W        W94178  31.636  32.015   4.231
32648W        W94179   9.803  34.451  12.556
32649W        W94180  31.922  38.944  10.928
32650W        W94181   4.253  28.555   1.322
32651W        W94182  10.683   9.795  12.069
32652W        W94183   6.881  16.185   1.884
32653W        W94184  37.459  17.692  11.577
32654W        W94185  32.041  21.707   2.695
32655W        W94186  23.169   4.385  10.961
32656W        W94187  43.357  16.755   1.257
32657W        W94188  13.268  43.893  13.311
32658W        W94189  32.515  31.102   2.688
32659W        W94190  21.227  29.599   1.724
32660W        W94191  24.021   8.793   1.704
32661W        W94192  10.767  10.775  10.937
32662W        W94193  36.999  44.926   3.315
32663W        W94194   4.379   7.681   0.807
32664W        W94195  24.020  25.625  13.002
32665W        W94196  16.281  12.799   1.217
32666W        W94197  14.635   2.818  14.465
32667W        W94198  44.840  35.391   1.250
32668W        W94199  41.797  27.616  13.843
32669W        W94200  23.520  34.564  13.836
32670W        W94201  44.903  24.175  13.534
32671W        W94202  25.045   7.232   4.157
32672W        W94203  26.530  25.659  12.372
32673W        W94204  28.019  44.764   0.414
32674W        W94205  18.120   9.775   1.286
32675W        W94206  22.718  21.100  14.370
32676W        W94207  15.144  25.547  14.347
32677W        W94208  35.394  36.950   5.663
32678W        W94209  38.067   9.775   2.836
32679W        W94210  21.742  29.652  12.999
32680W        W94211  20.264  29.578   1.392
32681W        W94212  12.700   0.445   3.282
32682W        W94213   7.875   6.230  13.857
32683W        W94214  17.706   2.870   3.861
32684W        W94215  10.356  28.580  10.644
32685W        W94216  31.479  12.331   1.354
32686W        W94217  15.674   2.965   4.171
32687W        W94218  19.683   6.900  13.406
32688W        W94219  28.102  10.664  14.421
32689W        W94220  14.754   5.354  11.012
32690W        W94221   2.940  28.495   0.386
32691W        W94222   5.364  20.184  12.865
32692W        W94223   1.452  40.834  11.613
32693W        W94224  43.343  36.963  11.005
32694W        W94225   5.784  12.118   3.676
32695W        W94226   6.829  32.475  10.975
32696W        W94227   3.932  24.150  11.476
32697W        W94228  39.978  17.281   2.735
32698W        W94229  15.696  12.672  13.913
32699W        W94230   0.437  20.246   0.253
32700W        W94231  41.857   0.456  14.823
32701W        W94232  10.268   6.912  14.414
32702W        W94233  39.912   6.264  11.486
32703W        W94234   6.207  16.123  10.419
32704W        W94235  21.589  24.539  12.405
32705W        W94236  14.603   0.830  14.011
32706W        W94237  11.732  28.569   3.146
32707W        W94238  19.181  30.645  11.862
32708W        W94239   1.254  25.190   2.337
32709W        W94240  24.599  20.690  12.537
32710W        W94241   3.267   9.381   1.889
32711W        W94242  21.142   3.267   2.899
32712W        W94243   3.237  37.896  13.544
32713W        W94244  12.177   4.893   0.839
32714W        W94245  10.195  17.633  14.002
32715W        W94246   2.319  11.707   2.731
32716W        W94247  35.075   6.680  14.862
32717W        W94248  15.285  33.101   4.141
32718W        W94249  12.335  27.000  14.896
32719W        W94250  13.797  34.956   1.806
32720W        W94251  14.736   7.716   4.330
32721W        W94252  32.415  43.301   2.677
32722W        W94253   8.766  24.186   4.791
32723W        W94254  19.122   4.705   0.346
32724W        W94255   6.873  17.770  14.798
32725W        W94256  16.575  18.768  12.048
32726W        W94257  33.516   9.217   1.291
32727W        W94258  44.385  34.912   4.737
32728W        W94259  30.040  33.563   3.699
32729W        W94260  15.793   8.361   0.361
32730W        W94261  15.610  15.239  11.942
32731W        W94262   8.734  30.430  11.867
32732W        W94263  30.434  44.819   1.419
32733W        W94264  12.751  24.000  11.955
32734W        W94265  27.118  15.590   3.671
32735W        W94266   8.370  11.637   4.348
32736W        W94267  43.961   8.186  11.475
32737W        W94268  31.403  27.124  12.962
32738W        W94269  39.947  20.065  12.081
32739W        W94270  21.522   1.438  12.432
32740W        W94271  36.409  24.116  11.966
32741W        W94272  18.704  36.355   1.892
32742W        W94273  16.773  29.463  11.126
32743W        W94274  43.361  30.577  11.956
32744W        W94275  28.560   4.873   1.340
32745W        W94276  18.106  29.006   4.664
32746W        W94277   5.281  22.512   0.910
32747W        W94278   4.315  12.312   3.670
32748W        W94279  24.510  36.444  12.886
32749W        W94280   4.734  31.601   2.734
32750W        W94281   9.687   2.430   0.288
32751W        W94282   0.825  25.468   2.379
32752W        W94283  44.968   1.787  13.023
32753W        W94284  21.616   9.311   4.761
32754W        W94285  11.813  33.512  13.863
32755W        W94286  27.673   7.784   1.342
32756W        W94287  12.152  36.867  14.513
32757W        W94288  38.985  20.620   0.773
32758W        W94289  25.480  29.487   1.775
32759W        W94290  31.576  19.549   1.251
32760W        W94291  17.210  25.566  12.476
32761W        W94292   5.806  14.736  12.904
32762W        W94293  43.892  11.757   3.155
32763W        W94294   5.829  20.582   2.746
32764W        W94295   0.432  39.036  14.415
32765W        W94296  28.051  38.065  14.903
32766W        W94297   9.849  19.707  12.871
32767W        W94298  25.213  38.561   2.762
32768W        W94299   9.750  35.435   2.732
32769W        W94300  12.124   9.678   3.261
32770W        W94301   6.289   3.744   0.750
32771W        W94302  20.569  44.803  12.522
32772W        W94303  13.838  36.061   0.905
32773W        W94304  19.228  16.640  13.844
32774W        W94305  17.157  18.765  10.963
32775W        W94306  31.992  40.954   0.403
32776W        W94307   2.414  11.812  13.808
32777W        W94308  13.656  12.232   2.872
32778W        W94309  29.086   0.750   4.142
32779W        W94310  36.899   3.323  11.532
32780W        W94311  29.445   1.865  10.903
32781W        W94312  40.362  44.806  13.808
32782W        W94313  22.168  29.042   4.701
32783W        W94314  32.400   8.306   0.967
32784W        W94315  12.316  37.975   4.679
32785W        W94316   6.807   7.878  10.971
32786W        W94317  32.486  40.321   2.744
32787W        W94318  39.458  29.442   4.135
32788W        W94319  30.472  26.038  10.909
32789W        W94320  44.860  31.031   0.798
32790W        W94321  29.054  38.477   2.287
32791W        W94322   3.946   0.319  14.872
32792W        W94323   7.235   4.334  11.492
32793W        W94324  16.223  26.146   1.876
32794W        W94325  39.982   5.392   0.342
32795W        W94326  43.399  43.291  10.461
32796W        W94327  20.670  14.201  14.379
32797W        W94328  21.240  43.989  13.002
32798W        W94329  38.394  28.650   1.876
32799W        W94330  10.173  31.979   5.101
32800W        W94331  13.165   9.340  12.058
32801W        W94332  37.860  43.886   4.253
32802W        W94333   8.720  22.104   0.422
32803W        W94334  21.117  17.778   3.658
32804W        W94335  31.428  29.459   1.704
32805W        W94336   2.420  22.549   2.293
32806W        W94337  16.139  41.972   0.778
32807W        W94338  36.041  25.611   0.458
32808W        W94339  41.799   6.716  12.408
32809W        W94340  30.009   9.283  13.323
32810W        W94341  37.082  18.207  12.579
32811W        W94342  29.135  36.415   4.181
32812W        W94343  33.574  39.984  12.386
32813W        W94344   6.376  16.140  13.973
32814W        W94345  18.247  40.321   0.773
32815W        W94346   6.288   0.802   3.664
32816W        W94347  16.147  28.657  13.314
32817W        W94348  20.710  26.654  11.864
32818W        W94349  29.092  16.597  11.464
32819W        W94350  26.533  35.934  11.054
32820W        W94351  16.139  17.065  12.501
32821W        W94352  21.049  42.813   2.754
32822W        W94353  26.172  26.507  11.544
32823W        W94354  42.479  11.730  11.502
32824W        W94355  20.250   2.271   2.709
32825W        W94356  19.648  28.969   3.674
32826W        W94357   0.482  32.534   1.823
32827W        W94358  43.959  16.688   2.748
32828W        W94359  44.943   5.771  13.805
32829W        W94360   0.846   5.777   4.646
32830W        W94361  39.990   0.416   1.386
32831W        W94362  24.089  15.598  12.365
32832W        W94363  12.617   7.746   1.449
32833W        W94364  44.413   1.869  12.075
32834W        W94365  30.072  16.106   3.284
32835W        W94366  10.331  23.184  14.996
32836W        W94367   1.347  30.487  11.554
32837W        W94368  10.372  22.080   4.267
32838W        W94369  20.243  12.130   0.299
32839W        W94370  34.996  33.473   2.328
32840W        W94371  36.077   8.820  10.606
32841W        W94372   8.245  13.293   2.265
32842W        W94373  39.914  30.457  12.390
32843W        W94374  28.102  24.160  12.567
32844W        W94375  42.936  10.292   4.334
32845W        W94376  13.770  10.354   3.339
32846W        W94377  33.912   7.821   1.830
32847W        W94378  18.289  23.997   1.911
32848W        W94379  38.044  41.012  12.957
32849W        W94380   6.858  18.271   0.789
32850W        W94381  25.515  27.039   4.127
32851W        W94382  26.561  24.652  14.433
32852W        W94383  30.163   5.250   2.671
32853W        W94384  22.020   1.775   0.946
32854W        W94385   6.248  28.124   4.629
32855W        W94386  12.613  39.825   1.892
32856W        W94387  40.372  30.997   1.385
32857W        W94388  18.631  38.559   2.884
32858W        W94389   0.751  41.919   2.249
32859W        W94390  40.013  16.639  12.468
32860W        W94391  11.159  41.801   2.705
32861W        W94392  33.080   7.336  12.010
32862W        W94393  17.124   2.247  14.473
32863W        W94394  16.085  18.180  14.382
32864W        W94395  35.096  29.987   2.343
32865W        W94396  21.034  42.428   1.866
32866W        W94397  40.487   0.308  11.578
32867W        W94398   7.181  38.835   1.831
32868W        W94399  19.069  21.541   3.815
32869W        W94400  29.957  35.446  12.387
32870W        W94401  27.027  25.586  10.603
32871W        W94402  10.707  40.975  12.564
32872W        W94403   5.361  33.095  12.025
32873W        W94404  14.756  19.068  10.526
32874W        W94405  12.745  11.257  12.027
32875W        W94406  26.201  41.454  13.353
32876W        W94407  24.618   6.717   2.783
32877W        W94408  42.800  21.699   5.298
32878W        W94409  24.983  32.993   3.177
32879W        W94410   0.957  32.065  13.890
32880W        W94411  27.514  28.980  12.924
32881W        W94412  19.578  18.146   3.795
32882W        W94413  37.354  30.593  11.562
32883W        W94414   4.307   3.325  13.848
32884W        W94415   9.256  19.045  10.899
32885W        W94416   7.262  38.012  12.065
32886W        W94417  31.546  32.126   3.341
32887W        W94418  34.382  39.363   2.265
32888W        W94419  23.533   6.853  14.478
32889W        W94420  36.491  23.043   0.342
32890W        W94421  26.522   0.441  14.441
32891W        W94422  31.079  30.413  13.437
32892W        W94423  40.441   4.225   1.723
32893W        W94424  24.549   2.460   1.315
32894W        W94425  21.184  25.610  14.415
32895W        W94426   8.377  40.334  12.557
32896W        W94427  22.501  13.173   3.306
32897W        W94428  35.523  12.158   1.396
32898W        W94429  22.061   2.396   1.352
32899W        W94430  36.372  31.914   4.156
32900W        W94431   9.375  31.951  11.075
32901W        W94432  17.574  21.108  11.471
32902W        W94433   8.344  26.661   3.834
32903W        W94434   1.293  14.223  12.396
32904W        W94435  24.087  37.578  14.455
32905W        W94436  31.150   1.976   0.282
32906W        W94437  19.066  22.232   0.744
32907W        W94438   0.425   5.811   3.272
32908W        W94439  26.118  41.309   2.366
32909W        W94440  34.954  13.333  10.607
32910W        W94441  41.327  10.686  10.465
32911W        W94442   6.281  24.992  11.086
32912W        W94443  10.642   6.876   4.279
32913W        W94444  23.119  30.130  13.463
32914W        W94445  27.023  31.108   4.295
32915W        W94446  27.569  17.772  12.036
32916W        W94447  11.770  25.501   2.222
32917W        W94448  25.997  27.117   0.366
32918W        W94449  23.533  13.728   2.349
32919W        W94450  17.625   3.756  12.910
32920W        W94451  12.173  27.607   0.823
32921W        W94452   6.228  33.006   9.979
32922W        W94453   6.749  24.202  14.927
32923W        W94454  42.883  44.459  12.068
32924W        W94455   3.880  20.678  12.440
32925W        W94456  16.252  43.823  10.467
32926W        W94457  44.445  34.986  13.967
32927W        W94458  44.863   0.394  12.852
32928W        W94459  28.602  39.359  13.862
32929W        W94460  11.721   7.857  12.951
32930W        W94461   0.878   8.194   4.248
32931W        W94462   7.241   4.248   1.715
32932W        W94463  16.272   6.425   4.333
32933W        W94464   4.758   6.243   3.802
32934W        W94465   2.835   5.235  10.618
32935W        W94466  42.806  36.427  12.393
32936W        W94467  35.395  15.807  11.890
32937W        W94468  21.683  39.479  12.496
32938W        W94469   0.330  22.050   0.260
32939W        W94470  29.030  22.085  13.396
32940W        W94471  40.015  12.626  11.609
32941W        W94472   9.323  14.161  14.953
32942W        W94473   0.832  11.333   0.461
32943W        W94474  31.467  17.140  14.869
32944W        W94475  16.588  30.520  14.279
32945W        W94476  35.404  31.579   2.348
32946W        W94477  29.145  33.446  12.551
32947W        W94478  42.413  22.657  10.440
32948W        W94479  42.438  10.253  12.473
32949W        W94480  21.198  28.508  12.459
32950W        W94481  10.823  32.614  10.616
32951W        W94482  43.921  20.609   3.800
32952W        W94483  14.792   7.323   4.617
32953W        W94484  13.318  22.146   1.346
32954W        W94485  40.486  25.586  13.367
32955W        W94486  14.651  36.377   1.235
32956W        W94487  33.937  16.779  11.562
32957W        W94488  29.607  36.367  10.529
32958W        W94489  44.799  27.090   1.726
32959W        W94490  20.144  33.119  10.449
32960W        W94491  40.871  32.393   3.744
32961W        W94492  33.587   9.319  11.394
32962W        W94493   4.206   9.704   4.292
32963W        W94494  24.554  22.696  10.611
32964W        W94495  35.479  39.030  14.793
32965W        W94496   1.739  34.024  13.877
32966W        W94497  30.075  36.986   3.218
32967W        W94498   4.320  20.164  13.031
32968W        W94499  28.444  31.499  11.501
32969W        W94500  44.335  17.149  13.505
32970W        W94501  40.011   7.818   3.220
32971W        W94502   1.348  22.029  13.833
32972W        W94503  12.622  44.362   2.785
32973W        W94504  21.157  34.043   1.328
32974W        W94505  10.852  26.141  12.985
32975W        W94506  27.124   9.678  11.403
32976W        W94507  23.092  39.935   4.704
32977W        W94508  30.421  27.112  11.486
32978W        W94509   3.265  37.962  12.989
32979W        W94510  32.991   9.307  11.608
32980W        W94511  38.349   2.454   1.422
32981W        W94512  14.682  20.037  14.368
32982W        W94513  13.247  15.181  13.944
32983W        W94514  27.945  44.303  10.434
32984W        W94515  34.499   8.772  14.846
32985W        W94516  13.212   3.305  10.078
32986W        W94517   9.371  18.740   0.438
32987W        W94518   7.874   0.846  13.907
32988W        W94519  31.525  34.436   2.368
32989W        W94520  41.962  34.097  12.828
32990W        W94521   1.287  20.740   2.775
32991W        W94522  30.047   4.216  13.423
32992W        W94523   6.773  36.514   0.344
32993W        W94524  16.312  30.569   4.632
32994W        W94525  22.033  33.897   4.317
32995W        W94526  28.547  43.499  12.043
32996W        W94527  35.559  37.980  12.966
32997W        W94528  28.633  44.365   2.240
32998W        W94529  26.186  11.628  11.116
32999W        W94530  44.412  44.780  14.843
33000W        W94531  15.264   7.745  12.462
33001W        W94532  13.834  18.236  13.009
33002W        W94533  42.354  28.458   2.847
33003W        W94534  10.766  29.167  10.611
33004W        W94535   8.309  25.584  14.442
33005W        W94536  10.692  19.187  13.501
33006W        W94537   5.728  24.571  12.358
33007W        W94538  36.377  44.333  11.877
33008W        W94539  14.228  28.641   4.702
33009W        W94540  32.960   9.855  11.441
33010W        W94541   9.288   1.840  13.334
33011W        W94542  33.928  40.545   2.284
33012W        W94543  37.878  22.076  12.371
33013W        W94544  40.391   6.208   5.290
33014W        W94545  13.183   8.782  11.919
33015W        W94546   6.756  10.345   4.784
33016W        W94547  39.018  15.143   1.333
33017W        W94548  29.968   3.834   0.249
33018W        W94549  14.195   0.807   3.757
33019W        W94550  28.525  39.526   1.710
33020W        W94551  44.979  43.819   3.831
33021W        W94552  29.516  20.553   2.218
33022W        W94553  10.230   7.835   3.700
33023W        W94554  35.588   9.303   3.380
33024W        W94555  28.062  28.643  11.468
33025W        W94556  19.763  38.933   0.838
33026W        W94557  17.643   8.395  13.006
33027W        W94558   3.799  34.574   3.290
33028W        W94559  34.381  22.230  10.456
33029W        W94560  30.954  25.167   3.822
33030W        W94561  37.082  36.928   4.327
33031W        W94562   2.886   3.288  10.456
33032W        W94563  13.726  19.729   3.764
33033W        W94564  17.183   0.940  13.416
33034W        W94565  42.463  36.556   3.303
33035W        W94566  40.418  10.334   9.999
33036W        W94567   1.479  16.811  14.444
33037W        W94568  29.049  33.485   4.750
33038W        W94569  44.499  11.234  14.865
33039W        W94570   5.229  32.416   3.275
33040W        W94571  43.901   2.868   3.374
33041W        W94572   5.853  43.371  13.801
33042W        W94573  34.538   9.830   9.928
33043W        W94574   9.709  26.029   3.191
33044W        W94575  27.103   3.243  14.429
33045W        W94576  43.412  17.142  14.499
33046W        W94577  22.719  32.549   3.209
33047W        W94578  29.131  21.584   4.666
33048W        W94579  44.397  18.760  14.464
33049W        W94580  27.543  21.217  10.552
33050W        W94581  22.098  35.917  12.096
33051W        W94582  12.799  20.042   1.392
33052W        W94583   7.687  18.051   0.292
33053W        W94584  25.552   7.405  10.081
33054W        W94585  37.505   3.427   0.456
33055W        W94586  44.311  24.177   4.728
33056W        W94587   6.275  17.663  12.091
33057W        W94588  37.080  41.451   4.695
33058W        W94589  14.177   0.285  12.013
33059W        W94590  20.182  26.487   2.349
33060W        W94591  23.149  32.956   3.320
33061W        W94592  11.797  19.280   1.342
33062W        W94593  26.156  20.530  14.396
33063W        W94594  34.888  41.951   0.451
33064W        W94595  12.191  34.989  14.473
33065W        W94596  11.138  25.557  12.924
33066W        W94597   2.955   0.315   4.123
33067W        W94598  44.004  44.830   2.263
33068W        W94599   7.313  25.176  12.904
33069W        W94600  39.827  17.691   3.639
33070W        W94601  18.550  17.780   4.711
33071W        W94602  20.112  28.483   4.781
33072W        W94603  24.151   8.259  14.773
33073W        W94604  32.499  34.443   4.752
33074W        W94605  20.112  43.475  12.829
33075W        W94606   9.220  43.004  12.454
33076W        W94607  26.157  44.262   2.900
33077W        W94608   6.260  41.015   0.815
33078W        W94609   0.798  42.790  13.806
33079W        W94610  29.124  42.918   2.859
33080W        W94611  20.562  14.143   3.381
33081W        W94612  22.151  40.391   2.758
33082W        W94613  11.232  35.405   4.750
33083W        W94614  32.043  21.241  11.451
33084W        W94615  39.837  25.501   4.831
33085W        W94616   5.714  33.586   2.865
33086W        W94617  11.655  37.888   3.306
33087W        W94618   8.703  24.634   0.816
33088W        W94619   4.276  30.612  13.392
33089W        W94620  32.628  23.037  10.964
33090W        W94621  40.400  21.138  13.865
33091W        W94622  22.637  24.667   0.329
33092W        W94623  22.523  24.611  13.528
33093W        W94624   0.337   8.833   1.274
33094W        W94625  21.212   9.150  11.491
33095W        W94626   1.360  26.688  13.866
33096W        W94627  32.004  18.230  11.006
33097W        W94628  42.790  40.303   4.163
33098W        W94629   4.321   4.439  11.542
33099W        W94630  24.214  28.983   5.570
33100W        W94631   8.225  17.153   4.802
33101W        W94632  12.351  29.166  14.319
33102W        W94633  26.117   7.666  10.446
33103W        W94634   4.816  22.643   2.789
33104W        W94635  34.445  31.026   0.431
33105W        W94636  33.489  14.662   2.314
33106W        W94637  25.181  17.704   2.357
33107W        W94638   7.903   2.907  12.896
33108W        W94639   8.677  39.934  11.946
33109W        W94640  34.005  44.422  13.877
33110W        W94641  43.858  34.490  13.935
33111W        W94642  19.694  38.904  12.012
33112W        W94643  15.140  43.436   3.779
33113W        W94644  28.678  24.116  11.428
33114W        W94645  26.462  17.678  14.449
33115W        W94646  12.812  43.338  12.824
33116W        W94647  12.761  44.967  12.525
33117W        W94648  15.577  29.100   4.274
33118W        W94649   8.699  10.866   1.903
33119W        W94650   4.775  34.023  13.810
33120W        W94651  29.606  15.155   1.847
33121W        W94652  31.102  32.565   1.775
33122W        W94653  26.956  36.459   1.428
33123W        W94654  29.948   2.927   2.229
33124W        W94655  39.027  12.158   9.986
33125W        W94656  19.195  27.526  12.035
33126W        W94657   5.266  12.611  14.345
33127W        W94658  33.619  29.124  14.901
33128W        W94659  20.664  14.278   2.328
33129W        W94660   4.353  42.796   3.639
33130W        W94661  43.291   5.780   2.203
33131W        W94662  30.614  36.440   0.471
33132W        W94663  44.953   4.847  12.557
33133W        W94664  34.515  19.199   3.807
33134W        W94665  23.660  36.075   4.686
33135W        W94666  14.793   3.888   0.412
33136W        W94667  33.095  36.017   2.363
33137W        W94668  30.936   8.388   1.708
33138W        W94669   3.407  22.070  14.935
33139W        W94670  14.135   7.729   5.085
33140W        W94671  11.133  36.445   3.764
33141W        W94672  23.060  33.998   4.644
33142W        W94673  28.123  12.835  13.477
33143W        W94674  44.323  29.656   2.228
33144W        W94675  20.146  31.969  13.007
33145W        W94676  34.381  37.083   1.869
33146W        W94677  30.499  23.536   0.742
33147W        W94678  34.091   0.482   1.314
33148W        W94679  37.532  32.019  12.401
33149W        W94680  28.135  23.633   1.290
33150W        W94681  14.195  42.322  14.878
33151W        W94682  37.057   0.390  14.920
33152W        W94683   5.318  22.587   2.350
33153W        W94684  30.520  25.967   4.672
33154W        W94685  17.279  41.930   3.759
33155W        W94686  43.460  38.877  14.874
33156W        W94687  27.687  30.997   1.842
33157W        W94688  18.163  44.854   4.627
33158W        W94689  16.180  40.003  10.977
33159W        W94690  35.110  10.863  13.440
33160W        W94691  16.608  37.532   3.771
33161W        W94692  21.022  19.681  11.873
33162W        W94693  26.125  44.789  11.991
33163W        W94694  38.558  42.392  13.914
33164W        W94695  11.193  22.747   1.384
33165W        W94696   5.879  28.492   2.834
33166W        W94697  24.100  38.957   0.766
33167W        W94698  32.049  28.098   5.279
33168W        W94699  11.727  11.621   2.896
33169W        W94700  21.038  20.226   3.739
33170W        W94701   8.814  21.103  14.867
33171W        W94702   0.766  24.076   3.686
33172W        W94703  16.578  23.555  13.480
33173W        W94704  26.123  43.935   2.780
33174W        W94705  23.068  26.016   0.862
33175W        W94706  29.648  18.146   4.272
33176W        W94707  25.185  11.839   2.247
33177W        W94708   9.305   4.221  14.472
33178W        W94709  18.075  35.978   3.686
33179W        W94710   8.731  28.549   4.309
33180W        W94711  14.627  16.133   0.394
33181W        W94712  33.557  10.715  13.391
33182W        W94713  24.151  41.909   0.763
33183W        W94714   5.761  41.846  14.885
33184W        W94715   0.446  10.758  14.873
33185W        W94716  16.091  28.632   1.450
33186W        W94717  35.867  11.202  14.480
33187W        W94718  40.371  37.488   2.312
33188W        W94719  35.013   5.310   2.695
33189W        W94720  31.638  43.790   3.322
33190W        W94721  22.501  31.634  11.576
33191W        W94722  24.120  24.054   0.243
33192W        W94723  39.347  21.746  14.995
33193W        W94724   5.706  37.026  14.473
33194W        W94725   0.483  44.411   4.736
33195W        W94726  19.120  40.386   4.186
33196W        W94727  41.789  29.129  14.804
33197W        W94728  33.418  19.654  10.040
33198W        W94729  25.677  10.692   0.455
33199W        W94730  44.825   8.771  10.148
33200W        W94731   2.340  33.898   3.794
33201W        W94732  41.506  25.176  13.449
33202W        W94733  28.035   7.891  14.410
33203W        W94734  10.380  40.318   3.839
33204W        W94735  23.020  13.674  14.875
33205W        W94736  36.436   6.774   2.729
33206W        W94737  24.689  41.357   4.189
33207W        W94738   9.884  32.580   0.751
33208W        W94739  44.919   5.280   2.178
33209W        W94740  43.323  29.156  14.353
33210W        W94741  23.997   2.301  12.932
33211W        W94742  33.406  36.406  14.780
33212W        W94743   0.838   3.294   2.733
33213W        W94744  30.588  34.018   0.448
33214W        W94745   8.825  25.506   2.819
33215W        W94746  28.167   6.366  14.424
33216W        W94747  19.065  20.763  11.123
33217W        W94748  16.769   5.850   1.349
33218W        W94749  18.232  12.675   2.191
33219W        W94750   2.734   9.734  13.312
33220W        W94751  41.940  27.041   0.463
33221W        W94752  43.318  24.982  11.002
33222W        W94753   7.691  12.679   1.429
33223W        W94754   1.870   5.737   3.230
33224W        W94755  15.213  11.821   0.849
33225W        W94756   8.253  13.312  11.379
33226W        W94757  22.114  19.554  13.394
33227W        W94758   5.276  11.754  11.542
33228W        W94759  32.464  38.017  10.904
33229W        W94760  35.466  42.326  11.002
33230W        W94761  39.427  39.347  11.053
33231W        W94762  32.982  15.802  14.759
33232W        W94763   5.911  38.405  12.823
33233W        W94764  42.514  28.632  13.464
33234W        W94765  42.338  22.155   2.717
33235W        W94766  27.150  36.399  10.471
33236W        W94767  27.113  11.792  14.478
33237W        W94768   2.727   6.248  12.035
33238W        W94769  12.786  27.060  13.012
33239W        W94770   1.273  21.197   5.283
33240W        W94771   6.847   4.890   0.246
33241W        W94772  18.283  40.357  11.014
33242W        W94773  21.172  37.353  14.275
33243W        W94774  34.910   2.905   2.294
33244W        W94775  38.060  42.327   1.443
33245W        W94776  43.967  36.516  11.104
33246W        W94777  44.410  42.873  11.465
33247W        W94778  40.429   5.899  13.412
33248W        W94779  17.643  15.265  14.028
33249W        W94780  21.037   7.907   2.302
33250W        W94781  28.542   3.806   3.340
33251W        W94782   5.918  21.135   3.709
33252W        W94783  28.670  10.664  12.513
33253W        W94784  18.272  24.092  14.311
33254W        W94785  23.033   5.370  13.385
33255W        W94786   3.717  29.548  12.445
33256W        W94787   1.247  18.152  14.841
33257W        W94788  34.082   6.261  10.598
33258W        W94789  44.989  31.913   3.146
33259W        W94790  26.064  26.702  12.369
33260W        W94791  22.164  29.647   4.236
33261W        W94792  18.147  36.992   1.934
33262W        W94793  40.894  35.945  12.090
33263W        W94794  19.741   9.294  11.514
33264W        W94795  20.206  22.035   5.744
33265W        W94796  31.585  30.017  11.868
33266W        W94797  44.456   6.892   2.842
33267W        W94798  34.606   7.171   1.379
33268W        W94799  32.978   9.254   1.851
33269W        W94800  19.752   3.406   1.308
33270W        W94801  40.535  28.663   0.352
33271W        W94802  37.895   1.887  12.427
33272W        W94803  42.927  29.069   1.819
33273W        W94804  15.148   4.764  11.905
33274W        W94805   4.787  41.445  10.086
33275W        W94806  28.452  15.744  12.897
33276W        W94807  18.596  23.045   4.626
33277W        W94808  30.493  29.499  14.317
33278W        W94809  28.656  11.858   4.283
33279W        W94810  27.972  43.948   4.649
33280W        W94811  12.673   1.250  13.340
33281W        W94812  27.169   6.218  13.373
33282W        W94813  22.234   5.767  12.394
33283W        W94814  42.310  13.658  12.351
33284W        W94815  17.110  39.334   1.859
33285W        W94816  12.162   2.917   1.816
33286W        W94817  37.959   9.884  13.463
33287W        W94818  23.555  35.419  13.315
33288W        W94819  19.667  22.642  14.981
33289W        W94820  12.297  43.359   2.813
33290W        W94821  36.535  28.582   4.769
33291W        W94822  22.074  11.265  11.569
33292W        W94823  32.546  12.132  13.901
33293W        W94824  35.449  38.421   1.807
33294W        W94825  14.709  37.086   4.825
33295W        W94826  41.847  30.075  10.985
33296W        W94827  11.257  42.930   3.808
33297W        W94828  32.480   4.859   1.268
33298W        W94829  18.257  15.116   1.317
33299W        W94830  19.108  11.160   1.278
33300W        W94831  43.936  31.514   4.789
33301W        W94832  28.054  29.948   3.688
33302W        W94833  28.059  14.142  12.444
33303W        W94834  25.163  22.061   0.929
33304W        W94835  10.833  21.132  13.010
33305W        W94836  30.108   6.331   4.335
33306W        W94837   7.415  35.404   3.705
33307W        W94838  31.507  38.396  14.795
33308W        W94839  32.508   5.230  12.481
33309W        W94840  42.356  39.558  12.962
33310W        W94841  14.761   0.985  11.404
33311W        W94842  27.094  25.173  11.402
33312W        W94843  22.197  26.551   4.191
33313W        W94844  19.118  32.622   0.831
33314W        W94845  35.894  42.924  10.910
33315W        W94846  25.528   3.285   2.183
33316W        W94847  42.813  27.449   4.164
33317W        W94848  23.111  36.442  12.386
33318W        W94849   0.826  22.121   4.159
33319W        W94850  21.247   7.779  10.627
33320W        W94851  39.534  18.182   2.391
33321W        W94852   3.802   1.425  12.903
33322W        W94853  12.732   3.812   1.266
33323W        W94854   3.371  38.915  10.990
33324W        W94855  11.197  24.720  11.059
33325W        W94856  32.044  31.959   3.672
33326W        W94857  16.222  43.013  11.011
33327W        W94858  43.830   1.345  11.033
33328W        W94859  37.441  32.005   5.115
33329W        W94860   8.756  25.181   1.752
33330W        W94861  19.103  39.540  12.929
33331W        W94862  29.991  40.981   4.337
33332W        W94863   8.804  26.070  11.376
33333W        W94864  42.839  42.489   4.775
33334W        W94865  19.097  14.711  11.480
33335W        W94866  12.293   2.745   4.297
33336W        W94867  25.039  14.694   0.744
33337W        W94868  28.461   4.376   4.794
33338W        W94869  18.623  29.018  14.293
33339W        W94870  18.774  18.765  10.905
33340W        W94871  15.788  37.429   1.853
33341W        W94872  11.820   3.251  13.392
33342W        W94873  21.195  21.515  12.928
33343W        W94874  26.997  15.218   0.337
33344W        W94875  26.657  37.904  13.050
33345W        W94876  35.954   2.800  14.340
33346W        W94877  37.838  42.782   2.198
33347W        W94878   5.339  34.934   4.782
33348W        W94879  26.192  29.026   1.803
33349W        W94880   0.368  29.965  12.426
33350W        W94881  40.337  27.691  13.998
33351W        W94882  10.766  20.249   3.153
33352W        W94883  23.492  21.160  11.608
33353W        W94884   6.205   2.959   0.847
33354W        W94885   1.259  12.131   3.300
33355W        W94886  44.275  31.137  13.062
33356W        W94887  38.331   2.344  10.989
33357W        W94888   4.788  14.267  13.465
33358W        W94889   5.346  16.651  10.519
33359W        W94890  10.215  30.059  13.481
33360W        W94891  39.391  34.888   2.774
33361W        W94892  43.943  19.703   2.215
33362W        W94893  36.072   5.753   4.792
33363W        W94894  20.670  31.036   3.650
33364W        W94895  20.542  29.929   1.927
33365W        W94896  16.226  32.475   3.712
33366W        W94897   9.250  10.859  12.453
33367W        W94898   9.845  30.557   3.150
33368W        W94899  35.577  19.599   1.873
33369W        W94900  10.737  17.180  10.425
33370W        W94901  23.104  31.466   3.163
33371W        W94902  42.437   6.281   0.736
33372W        W94903  30.075  40.319  11.986
33373W        W94904  40.424   0.384  13.969
33374W        W94905  18.716   1.918  14.010
33375W        W94906  11.646  40.968  13.518
33376W        W94907  36.894   0.954   2.816
33377W        W94908  33.450   7.806  10.469
33378W        W94909  21.699  35.508  10.617
33379W        W94910  30.916  25.086   0.902
33380W        W94911  42.419  40.827   1.418
33381W        W94912  17.212  42.505  12.537
33382W        W94913   0.298  17.122   3.816
33383W        W94914   3.906  16.181  12.398
33384W        W94915  22.249  35.378  11.902
33385W        W94916  19.229   2.467  13.534
33386W        W94917   6.301   9.310  11.457
33387W        W94918   2.841  37.927  14.850
33388W        W94919  26.618  29.947   2.383
33389W        W94920  11.691  19.156   3.379
33390W        W94921   8.770  38.925   3.154
33391W        W94922   5.820   4.942  13.490
33392W        W94923   5.863  16.309  11.073
33393W        W94924  15.742  39.902   3.337
33394W        W94925   0.852  17.124   2.378
33395W        W94926   8.823  33.998   4.600
33396W        W94927  29.017   3.332   0.750
33397W        W94928   6.751  44.834   1.254
33398W        W94929  43.805  26.611  12.392
33399W        W94930  37.494   7.306   1.333
33400W        W94931  44.264  13.296   1.799
33401W        W94932   4.898  25.522   0.401
33402W        W94933  29.083  19.613   0.275
33403W        W94934  21.079  36.386  10.544
33404W        W94935  29.511   1.393   3.226
33405W        W94936  31.018   5.695  11.075
33406W        W94937  23.091  12.758  10.909
33407W        W94938  40.315   8.274   4.185
33408W        W94939  37.556   9.374  14.835
33409W        W94940  31.920   2.948  13.967
33410W        W94941  16.287  13.212  10.479
33411W        W94942  26.120   5.787  13.328
33412W        W94943  35.487  40.903   1.399
33413W        W94944  44.409  40.389   2.205
33414W        W94945  12.149  38.406   3.313
33415W        W94946   1.734  37.891   2.678
33416W        W94947  17.717  25.507   2.784
33417W        W94948  34.006  31.925   4.132
33418W        W94949  13.181   8.346   4.345
33419W        W94950  13.614  44.373  10.921
33420W        W94951  38.875   0.330  14.376
33421W        W94952  22.520  11.326   0.929
33422W        W94953   2.337  25.551   5.156
33423W        W94954  39.930  40.423  13.311
33424W        W94955   7.343  22.589   2.192
33425W        W94956  40.374  17.096  14.873
33426W        W94957  20.636  14.631   3.856
33427W        W94958  34.949  31.483   0.742
33428W        W94959  30.495   8.658   1.337
33429W        W94960  28.575  32.909   3.772
33430W        W94961  14.268   1.735   1.723
33431W        W94962  43.500  36.424   3.244
33432W        W94963  24.140  28.107  10.482
33433W        W94964  41.855  38.430  12.982
33434W        W94965  35.080  15.757   4.281
33435W        W94966  10.664  24.707   3.671
33436W        W94967  30.472  17.141  11.414
33437W        W94968  33.060  29.933   0.316
33438W        W94969   7.287  31.941  10.639
33439W        W94970  41.012  20.054   3.824
33440W        W94971   2.905  41.036   4.337
33441W        W94972   2.334  16.090  11.946
33442W        W94973  35.361  12.321   3.153
33443W        W94974   5.375  11.239   0.376
33444W        W94975  37.478  18.561   1.811
33445W        W94976   8.358  28.495  14.854
33446W        W94977  22.178  35.903   4.270
33447W        W94978  41.975  30.059   4.215
33448W        W94979  14.107  41.845  13.369
33449W        W94980   5.402  19.109  13.998
33450W        W94981  40.440  32.554   3.157
33451W        W94982  15.695  19.158   1.753
33452W        W94983   6.307  22.200   3.256
33453W        W94984   1.911  20.057  13.999
33454W        W94985  41.459  43.464   4.652
33455W        W94986  12.213   6.187   0.371
33456W        W94987  39.876  21.162   4.608
33457W        W94988  18.680  33.499  11.954
33458W        W94989  29.170  41.395   2.372
33459W        W94990   9.265  42.519  12.038
33460W        W94991  31.445  33.415   3.741
33461W        W94992  13.744  33.899   9.991
33462W        W94993  19.705  36.587  14.928
33463W        W94994  44.428  15.819   0.346
33464W        W94995  28.595  35.548   0.344
33465W        W94996  32.617   3.256  10.527
33466W        W94997   9.815  37.486   2.790
33467W        W94998  41.988  10.379  11.964
33468W        W94999  37.447  23.118  14.807
33469W        W95000  11.683   4.284  11.856
33470W        W95001   4.235  19.661  10.437
33471W        W95002   0.833  40.947   1.240
33472W        W95003  42.288  41.362   2.304
33473W        W95004  23.166  43.814   0.809
33474W        W95005  12.742  23.692  11.974
33475W        W95006  18.778  19.537   5.105
33476W        W95007  21.536  22.646   2.183
33477W        W95008   8.887   5.294  14.428
33478W        W95009  18.143  22.557  12.018
33479W        W95010   3.278  37.914  11.433
33480W        W95011   9.649  43.941  12.965
33481W        W95012  27.956  13.258   4.175
33482W        W95013   4.892  11.640   2.855
33483W        W95014  41.012   2.386   2.795
33484W        W95015   6.876  37.482  13.495
33485W        W95016  24.495   4.836   2.235
33486W        W95017  12.760  12.289  10.437
33487W        W95018  33.924   4.925  12.862
33488W        W95019  25.619  21.057   3.268
33489W        W95020  10.678  44.263   0.461
33490W        W95021  26.631  41.979   0.418
33491W        W95022   1.843   6.399  12.359
33492W        W95023  27.470  22.716   4.195
33493W        W95024   4.794  40.911  13.058
33494W        W95025  33.070  17.183  14.338
33495W        W95026  32.969  40.499   4.173
33496W        W95027   3.778  39.553  11.431
33497W        W95028  20.258   0.887   5.144
33498W        W95029  37.408  35.370  14.378
33499W        W95030  22.995  40.502  11.970
33500W        W95031  15.649  11.854   2.197
33501W        W95032   1.786  13.283   0.836
33502W        W95033  22.095  15.755   0.260
33503W        W95034  33.397   5.818   4.314
33504W        W95035  29.167  37.026   2.890
33505W        W95036  27.020  22.197   3.688
33506W        W95037  17.304  35.519  13.968
33507W        W95038  42.508  29.622   1.222
33508W        W95039  15.610  16.621  14.311
33509W        W95040  17.079  43.928   3.657
33510W        W95041   3.232  37.837   3.638
33511W        W95042   7.385   3.334  10.969
33512W        W95043  22.250  42.886   3.856
33513W        W95044  30.446  11.669  14.808
33514W        W95045   1.278  41.910   3.364
33515W        W95046   9.226  16.159   1.368
33516W        W95047   4.270  16.709  10.583
33517W        W95048  21.742  34.412   0.816
33518W        W95049  13.792  33.555   2.750
33519W        W95050  40.439  32.504   3.796
33520W        W95051   0.816   0.420  12.852
33521W        W95052  29.139  44.315  13.952
33522W        W95053  33.945   3.941   4.598
33523W        W95054  38.051  13.221   3.709
33524W        W95055   6.871  10.739  10.925
33525W        W95056  38.012  23.237   4.233
33526W        W95057   6.201   1.740  11.085
33527W        W95058  18.754   7.413   5.195
33528W        W95059  19.114   9.845   4.826
33529W        W95060  39.339  14.634  14.274
33530W        W95061  42.874  43.930   4.234
33531W        W95062  20.550  26.532  13.396
33532W        W95063  13.673  24.082  12.442
33533W        W95064   1.917  15.271  10.558
33534W        W95065  26.536  23.043  12.953
33535W        W95066  24.516  34.448   3.292
33536W        W95067  43.767  37.338  11.466
33537W        W95068  18.173  30.648  12.482
33538W        W95069  40.903  33.039   2.397
33539W        W95070  39.977   4.413   0.835
33540W        W95071  30.538  16.598   4.601
33541W        W95072   6.266   7.773   3.813
33542W        W95073   0.817   5.306   3.757
33543W        W95074  28.481  39.322   0.327
33544W        W95075  44.408   6.193   3.725
33545W        W95076  40.392   8.248   3.377
33546W        W95077  40.409  14.666   4.695
33547W        W95078   0.262  16.085   2.181
33548W        W95079  35.405  17.065  14.374
33549W        W95080  12.188  37.980  12.955
33550W        W95081  40.432  19.154  10.931
33551W        W95082  13.763  36.000  14.891
33552W        W95083   9.378  38.408   1.869
33553W        W95084  32.111  33.079   3.196
33554W        W95085  44.319  37.836  12.402
33555W        W95086   6.417  32.574   4.211
33556W        W95087  43.835  41.340   1.392
33557W        W95088  16.148   6.891  14.996
33558W        W95089  36.554   3.439  11.577
33559W        W95090  21.718  14.107  14.862
33560W        W95091  12.137  43.377  12.020
33561W        W95092   1.312  14.138   0.774
33562W        W95093   0.270  10.828   3.358
33563W        W95094  12.213  19.087   2.221
33564W        W95095  38.417   4.442  14.307
33565W        W95096  20.695  42.444   4.669
33566W        W95097   3.874  41.962   2.691
33567W        W95098  42.348  11.164  12.580
33568W        W95099   5.690  29.022  11.498
33569W        W95100  11.296  23.575  13.501
33570W        W95101  17.188  19.544   5.284
33571W        W95102  44.333  23.232   4.622
33572W        W95103  13.793  37.479   0.918
33573W        W95104   0.273  36.487  10.923
33574W        W95105   7.224   3.454   3.346
33575W        W95106  16.694   3.420  10.425
33576W        W95107  18.118  31.040  11.057
33577W        W95108  43.966   0.369   4.700
33578W        W95109  13.336   7.211   2.678
33579W        W95110  26.184  22.243   1.285
33580W        W95111  20.644  16.154   0.809
33581W        W95112  34.952  34.425  14.861
33582W        W95113  19.254  37.023   9.654
33583W        W95114   7.797   9.280   4.158
33584W        W95115  42.431  23.071   4.600
33585W        W95116  13.715  20.200   3.153
33586W        W95117  22.166  19.733  14.449
33587W        W95118  23.724  34.521   4.820
33588W        W95119   9.728  12.813  13.969
33589W        W95120  23.734  26.462   3.221
33590W        W95121   8.833  11.231   0.455
33591W        W95122  29.976  18.063   4.757
33592W        W95123  42.987  43.399  14.854
33593W        W95124  42.312   2.840   4.776
33594W        W95125  32.450  33.089   3.731
33595W        W95126  14.702  22.542  14.859
33596W        W95127   3.944  23.040   1.726
33597W        W95128  22.529  29.962  12.914
33598W        W95129  40.830  24.187   1.390
33599W        W95130   0.368  11.357  14.807
33600W        W95131  36.555  41.446  12.565
33601W        W95132  24.003  33.536   0.321
33602W        W95133  26.526   4.868   4.237
33603W        W95134  41.944  24.141  10.963
33604W        W95135  16.267  34.488  11.537
33605W        W95136  14.738  36.442  13.405
33606W        W95137  40.543  10.866   3.287
33607W        W95138  21.175  28.033   4.196
33608W        W95139  37.959  29.919  13.452
33609W        W95140  20.076  23.642  14.350
33610W        W95141  16.697  24.145   2.843
33611W        W95142  18.751  38.492  12.982
33612W        W95143  20.260   3.227  13.861
33613W        W95144  44.807  13.717  11.449
33614W        W95145  14.721  19.126  13.995
33615W        W95146  36.474  43.407   0.348
33616W        W95147   9.672   5.759   1.355
33617W        W95148  41.512  27.147   0.446
33618W        W95149  39.875  32.127  10.574
33619W        W95150  33.594   6.855   0.761
33620W        W95151  39.551  32.479   0.942
33621W        W95152  13.704   8.395  11.610
33622W        W95153  12.138  31.082   3.271
33623W        W95154   8.288  24.576   2.868
33624W        W95155  32.599  26.113   3.868
33625W        W95156  26.007  18.681  14.382
33626W        W95157   8.764  28.066  13.464
33627W        W95158  30.110   8.229   0.370
33628W        W95159  41.910  36.398   1.766
33629W        W95160   9.194  27.670  10.624
33630W        W95161  43.471   1.921   1.786
33631W        W95162   3.298  19.078   1.252
33632W        W95163  14.629  27.961   1.814
33633W        W95164   2.842  16.764   1.894
33634W        W95165   0.812  25.100   3.165
33635W        W95166  17.572   3.936  13.381
33636W        W95167  14.608  14.784  14.462
33637W        W95168  32.974   0.761  14.946
33638W        W95169  27.469  20.755   3.254
33639W        W95170   1.950  28.602  13.411
33640W        W95171   0.863   9.729  13.932
33641W        W95172  20.555  38.530   1.220
33642W        W95173  27.941  41.351   1.794
33643W        W95174   7.767  38.863  10.040
33644W        W95175  14.225  15.171   0.439
33645W        W95176   3.388  28.173  10.616
33646W        W95177  35.521  18.078   4.129
33647W        W95178  30.098  11.670   3.178
33648W        W95179  29.018  44.805   0.319
33649W        W95180   2.448   7.833  13.810
33650W        W95181  40.310  13.326   3.330
33651W        W95182  40.502  38.414  12.096
33652W        W95183   4.291  41.804   0.435
33653W        W95184  15.779  35.096  11.409
33654W        W95185   5.293  39.045  12.494
33655W        W95186  17.671  41.538  11.926
33656W        W95187  13.266  12.191   4.648
33657W        W95188  43.444   7.898   1.756
33658W        W95189  25.096   9.846   4.311
33659W        W95190  25.082  31.535   4.838
33660W        W95191  28.076  44.879   1.217
33661W        W95192   2.467  33.905   2.744
33662W        W95193  10.149  41.813  13.824
33663W        W95194  11.178  39.352   0.897
33664W        W95195  40.969  24.042  13.052
33665W        W95196  42.318   8.882   2.230
33666W        W95197  35.046   3.330   4.338
33667W        W95198  28.128  44.990   0.915
33668W        W95199  29.959  27.001   4.746
33669W        W95200  35.450  26.611  10.981
33670W        W95201  21.018  29.430   3.374
33671W        W95202  26.480  20.715   0.844
33672W        W95203  10.207  26.525  10.597
33673W        W95204  26.637  15.673  13.866
33674W        W95205  20.699   1.348   3.367
33675W        W95206  22.630  22.008  12.022
33676W        W95207  17.238  30.150  13.892
33677W        W95208  40.892  38.830  11.474
33678W        W95209  12.259   7.264   0.333
33679W        W95210   8.402  13.707   3.346
33680W        W95211  38.831  42.298  14.952
33681W        W95212  10.785  44.996  12.549
33682W        W95213  20.547  36.566   9.479
33683W        W95214  40.900  13.263  13.471
33684W        W95215   2.244  20.758   2.761
33685W        W95216  20.610  25.005   3.360
33686W        W95217  28.108   6.424   4.632
33687W        W95218  28.143  18.171   0.761
33688W        W95219  39.443  30.024   0.443
33689W        W95220  39.064  28.033   2.234
33690W        W95221  33.962  44.459  11.486
33691W        W95222  18.718  40.426   3.711
33692W        W95223  37.469  27.525  14.828
33693W        W95224   6.199   8.778   1.252
33694W        W95225   8.300  31.065   2.412
33695W        W95226  31.966  27.592  12.465
33696W        W95227  44.961  36.090   1.725
33697W        W95228  34.604   5.437  14.786
33698W        W95229  32.016  34.562  10.586
33699W        W95230  36.042  39.413   5.569
33700W        W95231   6.814   3.355   1.395
33701W        W95232  41.444  21.094  13.959
33702W        W95233  27.009  38.846   3.839
33703W        W95234  34.041  25.674  13.411
33704W        W95235  22.563  26.965   1.885
33705W        W95236  14.112  38.901   0.960
33706W        W95237  19.275  31.554   1.874
33707W        W95238  10.275  40.396   2.704
33708W        W95239  41.956   1.871   3.289
33709W        W95240  39.387  16.121  13.008
33710W        W95241  27.578  18.621   4.689
33711W        W95242   1.932  43.459  14.448
33712W        W95243  33.975  25.148  12.062
33713W        W95244  21.070  19.707  14.357
33714W        W95245  33.495   8.268   3.781
33715W        W95246  21.048   7.902   0.800
33716W        W95247  40.531  36.971   3.850
33717W        W95248   7.304   1.353   3.798
33718W        W95249   3.817  26.512   4.699
33719W        W95250  13.166  36.052   1.389
33720W        W95251  25.164  19.042  13.328
33721W        W95252  10.638  44.814   1.275
33722W        W95253  24.078   8.336  11.947
33723W        W95254  41.791  33.414   2.693
33724W        W95255   6.237  13.124   1.907
33725W        W95256   9.164  39.436   0.836
33726W        W95257  35.982  20.765   1.861
33727W        W95258  25.568  44.959   3.255
33728W        W95259  17.727   9.849   2.879
33729W        W95260  44.951  16.316   2.281
33730W        W95261  16.655  34.432   4.652
33731W        W95262  12.841  19.186  12.398
33732W        W95263  40.916  43.395  11.059
33733W        W95264  19.129  34.404   3.741
33734W        W95265  37.522  13.137   3.360
33735W        W95266  17.069  40.346  12.976
33736W        W95267  24.128   4.401  13.495
33737W        W95268  16.165  30.064  14.840
33738W        W95269  41.977  26.680  10.613
33739W        W95270  43.967  15.168  10.626
33740W        W95271  41.468  34.116   4.709
33741W        W95272   0.397  28.023  14.930
33742W        W95273  43.006  31.416   2.866
33743W        W95274  22.148  16.187   0.835
33744W        W95275   9.742   1.265   2.756
33745W        W95276  36.932  19.664  11.581
33746W        W95277  35.494  30.135  14.948
33747W        W95278  25.518  27.561  11.968
33748W        W95279  28.675  40.851   3.683
33749W        W95280  36.568  39.550   2.681
33750W        W95281  17.265  19.040  10.515
33751W        W95282  26.606   1.866   0.421
33752W        W95283  12.796  14.746  12.000
33753W        W95284  44.779  24.667   2.240
33754W        W95285   4.443  41.037   3.730
33755W        W95286  35.445  31.057  12.063
33756W        W95287   5.401  40.028  11.103
33757W        W95288  23.641   1.257  11.946
33758W        W95289   3.390  29.590  12.886
33759W        W95290  11.665  34.454  14.780
33760W        W95291  27.505  24.705   1.723
33761W        W95292  41.487  12.634   0.317
33762W        W95293  19.669  20.668   3.693
33763W        W95294  19.182   2.244  11.935
33764W        W95295   7.731  17.085  11.957
33765W        W95296  27.640  29.041   0.876
33766W        W95297  11.742  13.835  13.521
33767W        W95298  15.154  17.113  13.057
33768W        W95299  18.166  22.243  12.857
33769W        W95300  19.667  23.647  14.028
33770W        W95301  23.093  10.637   4.184
33771W        W95302  43.859  29.960  12.485
33772W        W95303  42.933   2.907  11.009
33773W        W95304  37.057  11.129  12.849
33774W        W95305  13.177   6.333   0.804
33775W        W95306  20.047   9.707   0.477
33776W        W95307   5.822  16.227  12.443
33777W        W95308  24.203  35.384   4.738
33778W        W95309  25.490   8.708  12.533
33779W        W95310  44.406  41.871  13.881
33780W        W95311  17.789   4.916  13.984
33781W        W95312   9.736  21.698  12.572
33782W        W95313  19.169  11.301  11.499
33783W        W95314  21.538  39.344  12.845
33784W        W95315  16.614  23.642   0.777
33785W        W95316   1.878  33.087  14.930
33786W        W95317  35.896   7.282   2.358
33787W        W95318  42.310  35.993   1.911
33788W        W95319  16.282   1.281   2.195
33789W        W95320  11.700  22.669  11.965
33790W        W95321  35.576   4.372   2.203
33791W        W95322   9.710  31.403   0.454
33792W        W95323  32.924  14.180   5.285
33793W        W95324  43.811   5.350  11.572
33794W        W95325  28.507  35.533  14.773
33795W        W95326  37.459  35.080   1.757
33796W        W95327  15.617   0.941  13.018
33797W        W95328  43.918  30.115  11.015
33798W        W95329  27.565   9.266  13.351
33799W        W95330  10.700  13.232   4.172
33800W        W95331  23.135  36.403   2.854
33801W        W95332  16.717  40.863  12.519
33802W        W95333  21.586  37.457  11.600
33803W        W95334  18.752  15.219  10.412
33804W        W95335  33.027  13.721  13.926
33805W        W95336   9.870  30.457  11.110
33806W        W95337  22.687  31.481  10.902
33807W        W95338   5.313  20.246   3.351
33808W        W95339  35.467  20.606  14.948
33809W        W95340  14.178  28.012  11.580
33810W        W95341   0.875   1.406  13.938
33811W        W95342   0.981  34.502  12.521
33812W        W95343  40.519  27.946   0.427
33813W        W95344  18.745  13.646   4.814
33814W        W95345  24.161  37.894  13.355
33815W        W95346  16.232  43.281  11.118
33816W        W95347   8.343   6.781   2.821
33817W        W95348  13.185   8.812  11.441
33818W        W95349  41.519  34.068  10.527
33819W        W95350  44.004  34.544   2.788
33820W        W95351  32.468  16.695   0.832
33821W        W95352  38.431   8.674   4.279
33822W        W95353  16.723   4.438  14.907
33823W        W95354  35.436  16.642  10.550
33824W        W95355   1.351  34.063   3.165
33825W        W95356  18.135   2.447  12.537
33826W        W95357  43.319  15.732   2.669
33827W        W95358  35.948  21.599   0.852
33828W        W95359  24.611  14.189   3.204
33829W        W95360  28.518  33.501   3.678
33830W        W95361  11.278  35.910  12.872
33831W        W95362  44.754   4.305  11.893
33832W        W95363  31.084  24.491  13.412
33833W        W95364  20.262  39.960  11.398
33834W        W95365   6.266  31.526  14.883
33835W        W95366  36.909   2.298  12.938
33836W        W95367  37.394  38.522   1.787
33837W        W95368  33.475  12.768  12.475
33838W        W95369  38.036  21.052   3.312
33839W        W95370  42.926  40.915  14.485
33840W        W95371  14.635  30.464  11.884
33841W        W95372  15.627  14.685   1.814
33842W        W95373  18.176   8.863   2.193
33843W        W95374   9.164  25.714  10.497
33844W        W95375   3.298  14.173   1.340
33845W        W95376   1.747  29.491  12.956
33846W        W95377  18.148   3.220  10.534
33847W        W95378  28.541  24.077   3.702
33848W        W95379  11.768  14.643   3.338
33849W        W95380  16.177   0.865  10.909
33850W        W95381  18.282  33.429  11.511
33851W        W95382  39.535  30.451   3.704
33852W        W95383  32.907   5.769  13.451
33853W        W95384   4.357  35.528  14.764
33854W        W95385  28.443  10.338  13.937
33855W        W95386   0.868  28.128  14.901
33856W        W95387  40.437  20.767   0.384
33857W        W95388  42.821  13.204   0.776
33858W        W95389  33.387  32.465   4.308
33859W        W95390  20.244   1.819  11.925
33860W        W95391  37.411  39.818   0.849
33861W        W95392  44.339  37.988   0.764
33862W        W95393  17.701  34.465   0.922
33863W        W95394  18.590   4.930   2.676
33864W        W95395   1.302  31.483   4.353
33865W        W95396  42.935  37.400  13.896
33866W        W95397  43.809  41.361   3.641
33867W        W95398  11.179  25.627  14.888
33868W        W95399   0.859  39.063   2.374
33869W        W95400   8.777  16.119   4.172
33870W        W95401  33.127  23.525   0.798
33871W        W95402  40.393  33.066   3.650
33872W        W95403  25.108   1.250  14.418
33873W        W95404  18.777   0.844   1.430
33874W        W95405  28.156  35.003  10.079
33875W        W95406  17.124  34.412   2.248
33876W        W95407  38.495  14.114  13.796
33877W        W95408  33.918  18.679   2.768
33878W        W95409  19.092  27.147   4.735
33879W        W95410   1.355  30.069   3.356
33880W        W95411   9.880  39.361  13.890
33881W        W95412  19.676  26.167   0.893
33882W        W95413   5.751  11.778   2.833
33883W        W95414  27.121   3.774  14.388
33884W        W95415  38.063  13.612   3.256
33885W        W95416  20.154  29.608  11.425
33886W        W95417   9.314   6.235  12.486
33887W        W95418  43.343   8.823   1.755
33888W        W95419  19.593  31.003   4.155
33889W        W95420   7.721   2.425   1.376
33890W        W95421  35.518   8.706   1.281
33891W        W95422  22.732  19.216   2.867
33892W        W95423  11.835  34.551   0.339
33893W        W95424  10.238  36.548   2.276
33894W        W95425  32.415  28.019  13.800
33895W        W95426  29.928  13.630  13.990
33896W        W95427   0.780  19.108   2.776
33897W        W95428   3.403   0.759   5.229
33898W        W95429  15.811  40.824   1.850
33899W        W95430   5.279  20.691  14.425
33900W        W95431   4.397   1.271   3.836
33901W        W95432  19.219  13.109   2.258
33902W        W95433  14.293  25.086  12.364
33903W        W95434  11.259  35.933  11.087
33904W        W95435  38.379  37.468  12.457
33905W        W95436  21.698  42.997  10.027
33906W        W95437  42.794   6.412  13.938
33907W        W95438  25.563  43.327  13.322
33908W        W95439   5.724  13.209  14.000
33909W        W95440  11.286  26.655   3.172
33910W        W95441  33.547  36.403  10.952
33911W        W95442   3.867  36.492  14.280
33912W        W95443  38.891  34.947  11.492
33913W        W95444  25.033   6.369   3.822
33914W        W95445  11.132  39.870  11.417
33915W        W95446  11.178  31.923   5.779
33916W        W95447   2.352   0.966   4.239
33917W        W95448  36.402  19.573   5.185
33918W        W95449   7.214  44.830   3.192
33919W        W95450  34.370   0.791  14.897
33920W        W95451  15.629  10.635  14.293
33921W        W95452   3.353  33.602  12.012
33922W        W95453  26.617  35.035   2.832
33923W        W95454  21.648   1.255  11.556
33924W        W95455  31.459  29.130   2.714
33925W        W95456  42.912   2.276   3.204
33926W        W95457  31.095  43.792  12.492
33927W        W95458   0.447  42.832   4.345
33928W        W95459  39.501  19.717   0.736
33929W        W95460  35.504  18.624   1.909
33930W        W95461  16.737  41.375  11.954
33931W        W95462  19.142  41.413   2.320
33932W        W95463   9.852   4.295   1.411
33933W        W95464  25.640   2.875   1.917
33934W        W95465  27.587  40.862   0.311
33935W        W95466  15.240  30.051   4.726
33936W        W95467   4.359   9.659  11.049
33937W        W95468  24.563  14.750  12.567
33938W        W95469  43.769  41.530   0.960
33939W        W95470  17.173  26.469  13.528
33940W        W95471  18.670  24.535   2.199
33941W        W95472  23.557  26.690  14.930
33942W        W95473  28.076  23.002  10.520
33943W        W95474  43.379  13.743   4.671
33944W        W95475   1.770  42.029  12.947
33945W        W95476  23.997   5.766   2.787
33946W        W95477  16.120  39.827   1.420
33947W        W95478  31.414  20.186   3.354
33948W        W95479  40.394  38.870   3.366
33949W        W95480  25.488  30.462   2.843
33950W        W95481  34.048  35.064  14.280
33951W        W95482  28.993  28.472   3.651
33952W        W95483  32.118  27.018  13.054
33953W        W95484  24.693  11.146  12.390
33954W        W95485  43.991  42.320   3.672
33955W        W95486  30.647  36.365  10.983
33956W        W95487   5.776  36.514  12.572
33957W        W95488  33.010   0.834   1.763
33958W        W95489  17.086  39.330  10.466
33959W        W95490  38.061  32.420  12.955
33960W        W95491  29.004   7.396  14.513
33961W        W95492   4.291  33.528  11.941
33962W        W95493  34.413   9.369   4.723
33963W        W95494   1.959  19.090  10.499
33964W        W95495   0.765  39.447   2.857
33965W        W95496   6.817  25.009   5.276
33966W        W95497   7.355  12.131   3.318
33967W        W95498  16.566  26.481  14.027
33968W        W95499  29.621  32.579   1.703
33969W        W95500   8.357  26.538   2.396
33970W        W95501  10.283  35.880   2.669
33971W        W95502  41.787   1.368   3.822
33972W        W95503  17.094  27.161  13.911
33973W        W95504  21.706  43.464   3.853
33974W        W95505  10.693  36.927   1.307
33975W        W95506  23.580  29.018  11.967
33976W        W95507  12.340  40.813  14.896
33977W        W95508  35.924  41.004  12.009
33978W        W95509  33.568   4.338   2.880
33979W        W95510  43.932   9.261  10.453
33980W        W95511   1.904  20.267  12.910
33981W        W95512   8.767   1.412   0.343
33982W        W95513  38.485  18.199   0.426
33983W        W95514  36.044  36.896   1.439
33984W        W95515  23.044  17.765   0.732
33985W        W95516  29.150   7.801   1.232
33986W        W95517  37.404  25.210   1.404
33987W        W95518  10.198  22.720  12.543
33988W        W95519  39.485  31.097   1.874
33989W        W95520  32.606  28.526  13.990
33990W        W95521   1.341  24.700   2.362
33991W        W95522  12.632  36.895   4.634
33992W        W95523  11.231  38.424   4.175
33993W        W95524  11.723  10.764   4.126
33994W        W95525  15.285  27.065   4.233
33995W        W95526   9.724  44.425  11.492
33996W        W95527  11.673  19.633   1.912
33997W        W95528  41.998   1.333   0.885
33998W        W95529   5.749  23.988   2.379
33999W        W95530  12.668  27.453  10.993
34000W        W95531   2.732   4.412  14.427
34001W        W95532  34.585   5.214  13.332
34002W        W95533  44.263  21.678  14.319
34003W        W95534  42.365  43.918   3.373
34004W        W95535   2.431   4.306  12.887
34005W        W95536   1.338   2.392  13.920
34006W        W95537  10.186  24.112  10.523
34007W        W95538  34.613  40.017  11.926
34008W        W95539  23.599  32.086  11.504
34009W        W95540   3.283   5.862   3.855
34010W        W95541  31.450  30.930   2.402
34011W        W95542   8.730  35.969  14.764
34012W        W95543  41.402  16.235   4.343
34013W        W95544  12.358  20.259   0.372
34014W        W95545  23.195   8.347   2.218
34015W        W95546  19.550  11.194   4.166
34016W        W95547  30.511  32.001   2.697
34017W        W95548   6.766  36.036   4.728
34018W        W95549  26.017  33.551  14.789
34019W        W95550  34.498  25.693  13.538
34020W        W95551   9.745  21.027  10.614
34021W        W95552  12.770  36.016   0.320
34022W        W95553   5.843  23.160  14.816
34023W        W95554   9.309   2.434   1.900
34024W        W95555  37.081   9.165  13.309
34025W        W95556  12.206  20.724   4.120
34026W        W95557  44.473   3.327  13.023
34027W        W95558   6.402  31.602   3.294
34028W        W95559  32.424  22.511   4.815
34029W        W95560  35.510  10.359   1.701
34030W        W95561  15.578   1.951   2.740
34031W        W95562  22.998  12.235   0.758
34032W        W95563  31.618  23.551  12.483
34033W        W95564  25.046   5.804   3.723
34034W        W95565   4.944   8.285  11.432
34035W        W95566  16.568  38.067  12.450
34036W        W95567  39.955   9.780   2.787
34037W        W95568  30.036  28.950   0.934
34038W        W95569  30.450   3.920   4.220
34039W        W95570  26.595  28.963   5.320
34040W        W95571  34.985  40.980   1.227
34041W        W95572  11.693  16.666   2.736
34042W        W95573   7.337  39.889  11.062
34043W        W95574   5.400  20.265  12.055
34044W        W95575   5.234   3.260   0.350
34045W        W95576  15.172  39.046   4.149
34046W        W95577  39.529  30.918  12.068
34047W        W95578   4.298   5.253   3.318
34048W        W95579  28.591   5.700   4.668
34049W        W95580  39.908  26.157   4.203
34050W        W95581  42.806  34.497  12.842
34051W        W95582   2.848   9.340  11.994
34052W        W95583   1.433   3.426  14.963
34053W        W95584   1.286  36.363   4.798
34054W        W95585  21.031  39.515  13.896
34055W        W95586  39.054  20.737  11.994
34056W        W95587  24.122   1.329   0.912
34057W        W95588   7.861  14.310  12.404
34058W        W95589  39.937  23.204  10.644
34059W        W95590   0.925  34.912  12.000
34060W        W95591   7.193  28.127   0.370
34061W        W95592   1.379   3.310   0.825
34062W        W95593  17.120   1.812  13.834
34063W        W95594  25.482  42.884   3.812
34064W        W95595  33.954   9.684  11.073
34065W        W95596   7.328  25.548  13.007
34066W        W95597   7.680  43.299  11.113
34067W        W95598  38.342   6.339  11.951
34068W        W95599  19.602  44.922   3.663
34069W        W95600  18.255  17.188  13.338
34070W        W95601  15.090  11.344   4.344
34071W        W95602   2.405  41.487  14.345
34072W        W95603  33.904  37.528  13.533
34073W        W95604  41.936  23.033  10.473
34074W        W95605   3.454  10.285  12.523
34075W        W95606   1.966  12.733   4.794
34076W        W95607   8.677   4.764  14.370
34077W        W95608   4.931  30.604  14.935
34078W        W95609   3.757  38.909   2.218
34079W        W95610  10.644  13.736  13.487
34080W        W95611  44.962  29.096  14.976
34081W        W95612  39.013  15.762   3.676
34082W        W95613  31.128  28.185  13.372
34083W        W95614   6.753  37.926  14.764
34084W        W95615  13.759   0.298   2.817
34085W        W95616  32.051  19.641  13.449
34086W        W95617  29.110  31.064   1.342
34087W        W95618  39.018  20.047   2.400
34088W        W95619  16.778  15.184  11.610
34089W        W95620  32.473  19.651  14.364
34090W        W95621   6.867   5.863  14.015
34091W        W95622  44.008  16.291   0.749
34092W        W95623  35.462  19.606  14.771
34093W        W95624  24.608  25.500   2.769
34094W        W95625   5.273   5.299  13.009
34095W        W95626  12.779   4.276  11.510
34096W        W95627  35.973  12.293   2.675
34097W        W95628   6.855  36.502  12.475
34098W        W95629   0.371  36.058  11.915
34099W        W95630  44.488  22.746   0.737
34100W        W95631  36.850   8.178  11.916
34101W        W95632  18.561  14.624   1.726
34102W        W95633  21.716  31.948   3.240
34103W        W95634  12.296  31.132   2.862
34104W        W95635   7.362  42.962   3.736
34105W        W95636   8.663  36.019   2.399
34106W        W95637  41.357  20.577  11.448
34107W        W95638   5.768   9.852   1.274
34108W        W95639  15.099  18.652  12.983
34109W        W95640  13.268  18.181   4.250
34110W        W95641  11.789  44.824  13.895
34111W        W95642  35.587   6.682   3.296
34112W        W95643  20.029  38.529  13.355
34113W        W95644  18.766  13.675  12.452
34114W        W95645  12.613  24.497  12.060
34115W        W95646  31.635  18.242   0.344
34116W        W95647  23.555  28.668   2.391
34117W        W95648  30.600  37.374  10.645
34118W        W95649  20.761  10.216  13.422
34119W        W95650  22.727  27.061   4.640
34120W        W95651  13.616  29.921   0.384
34121W        W95652   8.755  20.067   0.843
34122W        W95653   5.214   9.274   3.178
34123W        W95654   5.398  27.549  12.524
34124W        W95655  23.556  43.793  10.533
34125W        W95656  25.119  24.704   2.199
34126W        W95657  36.078  34.511   3.215
34127W        W95658  17.608  29.127  11.435
34128W        W95659  10.291   9.818   4.807
34129W        W95660  14.139  30.109   1.223
34130W        W95661  37.042  30.006   2.261
34131W        W95662   0.315  31.645  13.887
34132W        W95663  24.581   0.477  11.524
34133W        W95664  42.485  36.543   1.284
34134W        W95665  14.206  42.826  13.824
34135W        W95666  13.229  37.472  12.924
34136W        W95667  43.493  29.591  11.076
34137W        W95668   5.402  39.347  12.991
34138W        W95669  37.035  34.979  10.438
34139W        W95670  33.579  37.452  11.404
34140W        W95671  13.334  44.315   3.251
34141W        W95672  34.547  11.773  12.413
34142W        W95673   9.754  14.621  10.936
34143W        W95674  41.347  21.679   0.403
34144W        W95675  23.002  37.008   1.379
34145W        W95676  31.535  18.710  10.521
34146W        W95677  38.356  19.056   1.772
34147W        W95678  38.512  38.974   2.352
34148W        W95679  35.034   0.479  10.594
34149W        W95680  28.455   5.816   3.746
34150W        W95681   3.807  42.850   0.793
34151W        W95682   7.686   2.867   5.777
34152W        W95683   2.472  19.538   2.808
34153W        W95684  38.970   3.346   1.705
34154W        W95685  42.886  17.302  12.355
34155W        W95686  10.742   3.843  12.524
34156W        W95687  42.914  38.560   4.726
34157W        W95688   6.709  18.102   3.273
34158W        W95689  15.224  23.733  11.074
34159W        W95690  37.353  32.491  14.396
34160W        W95691  12.297  41.466   3.780
34161W        W95692   4.337  10.265   4.119
34162W        W95693  42.899   8.786  12.914
34163W        W95694   0.907  39.390   4.172
34164W        W95695   8.359   6.237   4.655
34165W        W95696   2.258  11.144   2.797
34166W        W95697   9.823   4.225   4.224
34167W        W95698  10.370   8.722   3.368
34168W        W95699  29.096  22.091  12.389
34169W        W95700  26.668  31.503   1.364
34170W        W95701   4.750  36.095  14.784
34171W        W95702   8.888  42.327   2.854
34172W        W95703  32.946  11.630   4.256
34173W        W95704  43.347  35.369  11.868
34174W        W95705  28.164  40.807   1.711
34175W        W95706   7.347  41.861   3.221
34176W        W95707  35.014  29.603   2.290
34177W        W95708  42.899  19.090  10.444
34178W        W95709  36.477  35.970  13.050
34179W        W95710  10.150  34.921  12.002
34180W        W95711  38.571   8.200  11.556
34181W        W95712  39.060  36.518   1.396
34182W        W95713  23.075  26.485   2.393
34183W        W95714  39.885  25.009   3.262
34184W        W95715  25.034   5.330   4.168
34185W        W95716   0.912  12.781   4.803
34186W        W95717  20.254  13.351   4.203
34187W        W95718   4.733   9.230  14.009
34188W        W95719  12.835  36.938   3.340
34189W        W95720  23.028  39.535  14.351
34190W        W95721  43.770  35.013  10.570
34191W        W95722  31.930  30.589  10.636
34192W        W95723   7.340  21.561  10.554
34193W        W95724   0.348   2.443   3.338
34194W        W95725  35.592   4.286   3.379
34195W        W95726  37.028  27.555  14.468
34196W        W95727   7.812   7.373  12.944
34197W        W95728  11.302  17.170   3.776
34198W        W95729  20.588  44.362   2.226
34199W        W95730  20.175  32.133   0.278
34200W        W95731  35.852   3.362  11.913
34201W        W95732   8.861  40.823   1.339
34202W        W95733   7.785   6.812  14.806
34203W        W95734  39.979  18.212  13.938
34204W        W95735  34.041   1.756  13.900
34205W        W95736   7.359  14.226  12.006
34206W        W95737   2.862  32.983  12.419
34207W        W95738  20.583  31.076  13.396
34208W        W95739  17.225  10.374   3.664
34209W        W95740  10.734  31.538  11.526
34210W        W95741   9.382  15.184  14.948
34211W        W95742   1.907  10.676  14.302
34212W        W95743  10.637  13.151  11.988
34213W        W95744  32.429  25.126  10.407
34214W        W95745  41.810  25.638   2.901
34215W        W95746  43.946  17.704   0.338
34216W        W95747   7.728  40.837  14.397
34217W        W95748  24.127   3.789  13.939
34218W        W95749  42.029  39.964  11.105
34219W        W95750   3.887  24.582  12.408
34220W        W95751  24.679   8.724   5.263
34221W        W95752   1.417  11.680  14.372
34222W        W95753  35.040  43.371  13.061
34223W        W95754  19.263  14.206  10.508
34224W        W95755  10.709   8.339  11.582
34225W        W95756   6.284  28.932  11.601
34226W        W95757  15.658  17.273   3.809
34227W        W95758  38.877   7.748   3.847
34228W        W95759  42.474   0.934  11.505
34229W        W95760  43.963   8.258   4.829
34230W        W95761  31.955   8.839   3.314
34231W        W95762  25.582  19.667   0.834
34232W        W95763  10.771  24.572  14.910
34233W        W95764  23.621  32.133   4.271
34234W        W95765  41.472  36.391  12.511
34235W        W95766  20.669  14.699   4.838
34236W        W95767  20.616  22.243   1.901
34237W        W95768  28.632  20.550   1.838
34238W        W95769  16.615  22.181  11.504
34239W        W95770  23.075  14.693   2.223
34240W        W95771  37.556  20.745  13.317
34241W        W95772  35.382  27.464  10.512
34242W        W95773  43.283  39.836   1.345
34243W        W95774  12.832  25.084   1.255
34244W        W95775   0.873  41.915   3.660
34245W        W95776  27.509  23.637   2.275
34246W        W95777  19.153   5.245  11.873
34247W        W95778  11.659  39.984  13.484
34248W        W95779  18.070  35.075   0.754
34249W        W95780  10.770  23.100   0.301
34250W        W95781  24.979   5.202  13.356
34251W        W95782  42.813  33.008  11.024
34252W        W95783  14.180  34.381   2.703
34253W        W95784   2.878  38.868   0.792
34254W        W95785  27.682   6.311  11.870
34255W        W95786  32.894  25.594  11.386
34256W        W95787  27.653  27.507   4.812
34257W        W95788  31.518  18.791   0.389
34258W        W95789  24.138   8.350   2.283
34259W        W95790   0.364  20.184  14.019
34260W        W95791  24.612  26.107   0.881
34261W        W95792  23.515  41.792   0.742
34262W        W95793  36.932  41.825   1.812
34263W        W95794  13.329  18.641   4.144
34264W        W95795  34.392  31.150  12.885
34265W        W95796  16.786  12.831   1.283
34266W        W95797  17.583   4.736  14.355
34267W        W95798   3.902  22.118  12.379
34268W        W95799   3.934   3.342  14.820
34269W        W95800   4.280  25.614   1.260
34270W        W95801  16.289  16.212  14.996
34271W        W95802  26.074   6.195   2.807
34272W        W95803  12.215   6.691  11.555
34273W        W95804  17.085  33.090   4.724
34274W        W95805   9.241  18.712  14.787
34275W        W95806  21.751  32.506  11.539
34276W        W95807  36.944   8.212  10.519
34277W        W95808  30.985  43.318  11.606
34278W        W95809  10.304  24.148   0.309
34279W        W95810  43.472  23.603   2.369
34280W        W95811  30.581  16.779   4.173
34281W        W95812   4.300  27.942   1.869
34282W        W95813  18.608  44.891   0.849
34283W        W95814  18.199  34.512  11.559
34284W        W95815   7.896  21.568  13.014
34285W        W95816  40.467  42.509  14.950
34286W        W95817  16.625   4.830  13.927
34287W        W95818  25.571  17.148   2.840
34288W        W95819  42.341   3.392  10.426
34289W        W95820  41.332   7.397  12.493
34290W        W95821  29.450  28.658  11.902
34291W        W95822  17.623  44.883  12.004
34292W        W95823  31.631  23.192  14.494
34293W        W95824   1.423   2.891   0.845
34294W        W95825  40.405   7.757   3.252
34295W        W95826  40.006  11.285  14.508
34296W        W95827  33.917  19.089   3.153
34297W        W95828   4.204  42.394   0.903
34298W        W95829   9.184  32.003  13.912
34299W        W95830  42.848  22.529  10.462
34300W        W95831  33.910   2.384   1.879
34301W        W95832  28.185   9.363  11.882
34302W        W95833  16.795  38.352  10.899
34303W        W95834   2.328  44.992  12.496
34304W        W95835  30.540  17.700   4.316
34305W        W95836  14.659  11.845  13.844
34306W        W95837  24.209  41.018  12.375
34307W        W95838  17.755  23.041   9.963
34308W        W95839  18.215   2.779   1.410
34309W        W95840  38.899   5.211  11.886
34310W        W95841  30.056  35.590  13.926
34311W        W95842  38.043  27.483  12.073
34312W        W95843  28.965   4.392  14.941
34313W        W95844   0.255   4.417  14.306
34314W        W95845   7.392   5.339   4.185
34315W        W95846  16.309  10.183   1.333
34316W        W95847  34.108  15.681  14.005
34317W        W95848  33.931   4.368   2.703
34318W        W95849  10.707  21.513   0.898
34319W        W95850  24.012  40.049  13.461
34320W        W95851   0.300  24.134   1.744
34321W        W95852  26.586   7.366   1.845
34322W        W95853   9.183   1.785   0.848
34323W        W95854  26.127  23.077  10.926
34324W        W95855  23.173  33.071   2.183
34325W        W95856  29.130   5.861   2.248
34326W        W95857  15.271  20.529  10.443
34327W        W95858  34.879  13.679  12.946
34328W        W95859  31.465  44.363  13.521
34329W        W95860   4.836  14.738  11.962
34330W        W95861   1.437  22.009   1.382
34331W        W95862   5.701  22.568  13.507
34332W        W95863  21.163  39.545   0.270
34333W        W95864   7.871  40.321  13.028
34334W        W95865  17.090  31.463   4.762
34335W        W95866   1.454   5.324  14.770
34336W        W95867   5.900  32.414  10.578
34337W        W95868  15.181   7.858   0.831
34338W        W95869   9.736  43.274   4.148
34339W        W95870  35.017  26.538   3.223
34340W        W95871   3.452  32.889   0.318
34341W        W95872  30.609  22.134   2.226
34342W        W95873  43.359   0.457  13.364
34343W        W95874   4.233  26.989   2.814
34344W        W95875  12.760  44.932  12.075
34345W        W95876   6.879  11.170  13.874
34346W        W95877  32.112  37.057  10.506
34347W        W95878   7.338   0.821  14.974
34348W        W95879  16.104  11.287  10.905
34349W        W95880  29.966  26.081  12.494
34350W        W95881  37.899   2.361   2.800
34351W        W95882  37.350  40.489   3.691
34352W        W95883  26.685  22.568  10.540
34353W        W95884  39.991  42.891  12.549
34354W        W95885  20.568  20.228  10.607
34355W        W95886  23.523   5.776   1.883
34356W        W95887  40.441   1.278  13.950
34357W        W95888   1.358  11.832  12.075
34358W        W95889   7.370  12.171   0.251
34359W        W95890   4.757  43.786   2.302
34360W        W95891  40.542  15.821   2.359
34361W        W95892  12.226   7.827  10.494
34362W        W95893  12.746  37.836  13.949
34363W        W95894  30.923  30.442  13.874
34364W        W95895  19.652  23.226  12.980
34365W        W95896  17.081  13.653   1.247
34366W        W95897  41.437  33.119   4.174
34367W        W95898  22.560  33.557   4.126
34368W        W95899  30.963  16.305   4.177
34369W        W95900  11.747  37.411   3.302
34370W        W95901  22.999  22.555  10.551
34371W        W95902  39.426  40.482   0.884
34372W        W95903   8.721  24.225   1.767
34373W        W95904  26.200  28.113  10.504
34374W        W95905  21.735  28.543  13.859
34375W        W95906  13.666  22.507  14.808
34376W        W95907  23.665   7.847   0.839
34377W        W95908  27.669   7.674   5.303
34378W        W95909  36.928   7.673  11.969
34379W        W95910  35.976   4.342  11.557
34380W        W95911   9.831  33.908   3.688
34381W        W95912   1.253  22.643   0.800
34382W        W95913  39.411  42.998  11.996
34383W        W95914   2.404  30.431   2.734
34384W        W95915  42.925  19.080  11.602
34385W        W95916  12.742  28.936  11.003
34386W        W95917  35.532  42.342  14.906
34387W        W95918  29.507  17.075   5.087
34388W        W95919  44.766   5.347  12.447
34389W        W95920  29.658  29.119  14.990
34390W        W95921  20.178  15.210  11.990
34391W        W95922  33.470  25.709   1.804
34392W        W95923   4.816  31.403   1.300
34393W        W95924   0.982  16.299  13.914
34394W        W95925  26.204   5.843  14.468
34395W        W95926   7.905  33.103  13.796
34396W        W95927  16.100   0.836  12.998
34397W        W95928  39.920   6.225   4.124
34398W        W95929  22.615  40.352  14.438
34399W        W95930  20.719   5.733  13.062
34400W        W95931  38.013   7.394  12.937
34401W        W95932  25.610  42.339   0.457
34402W        W95933  31.034  35.540   3.788
34403W        W95934  28.936  31.108  14.000
34404W        W95935   9.309  23.519  14.933
34405W        W95936  11.864  17.800   9.980
34406W        W95937  23.617   1.877  14.463
34407W        W95938  41.350  20.143   3.656
34408W        W95939  42.393  21.049  11.056
34409W        W95940  39.016  27.483  10.043
34410W        W95941   7.275  22.648  11.520
34411W        W95942  36.551  39.558  12.473
34412W        W95943   9.864   5.751  11.591
34413W        W95944  31.138  30.967  10.537
34414W        W95945  32.008  23.536   0.834
34415W        W95946  21.130   0.281   3.743
34416W        W95947  43.873  40.942   2.798
34417W        W95948  14.221   6.742   4.604
34418W        W95949   8.350  32.573   4.791
34419W        W95950  15.623   9.153   0.307
34420W        W95951  18.270   2.827  14.787
34421W        W95952  27.138  24.131   0.416
34422W        W95953  23.134  14.694  14.863
34423W        W95954   8.389   6.273   4.251
34424W        W95955   8.187  16.174   0.415
34425W        W95956  40.506  21.152   2.373
34426W        W95957  34.476  31.983  14.490
34427W        W95958  25.071  42.975  10.962
34428W        W95959  33.412   3.257  10.949
34429W        W95960  18.551   6.427   0.887
34430W        W95961   8.182  10.703  14.322
34431W        W95962   1.423  32.449   0.412
34432W        W95963  44.922  24.691   3.195
34433W        W95964  24.623  25.623  13.496
34434W        W95965  25.518  44.314   3.807
34435W        W95966  33.467  11.255  12.351
34436W        W95967  11.225  11.207   3.335
34437W        W95968  43.426  21.659   3.317
34438W        W95969   9.198  40.511  10.521
34439W        W95970  31.957  24.644  14.980
34440W        W95971  41.526  33.968  11.882
34441W        W95972   5.388  33.952   4.186
34442W        W95973   6.882  22.714  13.046
34443W        W95974   4.291  32.585  11.525
34444W        W95975  31.917  35.430   2.682
34445W        W95976  23.648   9.830   2.828
34446W        W95977   7.670  22.520  12.066
34447W        W95978  32.897  26.134   3.696
34448W        W95979  35.010   2.304  14.927
34449W        W95980  41.946  30.024  13.437
34450W        W95981   7.896  35.472   2.393
34451W        W95982  17.231   9.266   3.856
34452W        W95983   8.249   3.929  14.351
34453W        W95984  44.976   3.436  12.888
34454W        W95985  31.103  13.175  10.452
34455W        W95986  19.737  35.087  11.374
34456W        W95987   2.934  32.031  10.899
34457W        W95988  16.191  14.643   3.258
34458W        W95989  44.930  12.195   3.731
34459W        W95990  33.573  14.678  12.061
34460W        W95991  24.025  20.581   1.272
34461W        W95992   9.367  17.178   0.425
34462W        W95993  20.105  17.773  11.987
34463W        W95994   9.737  12.828  11.500
34464W        W95995  43.321  17.706  12.420
34465W        W95996  34.059  44.846  14.779
34466W        W95997  20.131  15.686   4.714
34467W        W95998  17.159  20.271   4.210
34468W        W95999   5.197  10.317   5.235
34469W        W96000  28.532  28.065   3.825
34470W        W96001  22.146  37.568   5.316
34471W        W96002  43.971  27.175   3.690
34472W        W96003   6.388  27.108   0.295
34473W        W96004  37.368  37.512   3.358
34474W        W96005  17.782  21.241   0.824
34475W        W96006   7.839  31.596  14.365
34476W        W96007   3.363  43.769   4.697
34477W        W96008  10.379   8.219  14.426
34478W        W96009  40.311  39.827  12.890
34479W        W96010   8.216  16.616  14.901
34480W        W96011  13.605  36.577  14.930
34481W        W96012  41.351  14.131   0.875
34482W        W96013   7.334  32.927   3.667
34483W        W96014  26.172  32.037  12.406
34484W        W96015  21.710  12.193  14.015
34485W        W96016  14.801  34.518  14.999
34486W        W96017   1.357   4.392  10.622
34487W        W96018  10.354  17.580   2.795
34488W        W96019  30.089  44.787   2.865
34489W        W96020  31.407  43.857   0.304
34490W        W96021  29.640  16.677   1.928
34491W        W96022   2.471  36.373   3.344
34492W        W96023  32.539  25.048  12.561
34493W        W96024  42.303  23.110   4.349
34494W        W96025  31.057  38.526   3.303
34495W        W96026  21.201  44.898  14.851
34496W        W96027  35.054   8.329  14.952
34497W        W96028  26.653  20.658   4.598
34498W        W96029  38.937  15.750   5.134
34499W        W96030  42.499  33.013   4.821
34500W        W96031  29.146  15.618  14.004
34501W        W96032  25.102  16.075   0.474
34502W        W96033   9.240  22.514   3.331
34503W        W96034  16.780   0.766   3.696
34504W        W96035  38.524  31.070   1.248
34505W        W96036   9.716   2.861   1.800
34506W        W96037  11.197  42.410   3.344
34507W        W96038  33.042  30.113  13.469
34508W        W96039  35.575  13.757  11.400
34509W        W96040   6.273  42.369  13.830
34510W        W96041  17.143  17.626   2.833
34511W        W96042   9.830  29.110  10.645
34512W        W96043  11.656  44.979  11.423
34513W        W96044   3.376  13.654  10.504
34514W        W96045  24.127  27.508  10.403
34515W        W96046  20.188  24.078  12.413
34516W        W96047  10.738   2.324   1.258
34517W        W96048   9.229  33.056  10.414
34518W        W96049  36.025  29.033   3.187
34519W        W96050  37.063   1.946   1.757
34520W        W96051  16.080  11.337  14.491
34521W        W96052  41.876   1.911  11.048
34522W        W96053   6.852  34.120  10.900
34523W        W96054  24.494   2.363   2.768
34524W        W96055  21.645   9.876   1.253
34525W        W96056  27.021  41.896  13.375
34526W        W96057  41.829  17.178  10.598
34527W        W96058  26.630   1.431   3.226
34528W        W96059  22.051  34.045   1.341
34529W        W96060  13.234  34.065   1.808
34530W        W96061   0.416  37.010  13.449
34531W        W96062   8.241  27.600  11.055
34532W        W96063  23.135  32.492   3.376
34533W        W96064   1.945  13.216   1.240
34534W        W96065  21.131  40.419  11.961
34535W        W96066   3.380  22.546  14.914
34536W        W96067   9.665  36.874  14.927
34537W        W96068  42.335  28.934  14.405
34538W        W96069  33.550  37.887   2.202
34539W        W96070   8.836  13.163   3.866
34540W        W96071  37.537  17.192  10.551
34541W        W96072  25.053   2.266  12.057
34542W        W96073  44.822  36.999   3.652
34543W        W96074  43.905  13.114  11.948
34544W        W96075  14.111  15.303   4.775
34545W        W96076  33.075  11.812   0.363
34546W        W96077  26.969  23.041   4.338
34547W        W96078  40.448  22.092   0.735
34548W        W96079   9.214  10.350  12.577
34549W        W96080  37.989  31.599  14.969
34550W        W96081  23.687  29.052   3.703
34551W        W96082   3.899   9.883  14.504
34552W        W96083  18.250  30.118   3.823
34553W        W96084  10.713  30.647  13.795
34554W        W96085  30.072  36.963  10.896
34555W        W96086   6.231  13.166  13.441
34556W        W96087  24.190  10.865  10.482
34557W        W96088  18.731  17.259   1.397
34558W        W96089  18.214  43.902   1.764
34559W        W96090  32.409   5.921  11.083
34560W        W96091  10.321   5.750  11.051
34561W        W96092   0.865  33.015   3.249
34562W        W96093   0.426  27.445   2.380
34563W        W96094  24.656  18.623   4.305
34564W        W96095  14.103  23.144  13.043
34565W        W96096  42.942  37.442  11.090
34566W        W96097  29.073  29.498  11.913
34567W        W96098  15.190  19.754  14.928
34568W        W96099  19.210  31.011   3.310
34569W        W96100  12.219  20.086   3.823
34570W        W96101  34.518  14.813  13.448
34571W        W96102  16.142   4.730  10.547
34572W        W96103  32.007  10.155  13.373
34573W        W96104  20.055  17.733   1.847
34574W        W96105  27.988  36.978  13.397
34575W        W96106  24.128   3.900   4.115
34576W        W96107  19.679  10.842   3.649
34577W        W96108  31.939  28.573   1.386
34578W        W96109  34.929  35.515  12.580
34579W        W96110   0.475  23.650   4.131
34580W        W96111  20.232  38.022   0.824
34581W        W96112  20.762  28.985  11.089
34582W        W96113  42.497  34.041  14.025
34583W        W96114  28.573  14.311  13.503
34584W        W96115  34.414  34.383  10.575
34585W        W96116  32.138   5.341  11.396
34586W        W96117  44.813  43.844   1.860
34587W        W96118   1.475  35.585  13.940
34588W        W96119  40.974  17.792  13.959
34589W        W96120  33.499  10.756  12.431
34590W        W96121  25.632  18.731  10.944
34591W        W96122  40.973   4.276  13.802
34592W        W96123  27.155  13.740  10.552
34593W        W96124  28.469   9.665  12.529
34594W        W96125  17.105  11.165   0.936
34595W        W96126  43.515  38.406  12.442
34596W        W96127  39.553   9.332  12.090
34597W        W96128   5.228   9.701   2.698
34598W        W96129  29.088  11.652  13.800
34599W        W96130  12.793  33.109   9.984
34600W        W96131  31.458  38.889   1.313
34601W        W96132  34.899  22.183  12.092
34602W        W96133  32.027  23.561  11.874
34603W        W96134  40.400   9.764  13.423
34604W        W96135  40.400  43.801   3.670
34605W        W96136  26.532  30.000  13.055
34606W        W96137  13.845  32.102   0.305
34607W        W96138  39.832  38.461   4.687
34608W        W96139  11.137   6.394  12.991
34609W        W96140   0.389  19.714  10.610
34610W        W96141  36.565   0.485   4.165
34611W        W96142  37.542  11.632   1.379
34612W        W96143   6.238  19.262   2.342
34613W        W96144  23.017  11.865  12.948
34614W        W96145  30.588  36.901   3.279
34615W        W96146  37.999  23.724   4.198
34616W        W96147  33.117  16.655   1.919
34617W        W96148  44.323  13.167  14.447
34618W        W96149   2.452   5.199   4.309
34619W        W96150  19.563  32.890  11.575
34620W        W96151  16.603   3.829   0.345
34621W        W96152  26.600  38.444  12.447
34622W        W96153  44.962  12.849  11.397
34623W        W96154  17.288  40.362   3.320
34624W        W96155  35.906   1.827   2.729
34625W        W96156   3.801  15.110  11.996
34626W        W96157  34.518  15.258   0.808
34627W        W96158  14.691  33.932   1.288
34628W        W96159  22.198  28.945  11.371
34629W        W96160  38.034  36.404   2.850
34630W        W96161  23.521   6.770  12.463
34631W        W96162  34.003   0.776   4.240
34632W        W96163  35.404  40.954   0.256
34633W        W96164   2.418  11.206   0.394
34634W        W96165   5.314  32.445  14.023
34635W        W96166  28.071  32.075   1.856
34636W        W96167  28.633   5.689   0.441
34637W        W96168  44.466  42.345  14.343
34638W        W96169  10.380   5.765  11.450
34639W        W96170   4.919  36.372  11.872
34640W        W96171   2.302  22.710   4.716
34641W        W96172  14.600  24.192  10.057
34642W        W96173  18.655  36.473   4.803
34643W        W96174  12.784   5.346   1.440
34644W        W96175  35.550   9.837  14.759
34645W        W96176  33.449   5.926   2.676
34646W        W96177  32.030  23.733   1.289
34647W        W96178  33.442  44.413  13.484
34648W        W96179   6.824  13.843   3.752
34649W        W96180   8.685  30.449   4.168
34650W        W96181   1.738  39.853  11.967
34651W        W96182  12.824  38.344  13.346
34652W        W96183  35.515  24.093   1.232
34653W        W96184   3.245   2.774   4.317
34654W        W96185  27.528  30.948   4.661
34655W        W96186  44.378  32.948   4.758
34656W        W96187  36.350  14.305  13.919
34657W        W96188  37.462  28.564   0.381
34658W        W96189   7.716  43.375  12.356
34659W        W96190  33.448  26.504   4.189
34660W        W96191   9.821  13.742  14.481
34661W        W96192  30.958  28.940  12.386
34662W        W96193  26.118  17.731  14.806
34663W        W96194  29.541  20.693   1.852
34664W        W96195  36.379  31.458  10.513
34665W        W96196  21.109   6.724  13.539
34666W        W96197   4.804  11.192   2.860
34667W        W96198  43.963   5.299   2.825
34668W        W96199  20.543  31.442   2.739
34669W        W96200  20.593  19.047  12.467
34670W        W96201   1.463  42.309  10.907
34671W        W96202  43.849   3.373  13.971
34672W        W96203  24.495  39.495   0.921
34673W        W96204  37.340  16.697   0.305
34674W        W96205  12.226  43.772  10.939
34675W        W96206  32.042  14.660  13.492
34676W        W96207  39.469   3.273   1.867
34677W        W96208  21.057   7.319  11.874
34678W        W96209  42.000  42.988   2.873
34679W        W96210  10.350   6.324   1.338
34680W        W96211  11.835  34.931  13.846
34681W        W96212  15.104  28.575  12.845
34682W        W96213  16.085  36.065   5.261
34683W        W96214   2.400  28.666  14.852
34684W        W96215  44.938  19.750   4.279
34685W        W96216   3.951  17.746   0.326
34686W        W96217  25.682  43.978  12.399
34687W        W96218  21.539  19.236  12.840
34688W        W96219  30.940  14.310  13.366
34689W        W96220  13.631  26.020   0.355
34690W        W96221  34.563  41.826   4.597
34691W        W96222  26.092   9.667  12.998
34692W        W96223  42.810  40.891  11.426
34693W        W96224  19.554  44.991   0.412
34694W        W96225  16.156  36.018   0.247
34695W        W96226  28.025  20.762  11.005
34696W        W96227   3.328  12.337  12.504
34697W        W96228  42.783  36.430   1.244
34698W        W96229  24.507  11.830   4.716
34699W        W96230  12.205  19.761  12.011
34700W        W96231  21.580  26.051   1.809
34701W        W96232  38.052   4.291   3.769
34702W        W96233  37.927  42.968  12.362
34703W        W96234  36.544  44.981   1.920
34704W        W96235  24.604  19.743  10.989
34705W        W96236  31.569  26.465  13.307
34706W        W96237   8.767  26.121  10.468
34707W        W96238  30.563   7.193  14.882
34708W        W96239   6.696  13.695  13.480
34709W        W96240  32.587  26.178  14.012
34710W        W96241  31.441   4.702  12.355
34711W        W96242   8.212   7.794   0.251
34712W        W96243   3.349  26.116   0.940
34713W        W96244  10.656   9.719   0.957
34714W        W96245  36.460  11.674   0.263
34715W        W96246  14.622   3.256  10.122
34716W        W96247  34.104  23.709   1.386
34717W        W96248   9.827   8.339  11.890
34718W        W96249  32.555  18.613   1.450
34719W        W96250  28.568  24.577   2.734
34720W        W96251  33.030  38.874   1.708
34721W        W96252  21.153  20.116   0.368
34722W        W96253   1.821   9.851  12.547
34723W        W96254  29.667   7.404   2.360
34724W        W96255   6.336  42.864   2.766
34725W        W96256  14.787   9.851   4.340
34726W        W96257  23.102  22.214  13.867
34727W        W96258  34.471  27.001  13.973
34728W        W96259  32.636  25.530  13.893
34729W        W96260  30.047   7.845  13.944
34730W        W96261   4.735  31.983   4.766
34731W        W96262  38.432  38.526   1.740
34732W        W96263  37.072  40.841   1.734
34733W        W96264  22.584   0.848   3.741
34734W        W96265   0.929   2.843  10.604
34735W        W96266  14.225  34.398   4.833
34736W        W96267  20.693  44.814   1.255
34737W        W96268  39.876  25.533  12.841
34738W        W96269   9.357  17.171  14.426
34739W        W96270  32.143  19.186   3.336
34740W        W96271  43.847  22.029   2.391
34741W        W96272  44.863  20.760  12.538
34742W        W96273  32.533  29.064  13.531
34743W        W96274  17.593  27.649  12.917
34744W        W96275   3.228  20.547  10.991
34745W        W96276  40.905   2.946   1.757
34746W        W96277  36.360  37.343   1.788
34747W        W96278   3.219   1.335  12.483
34748W        W96279  41.342  42.358   2.851
34749W        W96280  41.442  25.676   3.702
34750W        W96281  26.199  21.109  11.018
34751W        W96282  23.170  32.931   0.333
34752W        W96283  12.640   4.439   4.237
34753W        W96284   2.269  24.168  13.400
34754W        W96285  22.208  29.923  12.935
34755W        W96286  18.180  40.017   5.148
34756W        W96287   3.429  14.106  11.478
34757W        W96288   3.392  12.321   2.224
34758W        W96289  28.578   7.830   3.227
34759W        W96290  41.414  10.240  11.896
34760W        W96291  12.841   9.811   0.480
34761W        W96292   7.728  14.096   1.433
34762W        W96293  11.675  14.158  11.409
34763W        W96294  24.197  13.147   2.835
34764W        W96295   7.379  31.523  13.831
34765W        W96296  34.555  21.105  11.107
34766W        W96297   9.208  33.548  11.033
34767W        W96298   5.355  16.087  10.908
34768W        W96299  14.752  41.530   2.731
34769W        W96300  10.259   5.791  12.041
34770W        W96301  13.255  11.654  14.815
34771W        W96302   6.235  29.501  14.796
34772W        W96303  33.477   9.652  14.417
34773W        W96304  14.740  39.492  11.387
34774W        W96305   1.755  34.998   3.162
34775W        W96306   6.304  27.954  12.825
34776W        W96307   2.309  14.221  11.892
34777W        W96308  32.470  19.040  13.392
34778W        W96309   1.789  24.987   0.462
34779W        W96310  37.846  11.149   3.377
34780W        W96311  32.507  32.038  14.779
34781W        W96312   4.928  44.284   0.437
34782W        W96313  41.829  39.388   2.743
34783W        W96314  34.440   5.389  12.921
34784W        W96315  30.036  11.781   2.202
34785W        W96316  32.452   8.723  13.535
34786W        W96317  21.223   4.708  13.368
34787W        W96318  42.429  24.518  14.920
34788W        W96319  20.755   9.846   4.650
34789W        W96320  43.390  28.993  11.407
34790W        W96321   7.389  44.372   2.839
34791W        W96322   7.332  13.713   3.294
34792W        W96323  20.594  31.636   4.660
34793W        W96324  21.154  28.520  10.435
34794W        W96325  36.438  30.079  11.861
34795W        W96326  28.593  41.508   4.243
34796W        W96327  38.844  26.173  12.869
34797W        W96328  23.053  20.248  10.429
34798W        W96329  15.226  25.141   2.711
34799W        W96330  39.957  27.532   0.285
34800W        W96331  41.426  16.232   0.960
34801W        W96332  16.736   1.395   3.276
34802W        W96333   8.894  27.689   2.772
34803W        W96334  23.665  20.523   3.352
34804W        W96335  29.579  26.999  14.294
34805W        W96336  38.508  42.458  13.061
34806W        W96337  19.590  43.840  11.949
34807W        W96338  33.430   0.832  13.518
34808W        W96339  11.662  11.749   3.799
34809W        W96340  38.511   9.770  14.928
34810W        W96341  25.016  25.546   1.877
34811W        W96342  24.156  38.423  12.934
34812W        W96343  12.775  22.628   3.174
34813W        W96344  12.248   9.281  11.466
34814W        W96345  30.468  31.921  14.006
34815W        W96346  20.667  39.049   0.870
34816W        W96347  42.393  36.843   2.843
34817W        W96348   9.180  35.061  10.604
34818W        W96349  31.011  34.003   0.738
34819W        W96350  39.966  44.446   3.667
34820W        W96351   9.333  30.042   3.823
34821W        W96352  10.331   7.307   0.437
34822W        W96353  12.812  36.864  14.379
34823W        W96354   6.285  32.528  12.413
34824W        W96355  26.500  20.221  12.048
34825W        W96356  31.079  24.686   1.391
34826W        W96357  29.640  31.460   2.839
34827W        W96358  20.755  37.840   3.222
34828W        W96359  16.223  13.714  12.083
34829W        W96360   9.166  37.362   2.884
34830W        W96361   6.329   7.406   5.280
34831W        W96362  42.809  35.028   1.297
34832W        W96363   5.711  10.289   3.181
34833W        W96364  15.779  41.465  10.131
34834W        W96365  18.652  34.571   1.809
34835W        W96366  43.308  28.066  12.089
34836W        W96367   0.302   8.725  14.926
34837W        W96368  32.474   1.390   2.728
34838W        W96369   3.429  22.570  10.565
34839W        W96370  19.675   7.328  13.021
34840W        W96371  29.563  15.254  10.634
34841W        W96372  27.084  31.972  14.003
34842W        W96373  10.829   5.217   1.863
34843W        W96374   9.689   8.227  10.906
34844W        W96375  41.330   7.804  14.792
34845W        W96376  17.120  32.418   1.278
34846W        W96377  21.153   5.717  13.051
34847W        W96378  27.097   0.873   2.361
34848W        W96379   5.385  19.217  14.489
34849W        W96380  24.072  33.511  14.952
34850W        W96381  34.537  12.248  13.935
34851W        W96382  40.485  34.917   3.365
34852W        W96383  29.550  22.685  10.519
34853W        W96384  12.823  41.490   0.736
34854W        W96385  30.992  37.858   3.658
34855W        W96386  41.983   1.335  10.442
34856W        W96387  32.450  18.775   3.206
34857W        W96388   4.411   6.887   4.346
34858W        W96389  21.089  10.875  14.787
34859W        W96390  35.071  36.378  10.608
34860W        W96391  39.918  14.328   3.210
34861W        W96392  35.982  21.633  13.902
34862W        W96393  12.118  19.105   3.321
34863W        W96394   0.820  23.148   1.921
34864W        W96395  32.053   6.769   2.253
34865W        W96396  19.246  16.173  10.924
34866W        W96397  31.597  12.188  11.901
34867W        W96398  43.320  38.416  13.841
34868W        W96399  22.603  40.963   4.154
34869W        W96400  23.116  37.942  14.503
34870W        W96401   6.273   8.277  13.524
34871W        W96402  41.828  38.484   0.313
34872W        W96403  38.484  43.488  14.277
34873W        W96404  29.078  26.191   1.362
34874W        W96405  35.856  19.761  14.321
34875W        W96406   5.767  42.433  14.300
34876W        W96407  26.534  41.377   4.661
34877W        W96408  17.139  38.001  13.818
34878W        W96409  38.455  28.526  11.461
34879W        W96410  42.929  10.271  13.875
34880W        W96411  33.551  26.145  13.358
34881W        W96412  24.603  33.570  11.468
34882W        W96413   9.272  14.614  12.890
34883W        W96414  35.009  24.995  14.488
34884W        W96415  11.345  30.488  13.874
34885W        W96416  39.391  11.220  11.925
34886W        W96417  44.921  21.647  13.380
34887W        W96418  22.050  29.116  14.395
34888W        W96419  16.185  20.101   2.413
34889W        W96420  29.653  17.237   0.849
34890W        W96421  23.496   9.274   4.262
34891W        W96422  25.000   9.685  10.498
34892W        W96423  12.793   2.947  12.379
34893W        W96424  17.786   8.838  12.567
34894W        W96425  39.436  29.455  10.610
34895W        W96426  17.194   0.846  12.028
34896W        W96427  22.547   8.899   0.334
34897W        W96428  24.046  43.020  11.907
34898W        W96429   1.834  13.844  11.979
34899W        W96430  19.719  17.594   3.643
34900W        W96431   2.391   7.850  12.937
34901W        W96432  15.648  40.008  14.336
34902W        W96433  13.261   6.370  12.548
34903W        W96434  12.227  15.190  10.488
34904W        W96435   3.382   2.738  14.938
34905W        W96436  31.596  29.480  11.072
34906W        W96437   2.759   0.936   2.711
34907W        W96438  10.334  32.466   1.270
34908W        W96439   7.780  35.524   1.776
34909W        W96440  32.474  25.607  14.510
34910W        W96441   7.713  41.811  14.463
34911W        W96442  29.045  12.199  14.505
34912W        W96443  23.718  28.510   4.227
34913W        W96444  22.198  39.974  11.397
34914W        W96445  27.462  41.352   0.371
34915W        W96446   8.320  19.682  10.448
34916W        W96447   9.373  14.686  12.430
34917W        W96448  22.062  37.573   0.252
34918W        W96449  24.093   7.203   4.285
34919W        W96450   6.385   6.868   3.781
34920W        W96451   2.399  23.659   3.785
34921W        W96452  17.155   5.860   2.774
34922W        W96453  11.232  22.527   4.234
34923W        W96454  30.455  27.948   2.369
34924W        W96455  18.167  15.658   0.828
34925W        W96456  12.283  17.123  13.030
34926W        W96457  10.265  22.115  10.554
34927W        W96458  43.293  27.680  10.543
34928W        W96459  11.801  10.254  13.043
34929W        W96460  18.243  26.497   0.910
34930W        W96461  40.436  14.796   3.304
34931W        W96462  25.567  23.037   1.378
34932W        W96463   4.205  26.152   1.231
34933W        W96464  18.651   9.698  13.512
34934W        W96465   7.184  33.927   4.686
34935W        W96466  38.488  32.596   2.246
34936W        W96467   0.872  24.180   4.211
34937W        W96468  34.088  15.645  10.606
34938W        W96469  39.883  15.725   2.415
34939W        W96470  38.024  41.363  13.481
34940W        W96471  37.516  13.204   2.854
34941W        W96472   3.875  27.028  12.412
34942W        W96473   3.254  24.699   2.200
34943W        W96474  32.034  30.449  13.462
34944W        W96475  18.062  19.090   4.627
34945W        W96476   7.833  14.137  14.294
34946W        W96477  37.933  16.244   2.682
34947W        W96478   1.892   9.711  13.936
34948W        W96479  40.539  41.794   0.408
34949W        W96480  40.956  34.938   1.319
34950W        W96481  19.711  42.812   5.275
34951W        W96482  18.706  34.964   1.893
34952W        W96483  30.620  12.197   0.822
34953W        W96484  22.671  12.347  13.993
34954W        W96485  13.733  29.617   2.692
34955W        W96486  14.623   2.786   3.808
34956W        W96487  34.497  37.004   0.384
34957W        W96488   8.864  18.678   3.667
34958W        W96489  35.377  14.798   2.357
34959W        W96490  43.870   9.861   4.114
34960W        W96491   5.786  29.948   0.952
34961W        W96492  21.125  12.343  11.445
34962W        W96493  42.858  21.688   3.182
34963W        W96494  31.582  43.407   4.141
34964W        W96495  39.033   7.836  12.898
34965W        W96496  21.643  10.326  12.059
34966W        W96497   0.338  30.540  13.959
34967W        W96498   8.699  35.593  10.627
34968W        W96499   3.451  12.752   4.261
34969W        W96500  27.650   4.871   1.871
34970W        W96501   3.358   3.391   3.377
34971W        W96502  23.709  21.564  14.450
34972W        W96503  38.379  21.154  11.609
34973W        W96504   8.375  12.144  11.482
34974W        W96505  43.478  23.718  13.803
34975W        W96506   2.769   4.326  10.596
34976W        W96507  13.762  42.898   1.358
34977W        W96508   4.820   2.366  14.961
34978W        W96509  41.964  28.989   1.226
34979W        W96510  12.711   3.240  12.886
34980W        W96511  28.110  24.682   1.324
34981W        W96512   3.755  22.035   5.679
34982W        W96513   5.694  20.532   1.291
34983W        W96514   5.348  13.746  13.909
34984W        W96515   3.451  13.183  11.870
34985W        W96516   7.232  25.539  11.031
34986W        W96517  27.685  26.070   1.885
34987W        W96518  32.036  20.721  10.479
34988W        W96519   0.411  32.110  12.905
34989W        W96520  27.667  15.655  13.394
34990W        W96521  39.436  22.173   1.895
34991W        W96522  29.130  38.415   4.666
34992W        W96523  18.729   2.745  11.021
34993W        W96524  21.063   8.846  13.037
34994W        W96525  15.636   5.765  10.096
34995W        W96526  16.701  32.463   2.346
34996W        W96527  12.219  25.053  11.907
34997W        W96528  16.717  33.530  12.923
34998W        W96529  29.545   2.814  10.439
34999W        W96530  22.533   7.411   2.774
35000W        W96531  11.172   3.330  13.853
35001W        W96532  24.110  39.891   0.835
35002W        W96533  30.518   3.274   1.815
35003W        W96534  13.635  27.563  11.610
35004W        W96535  29.173  39.972  13.794
35005W        W96536  42.805  15.603  10.935
35006W        W96537  44.451  29.162   0.921
35007W        W96538  19.593  35.417  14.436
35008W        W96539  34.032   7.326   1.698
35009W        W96540  27.626  18.186   1.298
35010W        W96541  40.315  29.030   5.122
35011W        W96542  27.665  10.740   3.319
35012W        W96543   7.778  11.749   2.240
35013W        W96544  39.387   0.892   4.692
35014W        W96545  26.197  29.085  14.337
35015W        W96546  21.593   6.198   2.883
35016W        W96547  11.334  12.752   3.174
35017W        W96548  36.535  22.605   2.662
35018W        W96549  16.082  41.800  12.050
35019W        W96550  44.915  10.283  13.911
35020W        W96551   2.870  26.633   3.328
35021W        W96552  30.437   7.709  14.799
35022W        W96553  31.988  44.004   2.715
35023W        W96554  33.073  33.961   0.777
35024W        W96555  37.928  44.858  11.896
35025W        W96556  15.790  37.349  13.900
35026W        W96557   0.867  44.348   2.283
35027W        W96558  28.601  16.131  10.587
35028W        W96559  33.992  44.914   1.238
35029W        W96560  38.531  39.047  10.573
35030W        W96561  19.738  38.493  11.586
35031W        W96562   2.281  23.733  11.926
35032W        W96563  36.576   9.261  12.881
35033W        W96564   4.863  41.505   3.252
35034W        W96565  44.435  12.630  12.412
35035W        W96566  41.516  34.892  11.002
35036W        W96567  14.831  13.323   0.284
35037W        W96568   7.222  35.602  11.016
35038W        W96569  23.574  26.500   2.741
35039W        W96570  26.468  36.476   0.938
35040W        W96571  15.162   5.208  10.450
35041W        W96572  22.248   9.277   1.380
35042W        W96573   5.399  23.077  14.294
35043W        W96574   2.430  22.533  10.558
35044W        W96575  39.967  39.919   1.282
35045W        W96576  31.599  27.133  11.062
35046W        W96577  34.998  10.878   0.479
35047W        W96578  29.174  38.930   0.392
35048W        W96579  34.605   0.380  10.587
35049W        W96580   4.438  19.064   3.294
35050W        W96581  12.158  40.420   0.477
35051W        W96582  40.338   9.880   3.820
35052W        W96583  14.639   5.789  12.016
35053W        W96584   9.193  10.637  10.553
35054W        W96585  21.732  15.318  12.513
35055W        W96586  37.480  43.338  14.999
35056W        W96587  18.246  16.313  13.466
35057W        W96588  27.976   7.387  14.890
35058W        W96589   3.262  29.618  14.948
35059W        W96590  23.513  33.417  12.458
35060W        W96591  31.927  30.023   2.237
35061W        W96592   9.218  38.823  13.960
35062W        W96593  14.309  38.462   3.231
35063W        W96594  25.568  18.708   4.337
35064W        W96595  14.201  21.633  10.482
35065W        W96596  12.151  18.565   0.288
35066W        W96597  30.575   3.293  11.897
35067W        W96598  10.719   3.308  14.013
35068W        W96599  12.707  29.072   0.910
35069W        W96600  18.742  34.513  10.618
35070W        W96601  29.613  40.458  10.469
35071W        W96602  38.909  22.648  11.987
35072W        W96603  42.968  37.507   0.967
35073W        W96604  29.155  39.540   2.241
35074W        W96605  16.315  34.588   4.291
35075W        W96606  33.126  44.986   1.368
35076W        W96607  41.994  34.938   0.400
35077W        W96608  39.970  34.926  14.901
35078W        W96609  44.343  10.206   0.289
35079W        W96610  33.499  17.583  11.072
35080W        W96611  31.929  27.127   4.306
35081W        W96612  40.434   6.409  11.430
35082W        W96613   6.363  13.173  12.386
35083W        W96614  30.607  32.983   9.946
35084W        W96615  44.322   8.165   1.437
35085W        W96616  44.947  20.258   3.640
35086W        W96617  27.476  20.597   2.857
35087W        W96618  37.356  17.602   1.908
35088W        W96619   3.452  14.785  10.927
35089W        W96620  36.090  18.215   2.798
35090W        W96621   4.366  28.156  13.812
35091W        W96622  17.759  42.461   0.843
35092W        W96623   7.281  40.902  10.565
35093W        W96624  37.362  18.108  12.398
35094W        W96625  36.469   8.332   1.729
35095W        W96626  14.726  13.121  10.630
35096W        W96627  18.591  15.286  11.559
35097W        W96628   5.794  25.476  14.828
35098W        W96629  18.672  32.510   0.941
35099W        W96630  16.681  18.266  12.497
35100W        W96631   2.929  18.568  14.777
35101W        W96632  30.659  22.199  10.921
35102W        W96633  35.934  44.344   1.913
35103W        W96634  17.735  27.095  12.498
35104W        W96635  14.669  18.279  13.045
35105W        W96636  21.682  13.277  13.340
35106W        W96637  22.689  18.054  11.914
35107W        W96638   0.840   1.873   4.806
35108W        W96639  24.148  21.172  11.388
35109W        W96640  25.075  27.076   3.267
35110W        W96641   5.409  41.925   0.749
35111W        W96642  22.539  24.536  13.962
35112W        W96643  11.722  44.955   0.934
35113W        W96644  38.389   6.888   3.634
35114W        W96645  36.434  16.625  12.862
35115W        W96646  18.174  13.250   2.207
35116W        W96647  30.085  15.319  13.994
35117W        W96648  24.043  26.574   5.123
35118W        W96649  37.871  40.303   2.829
35119W        W96650   0.261  43.994  12.435
35120W        W96651   5.864  32.031   1.749
35121W        W96652  37.354  21.111  13.942
35122W        W96653  36.518  20.749  12.463
35123W        W96654  44.770  25.058   2.289
35124W        W96655  42.335  31.603   0.745
35125W        W96656  17.294   7.898   1.370
35126W        W96657   2.281  41.411   4.713
35127W        W96658  19.046  23.586  11.949
35128W        W96659  15.807  40.493   3.785
35129W        W96660  25.661  23.672  13.836
35130W        W96661  33.440   4.746   3.686
35131W        W96662  16.286  20.156  11.412
35132W        W96663  40.394   6.892   3.304
35133W        W96664  37.491  12.813   3.645
35134W        W96665   6.396   8.249  12.537
35135W        W96666  25.537  40.992   3.733
35136W        W96667   5.928  10.775  13.524
35137W        W96668  35.539  14.641  12.527
35138W        W96669  41.962  21.514   2.225
35139W        W96670   9.737   3.913  14.865
35140W        W96671  41.445  32.587   3.747
35141W        W96672  16.237   4.407   3.363
35142W        W96673  30.597  27.458   4.601
35143W        W96674  19.283   9.368  10.536
35144W        W96675  12.797   6.298  11.443
35145W        W96676  17.793  33.535  11.548
35146W        W96677   1.832  24.133   1.326
35147W        W96678   2.446  20.704  12.384
35148W        W96679   0.760  28.573  12.561
35149W        W96680  17.651  33.988   2.838
35150W        W96681  21.211  39.894  12.045
35151W        W96682  27.080  18.161   4.786
35152W        W96683  43.516   8.249   0.918
35153W        W96684  39.526   4.824   4.791
35154W        W96685  20.190  18.788  12.525
35155W        W96686  11.317  17.246   0.323
35156W        W96687  25.001  23.073  13.454
35157W        W96688   7.712  33.018   3.374
35158W        W96689  22.234   7.220   1.824
35159W        W96690  10.765  20.211  11.929
35160W        W96691  43.432  18.078  12.953
35161W        W96692  18.213  43.934   0.261
35162W        W96693  44.917  14.608   2.831
35163W        W96694   0.319  42.417   4.245
35164W        W96695   1.767  35.928   0.792
35165W        W96696  37.021  13.283  10.912
35166W        W96697  37.917  27.981  11.094
35167W        W96698  44.275  33.592   9.933
35168W        W96699  29.517   0.433   0.950
35169W        W96700  42.333  38.955   0.266
35170W        W96701  43.792  41.014   4.802
35171W        W96702  42.419   5.437   3.320
35172W        W96703  28.019  22.521   4.247
35173W        W96704  13.690  40.893   3.751
35174W        W96705  34.891  33.428  12.935
35175W        W96706  10.842  22.152   0.753
35176W        W96707  40.333   0.815   2.185
35177W        W96708   8.178  41.866   3.775
35178W        W96709  18.707   9.340   2.381
35179W        W96710  22.611  35.580  11.993
35180W        W96711  19.102  36.931   9.941
35181W        W96712  12.743  25.620  12.364
35182W        W96713  41.404  29.442   3.327
35183W        W96714  42.802  10.692  11.418
35184W        W96715  23.733  11.627  14.301
35185W        W96716  10.875  40.976  12.833
35186W        W96717   4.346   6.874  12.355
35187W        W96718   2.294  15.661  12.056
35188W        W96719   6.742  31.060   2.764
35189W        W96720  25.022  32.562  14.976
35190W        W96721  31.897  32.499   4.748
35191W        W96722  37.911  29.618   4.146
35192W        W96723  28.482  26.588   3.664
35193W        W96724  41.925   0.265   4.130
35194W        W96725  36.456  12.611   1.411
35195W        W96726  10.736  42.018  13.362
35196W        W96727  39.002  40.805   0.307
35197W        W96728  18.181  41.897  11.067
35198W        W96729   5.278  20.204   4.619
35199W        W96730   1.368  23.587  13.945
35200W        W96731   2.868   3.288   3.296
35201W        W96732  32.543  30.574  14.864
35202W        W96733  39.487  39.362  13.017
35203W        W96734  31.560  11.846   4.780
35204W        W96735  36.845   5.934   2.293
35205W        W96736  24.072  11.187  12.366
35206W        W96737   5.716  41.466  10.498
35207W        W96738  24.032  34.868   0.815
35208W        W96739  38.947  37.075   4.153
35209W        W96740  15.145  39.385  11.952
35210W        W96741  15.580  39.418   4.332
35211W        W96742  32.964  44.869   3.153
35212W        W96743   2.958   2.765  13.809
35213W        W96744  20.688  26.689   4.273
35214W        W96745  27.450  40.364  11.476
35215W        W96746  19.644   9.348   1.769
35216W        W96747  31.624   4.803  12.953
35217W        W96748  16.262  44.978   2.753
35218W        W96749   5.692  23.141   4.126
35219W        W96750  14.304  43.466   1.296
35220W        W96751  17.209  13.154  13.388
35221W        W96752  33.005  36.924   0.454
35222W        W96753  33.587  33.083  11.893
35223W        W96754   5.832  23.226   0.776
35224W        W96755  18.164   7.358  14.788
35225W        W96756  36.857  17.757  13.984
35226W        W96757  35.528  22.509   2.880
35227W        W96758   7.261  14.330  13.470
35228W        W96759  34.897   2.793  12.847
35229W        W96760  41.498  35.421   1.282
35230W        W96761   3.730  43.447   4.730
35231W        W96762   2.756   1.915   4.131
35232W        W96763  16.233   5.401   0.316
35233W        W96764  33.900  36.885  11.907
35234W        W96765  23.109  10.211  11.441
35235W        W96766  26.195  25.633  13.868
35236W        W96767  29.038   7.217  11.994
35237W        W96768  34.434  13.147   2.207
35238W        W96769   1.330   8.214   1.824
35239W        W96770  12.338  26.634  13.403
35240W        W96771  28.037  39.390   1.829
35241W        W96772   6.918  11.285  12.008
35242W        W96773  35.952  41.411  10.035
35243W        W96774  37.087  26.571  13.816
35244W        W96775  25.070  14.728   4.637
35245W        W96776  24.597  20.522  11.069
35246W        W96777  27.524  34.109  13.998
35247W        W96778   6.409  29.531  14.436
35248W        W96779  30.949  35.368   2.757
35249W        W96780   9.386  17.656  14.942
35250W        W96781  24.495   1.361   0.891
35251W        W96782  39.953  31.524  12.442
35252W        W96783  40.972   1.333   2.741
35253W        W96784  18.159   9.240   3.201
35254W        W96785  26.195  12.155   1.371
35255W        W96786  10.666  30.134   0.794
35256W        W96787  26.550  24.698   0.242
35257W        W96788  27.650  21.078   3.190
35258W        W96789  42.408  44.828   1.910
35259W        W96790  26.064  28.144  14.815
35260W        W96791  44.429  26.096   3.160
35261W        W96792  31.569  37.472  11.451
35262W        W96793  29.648   8.878  13.418
35263W        W96794  26.486  25.022  13.452
35264W        W96795  28.184  36.033  11.867
35265W        W96796   3.921  42.494  11.520
35266W        W96797   4.820  28.622   3.382
35267W        W96798   8.339  25.561  12.859
35268W        W96799  29.663   1.397  13.414
35269W        W96800  33.111  43.769   2.688
35270W        W96801  22.545   5.722  13.393
35271W        W96802   2.853  20.261  10.985
35272W        W96803  12.637  23.622   4.118
35273W        W96804  32.038   1.377   0.896
35274W        W96805  40.371  26.967   1.820
35275W        W96806  38.345   6.824   2.347
35276W        W96807  10.849  44.395   3.188
35277W        W96808   8.830   4.942   3.316
35278W        W96809  38.057  13.669  11.482
35279W        W96810  40.928  36.046  13.831
35280W        W96811  41.986  35.583  12.530
35281W        W96812  44.998  23.197   2.207
35282W        W96813  44.760  42.347   4.211
35283W        W96814  22.067  18.126   4.253
35284W        W96815  21.217  19.047  11.049
35285W        W96816  26.172   6.209  11.871
35286W        W96817  42.524  12.132   2.333
35287W        W96818   8.246   3.786  11.489
35288W        W96819  27.121  11.132  11.611
35289W        W96820  13.107  32.988   1.292
35290W        W96821  15.187   5.330   1.367
35291W        W96822  27.037  40.908   0.407
35292W        W96823  34.027   3.822  12.028
35293W        W96824  32.610  33.932   4.343
35294W        W96825  19.735  38.430   1.303
35295W        W96826   4.829  20.069  10.616
35296W        W96827   4.278  19.686  11.999
35297W        W96828  14.706  14.735  10.418
35298W        W96829   7.873  34.417  10.506
35299W        W96830  20.639  42.806  14.862
35300W        W96831  37.528  31.427  11.119
35301W        W96832  28.643  22.669   1.319
35302W        W96833  15.628  43.455   2.741
35303W        W96834   7.264   8.322  14.932
35304W        W96835  27.061   6.236   4.791
35305W        W96836  37.552  14.206  11.864
35306W        W96837  40.003  27.650   3.686
35307W        W96838  31.481  34.915  14.369
35308W        W96839  21.735  24.050  13.873
35309W        W96840  25.696   1.899   4.681
35310W        W96841  21.527  15.139   1.347
35311W        W96842  33.047   7.251  11.524
35312W        W96843  32.000   0.905  13.401
35313W        W96844  39.863  34.030  14.792
35314W        W96845  43.374  35.089   2.330
35315W        W96846  38.050   2.440   3.716
35316W        W96847  17.179  34.098  11.936
35317W        W96848  15.264  11.836   0.389
35318W        W96849   0.442   1.845  12.385
35319W        W96850  14.768   0.314   4.727
35320W        W96851   6.882  17.214   1.364
35321W        W96852  29.534  20.706  14.918
35322W        W96853   0.357  19.607   0.268
35323W        W96854   1.904  44.430  10.427
35324W        W96855  39.967  15.197   1.411
35325W        W96856  40.376  17.097   2.340
35326W        W96857   6.769   5.293   3.801
35327W        W96858  26.117  13.139   1.740
35328W        W96859  44.934  40.375  10.991
35329W        W96860  16.791  15.719  11.519
35330W        W96861  38.048  40.819   5.109
35331W        W96862  26.550   6.815   1.755
35332W        W96863  38.358  11.372   2.348
35333W        W96864   5.803  27.072  12.362
35334W        W96865  44.958   1.904   2.740
35335W        W96866  43.332  23.005  12.857
35336W        W96867  28.644   7.868   2.212
35337W        W96868   5.192  13.144   4.687
35338W        W96869  29.972  27.143   3.248
35339W        W96870  18.549  22.181  14.003
35340W        W96871   8.302   0.310  11.974
35341W        W96872  24.132  37.952   2.888
35342W        W96873   1.353  37.876  14.783
35343W        W96874  39.028  12.688  13.800
35344W        W96875  36.046  16.141   3.178
35345W        W96876  25.539  33.615  11.033
35346W        W96877  29.982  14.101   3.833
35347W        W96878  28.073  27.195  11.560
35348W        W96879  24.665  33.408   4.818
35349W        W96880   3.269  21.691   2.899
35350W        W96881  30.578  27.179  10.440
35351W        W96882   6.903  11.171  14.323
35352W        W96883  27.943  24.035   2.841
35353W        W96884  30.532   2.803  11.898
35354W        W96885  43.904  30.552  12.353
35355W        W96886  15.738  19.196  14.855
35356W        W96887  10.736  12.308   3.303
35357W        W96888   4.391  33.480   0.462
35358W        W96889  38.941  36.389   4.684
35359W        W96890   3.358  43.411   1.867
35360W        W96891  18.124  19.223   1.405
35361W        W96892   4.704  38.498   3.760
35362W        W96893  24.082  10.253  11.591
35363W        W96894  40.404  18.597   2.299
35364W        W96895  43.374  30.914   2.713
35365W        W96896  36.518  14.105   1.379
35366W        W96897  15.794   7.361  12.918
35367W        W96898  33.017  35.996   3.711
35368W        W96899  10.812   2.809   0.858
35369W        W96900  44.917  23.676  10.433
35370W        W96901  18.740  33.074   4.817
35371W        W96902   5.752  19.740   3.190
35372W        W96903  37.956  39.356   2.200
35373W        W96904  38.427   2.745  11.082
35374W        W96905   5.346   6.410   2.789
35375W        W96906  31.476  17.692   3.344
35376W        W96907   3.908   2.832  12.918
35377W        W96908   9.706  20.627  12.095
35378W        W96909   7.824  34.957   2.208
35379W        W96910  31.436   0.761   3.230
35380W        W96911  13.710   4.388   1.210
35381W        W96912  21.623  43.935  11.378
35382W        W96913  40.832  34.965  12.544
35383W        W96914  21.516  32.066   4.297
35384W        W96915  26.608  35.554   0.824
35385W        W96916  18.650  36.841   3.820
35386W        W96917  21.091  32.489  11.483
35387W        W96918   4.327  36.086  12.423
35388W        W96919   1.866  28.505   4.719
35389W        W96920  14.690  19.551  13.909
35390W        W96921  29.514  36.554   1.338
35391W        W96922  18.226  29.053   0.390
35392W        W96923  22.046  23.543   2.857
35393W        W96924   5.871  20.588  11.602
35394W        W96925  20.173  24.068   4.667
35395W        W96926  32.632  24.607  11.519
35396W        W96927   5.830  41.038  10.965
35397W        W96928   7.909  32.569  13.508
35398W        W96929  43.915  26.100   1.448
35399W        W96930   5.689  35.991   1.930
35400W        W96931  33.093  38.364   2.812
35401W        W96932  14.612  27.622  10.893
35402W        W96933  36.881  29.572   2.696
35403W        W96934  20.223  24.679   1.451
35404W        W96935   4.391  12.692  11.606
35405W        W96936   1.763  13.664   1.928
35406W        W96937  10.779  36.061  13.917
35407W        W96938  27.063   5.873  12.535
35408W        W96939  25.495   9.237  12.529
35409W        W96940   9.361  20.075  11.989
35410W        W96941  32.070   6.330   0.949
35411W        W96942  26.484   9.759  10.501
35412W        W96943   8.724  39.898  10.915
35413W        W96944  17.306  41.443   2.220
35414W        W96945   6.292  20.686   1.330
35415W        W96946   7.815  25.481   1.861
35416W        W96947  21.557   2.285   2.258
35417W        W96948  16.675  37.338  11.092
35418W        W96949  39.046  32.516   3.257
35419W        W96950  27.161  26.964  13.871
35420W        W96951  10.171  32.000  10.891
35421W        W96952  12.822  35.876   1.403
35422W        W96953  44.986   0.896  12.486
35423W        W96954  26.570   8.691   3.822
35424W        W96955  23.610  42.465   2.198
35425W        W96956  27.124  44.405  11.387
35426W        W96957  42.429  22.072  12.424
35427W        W96958  36.063  16.250  11.900
35428W        W96959  23.589  31.613  10.572
35429W        W96960  23.708   0.320  13.491
35430W        W96961  32.020  31.005   1.836
35431W        W96962   3.836  27.607  12.493
35432W        W96963  40.316  40.475  12.019
35433W        W96964  29.030  25.184  13.478
35434W        W96965  38.830  11.732   4.739
35435W        W96966  29.946   5.320  13.848
35436W        W96967  22.562  23.147  10.942
35437W        W96968  28.543  37.890  13.324
35438W        W96969  23.074  28.935   2.708
35439W        W96970   0.279  10.801  13.895
35440W        W96971  29.117   8.825   2.208
35441W        W96972  13.798  38.829  10.547
35442W        W96973  15.700   9.792   4.159
35443W        W96974  31.416  29.536  12.937
35444W        W96975  41.292  11.258  10.082
35445W        W96976  40.483  21.248  11.598
35446W        W96977  28.629  16.219   0.341
35447W        W96978  33.877  16.245   4.343
35448W        W96979  13.804  15.749  12.886
35449W        W96980   9.157  29.008   3.259
35450W        W96981  29.976   8.873   3.284
35451W        W96982  13.163  24.979  12.842
35452W        W96983  30.090   2.868  10.560
35453W        W96984  14.287   0.417  12.451
35454W        W96985  31.613  23.072   1.807
35455W        W96986  35.473  35.537  13.973
35456W        W96987  17.739  28.088  11.090
35457W        W96988  10.285  29.449  11.891
35458W        W96989  42.948   9.864  12.861
35459W        W96990  27.644  42.367  12.579
35460W        W96991  16.174  28.009  14.875
35461W        W96992  38.560   1.780  13.323
35462W        W96993  38.521  39.410   0.803
35463W        W96994   7.909   4.719  13.472
35464W        W96995  12.681  33.558   0.832
35465W        W96996  43.353  17.590   1.857
35466W        W96997  31.908   6.831  12.987
35467W        W96998  31.552  12.829   2.872
35468W        W96999  17.773  29.493  14.005
35469W        W97000   2.325  42.873   9.965
35470W        W97001  37.569  39.349   3.252
35471W        W97002  26.973   3.880  10.970
35472W        W97003  35.381  41.039   4.138
35473W        W97004  31.564  43.451   4.692
35474W        W97005  20.588  43.944   0.886
35475W        W97006  25.705  24.676   1.855
35476W        W97007  15.173   3.294   1.448
35477W        W97008  27.492  28.643  10.956
35478W        W97009  43.853  23.495  11.571
35479W        W97010  40.531  41.512  10.987
35480W        W97011  37.965   5.435  14.429
35481W        W97012  11.668  40.843   2.778
35482W        W97013  20.228  19.150   2.282
35483W        W97014  37.922  40.885   4.289
35484W        W97015  20.573   6.254   3.328
35485W        W97016  15.288   4.791   1.726
35486W        W97017   0.840  20.596  14.320
35487W        W97018  40.323  33.889   1.393
35488W        W97019  37.035  30.131  11.111
35489W        W97020  20.182  43.012  12.539
35490W        W97021  31.969  28.059  14.894
35491W        W97022   3.350  10.679   0.343
35492W        W97023  33.068   5.352  11.569
35493W        W97024  32.563  36.929   4.616
35494W        W97025   3.399  40.031   4.282
35495W        W97026  36.398  14.811   4.333
35496W        W97027   3.239  41.917  11.576
35497W        W97028  42.387  23.045   0.948
35498W        W97029  34.014  11.845  13.475
35499W        W97030  17.781  28.957   3.252
35500W        W97031  33.567   0.380  10.584
35501W        W97032  23.176  43.502   2.419
35502W        W97033  38.972  13.762  11.091
35503W        W97034  28.504  29.476   2.688
35504W        W97035  21.675  13.202  11.986
35505W        W97036  23.577  41.507   4.805
35506W        W97037  22.216  32.889  10.554
35507W        W97038   4.343  14.808   3.172
35508W        W97039  30.503  19.593   4.116
35509W        W97040  12.722   8.719  14.970
35510W        W97041  19.046  15.262  13.539
35511W        W97042   7.297  19.757  14.826
35512W        W97043  44.799  28.621  11.049
35513W        W97044  34.514  42.007  14.322
35514W        W97045  42.801  26.535  10.919
35515W        W97046   4.252  17.286   3.316
35516W        W97047  32.017   3.297  13.379
35517W        W97048  34.060  16.258  11.071
35518W        W97049  20.710  30.492  14.002
35519W        W97050  29.480   6.869  14.882
35520W        W97051   7.802  34.929   1.726
35521W        W97052  14.153  25.694  10.411
35522W        W97053  21.578   7.749   1.236
35523W        W97054  37.556  13.136   5.110
35524W        W97055  26.485  22.137   2.363
35525W        W97056   3.955  29.617   1.769
35526W        W97057  14.747  29.147  10.537
35527W        W97058  24.625  35.041  14.287
35528W        W97059  29.941  39.057   0.456
35529W        W97060  38.893  11.804  12.020
35530W        W97061  30.577   7.896  11.598
35531W        W97062  13.198  10.259   0.768
35532W        W97063   5.866   6.816   2.749
35533W        W97064  31.082  32.136  10.473
35534W        W97065   1.910  30.504   4.810
35535W        W97066   6.832  42.785  13.546
35536W        W97067   4.760  10.268  12.018
35537W        W97068  29.585   6.748  10.067
35538W        W97069  26.496  19.561  11.092
35539W        W97070  25.569  23.191  12.979
35540W        W97071   1.342  30.609   0.936
35541W        W97072  14.277  19.155   0.442
35542W        W97073  30.054  14.233  12.544
35543W        W97074  17.166  25.478  14.927
35544W        W97075   4.792  42.484  11.383
35545W        W97076  34.389  42.795  12.937
35546W        W97077  31.000  32.091   2.350
35547W        W97078  31.029  28.992  10.608
35548W        W97079  14.267   1.388   4.713
35549W        W97080  33.409  42.779   2.375
35550W        W97081   1.864  15.154   1.769
35551W        W97082  32.564  42.892  14.956
35552W        W97083  41.530   9.193   4.688
35553W        W97084  27.626   4.237   3.803
35554W        W97085  13.145  24.591   2.196
35555W        W97086   5.223   8.884  11.925
35556W        W97087  15.199  35.497  12.345
35557W        W97088  18.213   8.236  14.414
35558W        W97089  10.868   5.837  11.596
35559W        W97090  33.618  18.770   4.778
35560W        W97091  25.993  33.558  12.911
35561W        W97092   8.236   8.780  12.553
35562W        W97093  22.075  43.804   3.719
35563W        W97094  13.264  15.820  11.058
35564W        W97095  27.195  41.909   3.213
35565W        W97096  43.422  38.873   2.748
35566W        W97097  15.143  17.751  10.891
35567W        W97098  17.661  18.254   2.204
35568W        W97099   1.303   3.422   1.391
35569W        W97100  39.000  20.524   3.641
35570W        W97101  36.004  37.850  12.537
35571W        W97102  39.834   4.754   4.125
35572W        W97103  36.351  33.488   4.821
35573W        W97104  26.679  18.294   9.946
35574W        W97105  12.746  13.805  12.946
35575W        W97106  36.085  39.422  13.888
35576W        W97107  13.176  31.526  14.357
35577W        W97108  18.099  18.632  13.356
35578W        W97109  30.148  30.965  14.355
35579W        W97110  40.994  22.023   0.755
35580W        W97111   0.435  21.109   1.697
35581W        W97112  28.454  31.588  14.330
35582W        W97113  12.307  35.396   1.735
35583W        W97114  32.076  43.903   5.128
35584W        W97115  38.458  12.144  10.075
35585W        W97116  16.682  24.569   2.843
35586W        W97117  37.859  38.391   2.394
35587W        W97118  23.513  21.660  10.483
35588W        W97119  26.671   5.896  10.024
35589W        W97120  42.018  34.094  12.340
35590W        W97121  26.678  38.875  14.373
35591W        W97122  21.631  43.010   1.259
35592W        W97123  23.726  33.511  13.841
35593W        W97124  33.526  37.475  11.988
35594W        W97125   8.796   9.864  12.086
35595W        W97126  40.007  16.290   3.707
35596W        W97127  39.954  42.498   4.741
35597W        W97128  21.652  20.664   4.643
35598W        W97129  14.294  17.075  11.090
35599W        W97130  40.517  26.522  14.924
35600W        W97131  44.803  14.253  11.114
35601W        W97132  36.450  17.769   4.660
35602W        W97133  36.941  19.621  14.419
35603W        W97134  34.915  34.917  13.999
35604W        W97135  12.714  35.472  11.952
35605W        W97136  44.371  44.833  13.523
35606W        W97137  15.721  23.125   1.427
35607W        W97138   3.771  26.602   4.297
35608W        W97139  21.593  39.452  14.806
35609W        W97140  32.557  17.588   0.409
35610W        W97141   0.919  18.619   0.734
35611W        W97142  40.845   9.750   0.406
35612W        W97143   5.857  15.198  11.067
35613W        W97144   5.254  19.109  11.979
35614W        W97145  33.100  43.972   0.897
35615W        W97146  37.434  38.565   9.542
35616W        W97147  21.091  37.356   3.749
35617W        W97148  35.937   6.196   0.244
35618W        W97149   6.232  23.643   0.395
35619W        W97150   1.840  43.833  11.537
35620W        W97151  21.704  41.498  10.566
35621W        W97152  12.783   2.312   3.636
35622W        W97153  17.767  28.614   2.301
35623W        W97154   5.761  11.770   3.228
35624W        W97155  20.164  33.959   0.317
35625W        W97156   4.794   0.808   1.341
35626W        W97157  25.592  23.133  11.855
35627W        W97158   3.433  33.997   1.236
35628W        W97159   7.747  22.735  13.342
35629W        W97160  15.309  12.852  14.337
35630W        W97161  12.722   9.844  14.419
35631W        W97162  24.132  42.520   0.750
35632W        W97163  22.579  41.464   2.863
35633W        W97164   2.788  22.141   1.850
35634W        W97165  22.738  44.947  13.369
35635W        W97166   1.735  21.638  10.538
35636W        W97167  39.845  29.545  11.374
35637W        W97168  10.830  42.878   1.749
35638W        W97169  21.102   9.711   0.740
35639W        W97170  43.353  21.084  11.033
35640W        W97171  13.760   7.803   3.364
35641W        W97172  19.597  29.918   1.409
35642W        W97173  17.753  18.624  14.367
35643W        W97174  37.042  43.833   0.768
35644W        W97175  10.179  36.437  11.524
35645W        W97176  43.488  34.376  10.920
35646W        W97177  23.527   9.835  13.310
35647W        W97178  10.831  24.586  10.507
35648W        W97179  37.990   5.434   2.304
35649W        W97180   7.795   2.412   3.810
35650W        W97181  42.979   8.366  10.453
35651W        W97182   6.738  25.489  12.395
35652W        W97183  33.411  34.456   1.435
35653W        W97184   9.161  41.376  12.575
35654W        W97185  24.207  37.555   1.713
35655W        W97186  11.816   7.407   5.212
35656W        W97187   4.838  33.051  10.002
35657W        W97188   7.382  30.135  14.995
35658W        W97189   5.694  17.061   3.351
35659W        W97190  28.024  37.357  13.842
35660W        W97191  27.591   0.266  13.493
35661W        W97192  13.836  41.328  12.363
35662W        W97193   6.859  22.078  11.548
35663W        W97194  15.262  34.410   2.328
35664W        W97195  33.956  28.580  11.405
35665W        W97196   0.324  38.010  12.054
35666W        W97197  22.531   3.883  12.825
35667W        W97198  16.707  38.330   4.267
35668W        W97199  16.770  25.700  13.395
35669W        W97200   7.270  32.040  14.380
35670W        W97201  20.563  35.429  12.564
35671W        W97202  27.564  36.883   3.860
35672W        W97203   8.771   6.833  13.853
35673W        W97204   0.380  23.511  13.955
35674W        W97205  39.379  38.844   0.945
35675W        W97206  24.124  28.964  13.823
35676W        W97207  33.940  28.041   2.820
35677W        W97208   3.421  32.447   4.768
35678W        W97209  26.089  31.455  13.465
35679W        W97210  34.527  31.553   0.804
35680W        W97211  34.403  17.171   3.635
35681W        W97212  23.521   8.359   0.479
35682W        W97213  30.958  12.255   4.202
35683W        W97214   6.267  41.863  10.987
35684W        W97215   7.245  22.624   1.838
35685W        W97216   7.284  15.807  14.032
35686W        W97217  36.939  19.173   2.769
35687W        W97218  44.468  11.714  13.955
35688W        W97219   2.462  33.081   1.277
35689W        W97220  39.480  44.443  14.018
35690W        W97221  26.498   5.428   4.674
35691W        W97222  35.897   4.249   3.817
35692W        W97223  24.692  42.932   0.828
35693W        W97224  11.646  31.014   2.413
35694W        W97225  20.219  25.697   4.626
35695W        W97226  41.993  19.048  11.063
35696W        W97227  25.489  32.545   5.752
35697W        W97228  39.900   3.251  14.324
35698W        W97229  42.982  12.261  14.829
35699W        W97230  16.179   9.877   3.794
35700W        W97231  29.471  44.358   2.841
35701W        W97232  40.981  43.438  14.357
35702W        W97233  30.076  38.522  13.959
35703W        W97234  24.496   8.667  12.495
35704W        W97235  13.215  32.967   9.926
35705W        W97236  24.675  34.968   1.434
35706W        W97237  28.005  35.110  12.044
35707W        W97238  29.007  24.684   1.248
35708W        W97239  39.904  43.510  11.455
35709W        W97240  12.327  27.532  13.314
35710W        W97241  12.805  32.520   4.676
35711W        W97242  21.105  43.880   2.391
35712W        W97243  30.630  33.384   2.739
35713W        W97244   6.723  40.857  14.871
35714W        W97245  33.556  36.870  12.083
35715W        W97246  29.949   8.888  12.533
35716W        W97247  36.867  17.135   1.727
35717W        W97248  21.727  16.661   2.664
35718W        W97249   7.828  37.846  10.905
35719W        W97250  10.156  29.958   2.343
35720W        W97251  42.403   6.252   1.865
35721W        W97252  17.162   3.389   5.113
35722W        W97253  20.150   4.346  13.897
35723W        W97254  18.073  15.272  13.969
35724W        W97255  10.683  42.822  10.974
35725W        W97256  11.627  26.049   1.444
35726W        W97257  30.638  44.478  10.455
35727W        W97258  30.922  15.594   4.296
35728W        W97259  13.349  27.111  12.885
35729W        W97260  29.510  36.402   0.932
35730W        W97261   6.294  43.462  14.767
35731W        W97262   2.382   2.315  10.547
35732W        W97263  28.942  26.655  13.427
35733W        W97264   7.712  30.936  11.613
35734W        W97265  37.543  27.040   0.880
35735W        W97266  26.680  28.100  11.514
35736W        W97267   4.828  24.114  13.060
35737W        W97268  11.823  38.933  14.950
35738W        W97269  27.470  10.676   2.895
35739W        W97270   7.789  32.412  12.562
35740W        W97271  22.677   8.760  14.324
35741W        W97272  44.357  12.753   4.229
35742W        W97273  13.769  17.195  11.934
35743W        W97274  38.961  14.307   4.336
35744W        W97275  42.817  24.220   4.253
35745W        W97276  17.642  35.886  13.533
35746W        W97277  43.949  42.526  12.951
35747W        W97278   9.217  15.158   0.294
35748W        W97279  31.576  33.994   4.237
35749W        W97280   7.759   1.416   5.113
35750W        W97281   1.918   7.271   3.203
35751W        W97282   7.405  16.709   4.319
35752W        W97283  19.739  40.385  14.504
35753W        W97284  25.995  37.474   1.402
35754W        W97285  20.163  21.688   4.214
35755W        W97286  27.480  16.608  14.387
35756W        W97287   1.433  30.517  14.411
35757W        W97288   4.395  39.988   0.763
35758W        W97289  18.253  20.094  14.999
35759W        W97290  44.905   9.368  10.514
35760W        W97291  10.352  10.756  14.369
35761W        W97292  27.517  23.071   0.408
35762W        W97293   3.941  19.059   4.680
35763W        W97294  28.023  38.010  11.446
35764W        W97295  30.539  13.226   4.642
35765W        W97296  37.521  30.572  14.865
35766W        W97297  13.656  34.463   1.375
35767W        W97298  14.803   7.875  12.562
35768W        W97299  24.569  16.675   4.225
35769W        W97300  28.971  31.416   4.146
35770W        W97301  39.877  24.592  10.910
35771W        W97302   9.175  11.267  14.346
35772W        W97303  12.787  25.500   0.290
35773W        W97304  19.282   6.759   4.204
35774W        W97305  42.844  43.495  10.489
35775W        W97306  14.682  13.137   1.237
35776W        W97307  44.001   5.390   0.961
35777W        W97308  29.590  10.669  13.405
35778W        W97309   8.688  41.858  10.999
35779W        W97310  39.003  11.748  12.359
35780W        W97311  26.031  11.277   0.417
35781W        W97312  28.476  21.230  11.958
35782W        W97313   2.370   1.825  10.581
35783W        W97314  20.649  43.314   2.763
35784W        W97315  26.043  25.696   4.800
35785W        W97316  31.547  13.193   3.212
35786W        W97317  40.963  12.142  13.504
35787W        W97318   0.917  30.549   3.353
35788W        W97319  14.728  18.762  13.842
35789W        W97320  43.951  44.439  11.103
35790W        W97321  40.546  34.960  10.479
35791W        W97322  28.060  24.061  14.325
35792W        W97323   9.880  16.754   4.160
35793W        W97324   8.810  38.845   3.731
35794W        W97325   9.320   5.289  11.475
35795W        W97326  43.882  42.453  14.925
35796W        W97327  34.486  43.857  10.992
35797W        W97328  17.585  40.437   4.727
35798W        W97329  32.008  40.363  14.811
35799W        W97330   2.336  21.699   0.361
35800W        W97331  29.647  33.587  13.054
35801W        W97332   0.263  39.921  12.975
35802W        W97333  22.735   0.749  11.584
35803W        W97334   9.676  39.354   1.341
35804W        W97335   9.798  29.610  13.012
35805W        W97336  12.654   2.765   0.333
35806W        W97337  31.637  40.859  11.118
35807W        W97338  44.774   2.463  12.406
35808W        W97339   8.204  17.744   2.733
35809W        W97340  16.764  22.051  14.499
35810W        W97341  13.727   8.366   2.860
35811W        W97342  10.868  37.053  13.993
35812W        W97343   9.654  12.828  12.481
35813W        W97344  44.941  40.310  13.831
35814W        W97345  26.165  18.095   4.336
35815W        W97346   8.663  32.001   0.875
35816W        W97347  14.741  15.311  11.596
35817W        W97348  27.134  14.168  14.433
35818W        W97349   0.428   3.860  14.411
35819W        W97350  10.354   8.773  11.073
35820W        W97351  22.553  30.030  11.594
35821W        W97352  30.050  15.229  10.143
35822W        W97353   9.804  37.484  11.409
35823W        W97354  24.190  29.558  11.573
35824W        W97355  25.125   0.451   0.886
35825W        W97356  36.466  18.560  13.057
35826W        W97357   2.905  28.074   2.305
35827W        W97358  43.847  28.502   2.865
35828W        W97359  38.329  40.850  12.382
35829W        W97360  39.010   1.372  12.475
35830W        W97361   3.248  23.654  14.492
35831W        W97362  26.638   7.880   2.287
35832W        W97363  15.256  28.065  14.390
35833W        W97364  39.540  44.948   0.856
35834W        W97365  37.024  25.109  11.971
35835W        W97366  41.028  18.160  11.101
35836W        W97367  16.252   7.361  14.002
35837W        W97368  26.046   2.342  11.593
35838W        W97369   4.727   9.254  14.378
35839W        W97370  43.788  33.572   1.899
35840W        W97371  11.681   8.343  13.945
35841W        W97372   0.973  38.340   2.358
35842W        W97373  33.536  14.131   4.142
35843W        W97374  27.523   9.865   5.094
35844W        W97375  27.977   0.458   3.329
35845W        W97376  16.717  10.788   1.275
35846W        W97377  18.116  10.811  13.816
35847W        W97378   1.433   3.232  12.403
35848W        W97379  19.284   4.352   1.451
35849W        W97380  15.201  18.258   1.910
35850W        W97381  26.076  36.972  10.484
35851W        W97382  27.584  43.516  11.012
35852W        W97383  10.759  43.903  14.012
35853W        W97384  32.957   0.832  13.369
35854W        W97385  25.195  40.981   0.873
35855W        W97386  17.228  33.922  11.453
35856W        W97387  29.490  38.371  10.592
35857W        W97388   6.195  40.312   3.727
35858W        W97389  14.789  42.431   1.886
35859W        W97390  24.040  28.969   9.922
35860W        W97391  26.566  12.752   2.295
35861W        W97392  22.588  11.784  14.285
35862W        W97393   1.857  28.623  11.058
35863W        W97394  22.699   3.342  11.985
35864W        W97395  28.113  14.671  11.604
35865W        W97396  25.132  13.814   2.706
35866W        W97397  11.131   0.941   5.299
35867W        W97398  11.259  16.797  10.484
35868W        W97399  17.189  37.377   4.673
35869W        W97400  27.484  20.090   3.168
35870W        W97401  13.123  43.905  10.991
35871W        W97402  19.576  25.472  14.967
35872W        W97403  21.248  17.166  11.036
35873W        W97404   2.784  15.642   0.945
35874W        W97405  35.873  40.837  14.460
35875W        W97406   9.815   4.744  11.488
35876W        W97407  39.001  10.751   3.658
35877W        W97408  14.719  15.707  13.000
35878W        W97409  34.547  29.509   0.482
35879W        W97410  28.549  10.762  14.804
35880W        W97411   6.849  24.205  14.482
35881W        W97412   5.385  44.362  13.349
35882W        W97413  35.977  14.329   0.460
35883W        W97414  12.706  28.994   2.342
35884W        W97415  13.338  27.995   0.249
35885W        W97416  42.423  29.665  10.467
35886W        W97417  39.415  21.706   2.711
35887W        W97418  19.739   8.671  11.380
35888W        W97419   2.250   1.297  11.059
35889W        W97420   5.400  26.690  11.044
35890W        W97421   4.358  12.321   0.943
35891W        W97422  35.973  21.104  13.965
35892W        W97423  38.938  12.297  10.424
35893W        W97424  11.167   9.655  14.370
35894W        W97425  14.180  31.479   1.396
35895W        W97426  11.342  21.244   3.637
35896W        W97427  19.768  29.626   2.300
35897W        W97428  39.511  22.532   0.757
35898W        W97429  19.266  27.513   2.186
35899W        W97430  23.666  39.060   9.541
35900W        W97431  25.109   4.362  12.474
35901W        W97432   5.743   3.815  14.466
35902W        W97433   9.296  29.654  13.035
35903W        W97434   1.430   1.324  10.594
35904W        W97435   7.718   9.308   2.252
35905W        W97436  34.099  38.368  11.940
35906W        W97437  21.216  34.508   3.361
35907W        W97438  22.017  16.780  10.981
35908W        W97439   1.339  32.108  12.927
35909W        W97440   9.667   1.267  13.035
35910W        W97441  17.262  18.559  12.937
35911W        W97442   3.746  17.161   2.237
35912W        W97443  14.750  42.029  10.511
35913W        W97444  27.048  11.752   3.697
35914W        W97445   4.348   1.345   3.285
35915W        W97446  28.466  38.380   0.899
35916W        W97447   3.256  39.484   0.883
35917W        W97448  43.293  32.983   4.164
35918W        W97449  39.377   3.428  14.845
35919W        W97450   2.770  23.080  10.476
35920W        W97451  37.017  30.417   4.632
35921W        W97452  30.521  39.444   2.359
35922W        W97453  25.046  26.666  11.961
35923W        W97454   3.911  41.497   3.751
35924W        W97455  14.687  29.620   4.340
35925W        W97456  15.284  15.692  13.517
35926W        W97457   7.678  20.630   2.837
35927W        W97458  42.970   7.707   0.823
35928W        W97459  43.878  34.095   3.769
35929W        W97460  34.073  32.618   2.669
35930W        W97461  16.712  31.473  14.369
35931W        W97462  34.978  18.747  13.923
35932W        W97463   9.223  19.245  12.825
35933W        W97464  35.364   1.818  13.537
35934W        W97465   3.714   6.873   3.745
35935W        W97466  16.810  36.527   4.622
35936W        W97467   8.249   5.796  12.449
35937W        W97468  36.497  43.866  12.525
35938W        W97469  37.558  25.145   4.678
35939W        W97470  34.559   6.201  12.489
35940W        W97471  18.645   1.780  10.634
35941W        W97472  20.236  16.240  11.445
35942W        W97473  15.578  33.878  11.382
35943W        W97474  10.171  43.872   0.909
35944W        W97475  18.134  20.147   3.213
35945W        W97476  13.802   2.876   2.690
35946W        W97477   6.801   5.283  13.442
35947W        W97478  35.474  43.860   0.393
35948W        W97479  15.815  24.153  13.472
35949W        W97480  34.380  23.066   0.810
35950W        W97481  12.620   2.328  10.437
35951W        W97482   8.686  25.621  12.502
35952W        W97483  13.614  29.596   1.925
35953W        W97484  29.581  42.020  11.420
35954W        W97485  34.891  21.140  13.365
35955W        W97486   4.834   9.237  10.415
35956W        W97487  15.712  42.487   4.335
35957W        W97488  16.580  29.989  11.976
35958W        W97489  43.781  18.160   1.734
35959W        W97490  12.334  15.164  12.577
35960W        W97491  33.445  40.910  14.349
35961W        W97492  39.015  15.303   4.154
35962W        W97493  20.060  17.777  14.962
35963W        W97494   9.301  40.852  11.000
35964W        W97495  18.714  23.632  12.393
35965W        W97496  14.832  26.597  11.482
35966W        W97497   9.224  22.194   3.280
35967W        W97498  28.481   6.767   2.719
35968W        W97499  37.073  13.171  13.411
35969W        W97500   7.344  17.174  13.349
35970W        W97501   4.326  34.529   2.792
35971W        W97502   8.279  11.794  13.519
35972W        W97503  13.840  34.585   2.192
35973W        W97504  44.992  27.642   3.258
35974W        W97505   9.705   5.384  14.508
35975W        W97506  39.385  20.649   2.842
35976W        W97507  25.145   3.451   1.709
35977W        W97508   0.326   7.667   4.770
35978W        W97509  32.101  12.720   2.353
35979W        W97510   8.723  25.602   0.799
35980W        W97511  35.501   8.180   4.651
35981W        W97512  36.864  37.831  12.395
35982W        W97513   0.908  22.702  14.482
35983W        W97514  20.524  26.560  12.440
35984W        W97515   4.711  19.251  11.460
35985W        W97516  31.501  19.674  12.389
35986W        W97517  13.261  42.488  14.996
35987W        W97518   4.311  31.004  12.917
35988W        W97519  33.988  43.503  13.799
35989W        W97520  32.519  15.090   2.185
35990W        W97521   9.311  37.453   9.951
35991W        W97522  33.489  33.507  12.889
35992W        W97523  10.246   1.875  13.981
35993W        W97524   7.768  42.499   4.664
35994W        W97525   1.836  15.797  13.796
35995W        W97526  31.438   3.396   1.932
35996W        W97527  12.170   6.256  14.363
35997W        W97528   3.936  33.935  13.807
35998W        W97529  18.617  22.674   2.293
35999W        W97530  38.034  38.895  14.762
36000W        W97531  12.141  32.053   9.495
36001W        W97532  37.938  16.726   4.321
36002W        W97533   7.390   7.726   1.389
36003W        W97534  14.744  17.272  14.925
36004W        W97535   9.368  28.036   0.907
36005W        W97536  20.730  28.556  14.878
36006W        W97537  30.428  19.600  11.580
36007W        W97538  10.823  43.420   1.874
36008W        W97539  14.606  19.267   4.341
36009W        W97540  13.116  19.147  12.872
36010W        W97541   8.160  22.087  13.939
36011W        W97542  10.825  19.700   0.268
36012W        W97543   2.772  22.102   0.404
36013W        W97544   3.875  39.354  13.826
36014W        W97545  10.334  33.982   1.931
36015W        W97546  24.632  20.719   3.244
36016W        W97547  21.718   5.721  10.449
36017W        W97548   9.226   2.258  12.563
36018W        W97549  37.513   4.780  14.015
36019W        W97550  23.727  29.160   4.799
36020W        W97551  39.478  27.532  12.529
36021W        W97552  14.335  38.964  14.382
36022W        W97553  18.551  12.763   3.152
36023W        W97554  41.856  20.073  11.471
36024W        W97555  24.705  23.211   0.347
36025W        W97556  33.598  16.806   3.282
36026W        W97557  30.610  24.644   4.160
36027W        W97558  37.843  15.807   0.438
36028W        W97559  38.046  29.952   3.675
36029W        W97560  25.526  30.527   3.289
36030W        W97561  13.701  26.679  10.989
36031W        W97562  41.479  31.591  14.335
36032W        W97563  21.066  19.260  11.906
36033W        W97564  23.710  32.036  14.890
36034W        W97565  36.892  37.844  11.918
36035W        W97566  29.079  36.367  14.837
36036W        W97567  34.604  18.732  11.065
36037W        W97568  24.077  44.860  11.471
36038W        W97569   8.284  21.685   0.951
36039W        W97570  10.305  38.935   5.135
36040W        W97571  21.104  17.603   2.231
36041W        W97572  23.129  32.984  12.906
36042W        W97573  20.596  34.518  11.941
36043W        W97574  35.374   0.909   3.301
36044W        W97575  32.475   1.246   3.861
36045W        W97576  39.395  30.538   1.715
36046W        W97577  21.195  36.878   2.393
36047W        W97578  22.207  31.607  13.377
36048W        W97579  29.097  38.966  12.540
36049W        W97580  34.022  24.980  10.492
36050W        W97581  41.833  10.860   4.156
36051W        W97582   0.907  10.350   5.319
36052W        W97583  38.373  27.565  10.638
36053W        W97584  35.370  20.671   3.676
36054W        W97585  26.103  19.708   0.885
36055W        W97586   9.858  23.576  14.342
36056W        W97587  13.133  14.130  12.453
36057W        W97588   1.909  39.399  10.441
36058W        W97589  30.054  37.535   2.688
36059W        W97590  18.768  12.301  13.893
36060W        W97591  21.082   8.893   0.421
36061W        W97592  33.981   6.725  14.493
36062W        W97593  40.450  12.641  11.540
36063W        W97594  19.753   5.743  14.942
36064W        W97595  10.207  34.439  14.835
36065W        W97596  13.204  28.135   2.412
36066W        W97597  17.720  40.862   4.681
36067W        W97598  21.140  14.312  11.883
36068W        W97599  23.654   1.406  14.840
36069W        W97600  34.092  39.912   4.341
36070W        W97601   9.735  42.301   1.425
36071W        W97602  34.015  13.261  12.403
36072W        W97603  13.115  23.577  10.005
36073W        W97604  14.112  24.153   9.924
36074W        W97605  38.463  20.245   2.764
36075W        W97606  22.158   1.915  14.514
36076W        W97607  12.696  14.104   1.397
36077W        W97608  43.769  24.068   1.773
36078W        W97609  44.961   8.250  13.357
36079W        W97610  42.972  41.973   2.361
36080W        W97611  41.838   1.319   4.254
36081W        W97612  39.532  15.159   0.950
36082W        W97613  10.376   1.243  13.352
36083W        W97614  27.184   9.713  13.830
36084W        W97615   9.711   9.306  13.983
36085W        W97616  21.690  33.046   3.687
36086W        W97617  32.476  20.225   1.402
36087W        W97618  29.934  15.263  14.887
36088W        W97619   7.892  24.145  13.980
36089W        W97620  27.978  43.804  14.799
36090W        W97621   3.733  10.859  11.511
36091W        W97622  28.107  15.658   0.892
36092W        W97623  38.898   2.263   4.702
36093W        W97624  36.537   6.369   2.839
36094W        W97625   4.398  42.986   1.216
36095W        W97626   5.757  37.551  13.984
36096W        W97627   7.385  13.699   1.437
36097W        W97628  23.498  43.346   1.310
36098W        W97629  21.727   6.907  10.570
36099W        W97630   8.223  25.474   2.713
36100W        W97631  13.625   4.426   1.898
36101W        W97632   7.217  19.581  10.997
36102W        W97633   5.787  43.371  13.362
36103W        W97634   6.853  30.434   3.715
36104W        W97635  29.517  21.123   2.278
36105W        W97636  42.925  12.198  10.608
36106W        W97637  39.474  40.481  13.503
36107W        W97638   0.342  25.587  10.616
36108W        W97639  29.017  10.799  11.396
36109W        W97640  29.104  31.528  13.415
36110W        W97641  24.152  36.442  10.986
36111W        W97642   3.905  22.018   1.392
36112W        W97643   8.249  26.976  14.777
36113W        W97644  24.160  36.980  12.573
36114W        W97645  11.734  11.657   4.833
36115W        W97646  43.504  35.065  10.545
36116W        W97647  12.281   1.432  12.474
36117W        W97648   9.151  31.638   4.824
36118W        W97649   8.834  14.280  11.559
36119W        W97650  36.479   0.446  14.904
36120W        W97651  43.799  36.891   3.147
36121W        W97652  21.713   7.197   0.799
36122W        W97653   7.842   7.681  12.040
36123W        W97654  20.669  38.044   9.543
36124W        W97655   6.915  40.394   2.369
36125W        W97656  35.036  41.516  12.534
36126W        W97657  30.412  18.141   0.827
36127W        W97658   4.879  12.724  14.997
36128W        W97659  25.110  10.227  14.419
36129W        W97660  18.111  33.390   4.639
36130W        W97661  19.131   9.662   3.251
36131W        W97662   1.290  28.958   0.762
36132W        W97663   4.917  33.621   0.804
36133W        W97664  39.930  23.609   0.847
36134W        W97665  25.051   2.332   0.449
36135W        W97666  26.109  34.465   2.772
36136W        W97667  21.579  29.524  10.574
36137W        W97668  27.165  44.784   3.220
36138W        W97669  33.088  16.311   0.318
36139W        W97670  44.965  29.142  11.380
36140W        W97671  26.036  34.066   0.404
36141W        W97672  14.694  40.982  14.917
36142W        W97673  31.564  44.470   2.277
36143W        W97674  31.471  13.611   3.298
36144W        W97675  21.703  14.164   5.132
36145W        W97676  25.602  27.097  12.050
36146W        W97677  11.798  43.978  10.917
36147W        W97678  41.309  17.201  11.962
36148W        W97679  27.517  14.658   2.847
36149W        W97680  12.799  40.817   2.269
36150W        W97681   4.249   5.851   0.480
36151W        W97682  43.998  38.506   3.668
36152W        W97683  19.734  33.031  13.006
36153W        W97684  29.563  31.959  14.451
36154W        W97685  40.461  43.767   1.850
36155W        W97686  40.976  23.129   2.265
36156W        W97687  37.915  27.116   1.293
36157W        W97688  39.984   9.380   5.309
36158W        W97689   6.281  41.387   0.904
36159W        W97690  41.834  40.925   3.317
36160W        W97691  10.172  32.540  11.054
36161W        W97692  21.186  10.292   3.747
36162W        W97693  21.084   6.235  12.954
36163W        W97694   4.322   8.292  14.027
36164W        W97695   5.384  31.583   3.160
36165W        W97696  27.456   4.732  12.363
36166W        W97697  36.037  42.368   0.903
36167W        W97698  16.714  29.476  14.901
36168W        W97699   2.828  16.159   2.686
36169W        W97700  19.538  43.988   3.301
36170W        W97701  19.602  21.168   4.636
36171W        W97702  12.773  37.083   0.336
36172W        W97703  18.217  43.412   2.185
36173W        W97704  19.597   9.801   2.776
36174W        W97705   8.686   9.841   2.830
36175W        W97706  43.845  42.995  10.478
36176W        W97707  35.471   8.736  11.552
36177W        W97708  26.028  21.147  11.571
36178W        W97709  35.444  10.686  11.001
36179W        W97710  42.980  35.881   2.724
36180W        W97711  22.730  22.619  14.985
36181W        W97712  27.008  32.986  11.476
36182W        W97713  42.853  44.315  10.419
36183W        W97714  21.152   7.838  11.548
36184W        W97715  38.889  14.738   2.344
36185W        W97716  18.734   6.880  12.884
36186W        W97717  19.060  17.749   2.898
36187W        W97718   1.482  18.152  13.348
36188W        W97719   9.286   1.929   2.804
36189W        W97720   4.817   3.749  13.895
36190W        W97721   4.395  13.698  12.410
36191W        W97722  10.241  15.733   5.145
36192W        W97723  33.998  40.418  14.880
36193W        W97724  41.527  32.622  12.406
36194W        W97725   3.933  19.160  14.305
36195W        W97726  40.897  25.710  10.619
36196W        W97727  13.667  23.622   3.795
36197W        W97728  19.570   5.867   3.367
36198W        W97729   4.450  34.991  14.800
36199W        W97730  36.559  13.128  14.811
36200W        W97731  30.951   6.877  10.953
36201W        W97732  40.901  36.535   1.712
36202W        W97733  22.508  30.537  14.921
36203W        W97734  24.637  11.275   0.883
36204W        W97735  31.639  30.965  10.581
36205W        W97736  12.265   9.350  14.779
36206W        W97737  20.034  10.325   3.380
36207W        W97738  40.482  23.049  12.918
36208W        W97739  14.191  14.780   0.384
36209W        W97740   1.835   9.719   0.752
36210W        W97741  34.903  27.995   1.441
36211W        W97742  34.883  14.291   3.815
36212W        W97743  25.986  33.006  13.474
36213W        W97744   5.410   1.901  10.495
36214W        W97745  26.690  18.740   4.796
36215W        W97746  10.315  32.634   4.126
36216W        W97747  14.637  30.153  10.918
36217W        W97748   6.219   4.420  11.028
36218W        W97749  32.921   1.249  13.034
36219W        W97750  29.983   4.407   2.812
36220W        W97751   4.855  44.768   5.199
36221W        W97752   0.779  11.250  10.462
36222W        W97753  14.638  28.478   1.789
36223W        W97754  43.876  17.782  11.586
36224W        W97755  29.168   1.787  14.000
36225W        W97756  41.815  15.254  13.314
36226W        W97757  38.845  40.968  14.341
36227W        W97758  35.930  27.998  12.831
36228W        W97759   0.252   3.912  11.062
36229W        W97760  41.420  10.190  13.917
36230W        W97761   0.913  32.606  14.866
36231W        W97762  12.163  34.119  14.951
36232W        W97763  11.652  19.672   3.335
36233W        W97764  33.508  24.698  14.008
36234W        W97765  25.537  29.035   3.202
36235W        W97766  32.498  44.774   0.257
36236W        W97767  29.577  34.077   4.331
36237W        W97768  31.091  33.520   1.342
36238W        W97769  20.099  23.128   1.816
36239W        W97770  21.065  41.926   1.414
36240W        W97771   0.920   6.792  10.990
36241W        W97772  22.630  36.975   3.188
36242W        W97773  34.086   3.414   4.307
36243W        W97774   2.880  27.192   5.104
36244W        W97775  18.755  11.768  10.534
36245W        W97776  33.985   6.715   2.325
36246W        W97777   5.233  41.887  13.938
36247W        W97778  27.038  21.752   4.257
36248W        W97779  23.189   6.799   0.748
36249W        W97780  11.151   5.259   0.274
36250W        W97781  13.713  31.143  12.523
36251W        W97782  16.636  24.530   0.266
36252W        W97783  40.379  30.494   4.150
36253W        W97784  37.402  38.419  12.954
36254W        W97785   4.821  18.661  11.913
36255W        W97786   3.824   5.737  11.040
36256W        W97787  30.429   9.782   9.965
36257W        W97788  15.691  10.709  13.526
36258W        W97789   7.190  39.419  12.384
36259W        W97790  22.683  24.180   3.831
36260W        W97791  31.498  26.204   3.825
36261W        W97792  17.122  18.127  11.943
36262W        W97793  40.951  12.659  12.067
36263W        W97794   7.316  28.130   2.282
36264W        W97795  27.076  18.623  11.119
36265W        W97796  31.441   9.732   4.601
36266W        W97797  44.765  42.986   4.113
36267W        W97798  44.291   9.288   0.836
36268W        W97799  40.848  33.032   4.631
36269W        W97800  33.994  41.347  10.941
36270W        W97801  18.684   7.818  10.921
36271W        W97802  11.826  20.551  14.478
36272W        W97803  40.004  34.907  10.439
36273W        W97804  44.413  29.434  14.367
36274W        W97805   4.772  37.069  13.430
36275W        W97806  42.001  31.468   3.279
36276W        W97807  21.165  34.542   2.893
36277W        W97808  41.012   0.966  12.905
36278W        W97809  31.408  29.927  11.597
36279W        W97810  36.410  44.487  10.538
36280W        W97811  10.693   9.885   2.723
36281W        W97812  25.218  39.438   3.184
36282W        W97813  11.248  32.137   5.199
36283W        W97814   0.442  12.323  13.028
36284W        W97815  37.411  35.973  12.077
36285W        W97816  18.724  13.176   4.350
36286W        W97817  43.495  35.482   2.743
36287W        W97818   5.298   3.846  11.122
36288W        W97819   5.295  12.231  12.350
36289W        W97820  29.491  25.969   0.269
36290W        W97821   2.253  13.145   0.254
36291W        W97822  18.070  32.916  11.458
36292W        W97823  32.499  30.481  10.405
36293W        W97824  18.081   1.875   3.734
36294W        W97825  12.163  39.519  11.430
36295W        W97826  22.635  23.002   3.661
36296W        W97827   3.862  42.440  10.490
36297W        W97828  10.764  36.925  11.924
36298W        W97829  44.429  14.307   0.295
36299W        W97830  11.264   8.726   1.354
36300W        W97831  10.376  38.393  10.921
36301W        W97832  27.451  12.776  14.962
36302W        W97833  26.194  19.169  10.917
36303W        W97834  14.196   9.777   1.828
36304W        W97835  34.946   4.855   4.229
36305W        W97836   9.302  44.821  13.885
36306W        W97837  15.310  37.343  11.402
36307W        W97838   1.741  26.554  14.481
36308W        W97839  25.965  44.995  14.974
36309W        W97840  44.366  37.877   4.241
36310W        W97841  40.812   7.235   4.663
36311W        W97842   5.846  40.854   4.806
36312W        W97843  39.027   3.391  12.047
36313W        W97844  39.972  33.449  12.520
36314W        W97845  43.974  11.256  14.845
36315W        W97846   9.816   6.366  12.901
36316W        W97847  31.509   8.789   1.437
36317W        W97848   9.688  21.583   2.348
36318W        W97849  18.060  18.790  12.896
36319W        W97850  21.586  42.900   3.346
36320W        W97851  32.935  10.722  13.482
36321W        W97852   4.308  42.814  13.508
36322W        W97853  16.101  20.085  12.407
36323W        W97854   0.916  35.976  11.975
36324W        W97855   7.744  26.688  10.954
36325W        W97856  41.529   8.824  12.041
36326W        W97857  16.672  39.870   0.450
36327W        W97858  11.827   6.270  14.443
36328W        W97859  34.118  44.501   4.640
36329W        W97860   3.223  12.141   4.709
36330W        W97861  43.290  35.027   2.711
36331W        W97862  14.211  12.770  10.930
36332W        W97863  21.595  39.393   2.194
36333W        W97864  32.918  13.807   1.359
36334W        W97865  42.436  41.471  10.549
36335W        W97866  22.705  33.399   0.283
36336W        W97867  38.357   3.313   0.802
36337W        W97868  25.106  13.341   2.219
36338W        W97869  25.984  20.757  13.331
36339W        W97870  44.782  41.405  10.916
36340W        W97871  33.394  17.744  10.161
36341W        W97872   5.344  28.102  11.606
36342W        W97873  41.322   0.336   2.823
36343W        W97874  36.962  14.168   4.291
36344W        W97875  26.545  23.570   1.843
36345W        W97876  30.581  28.171   4.667
36346W        W97877  28.478  19.621   4.747
36347W        W97878  36.452  11.288  12.982
36348W        W97879  29.990  13.181   0.730
36349W        W97880  32.438  35.054   1.430
36350W        W97881  33.576   0.275   0.942
36351W        W97882  15.649  42.970   0.864
36352W        W97883  10.768   7.833   1.406
36353W        W97884  24.980  16.214   4.690
36354W        W97885  11.127   1.911   2.816
36355W        W97886  18.754  12.797  13.029
36356W        W97887  33.504  20.062  11.930
36357W        W97888  12.259   3.950   4.656
36358W        W97889  15.692   9.793   1.758
36359W        W97890  26.594  18.726   5.142
36360W        W97891  41.966  36.018   3.817
36361W        W97892   1.414  19.562  14.315
36362W        W97893  42.015  11.155  10.083
36363W        W97894   2.782  10.253  10.552
36364W        W97895  33.505  15.304  13.010
36365W        W97896  27.109  30.072  12.567
36366W        W97897  28.570  26.642  14.842
36367W        W97898  19.099  41.383  14.286
36368W        W97899  38.406  41.965   4.331
36369W        W97900   4.788   5.846  13.406
36370W        W97901  38.847  37.375  10.023
36371W        W97902   1.328  20.583   1.862
36372W        W97903  30.412  40.023   2.740
36373W        W97904  26.158  11.832   4.815
36374W        W97905  14.777  33.382   3.166
36375W        W97906   1.776  27.999  12.092
36376W        W97907  14.649  15.216  11.920
36377W        W97908  35.982  27.022  11.962
36378W        W97909  31.955  19.207  11.545
36379W        W97910  22.126   8.867  12.977
36380W        W97911  43.918  10.717   2.339
36381W        W97912  19.185   6.893   3.689
36382W        W97913   9.708  19.272  14.382
36383W        W97914  33.973   5.351  11.030
36384W        W97915   9.194   0.251  11.856
36385W        W97916  13.343  38.978  10.412
36386W        W97917   5.805  38.914   4.131
36387W        W97918  31.433  21.193  10.945
36388W        W97919   1.755  19.566  14.785
36389W        W97920   2.238  42.910   2.360
36390W        W97921  16.143  13.681  11.391
36391W        W97922  26.090  34.937   1.313
36392W        W97923   6.877  26.474   4.702
36393W        W97924   0.420  31.631  14.896
36394W        W97925  15.719  23.712  11.041
36395W        W97926  14.619  28.174  13.476
36396W        W97927  33.613  17.793  12.385
36397W        W97928  32.890  26.195  13.363
36398W        W97929  19.607  11.657  11.077
36399W        W97930  26.602  14.313   3.317
36400W        W97931  31.919  11.313   3.259
36401W        W97932   9.660  14.781  12.373
36402W        W97933  30.927  37.367  14.432
36403W        W97934  13.843  11.771   0.878
36404W        W97935  42.359  11.828  12.505
36405W        W97936  42.830  41.481  12.016
36406W        W97937   5.850  31.017  13.385
36407W        W97938  22.651  14.656  12.925
36408W        W97939  37.989   2.871   3.688
36409W        W97940  26.646  29.632   4.722
36410W        W97941  25.647  30.164   0.259
36411W        W97942   5.777   8.393  12.450
36412W        W97943  28.523  34.458  12.972
36413W        W97944  40.027  22.574   0.798
36414W        W97945  20.551  42.497   5.779
36415W        W97946   1.452  19.268  10.643
36416W        W97947  25.521  38.012  12.552
36417W        W97948  22.586   4.848   2.300
36418W        W97949  34.974   0.776  10.619
36419W        W97950  35.923  25.678  10.517
36420W        W97951  33.936   1.346  14.406
36421W        W97952   6.334  15.693   4.833
36422W        W97953  33.572  22.194   0.329
36423W        W97954  19.657   4.803   2.339
36424W        W97955  35.541  44.301  11.591
36425W        W97956  17.733  30.933   1.410
36426W        W97957  44.404  20.575   2.799
36427W        W97958   1.465  31.154  11.500
36428W        W97959   6.349  39.963  10.145
36429W        W97960  12.215  44.498   1.788
36430W        W97961  31.542  22.156   0.930
36431W        W97962  44.926  37.536  10.484
36432W        W97963  29.477  16.302  12.982
36433W        W97964  37.517  34.606   9.946
36434W        W97965  18.099  36.429  13.316
36435W        W97966   7.678  32.506  10.446
36436W        W97967  13.180  35.856   0.878
36437W        W97968  13.331  44.844  13.434
36438W        W97969  21.692   6.285   0.943
36439W        W97970  11.172  31.927   2.235
36440W        W97971  16.158  42.488   4.709
36441W        W97972   3.922  43.355   3.706
36442W        W97973  29.514  21.529   0.344
36443W        W97974  19.669  17.795  13.850
36444W        W97975  40.408   2.447  14.816
36445W        W97976  11.763  39.867   2.836
36446W        W97977  25.480   2.816   3.647
36447W        W97978  40.850   9.278   5.135
36448W        W97979  38.446  29.589  12.390
36449W        W97980  24.178  24.051   1.755
36450W        W97981  33.563  35.360  14.910
36451W        W97982  31.028  30.582  10.568
36452W        W97983  27.046  11.241   2.807
36453W        W97984  37.926  40.902   2.768
36454W        W97985  36.412  44.934  10.532
36455W        W97986  27.000   2.780  12.950
36456W        W97987  12.308  23.619  10.606
36457W        W97988  10.256  31.571   3.374
36458W        W97989  18.099   7.300   0.435
36459W        W97990  15.248  21.076  10.947
36460W        W97991  38.465  31.097  11.997
36461W        W97992  24.199   8.727  10.526
36462W        W97993  35.381   0.895   0.424
36463W        W97994  15.263  34.522   3.720
36464W        W97995  19.152   9.164   0.880
36465W        W97996   3.362  21.600  14.501
36466W        W97997  20.602  31.489  12.535
36467W        W97998   5.804   0.981   1.851
36468W        W97999  24.519  17.768  14.328
36469W        W98000   6.852  12.633  11.580
36470W        W98001  21.526  13.732  10.920
36471W        W98002  20.686  29.568   4.280
36472W        W98003  12.257  20.724  13.973
36473W        W98004  14.834  31.019  12.340
36474W        W98005   2.347  29.613   4.245
36475W        W98006  38.525  11.178  13.857
36476W        W98007   4.324  24.151  12.520
36477W        W98008  37.959   7.700   3.316
36478W        W98009   5.870  17.163  10.467
36479W        W98010   1.948  43.482   0.806
36480W        W98011  17.078  19.057  11.932
36481W        W98012  14.593   8.683  12.421
36482W        W98013  14.689  42.995   2.747
36483W        W98014  24.664  36.945   3.291
36484W        W98015  12.325   4.248   9.983
36485W        W98016  20.627  42.802   1.707
36486W        W98017  40.905  21.589   0.872
36487W        W98018  28.557  23.573  13.925
36488W        W98019  13.837  26.477  13.483
36489W        W98020  23.184  13.640  10.425
36490W        W98021  19.769  31.103  11.092
36491W        W98022  28.499  32.489   2.700
36492W        W98023  41.805  38.891   0.338
36493W        W98024   9.262  23.734   2.764
36494W        W98025  24.047  32.921  12.507
36495W        W98026   3.905   7.845  11.941
36496W        W98027  38.842  18.214  11.950
36497W        W98028  30.120   1.794   2.312
36498W        W98029  42.357  16.604   0.301
36499W        W98030   2.457   7.873  11.432
36500W        W98031  35.580  28.513   4.270
36501W        W98032  19.192  30.023   1.379
36502W        W98033  19.241  42.515  12.866
36503W        W98034   9.729  15.298  11.962
36504W        W98035  14.638  20.268  10.514
36505W        W98036   1.965  39.484  12.374
36506W        W98037  37.346   0.451   9.920
36507W        W98038  38.390  11.155  13.039
36508W        W98039  26.541  39.942   1.353
36509W        W98040   0.926  35.390   1.348
36510W        W98041   1.768  19.185   1.762
36511W        W98042  39.996  42.363   0.821
36512W        W98043  13.151  37.075  11.958
36513W        W98044  27.139  11.279   0.728
36514W        W98045  30.494   3.917   0.773
36515W        W98046  33.015  16.707  14.869
36516W        W98047  28.063  44.373   5.192
36517W        W98048  39.846  40.801  14.331
36518W        W98049  13.760   5.278   0.394
36519W        W98050   9.730  39.011   0.897
36520W        W98051  14.329  40.977  10.574
36521W        W98052  19.170  42.966  11.593
36522W        W98053  13.630  17.134   4.733
36523W        W98054  13.170   3.745  11.866
36524W        W98055  35.594  42.507   2.330
36525W        W98056  33.454   4.887   2.404
36526W        W98057  41.038  41.864   0.799
36527W        W98058  33.433  13.135  11.109
36528W        W98059  38.990   7.745  11.599
36529W        W98060  33.484  22.642   2.821
36530W        W98061   1.751  34.386  12.884
36531W        W98062  43.482  13.197   3.235
36532W        W98063   0.982   4.442  14.344
36533W        W98064  39.340   9.681   2.767
36534W        W98065  27.521   3.865  11.109
36535W        W98066  42.442  20.549  14.846
36536W        W98067  15.133  44.260  12.976
36537W        W98068  34.377  35.992   4.803
36538W        W98069   6.898  32.420   3.647
36539W        W98070  21.092  12.205  11.961
36540W        W98071  14.185   3.230  13.341
36541W        W98072  40.835  34.431   2.818
36542W        W98073  36.541  17.120  10.409
36543W        W98074  28.099  35.519  13.005
36544W        W98075  21.189  17.068   3.674
36545W        W98076   7.316  30.473  10.545
36546W        W98077   4.837  43.429  11.921
36547W        W98078   1.845  30.009  12.974
36548W        W98079  31.079  35.904  10.429
36549W        W98080  22.545  19.537   4.649
36550W        W98081  14.610   9.724   3.272
36551W        W98082   8.404   0.803  10.156
36552W        W98083  34.925  10.863  12.361
36553W        W98084  34.428   8.306  12.876
36554W        W98085  36.525  40.487   2.178
36555W        W98086   6.340  34.540   0.345
36556W        W98087   8.370   4.919   2.285
36557W        W98088  40.336  23.078  11.492
36558W        W98089  34.540  34.007  10.484
36559W        W98090  35.879  27.960   4.738
36560W        W98091  44.821  20.768   0.340
36561W        W98092   6.427  11.261  12.428
36562W        W98093  33.418  26.132  12.348
36563W        W98094  20.238  31.946   1.303
36564W        W98095  23.068  13.698   3.194
36565W        W98096   0.342  16.806  12.577
36566W        W98097  40.822  38.887   4.657
36567W        W98098  19.165  12.679  12.921
36568W        W98099  29.463   2.808  12.430
36569W        W98100  23.639   9.792   0.917
36570W        W98101  35.523  44.481  14.818
36571W        W98102  12.616  40.798   0.412
36572W        W98103  34.585  15.720   0.317
36573W        W98104  28.438  12.618   0.341
36574W        W98105  12.181  40.989  11.608
36575W        W98106  36.975  16.303   3.691
36576W        W98107  10.805  37.337  13.867
36577W        W98108  23.129  16.698   4.279
36578W        W98109   3.243  34.038  11.995
36579W        W98110   0.953  22.097  11.989
36580W        W98111  33.404  13.672  10.462
36581W        W98112  43.863  40.414  11.582
36582W        W98113   6.741  10.663  13.026
36583W        W98114  15.722  43.969   4.352
36584W        W98115  33.124   1.279   4.637
36585W        W98116  12.768   7.743  14.478
36586W        W98117   9.718  44.899   3.362
36587W        W98118   4.283   3.282   0.417
36588W        W98119  33.967   4.934   3.798
36589W        W98120  11.347  12.798   2.697
36590W        W98121  12.179  34.974  10.623
36591W        W98122  37.547  38.376  13.475
36592W        W98123  14.816  21.057   1.428
36593W        W98124  21.616  14.273   1.696
36594W        W98125  27.072  10.261  13.810
36595W        W98126  27.477  24.563  11.861
36596W        W98127  17.629  26.997  14.919
36597W        W98128  20.702  26.503   4.716
36598W        W98129  38.325  38.033  11.014
36599W        W98130  15.171  12.784   2.417
36600W        W98131   3.826   4.783  13.902
36601W        W98132  41.299   7.327   3.871
36602W        W98133  16.621  22.508   1.383
36603W        W98134   7.674  29.522   1.708
36604W        W98135  33.431  14.315   0.788
36605W        W98136  21.710  36.449   3.291
36606W        W98137  41.344  23.506   0.863
36607W        W98138  12.690   1.744   2.331
36608W        W98139   4.859  24.536  12.472
36609W        W98140  25.589  15.744   1.302
36610W        W98141  33.593  12.728  13.531
36611W        W98142  39.516  18.275   0.816
36612W        W98143  26.536  17.204   4.834
36613W        W98144  19.145  41.295   1.811
36614W        W98145  19.716  16.286  14.364
36615W        W98146  26.966  31.109   9.568
36616W        W98147  32.996  27.968   4.799
36617W        W98148   4.255  42.801  11.986
36618W        W98149   2.340  23.081  11.867
36619W        W98150  15.305  16.672  11.049
36620W        W98151  10.140   8.841   2.180
36621W        W98152   5.773   8.790  12.051
36622W        W98153  19.657  27.683  13.817
36623W        W98154  19.056  29.454   2.685
36624W        W98155   0.440   2.282  13.335
36625W        W98156   5.339  30.998   1.726
36626W        W98157   9.248  13.238   4.156
36627W        W98158  18.676  15.596   2.338
36628W        W98159   1.410  30.089   1.813
36629W        W98160  34.443  29.027  14.826
36630W        W98161   2.468  37.891  11.003
36631W        W98162   4.205  44.942   3.786
36632W        W98163  29.636  19.591  10.486
36633W        W98164  23.094  14.099  11.895
36634W        W98165  15.301   2.412  14.348
36635W        W98166   9.177  40.918  13.443
36636W        W98167   8.324   2.890   2.307
36637W        W98168  21.092  17.245  11.862
36638W        W98169  15.761  42.833   2.891
36639W        W98170   8.870  37.403  14.828
36640W        W98171  38.009  41.318   1.233
36641W        W98172  27.194   0.946  14.413
36642W        W98173  21.661   9.757   4.349
36643W        W98174  39.961  34.876  14.502
36644W        W98175   5.412  43.943  12.029
36645W        W98176  19.284  42.410  14.482
36646W        W98177  31.953  17.145   1.821
36647W        W98178  40.319  39.543   1.225
36648W        W98179  34.550  36.538  10.970
36649W        W98180  35.071   5.254  14.774
36650W        W98181  15.116  41.489  14.019
36651W        W98182  29.474  18.274  10.532
36652W        W98183  12.337  42.281  10.493
36653W        W98184  11.348  38.518   0.751
36654W        W98185  35.584  17.124   2.260
36655W        W98186   9.247   4.402   4.785
36656W        W98187  31.071  25.993   0.761
36657W        W98188   7.407   0.749  13.354
36658W        W98189  19.208  20.685  10.619
36659W        W98190  29.103  13.231   0.472
36660W        W98191  17.107  22.578  10.558
36661W        W98192   2.301  35.491   3.813
36662W        W98193  26.562  36.464  10.954
36663W        W98194  13.244   2.270  12.984
36664W        W98195  36.592   1.377  11.459
36665W        W98196  33.879  43.993   0.317
36666W        W98197   9.195  43.984   4.310
36667W        W98198  31.936  24.524   0.942
36668W        W98199  43.490   7.322   1.900
36669W        W98200  17.668  31.080   3.753
36670W        W98201  10.813  36.386  14.393
36671W        W98202  36.916  21.550   0.823
36672W        W98203  15.296  10.705   2.826
36673W        W98204   3.325  30.637  14.828
36674W        W98205  30.653   1.422   2.377
36675W        W98206  11.338  25.570   4.724
36676W        W98207  23.190  22.042  14.831
36677W        W98208  25.009   8.173  11.561
36678W        W98209   6.278  12.276   2.409
36679W        W98210  20.551  14.661  14.927
36680W        W98211  40.923   6.421  12.427
36681W        W98212  31.533  38.328   4.827
36682W        W98213   1.330  26.128  13.433
36683W        W98214  43.357  17.674   0.426
36684W        W98215  13.637  24.697   0.794
36685W        W98216   2.265   1.976  12.341
36686W        W98217   0.793  26.531  11.043
36687W        W98218  43.286  10.862   3.344
36688W        W98219  21.217  21.249  13.910
36689W        W98220   9.653   0.492   3.309
36690W        W98221  33.561  19.062  12.532
36691W        W98222   9.770  32.510  11.110
36692W        W98223  10.364  41.371  14.412
36693W        W98224  11.370   9.291  10.410
36694W        W98225  22.153  10.837  11.944
36695W        W98226  15.137  32.628   1.281
36696W        W98227  38.887  28.118   5.286
36697W        W98228   3.714  18.098   0.784
36698W        W98229   6.344  42.482   2.391
36699W        W98230  28.474  36.519  14.433
36700W        W98231  14.678  43.864   4.756
36701W        W98232   1.335  12.823   0.417
36702W        W98233   3.815   9.865   2.876
36703W        W98234  43.870   3.240   0.254
36704W        W98235  17.148  38.067  11.606
36705W        W98236  30.077  28.551  12.442
36706W        W98237  44.838   8.761   2.734
36707W        W98238  38.330  23.519   3.316
36708W        W98239  14.713   9.193  12.876
36709W        W98240  10.853  22.625   4.316
36710W        W98241  24.713  24.520  10.969
36711W        W98242  11.284  32.453   0.377
36712W        W98243   4.811  20.150  14.466
36713W        W98244  29.142  36.397  12.004
36714W        W98245  33.027  43.796  11.578
36715W        W98246  22.232   1.343  11.529
36716W        W98247  31.506  18.111  14.397
36717W        W98248  37.079  15.716  12.893
36718W        W98249  17.746  28.029   5.220
36719W        W98250   6.208  17.207   1.277
36720W        W98251  31.108   5.388   0.423
36721W        W98252  12.286  15.097  11.568
36722W        W98253   8.779  27.478  10.479
36723W        W98254  28.164  11.768   0.768
36724W        W98255  34.893  32.126   0.304
36725W        W98256  26.598   8.895  13.465
36726W        W98257   9.391  42.017   4.643
36727W        W98258  40.000  11.184   4.150
36728W        W98259  19.643  28.594   1.311
36729W        W98260  30.659   7.211   2.670
36730W        W98261  31.932   9.804  14.774
36731W        W98262  28.678   9.731  14.776
36732W        W98263  11.220   4.350  14.453
36733W        W98264  38.477  28.972   2.272
36734W        W98265  16.151  41.382  13.861
36735W        W98266  16.677  26.529  12.527
36736W        W98267   2.226  18.609   2.673
36737W        W98268  37.575  23.699  12.480
36738W        W98269  36.414   3.334   3.840
36739W        W98270  25.532  41.310  14.289
36740W        W98271   4.243  10.238  12.535
36741W        W98272  14.243   9.732   3.266
36742W        W98273   0.792  37.555  14.937
36743W        W98274  26.648  31.492   0.295
36744W        W98275  27.651  40.324   2.221
36745W        W98276  44.362  13.235   0.310
36746W        W98277   2.405  40.417  12.503
36747W        W98278  28.538  32.624  12.368
36748W        W98279  18.142  40.333  13.424
36749W        W98280   4.435  44.775  12.046
36750W        W98281  11.224  36.855  14.392
36751W        W98282   0.955  33.548   2.673
36752W        W98283  25.124  15.179   1.448
36753W        W98284  14.754  36.459  13.873
36754W        W98285   1.411  15.181   1.799
36755W        W98286  39.972   0.256  11.378
36756W        W98287  12.324  41.527  13.426
36757W        W98288  20.190   4.709   3.350
36758W        W98289  15.694  34.999   4.309
36759W        W98290   8.828  30.098   4.125
36760W        W98291   4.238   0.386   4.641
36761W        W98292   3.727  34.555   4.212
36762W        W98293   1.252  35.053   2.679
36763W        W98294  39.491  31.545   2.766
36764W        W98295  27.482  33.973  11.104
36765W        W98296  15.083   4.923  14.343
36766W        W98297  29.968  43.941   3.274
36767W        W98298  26.490  32.130   2.212
36768W        W98299   9.349  38.066  11.091
36769W        W98300   7.900  35.569   4.687
36770W        W98301  24.578  37.582  13.039
36771W        W98302  33.555  13.639   4.757
36772W        W98303  24.159  36.041  13.798
36773W        W98304  13.229  27.513  12.012
36774W        W98305   1.414  27.099  12.417
36775W        W98306  27.462   5.905  11.946
36776W        W98307  38.549  30.950  13.377
36777W        W98308  20.068  15.659  14.939
36778W        W98309  21.628  24.004  13.055
36779W        W98310  33.514  44.927   2.201
36780W        W98311  17.785  39.444   4.686
36781W        W98312  32.528  22.514   1.308
36782W        W98313   5.264  20.248   1.816
36783W        W98314  29.163  42.888   4.234
36784W        W98315  35.994   4.826   2.390
36785W        W98316  24.141   2.840  13.960
36786W        W98317  37.976  12.300  11.952
36787W        W98318  38.349  21.175   0.314
36788W        W98319  40.548  28.099  13.960
36789W        W98320  31.595   4.449  13.364
36790W        W98321  25.179  30.950  14.393
36791W        W98322   7.211  17.114  13.934
36792W        W98323  34.064  12.278  10.524
36793W        W98324  21.021   9.778   3.724
36794W        W98325  18.164  28.946  10.493
36795W        W98326   7.715  43.454  11.940
36796W        W98327  36.994  44.998  12.016
36797W        W98328  42.320  23.631  12.869
36798W        W98329  35.058   0.777  11.864
36799W        W98330  43.454   0.878  10.442
36800W        W98331  25.488  40.819   4.699
36801W        W98332   0.806  24.188   5.671
36802W        W98333   6.802  27.157   1.850
36803W        W98334  22.747  22.682   3.843
36804W        W98335   8.711  24.184  13.912
36805W        W98336  26.112  33.887   2.284
36806W        W98337  41.345  25.524   4.773
36807W        W98338  20.225  42.302  13.886
36808W        W98339  42.365  15.767   4.281
36809W        W98340  22.502  10.750   1.704
36810W        W98341  30.508   6.398  12.954
36811W        W98342  20.672  23.069   3.277
36812W        W98343  36.879  23.135   2.833
36813W        W98344  16.723  39.539  12.937
36814W        W98345   7.174  36.062   1.848
36815W        W98346   5.262   3.249  10.994
36816W        W98347  43.777   5.328  11.893
36817W        W98348  25.007   2.732   1.220
36818W        W98349  40.426  31.578   4.649
36819W        W98350  38.831  26.572   3.795
36820W        W98351  21.237   9.285  14.818
36821W        W98352  15.592  35.919  10.585
36822W        W98353  33.106  39.348   4.707
36823W        W98354  30.588  38.481   1.335
36824W        W98355  11.365   2.841   3.669
36825W        W98356  43.339  12.743  13.810
36826W        W98357  21.090  38.952   2.758
36827W        W98358  24.550  20.714  14.339
36828W        W98359  40.859  34.996  14.288
36829W        W98360   2.738  16.622   2.380
36830W        W98361  22.693   0.400   0.428
36831W        W98362  31.025  26.186  13.369
36832W        W98363   6.811  24.200  13.417
36833W        W98364  16.140  35.529  10.452
36834W        W98365  33.506  13.798   5.608
36835W        W98366  18.763  28.014   4.206
36836W        W98367  23.118   0.812   0.910
36837W        W98368  13.635  18.678  13.393
36838W        W98369  40.500  18.059   2.864
36839W        W98370  27.096  38.527   1.935
36840W        W98371  23.669   9.216   4.716
36841W        W98372   9.370   6.918  14.386
36842W        W98373  29.104  40.928  13.508
36843W        W98374  21.615  23.676  11.092
36844W        W98375  30.932  16.142  11.974
36845W        W98376  40.328  11.258   1.367
36846W        W98377  22.246  28.651   1.370
36847W        W98378  39.946  19.601  12.552
36848W        W98379  23.109   2.932  13.844
36849W        W98380  18.547  40.920  11.957
36850W        W98381  12.746  41.496  11.101
36851W        W98382  16.636  41.485  12.846
36852W        W98383  44.780  23.032   3.759
36853W        W98384  16.302  19.562   1.450
36854W        W98385  13.179  20.126   4.177
36855W        W98386  28.937  13.134  12.090
36856W        W98387   6.309  28.082  14.414
36857W        W98388   4.871  16.602  10.469
36858W        W98389  42.337  29.092   3.859
36859W        W98390   5.795  37.047   1.797
36860W        W98391   2.796  21.528  12.460
36861W        W98392  41.391  21.724   3.867
36862W        W98393  10.773  40.934   2.712
36863W        W98394  22.184  14.120  11.010
36864W        W98395   4.907  17.082  10.622
36865W        W98396  39.524  14.195   3.732
36866W        W98397  17.697  16.188   3.160
36867W        W98398  26.499   4.886   5.203
36868W        W98399  43.948  23.575   0.911
36869W        W98400  34.005  37.004   5.278
36870W        W98401  43.319  26.118   2.745
36871W        W98402  38.878  11.712  14.008
36872W        W98403  15.148  26.492   3.365
36873W        W98404   6.739  24.481   4.824
36874W        W98405  19.127  17.720  11.490
36875W        W98406   4.742   8.772  11.547
36876W        W98407  16.620   1.854  11.396
36877W        W98408   7.199  28.604   3.238
36878W        W98409  20.188   7.828  11.398
36879W        W98410  19.100  30.627  10.438
36880W        W98411  35.368  35.558  10.531
36881W        W98412  30.141  16.637   1.905
36882W        W98413  10.287  27.563   1.918
36883W        W98414   7.205  25.566  14.979
36884W        W98415   1.901   8.829   4.826
36885W        W98416   6.848  44.818  12.977
36886W        W98417  26.562   9.858  12.446
36887W        W98418  44.263  22.043  14.410
36888W        W98419  16.224   7.746  10.637
36889W        W98420  10.307  40.458   0.433
36890W        W98421  35.064   0.768   1.904
36891W        W98422   6.407  27.646   3.752
36892W        W98423  36.564  12.727   0.366
36893W        W98424  40.385   5.758   4.639
36894W        W98425  30.647  39.874  10.602
36895W        W98426   4.723   5.773   0.760
36896W        W98427  35.562  22.127   1.229
36897W        W98428  22.189  34.428  14.397
36898W        W98429  12.313  28.102  12.409
36899W        W98430  38.485   9.153  10.896
36900W        W98431  35.919  13.308  14.402
36901W        W98432  25.511   8.273  11.026
36902W        W98433  39.434  33.551  12.391
36903W        W98434  40.407  41.872  11.953
36904W        W98435  37.840  40.828  13.479
36905W        W98436  23.164  23.122   3.640
36906W        W98437  10.303  33.920   9.930
36907W        W98438   9.660  26.206   0.250
36908W        W98439  12.678  32.444   2.328
36909W        W98440  44.894  35.017  12.473
36910W        W98441  31.981   3.729   1.695
36911W        W98442   9.864  21.569  11.548
36912W        W98443   8.666  21.151   2.323
36913W        W98444  25.035  29.027   3.243
36914W        W98445  38.894  42.505  10.995
36915W        W98446  43.947  42.917   3.225
36916W        W98447  38.465  27.490  13.938
36917W        W98448  23.582  14.665  10.953
36918W        W98449   5.365  14.229  12.829
36919W        W98450  22.658  20.714   4.657
36920W        W98451   4.773   2.945   0.383
36921W        W98452   0.346   0.464  11.863
36922W        W98453  32.433  35.891  13.033
36923W        W98454  32.422  12.774  14.435
36924W        W98455  24.633  12.785   3.684
36925W        W98456  35.554  28.076   0.903
36926W        W98457   5.405  27.013   3.214
36927W        W98458  29.030  28.089   4.296
36928W        W98459   6.739   9.250   1.694
36929W        W98460   8.370  11.810   2.879
36930W        W98461  36.045  32.007  12.548
36931W        W98462  20.577  37.442  11.905
36932W        W98463  19.077   0.278  10.950
36933W        W98464   3.952   6.336  14.286
36934W        W98465   8.295   5.398  14.763
36935W        W98466  30.958  16.749  10.431
36936W        W98467  34.051  35.893   0.950
36937W        W98468  39.825  22.214   4.652
36938W        W98469  43.917  24.228   2.308
36939W        W98470   3.909  31.078  13.844
36940W        W98471  18.672  31.459   3.732
36941W        W98472  17.164   0.333   0.953
36942W        W98473  34.871  20.249   2.881
36943W        W98474   6.420   6.264   2.863
36944W        W98475  15.658  41.297   4.293
36945W        W98476  20.241  18.063  14.457
36946W        W98477  33.996   9.658   1.423
36947W        W98478  25.003  16.239   1.875
36948W        W98479  35.502  38.870   1.757
36949W        W98480  31.600  40.019  10.581
36950W        W98481   3.910   9.769   3.385
36951W        W98482  12.141  38.501  13.486
36952W        W98483  29.030  36.456   3.237
36953W        W98484  30.022  35.529  11.409
36954W        W98485  24.690  44.894  13.052
36955W        W98486  21.548  21.048   0.479
36956W        W98487  16.246  28.151  11.601
36957W        W98488  19.777  18.750   4.143
36958W        W98489  10.858  37.440   4.704
36959W        W98490  10.768  10.633   0.869
36960W        W98491  41.377  38.023   1.874
36961W        W98492  40.885  23.520  14.884
36962W        W98493  17.108  14.629   2.332
36963W        W98494  43.978   9.235  11.450
36964W        W98495  39.512   7.680   3.704
36965W        W98496   9.185  14.131  13.346
36966W        W98497  31.085  44.975  12.415
36967W        W98498  30.054  11.258   3.810
36968W        W98499   4.329  22.537  11.902
36969W        W98500  36.455  32.518  14.297
36970W        W98501  26.156  41.886  10.600
36971W        W98502  36.570   1.762  12.540
36972W        W98503  29.151   1.409  10.925
36973W        W98504  16.245  29.928  12.540
36974W        W98505   2.780  18.705   4.829
36975W        W98506   3.302  32.067   3.733
36976W        W98507   2.897   3.304   2.723
36977W        W98508  41.504  37.999   3.188
36978W        W98509  33.888  28.004   4.727
36979W        W98510  41.463  25.661   2.332
36980W        W98511   6.890  43.974  12.505
36981W        W98512  33.396  28.545  12.080
36982W        W98513  19.779   7.349   3.192
36983W        W98514  25.590  11.834  11.472
36984W        W98515  28.533   0.844   3.199
36985W        W98516  26.957  20.577   2.391
36986W        W98517  30.936  34.020   4.181
36987W        W98518   5.796  23.065  14.479
36988W        W98519  44.285  23.547   2.845
36989W        W98520  25.999  32.432   0.346
36990W        W98521  25.117  38.461  12.363
36991W        W98522  43.997  38.995   2.310
36992W        W98523  28.026  10.191  10.451
36993W        W98524  18.251  16.675   1.285
36994W        W98525  14.768  39.484   1.227
36995W        W98526  41.322  35.391  12.533
36996W        W98527  35.044  11.829   2.370
36997W        W98528  17.226   5.321   2.382
36998W        W98529   9.231  15.717  11.612
36999W        W98530  30.147  37.411  13.042
37000W        W98531  18.722  33.988   4.744
37001W        W98532  18.293  17.782  12.545
37002W        W98533   0.901  14.735   2.280
37003W        W98534   7.344  20.628   4.697
37004W        W98535  41.994   0.947   3.641
37005W        W98536  33.978  25.706   2.810
37006W        W98537   3.268   2.438   3.784
37007W        W98538  30.105  20.653  12.568
37008W        W98539   4.904  27.662  11.982
37009W        W98540  29.576  29.430  13.798
37010W        W98541  24.694  38.991   4.771
37011W        W98542   9.261  43.329   2.844
37012W        W98543   9.211  27.646  13.948
37013W        W98544   8.878  14.240  13.815
37014W        W98545  33.407  34.093  10.055
37015W        W98546  34.014  43.941  13.486
37016W        W98547  25.193   9.808   4.599
37017W        W98548   5.347  22.141   0.786
37018W        W98549  11.360  20.128   1.413
37019W        W98550  37.832  26.603  14.825
37020W        W98551  32.539  19.263  12.479
37021W        W98552  13.759  32.439  14.453
37022W        W98553  24.576  18.607   4.714
37023W        W98554  20.076  12.830  10.013
37024W        W98555   8.267   4.804  10.072
37025W        W98556   2.871  39.956  10.580
37026W        W98557  30.416  28.929  13.458
37027W        W98558  38.060  34.598   2.388
37028W        W98559   2.908  27.013  12.052
37029W        W98560   9.149   4.714  13.475
37030W        W98561  37.516  38.400  11.974
37031W        W98562  31.497   9.664   0.286
37032W        W98563  19.155  16.196   2.740
37033W        W98564  21.092  25.594   4.238
37034W        W98565  32.097   0.436  12.481
37035W        W98566  21.022  34.976   2.390
37036W        W98567   6.404  28.556   4.118
37037W        W98568   0.814  16.581   3.832
37038W        W98569  27.021  39.492   2.688
37039W        W98570   6.855   4.726   3.361
37040W        W98571  11.729   5.244   0.266
37041W        W98572  22.744  13.659  12.342
37042W        W98573   8.717   7.764   0.317
37043W        W98574  14.739  35.071   3.357
37044W        W98575   3.898  10.148   4.304
37045W        W98576  16.100  13.242  14.291
37046W        W98577   9.755  33.416  14.880
37047W        W98578   9.315   3.889  12.366
37048W        W98579  21.690   6.261   1.410
37049W        W98580  34.922  43.935   2.811
37050W        W98581  19.212   2.279   2.360
37051W        W98582  26.558   8.179   1.844
37052W        W98583   8.898   1.483   3.840
37053W        W98584   1.464  37.376  11.540
37054W        W98585  14.283  18.730   4.734
37055W        W98586   0.757  15.582  11.523
37056W        W98587   5.343   2.748  13.054
37057W        W98588  16.566  20.060   1.331
37058W        W98589  44.453   0.969  14.872
37059W        W98590  28.457   6.282   0.297
37060W        W98591  26.074  18.718   4.261
37061W        W98592   0.848  19.754  14.851
37062W        W98593   9.233  14.118   3.163
37063W        W98594  16.313  15.220   3.236
37064W        W98595   1.898  40.391   0.439
37065W        W98596  44.403  16.137  13.326
37066W        W98597  34.022  14.308   3.845
37067W        W98598  20.615  35.920  11.118
37068W        W98599  18.267  35.904  11.987
37069W        W98600  33.039  27.991   0.859
37070W        W98601   0.397  27.452  14.976
37071W        W98602  23.523  44.367   4.646
37072W        W98603  24.585  38.834   2.737
37073W        W98604  18.158  38.564   4.643
37074W        W98605  36.877  38.432   2.838
37075W        W98606   3.822   3.880   4.733
37076W        W98607  17.633   9.371  14.348
37077W        W98608  12.785  44.905   2.850
37078W        W98609  40.532  30.427   0.446
37079W        W98610  30.635  29.920  10.560
37080W        W98611   3.740  35.522   3.223
37081W        W98612  29.947  16.121  12.856
37082W        W98613  23.618  36.563  10.987
37083W        W98614  41.479  15.624  14.436
37084W        W98615   7.296  22.219   3.635
37085W        W98616  42.318  36.901  12.393
37086W        W98617  41.458  39.913  11.425
37087W        W98618  29.093  21.659  11.028
37088W        W98619  12.288  26.185   2.256
37089W        W98620  23.116  21.106  11.494
37090W        W98621  22.543  12.160  11.433
37091W        W98622   5.314  21.626  12.435
37092W        W98623  44.421  35.540   3.764
37093W        W98624   2.424  31.575   1.346
37094W        W98625  34.072  10.782   4.679
37095W        W98626   5.411  32.430  11.059
37096W        W98627  38.009  10.808  11.867
37097W        W98628  30.556   8.296  10.639
37098W        W98629  14.757  18.642  12.511
37099W        W98630  39.472  40.887   2.872
37100W        W98631  15.798  34.955  10.479
37101W        W98632  30.493  42.927  11.378
37102W        W98633  10.667   7.779   3.688
37103W        W98634  40.907  18.088   2.294
37104W        W98635  44.410  18.127   1.216
37105W        W98636  16.184   8.199  13.892
37106W        W98637  35.556  11.173  12.838
37107W        W98638   1.975  22.654   3.252
37108W        W98639  15.602  33.086  14.368
37109W        W98640   6.778  39.908   3.249
37110W        W98641   0.942  44.384  10.090
37111W        W98642  15.293  16.286   1.362
37112W        W98643  13.717   3.735   1.839
37113W        W98644  11.854   5.394   1.790
37114W        W98645  23.728  11.635  11.004
37115W        W98646  43.853  28.649   1.434
37116W        W98647  40.825   1.243  11.074
37117W        W98648  14.660  28.943   4.209
37118W        W98649  26.151  33.463  13.828
37119W        W98650  25.018  38.000   3.186
37120W        W98651  33.440  20.028   1.326
37121W        W98652  43.932  43.813  12.540
37122W        W98653  37.990   4.889   1.385
37123W        W98654  11.844   6.701   2.669
37124W        W98655  31.567  29.163   4.787
37125W        W98656  14.759   0.820   3.713
37126W        W98657   5.332  44.891   4.737
37127W        W98658  22.618  19.228   4.663
37128W        W98659  33.954  10.176   0.738
37129W        W98660  41.011  10.367   2.692
37130W        W98661   1.764  26.536   2.194
37131W        W98662   8.316   8.259  11.425
37132W        W98663  22.013  28.534   3.863
37133W        W98664  44.891  31.529  14.298
37134W        W98665   8.664   1.382  13.482
37135W        W98666   8.864   0.964   4.780
37136W        W98667  18.222  25.049  14.762
37137W        W98668  23.643  25.666  11.072
37138W        W98669  41.363  40.980   2.739
37139W        W98670   3.412  43.946   0.278
37140W        W98671  42.367  23.168   0.285
37141W        W98672  39.361  17.304   0.888
37142W        W98673   7.195  44.948  12.070
37143W        W98674   6.291  44.332  12.863
37144W        W98675  29.953  24.053  12.418
37145W        W98676  17.200  43.925   2.893
37146W        W98677  34.915  10.689  10.541
37147W        W98678  43.815  22.514   2.348
37148W        W98679  40.958  24.644  13.805
37149W        W98680  41.969  44.265   0.367
37150W        W98681  36.457  42.311   4.222
37151W        W98682  11.704  31.577   4.295
37152W        W98683  26.010   1.344   4.149
37153W        W98684  26.065  11.862  11.974
37154W        W98685  18.186  21.584   5.294
37155W        W98686   6.795  37.003  12.933
37156W        W98687  33.925  13.844   1.737
37157W        W98688  19.720  15.264   1.320
37158W        W98689  27.050  35.002   0.429
37159W        W98690  28.468   5.802  14.828
37160W        W98691  11.740  32.526   3.263
37161W        W98692  25.657  27.941   2.732
37162W        W98693  35.925  44.785   2.189
37163W        W98694  35.101  16.291  13.322
37164W        W98695  44.978  36.522   2.679
37165W        W98696  22.239  31.493   4.818
37166W        W98697  25.478  25.185   5.108
37167W        W98698  15.276   3.856   4.772
37168W        W98699  18.186  40.509   4.660
37169W        W98700  15.804  23.551  13.478
37170W        W98701  39.862  36.084  14.845
37171W        W98702  34.420  31.976   1.301
37172W        W98703   5.369   1.295  14.403
37173W        W98704  39.004  16.598  10.936
37174W        W98705  21.638   9.335  14.015
37175W        W98706  41.342   6.696  11.420
37176W        W98707  28.140  25.101   1.215
37177W        W98708   0.352   0.888   0.464
37178W        W98709  27.030  12.822   3.163
37179W        W98710  25.705  40.394  10.917
37180W        W98711  18.229  27.061  13.869
37181W        W98712  30.416   9.293  14.481
37182W        W98713   4.758  12.202  13.960
37183W        W98714  43.471  38.933   0.763
37184W        W98715  35.973  28.477  11.951
37185W        W98716  40.486  17.767   2.305
37186W        W98717  21.647  39.448  14.386
37187W        W98718  29.623  39.063  10.633
37188W        W98719  21.712   7.804  10.473
37189W        W98720  44.372  18.700  12.364
37190W        W98721  43.440  20.217   3.204
37191W        W98722  41.447  11.228  11.564
37192W        W98723  30.069  28.490   3.795
37193W        W98724   9.727  33.527  10.507
37194W        W98725  39.041  17.215  12.850
37195W        W98726  40.954  41.830  13.804
37196W        W98727   2.924   6.323  11.403
37197W        W98728  33.120   5.754  11.079
37198W        W98729  19.680  24.501   0.730
37199W        W98730   4.800  21.036   1.733
37200W        W98731  24.539  14.223   0.416
37201W        W98732   7.244  39.530  13.861
37202W        W98733  12.241  38.416  11.548
37203W        W98734  12.231  37.075   4.759
37204W        W98735  31.006  25.083  13.811
37205W        W98736  22.158  15.690   4.206
37206W        W98737   2.439  41.794   2.229
37207W        W98738  30.490  12.754  13.378
37208W        W98739  12.296  39.479  14.817
37209W        W98740  12.775  36.498  10.955
37210W        W98741  12.801   3.862   4.298
37211W        W98742  19.222  36.394   0.929
37212W        W98743  20.615   9.247   1.287
37213W        W98744   3.216   6.808   3.363
37214W        W98745  12.695  34.907  12.921
37215W        W98746  17.065  27.544   1.311
37216W        W98747  25.201  15.276   2.303
37217W        W98748  26.687  32.623   0.380
37218W        W98749  15.179  44.973  14.859
37219W        W98750  25.611  34.549   1.794
37220W        W98751  24.976  17.063  12.434
37221W        W98752  10.667   7.343   3.726
37222W        W98753  18.617   3.788   3.729
37223W        W98754  35.037  12.169  14.446
37224W        W98755   3.290  33.971  14.792
37225W        W98756   7.898   8.204   0.331
37226W        W98757  24.991  41.979   5.168
37227W        W98758  20.058   5.770   2.317
37228W        W98759   4.797  29.102   1.406
37229W        W98760  25.177  39.426   1.363
37230W        W98761  25.714  21.250   3.814
37231W        W98762  28.040  40.908  12.425
37232W        W98763  42.848   6.759   4.724
37233W        W98764  30.615   5.415  12.354
37234W        W98765   0.889  22.589   1.407
37235W        W98766   3.378  29.172  11.991
37236W        W98767  41.971  19.262   0.912
37237W        W98768  28.935  39.357  14.770
37238W        W98769  29.950  24.547   2.394
37239W        W98770  41.989  25.489  12.369
37240W        W98771  14.248   1.869   1.379
37241W        W98772  17.777  43.852   1.414
37242W        W98773  11.750   3.955  11.063
37243W        W98774  34.538  38.029  11.431
37244W        W98775   3.265  20.706   1.839
37245W        W98776   7.389  10.320  12.538
37246W        W98777  31.926  26.476  14.276
37247W        W98778  41.423  39.456  12.530
37248W        W98779   4.279  39.452   3.336
37249W        W98780   9.691  23.162   0.789
37250W        W98781  10.341  37.922   3.308
37251W        W98782  30.516  21.053   4.620
37252W        W98783  38.057  24.996  13.854
37253W        W98784  11.287   0.864   3.376
37254W        W98785  34.015  35.474  11.444
37255W        W98786  39.359   9.368   2.369
37256W        W98787  39.381  27.173  13.027
37257W        W98788  23.616   6.897  11.118
37258W        W98789  35.521  23.083  10.513
37259W        W98790  11.715  11.829  10.097
37260W        W98791  38.545  33.405  14.422
37261W        W98792  18.553  11.226  14.355
37262W        W98793   2.407  35.958  11.595
37263W        W98794   8.399   5.324  11.013
37264W        W98795  44.279   0.966  12.573
37265W        W98796   1.287  30.923  10.939
37266W        W98797  14.284  20.553   0.345
37267W        W98798  16.674  44.768   4.327
37268W        W98799  32.589  22.041   0.425
37269W        W98800  15.316  42.305   3.865
37270W        W98801  43.901  28.164   3.344
37271W        W98802  33.424  11.768  11.608
37272W        W98803  40.398  26.463   3.666
37273W        W98804  24.687  25.542   3.383
37274W        W98805  31.612  42.782   0.943
37275W        W98806  42.829  34.980  10.989
37276W        W98807   3.739  44.312  14.022
37277W        W98808  18.125  11.320   1.416
37278W        W98809  44.456  36.499   2.267
37279W        W98810  37.994  41.361   0.410
37280W        W98811  28.983  25.044   3.865
37281W        W98812  26.981  35.480   2.287
37282W        W98813   5.429  26.068  11.389
37283W        W98814   2.335  24.224   1.786
37284W        W98815  29.950  12.735  13.869
37285W        W98816  20.535  19.160   2.281
37286W        W98817  25.627  35.882  13.313
37287W        W98818   1.462   8.328   1.416
37288W        W98819  21.523  19.551   0.325
37289W        W98820   5.821  38.330   3.167
37290W        W98821  16.085  31.942   0.356
37291W        W98822   5.240  38.569  10.960
37292W        W98823  19.242  14.261  13.548
37293W        W98824  34.590  20.166   2.193
37294W        W98825  33.076   1.415   4.303
37295W        W98826  11.812   2.863  12.910
37296W        W98827  13.606  20.544  12.038
37297W        W98828   2.939  26.130  13.436
37298W        W98829  35.593  29.474  13.527
37299W        W98830  41.890  16.694  14.343
37300W        W98831  11.834  40.971  10.491
37301W        W98832  35.425  34.600  12.423
37302W        W98833   1.444  23.604  13.521
37303W        W98834  16.212   6.779  13.398
37304W        W98835  30.546   6.778   1.307
37305W        W98836   0.342   9.773   0.312
37306W        W98837  38.922   9.303  14.906
37307W        W98838   1.269  23.159   4.614
37308W        W98839  24.535  34.023  14.485
37309W        W98840  30.026   6.234  13.045
37310W        W98841  40.927  41.295   3.322
37311W        W98842  38.892  15.308  12.867
37312W        W98843  10.812  17.231  13.024
37313W        W98844  40.380  14.255   3.756
37314W        W98845  41.940   5.238   2.707
37315W        W98846  29.936  23.124   3.743
37316W        W98847   5.729  41.971   0.964
37317W        W98848  41.487  15.309  13.965
37318W        W98849  20.765  44.841   0.929
37319W        W98850   8.203  23.083   2.671
37320W        W98851  34.524  10.348   4.648
37321W        W98852  11.363  29.924  12.498
37322W        W98853   6.397   7.260  11.556
37323W        W98854  16.147  42.473   4.336
37324W        W98855  30.019   0.884  13.863
37325W        W98856   8.820  33.989  11.862
37326W        W98857  24.067  22.006  12.898
37327W        W98858   8.399  38.969  13.028
37328W        W98859  17.249  17.627  14.954
37329W        W98860  44.843  42.387   2.194
37330W        W98861  33.593   4.307  14.858
37331W        W98862  16.769  16.756  10.482
37332W        W98863  42.961  41.414   0.448
37333W        W98864   4.707   1.401  10.628
37334W        W98865   0.425  28.089   3.256
37335W        W98866  18.620  27.580  14.006
37336W        W98867  34.547  36.396  11.963
37337W        W98868  29.979   3.320   0.814
37338W        W98869  11.344  35.468  10.418
37339W        W98870  15.291  19.150   4.793
37340W        W98871  35.436  40.045  12.539
37341W        W98872  17.267  37.402  11.998
37342W        W98873   2.754   4.890  14.980
37343W        W98874   6.231  31.121  12.373
37344W        W98875  19.654  34.015   0.793
37345W        W98876  17.610  24.123   2.178
37346W        W98877  28.619  41.381  11.997
37347W        W98878  20.031  37.075   3.228
37348W        W98879  43.402  30.119  11.484
37349W        W98880  27.115  29.489  10.505
37350W        W98881  43.868  25.554   2.361
37351W        W98882  16.697  39.484  14.450
37352W        W98883  20.150   8.731   9.921
37353W        W98884  37.479  31.141   2.293
37354W        W98885  11.684  28.981  14.961
37355W        W98886  16.314  41.016  10.595
37356W        W98887   4.386  33.000  12.050
37357W        W98888   4.280  28.527   4.638
37358W        W98889  24.539  10.847   3.367
37359W        W98890   4.935  23.710   2.248
37360W        W98891   6.743  22.168   4.833
37361W        W98892  14.331  35.885  10.615
37362W        W98893  13.725   2.740   0.348
37363W        W98894  16.699  35.026  13.352
37364W        W98895  43.306  18.080  11.017
37365W        W98896  21.042  32.624  11.937
37366W        W98897   1.909  26.589  13.459
37367W        W98898  44.349  36.555  10.484
37368W        W98899  36.518  30.611  13.513
37369W        W98900  32.964  26.005   0.742
37370W        W98901   6.716   6.803   1.791
37371W        W98902  11.862  11.204   1.730
37372W        W98903   6.814  27.188  13.476
37373W        W98904  24.640  28.548  10.914
37374W        W98905   7.416   1.759  12.982
37375W        W98906  36.474  35.480  14.891
37376W        W98907  39.545  29.943   0.954
37377W        W98908   4.284  26.496   3.851
37378W        W98909  22.080  40.885  10.624
37379W        W98910  25.691  29.468  13.976
37380W        W98911   9.804  33.083  11.418
37381W        W98912   4.408  13.732   4.643
37382W        W98913  22.571  15.583  13.804
37383W        W98914   2.858   8.800   5.167
37384W        W98915   5.748  18.158  11.909
37385W        W98916  35.056  42.833  12.355
37386W        W98917  24.496  14.746  14.830
37387W        W98918  21.710   4.792   9.941
37388W        W98919  20.739  24.006  11.967
37389W        W98920  40.319  20.108  12.869
37390W        W98921  22.642  26.982  12.480
37391W        W98922  42.008  22.022   0.261
37392W        W98923  39.896   1.483  13.988
37393W        W98924  13.334  17.132   1.726
37394W        W98925  44.440   4.816   2.350
37395W        W98926  31.966  14.731  10.896
37396W        W98927  16.724  13.602  12.006
37397W        W98928  32.084  21.673   1.911
37398W        W98929  21.259  32.890  14.773
37399W        W98930   3.350  12.825  12.563
37400W        W98931  25.705   7.332  12.459
37401W        W98932  36.564  41.970   4.258
37402W        W98933   6.713   9.329  13.951
37403W        W98934  36.870   8.676  14.988
37404W        W98935  12.158  11.187   0.307
37405W        W98936  39.047  23.075  11.980
37406W        W98937   5.419   4.742  10.914
37407W        W98938  28.601  28.152  14.918
37408W        W98939  44.965  25.147   1.234
37409W        W98940  11.771  35.890  12.403
37410W        W98941  25.601  16.621  10.496
37411W        W98942  33.442   1.961   9.946
37412W        W98943  26.644  40.997  11.997
37413W        W98944   0.902  24.508   2.849
37414W        W98945  16.298   0.337  13.388
37415W        W98946  24.124  25.967   3.309
37416W        W98947  28.128  42.399   4.813
37417W        W98948  30.958  19.561  12.458
37418W        W98949  34.570  39.953  11.470
37419W        W98950  23.560   0.285  12.028
37420W        W98951   0.333  10.320   4.313
37421W        W98952   1.968  17.240   2.257
37422W        W98953  30.431  18.734  11.387
37423W        W98954  38.027  34.491   0.433
37424W        W98955  36.968  19.625   2.732
37425W        W98956  21.641  14.729  12.845
37426W        W98957  22.168  19.778  11.051
37427W        W98958  23.678  17.802  14.004
37428W        W98959  37.063   8.240  14.809
37429W        W98960  15.215  38.406   0.821
37430W        W98961  17.754   6.804  12.528
37431W        W98962  15.649  22.206  12.935
37432W        W98963  16.783   6.410   3.795
37433W        W98964   6.866  22.731   2.279
37434W        W98965  15.190  21.520   2.322
37435W        W98966  23.674  35.567  14.908
37436W        W98967  16.245  26.124  14.372
37437W        W98968  13.168  39.810   0.850
37438W        W98969   9.282   4.774  11.987
37439W        W98970  22.048  14.717   4.185
37440W        W98971   6.186   0.898  12.891
37441W        W98972  44.447  27.192   2.788
37442W        W98973  31.562  32.977  13.046
37443W        W98974  18.287  17.079   0.302
37444W        W98975  27.483  38.885   4.346
37445W        W98976   5.781  26.154   2.802
37446W        W98977  38.881  19.577  12.494
37447W        W98978  14.696  30.579   0.464
37448W        W98979  11.137   3.444   0.965
37449W        W98980  14.133  35.369   2.262
37450W        W98981   1.914  32.502  12.974
37451W        W98982  37.087   6.317  11.457
37452W        W98983  23.035   1.824  14.867
37453W        W98984  21.147  29.159   2.268
37454W        W98985  11.142  19.616  11.105
37455W        W98986  41.853  13.242   3.372
37456W        W98987  29.985   5.435  10.951
37457W        W98988  14.802  25.180   4.776
37458W        W98989  41.295  15.809   2.264
37459W        W98990  19.160  34.429   3.302
37460W        W98991  14.677  26.654   3.780
37461W        W98992   1.829  42.857  10.641
37462W        W98993  11.730  28.148   2.410
37463W        W98994   8.332  15.121   4.777
37464W        W98995  28.954   5.762  11.898
37465W        W98996  44.294  38.488   0.787
37466W        W98997  42.883  41.371   9.991
37467W        W98998  17.089  41.808  10.409
37468W        W98999  38.987  17.092   3.695
37469W        W99000  35.994  40.519  11.055
37470W        W99001  32.126  29.120  14.322
37471W        W99002  43.798  43.327  11.498
37472W        W99003  30.585  30.416  12.386
37473W        W99004  26.524  21.071   2.692
37474W        W99005  38.905  21.214  10.907
37475W        W99006   4.321  15.599   3.168
37476W        W99007  26.606   7.358  10.425
37477W        W99008   6.798   3.269   1.874
37478W        W99009  35.474  34.464   1.406
37479W        W99010  15.107  24.080   0.312
37480W        W99011  32.115  44.825  11.489
37481W        W99012  33.050   1.913   1.799
37482W        W99013  43.770  27.556   1.256
37483W        W99014  12.195  17.209   2.810
37484W        W99015  32.458  35.482   2.721
37485W        W99016  13.281   9.690   4.268
37486W        W99017  29.491   9.150  13.455
37487W        W99018  19.627   2.361  13.807
37488W        W99019  23.537  25.510   1.210
37489W        W99020  22.060  29.962   4.711
37490W        W99021  36.494  35.021   2.341
37491W        W99022  20.076  36.955  12.937
37492W        W99023  42.475  20.691  11.084
37493W        W99024  33.553   4.274  12.365
37494W        W99025  14.722  23.667   3.284
37495W        W99026  40.452  15.708  10.110
37496W        W99027  25.187   6.191   2.252
37497W        W99028  22.570  10.245   2.186
37498W        W99029  27.035  41.315  13.058
37499W        W99030  16.178  43.333   4.174
37500W        W99031  19.120  11.789  14.955
37501W        W99032  16.757  24.114  13.826
37502W        W99033  41.963  24.604  12.514
37503W        W99034  14.154  14.690   1.769
37504W        W99035  25.521  34.419  12.034
37505W        W99036  30.516   4.419  11.565
37506W        W99037  20.633  37.038   1.304
37507W        W99038  37.898  20.642  12.950
37508W        W99039  44.453  34.071  10.925
37509W        W99040   9.380  36.514  13.896
37510W        W99041  17.105  21.722  10.920
37511W        W99042   8.338  28.990   2.856
37512W        W99043   4.833  14.656   0.476
37513W        W99044  16.294   0.758  14.499
37514W        W99045  36.995  10.786  12.950
37515W        W99046   4.372  18.067   2.862
37516W        W99047  26.156  42.473  14.887
37517W        W99048   7.302  12.645   3.384
37518W        W99049  20.096  28.961   0.476
37519W        W99050  14.166  36.024   1.344
37520W        W99051  42.508   3.753   2.230
37521W        W99052  22.718  43.429   1.219
37522W        W99053  27.116  35.944   5.280
37523W        W99054  43.448  21.545  10.981
37524W        W99055  35.858  23.098  11.573
37525W        W99056  21.038  40.379   2.735
37526W        W99057  44.972  43.937  14.883
37527W        W99058  12.350   4.703  10.033
37528W        W99059  19.681  25.149   5.250
37529W        W99060  28.478  13.690  14.943
37530W        W99061   9.645  20.095   0.435
37531W        W99062   7.275  24.719   3.729
37532W        W99063  43.486   3.291  11.112
37533W        W99064   3.793   2.879  10.909
37534W        W99065  30.466  27.512  11.881
37535W        W99066  39.923  28.466  12.840
37536W        W99067  36.892  31.069   1.909
37537W        W99068  12.640  23.600  10.523
37538W        W99069  23.134  22.544  14.911
37539W        W99070  36.956  10.731   5.299
37540W        W99071  19.066  42.431  12.557
37541W        W99072   5.331  33.088   1.340
37542W        W99073   9.866  14.280  12.403
37543W        W99074  28.462  26.048  12.086
37544W        W99075  39.030  25.085   2.681
37545W        W99076  33.447  10.246  14.029
37546W        W99077  23.529   9.662  12.479
37547W        W99078   0.328  44.849  11.009
37548W        W99079  40.442  20.643   0.951
37549W        W99080   1.465  32.120   3.381
37550W        W99081  39.336   5.276   0.799
37551W        W99082  26.531   1.877   4.705
37552W        W99083  42.943   1.479  11.577
37553W        W99084  24.116  26.018  12.941
37554W        W99085  17.645  29.660   1.220
37555W        W99086  38.988   7.331  10.628
37556W        W99087  36.457  28.983  12.065
37557W        W99088  15.712  10.159  13.485
37558W        W99089  22.624  15.266  13.499
37559W        W99090  42.367  38.487  14.360
37560W        W99091  34.407   3.289  13.511
37561W        W99092  18.758  39.999   4.666
37562W        W99093  26.968  31.924   4.728
37563W        W99094   5.290  36.956   3.168
37564W        W99095  29.971   8.667   1.344
37565W        W99096  40.992  11.329   0.777
37566W        W99097   0.473  23.580   2.270
37567W        W99098  19.595  18.671  13.929
37568W        W99099  30.641   2.277  10.972
37569W        W99100   6.360   4.777   1.880
37570W        W99101  43.431  18.694   3.209
37571W        W99102   4.817  30.987  11.061
37572W        W99103  35.467  22.573  14.793
37573W        W99104   3.751  12.659   4.340
37574W        W99105   2.357  17.754  13.960
37575W        W99106  39.541  28.505   3.278
37576W        W99107  27.620  34.099   4.606
37577W        W99108  36.921  37.371   2.380
37578W        W99109  35.020  42.961   1.715
37579W        W99110  43.987  32.947  10.457
37580W        W99111  29.466  33.030  11.886
37581W        W99112   9.646   7.773   2.831
37582W        W99113   9.392  16.175  11.098
37583W        W99114  19.182  18.735   0.919
37584W        W99115  16.268  26.071   2.365
37585W        W99116  16.620  43.022  14.780
37586W        W99117  17.077  14.647  13.480
37587W        W99118  43.474  30.461  10.097
37588W        W99119  26.044  33.119  10.536
37589W        W99120  33.530   3.868  11.473
37590W        W99121  22.728  19.749   1.840
37591W        W99122  30.567  23.723  12.045
37592W        W99123  37.015  19.723   3.378
37593W        W99124  28.031   8.327  11.501
37594W        W99125  39.489   1.965   1.356
37595W        W99126   1.794  17.271  12.046
37596W        W99127   3.236  32.513   3.658
37597W        W99128   5.771   7.741  14.835
37598W        W99129   5.795  29.963  12.029
37599W        W99130  30.055   8.207   0.894
37600W        W99131  36.900  13.627  12.033
37601W        W99132  38.525  42.288   0.843
37602W        W99133  20.741  20.722   3.754
37603W        W99134  33.398  24.132   0.390
37604W        W99135   6.272  25.087   3.227
37605W        W99136   3.449  20.692  13.850
37606W        W99137  29.171  12.675   2.316
37607W        W99138  39.973  41.912  12.917
37608W        W99139   6.757   8.695   2.669
37609W        W99140   2.813   4.909   4.618
37610W        W99141  34.880  26.020   3.715
37611W        W99142  36.384  28.163   4.321
37612W        W99143  19.533  14.325  11.057
37613W        W99144  22.523  40.538   5.235
37614W        W99145  29.156  27.196  13.546
37615W        W99146  19.679  33.599  13.853
37616W        W99147   4.210  25.172   0.759
37617W        W99148   9.370   5.270  10.588
37618W        W99149  15.600  17.187   4.350
37619W        W99150  30.951   0.945  11.009
37620W        W99151  27.153   9.838   2.813
37621W        W99152  23.095  29.488   1.337
37622W        W99153  13.128   8.263   0.483
37623W        W99154  35.438  12.827   1.312
37624W        W99155  10.251  12.693  13.441
37625W        W99156   2.945  19.264  12.558
37626W        W99157  22.521  23.503  11.932
37627W        W99158  16.133  27.605  14.859
37628W        W99159  16.140  17.086   1.340
37629W        W99160  26.564  30.514  14.457
37630W        W99161  29.000  30.589   2.721
37631W        W99162  40.423  33.614  14.863
37632W        W99163  26.033   5.388  13.516
37633W        W99164  10.728  44.433   3.684
37634W        W99165  15.627   4.734  14.914
37635W        W99166  34.993  38.426   3.641
37636W        W99167  38.562  23.231  13.536
37637W        W99168  33.020  17.765   2.761
37638W        W99169  23.647  39.320   4.301
37639W        W99170   0.297  39.496   0.732
37640W        W99171   0.468  33.408   3.664
37641W        W99172  12.785  15.098  13.058
37642W        W99173   5.727  36.095   3.741
37643W        W99174   3.304  40.427   4.217
37644W        W99175  25.082  32.093   2.799
37645W        W99176  15.720  39.520  10.528
37646W        W99177  39.881  17.661   4.706
37647W        W99178   5.270  12.714   4.775
37648W        W99179  11.736  26.603  13.382
37649W        W99180   9.743  44.395   1.323
37650W        W99181  33.949   2.453   2.201
37651W        W99182   1.855  19.138   2.773
37652W        W99183  30.039  26.468  13.435
37653W        W99184  20.604  25.636   0.320
37654W        W99185   4.785  28.522   2.664
37655W        W99186  25.202   1.859   0.338
37656W        W99187  14.730  36.526  10.926
37657W        W99188  21.735  20.680   0.386
37658W        W99189  17.695  21.216   1.405
37659W        W99190  38.520  42.919  11.113
37660W        W99191   4.374  24.103   2.798
37661W        W99192  16.120  41.351  14.919
37662W        W99193   3.821  24.613   0.338
37663W        W99194  34.492  15.318   2.845
37664W        W99195  35.530  21.566   1.312
37665W        W99196   1.780  20.202  14.864
37666W        W99197  14.238  13.260   1.780
37667W        W99198   9.819  38.503  10.456
37668W        W99199   9.679  40.041  12.843
37669W        W99200  17.679   0.755  11.904
37670W        W99201  25.160  16.801   0.311
37671W        W99202  31.132  41.923  12.869
37672W        W99203  24.574  28.003  10.512
37673W        W99204  29.927  17.077   2.396
37674W        W99205  26.467  36.506  13.934
37675W        W99206  14.145   7.341   4.279
37676W        W99207   4.209  42.516   2.346
37677W        W99208  35.592  40.498   4.730
37678W        W99209  31.103   9.810   0.787
37679W        W99210   2.375  17.069   3.866
37680W        W99211  22.125  15.130   4.326
37681W        W99212  17.225  42.922   2.273
37682W        W99213  25.127  31.096  11.442
37683W        W99214  20.747  17.081  13.830
37684W        W99215  33.433   0.887   3.224
37685W        W99216  32.141  10.171  11.539
37686W        W99217  42.028   3.233   2.857
37687W        W99218   2.432   7.766  14.418
37688W        W99219  43.345  17.265   0.257
37689W        W99220  11.660  38.821   3.697
37690W        W99221  31.938  10.184   1.373
37691W        W99222  28.987  22.727   2.827
37692W        W99223   5.210  31.443  14.421
37693W        W99224   3.287  25.056   3.634
37694W        W99225  27.119  29.615  11.515
37695W        W99226  29.573  30.114  12.377
37696W        W99227  15.640   9.770   3.156
37697W        W99228  14.131  27.184   2.414
37698W        W99229  34.022  29.096  11.026
37699W        W99230  25.515  16.103   1.917
37700W        W99231   8.855  43.312   4.793
37701W        W99232  33.499   0.933  14.436
37702W        W99233  12.794   3.932   3.275
37703W        W99234   4.777  24.632  14.451
37704W        W99235   6.210  28.048  13.387
37705W        W99236   7.389   8.701   3.256
37706W        W99237  18.613  39.008  10.066
37707W        W99238  44.502  13.727  14.788
37708W        W99239  36.505   7.828  11.049
37709W        W99240  11.260  27.001   1.739
37710W        W99241  31.488  23.551  10.457
37711W        W99242  10.246  12.320  13.967
37712W        W99243  26.013  40.895   2.890
37713W        W99244  16.750  31.083  13.826
37714W        W99245  23.988  16.572  12.474
37715W        W99246  13.327   5.795   4.197
37716W        W99247  24.514  36.424   2.365
37717W        W99248  40.377  40.358   4.819
37718W        W99249  38.956  35.527   2.777
37719W        W99250  11.295  15.228  14.021
37720W        W99251  20.586  18.242  13.436
37721W        W99252  10.289  15.620  12.375
37722W        W99253   0.320  22.239  14.799
37723W        W99254  25.585  39.408   4.337
37724W        W99255  26.657  30.034  14.809
37725W        W99256  40.410  39.031  11.428
37726W        W99257  25.022   4.415   0.351
37727W        W99258  41.444  13.604   4.302
37728W        W99259  15.208  19.737  12.855
37729W        W99260   0.940  11.638   3.636
37730W        W99261  20.197  21.521   3.339
37731W        W99262  31.111  35.492  11.512
37732W        W99263  36.922  10.690   3.857
37733W        W99264  40.973  28.581  13.498
37734W        W99265  13.313  31.568  12.419
37735W        W99266  32.088  21.722   2.203
37736W        W99267   7.740  44.343   2.238
37737W        W99268  30.551  28.483   0.779
37738W        W99269  39.049  20.240   4.277
37739W        W99270  19.554   0.492  12.015
37740W        W99271   0.911   2.806  12.420
37741W        W99272  24.978   4.221  11.451
37742W        W99273   0.470  25.690   3.636
37743W        W99274  25.039  17.696   0.302
37744W        W99275  22.674  18.096   2.715
37745W        W99276  33.927  24.080  10.972
37746W        W99277  18.238  18.589  14.364
37747W        W99278   7.820   3.240  11.524
37748W        W99279   0.813  43.421  12.379
37749W        W99280  30.987  26.480  13.545
37750W        W99281   4.336  13.661   1.371
37751W        W99282  42.315  20.676  12.421
37752W        W99283  30.553   3.816  11.117
37753W        W99284  27.666  22.700   3.267
37754W        W99285  21.723  38.346   2.247
37755W        W99286  27.513  18.155  14.482
37756W        W99287  40.327  21.028  13.356
37757W        W99288   1.954   1.770  13.841
37758W        W99289  35.491   1.731   3.147
37759W        W99290  24.014  21.703   1.756
37760W        W99291   0.428  26.000  10.614
37761W        W99292  36.408  27.470   0.451
37762W        W99293  41.349  24.225  12.360
37763W        W99294  33.980  38.412   3.814
37764W        W99295  24.068  35.447   0.940
37765W        W99296  28.584  43.989  14.844
37766W        W99297   4.814  44.259  11.455
37767W        W99298  35.019  25.179   4.833
37768W        W99299  13.142  26.628  10.595
37769W        W99300  25.616  15.596   0.830
37770W        W99301  41.971  17.740  14.956
37771W        W99302  16.582  35.106   2.894
37772W        W99303  19.739  10.674   4.653
37773W        W99304   8.900  30.127   3.210
37774W        W99305  39.369  30.424  14.370
37775W        W99306  14.292  33.551   1.783
37776W        W99307  22.250  32.392   4.801
37777W        W99308  33.043  12.816   4.776
37778W        W99309  38.038  22.244   0.379
37779W        W99310  12.205  29.079   5.264
37780W        W99311  13.751  13.250  14.430
37781W        W99312  17.155   7.685  11.002
37782W        W99313  14.174  33.129   0.783
37783W        W99314  10.690  27.465   4.164
37784W        W99315  27.584   3.350   4.624
37785W        W99316  39.505  19.260  11.060
37786W        W99317  17.757  20.102  14.337
37787W        W99318   8.200  13.794   4.172
37788W        W99319  23.231   1.917  10.414
37789W        W99320  11.201  18.225   4.236
37790W        W99321   3.918   6.418  13.887
37791W        W99322  40.387  31.616  12.546
37792W        W99323  37.401   6.219   2.250
37793W        W99324  43.504  29.428   1.835
37794W        W99325  10.811  44.907   1.887
37795W        W99326  21.162  39.823   3.279
37796W        W99327  16.315  34.607  12.463
37797W        W99328  30.506  14.337   0.842
37798W        W99329  37.343  30.943  12.865
37799W        W99330  13.820  13.841   4.606
37800W        W99331  11.286   4.891   2.873
37801W        W99332  32.630   5.727  13.445
37802W        W99333  20.241  40.827   3.713
37803W        W99334  40.830   1.442  13.979
37804W        W99335  34.451  14.121   1.718
37805W        W99336  34.119  35.543   4.327
37806W        W99337  37.381  13.243   3.731
37807W        W99338  27.111  38.025   3.753
37808W        W99339  17.696   9.852   0.759
37809W        W99340  30.447  31.604   0.446
37810W        W99341  29.649   8.364  13.447
37811W        W99342  12.241  14.680  14.793
37812W        W99343  25.100  17.634  10.964
37813W        W99344  13.348   1.839   3.739
37814W        W99345  41.859  26.193  14.411
37815W        W99346  33.924  35.984   3.709
37816W        W99347  37.059  38.529  13.838
37817W        W99348  18.102   5.338  13.525
37818W        W99349  17.104  11.337  10.937
37819W        W99350  26.113  17.676  12.924
37820W        W99351  10.302  41.035  13.402
37821W        W99352  10.295  18.600  11.441
37822W        W99353  36.882  19.700  12.991
37823W        W99354  36.873  34.439  10.598
37824W        W99355  25.162  15.759  14.963
37825W        W99356  17.266  15.819  14.317
37826W        W99357  41.373  15.190   2.809
37827W        W99358   3.789  31.508  13.384
37828W        W99359  27.553  37.395  10.589
37829W        W99360  14.788  22.517  11.439
37830W        W99361  26.640  29.579  14.933
37831W        W99362  37.853  35.084  10.540
37832W        W99363  41.952  10.634   4.799
37833W        W99364  36.063  14.213   4.150
37834W        W99365  40.831   7.861   0.260
37835W        W99366  22.689  37.945  10.032
37836W        W99367  12.779  42.837   4.693
37837W        W99368  29.572  24.722   4.714
37838W        W99369  13.635  41.857   2.836
37839W        W99370  42.988  12.238  14.310
37840W        W99371  24.485  16.317  11.541
37841W        W99372  39.066   8.345  14.468
37842W        W99373  33.947  41.433   3.380
37843W        W99374  39.869  26.979  14.306
37844W        W99375  18.768  32.991  14.975
37845W        W99376   9.345  37.873  12.080
37846W        W99377  44.275  13.630   1.259
37847W        W99378  32.542  16.293   2.211
37848W        W99379  31.648  25.685   0.927
37849W        W99380   1.813  43.451   0.296
37850W        W99381  35.593   2.752  13.872
37851W        W99382  11.287  37.844   1.350
37852W        W99383  20.206  22.618  12.036
37853W        W99384  32.020  25.610   3.288
37854W        W99385  19.255  22.102   1.703
37855W        W99386  15.688  33.582   9.938
37856W        W99387  13.278  44.260   0.327
37857W        W99388   8.864  25.137   3.845
37858W        W99389  21.517   4.259  14.995
37859W        W99390   7.396   0.411   3.194
37860W        W99391  31.139   2.736  10.419
37861W        W99392  18.257   3.727   2.742
37862W        W99393  25.137   4.341   4.683
37863W        W99394  39.054  43.973  14.961
37864W        W99395  37.357  35.018   4.200
37865W        W99396  44.787  14.772  12.847
37866W        W99397  17.672   2.856  13.488
37867W        W99398  19.715  20.655   4.194
37868W        W99399  21.187   7.402  10.524
37869W        W99400  43.348   5.903  14.017
37870W        W99401  10.754   9.715   1.762
37871W        W99402  20.723   3.402   4.615
37872W        W99403  37.523  20.268   3.182
37873W        W99404  29.128  39.876  12.034
37874W        W99405   3.711  38.838   1.296
37875W        W99406   7.352   9.717   2.847
37876W        W99407  13.754  14.229  13.445
37877W        W99408   0.800  12.793   3.325
37878W        W99409  20.699  10.283  12.087
37879W        W99410  26.621   9.202   4.779
37880W        W99411  20.199  28.541  10.953
37881W        W99412  28.934  38.004   3.709
37882W        W99413  38.433  13.108   2.357
37883W        W99414  41.873  29.500   1.245
37884W        W99415   2.319  38.037  11.392
37885W        W99416   7.180  31.933   1.370
37886W        W99417  38.022  22.565   2.861
37887W        W99418  11.309  39.457  11.116
37888W        W99419   5.244  27.664   3.698
37889W        W99420  21.220  28.454   3.739
37890W        W99421  37.038   4.364   4.125
37891W        W99422  11.324  40.877   3.787
37892W        W99423  26.568  32.896  10.962
37893W        W99424  33.106  25.073   2.216
37894W        W99425   6.821  33.393   1.715
37895W        W99426  38.412   6.700  11.008
37896W        W99427  31.910  16.170   9.541
37897W        W99428  38.480  16.576  14.829
37898W        W99429  43.945  42.982   4.783
37899W        W99430  25.180   1.304  14.937
37900W        W99431  38.381  32.989   2.210
37901W        W99432  12.793   9.394  13.533
37902W        W99433  44.455  44.469   3.801
37903W        W99434  29.605   0.269  14.931
37904W        W99435  21.205  34.521  13.387
37905W        W99436  37.520  14.665  11.603
37906W        W99437   0.452  28.567   4.300
37907W        W99438  35.981   7.688  14.767
37908W        W99439  26.619  10.340   1.307
37909W        W99440  15.580  30.556  13.971
37910W        W99441  31.023   9.652   2.699
37911W        W99442  40.804  31.037  11.576
37912W        W99443   8.406   0.302  11.414
37913W        W99444  15.692  20.699   4.676
37914W        W99445   1.394  43.794   3.787
37915W        W99446  16.756   0.837  14.946
37916W        W99447   9.873  17.771   4.117
37917W        W99448   2.254  30.145   3.690
37918W        W99449  25.207  32.037  10.583
37919W        W99450  43.299  44.465   4.292
37920W        W99451  34.974  23.074   2.379
37921W        W99452   9.769  26.654  14.925
37922W        W99453  30.943  34.465   0.400
37923W        W99454  42.905  27.482   1.365
37924W        W99455  36.498  23.205   3.217
37925W        W99456  43.001  15.815  11.552
37926W        W99457  42.280  40.966  14.298
37927W        W99458  27.086  25.978  11.034
37928W        W99459  29.918   6.761  14.283
37929W        W99460  34.913  29.149   2.792
37930W        W99461  13.753   7.178  11.031
37931W        W99462  29.489  32.016   2.380
37932W        W99463  16.675  34.982  11.594
37933W        W99464  44.803  23.110  10.635
37934W        W99465  28.064   1.265  13.436
37935W        W99466  43.951  35.885   1.891
37936W        W99467  14.819  30.005  14.361
37937W        W99468   6.883  41.382  10.912
37938W        W99469  19.122  14.694   3.738
37939W        W99470  21.698   9.703   3.777
37940W        W99471  19.753  12.762  12.363
37941W        W99472  30.165  22.638   2.225
37942W        W99473  34.917  36.974   2.677
37943W        W99474  41.388  12.339  10.584
37944W        W99475  34.922  36.992   0.262
37945W        W99476  17.723   0.985   2.384
37946W        W99477  40.852  36.508  14.290
37947W        W99478  17.733  41.422   0.870
37948W        W99479  32.435  20.046   0.915
37949W        W99480  38.463  13.201   2.735
37950W        W99481  14.187   0.804   4.195
37951W        W99482  42.462  32.554  14.023
37952W        W99483  37.862  18.083  12.045
37953W        W99484   3.747  14.595   4.748
37954W        W99485   0.914   2.759  11.968
37955W        W99486  20.071  30.086   3.865
37956W        W99487  40.531  21.547   3.734
37957W        W99488   3.801  37.890  12.933
37958W        W99489  33.552  37.030  10.436
37959W        W99490  32.468  14.817  11.569
37960W        W99491  33.120  11.297   4.638
37961W        W99492  40.427   8.335  11.386
37962W        W99493  20.272  16.207  13.810
37963W        W99494  21.587   5.787  12.500
37964W        W99495  24.088  43.504   2.259
37965W        W99496  32.573  32.633   1.245
37966W        W99497   8.785  29.111  13.856
37967W        W99498   1.407  25.498   4.125
37968W        W99499  24.183  36.076   0.771
37969W        W99500  13.142  26.628   2.701
37970W        W99501   4.217   0.384  12.844
37971W        W99502  36.900  22.082   0.323
37972W        W99503   8.164  15.593   2.787
37973W        W99504   4.843  32.976  10.517
37974W        W99505  38.039  31.066  12.907
37975W        W99506  10.292  37.545  12.895
37976W        W99507  35.920  38.411  13.059
37977W        W99508  44.870   9.335  11.504
37978W        W99509  14.176   9.802   0.890
37979W        W99510  39.937  24.502   0.471
37980W        W99511  20.242  18.237  13.917
37981W        W99512  38.478   2.876  12.381
37982W        W99513  30.965   6.390   5.219
37983W        W99514  18.700  17.073  10.640
37984W        W99515  24.054   1.269  12.012
37985W        W99516  28.136  21.067   0.400
37986W        W99517  12.121  18.584  12.993
37987W        W99518   9.887   0.975   5.715
37988W        W99519  23.527  14.699   2.781
37989W        W99520   3.327  25.096  14.326
37990W        W99521  24.015   8.260  13.033
37991W        W99522  14.256  44.852   4.151
37992W        W99523   8.372   0.341   3.167
37993W        W99524  37.983  38.488   5.646
37994W        W99525  13.699   5.329   0.794
37995W        W99526  32.556  16.161  14.284
37996W        W99527  37.425  21.220  12.353
37997W        W99528  40.402   1.804  14.870
37998W        W99529  10.741  14.123  12.409
37999W        W99530   6.887  36.456  11.982
38000W        W99531  26.108  29.950  14.293
38001W        W99532  42.887  36.504   4.771
38002W        W99533  37.004  40.400   2.767
38003W        W99534  41.511  12.279  14.982
38004W        W99535  43.494  32.455  12.432
38005W        W99536  11.243  34.544   3.299
38006W        W99537  37.898  37.843  12.501
38007W        W99538  20.765   5.425   0.831
38008W        W99539  32.003  27.997   2.886
38009W        W99540   9.322  40.045   1.278
38010W        W99541  24.221  14.217   1.288
38011W        W99542  27.025  22.658  14.296
38012W        W99543   6.374   7.880   1.829
38013W        W99544   5.754  21.246  12.862
38014W        W99545   2.406  24.989  13.006
38015W        W99546   1.914  38.898  14.315
38016W        W99547   8.180   6.908   0.731
38017W        W99548  24.502   1.835  12.072
38018W        W99549  25.129   8.397   1.278
38019W        W99550  14.161  32.073   3.251
38020W        W99551   6.212   4.731   1.261
38021W        W99552  39.878  41.854  11.008
38022W        W99553   0.280  28.665   0.262
38023W        W99554  36.097  39.352  14.950
38024W        W99555  29.141   3.725   0.858
38025W        W99556   9.854  44.288   0.829
38026W        W99557   8.355  38.865  14.004
38027W        W99558  18.181   8.314  13.444
38028W        W99559  13.105  22.147  13.890
38029W        W99560  17.234  18.291  10.962
38030W        W99561   8.325   7.338   4.303
38031W        W99562  22.193   1.932  12.929
38032W        W99563  24.073  31.500  13.800
38033W        W99564  14.807  44.803   0.950
38034W        W99565  40.049  21.176  12.064
38035W        W99566   1.444   5.820   0.310
38036W        W99567   7.888   4.786   3.824
38037W        W99568   3.441   6.815   2.273
38038W        W99569  35.980  43.303   1.379
38039W        W99570  23.158  30.965  12.574
38040W        W99571   9.160  44.919  11.111
38041W        W99572   6.809  10.833   1.792
38042W        W99573  26.527  14.666  14.797
38043W        W99574  16.184  33.384   2.743
38044W        W99575  38.000  42.802   9.935
38045W        W99576  24.520  23.173   1.396
38046W        W99577  32.982   5.703   4.347
38047W        W99578  31.420  27.517   2.197
38048W        W99579   9.728  18.062  10.516
38049W        W99580  35.577  43.974  13.860
38050W        W99581  33.106  35.036  14.309
38051W        W99582  15.205  39.029  13.054
38052W        W99583  28.484  15.314   2.319
38053W        W99584  16.631  36.097  11.882
38054W        W99585   4.433   3.321  14.434
38055W        W99586   0.459  36.006   4.279
38056W        W99587   6.878  12.288   1.920
38057W        W99588  15.098  36.935   1.382
38058W        W99589  12.282  11.272   2.817
38059W        W99590  14.658  21.229   2.789
38060W        W99591  31.003  24.090   4.178
38061W        W99592   8.729   6.776   0.928
38062W        W99593  31.059  26.100  11.893
38063W        W99594   8.718  22.538  11.058
38064W        W99595  17.726  11.635   3.843
38065W        W99596  44.916  35.372  14.808
38066W        W99597  25.971  40.388   2.853
38067W        W99598   4.446  31.142   4.714
38068W        W99599  33.899  15.819  14.348
38069W        W99600  25.996  40.947   3.789
38070W        W99601  30.094  17.073  14.988
38071W        W99602  43.435  43.429  11.878
38072W        W99603  10.155  24.550  12.483
38073W        W99604  42.856  35.396   3.831
38074W        W99605   3.392  14.756   4.280
38075W        W99606  16.643  36.040  11.577
38076W        W99607  26.162  14.602  14.839
38077W        W99608  17.725  28.054  13.801
38078W        W99609  31.070  25.682  13.523
38079W        W99610  31.483  19.570   2.777
38080W        W99611  31.153   8.317  13.344
38081W        W99612  21.643  42.852   4.235
38082W        W99613  26.086  16.244  12.875
38083W        W99614   1.436   8.761  11.001
38084W        W99615   8.334  33.472  13.414
38085W        W99616  20.687  40.982   3.716
38086W        W99617   3.350  27.626   5.102
38087W        W99618   7.697  33.510   1.708
38088W        W99619   3.217  20.751   4.741
38089W        W99620  29.556  15.156   4.629
38090W        W99621  38.954   3.227   2.243
38091W        W99622  37.016  16.220   0.278
38092W        W99623  28.975   4.233   0.321
38093W        W99624   5.240  20.680  13.987
38094W        W99625  30.502  34.458  13.402
38095W        W99626  23.643  28.061   9.436
38096W        W99627  13.794   4.914   3.206
38097W        W99628  11.286   6.901  14.467
38098W        W99629  31.947   1.925   2.891
38099W        W99630  31.528  14.203  11.560
38100W        W99631  41.024  15.630  13.040
38101W        W99632  34.011  17.592  13.015
38102W        W99633  31.499  28.510  14.490
38103W        W99634  24.126  43.948  12.508
38104W        W99635  33.548  20.612  10.611
38105W        W99636  11.830  12.346  14.404
38106W        W99637   7.773  14.759  13.010
38107W        W99638   9.362  38.899   2.765
38108W        W99639  28.020  12.749  14.884
38109W        W99640  29.657  24.164   4.157
38110W        W99641  42.025   5.420  14.016
38111W        W99642  19.739  14.173   1.354
38112W        W99643  35.390  18.096   3.214
38113W        W99644  35.604   6.687  13.859
38114W        W99645  27.501  44.951   3.173
38115W        W99646   2.906  19.755   0.826
38116W        W99647  14.648  14.278   5.235
38117W        W99648  15.257  11.661   4.168
38118W        W99649  25.472  39.512   3.177
38119W        W99650  10.332  41.943   1.307
38120W        W99651   4.245  35.526  14.461
38121W        W99652   5.774   5.898  13.524
38122W        W99653  24.618  16.101  14.859
38123W        W99654   9.171  21.734   0.737
38124W        W99655  32.483  26.086  13.535
38125W        W99656  29.957   6.797  14.026
38126W        W99657  38.358  10.841  11.592
38127W        W99658  12.213  34.479   1.416
38128W        W99659  44.864  17.197  11.893
38129W        W99660  26.086  33.389   4.606
38130W        W99661  35.497   1.446  11.582
38131W        W99662   2.416  31.626   0.412
38132W        W99663  35.047  34.458   4.707
38133W        W99664  35.483   8.257  12.048
38134W        W99665   2.436  34.568   0.766
38135W        W99666  30.016  28.062   2.310
38136W        W99667  42.951  10.299   2.299
38137W        W99668   9.254  37.923   1.695
38138W        W99669  33.008  40.346   0.311
38139W        W99670  33.418  32.095   5.193
38140W        W99671   0.742  37.071  11.381
38141W        W99672  20.563  18.668   1.295
38142W        W99673  15.722  34.965  13.020
38143W        W99674  30.015  24.559  12.081
38144W        W99675   2.920  18.754  11.423
38145W        W99676  37.859  17.620  10.987
38146W        W99677  40.958  18.789   4.662
38147W        W99678  24.553  17.079   4.159
38148W        W99679  39.875   8.229  14.316
38149W        W99680   7.904  30.532  12.498
38150W        W99681  17.187  26.476  12.070
38151W        W99682  24.649  32.451   3.337
38152W        W99683  37.517   2.757   4.599
38153W        W99684  12.664  13.626   4.822
38154W        W99685  34.481  40.053   2.270
38155W        W99686  13.132  41.400   1.758
38156W        W99687   9.652  12.323  11.605
38157W        W99688  30.535  31.521  11.457
38158W        W99689  23.080  26.025  14.866
38159W        W99690  32.932  38.005   3.781
38160W        W99691  13.265  16.169   4.348
38161W        W99692  24.000  22.056   4.335
38162W        W99693  18.765  23.657   0.350
38163W        W99694  40.379   1.395   0.795
38164W        W99695  11.761  27.112  10.484
38165W        W99696  23.098  32.104  13.403
38166W        W99697   6.337   2.376   0.363
38167W        W99698  14.705  30.420   2.419
38168W        W99699   0.437  36.870   1.329
38169W        W99700  17.088  29.431  12.888
38170W        W99701   7.288   9.240   3.350
38171W        W99702  20.106  31.899  10.015
38172W        W99703  38.396  17.092   1.780
38173W        W99704  31.139  40.333  13.489
38174W        W99705  29.972  20.095  10.939
38175W        W99706   8.198  20.096  10.441
38176W        W99707   2.873  43.420  12.479
38177W        W99708  21.610  31.134  12.049
38178W        W99709  19.674  42.341  12.516
38179W        W99710  29.603  15.639  12.053
38180W        W99711  22.195  37.468   2.679
38181W        W99712  40.503  31.575  10.562
38182W        W99713  17.725  33.964   4.765
38183W        W99714  34.475   4.836  14.846
38184W        W99715  35.589   8.768  12.536
38185W        W99716  22.693  42.000  11.951
38186W        W99717   3.805  44.318   5.083
38187W        W99718   9.764   5.280   4.351
38188W        W99719  11.209   2.249  10.550
38189W        W99720   1.417   1.887   3.167
38190W        W99721  18.161  29.604   3.733
38191W        W99722  36.463  32.449   1.890
38192W        W99723  21.555  43.865  11.018
38193W        W99724   7.717  32.994   2.407
38194W        W99725   3.725  11.843  14.810
38195W        W99726   7.744  42.331  13.815
38196W        W99727  10.350   2.455  14.765
38197W        W99728  40.344   4.314  12.381
38198W        W99729   0.925   0.300  13.315
38199W        W99730   6.801   7.403   3.292
38200W        W99731  31.634   5.334  10.437
38201W        W99732  33.504  17.760   3.318
38202W        W99733  26.033  19.138  10.472
38203W        W99734  25.032  35.965  14.957
38204W        W99735  11.176  14.770   3.172
38205W        W99736  22.225   4.242  13.356
38206W        W99737  13.636   1.784  10.912
38207W        W99738   1.298  22.741   3.709
38208W        W99739   6.687  30.032   4.134
38209W        W99740  27.525  28.544   1.725
38210W        W99741  39.852  23.701  14.324
38211W        W99742   3.824  24.563  12.855
38212W        W99743   9.717  18.634   1.313
38213W        W99744   2.835  23.529   4.185
38214W        W99745  22.718  32.136  12.864
38215W        W99746  31.960  23.558   2.693
38216W        W99747  25.532   7.251  12.939
38217W        W99748  27.969  27.125  12.036
38218W        W99749   9.879  23.692   0.884
38219W        W99750  37.086  35.912  11.874
38220W        W99751  19.240  12.730  11.585
38221W        W99752  21.583  24.644   1.270
38222W        W99753  35.924  31.554  13.315
38223W        W99754   2.361  28.539   4.199
38224W        W99755  21.224  16.183  14.819
38225W        W99756  31.452  40.803   2.327
38226W        W99757   9.854   3.290   0.746
38227W        W99758  13.107  13.728   0.800
38228W        W99759   6.193  36.874   0.840
38229W        W99760   8.259  33.956   3.833
38230W        W99761  36.921   7.896   4.825
38231W        W99762  19.651  23.559  12.391
38232W        W99763  25.619   3.945   1.933
38233W        W99764   3.348  24.982  10.511
38234W        W99765  41.369  42.808   4.317
38235W        W99766   1.312  37.964   2.312
38236W        W99767  20.742  25.513   4.287
38237W        W99768  26.479  30.132  14.347
38238W        W99769  18.651  13.258   2.894
38239W        W99770  21.114  16.768   9.988
38240W        W99771  12.186  13.310  12.412
38241W        W99772  23.609  25.684   3.196
38242W        W99773  38.064  43.373   3.317
38243W        W99774  25.169  14.800  12.089
38244W        W99775  35.397  19.193   2.349
38245W        W99776  28.035  25.987  10.517
38246W        W99777  27.459  26.483  13.974
38247W        W99778  23.058   5.718   3.862
38248W        W99779  43.993  37.582  12.827
38249W        W99780  31.549   7.305   2.898
38250W        W99781  11.141  10.201   4.143
38251W        W99782  27.580  16.088  11.495
38252W        W99783  37.512  16.575   3.300
38253W        W99784  39.363  30.918  12.959
38254W        W99785   8.280   4.746  11.061
38255W        W99786  30.115   4.252   1.227
38256W        W99787   9.282  43.454   1.244
38257W        W99788  24.479  40.315  11.443
38258W        W99789  35.378  16.785  14.331
38259W        W99790  11.137  35.540   0.821
38260W        W99791  18.691  23.568  13.914
38261W        W99792   0.917  43.811  12.571
38262W        W99793  15.822   0.494   2.337
38263W        W99794  36.489   3.425  10.916
38264W        W99795  14.762  41.868   1.339
38265W        W99796  31.507  42.793   1.738
38266W        W99797  13.108  21.598  10.599
38267W        W99798  11.317  23.631   0.354
38268W        W99799  26.195  13.107  14.455
38269W        W99800  16.740  17.618  11.426
38270W        W99801  23.234   5.351   2.240
38271W        W99802  25.037  40.879  14.411
38272W        W99803  28.531  13.687  10.642
38273W        W99804  23.136  20.137   0.776
38274W        W99805   8.217  26.462  12.861
38275W        W99806  16.793  38.937  10.619
38276W        W99807  12.621   2.755   0.947
38277W        W99808  43.917  39.035  14.905
38278W        W99809  27.647  36.920   1.743
38279W        W99810  11.750  23.548  13.846
38280W        W99811  30.027  43.795  12.375
38281W        W99812  27.656  42.975  14.867
38282W        W99813  31.969  36.902  13.517
38283W        W99814  18.750  21.690   0.794
38284W        W99815  35.872  42.372  12.824
38285W        W99816  13.336  18.722  11.942
38286W        W99817  30.548   5.887   0.894
38287W        W99818  30.981  30.536   0.372
38288W        W99819  13.255   4.846   2.808
38289W        W99820   1.255   9.220  13.971
38290W        W99821  28.439  33.520  12.420
38291W        W99822  34.011  32.461  13.467
38292W        W99823  19.534  16.673   3.800
38293W        W99824   3.405  40.409   0.464
38294W        W99825  21.552  28.028   0.783
38295W        W99826  40.313  39.864  12.360
38296W        W99827   3.720  27.640  11.494
38297W        W99828  26.026  23.620  14.407
38298W        W99829   4.833  27.647   0.936
38299W        W99830   0.877  36.376   4.664
38300W        W99831  27.947  36.860   2.684
38301W        W99832  16.246  30.023   0.782
38302W        W99833   1.892  20.105   2.682
38303W        W99834  19.256  22.686   1.887
38304W        W99835  15.273   9.292  13.528
38305W        W99836   7.366  20.604  13.372
38306W        W99837  12.218  29.060  13.455
38307W        W99838  14.668   2.797   2.697
38308W        W99839  35.516  28.020  14.296
38309W        W99840  30.047   4.242  13.888
38310W        W99841   5.429  34.109  13.383
38311W        W99842  14.250  29.490   1.851
38312W        W99843  16.802  32.540   3.828
38313W        W99844  13.219   5.855   3.713
38314W        W99845  15.646  31.437  11.377
38315W        W99846  14.658  28.613   2.817
38316W        W99847  34.567  32.434   2.350
38317W        W99848  16.121   3.362  11.934
38318W        W99849  11.365  12.727  13.420
38319W        W99850  29.031  32.460  14.809
38320W        W99851  23.562  35.040   0.407
38321W        W99852  22.657  13.237   1.825
38322W        W99853  39.332  10.341   0.831
38323W        W99854   3.373  41.978   5.198
38324W        W99855   0.781  42.335   3.640
38325W        W99856   8.299  12.311   4.713
38326W        W99857  33.079  24.103  13.965
38327W        W99858   0.784  21.172   3.814
38328W        W99859  16.808  14.295   2.835
38329W        W99860  44.939   4.247  14.394
38330W        W99861   9.289  27.172   3.870
38331W        W99862  12.235   7.775  11.052
38332W        W99863  29.501  36.434   4.297
38333W        W99864  22.695  20.089  11.465
38334W        W99865  44.860  14.724  13.515
38335W        W99866   4.867   7.726  11.982
38336W        W99867  18.682   5.400   4.762
38337W        W99868  24.087  34.942  11.107
38338W        W99869  32.900  37.371   3.816
38339W        W99870  44.266  16.746   2.854
38340W        W99871  28.050  12.784   2.262
38341W        W99872  12.296   7.373  12.054
38342W        W99873  44.885   3.756  12.379
38343W        W99874  40.369  26.031  12.856
38344W        W99875  36.563  39.061  14.477
38345W        W99876  37.975   0.349  11.913
38346W        W99877   5.277  35.041   0.288
38347W        W99878  17.192  12.787   1.332
38348W        W99879  22.688  42.384   1.338
38349W        W99880  40.931  39.936  13.467
38350W        W99881  25.132  16.579  12.439
38351W        W99882  35.890  11.144  10.019
38352W        W99883   2.451   2.279   3.721
38353W        W99884  11.324  14.696  11.961
38354W        W99885  35.006   1.248   2.415
38355W        W99886  38.504   5.299   4.115
38356W        W99887  36.855  30.430   0.735
38357W        W99888  21.037   9.831  13.400
38358W        W99889  21.670  30.510  12.987
38359W        W99890  12.665  13.718  13.353
38360W        W99891  28.136  18.570   1.704
38361W        W99892  38.420  42.445   3.290
38362W        W99893   3.329   7.709   2.806
38363W        W99894  37.447  38.339  10.123
38364W        W99895  42.998  33.470   5.150
38365W        W99896  33.988  26.590  10.562
38366W        W99897  14.139   9.682  13.322
38367W        W99898  11.182  44.297   1.864
38368W        W99899  37.443  22.707   3.688
38369W        W99900   0.787  10.273  13.859
38370W        W99901  13.301  24.072  13.537
38371W        W99902  36.913  16.752   3.275
38372W        W99903  19.714  33.609  12.847
38373W        W99904  30.144  31.052   1.884
38374W        W99905  13.282   9.815   3.687
38375W        W99906   0.789   4.321   4.722
38376W        W99907  10.158  14.790   0.266
38377W        W99908   0.355  25.471   4.771
38378W        W99909  30.508  23.047  12.575
38379W        W99910  44.003  20.190  11.081
38380W        W99911  36.850  35.956   0.940
38381W        W99912  28.638  42.937   4.217
38382W        W99913  21.116   9.761   2.264
38383W        W99914   0.311   9.213   4.157
38384W        W99915  23.570  12.147   4.640
38385W        W99916  25.615  21.120  14.409
38386W        W99917  43.834   5.221  13.920
38387W        W99918  21.131  18.560   0.897
38388W        W99919  38.531  12.780   4.683
38389W        W99920  36.579  23.607  11.933
38390W        W99921  28.536  28.930  14.327
38391W        W99922   6.206  33.389  13.986
38392W        W99923  34.510   3.935  14.815
38393W        W99924  37.487  20.685   2.219
38394W        W99925  15.288  19.241  14.933
38395W        W99926  32.918  19.606   1.732
38396W        W99927   8.715  43.362  14.332
38397W        W99928  20.589  38.502   0.394
38398W        W99929   6.303  19.622  13.883
38399W        W99930  11.218  19.638  12.383
38400W        W99931  23.184  39.467   3.305
38401W        W99932  35.076  37.450   2.696
38402W        W99933  24.612   5.261   2.412
38403W        W99934  35.053  14.717   4.819
38404W        W99935  34.502  13.719   3.275
38405W        W99936  33.398  40.428  14.783
38406W        W99937  28.670  18.739  13.941
38407W        W99938  44.285   5.827   3.363
38408W        W99939  34.427  31.452   2.686
38409W        W99940  16.160  27.978   3.329
38410W        W99941  43.775  18.680   0.753
38411W        W99942  19.606  13.606  14.955
38412W        W99943  44.331   2.271  11.931
38413W        W99944  31.137   8.385  10.015
38414W        W99945   3.237  21.253  14.960
38415W        W99946  30.620  35.860  12.920
38416W        W99947   7.910  22.634  12.937
38417W        W99948  31.002  37.340   2.302
38418W        W99949  36.388   3.897  14.940
38419W        W99950  13.282   9.247   1.408
38420W        W99951  15.184  15.731   0.873
38421W        W99952  28.001  36.027  10.993
38422W        W99953  24.000  14.302  10.606
38423W        W99954  36.382   9.315   4.656
38424W        W99955  15.131  26.040   0.955
38425W        W99956   0.459  38.963  13.876
38426W        W99957  31.904  17.615  14.009
38427W        W99958   3.262  22.192   2.387
38428W        W99959  36.032  37.892   0.870
38429W        W99960  13.267  44.984  14.493
38430W        W99961   2.929  40.453   1.393
38431W        W99962   5.717   1.908  14.909
38432W        W99963   7.788  40.512  13.405
38433W        W99964  29.035   1.294  12.459
38434W        W99965  11.859  19.535  11.559
38435W        W99966  38.535  23.177   1.796
38436W        W99967   7.301   0.758  12.046
38437W        W99968  42.913   7.865  12.023
38438W        W99969  18.709  21.678  14.320
38439W        W99970  35.969  32.601  12.851
38440W        W99971  29.543  15.322   2.311
38441W        W99972   6.884  11.329  13.518
38442W        W99973  19.681  18.733   2.855
38443W        W99974  10.357  20.726  14.295
38444W        W99975  32.064  14.739   4.797
38445W        W99976  20.759  30.508   3.832
38446W        W99977   0.975   9.751   3.383
38447W        W99978  44.984  43.769  11.867
38448W        W99979   7.237  22.068   4.772
38449W        W99980  43.398  24.201  12.001
38450W        W99981   4.707  10.139  13.942
38451W        W99982  37.888  42.333  10.481
38452W        W99983  37.919   0.293   0.469
38453W        W99984  35.967  39.519   3.330
38454W        W99985  22.690   2.353  11.986
38455W        W99986   2.434   0.490  14.277
38456W        W99987   9.307   7.385   1.786
38457W        W99988  23.552  18.578   2.252
38458W        W99989  44.803  10.636   4.126
38459W        W99990  18.090  15.323  10.902
38460W        W99991  40.354  29.508  10.919
38461W        W99992   8.367  43.866  12.836
38462W        W99993  26.983  40.524  13.317
38463W        W99994   7.874   1.302   3.813
38464W        W99995  15.210  32.061   2.278
38465W        W99996  14.590   2.863  13.999
38466W        W99997  15.593   0.746   2.899
38467W        W99998  38.041  42.996   4.714
38468W        W99999  33.471  36.573  13.001
38469W        W    0   7.678  14.728   4.119
38470W        W    1  26.084  14.259  13.833
38471W        W    2  39.964  37.446   3.695
38472W        W    3  14.296  38.399   1.917
38473W        W    4  28.519  20.250   1.720
38474W        W    5   7.377  30.097  13.058
38475W        W    6  41.368  25.001   0.878
38476W        W    7  34.533  13.304   0.265
38477W        W    8  16.581  43.506   1.759
38478W        W    9  18.134  43.357  13.469
38479W        W   10  39.840  33.455  10.931
38480W        W   11   9.730  39.033  10.643
38481W        W   12  32.424  33.474  11.053
38482W        W   13   7.413  36.406  12.433
38483W        W   14  42.384  20.095  14.413
38484W        W   15  14.789  32.006   4.191
38485W        W   16   8.191  34.916   3.384
38486W        W   17  43.293  26.514  11.551
38487W        W   18   8.722  17.578  14.456
38488W        W   19   4.797  11.861  10.537
38489W        W   20   3.261  25.687  12.510
38490W        W   21  11.642   9.259   4.158
38491W        W   22  32.440   8.320  14.451
38492W        W   23  19.233  31.437  13.015
38493W        W   24   7.861  16.727   2.370
38494W        W   25  15.779   0.980  13.908
38495W        W   26  36.450  24.686  12.023
38496W        W   27  30.981   1.861  11.858
38497W        W   28  10.196  34.437   1.808
38498W        W   29  43.444  41.854   1.778
38499W        W   30  20.731  33.590  12.361
38500W        W   31  44.289  10.280   5.153
38501W        W   32  25.590  18.125  14.275
38502W        W   33  34.038  17.103   5.116
38503W        W   34  42.777  40.001  12.891
38504W        W   35  28.125  44.819  13.393
38505W        W   36   2.309  40.965  14.821
38506W        W   37  44.432   2.410   3.213
38507W        W   38  28.049  12.669  11.560
38508W        W   39  44.986   1.740   4.205
38509W        W   40   8.771  36.864   2.702
38510W        W   41  37.364  36.909   4.254
38511W        W   42  41.426   8.233  11.560
38512W        W   43  27.574  33.966   2.820
38513W        W   44   7.222  31.414  12.938
38514W        W   45  41.382  25.692   4.151
38515W        W   46   4.317  35.000  10.464
38516W        W   47  19.666  26.115  12.388
38517W        W   48  35.526   1.961   4.210
38518W        W   49  28.142   1.787  11.053
38519W        W   50  44.369   7.885   1.830
38520W        W   51  12.124  29.983   2.832
38521W        W   52  38.889  40.382   2.713
38522W        W   53   1.451  20.214  13.379
38523W        W   54  42.523  38.564  14.825
38524W        W   55   7.344   7.784  10.544
38525W        W   56  16.657   2.923  12.005
38526W        W   57  41.896  39.369  12.082
38527W        W   58  35.067   5.707  13.816
38528W        W   59  19.721  23.113   0.814
38529W        W   60  11.809   5.702  14.000
38530W        W   61  21.161  27.009  11.945
38531W        W   62  34.016  44.887  13.905
38532W        W   63  20.132  20.209  12.420
38533W        W   64  14.777  31.147  11.471
38534W        W   65  10.742  25.015  12.958
38535W        W   66  36.932  37.482   3.867
38536W        W   67  16.241  14.811  14.813
38537W        W   68  43.515  17.141   3.352
38538W        W   69  23.039  41.483  11.021
38539W        W   70  31.102  39.897   1.727
38540W        W   71  37.061  25.695  12.445
38541W        W   72  39.932   8.176  12.949
38542W        W   73  32.016   4.370  13.799
38543W        W   74  17.787  29.145   0.424
38544W        W   75   7.171  20.180   0.750
38545W        W   76  18.564   8.856   2.747
38546W        W   77  19.216  37.001  13.506
38547W        W   78  30.627  31.101   5.104
38548W        W   79  16.271  42.901  14.989
38549W        W   80   4.908   5.319   1.874
38550W        W   81  30.920  41.434   5.122
38551W        W   82  23.557  38.915  14.347
38552W        W   83  42.909  38.458  10.407
38553W        W   84  21.555   4.877  13.791
38554W        W   85  33.588  25.187  12.947
38555W        W   86  17.781  17.586   1.417
38556W        W   87  14.826  36.458   3.695
38557W        W   88  23.581  30.415  10.931
38558W        W   89  15.125   1.287   1.411
38559W        W   90  27.185   4.853   1.293
38560W        W   91   0.297   4.723   1.704
38561W        W   92  28.488  34.521   1.301
38562W        W   93   5.730  40.826  10.645
38563W        W   94  24.174  39.384  14.839
38564W        W   95   2.764  11.737  12.350
38565W        W   96  15.702   9.372  10.452
38566W        W   97  16.792  23.677  11.499
38567W        W   98  18.218  31.050  12.989
38568W        W   99  14.802   7.321  13.832
38569W        W  100  23.643  42.297   4.790
38570W        W  101  35.029   2.367  13.985
38571W        W  102  36.071  42.804  12.407
38572W        W  103   5.429  13.816  10.404
38573W        W  104  10.187  26.514   2.777
38574W        W  105  21.020  39.370   1.753
38575W        W  106  12.616  16.688  12.528
38576W        W  107   0.903   1.278   0.269
38577W        W  108  30.033  27.538  13.393
38578W        W  109  37.942  19.257   2.847
38579W        W  110   3.387  44.782   2.834
38580W        W  111  14.830  16.161  14.283
38581W        W  112  34.997   9.285   2.783
38582W        W  113  41.482  32.905  11.085
38583W        W  114  11.130  12.675   2.266
38584W        W  115  14.136  23.553   4.217
38585W        W  116  17.297   0.492  14.322
38586W        W  117  27.158   7.221   4.122
38587W        W  118  36.448  37.501  11.918
38588W        W  119  29.440  12.666   4.174
38589W        W  120  44.980  37.986  13.041
38590W        W  121  36.410  13.156   0.297
38591W        W  122  32.495  31.136   4.638
38592W        W  123  40.031  44.474   0.851
38593W        W  124  29.952  42.819  11.586
38594W        W  125  20.595  37.430  11.008
38595W        W  126  19.196  19.081   2.732
38596W        W  127  34.960  25.137   3.643
38597W        W  128  31.899  43.017  14.355
38598W        W  129  23.549  25.156   2.385
38599W        W  130   7.871  38.353  12.070
38600W        W  131  42.804  17.264   3.329
38601W        W  132   8.190  38.889  10.961
38602W        W  133  37.423  41.881   2.744
38603W        W  134   0.429  24.683  13.354
38604W        W  135  12.314  32.057   2.269
38605W        W  136  43.429  38.349   2.885
38606W        W  137  24.662  25.991  14.361
38607W        W  138  26.679   0.424   2.286
38608W        W  139  37.915   6.693   2.403
38609W        W  140  41.927   5.893  14.320
38610W        W  141  41.529  24.544  13.535
38611W        W  142  41.909   3.230   4.748
38612W        W  143  15.297   4.750   1.289
38613W        W  144  36.935  32.467  11.428
38614W        W  145  39.383  19.043  13.914
38615W        W  146  23.601   8.323   0.964
38616W        W  147   4.839  22.601  13.974
38617W        W  148  13.204  17.195  14.977
38618W        W  149  36.482  43.367  11.592
38619W        W  150  31.153  35.943   4.780
38620W        W  151  31.911  14.325  10.944
38621W        W  152  31.567   4.891  13.511
38622W        W  153  29.106  18.198  12.380
38623W        W  154  27.133   6.777   2.836
38624W        W  155  36.526   4.350  11.581
38625W        W  156  10.713  23.642  12.370
38626W        W  157  11.668  24.082  14.491
38627W        W  158  25.604  17.088   2.408
38628W        W  159  42.912  21.157   0.299
38629W        W  160  15.628  38.895   3.848
38630W        W  161  26.691  33.614   3.226
38631W        W  162  43.359  11.791  13.828
38632W        W  163  42.896  42.350   2.837
38633W        W  164  36.043  34.938   3.643
38634W        W  165  14.619  23.199   2.760
38635W        W  166   2.244  15.757   2.371
38636W        W  167  14.671  33.105  11.444
38637W        W  168  28.076  44.786  10.959
38638W        W  169  27.492  29.965  14.491
38639W        W  170  26.142  39.968   1.294
38640W        W  171   7.906  11.713   0.943
38641W        W  172  19.075  37.865  10.618
38642W        W  173   3.452  24.060   2.724
38643W        W  174  16.187   5.907   2.848
38644W        W  175  41.380  35.938  13.456
38645W        W  176  37.543   6.745  14.330
38646W        W  177  26.105  33.896   4.628
38647W        W  178  20.159   4.376  10.552
38648W        W  179  25.188  11.259  13.458
38649W        W  180  16.295  23.018  10.956
38650W        W  181  23.736   4.773  12.026
38651W        W  182  17.613  36.473   4.707
38652W        W  183   6.206  35.369  13.791
38653W        W  184  22.209   8.241   2.344
38654W        W  185  11.310  30.102  11.455
38655W        W  186  43.864  22.626   1.443
38656W        W  187   2.334  24.671  13.414
38657W        W  188  23.066  32.476   0.873
38658W        W  189  34.587  37.959  14.343
38659W        W  190  21.201  16.254   5.322
38660W        W  191   6.719  38.869   4.134
38661W        W  192   3.387  36.021  12.834
38662W        W  193   9.292  12.659   2.886
38663W        W  194  16.704  17.076  13.938
38664W        W  195  17.775  40.870   1.426
38665W        W  196  37.516  23.575  11.415
38666W        W  197  25.195  34.892  10.462
38667W        W  198  25.561   3.447  13.398
38668W        W  199  33.046  12.828  12.504
38669W        W  200  16.081  32.448  13.849
38670W        W  201  36.846  10.151   1.721
38671W        W  202  17.274  22.705   5.250
38672W        W  203  40.500  21.230   3.704
38673W        W  204  18.278  19.604   4.672
38674W        W  205  43.980  23.085   3.662
38675W        W  206  22.599  11.638  12.090
38676W        W  207  16.308  27.463  12.877
38677W        W  208  24.603   5.806   4.240
38678W        W  209  24.191  28.025   1.317
38679W        W  210  15.135  14.701   4.622
38680W        W  211  38.993  29.666  14.860
38681W        W  212   9.279  17.267  11.416
38682W        W  213  38.568  24.617  14.314
38683W        W  214  23.572   7.235   1.332
38684W        W  215  25.007  43.807   0.762
38685W        W  216   9.321  44.901   1.776
38686W        W  217  25.074  13.611   4.296
38687W        W  218  32.579   2.889   0.384
38688W        W  219   6.835  20.202  12.010
38689W        W  220  33.037  30.981  12.529
38690W        W  221  38.826   6.246   4.234
38691W        W  222  42.855  43.852  10.576
38692W        W  223  28.592   1.928   2.385
38693W        W  224  35.985  36.405  12.859
38694W        W  225  18.696  14.597  13.857
38695W        W  226  23.706  29.539  13.987
38696W        W  227  28.634   4.862  10.920
38697W        W  228   6.777  24.588  12.463
38698W        W  229  31.024  30.497   1.440
38699W        W  230  13.612  37.578  13.502
38700W        W  231   7.843  33.056  12.492
38701W        W  232   0.803   6.863  14.906
38702W        W  233  17.152  44.763   9.935
38703W        W  234  28.507   7.392  10.427
38704W        W  235  32.594  31.927   2.338
38705W        W  236  11.834  24.592  10.954
38706W        W  237  41.937  22.623   4.713
38707W        W  238  25.709   0.877   2.803
38708W        W  239   6.274  35.924   4.781
38709W        W  240  12.669  15.296   1.699
38710W        W  241  20.082  37.967   3.179
38711W        W  242   7.399   8.161  11.973
38712W        W  243  19.721  23.049  11.527
38713W        W  244  12.774  34.927  13.794
38714W        W  245  44.272  40.385   0.321
38715W        W  246   6.804  15.290  10.601
38716W        W  247   9.323   8.900   5.144
38717W        W  248   3.923   1.845   0.446
38718W        W  249  34.072  35.414   2.194
38719W        W  250  37.033  34.970   4.293
38720W        W  251  37.501  36.372  10.959
38721W        W  252  19.145  23.045  14.759
38722W        W  253  33.058  37.865   9.949
38723W        W  254  35.553  42.026   1.337
38724W        W  255  18.228   2.899  13.922
38725W        W  256  31.070  34.390   3.159
38726W        W  257  43.417   1.970  14.493
38727W        W  258  31.419  12.178  10.475
38728W        W  259  39.031  17.182   2.757
38729W        W  260  31.948   0.810  13.920
38730W        W  261  20.561   9.165   1.823
38731W        W  262  10.675   3.902  14.002
38732W        W  263   3.311   8.288   1.282
38733W        W  264  18.597  36.906  10.479
38734W        W  265  21.189  19.745  14.884
38735W        W  266  11.775  13.762   4.614
38736W        W  267  14.169  44.935  13.319
38737W        W  268  18.548  27.517   0.802
38738W        W  269  30.572  11.340   3.738
38739W        W  270  24.096  44.467  10.057
38740W        W  271  10.159  37.568  14.032
38741W        W  272   4.398  40.861   2.849
38742W        W  273   5.391  10.755  14.028
38743W        W  274  34.957  39.048  12.935
38744W        W  275   8.313  21.224   2.691
38745W        W  276  24.558  25.217   4.257
38746W        W  277   9.270  40.832  10.586
38747W        W  278   7.281   6.330   3.777
38748W        W  279  20.120  15.739  13.503
38749W        W  280  11.325  16.184   0.317
38750W        W  281  24.119  28.954   4.210
38751W        W  282  40.940  17.712  11.405
38752W        W  283  13.144  44.264   0.865
38753W        W  284  27.010  19.239  13.537
38754W        W  285  15.180  12.781   4.188
38755W        W  286   2.386  22.707   3.685
38756W        W  287  10.809  39.823   1.421
38757W        W  288  36.467  21.069   0.255
38758W        W  289  28.093  12.205   1.801
38759W        W  290  28.978  11.805  12.880
38760W        W  291  28.035  14.639  11.972
38761W        W  292  37.375  15.751   4.113
38762W        W  293  29.125  42.949  14.906
38763W        W  294   2.778  11.825   3.242
38764W        W  295   3.826  22.568   0.308
38765W        W  296  34.553   7.356   3.212
38766W        W  297  24.590  15.294  14.928
38767W        W  298   3.886  16.687   2.338
38768W        W  299  17.615  24.668   0.370
38769W        W  300  38.486  26.620  13.544
38770W        W  301  26.606  29.029   1.210
38771W        W  302  44.904  37.909   1.248
38772W        W  303  40.052  21.516  14.415
38773W        W  304  21.739  13.660  11.870
38774W        W  305  21.537  13.699   3.785
38775W        W  306   6.344   6.313   3.746
38776W        W  307  14.097  16.168   4.766
38777W        W  308   4.307  42.873   4.710
38778W        W  309   2.846  26.469  13.970
38779W        W  310  15.600   8.401   2.807
38780W        W  311  31.902  40.381  11.927
38781W        W  312  15.142  18.168   4.223
38782W        W  313  37.398  22.011  14.501
38783W        W  314  33.002  38.411  10.911
38784W        W  315  31.486  13.180  10.514
38785W        W  316  26.620  35.924   2.766
38786W        W  317  36.988  20.751  12.921
38787W        W  318  18.678   6.700  11.498
38788W        W  319  16.201  36.969  14.823
38789W        W  320  12.785  34.429  10.453
38790W        W  321   7.798  44.311   3.156
38791W        W  322  26.482  39.064  13.403
38792W        W  323   9.744   5.838  12.996
38793W        W  324  28.589  42.974   3.785
38794W        W  325  30.540  24.034   1.225
38795W        W  326  12.337   0.792   0.286
38796W        W  327  26.144  32.125  14.396
38797W        W  328  19.552  41.312  13.316
38798W        W  329  21.551   7.831  14.278
38799W        W  330  34.066   2.862   2.364
38800W        W  331  10.674  11.317   4.235
38801W        W  332  36.043  23.534   2.205
38802W        W  333  19.681  30.577   1.802
38803W        W  334  18.260  14.806  13.540
38804W        W  335  29.514  24.045  10.097
38805W        W  336  32.942   9.702   1.824
38806W        W  337   7.345  14.231   0.791
38807W        W  338  31.576  21.710  12.088
38808W        W  339  28.618  38.059   2.189
38809W        W  340  36.841  26.684  12.910
38810W        W  341  32.104  41.839  13.857
38811W        W  342  36.385  44.406   3.203
38812W        W  343   7.399   9.878   2.309
38813W        W  344  41.377  11.711  13.927
38814W        W  345  19.261  42.417   1.359
38815W        W  346   1.933  30.475   2.706
38816W        W  347  14.323  13.691  10.609
38817W        W  348  11.362  41.378   4.686
38818W        W  349  18.215  10.271   3.701
38819W        W  350   5.329   7.407   2.795
38820W        W  351  14.737  25.044   0.888
38821W        W  352   0.891  37.962   4.285
38822W        W  353  30.096   8.268  12.917
38823W        W  354  20.079  43.834  14.339
38824W        W  355   0.483   9.780  13.443
38825W        W  356   5.889  19.536   1.271
38826W        W  357  24.695  40.416  14.999
38827W        W  358  16.675  28.960   0.350
38828W        W  359  16.644  20.166   2.672
38829W        W  360  39.387  36.940   2.235
38830W        W  361  29.522   1.889   0.322
38831W        W  362  37.981  11.726   1.713
38832W        W  363  26.163  17.091   1.913
38833W        W  364  43.942  43.931  10.517
38834W        W  365  21.583  40.894  11.578
38835W        W  366  13.250   7.173  11.499
38836W        W  367  24.019  35.537   0.482
38837W        W  368  14.621  19.574  11.510
38838W        W  369  15.736  29.668  10.981
38839W        W  370  13.614  43.782  13.421
38840W        W  371  18.075  27.965   2.244
38841W        W  372  31.598  18.781  14.839
38842W        W  373  22.512   2.252   2.273
38843W        W  374  28.543  30.481   4.762
38844W        W  375  43.947  13.232   0.303
38845W        W  376  22.668   3.925   3.316
38846W        W  377   0.402  10.146  14.777
38847W        W  378  10.374  40.866  14.332
38848W        W  379  11.625  18.671  13.987
38849W        W  380  38.343  39.338   1.210
38850W        W  381  30.937  13.704   4.650
38851W        W  382  31.499  43.360   1.931
38852W        W  383  42.879   2.472   4.130
38853W        W  384  36.389  37.499   0.322
38854W        W  385   9.282  21.671  14.460
38855W        W  386  42.352   7.810  14.885
38856W        W  387  17.096  41.515  11.011
38857W        W  388  20.113   9.199   3.713
38858W        W  389   6.902   7.340  12.379
38859W        W  390  41.466  39.515  10.545
38860W        W  391  34.985  18.235  12.940
38861W        W  392  30.495  43.356   4.745
38862W        W  393  44.379  14.730   3.699
38863W        W  394  34.903  29.015  11.587
38864W        W  395  33.493  35.935  11.104
38865W        W  396   6.920  40.053  14.420
38866W        W  397  41.433  29.586  13.420
38867W        W  398  25.020   4.836  10.557
38868W        W  399  22.688  31.497   4.214
38869W        W  400  18.620  27.459   3.637
38870W        W  401   1.356   5.899   2.823
38871W        W  402  18.666  33.052  12.906
38872W        W  403  25.163  34.513  11.866
38873W        W  404  19.230  30.164  14.985
38874W        W  405  16.688   8.346  11.548
38875W        W  406  19.273  21.544  13.965
38876W        W  407  36.006  21.724   3.336
38877W        W  408  39.046   8.193  13.472
38878W        W  409  25.592   6.201  10.990
38879W        W  410  18.773  25.052  14.306
38880W        W  411  25.553  31.448   1.885
38881W        W  412  43.333   5.719  10.936
38882W        W  413  41.531  28.181   2.680
38883W        W  414  18.224  30.459  13.365
38884W        W  415  37.396   8.238   3.742
38885W        W  416  16.711  37.518   2.413
38886W        W  417  36.478   9.734   3.325
38887W        W  418  22.572   3.913   1.218
38888W        W  419  14.268  23.088  11.026
38889W        W  420   6.342  30.492   3.700
38890W        W  421   7.253  36.357   0.850
38891W        W  422  35.098   4.932   5.122
38892W        W  423  36.096  40.883   5.289
38893W        W  424  36.570  12.641  12.011
38894W        W  425  29.993   1.896  14.875
38895W        W  426  13.679  28.002   4.651
38896W        W  427  31.514  17.672  14.417
38897W        W  428   9.751  19.071   3.321
38898W        W  429  29.006  14.339   1.770
38899W        W  430  14.674  13.256  14.938
38900W        W  431  24.025  40.441   1.890
38901W        W  432  23.711   7.843  12.847
38902W        W  433  41.847  13.783   0.766
38903W        W  434   8.695   1.434  12.443
38904W        W  435  41.978  29.493  13.319
38905W        W  436  12.850  27.604   0.873
38906W        W  437   1.242  44.861  12.437
38907W        W  438  38.845  13.634   3.744
38908W        W  439  16.124  13.644  14.399
38909W        W  440   3.291   6.306  12.406
38910W        W  441  16.627  30.464   3.206
38911W        W  442  43.014  43.766  12.512
38912W        W  443  32.530  18.137   0.925
38913W        W  444   0.746   3.794   3.367
38914W        W  445  24.176  11.166   1.730
38915W        W  446  20.645  39.347   1.418
38916W        W  447  34.512  39.492   3.724
38917W        W  448   6.830  17.752   3.371
38918W        W  449  31.431  13.263  12.521
38919W        W  450  33.430   5.375   1.412
38920W        W  451  37.349  16.717  12.410
38921W        W  452  41.534   1.303  12.005
38922W        W  453   1.916  35.984  13.997
38923W        W  454  35.394  21.020  10.451
38924W        W  455  15.599  39.369   2.830
38925W        W  456  44.868  27.987   0.876
38926W        W  457  15.587  30.941   5.777
38927W        W  458  38.000  40.499  11.392
38928W        W  459  19.571   9.861   1.792
38929W        W  460  13.246  28.479  14.330
38930W        W  461  43.944  34.604   3.187
38931W        W  462  18.767  33.051  10.528
38932W        W  463  31.480  39.907  11.916
38933W        W  464   9.687  12.292   4.639
38934W        W  465   2.877  32.066  10.088
38935W        W  466  21.683  35.603   2.802
38936W        W  467  12.140  32.530  10.483
38937W        W  468   3.859   4.775  12.512
38938W        W  469  18.224  38.953   3.817
38939W        W  470  30.034   1.956  11.971
38940W        W  471  35.002  35.522   1.402
38941W        W  472   9.797   4.731   2.295
38942W        W  473  16.718  40.872  14.375
38943W        W  474  21.091  18.107  10.428
38944W        W  475  42.324  10.639   3.710
38945W        W  476  29.620  36.881   4.273
38946W        W  477  14.333  41.979   0.392
38947W        W  478  26.051  12.181  13.941
38948W        W  479   6.334  40.051  13.827
38949W        W  480   4.749  26.569   2.891
38950W        W  481   7.412  13.617   4.275
38951W        W  482  36.081  32.508  10.572
38952W        W  483  31.559  36.044  14.955
38953W        W  484  14.818   4.386  11.103
38954W        W  485  38.337  22.144   0.400
38955W        W  486   8.180  30.995  14.873
38956W        W  487  31.633  16.571   3.294
38957W        W  488   0.923   5.694   1.334
38958W        W  489  38.924  23.567   1.344
38959W        W  490  36.954  17.748  12.899
38960W        W  491  40.944  29.046   0.311
38961W        W  492  13.215  10.859   2.856
38962W        W  493  40.893  22.681   3.194
38963W        W  494  42.960   5.418  14.771
38964W        W  495   5.406  42.948   0.816
38965W        W  496  26.044  24.683  11.497
38966W        W  497  18.177   1.867   4.807
38967W        W  498  43.864  30.593   0.258
38968W        W  499  43.960  43.871   1.932
38969W        W  500   9.753  23.632   0.477
38970W        W  501   8.338  12.623  13.026
38971W        W  502  27.127   6.325   4.119
38972W        W  503  19.078  40.502   0.286
38973W        W  504  39.009   7.760  10.619
38974W        W  505  22.183  28.560  14.433
38975W        W  506  39.334   2.380  13.055
38976W        W  507  41.793  15.216   3.185
38977W        W  508  22.744  14.265  13.863
38978W        W  509  37.955  44.897   3.222
38979W        W  510  43.917   9.295   4.756
38980W        W  511  29.167  40.829   4.119
38981W        W  512  35.881   9.676   5.114
38982W        W  513  13.105  23.596   2.270
38983W        W  514  40.826  26.559  11.375
38984W        W  515  12.658  20.095   4.837
38985W        W  516  35.449  26.572   5.248
38986W        W  517  38.483  42.427  12.364
38987W        W  518  39.825  37.960  10.528
38988W        W  519   4.939   5.694  12.935
38989W        W  520  37.514  32.114   4.780
38990W        W  521   8.794  12.667  14.799
38991W        W  522  32.446  14.332  12.845
38992W        W  523  26.976  40.829  12.964
38993W        W  524   0.454  24.644   3.365
38994W        W  525  20.114  23.564  10.072
38995W        W  526  31.630  34.040  13.832
38996W        W  527  33.889  34.047  13.426
38997W        W  528   7.372  37.014   4.737
38998W        W  529  40.469  12.281   2.693
38999W        W  530  22.154  43.303  12.979
39000W        W  531  14.816  40.418  12.920
39001W        W  532   6.350  39.964  12.878
39002W        W  533   2.466   0.847   2.771
39003W        W  534  42.521  20.152   0.746
39004W        W  535  44.498   6.296  14.331
39005W        W  536  26.053   4.389  11.045
39006W        W  537  11.281  13.178   1.229
39007W        W  538  25.512  40.912  10.457
39008W        W  539   1.240   3.444   0.319
39009W        W  540  26.511  37.577   2.180
39010W        W  541  41.366  37.995   0.266
39011W        W  542  34.465   3.725   4.335
39012W        W  543   1.834  37.360  13.422
39013W        W  544  20.088  21.088  10.586
39014W        W  545  10.296  27.101   4.676
39015W        W  546  35.904  35.410  14.326
39016W        W  547  12.148  17.220  13.349
39017W        W  548  23.018  35.883  13.418
39018W        W  549  11.714   0.969   4.720
39019W        W  550   5.374  42.940  10.916
39020W        W  551  17.254  29.535   3.758
39021W        W  552   5.751   2.444   1.829
39022W        W  553  25.131   6.419  14.505
39023W        W  554   5.723   0.417   0.875
39024W        W  555  43.837   1.379   3.227
39025W        W  556  15.578   9.751   3.843
39026W        W  557  14.631  31.477   3.788
39027W        W  558  10.241  24.185   3.275
39028W        W  559  36.542   0.417   0.432
39029W        W  560  28.648  28.063   0.869
39030W        W  561   7.183   1.262  12.084
39031W        W  562  24.584  31.608  13.440
39032W        W  563  41.428  21.531  12.041
39033W        W  564   0.797  28.586  10.636
39034W        W  565  13.767  12.358  11.569
39035W        W  566  37.417   1.962   1.700
39036W        W  567   3.405   2.317  10.447
39037W        W  568  16.775   0.957  13.330
39038W        W  569  17.209   8.691   4.232
39039W        W  570   2.354   8.166  13.439
39040W        W  571  12.721  43.368   3.633
39041W        W  572  32.596  12.306   3.780
39042W        W  573   6.299  41.860  12.928
39043W        W  574  26.647  21.637   1.451
39044W        W  575   8.866  41.812   2.749
39045W        W  576  42.014   7.382  14.291
39046W        W  577   2.867  32.534   0.951
39047W        W  578  10.747  35.899   5.172
39048W        W  579  10.681  32.088   0.930
39049W        W  580  22.559  24.494  12.493
39050W        W  581  25.646   0.253  12.973
39051W        W  582  39.415  43.931   3.319
39052W        W  583  27.112  42.491  12.945
39053W        W  584   1.948   8.268  13.387
39054W        W  585   3.403  41.468  13.971
39055W        W  586  26.479   4.820   9.960
39056W        W  587  23.619   8.184   2.405
39057W        W  588   6.300  24.094  12.377
39058W        W  589  40.806  13.815   2.277
39059W        W  590  28.969   9.238  10.527
39060W        W  591  18.769  39.989  14.318
39061W        W  592  43.483   2.435   2.715
39062W        W  593  23.232  19.203  14.849
39063W        W  594  11.811  24.027   0.786
39064W        W  595  24.645  44.294  11.604
39065W        W  596  16.640   4.853  10.069
39066W        W  597  16.129   2.359  14.804
39067W        W  598  42.031   0.928   2.732
39068W        W  599  35.992  21.215  10.015
39069W        W  600   6.187  30.020   0.882
39070W        W  601  41.037   3.403   3.725
39071W        W  602  17.737  24.973  11.536
39072W        W  603  15.304  28.674   1.379
39073W        W  604   7.682  14.723  12.077
39074W        W  605  15.591  39.976   1.427
39075W        W  606  24.591  19.614  11.509
39076W        W  607  11.315  19.277   3.834
39077W        W  608  11.335  18.785   3.361
39078W        W  609  36.470   5.220  13.021
39079W        W  610   2.923  34.384   3.693
39080W        W  611  13.187   8.194   1.760
39081W        W  612   5.362  38.437   0.947
39082W        W  613  37.005  37.551   1.775
39083W        W  614  37.914  34.592   1.356
39084W        W  615   5.890  14.259  14.441
39085W        W  616  37.024  37.409   4.244
39086W        W  617  22.232  38.819  13.044
39087W        W  618  26.563  43.003   3.683
39088W        W  619   1.854  22.662  11.092
39089W        W  620  25.094  37.087   1.740
39090W        W  621   0.277  39.009   0.376
39091W        W  622  36.412  12.189   4.794
39092W        W  623  14.608  17.138   3.202
39093W        W  624  30.953  16.691  14.319
39094W        W  625  21.536   0.289  13.337
39095W        W  626  43.984  43.818   2.331
39096W        W  627  16.706  24.690   3.787
39097W        W  628  25.093  29.037   0.909
39098W        W  629  30.054   6.344   2.318
39099W        W  630  41.875  30.596   4.286
39100W        W  631   3.734  41.370  14.370
39101W        W  632  25.599  18.167   1.718
39102W        W  633  13.262  22.606  13.495
39103W        W  634  19.181  26.670   2.740
39104W        W  635  40.439  40.549  10.578
39105W        W  636  17.759  13.613  14.992
39106W        W  637   7.846   5.248   4.319
39107W        W  638   6.322  37.884   2.795
39108W        W  639  43.973   5.290   4.691
39109W        W  640  32.970   5.366  12.458
39110W        W  641   9.857  30.046  12.545
39111W        W  642  39.877   1.832  10.522
39112W        W  643  10.140   7.314  10.960
39113W        W  644   0.831  39.362  11.035
39114W        W  645   7.799  36.533  14.470
39115W        W  646  25.565   7.725   0.448
39116W        W  647  38.524  33.465  13.863
39117W        W  648  33.032   2.259   0.811
39118W        W  649  13.129  33.934  14.879
39119W        W  650  37.015   4.311  12.343
39120W        W  651  36.526  11.718  12.072
39121W        W  652  40.830  15.206  11.515
39122W        W  653  30.036   7.200   4.621
39123W        W  654  22.220   0.845  11.568
39124W        W  655  35.568  35.441   3.655
39125W        W  656  20.257  20.167  13.811
39126W        W  657  38.067  36.079   0.321
39127W        W  658  13.813   6.734   3.325
39128W        W  659   9.155   0.796  12.886
39129W        W  660   1.398  15.649  12.546
39130W        W  661  36.399  15.794  14.510
39131W        W  662  11.258  31.533   3.374
39132W        W  663   8.214  27.067  11.913
39133W        W  664   4.804   3.382  12.992
39134W        W  665  43.497  44.779   2.788
39135W        W  666  28.989  18.769   4.132
39136W        W  667   4.702  15.696   0.790
39137W        W  668  24.689   3.323  11.094
39138W        W  669  30.430  12.822   0.304
39139W        W  670  13.215  23.219  10.899
39140W        W  671  11.821   4.237  14.343
39141W        W  672  17.587  23.202  10.494
39142W        W  673  23.677   0.251   3.263
39143W        W  674  37.050  36.971  12.827
39144W        W  675  27.995  29.470  13.825
39145W        W  676   9.198   7.286  11.403
39146W        W  677  10.684  15.084   2.396
39147W        W  678   2.472  13.605  14.394
39148W        W  679  31.476  38.462  11.111
39149W        W  680  10.745   3.215   3.337
39150W        W  681  30.426  16.224   2.873
39151W        W  682  29.020  40.353  11.451
39152W        W  683  12.179  31.584  13.829
39153W        W  684  14.733  44.345  12.844
39154W        W  685  10.233   7.688  11.516
39155W        W  686   7.860  30.654  11.568
39156W        W  687  40.831   5.806   3.737
39157W        W  688  36.946  27.184  11.028
39158W        W  689   7.318   1.368   4.819
39159W        W  690  39.848   8.864   2.411
39160W        W  691  14.774  18.563  11.465
39161W        W  692  43.357   5.281   2.339
39162W        W  693   5.394  30.556   4.213
39163W        W  694  40.487  37.880  10.595
39164W        W  695  29.994  44.496   0.914
39165W        W  696  11.833  32.587  12.357
39166W        W  697  21.237  18.559  10.457
39167W        W  698   7.246  32.551   3.758
39168W        W  699  22.552  25.628   0.783
39169W        W  700   1.842  43.297  12.935
39170W        W  701  12.193  34.579  13.809
39171W        W  702  41.867  43.893   3.739
39172W        W  703  39.861  20.257   2.860
39173W        W  704   8.308  27.046   3.235
39174W        W  705  25.618  38.454   4.639
39175W        W  706  12.830  25.637   3.274
39176W        W  707  11.150  15.817  10.520
39177W        W  708  11.265  22.199  14.892
39178W        W  709  35.099  25.607  10.544
39179W        W  710  28.438  41.437  13.912
39180W        W  711  30.534  13.316  11.427
39181W        W  712  44.499  37.956   0.296
39182W        W  713  13.601  27.086   0.265
39183W        W  714  42.949   3.854  14.286
39184W        W  715  24.659   0.301   0.349
39185W        W  716  19.197  34.561   4.800
39186W        W  717  33.099  28.184   4.313
39187W        W  718  44.449  28.607   3.765
39188W        W  719  13.744   2.899   1.324
39189W        W  720  23.147  32.078   2.269
39190W        W  721  17.684   6.807   2.691
39191W        W  722  14.286   1.431  14.294
39192W        W  723  39.448  43.854   4.204
39193W        W  724   8.380  35.395  11.003
39194W        W  725  24.572  30.559  11.076
39195W        W  726  27.615  32.136  12.447
39196W        W  727  12.355  32.912  14.937
39197W        W  728   2.727  15.607   4.301
39198W        W  729  41.966  29.586  13.855
39199W        W  730  35.862  30.652  11.869
39200W        W  731  42.899  40.548   1.931
39201W        W  732   4.209   4.278  13.498
39202W        W  733  44.279  34.098  14.812
39203W        W  734  37.443  36.535   1.227
39204W        W  735  20.630   9.815  14.353
39205W        W  736  27.560  41.419   3.337
39206W        W  737  16.098   6.239  12.424
39207W        W  738  21.568   3.746   2.200
39208W        W  739  27.015  38.476  13.466
39209W        W  740  29.063  42.908   2.246
39210W        W  741  38.430  20.767  12.921
39211W        W  742   8.730  29.647   2.322
39212W        W  743  36.498  13.191   5.179
39213W        W  744  40.356  41.342   4.312
39214W        W  745  14.728   0.325  11.884
39215W        W  746  21.646   4.901   1.866
39216W        W  747  15.582  21.631  14.933
39217W        W  748   1.322   7.388   0.740
39218W        W  749  39.874  32.966   4.245
39219W        W  750   3.911  10.655  10.642
39220W        W  751   5.777   7.176  10.599
39221W        W  752   6.333  30.647   3.383
39222W        W  753  11.717  36.371   1.873
39223W        W  754  38.391  14.162  12.522
39224W        W  755  32.098  15.182  13.411
39225W        W  756  10.659  10.675  11.963
39226W        W  757  33.938  38.528  12.513
39227W        W  758  32.064   0.769  12.948
39228W        W  759  39.990  10.184  14.873
39229W        W  760  36.362  11.299  13.510
39230W        W  761  40.539  33.985  12.919
39231W        W  762   6.771  43.490  14.785
39232W        W  763  40.943  44.288   4.815
39233W        W  764   6.289  37.406   4.636
39234W        W  765  16.172   3.221  10.636
39235W        W  766  26.464  43.473   5.201
39236W        W  767   1.321  37.046   2.266
39237W        W  768  14.213   1.797   3.795
39238W        W  769  10.707  39.976   3.788
39239W        W  770  15.297   8.193  12.882
39240W        W  771  19.609  34.549  12.509
39241W        W  772   4.731   6.841  12.394
39242W        W  773  31.638  32.589   0.766
39243W        W  774   1.337  38.071  10.474
39244W        W  775  12.304   9.795   0.876
39245W        W  776  10.207   5.230  14.796
39246W        W  777  38.491  29.524   0.844
39247W        W  778   4.765  14.730  11.578
39248W        W  779  27.526   1.432  13.795
39249W        W  780   8.230  11.162  12.580
39250W        W  781  37.973  44.299   1.861
39251W        W  782   6.271   9.720   2.890
39252W        W  783   1.937  29.974   3.813
39253W        W  784  43.312  24.164  12.854
39254W        W  785  14.230  19.673  10.639
39255W        W  786   9.868  16.171   1.711
39256W        W  787  11.228   4.809  14.884
39257W        W  788   7.829  25.155   3.638
39258W        W  789  37.432  24.189   2.828
39259W        W  790  44.937  28.975  12.900
39260W        W  791  26.693   8.222  13.855
39261W        W  792  20.238  14.599   1.275
39262W        W  793  19.040  33.126   4.291
39263W        W  794   6.879  43.840  11.427
39264W        W  795  16.270  40.407  12.936
39265W        W  796  18.176  43.366  12.873
39266W        W  797  21.553  35.464   4.334
39267W        W  798  33.392  39.873  14.419
39268W        W  799   5.854   8.845   0.460
39269W        W  800  17.598  32.580   0.261
39270W        W  801  23.543   9.231  10.589
39271W        W  802  13.702  28.491  14.409
39272W        W  803  37.494   6.208   3.195
39273W        W  804   9.648  21.656  11.026
39274W        W  805   2.422  26.610  11.578
39275W        W  806  26.611  18.746  12.946
39276W        W  807  22.502   9.292   3.204
39277W        W  808  12.835  26.087   2.263
39278W        W  809  31.636  10.255  13.406
39279W        W  810  19.572  41.789   9.999
39280W        W  811  37.449  42.301   1.330
39281W        W  812  29.491  33.032   1.330
39282W        W  813  42.950  35.525  13.978
39283W        W  814  16.300   0.434  10.575
39284W        W  815  12.780   8.327   3.159
39285W        W  816  21.568  41.327   1.227
39286W        W  817  37.356  31.528   3.192
39287W        W  818  27.636  44.264   0.457
39288W        W  819  36.546  19.744   3.677
39289W        W  820  18.642   0.781  12.365
39290W        W  821   1.380  36.930  14.350
39291W        W  822  39.859  43.778  12.438
39292W        W  823  13.262  17.651  12.855
39293W        W  824  17.710   5.766   3.743
39294W        W  825  24.016  28.550   2.302
39295W        W  826   3.829  14.246  10.982
39296W        W  827  42.849  23.169  12.545
39297W        W  828  29.115   7.379   1.409
39298W        W  829  42.032   1.336   1.869
39299W        W  830  16.605  11.810   3.799
39300W        W  831  29.042   4.746  11.390
39301W        W  832   1.940  26.652  11.488
39302W        W  833  22.137  11.269  13.439
39303W        W  834  36.473   4.258  12.857
39304W        W  835   0.787  41.486   4.132
39305W        W  836  36.498  13.667   4.643
39306W        W  837  30.526  26.110  12.532
39307W        W  838   0.480  21.055  14.322
39308W        W  839  13.268   7.847  10.984
39309W        W  840  12.742  39.431  13.542
39310W        W  841  19.708   5.931   0.444
39311W        W  842  24.040  30.091   3.259
39312W        W  843  27.017  35.398  14.319
39313W        W  844   8.375   2.411  12.959
39314W        W  845  18.627   5.198  11.550
39315W        W  846   7.693  13.211   0.906
39316W        W  847  40.998  34.119  13.877
39317W        W  848  37.455  40.935   0.940
39318W        W  849   1.415   8.756   2.186
39319W        W  850  33.393  38.028   3.385
39320W        W  851  33.965  34.392   3.727
39321W        W  852   6.834  41.942  12.986
39322W        W  853   8.365   0.968  10.621
39323W        W  854  32.481   4.759   3.711
39324W        W  855  16.726  20.195   3.762
39325W        W  856  32.588  24.571  13.474
39326W        W  857   0.777  23.076   2.362
39327W        W  858  29.017  44.379  14.770
39328W        W  859  30.027  30.600  10.941
39329W        W  860  24.155  13.789   2.231
39330W        W  861   5.844  37.408   1.296
39331W        W  862  40.950   3.388   1.444
39332W        W  863  17.566  31.114  11.939
39333W        W  864  20.649  26.169  11.503
39334W        W  865   8.366   4.802   4.717
39335W        W  866  32.050  37.003   1.878
39336W        W  867   0.331  29.588   2.387
39337W        W  868  22.739  21.540   3.264
39338W        W  869  11.178  38.563   0.462
39339W        W  870  23.071  26.475  10.596
39340W        W  871  10.149  42.866   1.388
39341W        W  872  17.161  35.470   1.726
39342W        W  873   4.376  34.024   0.483
39343W        W  874  40.487  43.504  13.819
39344W        W  875  22.247   5.783  13.045
39345W        W  876  23.681  32.430  11.590
39346W        W  877  15.823  22.177   0.915
39347W        W  878  40.817   4.812  12.876
39348W        W  879  30.068  28.098   4.139
39349W        W  880  10.203  30.082  11.554
39350W        W  881  41.316  34.932   0.797
39351W        W  882   8.294  22.009   3.291
39352W        W  883   9.755   9.708   3.827
39353W        W  884  17.259  23.155  10.889
39354W        W  885   3.278  12.196   0.865
39355W        W  886  34.990  33.546   3.369
39356W        W  887  26.462   6.410  11.478
39357W        W  888  11.171  25.164  11.110
39358W        W  889   1.883  33.409  12.886
39359W        W  890  30.626   1.862   3.173
39360W        W  891  17.688  43.348   2.859
39361W        W  892   5.774  22.144   0.922
39362W        W  893  25.061  20.065  10.511
39363W        W  894   7.752  13.230  13.799
39364W        W  895   5.419   1.393  10.889
39365W        W  896   4.832  20.178   2.889
39366W        W  897  13.286  21.236  13.892
39367W        W  898   3.920  37.962   1.443
39368W        W  899  36.006  27.124   2.271
39369W        W  900  24.527  39.343   1.356
39370W        W  901   8.656  17.133  14.882
39371W        W  902   2.870  31.632   2.377
39372W        W  903  33.935  34.051   2.752
39373W        W  904  27.965  44.821   1.752
39374W        W  905   2.434   3.225  13.871
39375W        W  906  33.078  41.445  13.852
39376W        W  907  20.568  31.625   3.661
39377W        W  908  27.024  16.107  14.298
39378W        W  909  41.799   4.708  13.803
39379W        W  910  14.234   7.381  11.484
39380W        W  911  26.205  17.184   0.893
39381W        W  912   2.270  23.113   4.244
39382W        W  913  35.970  26.647   4.785
39383W        W  914  43.939   7.325  12.925
39384W        W  915  42.348  43.301  14.972
39385W        W  916  10.232  16.739  11.567
39386W        W  917  36.490  33.923  10.956
39387W        W  918  29.957  13.270   0.378
39388W        W  919   8.181   3.771   3.159
39389W        W  920  10.662  24.539  13.513
39390W        W  921  15.140  36.431   3.242
39391W        W  922  43.377   9.656  14.767
39392W        W  923   8.838  41.424  14.378
39393W        W  924   5.694  30.624   1.929
39394W        W  925  31.970  10.317   2.233
39395W        W  926  35.021  30.064   0.478
39396W        W  927   2.303  36.001   2.364
39397W        W  928  44.974  41.474   2.194
39398W        W  929  12.629   8.310   4.716
39399W        W  930  14.307  19.720  11.999
39400W        W  931  26.035   9.284  12.401
39401W        W  932  11.859  19.282  13.377
39402W        W  933  26.958   6.829   0.766
39403W        W  934  41.858  28.030   3.646
39404W        W  935  19.049  29.163  11.982
39405W        W  936  31.401  28.045   4.277
39406W        W  937   9.671  43.868  10.556
39407W        W  938  27.957  15.136   1.308
39408W        W  939  10.668  20.167  12.929
39409W        W  940   8.896   7.390  10.479
39410W        W  941  25.193   4.437  11.061
39411W        W  942  10.663  30.999   2.753
39412W        W  943   2.740  35.940   3.189
39413W        W  944  14.339  44.478  12.560
39414W        W  945  27.945  43.926   2.678
39415W        W  946   1.894  40.997  12.861
39416W        W  947  16.101  15.791   4.272
39417W        W  948  33.623   0.311  13.879
39418W        W  949  31.551  39.868  12.927
39419W        W  950  31.612  33.094   4.173
39420W        W  951  12.836   8.358   4.136
39421W        W  952  14.632  24.214   5.147
39422W        W  953  30.915   1.421  10.597
39423W        W  954  43.983  38.466  12.570
39424W        W  955   6.344  39.417  11.374
39425W        W  956  12.822   3.956  14.914
39426W        W  957  43.468  31.502  12.557
39427W        W  958   2.375  43.941  10.552
39428W        W  959  30.002   1.845   4.643
39429W        W  960  39.525   2.795  14.766
39430W        W  961  30.579  32.482  12.424
39431W        W  962  30.449  15.716  13.831
39432W        W  963  44.765  14.130  12.961
39433W        W  964  20.168   8.263  12.883
39434W        W  965  35.509  29.031  13.833
39435W        W  966  24.559   7.696  12.824
39436W        W  967  14.100  28.960   3.376
39437W        W  968   5.375  10.344  11.496
39438W        W  969   7.819  20.554   3.313
39439W        W  970  38.998  23.682   4.802
39440W        W  971   4.274  42.834   0.322
39441W        W  972   2.884  10.669  10.490
39442W        W  973  26.614  14.673   1.718
39443W        W  974  41.014   5.328   2.186
39444W        W  975  33.947  41.528  13.855
39445W        W  976  10.854  35.429   4.811
39446W        W  977  19.103  27.608   4.179
39447W        W  978  14.166   7.690  12.961
39448W        W  979  23.104   3.940   1.921
39449W        W  980  40.528  32.522  12.535
39450W        W  981   0.337  40.537   1.367
39451W        W  982  20.122  14.212   5.145
39452W        W  983  28.945  18.659  11.458
39453W        W  984   9.801  17.082   4.679
39454W        W  985  34.095  40.040   1.792
39455W        W  986  14.821  23.576  14.471
39456W        W  987  11.290  15.137  10.996
39457W        W  988  21.623  17.206  11.442
39458W        W  989  14.663   1.285  13.838
39459W        W  990   8.659  42.914  12.020
39460W        W  991  34.383  11.832   5.146
39461W        W  992  14.707  37.379  12.900
39462W        W  993  42.440  18.289   2.226
39463W        W  994  36.509   3.250   2.753
39464W        W  995  12.767  29.924  14.826
39465W        W  996   7.316  33.005  13.984
39466W        W  997   0.831   4.738   2.837
39467W        W  998  41.354  17.254  14.275
39468W        W  999  29.602  29.026   4.697
39469W        W 1000   9.731   9.761   0.760
39470W        W 1001  13.314  36.434   3.244
39471W        W 1002  19.196   0.970   1.919
39472W        W 1003  29.118  16.195  14.932
39473W        W 1004   0.751   3.827  10.473
39474W        W 1005   3.839  31.897  10.518
39475W        W 1006  44.864  38.069   3.647
39476W        W 1007  26.033  14.789   3.677
39477W        W 1008  21.028  19.143  12.386
39478W        W 1009  44.832   8.361  14.285
39479W        W 1010  26.052  43.468  10.942
39480W        W 1011  38.439   8.259   5.138
39481W        W 1012   1.381  36.001  12.364
39482W        W 1013   0.398  34.431   1.845
39483W        W 1014  43.791  44.262  11.911
39484W        W 1015   0.756  14.261   2.281
39485W        W 1016  27.460   1.951  10.630
39486W        W 1017   6.379  39.060   2.891
39487W        W 1018   5.933  37.958   4.787
39488W        W 1019  12.836  21.710   3.645
39489W        W 1020  44.328  14.162   3.337
39490W        W 1021  20.679  42.973  10.451
39491W        W 1022   4.336  40.306   1.733
39492W        W 1023  20.700   9.253  10.420
39493W        W 1024  14.222  19.736   4.163
39494W        W 1025  34.462  18.642   0.258
39495W        W 1026  12.221   8.790  14.989
39496W        W 1027  40.456   8.370  13.006
39497W        W 1028  14.328  30.158   3.646
39498W        W 1029  24.021  26.557  11.516
39499W        W 1030   8.703  38.387   1.811
39500W        W 1031   8.717  30.123  14.391
39501W        W 1032  40.023   1.904   2.210
39502W        W 1033   9.740   2.939  10.511
39503W        W 1034  27.532  44.346  12.461
39504W        W 1035  12.663  25.540  13.509
39505W        W 1036  30.620  36.850   1.722
39506W        W 1037  23.658  33.072  11.472
39507W        W 1038  16.228  12.183  14.928
39508W        W 1039  25.992  30.062  11.593
39509W        W 1040  13.790   7.390   3.797
39510W        W 1041   3.752  43.771  11.881
39511W        W 1042  40.304  12.843   5.208
39512W        W 1043  12.329  14.732   0.337
39513W        W 1044  33.129  38.056  11.105
39514W        W 1045   8.704  15.279  10.440
39515W        W 1046   5.328  27.122   4.795
39516W        W 1047  18.158   8.737  11.493
39517W        W 1048   5.366  38.035   0.952
39518W        W 1049   8.312   0.920   4.302
39519W        W 1050  18.607  20.273   4.770
39520W        W 1051  17.114  20.559   0.473
39521W        W 1052  24.005  17.067  11.434
39522W        W 1053  29.489  34.512   5.112
39523W        W 1054  32.459  36.907  14.513
39524W        W 1055  40.519   2.279  13.041
39525W        W 1056  21.647   3.711   2.814
39526W        W 1057  40.498  40.350   0.832
39527W        W 1058   9.736  34.414  14.376
39528W        W 1059  38.874  25.183   1.747
39529W        W 1060   6.389   5.864  12.429
39530W        W 1061  42.818  37.525  12.984
39531W        W 1062  42.971  36.966  11.563
39532W        W 1063   2.843  29.579   1.427
39533W        W 1064   2.779  11.218   2.695
39534W        W 1065  25.035   3.787   3.710
39535W        W 1066   9.720  21.109  13.961
39536W        W 1067  11.156  28.104   4.760
39537W        W 1068  15.714  32.901   2.297
39538W        W 1069  36.902   7.890   3.671
39539W        W 1070  12.342   5.859  13.807
39540W        W 1071  32.528  10.287   0.483
39541W        W 1072   3.390  19.197  12.488
39542W        W 1073  26.514  29.443   1.751
39543W        W 1074  37.022  19.754   1.750
39544W        W 1075  20.672   1.359  11.606
39545W        W 1076  38.471   3.285  11.129
39546W        W 1077  22.111   4.888  11.467
39547W        W 1078   3.797  37.353  12.344
39548W        W 1079   3.405  29.491  11.859
39549W        W 1080   1.344  33.082  14.946
39550W        W 1081  36.964   4.378   0.839
39551W        W 1082  28.116   3.394  13.954
39552W        W 1083  24.050  35.096   4.218
39553W        W 1084   2.285  37.497  10.144
39554W        W 1085  34.370  36.388   5.697
39555W        W 1086   5.230  30.648  11.474
39556W        W 1087   0.759  38.901  13.029
39557W        W 1088  19.137  28.453  14.417
39558W        W 1089  34.377   6.340   1.352
39559W        W 1090  15.617  11.255  14.973
39560W        W 1091  10.247  42.431  11.542
39561W        W 1092  29.653  31.033  11.604
39562W        W 1093  37.840  36.383   3.695
39563W        W 1094  10.355  23.023   2.407
39564W        W 1095  11.850   3.932   2.229
39565W        W 1096   4.728  22.130  10.132
39566W        W 1097  34.382  29.150   3.163
39567W        W 1098  30.538  23.596  13.888
39568W        W 1099  42.954  23.703  14.337
39569W        W 1100  44.838  43.366  11.020
39570W        W 1101  18.068   2.814   4.257
39571W        W 1102  35.897   4.870   1.259
39572W        W 1103  35.871  24.034  12.521
39573W        W 1104   1.404   1.407   4.696
39574W        W 1105  37.956  25.489  10.896
39575W        W 1106   0.450   1.391  14.314
39576W        W 1107  32.432   0.472  14.986
39577W        W 1108   3.712   4.327  12.495
39578W        W 1109  25.526   4.862   0.272
39579W        W 1110  18.166  32.507  13.836
39580W        W 1111  19.544  32.040   3.654
39581W        W 1112  21.666  24.036   1.850
39582W        W 1113  44.785  17.756   4.825
39583W        W 1114  24.489  10.764   2.201
39584W        W 1115  23.082  10.345  14.398
39585W        W 1116  36.405   1.338   1.862
39586W        W 1117  35.898  42.399   3.282
39587W        W 1118  38.466  20.684  14.895
39588W        W 1119   1.943  39.044   4.669
39589W        W 1120  28.120  13.708   3.714
39590W        W 1121  29.100  15.719   1.367
39591W        W 1122  24.146   3.931  11.959
39592W        W 1123  35.053   0.356   3.347
39593W        W 1124  15.318  36.863   4.634
39594W        W 1125  22.593   9.877   3.169
39595W        W 1126  21.623  17.592  13.043
39596W        W 1127   1.451   9.655   4.226
39597W        W 1128  39.554   4.442   3.748
39598W        W 1129  24.053  38.862   2.721
39599W        W 1130  18.149  27.632  13.986
39600W        W 1131  34.446  11.364   0.747
39601W        W 1132  43.476  22.638  13.027
39602W        W 1133   1.413  15.259   2.669
39603W        W 1134  43.937  26.683  10.475
39604W        W 1135  22.113  38.407   0.761
39605W        W 1136  17.580  32.515   2.244
39606W        W 1137  17.078  24.622  12.393
39607W        W 1138  36.851  29.521  12.023
39608W        W 1139  20.108  35.034   9.930
39609W        W 1140  20.222   4.303  11.875
39610W        W 1141  19.185  40.014   0.742
39611W        W 1142   7.400   8.193   0.811
39612W        W 1143  15.696  30.060   2.873
39613W        W 1144  41.925  43.996  13.399
39614W        W 1145  24.052   3.426  11.603
39615W        W 1146  23.545  21.155   0.478
39616W        W 1147   8.329  22.654  14.852
39617W        W 1148  23.037  19.202   3.802
39618W        W 1149  31.007  13.799   1.413
39619W        W 1150  38.333  40.305   0.750
39620W        W 1151  26.606  33.064   0.860
39621W        W 1152  10.713  31.580   0.351
39622W        W 1153  21.246  10.339   2.676
39623W        W 1154  23.122   3.266   3.318
39624W        W 1155  14.636  26.485  12.565
39625W        W 1156  16.267  41.873  11.472
39626W        W 1157   8.819  26.112  11.937
39627W        W 1158  42.298  38.858  13.311
39628W        W 1159  14.265  27.949  12.892
39629W        W 1160  17.272  20.705  13.011
39630W        W 1161  32.034  34.524  11.594
39631W        W 1162  30.048  16.235  12.387
39632W        W 1163  27.981  20.741  11.902
39633W        W 1164  38.919   5.281   4.191
39634W        W 1165  42.390   6.842  13.897
39635W        W 1166  31.031  12.832   3.311
39636W        W 1167   9.864  13.740   1.930
39637W        W 1168  16.766  22.631  11.416
39638W        W 1169  15.729   4.700   5.103
39639W        W 1170  41.815  13.719   1.747
39640W        W 1171  32.092  35.100  13.891
39641W        W 1172  29.997  34.578  14.371
39642W        W 1173  20.581  31.113  11.026
39643W        W 1174  10.278  37.892  11.930
39644W        W 1175   5.698   8.241   4.707
39645W        W 1176   6.828  34.984   4.158
39646W        W 1177  23.187   2.257  10.575
39647W        W 1178  27.643   7.692   1.935
39648W        W 1179  31.449  13.623   4.631
39649W        W 1180  18.094  28.591  13.307
39650W        W 1181  33.981  10.836   3.691
39651W        W 1182  39.536  16.105  10.973
39652W        W 1183   1.452   9.764   0.427
39653W        W 1184  22.734   3.268   4.752
39654W        W 1185  24.624  43.007  14.496
39655W        W 1186  31.069  42.517   0.299
39656W        W 1187  20.601  15.607  14.920
39657W        W 1188  37.471  35.014   0.316
39658W        W 1189   9.644   4.789  14.903
39659W        W 1190  33.116  32.489  12.489
39660W        W 1191   3.448   8.897  11.569
39661W        W 1192  25.528  13.804   0.465
39662W        W 1193  21.196  22.606   1.450
39663W        W 1194  36.940  24.523  14.800
39664W        W 1195  44.825  19.762   4.838
39665W        W 1196   5.701  24.634   0.341
39666W        W 1197  34.065  27.988   3.244
39667W        W 1198  43.895  13.778  14.441
39668W        W 1199   1.915  16.736   0.345
39669W        W 1200   3.849  19.687  10.541
39670W        W 1201  41.513  32.011  11.576
39671W        W 1202  40.542   6.798  12.348
39672W        W 1203  15.641  27.452  12.459
39673W        W 1204   8.738  36.489  11.904
39674W        W 1205  13.622  41.449  11.561
39675W        W 1206  18.714  15.745   1.214
39676W        W 1207  13.722  12.700   2.709
39677W        W 1208   5.782  42.833   0.455
39678W        W 1209  35.519  22.164   3.805
39679W        W 1210  13.798  25.560   0.766
39680W        W 1211  25.077  44.440   4.724
39681W        W 1212  12.317  34.042  11.404
39682W        W 1213   5.779  32.961  11.571
39683W        W 1214  21.141  17.751  14.852
39684W        W 1215  22.152  39.854  13.403
39685W        W 1216   4.348  42.330  12.467
39686W        W 1217  21.218  31.611  11.091
39687W        W 1218  15.688  38.335   1.346
39688W        W 1219  11.638   1.448   0.405
39689W        W 1220  12.695  42.375   2.888
39690W        W 1221  42.845   9.256   1.922
39691W        W 1222   4.832  14.732   2.202
39692W        W 1223   3.889   3.834   0.737
39693W        W 1224  27.004  38.053  13.828
39694W        W 1225  31.610  25.200  13.922
39695W        W 1226  31.599   4.775  10.630
39696W        W 1227  27.167   3.302   0.751
39697W        W 1228  16.572  35.418   1.785
39698W        W 1229   6.876  20.062  13.814
39699W        W 1230   3.453  18.205  13.537
39700W        W 1231   8.751  40.815   4.150
39701W        W 1232   2.236  32.418   4.626
39702W        W 1233  20.114  25.628   0.891
39703W        W 1234  15.230  31.532  11.915
39704W        W 1235  27.588  36.469   3.805
39705W        W 1236  36.851  36.913  11.953
39706W        W 1237  16.626  31.644  14.958
39707W        W 1238  26.062  25.039  11.107
39708W        W 1239  27.193  30.082   5.612
39709W        W 1240   0.843  22.678  12.021
39710W        W 1241   2.879  21.115  13.841
39711W        W 1242   0.871  15.098  14.369
39712W        W 1243   3.307  39.872  14.464
39713W        W 1244  34.542   8.349  13.490
39714W        W 1245  42.488   8.353   3.702
39715W        W 1246   9.242  28.111  10.970
39716W        W 1247  17.770  12.272   4.772
39717W        W 1248  41.919  41.318   4.229
39718W        W 1249  14.159  16.203  14.015
39719W        W 1250   4.365  12.196  14.853
39720W        W 1251   7.305  40.455  11.885
39721W        W 1252  10.724  27.636   2.768
39722W        W 1253  38.491  15.629   2.663
39723W        W 1254  44.906   7.350   4.163
39724W        W 1255  10.835  34.975  10.932
39725W        W 1256  25.183  24.500   4.737
39726W        W 1257  18.667  39.942  14.936
39727W        W 1258   8.865  22.227  12.519
39728W        W 1259  16.245  37.010   4.280
39729W        W 1260  14.596  35.446  11.967
39730W        W 1261  27.124   8.750  14.354
39731W        W 1262   7.784  34.469   3.375
39732W        W 1263  20.173  16.258  13.001
39733W        W 1264  38.853  25.555   2.234
39734W        W 1265  40.502  10.354   2.409
39735W        W 1266  12.177  23.548   4.313
39736W        W 1267   9.259  25.697   0.746
39737W        W 1268  14.165  15.614  14.003
39738W        W 1269  39.850  27.587   4.695
39739W        W 1270   3.305   3.938   2.304
39740W        W 1271   9.688   5.217  14.759
39741W        W 1272   7.171  30.914   3.789
39742W        W 1273  30.947  24.218   0.832
39743W        W 1274  39.996  10.227   0.295
39744W        W 1275  34.396   2.317   2.217
39745W        W 1276  17.183   0.956  12.456
39746W        W 1277  12.677  10.262  10.508
39747W        W 1278  35.363  25.642   1.436
39748W        W 1279  13.764   1.953   4.132
39749W        W 1280  25.037  19.189   2.752
39750W        W 1281  17.236  40.013  14.909
39751W        W 1282  31.068  19.749   1.283
39752W        W 1283  32.133  13.185   1.830
39753W        W 1284   3.231  14.297  12.875
39754W        W 1285   9.183  11.628  12.383
39755W        W 1286   8.193  33.998  12.516
39756W        W 1287   7.891  10.187  14.866
39757W        W 1288  31.998   8.696  11.386
39758W        W 1289  41.532  12.280   1.245
39759W        W 1290   1.770  18.162  12.967
39760W        W 1291  35.379  32.005   1.792
39761W        W 1292  40.947  27.074   1.237
39762W        W 1293  16.290  21.604   3.847
39763W        W 1294  42.494   9.680  14.281
39764W        W 1295  18.774  27.537  12.407
39765W        W 1296  27.068   3.779  12.084
39766W        W 1297   6.920  36.512  14.845
39767W        W 1298  22.225   1.838   4.350
39768W        W 1299  36.440   3.770   2.782
39769W        W 1300  16.086  43.793   1.790
39770W        W 1301  14.603  43.958  14.361
39771W        W 1302  15.640  28.477   3.265
39772W        W 1303  18.058  16.707   2.883
39773W        W 1304  30.984  44.324  11.913
39774W        W 1305   1.734  44.885   0.330
39775W        W 1306   8.401  20.143   3.674
39776W        W 1307   7.746  11.683   1.219
39777W        W 1308   0.965  12.776   1.410
39778W        W 1309   5.814   9.210  14.914
39779W        W 1310  35.556  33.574   2.367
39780W        W 1311  31.465  12.743  10.542
39781W        W 1312  31.080  40.924   4.725
39782W        W 1313  38.429   0.973  12.026
39783W        W 1314   0.325  26.703   4.726
39784W        W 1315  12.143  16.590   4.806
39785W        W 1316  21.128  34.517   1.747
39786W        W 1317  33.460  28.540  11.396
39787W        W 1318  20.742  13.188   3.666
39788W        W 1319  19.144   7.875  13.377
39789W        W 1320  33.443  21.126  12.513
39790W        W 1321  17.646  39.862   0.477
39791W        W 1322  22.572   4.319  12.057
39792W        W 1323  41.470   9.702   1.342
39793W        W 1324   7.909  17.204  10.575
39794W        W 1325  19.763  21.106   2.332
39795W        W 1326  23.495  42.411  10.504
39796W        W 1327  42.847  40.016   3.335
39797W        W 1328  44.917  22.616  10.444
39798W        W 1329  20.180  34.505  11.421
39799W        W 1330  10.334  38.445   4.764
39800W        W 1331  35.453  39.944  14.003
39801W        W 1332   6.211  28.095  10.490
39802W        W 1333  14.177  12.151  11.476
39803W        W 1334  42.382  38.912  12.052
39804W        W 1335  11.704  35.517  13.462
39805W        W 1336   5.349  10.219   4.117
39806W        W 1337  41.424  21.206  13.401
39807W        W 1338  25.201  19.541  12.556
39808W        W 1339  25.528  12.731   2.700
39809W        W 1340  35.967  43.391   3.301
39810W        W 1341  11.150  16.107   0.807
39811W        W 1342   5.215  29.451  11.600
39812W        W 1343  27.125  20.219   2.819
39813W        W 1344  27.623  39.866   4.124
39814W        W 1345   7.228  36.564   2.196
39815W        W 1346   6.223  39.315  12.931
39816W        W 1347  10.165  43.955  10.126
39817W        W 1348  24.086  32.475   1.275
39818W        W 1349  36.461  28.060   0.944
39819W        W 1350  22.060  16.289  12.900
39820W        W 1351  44.310  21.708   3.376
39821W        W 1352  39.016  35.925  10.923
39822W        W 1353  29.104  32.948   4.728
39823W        W 1354  31.584  26.630   3.270
39824W        W 1355  12.154  20.641   3.806
39825W        W 1356  22.088  26.578  14.925
39826W        W 1357  34.475  33.125   0.360
39827W        W 1358   2.231  26.595   4.673
39828W        W 1359  11.685  10.647   2.367
39829W        W 1360  39.345  32.968  13.052
39830W        W 1361   2.882  35.385   3.255
39831W        W 1362  32.480  20.600  11.032
39832W        W 1363  20.270   7.181   2.232
39833W        W 1364  19.205  40.950  13.980
39834W        W 1365  15.284   8.662  13.041
39835W        W 1366  15.114  22.227   2.267
39836W        W 1367   3.922  15.166  11.451
39837W        W 1368  15.749  40.946   4.756
39838W        W 1369  28.560  10.337  11.965
39839W        W 1370  38.883   1.363  11.047
39840W        W 1371  42.471  30.651  13.980
39841W        W 1372  12.673  27.546  12.952
39842W        W 1373  33.400   8.225   1.853
39843W        W 1374  25.710  36.956   3.817
39844W        W 1375  37.981  21.140  14.937
39845W        W 1376  39.983  20.150  12.826
39846W        W 1377  34.463  40.872   0.954
39847W        W 1378   3.932  28.475  14.032
39848W        W 1379   3.936  31.054  12.417
39849W        W 1380   7.328  22.128  12.508
39850W        W 1381   5.689  23.725  14.500
39851W        W 1382  18.140  38.935   4.716
39852W        W 1383   2.248  19.620  11.427
39853W        W 1384  20.056  24.571  12.992
39854W        W 1385  19.122  41.315   3.842
39855W        W 1386  12.808  13.274   3.644
39856W        W 1387  16.115   7.259  12.887
39857W        W 1388  36.540  31.905   0.917
39858W        W 1389  35.543  39.529  13.950
39859W        W 1390  26.023   8.234   1.243
39860W        W 1391  30.989  19.206   3.254
39861W        W 1392  29.984   3.816  14.832
39862W        W 1393   2.888  28.549  11.560
39863W        W 1394  25.020   3.905  11.995
39864W        W 1395  25.143   1.804   4.748
39865W        W 1396   5.227  13.272  12.044
39866W        W 1397  30.966  21.592   3.268
39867W        W 1398  25.085  35.557   1.278
39868W        W 1399  40.505  17.793   4.745
39869W        W 1400   7.886   0.891  10.630
39870W        W 1401  21.160  16.115  14.476
39871W        W 1402   3.358  42.954  10.971
39872W        W 1403  25.487   1.292   3.176
39873W        W 1404  27.980   6.873  14.500
39874W        W 1405  16.250  11.855   2.858
39875W        W 1406  13.615  30.035   4.601
39876W        W 1407  25.023   6.808  11.522
39877W        W 1408  13.162  43.792   4.607
39878W        W 1409  35.993   0.790  13.479
39879W        W 1410  13.704  28.595  11.416
39880W        W 1411  31.939  22.715   3.755
39881W        W 1412  40.455  43.879  13.312
39882W        W 1413  28.041  30.119   2.382
39883W        W 1414   8.704  36.890   1.368
39884W        W 1415   8.312  22.071   0.904
39885W        W 1416  38.330  11.127   3.359
39886W        W 1417   6.404  32.027  14.916
39887W        W 1418  25.684  22.590  12.094
39888W        W 1419  44.980  42.016   1.820
39889W        W 1420  35.091   1.861   4.721
39890W        W 1421  33.079   9.687  13.941
39891W        W 1422   1.969  37.954   1.791
39892W        W 1423  44.839  34.420   2.248
39893W        W 1424  30.490  43.950  14.880
39894W        W 1425  22.733  40.326  12.046
39895W        W 1426   7.904  37.514   9.921
39896W        W 1427   3.316  28.126   1.840
39897W        W 1428  15.590  42.927  11.879
39898W        W 1429  16.597  39.858  11.996
39899W        W 1430  38.039   7.176   3.638
39900W        W 1431  44.341  31.946  10.988
39901W        W 1432  44.426   4.725   2.854
39902W        W 1433  34.918  25.033  13.385
39903W        W 1434  42.783   0.335   2.726
39904W        W 1435  20.246  30.144   4.225
39905W        W 1436   9.337   1.962   1.770
39906W        W 1437  30.059   4.910   4.202
39907W        W 1438  18.547  12.676   4.259
39908W        W 1439   9.832  37.442   4.254
39909W        W 1440  35.869  24.626   4.762
39910W        W 1441  12.660   3.737   2.311
39911W        W 1442   4.816  38.505   4.734
39912W        W 1443  27.972  11.861  11.548
39913W        W 1444  39.457   5.906  12.350
39914W        W 1445  38.056  44.262  11.587
39915W        W 1446  32.922  19.560  14.874
39916W        W 1447   0.977  37.999   2.670
39917W        W 1448   9.395  28.536   0.379
39918W        W 1449  17.108  26.988  10.140
39919W        W 1450  35.429   2.254  12.998
39920W        W 1451  43.404  25.623   0.917
39921W        W 1452   5.416  37.075  12.009
39922W        W 1453  32.095  37.950  11.527
39923W        W 1454  14.645  44.861  10.953
39924W        W 1455  32.420  27.093   1.887
39925W        W 1456  37.890  42.336   0.841
39926W        W 1457  11.658  11.324   3.816
39927W        W 1458  14.715  18.636  13.454
39928W        W 1459   4.724  22.536  11.398
39929W        W 1460   6.892   7.859   2.701
39930W        W 1461  36.078  20.093  11.934
39931W        W 1462   5.408   3.282   2.841
39932W        W 1463  22.741   8.826  13.943
39933W        W 1464   8.241  12.833   2.893
39934W        W 1465  11.722  37.032  14.006
39935W        W 1466  31.075   0.830   3.171
39936W        W 1467   5.784  35.082   0.337
39937W        W 1468  24.120  27.508   1.912
39938W        W 1469   8.250  41.898   4.123
39939W        W 1470  30.484  22.219   0.827
39940W        W 1471  29.115   4.341  12.833
39941W        W 1472  32.587  34.927   4.129
39942W        W 1473  44.926  36.036  13.948
39943W        W 1474  20.109  44.879  13.907
39944W        W 1475  28.006  27.149   4.347
39945W        W 1476  17.653  21.727  14.871
39946W        W 1477   0.833   9.378  14.489
39947W        W 1478  14.190   1.810   0.432
39948W        W 1479   3.219  26.633  12.923
39949W        W 1480  44.863  43.503   2.401
39950W        W 1481  19.725  14.251  12.553
39951W        W 1482  31.486  32.420  12.451
39952W        W 1483   3.950  27.102   0.916
39953W        W 1484   4.337  16.168   0.338
39954W        W 1485  43.460  38.528  14.478
39955W        W 1486  34.904   9.239  13.334
39956W        W 1487  20.103  28.015  14.411
39957W        W 1488   4.249  14.122   3.739
39958W        W 1489  23.123  37.922  11.984
39959W        W 1490  29.170  29.135  14.291
39960W        W 1491   9.175  14.116  14.297
39961W        W 1492  20.599  12.829   0.755
39962W        W 1493  41.420  16.261   1.765
39963W        W 1494  43.976  10.762   3.386
39964W        W 1495  10.773  18.548   0.370
39965W        W 1496   9.342  32.628   3.641
39966W        W 1497  22.652  28.940  13.427
39967W        W 1498  13.752   0.310   1.881
39968W        W 1499  39.342  41.295  13.962
39969W        W 1500  33.432  29.618   0.856
39970W        W 1501  31.022  43.833   0.790
39971W        W 1502  29.587   4.215   4.354
39972W        W 1503  34.374  43.397  14.319
39973W        W 1504  22.044  33.555   2.293
39974W        W 1505  29.668   9.298   1.387
39975W        W 1506  39.056  18.248   0.965
39976W        W 1507   4.943  11.185   0.775
39977W        W 1508  36.454  44.798   2.351
39978W        W 1509  43.901  37.855   1.298
39979W        W 1510  20.029  22.730   0.738
39980W        W 1511  37.942  41.520  12.076
39981W        W 1512   7.246  38.451   4.734
39982W        W 1513  15.801   4.258   1.731
39983W        W 1514  30.088  30.037   3.164
39984W        W 1515  15.711  24.223  13.009
39985W        W 1516  31.433  43.456  14.512
39986W        W 1517  37.075  30.541  14.984
39987W        W 1518  11.729  40.857  13.882
39988W        W 1519  28.187   8.885   2.246
39989W        W 1520  20.571  20.258  11.914
39990W        W 1521   2.855  20.702  10.645
39991W        W 1522   2.902  21.092  11.526
39992W        W 1523  30.972  23.985  10.487
39993W        W 1524  37.830  36.441   0.367
39994W        W 1525  44.994  24.536  13.846
39995W        W 1526  35.893  10.762   3.225
39996W        W 1527  44.296  20.103   0.767
39997W        W 1528   4.345  10.347   1.328
39998W        W 1529  13.716  29.632  10.447
39999W        W 1530  10.733  39.430   0.270
40000W        W 1531  29.958  37.449  13.402
40001W        W 1532   0.904  15.621   5.191
40002W        W 1533  24.624  44.351   3.779
40003W        W 1534  20.049  42.463   1.441
40004W        W 1535   2.809  37.468   1.881
40005W        W 1536  42.932  24.529   2.195
40006W        W 1537   0.969  37.464  14.510
40007W        W 1538   1.307  25.160  12.444
40008W        W 1539  44.411   8.782  14.964
40009W        W 1540  26.032  19.233  14.906
40010W        W 1541  31.948   6.396  11.860
40011W        W 1542  42.327  22.690   1.425
40012W        W 1543  10.829  43.955   3.711
40013W        W 1544  17.097  17.062  14.373
40014W        W 1545  35.993  43.919  13.865
40015W        W 1546  40.918  44.816  10.616
40016W        W 1547   0.255  12.139   2.187
40017W        W 1548  44.457  14.628  12.508
40018W        W 1549   7.290  21.215  10.523
40019W        W 1550  44.952  31.472  10.527
40020W        W 1551   1.415  11.857  13.545
40021W        W 1552  24.566  34.907   3.723
40022W        W 1553   0.364  21.745  12.497
40023W        W 1554  25.507   8.372  12.935
40024W        W 1555   0.793  22.720   2.254
40025W        W 1556   4.437   8.759  11.403
40026W        W 1557  26.645  17.749   2.743
40027W        W 1558  17.283   5.837   3.656
40028W        W 1559  10.772  38.867  11.583
40029W        W 1560   3.216  23.621  12.439
40030W        W 1561  12.682  43.766   4.617
40031W        W 1562  40.041  27.108   0.420
40032W        W 1563  42.893  23.729   1.793
40033W        W 1564  24.510  27.507   0.396
40034W        W 1565  36.883  39.881  14.775
40035W        W 1566   2.248   7.683  14.982
40036W        W 1567  19.039  19.161  11.969
40037W        W 1568  38.435  35.095  12.012
40038W        W 1569  18.554  24.593   1.451
40039W        W 1570  37.035  19.566   0.861
40040W        W 1571  41.995  28.513   3.694
40041W        W 1572   9.200  32.899   2.196
40042W        W 1573  37.472  39.045  12.416
40043W        W 1574  34.564   9.203  12.926
40044W        W 1575   8.801   4.776  13.330
40045W        W 1576   1.474  29.554  11.897
40046W        W 1577  44.867  13.316   1.915
40047W        W 1578  30.485  21.526  11.395
40048W        W 1579   8.689   6.284   3.652
40049W        W 1580  43.330  38.911   0.319
40050W        W 1581  36.359   6.193   0.277
40051W        W 1582   1.265  12.794  13.838
40052W        W 1583  18.251   8.206   2.223
40053W        W 1584  42.516  37.402  11.404
40054W        W 1585   0.362  34.580  14.848
40055W        W 1586  27.566  24.075   0.955
40056W        W 1587  10.750  34.521   1.709
40057W        W 1588  11.170   8.290  13.508
40058W        W 1589  37.911  11.730  11.004
40059W        W 1590  40.528   1.316  11.530
40060W        W 1591  12.718  17.287  14.423
40061W        W 1592   1.802   9.752   4.305
40062W        W 1593  29.660  44.868  11.593
40063W        W 1594   9.888  12.688   1.338
40064W        W 1595  26.524  24.635   2.409
40065W        W 1596   6.267  40.511  13.472
40066W        W 1597  16.652  13.639  13.793
40067W        W 1598  41.479   1.913   0.311
40068W        W 1599  43.952  41.801  12.401
40069W        W 1600   7.819   4.800  10.050
40070W        W 1601  17.204  14.190  10.087
40071W        W 1602  20.057  31.531   3.855
40072W        W 1603   9.221  38.905   4.823
40073W        W 1604  18.661   7.334  13.537
40074W        W 1605  11.266  15.667   4.217
40075W        W 1606  38.328  16.793   4.240
40076W        W 1607  44.407  33.075  10.924
40077W        W 1608   3.758  28.960  14.410
40078W        W 1609   0.247  16.744   0.248
40079W        W 1610   3.934   3.255   3.198
40080W        W 1611  29.571  10.675   4.672
40081W        W 1612  26.664  10.647  10.625
40082W        W 1613  10.777  33.608  13.411
40083W        W 1614   8.832  19.747   2.746
40084W        W 1615   3.822  20.767   3.695
40085W        W 1616  10.209  21.198  11.467
40086W        W 1617  18.595   3.366   2.887
40087W        W 1618   7.853  44.940  14.884
40088W        W 1619   0.327  35.486   2.227
40089W        W 1620  18.062  40.032   1.300
40090W        W 1621  35.046  17.123  12.376
40091W        W 1622  40.539   4.852  12.996
40092W        W 1623   0.806  44.920  11.400
40093W        W 1624  22.604  14.255  11.553
40094W        W 1625  19.741  11.782   1.431
40095W        W 1626  22.736  13.681  10.482
40096W        W 1627  20.721  41.350   3.268
40097W        W 1628   7.343  39.450   1.210
40098W        W 1629  38.937   5.253   3.179
40099W        W 1630   8.658  10.356  14.275
40100W        W 1631  34.072  34.064   4.191
40101W        W 1632  43.317  23.549  13.544
40102W        W 1633  41.537  14.175  10.532
40103W        W 1634  20.699  23.610  10.569
40104W        W 1635   9.747   6.271   2.783
40105W        W 1636   0.983   0.938   5.281
40106W        W 1637   7.413  41.332  12.043
40107W        W 1638  33.092  16.642   5.166
40108W        W 1639  30.601  39.405   3.339
40109W        W 1640  41.860  19.550   3.868
40110W        W 1641   2.294  31.090   3.833
40111W        W 1642  20.128  20.585  14.016
40112W        W 1643  23.700  10.877  10.922
40113W        W 1644  12.119  20.045  10.635
40114W        W 1645  11.846  32.553  11.978
40115W        W 1646  30.962  40.798   2.220
40116W        W 1647  42.343  14.771   1.834
40117W        W 1648   4.808  34.462   4.663
40118W        W 1649   4.911  37.390  10.963
40119W        W 1650  35.578   8.267  14.862
40120W        W 1651  28.042  40.925  13.379
40121W        W 1652  13.155  42.839  13.046
40122W        W 1653  42.858  15.302  13.422
40123W        W 1654  27.613   5.887   1.821
40124W        W 1655  42.317  17.597  12.551
40125W        W 1656   0.382   9.184   1.399
40126W        W 1657  29.147  32.400  13.326
40127W        W 1658  16.194  38.047  11.481
40128W        W 1659   1.933  27.129  11.093
40129W        W 1660  12.273   5.851   2.875
40130W        W 1661   6.716   9.867  13.947
40131W        W 1662  17.191  12.120   1.887
40132W        W 1663  33.590  35.358   3.869
40133W        W 1664  14.801  13.701  13.976
40134W        W 1665  22.169  36.593   3.289
40135W        W 1666  42.828  30.617  11.494
40136W        W 1667  38.036   6.869  13.024
40137W        W 1668  24.608  20.185   2.407
40138W        W 1669  32.493  21.740   1.247
40139W        W 1670  17.184  28.049   3.380
40140W        W 1671  38.870  35.604   3.158
40141W        W 1672   1.478  31.485  14.323
40142W        W 1673  13.254  20.645  10.922
40143W        W 1674  43.298  23.625   2.820
40144W        W 1675   3.934  26.665  11.431
40145W        W 1676   8.725  35.478   2.746
40146W        W 1677  25.964  23.579   4.301
40147W        W 1678  41.360  37.389   4.716
40148W        W 1679  44.858  37.960  14.838
40149W        W 1680  39.353  19.699  13.925
40150W        W 1681  34.486  14.218   3.180
40151W        W 1682  34.413  39.949   4.756
40152W        W 1683   6.852   6.280   1.933
40153W        W 1684   2.266   0.346  11.128
40154W        W 1685  34.390   8.224   1.774
40155W        W 1686   9.647  13.657   1.270
40156W        W 1687  25.028  27.028   4.760
40157W        W 1688  29.137  10.846  14.324
40158W        W 1689  41.886  33.943  14.295
40159W        W 1690  14.642  43.405  11.542
40160W        W 1691  24.684  11.729  11.097
40161W        W 1692   5.896   6.410   0.957
40162W        W 1693  25.010  16.714  14.802
40163W        W 1694   1.446  35.945  10.592
40164W        W 1695  13.207  21.078  14.402
40165W        W 1696  34.552  34.613   1.732
40166W        W 1697  18.749   2.435  13.486
40167W        W 1698  13.165  21.576  11.878
40168W        W 1699  18.132  37.541   3.147
40169W        W 1700  43.384  24.484  11.973
40170W        W 1701  44.381  35.972  11.561
40171W        W 1702  33.380  24.650  10.589
40172W        W 1703  44.953  13.671   4.632
40173W        W 1704  37.346   0.477   2.862
40174W        W 1705   0.809   8.697  12.522
40175W        W 1706  43.887  44.376  14.405
40176W        W 1707  11.808  23.148   2.396
40177W        W 1708  38.898   3.904  13.906
40178W        W 1709  12.688  18.571   3.737
40179W        W 1710  27.575   8.212   1.255
40180W        W 1711  14.751  42.868  14.868
40181W        W 1712  39.425  27.647  10.561
40182W        W 1713  19.658   9.654   2.327
40183W        W 1714  32.417   7.361  11.947
40184W        W 1715  25.476  21.061  13.807
40185W        W 1716  11.668  10.812   1.762
40186W        W 1717  17.574   6.319   0.956
40187W        W 1718   0.307  26.657  11.385
40188W        W 1719   8.895  10.200   1.262
40189W        W 1720  21.097  11.779   3.759
40190W        W 1721  16.639  22.199  13.817
40191W        W 1722  14.762  40.871   2.841
40192W        W 1723   3.355  13.698   1.823
40193W        W 1724  20.690  26.527  11.474
40194W        W 1725  24.046  17.140  12.369
40195W        W 1726  33.541  10.826  14.383
40196W        W 1727  40.929  29.489  12.901
40197W        W 1728  19.706  15.270  12.578
40198W        W 1729   9.871  12.278  14.416
40199W        W 1730  27.646  17.200   2.179
40200W        W 1731  43.423  36.035  13.863
40201W        W 1732  34.436  18.180   2.386
40202W        W 1733  18.139  14.631  11.388
40203W        W 1734   9.272   2.338  11.938
40204W        W 1735  38.436  35.357   0.341
40205W        W 1736  15.322   6.906   3.330
40206W        W 1737  28.120   7.700   3.796
40207W        W 1738  28.450   0.424   2.414
40208W        W 1739  38.866  20.166  13.897
40209W        W 1740  26.555   4.865   2.794
40210W        W 1741  26.664  15.779   1.831
40211W        W 1742   5.745  27.054  11.526
40212W        W 1743  14.803  29.991   5.151
40213W        W 1744   1.961   2.814  12.983
40214W        W 1745  26.460  17.172  13.347
40215W        W 1746  11.666  28.967  13.871
40216W        W 1747   9.266   1.394  13.489
40217W        W 1748  27.580  35.059   4.671
40218W        W 1749  33.038  37.845  13.430
40219W        W 1750  37.423   0.958   5.253
40220W        W 1751  25.092  31.525  13.961
40221W        W 1752   1.260  37.468  10.414
40222W        W 1753  35.448  40.046   5.149
40223W        W 1754  25.116  26.091  13.393
40224W        W 1755  15.653   4.870  12.014
40225W        W 1756  43.945   6.306   1.780
40226W        W 1757  13.817  16.314  12.379
40227W        W 1758  22.221  37.397   2.331
40228W        W 1759  11.168  39.904  12.474
40229W        W 1760   5.738  42.883   4.794
40230W        W 1761  32.478   4.720  14.789
40231W        W 1762  22.249  14.635  11.571
40232W        W 1763  21.026  28.034  13.923
40233W        W 1764  27.662   0.305   3.631
40234W        W 1765  36.931   0.431  12.964
40235W        W 1766  12.191  32.130   3.160
40236W        W 1767   0.943  26.977  14.496
40237W        W 1768  16.225   9.889   2.696
40238W        W 1769  13.116  14.593  14.492
40239W        W 1770  31.461  22.109  11.464
40240W        W 1771  38.429  40.534  11.589
40241W        W 1772  29.490  10.724   4.160
40242W        W 1773  30.128  27.666   1.272
40243W        W 1774  38.480  29.644  13.326
40244W        W 1775  30.439  26.086  12.049
40245W        W 1776  17.166   5.716   4.272
40246W        W 1777   6.373  21.103  12.455
40247W        W 1778  19.129  18.151  12.542
40248W        W 1779  42.415  20.180  11.073
40249W        W 1780  11.656  13.337   1.725
40250W        W 1781  29.078  24.099  11.967
40251W        W 1782  37.891  38.952   1.789
40252W        W 1783   0.887  17.645   1.403
40253W        W 1784  37.407  41.305   0.778
40254W        W 1785  44.467  10.277   4.196
40255W        W 1786  42.322  27.506   0.306
40256W        W 1787  37.017   1.741   1.303
40257W        W 1788  18.551  38.898  12.572
40258W        W 1789  38.470   8.851   2.242
40259W        W 1790  13.180  41.957   1.243
40260W        W 1791  31.600  34.589   0.920
40261W        W 1792  28.624  23.128  14.406
40262W        W 1793   3.266  27.525  13.842
40263W        W 1794  38.511  15.762  13.425
40264W        W 1795  25.127  20.182  13.953
40265W        W 1796   6.291  22.046   1.765
40266W        W 1797  23.672  21.243  10.893
40267W        W 1798  38.346  25.673  14.928
40268W        W 1799  14.331  31.043  13.417
40269W        W 1800   8.240  36.914  11.400
40270W        W 1801  26.960  44.934  13.010
40271W        W 1802  38.450   6.871   1.373
40272W        W 1803   1.898   0.884   0.343
40273W        W 1804   0.799   4.860   3.836
40274W        W 1805  37.033  15.241  14.302
40275W        W 1806  37.482  43.998   1.696
40276W        W 1807  33.108  23.091  10.597
40277W        W 1808  21.644  25.666  12.081
40278W        W 1809  29.008  11.373   2.751
40279W        W 1810   0.388   5.418  14.328
40280W        W 1811   5.737  16.150  14.860
40281W        W 1812  38.384  10.347  13.310
40282W        W 1813  42.403   5.932   2.896
40283W        W 1814   7.349   4.422  14.987
40284W        W 1815   8.713  23.602   1.706
40285W        W 1816  33.527  39.385   1.898
40286W        W 1817   2.849  26.635  12.538
40287W        W 1818  43.270   2.890  11.014
40288W        W 1819  37.902  10.186   1.414
40289W        W 1820  21.735  34.954  12.475
40290W        W 1821  32.003  35.892  13.834
40291W        W 1822  14.117  38.898  11.124
40292W        W 1823   8.868  13.133   2.271
40293W        W 1824  39.040  34.044   0.870
40294W        W 1825  39.009  33.018   2.678
40295W        W 1826  27.064  22.148   2.239
40296W        W 1827  22.546  37.906  14.438
40297W        W 1828  16.148   2.294  12.926
40298W        W 1829  39.847  25.085   4.298
40299W        W 1830   4.414   0.885   2.802
40300W        W 1831  18.076   4.320   4.718
40301W        W 1832  12.779  34.878  10.911
40302W        W 1833  29.427  27.046   3.690
40303W        W 1834  10.853  32.478   3.812
40304W        W 1835  37.003   6.406  12.441
40305W        W 1836  13.740   5.762   0.269
40306W        W 1837  29.508  15.823   4.348
40307W        W 1838  29.164  32.945   3.685
40308W        W 1839  43.972  25.500  10.424
40309W        W 1840  39.006  20.741  13.026
40310W        W 1841  33.109  18.079  10.524
40311W        W 1842   2.851  39.819  12.912
40312W        W 1843  27.479  23.552   1.260
40313W        W 1844  28.449  42.305  12.412
40314W        W 1845  32.912  42.387  12.039
40315W        W 1846  14.601   1.776  14.029
40316W        W 1847  12.218   7.393   1.415
40317W        W 1848  10.363  19.232  13.891
40318W        W 1849  11.769  11.719   3.315
40319W        W 1850  20.637   0.781  10.479
40320W        W 1851  13.176  10.170   1.717
40321W        W 1852  23.613  30.516   3.171
40322W        W 1853  29.982  17.792   2.714
40323W        W 1854  37.999  34.079   2.834
40324W        W 1855  15.188  25.588  10.931
40325W        W 1856  36.347   5.298   0.250
40326W        W 1857  16.669   2.756  13.449
40327W        W 1858  36.356  37.847  13.502
40328W        W 1859  19.172  30.930   0.449
40329W        W 1860   9.272  10.150  10.488
40330W        W 1861  43.312  13.152   2.732
40331W        W 1862  10.855  16.751   2.672
40332W        W 1863   9.381  20.650  13.046
40333W        W 1864  32.915  30.103  14.447
40334W        W 1865  19.617  12.644   3.854
40335W        W 1866  15.304   8.666   0.761
40336W        W 1867  38.379  43.790   0.742
40337W        W 1868  24.133  41.989  13.945
40338W        W 1869  20.752   5.221  14.792
40339W        W 1870   4.447  35.454  11.576
40340W        W 1871  20.733  33.905   2.790
40341W        W 1872  40.522  40.813   2.860
40342W        W 1873  31.146   0.858   4.252
40343W        W 1874  17.142  19.548   4.608
40344W        W 1875   1.357  40.363  11.383
40345W        W 1876  29.091  16.692  13.428
40346W        W 1877  25.089  21.593   3.160
40347W        W 1878  30.437   2.444   1.793
40348W        W 1879  15.310  13.260   3.653
40349W        W 1880  28.949  36.438   1.906
40350W        W 1881   6.752  16.084  12.537
40351W        W 1882   8.272  37.860   4.832
40352W        W 1883  31.062  34.979  14.303
40353W        W 1884   3.908  39.350   4.195
40354W        W 1885  27.487   4.356  12.545
40355W        W 1886   6.423  20.532   3.247
40356W        W 1887  41.922  16.578  14.778
40357W        W 1888  16.736  26.147   4.758
40358W        W 1889  44.870  10.182   0.398
40359W        W 1890   4.710  14.255   1.845
40360W        W 1891   7.809  43.371   2.894
40361W        W 1892  25.967   0.800   4.823
40362W        W 1893  30.075   9.366  14.913
40363W        W 1894  23.101  23.026  11.527
40364W        W 1895  30.586  40.389  14.971
40365W        W 1896  44.918  30.649   2.202
40366W        W 1897  20.533  11.303   3.728
40367W        W 1898  35.864  21.718  12.404
40368W        W 1899  41.340  23.006  11.439
40369W        W 1900  14.169  10.867   0.768
40370W        W 1901  31.566  31.564  10.921
40371W        W 1902  36.026  29.122  13.823
40372W        W 1903  14.735  19.173   2.818
40373W        W 1904  40.032   9.692   3.342
40374W        W 1905   3.933  44.833  12.023
40375W        W 1906  16.158  12.339  12.000
40376W        W 1907  16.140  20.197  14.934
40377W        W 1908   8.696  23.674  11.479
40378W        W 1909  18.647  12.275   1.809
40379W        W 1910  15.206  16.155   3.701
40380W        W 1911   5.885   5.208  13.455
40381W        W 1912  17.706  31.063   2.700
40382W        W 1913  29.586   4.300   1.385
40383W        W 1914  35.049  37.078   1.333
40384W        W 1915  11.736  23.232   4.799
40385W        W 1916   3.730  13.652   1.261
40386W        W 1917   3.768  33.514  11.472
40387W        W 1918   2.879  26.101  14.416
40388W        W 1919  32.992  32.885   2.379
40389W        W 1920  28.611  28.130   1.847
40390W        W 1921  20.756  14.132   4.647
40391W        W 1922  17.143  38.070  11.919
40392W        W 1923   3.808  30.576  13.946
40393W        W 1924  42.018  44.498   3.665
40394W        W 1925  16.571  17.142   3.164
40395W        W 1926  19.039  11.189   2.309
40396W        W 1927  14.178  16.776   4.705
40397W        W 1928  24.567  41.908   1.283
40398W        W 1929   0.775  13.129  13.481
40399W        W 1930   2.826  19.128   3.635
40400W        W 1931  28.052   6.751   5.780
40401W        W 1932   1.419   7.845   3.728
40402W        W 1933  18.217  44.783  14.323
40403W        W 1934  38.437   4.770  14.978
40404W        W 1935  17.149  30.948  13.394
40405W        W 1936   6.802   4.401   2.295
40406W        W 1937   8.750   8.892   2.357
40407W        W 1938  29.101  30.498  11.121
40408W        W 1939  36.534  35.058  12.427
40409W        W 1940  35.002  35.055   4.180
40410W        W 1941  20.564   0.438   3.777
40411W        W 1942  10.716  33.603   1.228
40412W        W 1943  20.245  41.858   4.125
40413W        W 1944   6.409  10.783   1.896
40414W        W 1945   4.443   4.380  14.015
40415W        W 1946  39.493  14.647   2.371
40416W        W 1947  19.046   5.713   4.733
40417W        W 1948  38.854   1.802  14.484
40418W        W 1949  10.162  36.936   3.844
40419W        W 1950   3.842  17.637   0.856
40420W        W 1951  22.041  23.168  10.479
40421W        W 1952  22.673  16.315  10.964
40422W        W 1953  33.970  37.431  14.847
40423W        W 1954  12.232  44.827   4.822
40424W        W 1955  38.039  18.652   4.599
40425W        W 1956  23.550  35.955  14.512
40426W        W 1957   6.706  42.803   2.348
40427W        W 1958  40.356  39.943   1.874
40428W        W 1959  36.403  26.004  14.375
40429W        W 1960  41.832  36.357   5.248
40430W        W 1961   5.772  23.557   2.846
40431W        W 1962  37.565  12.836  13.881
40432W        W 1963   6.333  37.340   0.819
40433W        W 1964  37.422   2.790   0.403
40434W        W 1965  35.054  43.454  14.850
40435W        W 1966  35.559   9.821  10.524
40436W        W 1967  20.598  32.131   5.192
40437W        W 1968  10.317   9.262   4.603
40438W        W 1969  42.024   9.317   2.228
40439W        W 1970  42.335  19.732  12.453
40440W        W 1971  12.150  41.311   4.339
40441W        W 1972  29.144  21.741   2.749
40442W        W 1973  11.355  26.072  14.965
40443W        W 1974  17.067   8.258  14.811
40444W        W 1975  42.927  26.139   3.335
40445W        W 1976   0.411  23.535   4.789
40446W        W 1977   8.403  17.155  11.431
40447W        W 1978   5.407  35.952  11.081
40448W        W 1979  40.316  15.712   4.180
40449W        W 1980  23.547  18.596  12.471
40450W        W 1981  17.106  13.334  14.986
40451W        W 1982   0.305   0.472   1.392
40452W        W 1983  32.916  11.655   3.271
40453W        W 1984  24.658  29.509  11.572
40454W        W 1985  18.729   2.291   3.327
40455W        W 1986  16.601  29.462   2.216
40456W        W 1987  14.646  35.066   2.860
40457W        W 1988  40.804  34.978   1.832
40458W        W 1989   8.277  22.217   2.869
40459W        W 1990   5.928  18.170  11.462
40460W        W 1991  22.096  36.031   3.195
40461W        W 1992  23.664   7.771  13.463
40462W        W 1993  37.395   2.362  11.511
40463W        W 1994  32.561  17.719   2.179
40464W        W 1995  15.225  27.186  13.909
40465W        W 1996  30.417  20.064   2.812
40466W        W 1997  23.198  29.137  13.876
40467W        W 1998  35.064  30.105   3.248
40468W        W 1999  44.929  42.371  10.990
40469W        W 2000   1.973  15.255  14.785
40470W        W 2001  25.486  42.949   2.667
40471W        W 2002  31.502  36.483  13.011
40472W        W 2003   3.744   1.304   3.221
40473W        W 2004  35.400  15.187   0.761
40474W        W 2005  16.198  17.106  10.112
40475W        W 2006  37.990   8.305  13.540
40476W        W 2007  29.939  31.404   1.451
40477W        W 2008  12.776  37.057  14.760
40478W        W 2009  19.551  33.050  14.375
40479W        W 2010  24.101  25.018  13.882
40480W        W 2011  11.658  17.715   4.741
40481W        W 2012   3.258   6.222   4.220
40482W        W 2013   7.288  29.646   4.274
40483W        W 2014   0.410  34.115   1.356
40484W        W 2015  19.090  19.283  14.986
40485W        W 2016  30.464   5.251   0.839
40486W        W 2017  23.599   0.487   0.326
40487W        W 2018  17.625  10.363  13.045
40488W        W 2019  35.564  30.124  14.459
40489W        W 2020  31.915  20.148   0.733
40490W        W 2021  29.556  15.751   4.719
40491W        W 2022   4.858  15.807  13.039
40492W        W 2023  39.512  15.701   1.767
40493W        W 2024  35.004  18.220   3.720
40494W        W 2025   4.384   0.942  14.489
40495W        W 2026  25.533   4.937   2.867
40496W        W 2027  11.320   3.434   3.815
40497W        W 2028  27.503   0.255   4.239
40498W        W 2029  11.257  21.615   2.782
40499W        W 2030  26.168  29.138  10.894
40500W        W 2031   5.917   4.383   0.734
40501W        W 2032   9.783   9.745  10.451
40502W        W 2033  32.966  24.575  11.079
40503W        W 2034  23.164   0.837  14.926
40504W        W 2035   3.799  42.860  14.931
40505W        W 2036   6.883  36.400   3.191
40506W        W 2037   1.240   1.457   0.824
40507W        W 2038  42.311  29.512  14.861
40508W        W 2039  36.551  16.805   4.735
40509W        W 2040  11.746  14.208   1.418
40510W        W 2041   3.952  32.889  11.553
40511W        W 2042  22.149  43.766   0.468
40512W        W 2043  23.623  30.116  14.758
40513W        W 2044  34.535   6.707  11.549
40514W        W 2045  17.151  38.838   0.962
40515W        W 2046  29.117  24.488  12.477
40516W        W 2047  17.663  17.792  13.544
40517W        W 2048  32.461  44.974  13.323
40518W        W 2049   9.294   6.295  14.312
40519W        W 2050  41.975  20.049  13.833
40520W        W 2051  33.100  30.594   2.675
40521W        W 2052  15.328  17.633  11.381
40522W        W 2053  33.965  41.894  10.427
40523W        W 2054  32.889  43.964  12.898
40524W        W 2055   4.905  33.947  11.925
40525W        W 2056  36.491  12.283   2.327
40526W        W 2057   9.720  37.047   1.377
40527W        W 2058  14.206  35.988  10.988
40528W        W 2059  27.952  31.947   0.285
40529W        W 2060   0.285  30.948  12.089
40530W        W 2061  20.268  22.014  12.936
40531W        W 2062   3.752  23.694  13.489
40532W        W 2063  22.507   0.846   5.246
40533W        W 2064  15.229   5.905   4.287
40534W        W 2065  35.047  22.652   9.996
40535W        W 2066   6.725  31.904  11.541
40536W        W 2067  39.508   6.845   4.676
40537W        W 2068  12.753  39.963   2.854
40538W        W 2069  22.159   8.400  11.883
40539W        W 2070   3.732  42.827  10.888
40540W        W 2071  17.717  20.028  12.492
40541W        W 2072  29.098  11.797   4.698
40542W        W 2073  38.916   4.698  13.012
40543W        W 2074  31.035  14.588  11.125
40544W        W 2075  41.988  29.035   2.832
40545W        W 2076  13.811  28.952  11.483
40546W        W 2077  24.691   9.368  11.994
40547W        W 2078  10.268  28.551   0.310
40548W        W 2079  28.154  16.200  11.981
40549W        W 2080  30.469   6.851   2.222
40550W        W 2081  13.833  34.538  12.869
40551W        W 2082  32.536   8.296   5.212
40552W        W 2083  37.927  20.599   0.885
40553W        W 2084   3.822  31.069  11.386
40554W        W 2085  10.172  36.876   1.300
40555W        W 2086  19.753  27.582  14.944
40556W        W 2087  21.112  44.420  12.537
40557W        W 2088  12.173  44.881   0.733
40558W        W 2089  18.170  17.767   0.437
40559W        W 2090  36.000  42.334   1.307
40560W        W 2091  34.918  30.598  11.949
40561W        W 2092  36.542  13.830  10.099
40562W        W 2093   0.989  17.695   0.805
40563W        W 2094  23.639  29.605  12.981
40564W        W 2095   5.787   5.196   4.708
40565W        W 2096  24.136  42.322  12.481
40566W        W 2097  37.538  37.390   5.137
40567W        W 2098  14.654  39.477  14.947
40568W        W 2099  28.062  23.601   2.350
40569W        W 2100  11.732  12.157   3.281
40570W        W 2101  41.430  17.255   3.349
40571W        W 2102   4.728  24.524  11.419
40572W        W 2103  34.028  31.630   4.762
40573W        W 2104  18.727  15.701  14.382
40574W        W 2105  24.575  26.589  13.459
40575W        W 2106  24.539  34.405   2.700
40576W        W 2107  22.028  40.810   3.379
40577W        W 2108   3.419  23.043  14.476
40578W        W 2109  22.568  29.514  13.942
40579W        W 2110   9.246  16.283  11.373
40580W        W 2111  27.502  33.462   4.641
40581W        W 2112  31.972   9.381  13.800
40582W        W 2113  12.825  19.642  14.981
40583W        W 2114  41.989  23.516  11.914
40584W        W 2115  29.149  37.001   3.228
40585W        W 2116  39.915   6.224  11.938
40586W        W 2117  22.009  42.922   5.254
40587W        W 2118  40.834   6.887  10.954
40588W        W 2119  11.815  28.548   3.767
40589W        W 2120  37.565  39.944  11.905
40590W        W 2121  32.910   7.409  14.339
40591W        W 2122  32.964  29.942   2.314
40592W        W 2123  12.711   5.396   0.953
40593W        W 2124  36.917  17.568  10.403
40594W        W 2125  34.537  41.038   1.747
40595W        W 2126  24.142  10.848  13.855
40596W        W 2127  40.424  37.988  13.449
40597W        W 2128  23.587  39.967  10.971
40598W        W 2129  10.222  32.401   5.270
40599W        W 2130  13.265   4.365   3.823
40600W        W 2131  43.992  23.009  13.335
40601W        W 2132  42.970  42.840   4.313
40602W        W 2133  22.198  41.463  14.992
40603W        W 2134   3.777  17.269   4.744
40604W        W 2135  15.317   2.230  12.924
40605W        W 2136  33.994  23.034  12.953
40606W        W 2137  22.135   7.234   4.150
40607W        W 2138   9.744  22.218  10.587
40608W        W 2139   5.860  38.846   1.878
40609W        W 2140  12.634  23.147   4.777
40610W        W 2141  33.538   9.183   3.363
40611W        W 2142   0.882   0.348  14.364
40612W        W 2143  34.042  17.596   2.334
40613W        W 2144   3.437  20.749  10.468
40614W        W 2145  31.900  38.441   2.229
40615W        W 2146  12.216   6.689  14.948
40616W        W 2147  39.381  34.108   1.805
40617W        W 2148  10.357   0.947  11.561
40618W        W 2149  39.466  10.651   1.378
40619W        W 2150  40.362  24.641   4.146
40620W        W 2151  13.770  39.851  13.341
40621W        W 2152   7.186  41.446  13.037
40622W        W 2153   4.304  21.152  11.958
40623W        W 2154  16.269  21.561  12.439
40624W        W 2155  36.924  42.357  10.599
40625W        W 2156   8.746   4.321  14.339
40626W        W 2157  14.669   8.805  11.473
40627W        W 2158  15.652   0.896  13.492
40628W        W 2159  11.296  34.899   4.798
40629W        W 2160  34.081  38.529   9.626
40630W        W 2161  32.085  21.540   0.284
40631W        W 2162   9.262   7.700  13.504
40632W        W 2163  39.918   1.309   0.913
40633W        W 2164  33.520  18.204   3.685
40634W        W 2165  36.495   2.472  12.030
40635W        W 2166  11.288  10.335  11.574
40636W        W 2167  20.041   1.875   5.197
40637W        W 2168  26.576  43.002   1.849
40638W        W 2169  13.262  36.084  14.388
40639W        W 2170  19.135  20.750   4.757
40640W        W 2171  25.106   9.831  14.289
40641W        W 2172   7.291  15.104   4.749
40642W        W 2173  33.933  37.570   0.756
40643W        W 2174  20.527  18.090  12.920
40644W        W 2175   7.261  10.687  12.998
40645W        W 2176  27.524   8.299  12.989
40646W        W 2177  16.598  13.803  10.416
40647W        W 2178  19.151   2.953   2.878
40648W        W 2179  37.906   0.343   2.689
40649W        W 2180  11.146  37.057   4.219
40650W        W 2181  33.086  18.747   1.300
40651W        W 2182  31.028   8.790  11.514
40652W        W 2183  38.460  32.448   1.373
40653W        W 2184   9.204  42.436   3.257
40654W        W 2185  27.949  30.653  14.791
40655W        W 2186   5.726  28.969  11.047
40656W        W 2187  11.215  44.891   1.719
40657W        W 2188  42.485  16.653   4.794
40658W        W 2189  26.994   2.443  10.929
40659W        W 2190  24.230  14.607   2.741
40660W        W 2191  24.647   8.372   3.310
40661W        W 2192  44.322   4.863  13.379
40662W        W 2193  25.050  23.525   2.835
40663W        W 2194  39.435  37.864  14.891
40664W        W 2195   0.264  38.446  14.887
40665W        W 2196  28.571  40.915   4.643
40666W        W 2197   7.725   7.709   0.403
40667W        W 2198  37.542   6.859   2.241
40668W        W 2199  13.280  12.700   1.343
40669W        W 2200   9.150   1.389  13.996
40670W        W 2201   6.199  40.814   1.397
40671W        W 2202  24.002  11.724  13.379
40672W        W 2203  38.474  18.781  12.421
40673W        W 2204  29.435   0.949   9.976
40674W        W 2205  32.009  20.610   4.669
40675W        W 2206   3.342  19.701   4.156
40676W        W 2207   5.432  25.216  14.473
40677W        W 2208   6.840  27.989   0.934
40678W        W 2209   6.804  39.016  11.028
40679W        W 2210  30.467  37.422  10.149
40680W        W 2211  20.690   3.298   2.701
40681W        W 2212  32.980  40.478  13.429
40682W        W 2213  30.555  32.397   2.846
40683W        W 2214  28.513   2.365  10.952
40684W        W 2215  41.967  14.629  10.889
40685W        W 2216  30.138  21.669   2.855
40686W        W 2217  15.192  34.051   0.319
40687W        W 2218  10.294   0.860   3.313
40688W        W 2219  25.708  11.692   2.271
40689W        W 2220  27.662   6.879   0.870
40690W        W 2221  25.493   6.321   4.252
40691W        W 2222  20.234  23.612  14.016
40692W        W 2223  41.298  20.269  13.326
40693W        W 2224  21.198  38.996   3.348
40694W        W 2225   5.319   1.946   3.184
40695W        W 2226  39.850  29.126   3.172
40696W        W 2227  21.117  28.036   2.278
40697W        W 2228   3.809   5.927  14.493
40698W        W 2229   6.212  21.756   3.852
40699W        W 2230   2.773  42.906   4.727
40700W        W 2231  14.722  18.122  11.091
40701W        W 2232  25.064  37.469   2.196
40702W        W 2233  10.200   1.415  11.556
40703W        W 2234  31.066  40.497   4.306
40704W        W 2235   4.416  35.092  12.933
40705W        W 2236  34.014   2.861   3.739
40706W        W 2237  31.120  42.503   4.250
40707W        W 2238  11.212  31.549   2.242
40708W        W 2239   2.400  41.394  12.867
40709W        W 2240  28.988  41.993   3.860
40710W        W 2241   6.719  12.304  12.474
40711W        W 2242  44.902  16.789   4.210
40712W        W 2243  19.172  21.565  14.995
40713W        W 2244  39.374  44.990   1.818
40714W        W 2245   2.896  26.649   3.692
40715W        W 2246   8.214  38.525  14.332
40716W        W 2247  27.495   4.807   2.406
40717W        W 2248  13.314   0.391   2.284
40718W        W 2249   0.845  25.514   3.694
40719W        W 2250  25.984   0.276   4.830
40720W        W 2251   4.207   5.687   3.306
40721W        W 2252  12.767  41.951  12.465
40722W        W 2253  33.979  26.655  11.916
40723W        W 2254  12.850  42.922  11.957
40724W        W 2255  27.558   9.672  11.374
40725W        W 2256  44.930  34.582   0.358
40726W        W 2257  10.188  27.533   3.224
40727W        W 2258  41.306  15.150  12.344
40728W        W 2259  28.658  22.541  12.375
40729W        W 2260  25.565  22.712   0.834
40730W        W 2261   1.805   1.405   0.941
40731W        W 2262  17.223  24.229  12.492
40732W        W 2263  10.283  17.112  13.055
40733W        W 2264  36.873  11.367   2.389
40734W        W 2265  40.324  21.706  12.823
40735W        W 2266   8.253  10.210  12.527
40736W        W 2267  27.606  36.091   2.263
40737W        W 2268  36.490  16.754  10.627
40738W        W 2269  22.093  10.335   2.831
40739W        W 2270  21.035  13.303   1.444
40740W        W 2271  31.948  33.598  14.472
40741W        W 2272  26.457  21.139   0.289
40742W        W 2273  18.549  13.783   1.450
40743W        W 2274  14.299   6.286   2.833
40744W        W 2275  17.652  19.275  14.504
40745W        W 2276   1.964  17.198   0.928
40746W        W 2277  14.322  19.045  13.954
40747W        W 2278  31.440   9.689   0.788
40748W        W 2279  42.477   1.449  10.983
40749W        W 2280  28.437  41.434   0.273
40750W        W 2281  11.254  32.491   3.353
40751W        W 2282   6.703  13.631  10.944
40752W        W 2283  22.230   3.375  12.369
40753W        W 2284  20.697  42.943  13.864
40754W        W 2285  27.191  43.946   4.700
40755W        W 2286  10.158   7.862  11.857
40756W        W 2287  16.143  44.355   0.913
40757W        W 2288  35.573  28.034   2.896
40758W        W 2289  16.670  40.468   2.873
40759W        W 2290  25.090  32.079   5.278
40760W        W 2291   4.741  26.520   4.120
40761W        W 2292   9.186  44.977   5.096
40762W        W 2293  29.103   8.344  11.605
40763W        W 2294  43.868  29.965  10.559
40764W        W 2295   6.726  37.072   2.681
40765W        W 2296  42.881  35.501  12.459
40766W        W 2297  33.385  43.272  12.400
40767W        W 2298  33.471   7.265   0.857
40768W        W 2299   7.803  25.579   4.292
40769W        W 2300  35.002  22.542   1.759
40770W        W 2301  37.071  15.749  14.845
40771W        W 2302  30.113   5.869  10.482
40772W        W 2303  32.581  13.125   1.897
40773W        W 2304  17.082  16.639   0.965
40774W        W 2305  26.553  20.634  10.533
40775W        W 2306  13.335  36.438   1.885
40776W        W 2307  43.409   9.814  13.899
40777W        W 2308  33.625  23.137   3.772
40778W        W 2309  11.225  34.532  14.888
40779W        W 2310  21.053  10.878   2.396
40780W        W 2311  37.024  41.827   4.602
40781W        W 2312  22.246  24.550  11.961
40782W        W 2313  41.405  30.629   3.331
40783W        W 2314  11.283  14.630   2.818
40784W        W 2315  38.938  32.578  11.532
40785W        W 2316  36.505  44.366   3.631
40786W        W 2317  26.515  38.452   1.717
40787W        W 2318  24.063  27.645  13.992
40788W        W 2319  14.149  36.099  13.495
40789W        W 2320  35.912  29.106   2.839
40790W        W 2321   5.920  24.199  12.404
40791W        W 2322  29.143  15.292   2.744
40792W        W 2323  19.571  41.524   0.806
40793W        W 2324  15.276  39.528  12.837
40794W        W 2325  27.121  42.033  10.599
40795W        W 2326  25.136  21.658  14.276
40796W        W 2327  38.421   9.214   5.597
40797W        W 2328   5.343   4.229   3.797
40798W        W 2329  11.192  10.670  10.518
40799W        W 2330   5.196  43.958   2.758
40800W        W 2331  42.487  30.149   1.716
40801W        W 2332  16.571  39.481  11.119
40802W        W 2333  19.135   8.331  12.351
40803W        W 2334   5.265  37.380  11.445
40804W        W 2335  18.105  25.161   0.792
40805W        W 2336   2.338  23.083   1.858
40806W        W 2337  15.270  10.356   1.430
40807W        W 2338  20.126  44.434  12.486
40808W        W 2339  43.442  44.484   0.873
40809W        W 2340  37.019  14.147  14.985
40810W        W 2341  31.528   9.762  14.403
40811W        W 2342  41.819  35.878  12.389
40812W        W 2343  40.991  33.123   2.833
40813W        W 2344  14.813  28.986  13.490
40814W        W 2345  42.862  19.247   2.405
40815W        W 2346  27.113  29.504  12.551
40816W        W 2347  28.181  16.221  10.994
40817W        W 2348  24.585  11.182   1.920
40818W        W 2349  14.270  42.977  12.829
40819W        W 2350   6.257  20.760  13.045
40820W        W 2351  44.302  44.402   2.299
40821W        W 2352  21.667  15.151  11.031
40822W        W 2353  38.869   6.900  10.965
40823W        W 2354   0.380  25.138  11.552
40824W        W 2355  31.022  39.451   4.208
40825W        W 2356  16.126  33.551   4.601
40826W        W 2357  38.932  44.359   2.772
40827W        W 2358  30.563   3.217  10.074
40828W        W 2359  28.015   9.756   1.859
40829W        W 2360   1.282   8.318  12.862
40830W        W 2361  19.773  10.314   4.143
40831W        W 2362  32.018  25.517   1.425
40832W        W 2363   7.854   4.218  10.138
40833W        W 2364  34.465  37.490   0.473
40834W        W 2365  34.078  35.866   2.363
40835W        W 2366  12.133  14.261   2.790
40836W        W 2367  21.249   2.955  11.408
40837W        W 2368   0.310  25.170   0.950
40838W        W 2369   7.377  16.607  10.437
40839W        W 2370   6.880  19.734  13.535
40840W        W 2371  31.130  38.012   2.663
40841W        W 2372  27.461   4.823   1.342
40842W        W 2373  24.579  31.582   2.383
40843W        W 2374  26.490  22.725  12.562
40844W        W 2375  29.971  10.206  12.022
40845W        W 2376  21.058  12.334   3.794
40846W        W 2377  39.437  40.392  12.393
40847W        W 2378  37.899  23.616   3.192
40848W        W 2379  39.889  26.172   2.704
40849W        W 2380   6.278  42.894  11.092
40850W        W 2381  23.194  28.014   4.668
40851W        W 2382  28.674  13.125   1.270
40852W        W 2383  32.022  26.018  10.981
40853W        W 2384  21.733  25.982  12.477
40854W        W 2385  36.487  22.675  14.957
40855W        W 2386  12.243   2.965  12.887
40856W        W 2387  12.152  41.996  11.536
40857W        W 2388  25.992  44.380  14.784
40858W        W 2389  22.660  34.966   3.341
40859W        W 2390  13.232  32.437   1.262
40860W        W 2391  10.280  44.496   0.950
40861W        W 2392  32.406  25.042   4.815
40862W        W 2393  23.097  31.607   2.862
40863W        W 2394   9.336  41.492   2.814
40864W        W 2395  22.181  18.672   0.860
40865W        W 2396   8.888  11.834   1.796
40866W        W 2397  15.144  24.672  12.082
40867W        W 2398   2.931   3.371  13.414
40868W        W 2399  12.147  22.139  11.938
40869W        W 2400  25.123  19.254  14.374
40870W        W 2401  28.064  38.434  13.860
40871W        W 2402  38.356  13.326   3.174
40872W        W 2403   8.378  41.322  14.280
40873W        W 2404  19.185  14.287  11.128
40874W        W 2405  44.374  25.577   2.847
40875W        W 2406  33.609   0.440   1.903
40876W        W 2407  32.138   1.777   0.251
40877W        W 2408  36.469  10.792  12.435
40878W        W 2409  40.014   6.270   2.895
40879W        W 2410  16.717  15.132  12.459
40880W        W 2411   0.966  11.264  11.585
40881W        W 2412  28.988  21.587   0.768
40882W        W 2413  12.270   5.433  13.913
40883W        W 2414  41.036  11.743   2.267
40884W        W 2415  19.637  30.569  14.951
40885W        W 2416  25.962   3.405  10.459
40886W        W 2417  40.844   8.867   0.843
40887W        W 2418   4.938  43.911   4.597
40888W        W 2419  35.987   9.760  14.281
40889W        W 2420  22.061   5.805   4.253
40890W        W 2421  31.487  15.230  13.031
40891W        W 2422  13.668  40.001  11.455
40892W        W 2423  11.674  30.147   3.804
40893W        W 2424  34.434  36.355   4.811
40894W        W 2425  18.744  32.524  11.465
40895W        W 2426  39.996   6.194  10.624
40896W        W 2427  35.055   6.186   0.958
40897W        W 2428  38.366  24.538   1.372
40898W        W 2429  30.065   0.971  11.572
40899W        W 2430  28.135  15.287  13.374
40900W        W 2431   3.870  12.747  12.884
40901W        W 2432  30.145  12.194  11.931
40902W        W 2433  17.067  14.613   4.834
40903W        W 2434   0.930  26.186   1.444
40904W        W 2435   5.888   6.265   1.220
40905W        W 2436  10.255  26.057  14.020
40906W        W 2437   9.740  43.872  11.565
40907W        W 2438   3.459  32.465  11.488
40908W        W 2439  24.518  32.515  12.377
40909W        W 2440  21.102  11.314   0.277
40910W        W 2441  26.692  43.800  12.833
40911W        W 2442  12.665  25.107   1.883
40912W        W 2443  35.927  33.984  10.904
40913W        W 2444  41.870  14.337  10.421
40914W        W 2445  30.955  44.982  11.448
40915W        W 2446   1.286   4.313  12.064
40916W        W 2447  41.526  29.002   3.161
40917W        W 2448  30.029  17.230   0.262
40918W        W 2449   3.830  14.780   0.407
40919W        W 2450  43.311   1.337  11.065
40920W        W 2451   2.432  43.962  11.009
40921W        W 2452  34.911  24.622   1.886
40922W        W 2453  44.874  44.476   1.789
40923W        W 2454   3.421  33.622  13.474
40924W        W 2455  20.213   2.263  13.478
40925W        W 2456  29.640  34.916   0.325
40926W        W 2457  13.340  32.484  14.356
40927W        W 2458  14.703  10.701   3.845
40928W        W 2459  21.741  39.995  12.446
40929W        W 2460   5.898  39.518   2.397
40930W        W 2461   5.372  21.512  13.938
40931W        W 2462  38.956  17.303  11.020
40932W        W 2463  29.629  27.677   3.862
40933W        W 2464  25.072  15.131  13.429
40934W        W 2465  34.082  31.043  12.455
40935W        W 2466  35.946  15.206  11.606
40936W        W 2467  11.632   1.348  11.395
40937W        W 2468  34.541   7.413  12.042
40938W        W 2469  43.956  41.801   3.822
40939W        W 2470   8.869  23.709   3.318
40940W        W 2471  15.667  17.240  11.553
40941W        W 2472   7.174  36.924  11.077
40942W        W 2473  20.040  31.594  11.596
40943W        W 2474  26.974   5.439   4.629
40944W        W 2475  39.373  43.398  13.448
40945W        W 2476  37.882  38.523  11.856
40946W        W 2477   1.471  25.503   2.704
40947W        W 2478  16.691   8.861   2.855
40948W        W 2479  32.554  27.153  12.921
40949W        W 2480   1.975  31.467   3.268
40950W        W 2481   2.790  25.533   3.367
40951W        W 2482  29.133  42.867   1.334
40952W        W 2483  26.181  32.468   4.248
40953W        W 2484  31.493  10.772  11.444
40954W        W 2485   3.867  35.359   3.864
40955W        W 2486  24.673  13.702   0.456
40956W        W 2487  20.731  43.992   3.695
40957W        W 2488   8.358   3.404   4.716
40958W        W 2489  33.974  16.725  12.564
40959W        W 2490  36.025   3.772  14.798
40960W        W 2491  33.499  39.890  10.626
40961W        W 2492   8.190  10.321   1.882
40962W        W 2493  25.195  18.636  14.906
40963W        W 2494  24.628  28.529   3.274
40964W        W 2495  10.335  25.597  14.382
40965W        W 2496  35.994  31.087  14.883
40966W        W 2497   7.888  13.677  13.377
40967W        W 2498   0.312  30.108   4.639
40968W        W 2499   8.879  12.810  10.526
40969W        W 2500   2.465   6.191  11.913
40970W        W 2501  41.452  24.113   0.937
40971W        W 2502  35.464  11.823   1.908
40972W        W 2503   1.769   3.308  10.984
40973W        W 2504   9.801  37.931   0.289
40974W        W 2505  11.705  25.108  10.026
40975W        W 2506  33.105   8.228  11.110
40976W        W 2507  41.417   2.369  14.884
40977W        W 2508  43.789  14.775   1.347
40978W        W 2509   3.239   9.182  13.470
40979W        W 2510  13.323  17.640  12.004
40980W        W 2511  24.996  21.244  11.389
40981W        W 2512  17.215  44.875  14.295
40982W        W 2513  14.279  31.035  14.802
40983W        W 2514   0.965   6.266  13.959
40984W        W 2515  28.111  20.172   3.150
40985W        W 2516  26.006  25.541   1.243
40986W        W 2517  43.980  15.210  13.000
40987W        W 2518  41.527  39.945   1.335
40988W        W 2519   5.361  15.211  10.586
40989W        W 2520   7.701  31.575  14.988
40990W        W 2521  19.128   5.355   3.795
40991W        W 2522  16.104  33.590  12.906
40992W        W 2523  13.256  42.010  13.369
40993W        W 2524  42.371  35.388  13.364
40994W        W 2525  26.527   5.401   1.316
40995W        W 2526  11.172  24.488   2.893
40996W        W 2527  29.581  35.396  11.377
40997W        W 2528  39.387  34.876   1.721
40998W        W 2529  33.907  23.646  13.495
40999W        W 2530  32.992  18.057   4.785
41000W        W 2531  28.934  32.498   3.869
41001W        W 2532  33.582  39.554   0.327
41002W        W 2533  36.481  32.431  12.523
41003W        W 2534  37.049  32.628   0.376
41004W        W 2535  42.391  42.418   3.630
41005W        W 2536  26.016  11.684  12.529
41006W        W 2537  19.132  38.549   1.848
41007W        W 2538  36.435  24.492  13.405
41008W        W 2539   3.859  12.316  10.452
41009W        W 2540  20.710  23.214   2.772
41010W        W 2541  10.741  11.652  14.298
41011W        W 2542  33.023  31.420  14.326
41012W        W 2543  10.822  25.612  11.121
41013W        W 2544  16.567  15.653   2.726
41014W        W 2545  40.412  25.023   3.818
41015W        W 2546   8.221  13.114   3.761
41016W        W 2547  26.680  14.698   4.335
41017W        W 2548   8.294  12.822   3.210
41018W        W 2549  15.635  23.583   5.758
41019W        W 2550  27.024  12.689  14.843
41020W        W 2551   5.745  19.156  13.011
41021W        W 2552  15.772  33.440   2.401
41022W        W 2553  13.193  18.248  14.960
41023W        W 2554  20.135  14.288   0.878
41024W        W 2555  10.826  24.134   2.357
41025W        W 2556  39.857  32.930   1.393
41026W        W 2557   2.837  23.190   0.353
41027W        W 2558   2.297  15.735   0.844
41028W        W 2559   9.242  33.594  12.446
41029W        W 2560   7.299  37.581   3.832
41030W        W 2561  32.002  44.491   2.253
41031W        W 2562   0.893   2.358   3.712
41032W        W 2563  43.406  27.014   1.896
41033W        W 2564  13.682  22.658   4.661
41034W        W 2565  33.039  29.534  12.033
41035W        W 2566  20.675  36.414   5.163
41036W        W 2567   6.386  21.227   3.857
41037W        W 2568  39.993  28.162  10.522
41038W        W 2569  22.721  15.730   4.828
41039W        W 2570  18.176  22.734  11.515
41040W        W 2571  43.915  36.554   3.831
41041W        W 2572  32.614  30.140   4.204
41042W        W 2573  29.097   9.377   0.890
41043W        W 2574  24.127  28.167   4.602
41044W        W 2575   0.475  37.064  14.309
41045W        W 2576   3.747  37.417   1.368
41046W        W 2577  16.730  18.726  12.867
41047W        W 2578  29.599   4.262  12.051
41048W        W 2579  37.428  12.119   2.722
41049W        W 2580  21.114  17.712  14.377
41050W        W 2581  28.952  25.022  11.004
41051W        W 2582  25.695  18.761   3.264
41052W        W 2583   3.944   0.793   2.764
41053W        W 2584  43.477  29.518   1.273
41054W        W 2585  25.600   3.719  12.994
41055W        W 2586   6.313  12.623  12.492
41056W        W 2587  14.213   5.808  10.968
41057W        W 2588  28.944  36.888   1.231
41058W        W 2589  28.064  40.306  10.404
41059W        W 2590  36.880  15.163   3.294
41060W        W 2591   0.932  36.863  10.626
41061W        W 2592  12.175  32.095   0.910
41062W        W 2593  29.159  23.227  11.086
41063W        W 2594  34.607   9.672   4.728
41064W        W 2595  27.639   1.453  12.436
41065W        W 2596  21.729  32.111   9.619
41066W        W 2597  19.670  31.920   2.391
41067W        W 2598  38.459  33.016  11.956
41068W        W 2599  41.487  44.809  10.970
41069W        W 2600   9.691   9.169  13.338
41070W        W 2601  43.990  35.861  14.026
41071W        W 2602  13.753  24.191  14.875
41072W        W 2603   4.429  29.039  11.902
41073W        W 2604  23.002  28.561  12.445
41074W        W 2605  20.112  14.333   1.770
41075W        W 2606  42.946  15.807   0.266
41076W        W 2607  19.623   9.363  12.927
41077W        W 2608  22.702  17.785  14.473
41078W        W 2609   2.258   2.227  13.976
41079W        W 2610  23.225  38.499  12.424
41080W        W 2611  22.236  17.279  14.979
41081W        W 2612  14.811  13.796  12.952
41082W        W 2613   9.762   9.224  10.405
41083W        W 2614  24.689  26.962   4.834
41084W        W 2615   9.236  12.117  13.328
41085W        W 2616  26.962  20.623  13.858
41086W        W 2617  36.541  10.660  11.598
41087W        W 2618  35.424   4.776  10.998
41088W        W 2619  13.122  34.097  12.033
41089W        W 2620  16.202  23.638   3.690
41090W        W 2621   9.718  23.001   2.224
41091W        W 2622   7.862   1.272   1.290
41092W        W 2623  17.089   3.311  12.887
41093W        W 2624  20.176  27.165   4.739
41094W        W 2625  14.230  34.992  11.451
41095W        W 2626  41.833  41.972   0.406
41096W        W 2627  29.940  26.541   1.818
41097W        W 2628  24.045   4.729  12.549
41098W        W 2629  13.303   3.433   1.399
41099W        W 2630   3.277   7.208  14.873
41100W        W 2631  39.046  26.171   2.852
41101W        W 2632   9.648  18.790   1.869
41102W        W 2633  21.741  12.312  10.620
41103W        W 2634  27.551   3.257  12.491
41104W        W 2635  32.525  32.477   0.448
41105W        W 2636  10.791   6.814  14.481
41106W        W 2637  34.944  25.616   1.359
41107W        W 2638  30.929   3.774   2.874
41108W        W 2639  21.628  29.607  13.490
41109W        W 2640  21.664  31.638   3.167
41110W        W 2641  33.083  26.570  14.910
41111W        W 2642  24.088  14.650  10.492
41112W        W 2643  19.718  37.526  14.787
41113W        W 2644  17.742  13.824  12.579
41114W        W 2645  21.700  10.280  11.008
41115W        W 2646  35.481  26.156   3.688
41116W        W 2647   3.402  33.460   4.660
41117W        W 2648  44.796   8.247  12.345
41118W        W 2649   0.786  38.821   0.956
41119W        W 2650  28.535  32.951   1.913
41120W        W 2651   7.838   7.745   3.771
41121W        W 2652  21.233  10.161  13.815
41122W        W 2653  44.291  25.187  13.408
41123W        W 2654   1.265  17.676   2.357
41124W        W 2655  22.512   8.693  12.537
41125W        W 2656   1.364  25.564  12.443
41126W        W 2657  17.263   5.929  13.415
41127W        W 2658   3.339  30.644   0.425
41128W        W 2659   8.667  23.014   4.793
41129W        W 2660   0.476  14.255   4.691
41130W        W 2661  42.379   1.873   0.812
41131W        W 2662  22.624  41.787   3.714
41132W        W 2663  18.098  34.006  10.957
41133W        W 2664   1.409  26.023   1.732
41134W        W 2665  25.112  33.623   4.640
41135W        W 2666  26.686  31.096  13.324
41136W        W 2667   8.775  18.677   4.202
41137W        W 2668  17.617  29.945  12.405
41138W        W 2669   0.917   8.294  11.994
41139W        W 2670   9.778   0.964   3.810
41140W        W 2671  18.106  19.620   2.294
41141W        W 2672   0.448  40.857  11.371
41142W        W 2673  35.044   4.851   0.886
41143W        W 2674   8.750  37.948  11.901
41144W        W 2675   8.809  42.493  11.035
41145W        W 2676  36.571   2.834   2.337
41146W        W 2677  44.351   8.826   3.162
41147W        W 2678   8.349  28.019   2.218
41148W        W 2679  42.929  32.396   1.713
41149W        W 2680  34.435  14.713  11.401
41150W        W 2681   3.400  22.588  11.912
41151W        W 2682  26.674  12.715  11.996
41152W        W 2683  19.059  18.053   4.285
41153W        W 2684  15.084  38.491   3.237
41154W        W 2685  29.540  28.465   4.179
41155W        W 2686  14.706  23.088  10.427
41156W        W 2687  30.592  22.552  11.416
41157W        W 2688  29.937   7.778   1.921
41158W        W 2689  26.667  38.884  11.873
41159W        W 2690  26.666  36.012  12.841
41160W        W 2691  12.173   4.905  10.579
41161W        W 2692  17.708  39.838  13.313
41162W        W 2693  35.877  25.695   4.818
41163W        W 2694  25.484  26.981  13.853
41164W        W 2695   7.183  20.666  11.559
41165W        W 2696  31.014   6.376  12.347
41166W        W 2697  11.727  23.067  13.822
41167W        W 2698  33.112  42.504  10.896
41168W        W 2699   8.262  42.352  14.001
41169W        W 2700   3.932  25.592   2.890
41170W        W 2701  39.393  26.115  14.019
41171W        W 2702  36.849  16.783   0.802
41172W        W 2703  31.635  42.897  13.534
41173W        W 2704  21.149  29.595  13.868
41174W        W 2705  36.946  28.569  11.410
41175W        W 2706  40.980  31.980   0.353
41176W        W 2707  36.384  24.152   3.289
41177W        W 2708  41.382   7.320   4.804
41178W        W 2709  27.174  29.065  14.940
41179W        W 2710  29.603  44.328  13.957
41180W        W 2711   3.369   4.840   3.318
41181W        W 2712  14.831  22.232   0.352
41182W        W 2713  32.122  15.590  14.839
41183W        W 2714  32.004  16.668   0.327
41184W        W 2715  32.627  25.706   4.684
41185W        W 2716  27.655  43.988   2.334
41186W        W 2717  24.686  40.450  10.639
41187W        W 2718  27.150  25.985   3.771
41188W        W 2719  12.202  12.255   1.837
41189W        W 2720  42.917  44.311   2.413
41190W        W 2721  42.026   5.766  13.512
41191W        W 2722  16.759  13.723   0.838
41192W        W 2723  37.009  18.770  14.487
41193W        W 2724   3.326  16.741  13.862
41194W        W 2725  39.937   5.882   1.899
41195W        W 2726  22.008  38.848   1.874
41196W        W 2727  29.589  25.557  13.326
41197W        W 2728  44.305   6.695   0.254
41198W        W 2729  42.322  18.735   2.237
41199W        W 2730  28.536   6.824  11.606
41200W        W 2731   6.386  41.043   3.284
41201W        W 2732  33.084  43.767  14.871
41202W        W 2733  39.453  29.174   1.439
41203W        W 2734  28.185   7.672   9.657
41204W        W 2735   4.923   5.826  11.886
41205W        W 2736  30.460  35.006  14.979
41206W        W 2737   7.900  15.308  12.346
41207W        W 2738   4.841  26.078   4.200
41208W        W 2739   1.839  36.913   2.748
41209W        W 2740  40.903  34.082   1.425
41210W        W 2741  12.831   6.903  12.047
41211W        W 2742  26.498  37.086  13.879
41212W        W 2743  23.723   4.713  12.965
41213W        W 2744  16.619  27.644   3.381
41214W        W 2745  32.568  28.997  12.845
41215W        W 2746  31.510  31.591   0.776
41216W        W 2747  30.433  34.033   1.223
41217W        W 2748  44.768  23.229  11.421
41218W        W 2749  25.495  25.654   3.861
41219W        W 2750  33.482  19.543  11.904
41220W        W 2751   5.688  21.202   2.809
41221W        W 2752  42.032  27.036   1.877
41222W        W 2753  11.831  42.794  10.580
41223W        W 2754  13.182   5.422   3.709
41224W        W 2755  16.749  35.985  10.427
41225W        W 2756  10.780  14.740   0.931
41226W        W 2757  21.715  41.409   4.639
41227W        W 2758  15.711  34.919   4.676
41228W        W 2759  11.300  19.102   3.225
41229W        W 2760  25.496   0.968  12.948
41230W        W 2761  15.105  19.736   3.761
41231W        W 2762  36.504   7.312  10.107
41232W        W 2763  25.601  36.972   0.902
41233W        W 2764   4.321  20.526   1.918
41234W        W 2765  15.790  32.974   3.809
41235W        W 2766  44.419  17.765   3.322
41236W        W 2767  29.551  24.551  12.090
41237W        W 2768  27.141  22.703   9.993
41238W        W 2769  22.538  36.404   1.788
41239W        W 2770  41.027  11.180  10.631
41240W        W 2771  37.000  19.602  10.408
41241W        W 2772   8.224   4.919  11.580
41242W        W 2773   9.846  39.419   1.820
41243W        W 2774  26.061  27.946  12.837
41244W        W 2775  15.105   3.398  14.809
41245W        W 2776  37.880  36.951   1.700
41246W        W 2777  17.727  20.130  11.029
41247W        W 2778  16.143   6.370  14.429
41248W        W 2779  29.637  32.963   2.250
41249W        W 2780   9.783  31.439   1.926
41250W        W 2781   6.293  15.625  13.831
41251W        W 2782  28.542   4.328  11.572
41252W        W 2783  41.893  30.017   2.708
41253W        W 2784  42.021  18.224  10.964
41254W        W 2785  41.323  14.103  14.440
41255W        W 2786  44.443  20.117   3.289
41256W        W 2787   8.729  41.377   0.904
41257W        W 2788  24.024  37.933  14.825
41258W        W 2789  11.327  20.059   3.823
41259W        W 2790  35.540  32.490   3.778
41260W        W 2791   8.243  23.170  13.907
41261W        W 2792   1.864  18.560  12.859
41262W        W 2793  17.610  13.241  10.953
41263W        W 2794  34.976  36.893   5.582
41264W        W 2795  12.854  17.727  14.492
41265W        W 2796  35.907  19.153   4.684
41266W        W 2797  39.350  26.617  11.116
41267W        W 2798   0.425  44.290  14.918
41268W        W 2799   1.930  38.834  13.901
41269W        W 2800  25.044  36.965  14.010
41270W        W 2801  13.191   6.680   4.681
41271W        W 2802   9.877   0.767  10.091
41272W        W 2803  31.009  25.109  14.397
41273W        W 2804  44.260  26.519   1.398
41274W        W 2805  36.419  29.429   2.302
41275W        W 2806   8.824  43.007  11.457
41276W        W 2807  13.667  44.836  10.603
41277W        W 2808  35.555  31.095   2.340
41278W        W 2809  38.375   4.719   2.355
41279W        W 2810  37.416  11.266   2.901
41280W        W 2811  13.124  38.850  14.276
41281W        W 2812  15.763  33.960  12.464
41282W        W 2813   9.772  41.030  14.494
41283W        W 2814   6.197  24.667   4.653
41284W        W 2815   8.789  21.171   3.670
41285W        W 2816  10.687  41.341  12.012
41286W        W 2817  19.085   3.248  12.421
41287W        W 2818  14.820  44.902  13.853
41288W        W 2819  23.694  38.567  12.971
41289W        W 2820   2.294   3.715  11.587
41290W        W 2821  10.247  12.781   5.097
41291W        W 2822  22.205   0.269   4.348
41292W        W 2823  33.383  31.603   1.867
41293W        W 2824  11.196  37.959   3.332
41294W        W 2825  14.251  28.073   0.340
41295W        W 2826  34.935  41.990   3.213
41296W        W 2827  42.287  10.727   0.312
41297W        W 2828  21.616  16.577   0.882
41298W        W 2829  32.902  42.840   2.264
41299W        W 2830  28.656   1.976  14.300
41300W        W 2831  40.967  37.353  11.557
41301W        W 2832  38.052  21.210  13.015
41302W        W 2833  31.124   4.725   2.249
41303W        W 2834  41.517  12.217  10.977
41304W        W 2835  40.961  40.384  13.911
41305W        W 2836  10.266  37.011  11.128
41306W        W 2837  43.897  34.015  12.386
41307W        W 2838  39.843  30.011   0.428
41308W        W 2839  40.455  15.121   3.276
41309W        W 2840   6.291  23.079   1.828
41310W        W 2841  13.283  39.480   2.395
41311W        W 2842  11.178   7.738  11.484
41312W        W 2843  10.683  21.550  11.530
41313W        W 2844  19.620  23.627   1.840
41314W        W 2845  16.292  28.078   2.815
41315W        W 2846  15.232   3.754  12.359
41316W        W 2847   8.889  35.082   2.669
41317W        W 2848   6.296   7.682  14.345
41318W        W 2849  22.734  42.834   2.719
41319W        W 2850  34.110   3.270   5.226
41320W        W 2851  32.047  26.988   1.784
41321W        W 2852  10.369  44.814   9.651
41322W        W 2853  22.027  21.179   2.313
41323W        W 2854  40.832  42.877   3.685
41324W        W 2855  28.576  35.889  11.503
41325W        W 2856  28.461  25.612  12.351
41326W        W 2857  23.106  29.508   5.236
41327W        W 2858  26.640   4.264  13.881
41328W        W 2859  19.567  21.729   1.902
41329W        W 2860  39.847   7.303   3.675
41330W        W 2861  20.110   5.809  13.374
41331W        W 2862  14.279  21.686  14.941
41332W        W 2863  34.595  31.608  14.511
41333W        W 2864  11.347  31.582  14.311
41334W        W 2865  34.561  35.019  11.550
41335W        W 2866  25.538  19.219  12.968
41336W        W 2867  31.410  28.488   3.677
41337W        W 2868   1.806  10.856  14.779
41338W        W 2869  41.451  17.784  11.415
41339W        W 2870   4.912  33.047   4.289
41340W        W 2871  31.463  34.003   0.305
41341W        W 2872  18.232  43.467  14.785
41342W        W 2873  12.798  18.648   0.933
41343W        W 2874  38.466  34.583   1.368
41344W        W 2875  10.675  10.161   1.713
41345W        W 2876   8.270  42.463  13.030
41346W        W 2877  18.183  18.725  13.977
41347W        W 2878  25.036   0.868  10.443
41348W        W 2879  16.576  13.236  13.390
41349W        W 2880  22.716  17.297   3.201
41350W        W 2881   4.219  31.061   0.865
41351W        W 2882  31.961   2.905  10.626
41352W        W 2883   3.867  41.928   3.682
41353W        W 2884  37.884  32.062  12.065
41354W        W 2885   0.419   4.411   0.892
41355W        W 2886  27.059  28.929  12.434
41356W        W 2887   3.322  40.008  13.021
41357W        W 2888   2.454   3.871   3.850
41358W        W 2889   5.276  33.886  12.905
41359W        W 2890  28.095  30.643  11.114
41360W        W 2891  22.566   5.849  13.947
41361W        W 2892   6.876   0.891  10.969
41362W        W 2893  16.624  16.751   0.394
41363W        W 2894  26.184  40.895   1.384
41364W        W 2895  13.627   6.369  13.547
41365W        W 2896   4.290  27.052   0.926
41366W        W 2897  32.928  22.024   1.399
41367W        W 2898  26.536   9.150  13.478
41368W        W 2899  38.076  25.109  10.590
41369W        W 2900  20.151  40.516   1.213
41370W        W 2901   2.395  12.193   3.692
41371W        W 2902  36.912  14.791  13.851
41372W        W 2903  16.583   5.808  13.858
41373W        W 2904  35.038  31.989  13.894
41374W        W 2905  43.286  11.717  10.558
41375W        W 2906  18.701   6.365  12.911
41376W        W 2907  15.084   2.953   2.382
41377W        W 2908   6.387  37.051   0.244
41378W        W 2909   1.338  29.641  10.889
41379W        W 2910  40.501  34.543  13.408
41380W        W 2911   4.767  13.627   0.408
41381W        W 2912  40.001   8.220   1.749
41382W        W 2913  34.570   7.350   2.786
41383W        W 2914  24.080  35.373  12.562
41384W        W 2915  31.091   4.785   1.903
41385W        W 2916  33.610  18.699  11.557
41386W        W 2917  38.037  26.024  11.942
41387W        W 2918  29.556  27.536  10.447
41388W        W 2919  22.224  41.847  10.505
41389W        W 2920  33.088  27.187  10.618
41390W        W 2921  29.979  31.410  14.503
41391W        W 2922  27.449   0.454  14.876
41392W        W 2923   5.751  31.618  10.570
41393W        W 2924  24.227  11.801   3.320
41394W        W 2925  33.491   6.828   1.871
41395W        W 2926  44.401  33.422  10.984
41396W        W 2927  12.712  34.512  12.400
41397W        W 2928   3.427   4.856   1.904
41398W        W 2929  34.940  32.614   4.247
41399W        W 2930  44.297  13.209  11.587
41400W        W 2931  24.994  41.888   1.817
41401W        W 2932  10.704   9.171   3.749
41402W        W 2933   6.410  19.277   0.948
41403W        W 2934  28.060  10.806  12.416
41404W        W 2935  12.665  15.601   1.389
41405W        W 2936   6.370   6.826   1.892
41406W        W 2937  11.277  20.549   1.896
41407W        W 2938  41.376   0.896  12.013
41408W        W 2939  20.524  34.543   0.265
41409W        W 2940   3.373   9.299  11.537
41410W        W 2941   6.710  22.071   1.875
41411W        W 2942   5.353  26.690  14.981
41412W        W 2943  19.718  28.099  13.907
41413W        W 2944  10.775  43.869  14.841
41414W        W 2945  26.159  33.504   3.793
41415W        W 2946  23.139   8.163  12.535
41416W        W 2947  40.968  33.075  13.033
41417W        W 2948  10.361  19.277   2.227
41418W        W 2949   7.351  22.680  10.547
41419W        W 2950  22.519  12.612   9.923
41420W        W 2951  26.697   3.799  14.938
41421W        W 2952   4.880  44.425  10.587
41422W        W 2953  26.207  20.620   1.399
41423W        W 2954  42.337   3.293  13.498
41424W        W 2955  19.092   5.792   3.670
41425W        W 2956   1.771   4.369  14.802
41426W        W 2957  41.461  17.570   1.282
41427W        W 2958  12.245  35.003  10.901
41428W        W 2959  22.585  30.419   0.891
41429W        W 2960  31.101  14.250  14.315
41430W        W 2961  40.482  20.627  14.925
41431W        W 2962  40.811  41.349   2.663
41432W        W 2963  29.483  42.890   0.834
41433W        W 2964  40.919  18.734  13.808
41434W        W 2965   2.816  44.474  13.474
41435W        W 2966  40.500   5.265  13.955
41436W        W 2967  12.224  32.985   3.690
41437W        W 2968  30.959  29.443   2.795
41438W        W 2969   1.425  35.020  10.572
41439W        W 2970  43.416  44.301   3.740
41440W        W 2971  41.388  26.979  12.581
41441W        W 2972  33.947  10.276  13.038
41442W        W 2973  11.678   3.269  12.987
41443W        W 2974   0.888  15.601   2.796
41444W        W 2975  12.645  34.589   0.885
41445W        W 2976   7.791  23.216  13.520
41446W        W 2977   4.887   0.330   0.942
41447W        W 2978  20.624  11.829  10.417
41448W        W 2979  11.150  39.493  13.521
41449W        W 2980  25.471  27.609   9.542
41450W        W 2981   5.917  11.844  14.443
41451W        W 2982   8.835  18.772   2.665
41452W        W 2983   6.901  17.232  11.004
41453W        W 2984   7.751  11.662  12.976
41454W        W 2985  24.576  18.585  12.532
41455W        W 2986  42.490  29.170   3.349
41456W        W 2987  31.938  37.343  12.446
41457W        W 2988   6.695  27.658  14.319
41458W        W 2989  42.796  22.536   1.381
41459W        W 2990  15.296  23.053   0.916
41460W        W 2991   4.834  18.728  14.011
41461W        W 2992  36.897  33.625  10.426
41462W        W 2993  37.966  15.821   2.860
41463W        W 2994  31.646  28.159   0.731
41464W        W 2995  38.925  11.650   5.190
41465W        W 2996  18.601   5.285   2.260
41466W        W 2997   2.962  21.709   0.319
41467W        W 2998  15.782   6.382   4.135
41468W        W 2999  30.511  17.282  13.916
41469W        W 3000  17.597  33.538   1.403
41470W        W 3001  35.385   7.729   1.929
41471W        W 3002  31.416   8.259  14.395
41472W        W 3003   3.955  39.321   2.357
41473W        W 3004   8.349  34.081  12.071
41474W        W 3005   3.804  41.349   4.733
41475W        W 3006  39.462   3.266   5.138
41476W        W 3007  16.689  38.569  11.929
41477W        W 3008  29.012   6.286   4.817
41478W        W 3009  32.536   5.323   2.799
41479W        W 3010  38.846  38.497  12.458
41480W        W 3011  31.916  20.038   4.337
41481W        W 3012  43.345  33.021   1.902
41482W        W 3013  16.102  42.473   2.208
41483W        W 3014  23.513  42.918   3.643
41484W        W 3015  22.114   2.761  12.044
41485W        W 3016   3.324   4.291  14.778
41486W        W 3017   7.687  22.224  13.408
41487W        W 3018   3.326  43.391  10.933
41488W        W 3019  21.674  28.056  13.863
41489W        W 3020  11.235  16.767  12.550
41490W        W 3021   0.306  24.629   1.266
41491W        W 3022  34.957  39.501   3.221
41492W        W 3023  18.787  24.009  14.448
41493W        W 3024  33.878  15.664  12.544
41494W        W 3025  40.540  28.631  11.542
41495W        W 3026  21.608   3.290  10.055
41496W        W 3027  33.111  33.588   1.442
41497W        W 3028  35.888  16.309   1.837
41498W        W 3029  35.366  21.256  13.482
41499W        W 3030  12.723  17.732  10.439
41500W        W 3031  23.997  37.543  11.981
41501W        W 3032  42.383  19.181   4.132
41502W        W 3033  13.811   0.884   0.332
41503W        W 3034  12.296   1.329   2.823
41504W        W 3035  26.493   6.871   5.210
41505W        W 3036  34.065   7.867  13.985
41506W        W 3037  38.515  16.105  10.569
41507W        W 3038  32.105   3.710  11.053
41508W        W 3039  40.496  29.086   4.202
41509W        W 3040  34.380   8.778   1.841
41510W        W 3041  21.691   1.414   3.637
41511W        W 3042  34.566   6.219   2.778
41512W        W 3043  42.941  15.592   4.620
41513W        W 3044  20.267  12.681   1.294
41514W        W 3045  28.454  27.670  14.788
41515W        W 3046  22.691   9.759  12.542
41516W        W 3047   1.772  29.434   3.325
41517W        W 3048   4.851  42.840  10.440
41518W        W 3049  15.309  42.792  12.522
41519W        W 3050  34.876  43.393  14.307
41520W        W 3051  33.935  29.148   4.691
41521W        W 3052  31.003  32.492  11.969
41522W        W 3053  27.986   9.381   2.350
41523W        W 3054  26.009  21.091  12.918
41524W        W 3055  35.081  12.177   3.262
41525W        W 3056  12.649   3.282   0.850
41526W        W 3057   7.247  14.167   1.250
41527W        W 3058  14.132  39.410  14.354
41528W        W 3059  24.217  10.733   1.838
41529W        W 3060  27.991  25.656  10.987
41530W        W 3061   5.751  41.886  12.403
41531W        W 3062  43.356  42.399  11.391
41532W        W 3063   3.732  34.576  12.394
41533W        W 3064  22.636  10.670  12.025
41534W        W 3065  40.815  17.584  14.389
41535W        W 3066  31.136  24.585  11.375
41536W        W 3067  44.394  12.201   3.785
41537W        W 3068  35.387  31.931  13.525
41538W        W 3069  28.966  12.644  11.428
41539W        W 3070  28.944  12.248   0.264
41540W        W 3071  37.987   9.846  14.866
41541W        W 3072  26.568  38.508  13.823
41542W        W 3073  34.491  35.905  11.104
41543W        W 3074  25.650   1.807   0.357
41544W        W 3075  25.564   2.375  12.831
41545W        W 3076  21.177  16.216   2.782
41546W        W 3077  35.360  20.205  12.883
41547W        W 3078  26.003  15.664  11.077
41548W        W 3079  29.651  38.947  12.972
41549W        W 3080  27.602  42.954  13.939
41550W        W 3081  29.436   0.424   3.820
41551W        W 3082  35.044  27.975  13.364
41552W        W 3083   4.869  29.429  10.920
41553W        W 3084  19.059  16.734   1.403
41554W        W 3085  15.675  25.000   0.743
41555W        W 3086   6.872  20.735  11.398
41556W        W 3087  17.172  25.218  12.409
41557W        W 3088  14.294  23.692  14.406
41558W        W 3089  31.629  11.645  11.999
41559W        W 3090  33.597  29.669  14.866
41560W        W 3091  16.201   9.879   4.329
41561W        W 3092  17.292   9.281  11.454
41562W        W 3093  20.145   9.195  14.948
41563W        W 3094  44.842  17.735   1.753
41564W        W 3095  17.102  20.742   1.268
41565W        W 3096  33.552  29.937   2.902
41566W        W 3097   8.382   2.450   9.578
41567W        W 3098  28.178  34.924  14.937
41568W        W 3099  34.552  23.685  13.481
41569W        W 3100  44.765  29.114   0.867
41570W        W 3101  37.550  30.093  14.942
41571W        W 3102  19.210   7.702  10.910
41572W        W 3103  10.666  15.578  13.914
41573W        W 3104  27.668  16.799  13.410
41574W        W 3105  39.399  14.601  10.961
41575W        W 3106  22.517  40.037   0.363
41576W        W 3107   8.693   5.868  13.953
41577W        W 3108   2.735  26.979   9.501
41578W        W 3109  11.688  15.177   4.257
41579W        W 3110  44.275  34.902  13.343
41580W        W 3111  40.313  34.608   0.765
41581W        W 3112  40.958   4.325   0.887
41582W        W 3113  44.844  43.354  12.483
41583W        W 3114  30.972  13.142  11.905
41584W        W 3115  32.964  12.765   0.293
41585W        W 3116  37.567   6.743  13.959
41586W        W 3117  16.183  25.617  11.500
41587W        W 3118  12.630  22.639   2.744
41588W        W 3119  27.183  16.226   4.147
41589W        W 3120   2.788  40.307  11.019
41590W        W 3121  26.521  29.585   2.381
41591W        W 3122  43.933   1.318   2.844
41592W        W 3123  34.488  38.952  13.007
41593W        W 3124  38.539  37.533  11.458
41594W        W 3125   4.387  23.038   1.358
41595W        W 3126  38.432  12.837   4.132
41596W        W 3127  20.749  11.221  10.644
41597W        W 3128  23.102  22.133  12.384
41598W        W 3129  19.582  44.397   1.417
41599W        W 3130  28.566   2.240   4.237
41600W        W 3131  35.909  43.309  13.338
41601W        W 3132  17.731  31.496   0.763
41602W        W 3133  11.689  25.158  14.014
41603W        W 3134  24.725  20.077  12.859
41604W        W 3135   3.816  26.981  12.024
41605W        W 3136   7.699  41.397  11.986
41606W        W 3137  36.934  16.214  14.842
41607W        W 3138  41.898  16.310  12.001
41608W        W 3139  21.102  32.611  13.969
41609W        W 3140  23.997  43.513   0.871
41610W        W 3141  35.433  13.678   4.175
41611W        W 3142   1.282  41.324   2.888
41612W        W 3143  16.316   8.386   1.320
41613W        W 3144  18.270  31.619   0.813
41614W        W 3145  29.981  36.898   0.792
41615W        W 3146   9.725  31.422  10.582
41616W        W 3147  42.825  42.452   0.243
41617W        W 3148   0.345  43.817   1.226
41618W        W 3149  38.076  33.002  13.499
41619W        W 3150  25.610  26.503   4.140
41620W        W 3151  42.394  28.022  13.400
41621W        W 3152  17.180  11.349  10.419
41622W        W 3153   5.257  32.902   4.140
41623W        W 3154   6.182   6.400   1.890
41624W        W 3155   5.717  31.462   0.405
41625W        W 3156  40.806  22.529  11.860
41626W        W 3157   4.768  19.196   0.424
41627W        W 3158  15.664  18.083  12.485
41628W        W 3159  43.886   8.259   3.749
41629W        W 3160  40.885   8.664   1.340
41630W        W 3161  39.524  32.959   0.732
41631W        W 3162   4.819  26.477  13.447
41632W        W 3163  20.555  30.657  14.797
41633W        W 3164  37.963  29.091  12.080
41634W        W 3165  42.413  36.862  10.429
41635W        W 3166   5.754  40.019  13.319
41636W        W 3167  10.792  35.541  14.794
41637W        W 3168   0.345  39.435  13.434
41638W        W 3169   2.431  14.303  12.341
41639W        W 3170   3.804   2.307   0.883
41640W        W 3171  37.941  44.884   2.887
41641W        W 3172  13.845  26.169  10.498
41642W        W 3173  12.715  23.114  12.535
41643W        W 3174  26.012  33.448  14.415
41644W        W 3175  31.611  14.809  12.530
41645W        W 3176  37.402  37.410   2.733
41646W        W 3177  44.408  32.908  11.498
41647W        W 3178  24.695  44.827  12.403
41648W        W 3179  40.998  13.780   4.148
41649W        W 3180  32.533  44.910  13.875
41650W        W 3181  21.669  26.100  10.513
41651W        W 3182  33.532  25.499  10.618
41652W        W 3183   7.730   5.309  12.030
41653W        W 3184  11.836  12.777  14.920
41654W        W 3185  42.380   3.833  13.953
41655W        W 3186  24.042   8.795   3.286
41656W        W 3187  26.190  31.444   2.899
41657W        W 3188   2.732  13.235  12.574
41658W        W 3189   3.373   1.390   3.387
41659W        W 3190   5.714  35.087  13.353
41660W        W 3191  43.352  40.907  13.434
41661W        W 3192  23.220   5.329  10.421
41662W        W 3193  43.505  12.137   3.789
41663W        W 3194  28.645  16.721  11.558
41664W        W 3195  42.913  25.479   0.906
41665W        W 3196  39.462  11.367   1.781
41666W        W 3197   3.867  17.199  12.569
41667W        W 3198  35.447   2.835   1.862
41668W        W 3199  29.614  17.125  13.381
41669W        W 3200   4.717  13.626   3.707
41670W        W 3201  34.972  38.897   4.160
41671W        W 3202   4.834  41.436   2.394
41672W        W 3203  12.833  30.118   2.269
41673W        W 3204  11.306  32.955  11.857
41674W        W 3205   4.223  26.995   1.827
41675W        W 3206  38.855   0.420   1.871
41676W        W 3207   5.301  19.754   1.725
41677W        W 3208  28.970  33.062  10.503
41678W        W 3209  31.500  38.442  10.613
41679W        W 3210  28.174  39.004  14.936
41680W        W 3211  33.932  15.170   0.443
41681W        W 3212   9.800  42.919  10.609
41682W        W 3213   9.288  29.515   2.841
41683W        W 3214   8.854  19.110   0.853
41684W        W 3215  30.433  15.230   4.167
41685W        W 3216  15.721   6.789  12.027
41686W        W 3217   6.385  29.958   4.644
41687W        W 3218   1.922  33.530   3.642
41688W        W 3219  22.589  21.252   4.352
41689W        W 3220  14.111  41.943  11.575
41690W        W 3221  20.651   9.699  10.616
41691W        W 3222  32.624  22.505  11.949
41692W        W 3223   3.425  17.668  11.406
41693W        W 3224   7.874  39.323  12.049
41694W        W 3225   1.806  34.374  13.462
41695W        W 3226  23.118  20.561  10.407
41696W        W 3227  43.285  23.489   4.677
41697W        W 3228  35.866  37.978   3.260
41698W        W 3229  20.671  31.507  11.527
41699W        W 3230  22.574  27.610  12.086
41700W        W 3231   3.740  40.849   4.759
41701W        W 3232  38.861   9.258  12.478
41702W        W 3233  42.885  36.077   3.182
41703W        W 3234  14.104   9.646   4.599
41704W        W 3235  44.759  15.772  11.544
41705W        W 3236   7.772  17.204   5.083
41706W        W 3237  44.925   8.390  13.938
41707W        W 3238  26.063  22.612  12.905
41708W        W 3239  19.553  23.527   5.689
41709W        W 3240   9.862  44.360   3.275
41710W        W 3241  21.749  14.313  12.895
41711W        W 3242  16.246  44.803   4.730
41712W        W 3243  14.651  26.185  10.618
41713W        W 3244  35.600  22.020  12.940
41714W        W 3245  21.160  18.583  13.923
41715W        W 3246  41.408   4.219  12.902
41716W        W 3247   7.413  12.832  12.003
41717W        W 3248  29.620  11.664   3.326
41718W        W 3249   1.338  28.055   0.258
41719W        W 3250  35.477   0.885  13.398
41720W        W 3251  29.930  20.088  12.972
41721W        W 3252   8.681   5.717   0.251
41722W        W 3253  32.077   7.764  12.927
41723W        W 3254  30.156  34.963   4.736
41724W        W 3255  44.496  13.159   4.781
41725W        W 3256  44.982  24.173   3.731
41726W        W 3257  38.542  12.199  12.979
41727W        W 3258  35.597  41.306  11.063
41728W        W 3259   7.415  29.942  12.341
41729W        W 3260  31.565  19.085   3.190
41730W        W 3261  38.039   1.399  12.006
41731W        W 3262   6.306  33.542  10.436
41732W        W 3263  17.557  42.879  13.464
41733W        W 3264  40.837  23.633   1.862
41734W        W 3265  12.844  26.463   2.312
41735W        W 3266  35.411  28.057   4.734
41736W        W 3267  11.262  33.054  14.331
41737W        W 3268  15.763  41.817  14.402
41738W        W 3269   6.695  16.218  12.054
41739W        W 3270  32.442  25.104   0.386
41740W        W 3271  34.513  37.417   2.198
41741W        W 3272  11.202  13.783  13.818
41742W        W 3273  44.341  18.628  12.986
41743W        W 3274  30.112   2.409   3.310
41744W        W 3275   3.724  37.554  14.002
41745W        W 3276  38.446  35.021  13.462
41746W        W 3277  41.961   8.339   2.202
41747W        W 3278  39.931   2.847   3.382
41748W        W 3279  31.093  38.346  11.446
41749W        W 3280  41.788  41.824   2.667
41750W        W 3281  14.162  43.461   3.667
41751W        W 3282  36.348  33.448  10.982
41752W        W 3283  18.660  26.664  11.075
41753W        W 3284  33.624   6.425   5.149
41754W        W 3285  30.912   8.213  10.410
41755W        W 3286   2.863  13.709   1.871
41756W        W 3287  40.920  40.539  10.918
41757W        W 3288  15.735   4.731  10.521
41758W        W 3289  14.833  26.988   3.356
41759W        W 3290  33.057  25.575  12.835
41760W        W 3291  33.385  39.423   4.745
41761W        W 3292  29.443   5.916  14.011
41762W        W 3293   6.336  36.088   2.359
41763W        W 3294  28.096  26.642   0.413
41764W        W 3295   2.426  19.121   2.367
41765W        W 3296  17.663  22.084   9.937
41766W        W 3297  24.629  12.236  14.437
41767W        W 3298   4.768  33.977   3.246
41768W        W 3299  24.607  14.147   1.238
41769W        W 3300   9.227   0.852  12.507
41770W        W 3301  20.674   9.221   4.698
41771W        W 3302  10.734   2.327   1.877
41772W        W 3303  44.415  24.019  13.928
41773W        W 3304  42.362  40.527   1.846
41774W        W 3305  10.187  20.060  13.491
41775W        W 3306  19.726  11.217  13.049
41776W        W 3307  40.507  34.559   4.780
41777W        W 3308   4.392  26.050  13.062
41778W        W 3309  19.699   5.355   3.819
41779W        W 3310   6.248   0.379  13.444
41780W        W 3311  12.230  30.450   1.337
41781W        W 3312   5.804   5.851  14.007
41782W        W 3313  35.080  21.036   1.290
41783W        W 3314  36.496  14.256  14.926
41784W        W 3315   5.863  23.522   4.229
41785W        W 3316   7.831  33.594   1.225
41786W        W 3317  25.216  26.187   4.716
41787W        W 3318  15.170   5.371   2.832
41788W        W 3319  43.474  42.285   0.742
41789W        W 3320  30.035  21.540  14.297
41790W        W 3321  40.902  27.068   0.277
41791W        W 3322  30.938  15.740   3.228
41792W        W 3323  24.137  11.684  14.416
41793W        W 3324   7.822  33.115   0.905
41794W        W 3325  31.122  38.924  11.588
41795W        W 3326   6.762   4.807   4.187
41796W        W 3327  13.108   7.691  11.502
41797W        W 3328  17.251  42.888  14.968
41798W        W 3329  31.975  29.050   4.297
41799W        W 3330  10.204  30.530   3.821
41800W        W 3331  23.696  13.300  14.972
41801W        W 3332  10.230  40.919   0.396
41802W        W 3333  36.898  31.403  10.567
41803W        W 3334  42.357  43.967   4.187
41804W        W 3335  10.788   4.730  13.461
41805W        W 3336  12.261  10.804   3.363
41806W        W 3337  42.925  19.561   2.793
41807W        W 3338  25.013  13.177   3.217
41808W        W 3339  22.009   4.300   3.163
41809W        W 3340  22.746  13.765  14.364
41810W        W 3341  29.047  29.632  11.044
41811W        W 3342  12.649  21.128   4.628
41812W        W 3343  13.791  24.021  10.634
41813W        W 3344   3.282  19.274   3.199
41814W        W 3345  24.169  22.708   9.965
41815W        W 3346  32.082   5.403  12.434
41816W        W 3347  42.008  34.568  14.392
41817W        W 3348  42.829  18.139   3.310
41818W        W 3349   2.361  27.998   1.441
41819W        W 3350  24.567  29.535   4.226
41820W        W 3351  38.049  16.733  13.479
41821W        W 3352  24.641  38.908  10.989
41822W        W 3353  31.598   9.347   3.633
41823W        W 3354  36.095  30.013   4.200
41824W        W 3355  38.351   6.410  13.994
41825W        W 3356  32.004  23.627   3.823
41826W        W 3357  32.532  24.543  13.865
41827W        W 3358   7.261  40.811  12.934
41828W        W 3359  38.393   8.167   3.365
41829W        W 3360  36.554  25.551  10.614
41830W        W 3361   8.819  35.891   1.448
41831W        W 3362  44.452  44.278   4.124
41832W        W 3363   9.741   0.399  11.079
41833W        W 3364  29.498  21.539   1.791
41834W        W 3365  23.713   3.384  12.906
41835W        W 3366  33.090  37.059  11.928
41836W        W 3367   1.408  20.244   4.712
41837W        W 3368  16.284  21.607   1.451
41838W        W 3369   2.776   4.339   3.210
41839W        W 3370   7.740   6.764   0.763
41840W        W 3371  36.014  35.389   3.767
41841W        W 3372   3.348  36.078   0.893
41842W        W 3373  17.196  31.536  11.946
41843W        W 3374  18.748  20.719  11.108
41844W        W 3375  35.465  31.954  14.300
41845W        W 3376  30.425   2.876  13.931
41846W        W 3377  34.071  10.206   4.185
41847W        W 3378  29.000  27.951   0.451
41848W        W 3379  23.073   0.386   3.843
41849W        W 3380  22.609  40.372  11.472
41850W        W 3381   7.178   9.678  14.790
41851W        W 3382  10.830  39.824  12.345
41852W        W 3383  36.088   2.763   4.260
41853W        W 3384   2.441   4.293   3.249
41854W        W 3385   3.311  28.976  14.808
41855W        W 3386  21.654  15.818   0.298
41856W        W 3387   1.809  26.051  12.076
41857W        W 3388  12.260  29.454  13.998
41858W        W 3389  34.369   3.918   3.287
41859W        W 3390   3.751  30.594  11.902
41860W        W 3391   9.342   0.986   3.276
41861W        W 3392  33.923   2.774  14.325
41862W        W 3393  19.713  16.608  12.987
41863W        W 3394   1.445   5.357   4.282
41864W        W 3395  41.967  11.345   2.680
41865W        W 3396   6.203  28.945   1.422
41866W        W 3397  12.167  17.156   0.967
41867W        W 3398  14.677  14.320   1.244
41868W        W 3399  27.596  44.410  13.035
41869W        W 3400  17.289  32.952   0.342
41870W        W 3401  35.449  24.153   0.760
41871W        W 3402  21.715  29.172  12.904
41872W        W 3403  10.711  12.128  12.070
41873W        W 3404   0.358   6.779   1.398
41874W        W 3405  22.554   0.417   2.361
41875W        W 3406  16.318  22.035   4.134
41876W        W 3407  20.102  40.348  14.312
41877W        W 3408   1.810  31.489  10.490
41878W        W 3409  23.554  16.119   2.764
41879W        W 3410   4.823  27.171  12.837
41880W        W 3411   7.257  16.742  14.492
41881W        W 3412  40.346  26.518   1.364
41882W        W 3413  28.964  30.150  12.533
41883W        W 3414  11.705  15.197  14.354
41884W        W 3415  41.957  17.084   3.719
41885W        W 3416  20.706  34.962   1.807
41886W        W 3417  10.355  32.112   4.223
41887W        W 3418  41.401   7.782   2.846
41888W        W 3419  31.077  12.653  14.879
41889W        W 3420  11.821  25.473  11.052
41890W        W 3421  32.569  43.904   1.860
41891W        W 3422  44.374   7.206  13.826
41892W        W 3423  36.477  12.783  13.403
41893W        W 3424  35.058  38.959   0.279
41894W        W 3425  35.540  20.553   1.724
41895W        W 3426  30.158   0.392   4.125
41896W        W 3427  31.145  40.946  10.529
41897W        W 3428   2.829  26.183   2.286
41898W        W 3429  21.568  22.650  10.112
41899W        W 3430  16.129  29.039   4.115
41900W        W 3431  15.783  16.175   4.208
41901W        W 3432   6.734  35.919   2.786
41902W        W 3433  17.588   9.390  10.442
41903W        W 3434  36.991   2.756   2.810
41904W        W 3435   1.802  10.324  11.453
41905W        W 3436  29.591  30.657   0.765
41906W        W 3437  28.058  31.436   3.759
41907W        W 3438  22.995   1.264  10.404
41908W        W 3439   3.716   1.915  13.974
41909W        W 3440  43.008   1.480   0.259
41910W        W 3441  21.540   8.698  13.966
41911W        W 3442  28.146  36.524  12.024
41912W        W 3443  43.784  43.338  12.891
41913W        W 3444  35.969  43.373  14.887
41914W        W 3445  19.249  10.325   0.755
41915W        W 3446  32.443  37.417  13.046
41916W        W 3447   0.906  37.880   0.792
41917W        W 3448  39.331  15.761   2.751
41918W        W 3449  43.925   5.707  11.864
41919W        W 3450   7.827   9.285   1.879
41920W        W 3451  22.025   0.776  10.444
41921W        W 3452  11.737   0.945   2.234
41922W        W 3453   8.786  44.900  11.493
41923W        W 3454  26.029  38.927   3.684
41924W        W 3455  10.745  27.195   2.329
41925W        W 3456  15.824  22.675  12.024
41926W        W 3457  37.407  11.156   1.848
41927W        W 3458   6.312  15.818   4.316
41928W        W 3459   0.767  23.078  12.879
41929W        W 3460  15.767  13.690   3.868
41930W        W 3461  32.025   7.175   1.894
41931W        W 3462  35.909  10.182  11.524
41932W        W 3463   6.423  34.562  13.516
41933W        W 3464   2.449  36.451  14.897
41934W        W 3465  32.087  38.507   1.770
41935W        W 3466  33.536  32.463   0.881
41936W        W 3467  36.885  33.116   1.746
41937W        W 3468  34.448  41.786  12.405
41938W        W 3469  11.232   5.901   4.275
41939W        W 3470   5.244  27.171  11.087
41940W        W 3471  24.120  38.841   3.153
41941W        W 3472  32.906  35.989   1.398
41942W        W 3473  25.195   9.674  12.518
41943W        W 3474  32.952   4.288   1.875
41944W        W 3475  27.001  39.993  11.895
41945W        W 3476  24.711  17.305  14.911
41946W        W 3477  16.730  29.979  12.561
41947W        W 3478  21.525  27.075  13.979
41948W        W 3479  34.422  21.142   1.245
41949W        W 3480  12.846   9.298  11.944
41950W        W 3481   4.337   9.680  13.018
41951W        W 3482  32.457  35.401   1.797
41952W        W 3483  26.461  22.560   4.213
41953W        W 3484   8.883  44.431  14.900
41954W        W 3485  25.055   3.247  13.416
41955W        W 3486  37.902  43.867   1.445
41956W        W 3487  11.647  24.645   3.355
41957W        W 3488   0.897  18.134  10.518
41958W        W 3489  43.460  31.476  14.472
41959W        W 3490  31.997  36.096  13.427
41960W        W 3491  10.278   8.794  14.876
41961W        W 3492   8.772  36.496  12.896
41962W        W 3493  39.832  18.630   0.741
41963W        W 3494  36.420  16.080  11.432
41964W        W 3495  10.674  24.723   4.687
41965W        W 3496   6.190  33.041  11.015
41966W        W 3497  39.384   6.840  10.409
41967W        W 3498  26.991  30.548  14.975
41968W        W 3499  13.224  13.809  12.438
41969W        W 3500  25.680  25.483   2.800
41970W        W 3501  34.996  40.963   3.156
41971W        W 3502  22.516  10.256   3.348
41972W        W 3503  27.991  38.989  12.084
41973W        W 3504   7.177   1.295  13.425
41974W        W 3505  25.697   8.407   0.770
41975W        W 3506  41.842  14.124   2.352
41976W        W 3507  11.171  10.345  12.359
41977W        W 3508  39.466  39.475   2.391
41978W        W 3509   8.169  14.193   4.284
41979W        W 3510   2.385  24.533  11.519
41980W        W 3511   1.474  26.606   3.302
41981W        W 3512  34.115  38.454   1.837
41982W        W 3513   6.318  20.162   1.726
41983W        W 3514  23.180  33.890   0.739
41984W        W 3515   6.858  40.812  11.501
41985W        W 3516  37.041   7.676   4.336
41986W        W 3517  11.371  44.326   3.247
41987W        W 3518  29.044  32.583  10.534
41988W        W 3519  32.470   1.933   2.828
41989W        W 3520   3.371   8.199   2.233
41990W        W 3521  21.162  42.978  10.416
41991W        W 3522  17.136  38.842   2.381
41992W        W 3523  38.368  24.975   3.150
41993W        W 3524  39.952  22.210  13.850
41994W        W 3525  24.194  37.854  11.917
41995W        W 3526   3.334   0.854  13.509
41996W        W 3527   9.669   0.967  12.361
41997W        W 3528  36.502  11.194  10.913
41998W        W 3529  30.423  10.651   3.854
41999W        W 3530  15.645   3.944  14.376
42000W        W 3531  31.127  25.613   1.918
42001W        W 3532  20.768  30.081  14.308
42002W        W 3533  17.208  15.699   2.855
42003W        W 3534   6.800   7.236   4.621
42004W        W 3535  33.476  30.913  10.426
42005W        W 3536  39.537  34.555  12.952
42006W        W 3537  42.374  39.416   0.348
42007W        W 3538  44.982  36.842   0.900
42008W        W 3539  26.493  15.198   0.920
42009W        W 3540  29.486   8.733  11.933
42010W        W 3541  34.933  40.415   1.284
42011W        W 3542  23.184   8.169   0.276
42012W        W 3543  44.932  44.350  12.013
42013W        W 3544  41.370   1.856   1.318
42014W        W 3545  30.941  30.083  14.017
42015W        W 3546  18.247  24.173  12.940
42016W        W 3547   0.293  28.510   2.730
42017W        W 3548  40.041  39.375   3.775
42018W        W 3549  34.509   2.331   3.739
42019W        W 3550   8.871  12.339   3.830
42020W        W 3551  28.121  13.809  10.600
42021W        W 3552  25.210   9.755  13.872
42022W        W 3553   7.324  17.559   4.290
42023W        W 3554  29.155   8.180   3.737
42024W        W 3555   5.315  40.521  13.960
42025W        W 3556  44.488   2.406   3.857
42026W        W 3557  26.014   6.300   0.265
42027W        W 3558  36.914   0.822  11.885
42028W        W 3559   9.682  43.837   1.712
42029W        W 3560  11.711  38.462  11.590
42030W        W 3561  41.467  19.184   1.395
42031W        W 3562  19.704  24.545  13.947
42032W        W 3563   0.930   6.712  13.002
42033W        W 3564  27.012  16.174   1.812
42034W        W 3565  17.746  25.101  10.028
42035W        W 3566  35.074  41.935   3.648
42036W        W 3567   2.809  12.145   4.685
42037W        W 3568  37.483  41.328  11.394
42038W        W 3569  20.707   8.780  11.895
42039W        W 3570  43.914  16.149  12.576
42040W        W 3571  16.146  21.183  13.380
42041W        W 3572  44.917   5.401  10.522
42042W        W 3573  39.900  23.126   3.337
42043W        W 3574   1.832   4.246   1.220
42044W        W 3575  17.247  43.393  14.290
42045W        W 3576  28.584  34.984  11.061
42046W        W 3577   9.734   7.258   0.373
42047W        W 3578  28.099  37.913   4.321
42048W        W 3579  30.415  43.504   3.705
42049W        W 3580   8.800  25.143   3.154
42050W        W 3581  36.902  26.542  12.428
42051W        W 3582  19.679  19.093  13.044
42052W        W 3583  30.427   9.708   0.473
42053W        W 3584  38.032  15.187   1.245
42054W        W 3585  17.706  13.321   1.839
42055W        W 3586   1.907  14.118   3.638
42056W        W 3587  19.719  24.518   2.805
42057W        W 3588  10.259  27.191   0.927
42058W        W 3589   9.264   0.779  10.928
42059W        W 3590  36.020  15.786   2.397
42060W        W 3591  13.729  25.016  13.360
42061W        W 3592   5.805   9.743   4.685
42062W        W 3593  16.659  38.422  13.894
42063W        W 3594   5.236  36.499  11.453
42064W        W 3595   1.955  43.932   1.212
42065W        W 3596  34.474  38.339   1.722
42066W        W 3597  11.159  43.801  11.019
42067W        W 3598   0.905  18.661   1.341
42068W        W 3599   4.813  44.993  14.419
42069W        W 3600  15.283  12.726  12.062
42070W        W 3601  37.924   7.282   4.765
42071W        W 3602  10.709  27.482   3.383
42072W        W 3603  26.011  43.413   4.172
42073W        W 3604  15.601  18.575  13.006
42074W        W 3605  26.591  28.939  11.454
42075W        W 3606  19.122   7.714   2.734
42076W        W 3607  12.770  42.387  13.470
42077W        W 3608  26.522  22.229   3.292
42078W        W 3609   6.865  27.512  12.537
42079W        W 3610  27.184  30.465  14.347
42080W        W 3611  26.997  12.615  11.862
42081W        W 3612   2.455  36.992  14.414
42082W        W 3613  44.954  12.321   1.752
42083W        W 3614  36.446  38.447   9.961
42084W        W 3615   2.387   9.204  10.966
42085W        W 3616  30.038   1.962   3.284
42086W        W 3617  31.081  44.265  12.938
42087W        W 3618  37.016  23.658   1.253
42088W        W 3619  40.984  24.639  14.379
42089W        W 3620  41.352  31.550   3.260
42090W        W 3621  16.125  37.065  10.605
42091W        W 3622  19.214  40.443  10.431
42092W        W 3623  19.657   6.683  14.410
42093W        W 3624  39.433  22.999  11.608
42094W        W 3625  30.082  21.553  11.992
42095W        W 3626  37.345   3.716   5.291
42096W        W 3627  31.042   3.920   0.410
42097W        W 3628  29.992  21.109  13.524
42098W        W 3629  20.251   1.822  10.972
42099W        W 3630  11.711  13.351   4.639
42100W        W 3631  35.490  23.228  14.361
42101W        W 3632  39.326  32.039   3.170
42102W        W 3633  12.639  21.168   2.776
42103W        W 3634  32.898  34.968  13.835
42104W        W 3635   2.407  36.854   1.342
42105W        W 3636  30.637   5.357   2.295
42106W        W 3637  13.618  38.357  14.881
42107W        W 3638  38.021   3.319  13.434
42108W        W 3639  12.779  41.965   2.304
42109W        W 3640  42.523  37.566   0.809
42110W        W 3641  17.733  33.495  10.993
42111W        W 3642   2.930  35.367  11.586
42112W        W 3643   0.777  36.451  11.953
42113W        W 3644  12.767  43.908  11.587
42114W        W 3645  19.060  35.545   2.746
42115W        W 3646  26.673   4.292   4.703
42116W        W 3647   7.309  31.961  10.982
42117W        W 3648   6.289  31.436  14.357
42118W        W 3649  10.181  17.151   0.756
42119W        W 3650  13.619  38.896   2.313
42120W        W 3651  38.026  39.944  11.563
42121W        W 3652   0.902  21.741  11.465
42122W        W 3653   4.308  42.338  11.886
42123W        W 3654  26.063  41.422  13.908
42124W        W 3655  16.704  32.115   9.975
42125W        W 3656  40.406  40.540  13.467
42126W        W 3657  34.395  33.393   3.353
42127W        W 3658  34.104   8.296   3.320
42128W        W 3659  36.053  40.827  12.408
42129W        W 3660  43.446  22.202   3.645
42130W        W 3661  29.532  44.268   4.130
42131W        W 3662   0.945  25.050   0.373
42132W        W 3663  21.611   0.458  10.630
42133W        W 3664   3.837  32.983   4.285
42134W        W 3665  33.055  36.561   1.720
42135W        W 3666  39.000  36.423  11.950
42136W        W 3667   8.739  24.647  10.519
42137W        W 3668  39.386   0.426  14.881
42138W        W 3669  17.629   6.236  13.445
42139W        W 3670  40.009  25.683  14.830
42140W        W 3671  39.011  44.395   1.920
42141W        W 3672  33.055  18.116  13.023
42142W        W 3673   7.766  11.168   3.803
42143W        W 3674  39.019  19.751   1.897
42144W        W 3675   3.730   3.943  10.459
42145W        W 3676  34.402  24.517  14.460
42146W        W 3677  15.578  28.570   0.270
42147W        W 3678  30.655   9.156   9.594
42148W        W 3679   4.836  15.717  13.890
42149W        W 3680  20.674  27.633   3.180
42150W        W 3681  19.282   6.896  11.385
42151W        W 3682   6.800  21.241  13.367
42152W        W 3683  23.523  35.510   3.356
42153W        W 3684   7.763  44.925  13.374
42154W        W 3685  22.521  11.305  12.066
42155W        W 3686  34.448  19.254  11.930
42156W        W 3687   1.431  26.501  14.389
42157W        W 3688   2.868  20.240  13.792
42158W        W 3689  13.781   5.833  11.037
42159W        W 3690  39.908  17.768  12.037
42160W        W 3691  19.084  26.004  12.350
42161W        W 3692  21.579  33.075  10.455
42162W        W 3693   5.756  24.208  14.295
42163W        W 3694   4.275  15.235   3.669
42164W        W 3695  12.305  12.719  12.404
42165W        W 3696  34.946  20.072   4.686
42166W        W 3697  33.016   7.400  12.912
42167W        W 3698  22.041  17.136   4.158
42168W        W 3699  25.477  29.957   3.649
42169W        W 3700  27.049  33.068   1.304
42170W        W 3701  29.602  18.156  12.847
42171W        W 3702   0.914  36.447  14.358
42172W        W 3703   6.918   6.241   0.266
42173W        W 3704  22.585  40.039  12.998
42174W        W 3705  39.541   4.418   4.341
42175W        W 3706  29.457  31.436  11.526
42176W        W 3707  36.917  33.085   0.256
42177W        W 3708  25.553  21.244   2.881
42178W        W 3709  27.024   6.222  14.516
42179W        W 3710  43.421  30.486   0.435
42180W        W 3711  28.579  41.819   3.747
42181W        W 3712  29.947  28.439  14.768
42182W        W 3713  44.267  29.936  13.922
42183W        W 3714  12.207  44.006  14.335
42184W        W 3715  11.744  15.242   1.251
42185W        W 3716  22.160  25.092   1.395
42186W        W 3717  35.095  28.051  10.522
42187W        W 3718   8.702  22.526  11.903
42188W        W 3719   8.198  24.526   2.238
42189W        W 3720  26.062  22.723   4.665
42190W        W 3721   9.276   9.875   4.180
42191W        W 3722  34.387  18.256  12.483
42192W        W 3723  30.606  34.049  14.778
42193W        W 3724  31.947  11.142  13.874
42194W        W 3725  14.724   6.866  11.070
42195W        W 3726  12.353  16.132   3.353
42196W        W 3727  15.641  37.511  12.865
42197W        W 3728  37.427  40.398  13.923
42198W        W 3729  30.487  31.540  12.846
42199W        W 3730  44.363  16.697  13.513
42200W        W 3731  39.405  40.532  13.967
42201W        W 3732  40.043  31.567  13.797
42202W        W 3733  19.736  32.581  13.367
42203W        W 3734   5.334   9.852  10.942
42204W        W 3735  22.130   1.781  10.591
42205W        W 3736  29.654   5.387   0.370
42206W        W 3737  29.047  10.699   2.290
42207W        W 3738   4.219  25.595  14.773
42208W        W 3739  26.156  34.575  12.850
42209W        W 3740  13.243  31.438  12.987
42210W        W 3741   2.327  31.056  10.963
42211W        W 3742  39.926  37.428  10.136
42212W        W 3743   8.342   0.760  12.854
42213W        W 3744  23.684  19.603   3.804
42214W        W 3745  20.537  23.666   5.088
42215W        W 3746  26.589  14.699   3.643
42216W        W 3747   7.282  40.470  11.418
42217W        W 3748  31.068  37.911   3.245
42218W        W 3749  34.090  12.851   3.265
42219W        W 3750  17.158  36.931   2.350
42220W        W 3751  28.529  20.226  14.903
42221W        W 3752  28.022   5.232   1.385
42222W        W 3753   2.849  30.036  13.920
42223W        W 3754  10.798  13.632   4.317
42224W        W 3755  40.848  38.470  11.608
42225W        W 3756  35.019   4.937  11.491
42226W        W 3757  20.119   8.799   0.402
42227W        W 3758  42.820  29.580   2.845
42228W        W 3759   5.794  32.623   3.277
42229W        W 3760  33.999   8.325   2.805
42230W        W 3761  43.293  32.628   2.688
42231W        W 3762  42.317  20.631   0.866
42232W        W 3763  24.579  21.552   1.695
42233W        W 3764  11.751   7.173  10.063
42234W        W 3765  26.973  20.707  14.986
42235W        W 3766  34.956   7.336   2.796
42236W        W 3767  35.971  38.990  11.555
42237W        W 3768  29.565  42.867  12.878
42238W        W 3769   6.322  41.936   5.149
42239W        W 3770  27.944  14.149  12.055
42240W        W 3771  12.621   1.419   1.825
42241W        W 3772   9.285  31.607   1.839
42242W        W 3773  35.960   2.347  10.924
42243W        W 3774  31.453  20.201  13.849
42244W        W 3775  31.615  19.586   4.608
42245W        W 3776  11.767  38.072  14.931
42246W        W 3777  26.684  42.343   3.161
42247W        W 3778  10.344  20.118  12.459
42248W        W 3779  35.885   9.373  12.496
42249W        W 3780  41.385  37.511  14.825
42250W        W 3781  26.185  38.976   4.676
42251W        W 3782  20.202  11.673  13.930
42252W        W 3783  10.231  18.728   1.744
42253W        W 3784   4.243  12.852   2.287
42254W        W 3785  26.599   8.166   4.266
42255W        W 3786  35.934  34.557   0.320
42256W        W 3787  21.660  36.029  10.613
42257W        W 3788   1.326   4.284   2.301
42258W        W 3789  27.157  32.450   2.891
42259W        W 3790   1.795  44.401  10.942
42260W        W 3791   1.809  32.992  14.489
42261W        W 3792  31.957  41.912   4.251
42262W        W 3793  33.109  12.640   3.250
42263W        W 3794  11.734  25.004   5.184
42264W        W 3795   1.332  38.839  12.845
42265W        W 3796  16.749  38.383   2.871
42266W        W 3797  33.505  17.584   5.580
42267W        W 3798  25.963  14.259  11.595
42268W        W 3799   0.876  40.448   0.414
42269W        W 3800  37.378  23.128  14.324
42270W        W 3801  40.937   6.299  13.894
42271W        W 3802  35.017  20.585  13.860
42272W        W 3803   2.952  28.040  11.024
42273W        W 3804   7.346  22.746   1.241
42274W        W 3805  12.745  44.375   1.256
42275W        W 3806  16.789  36.528  13.880
42276W        W 3807  18.251  35.523  10.429
42277W        W 3808  32.604  29.069  11.994
42278W        W 3809  40.917  10.757  11.433
42279W        W 3810  26.046  23.714  13.512
42280W        W 3811  18.255  36.538   3.305
42281W        W 3812   3.783  10.837  13.950
42282W        W 3813   8.843  15.162  12.852
42283W        W 3814   8.186  30.628  14.397
42284W        W 3815  20.632  30.146   3.236
42285W        W 3816  30.560  20.261  11.007
42286W        W 3817  44.877  28.482   0.925
42287W        W 3818   9.709  34.515  12.990
42288W        W 3819  24.046   9.724   0.364
42289W        W 3820  28.960  15.183   4.354
42290W        W 3821   3.454  11.272  12.891
42291W        W 3822   7.381  35.004  14.320
42292W        W 3823  15.189  22.545   3.339
42293W        W 3824  24.620  37.884   3.375
42294W        W 3825  26.570  12.700  11.589
42295W        W 3826   8.775   1.853   3.738
42296W        W 3827  35.570   2.425  10.572
42297W        W 3828  34.017  37.389   3.359
42298W        W 3829  35.371  12.270   4.260
42299W        W 3830  10.733  23.121  12.343
42300W        W 3831  40.513  26.980  12.883
42301W        W 3832  22.569  40.346   1.413
42302W        W 3833  41.333  35.388   3.691
42303W        W 3834   4.297  24.660  14.910
42304W        W 3835  30.541  26.480   0.812
42305W        W 3836   4.357  40.463   3.807
42306W        W 3837  20.062  13.334   1.874
42307W        W 3838  25.657  42.389   4.838
42308W        W 3839  39.395  23.067   3.178
42309W        W 3840  25.627  12.688  12.467
42310W        W 3841   8.811  21.120  11.511
42311W        W 3842  29.051  41.857  11.525
42312W        W 3843  41.981  18.595   3.202
42313W        W 3844  31.428  15.692  14.354
42314W        W 3845   4.759  35.050   3.663
42315W        W 3846   1.857  28.494   2.816
42316W        W 3847  32.970  22.647  13.325
42317W        W 3848   6.905   1.266  13.046
42318W        W 3849  15.306  32.604  13.813
42319W        W 3850   3.307  37.405   1.246
42320W        W 3851  21.640  19.773  10.894
42321W        W 3852  35.952  15.666  11.086
42322W        W 3853   9.298  14.703   2.845
42323W        W 3854   2.749   4.790   3.241
42324W        W 3855  25.095  31.940   1.931
42325W        W 3856   0.275   2.461   2.724
42326W        W 3857   3.808  10.254   1.449
42327W        W 3858  23.703  14.834  13.516
42328W        W 3859  14.203  32.071   0.268
42329W        W 3860  44.346  21.750   0.730
42330W        W 3861  18.135  13.238  10.587
42331W        W 3862  37.966   2.909  10.599
42332W        W 3863  40.467  39.395  14.996
42333W        W 3864   5.390  14.704  10.460
42334W        W 3865  27.155  34.073  14.908
42335W        W 3866   8.678  32.621   4.720
42336W        W 3867  42.422  33.089   0.849
42337W        W 3868  14.100  37.453  11.128
42338W        W 3869   3.783  17.114  11.005
42339W        W 3870  10.806  29.943  10.525
42340W        W 3871  28.962  12.228   4.174
42341W        W 3872  21.745  37.581  13.396
42342W        W 3873  31.415   9.283  13.397
42343W        W 3874  13.670   8.209   3.868
42344W        W 3875  26.473  34.377   0.914
42345W        W 3876   1.909  42.920   0.321
42346W        W 3877  10.705  33.393   3.205
42347W        W 3878   3.828  35.577   4.705
42348W        W 3879  15.618   2.899  12.521
42349W        W 3880  27.142  13.718  11.041
42350W        W 3881  33.414  43.387  11.942
42351W        W 3882  37.978   5.852  13.422
42352W        W 3883  12.827  22.718   0.389
42353W        W 3884  15.241  30.593   2.854
42354W        W 3885  24.982  10.718   3.683
42355W        W 3886  25.677   2.946  12.551
42356W        W 3887  16.283  37.463  11.069
42357W        W 3888  22.603  31.476  10.618
42358W        W 3889  24.141  20.054  13.314
42359W        W 3890  27.533  30.149   2.316
42360W        W 3891  34.957  24.042   4.719
42361W        W 3892  19.213   4.729   2.893
42362W        W 3893  23.095  27.015   3.659
42363W        W 3894  19.632  38.904   3.186
42364W        W 3895  20.150  16.091   3.840
42365W        W 3896  27.522  42.458   4.745
42366W        W 3897  21.562   6.346  14.370
42367W        W 3898  39.437   1.956   4.224
42368W        W 3899  39.512  13.711  14.805
42369W        W 3900  26.032  23.509  10.518
42370W        W 3901  21.664   1.429  11.114
42371W        W 3902  36.968  11.794  12.372
42372W        W 3903  36.887  19.158  12.969
42373W        W 3904  40.972  41.320  14.300
42374W        W 3905  41.407  13.777   3.745
42375W        W 3906  31.139  30.137  11.475
42376W        W 3907  25.968  16.753   0.760
42377W        W 3908  12.645  29.626  12.936
42378W        W 3909  36.046  19.168  13.348
42379W        W 3910  34.021  29.998  13.387
42380W        W 3911   4.835  19.611   3.164
42381W        W 3912  18.632  27.531  10.948
42382W        W 3913  42.310  19.753  14.298
42383W        W 3914  13.788  32.911   1.444
42384W        W 3915  33.932  27.128   0.809
42385W        W 3916  12.122  36.069   4.205
42386W        W 3917  37.930  37.369  14.886
42387W        W 3918  17.640  27.630   4.711
42388W        W 3919  13.214  25.076   5.272
42389W        W 3920  22.040  24.561  14.804
42390W        W 3921  41.532  25.610  12.916
42391W        W 3922   8.865  29.589   0.428
42392W        W 3923  32.621  29.029  12.487
42393W        W 3924   0.476  20.618   3.721
42394W        W 3925  42.389  19.538  13.992
42395W        W 3926  18.264  40.005   1.853
42396W        W 3927  16.722  20.115  12.563
42397W        W 3928  38.370  32.965  10.643
42398W        W 3929   6.361  41.299  12.895
42399W        W 3930  42.441  30.122   2.704
42400W        W 3931  15.658  29.028   3.855
42401W        W 3932  25.188  10.153  14.780
42402W        W 3933  25.158  25.177   1.424
42403W        W 3934  35.449   0.351   2.419
42404W        W 3935  39.822  13.600   2.199
42405W        W 3936  19.230  18.070   1.226
42406W        W 3937   9.367  20.656  13.337
42407W        W 3938   9.325  10.289   1.443
42408W        W 3939  15.299  13.624   3.238
42409W        W 3940  22.010   0.780  11.886
42410W        W 3941  33.030  40.824  14.472
42411W        W 3942  28.969  28.449  13.953
42412W        W 3943  30.473  25.484   3.669
42413W        W 3944  28.670   9.872   3.737
42414W        W 3945  31.522  18.651   1.876
42415W        W 3946  40.387  41.957  13.033
42416W        W 3947  19.221  35.370  14.282
42417W        W 3948  22.194  16.271  10.945
42418W        W 3949  19.066  44.342   1.260
42419W        W 3950  26.483  39.338  10.415
42420W        W 3951   4.382  21.195  10.894
42421W        W 3952  28.150  37.404   4.797
42422W        W 3953   0.429   3.316  10.973
42423W        W 3954  41.444  14.339   2.686
42424W        W 3955  37.000  37.392  12.882
42425W        W 3956  13.275   1.462   9.599
42426W        W 3957  41.362   8.805  10.905
42427W        W 3958  20.763  13.672  10.641
42428W        W 3959  41.028  35.919  13.421
42429W        W 3960  11.353  38.034   2.260
42430W        W 3961   2.781  14.717   4.839
42431W        W 3962  39.894  13.134   2.339
42432W        W 3963  42.970  31.101  14.492
42433W        W 3964  36.014  33.464   2.236
42434W        W 3965   3.900  43.939   0.862
42435W        W 3966  10.210   9.695  14.418
42436W        W 3967  17.799  39.319   3.742
42437W        W 3968  41.018  40.939  11.527
42438W        W 3969  15.726  14.631   0.458
42439W        W 3970  40.940  15.292   3.667
42440W        W 3971  19.279  10.632   3.253
42441W        W 3972  42.412  37.925  14.861
42442W        W 3973  42.813   8.705   0.460
42443W        W 3974  15.639   9.785   1.374
42444W        W 3975  12.796  17.638  13.963
42445W        W 3976  40.911  10.670   9.447
42446W        W 3977  36.942   2.277   0.895
42447W        W 3978  31.536   0.283   3.277
42448W        W 3979  24.595  36.088  10.576
42449W        W 3980  30.103   4.807   1.932
42450W        W 3981   8.383  21.738   4.217
42451W        W 3982  19.185  16.588  12.869
42452W        W 3983  10.251   9.673  14.928
42453W        W 3984   5.285  16.593  12.964
42454W        W 3985  19.564  29.158  13.404
42455W        W 3986  13.769  18.153   1.419
42456W        W 3987   4.736  43.916  14.481
42457W        W 3988  27.177  33.067   0.322
42458W        W 3989  28.523  20.214   4.279
42459W        W 3990  23.643  39.815  10.628
42460W        W 3991  43.312  20.107  14.456
42461W        W 3992  22.584   3.906   2.861
42462W        W 3993  32.584  23.199  14.013
42463W        W 3994  10.253   9.270  12.865
42464W        W 3995  14.742  33.129  11.982
42465W        W 3996  36.986  19.610   4.166
42466W        W 3997   5.334  27.517  10.927
42467W        W 3998  26.502  34.033  11.606
42468W        W 3999  20.622   6.232   2.396
42469W        W 4000  34.874  41.879  13.018
42470W        W 4001  39.026  23.045  13.899
42471W        W 4002   9.303  28.126  13.444
42472W        W 4003  42.918  13.695  10.960
42473W        W 4004  24.135  27.689   2.314
42474W        W 4005  28.045  24.151  13.808
42475W        W 4006  18.131  42.355  12.878
42476W        W 4007  41.365  42.915  13.847
42477W        W 4008  34.051   9.253   4.781
42478W        W 4009  24.157  29.976  14.793
42479W        W 4010   6.881   6.861  10.591
42480W        W 4011  15.696  36.867   1.210
42481W        W 4012  35.004  11.712  14.888
42482W        W 4013  27.021  10.812  14.308
42483W        W 4014  19.632   4.439  10.477
42484W        W 4015  11.751  20.035  11.862
42485W        W 4016  22.582  43.414  14.436
42486W        W 4017  31.061  19.246  10.644
42487W        W 4018  12.753  20.755   0.328
42488W        W 4019  33.008  36.882  12.974
42489W        W 4020  22.712  37.838  10.456
42490W        W 4021  26.111  32.954   3.246
42491W        W 4022  30.978  28.508  13.913
42492W        W 4023  43.786  32.969   4.164
42493W        W 4024  43.331   3.292   4.281
42494W        W 4025  13.723  34.970   1.361
42495W        W 4026  30.574  36.854  13.507
42496W        W 4027   3.733  18.568   0.838
42497W        W 4028  17.792   5.343  12.025
42498W        W 4029  36.568  12.130   4.229
42499W        W 4030  40.873   3.323   0.473
42500W        W 4031  40.934   0.970   4.155
42501W        W 4032   0.944  25.198  12.918
42502W        W 4033  15.304  24.502  14.465
42503W        W 4034  42.309  30.993   2.381
42504W        W 4035   5.317   6.372   4.193
42505W        W 4036  26.651  13.748  14.364
42506W        W 4037  44.368  11.254  10.138
42507W        W 4038  22.195  29.967   5.106
42508W        W 4039   3.932  23.677  14.835
42509W        W 4040   2.921  43.317   1.857
42510W        W 4041  44.425   7.862  12.469
42511W        W 4042  33.526   9.392  12.409
42512W        W 4043   6.387  37.547   2.901
42513W        W 4044  22.029  18.751  14.955
42514W        W 4045  42.373  18.670  13.325
42515W        W 4046  23.689  33.114  14.966
42516W        W 4047  11.275   4.831  12.950
42517W        W 4048  17.225  32.589   2.276
42518W        W 4049  24.641  44.772  10.425
42519W        W 4050  30.446   0.766   5.112
42520W        W 4051  21.085  27.668   2.214
42521W        W 4052  29.011   7.795  14.473
42522W        W 4053  37.983  22.676  12.385
42523W        W 4054  25.014  19.591  13.326
42524W        W 4055  34.420  26.467   5.129
42525W        W 4056  16.231  31.020  13.040
42526W        W 4057   6.263  29.121  12.518
42527W        W 4058  19.612  14.275   2.199
42528W        W 4059  25.671  23.056  12.551
42529W        W 4060  27.963  15.622   4.657
42530W        W 4061  20.662  43.478  13.353
42531W        W 4062  19.736  25.611   0.802
42532W        W 4063   3.350  16.799   0.924
42533W        W 4064  24.099  19.541   0.854
42534W        W 4065  36.516  32.536   0.922
42535W        W 4066  22.192  31.535   1.834
42536W        W 4067  44.460  18.242   3.721
42537W        W 4068   0.964  32.596  12.416
42538W        W 4069  27.545   2.750   2.374
42539W        W 4070   1.383  30.533   4.150
42540W        W 4071  14.275   3.362  10.463
42541W        W 4072  33.621  31.992   2.844
42542W        W 4073   7.284  44.931   4.701
42543W        W 4074  11.148  32.020  10.980
42544W        W 4075  38.946  19.204   4.774
42545W        W 4076   7.290  19.537   0.263
42546W        W 4077  15.126  42.367  12.885
42547W        W 4078  22.572  21.168  10.939
42548W        W 4079  16.121  28.584  14.896
42549W        W 4080  15.196  13.345   0.850
42550W        W 4081  36.565  26.686  13.322
42551W        W 4082  22.200  18.286   2.306
42552W        W 4083  17.070  32.454  12.482
42553W        W 4084  28.456   8.786   0.436
42554W        W 4085  28.626  11.856  14.883
42555W        W 4086   7.857  28.482  12.533
42556W        W 4087  42.468  22.066   4.658
42557W        W 4088  19.775  31.947  13.432
42558W        W 4089  29.539  41.473  10.129
42559W        W 4090   2.435  28.545  13.325
42560W        W 4091   8.262  17.200  14.895
42561W        W 4092  22.141  22.032  12.462
42562W        W 4093  39.810  12.736   0.869
42563W        W 4094  41.037  22.055  13.051
42564W        W 4095  30.633  38.571   4.730
42565W        W 4096  20.532   0.266  14.827
42566W        W 4097  32.613  26.969   0.851
42567W        W 4098  13.124  37.087   4.606
42568W        W 4099  35.062  40.833  13.429
42569W        W 4100  29.942  23.583  10.616
42570W        W 4101  34.928  11.269   2.207
42571W        W 4102   2.758  25.705   4.243
42572W        W 4103   1.410   9.870   2.674
42573W        W 4104  29.154  33.943  13.342
42574W        W 4105  27.478  38.570  13.993
42575W        W 4106  22.014  36.075   0.421
42576W        W 4107   0.781  26.021   3.385
42577W        W 4108  29.546  20.113   0.314
42578W        W 4109  13.605  15.176   4.247
42579W        W 4110  17.189  22.576   4.678
42580W        W 4111   7.290   9.386   2.803
42581W        W 4112  40.531  40.820  12.375
42582W        W 4113  11.813  30.004  13.830
42583W        W 4114  10.225  40.027   2.895
42584W        W 4115  23.002  42.023   0.819
42585W        W 4116  41.537   2.407   4.131
42586W        W 4117   4.905  15.762  11.484
42587W        W 4118  16.271  19.075   4.199
42588W        W 4119   9.377  43.354   0.435
42589W        W 4120  43.279  17.190  11.037
42590W        W 4121   2.391  34.920  13.536
42591W        W 4122  38.006  15.163   3.343
42592W        W 4123   0.388  34.450   4.625
42593W        W 4124  21.129   7.406  11.461
42594W        W 4125   4.300  24.546  12.572
42595W        W 4126  35.552  42.411  14.444
42596W        W 4127   6.815  28.942  11.508
42597W        W 4128  44.322   7.349  10.914
42598W        W 4129   3.390  33.024   2.395
42599W        W 4130   8.286  28.629  13.335
42600W        W 4131  17.222  14.335   3.769
42601W        W 4132  25.190  40.515  12.460
42602W        W 4133  24.046  42.355   4.612
42603W        W 4134  18.220   3.239   0.268
42604W        W 4135  15.723   1.431  14.835
42605W        W 4136  34.003   2.264   3.637
42606W        W 4137  27.130  29.924   9.490
42607W        W 4138  40.812   6.837   4.729
42608W        W 4139  33.488   9.881  12.341
42609W        W 4140  25.018  22.076   1.268
42610W        W 4141  11.145  38.525  11.073
42611W        W 4142  24.025  38.396  14.463
42612W        W 4143  26.197  39.546  11.933
42613W        W 4144  28.156  16.132  13.431
42614W        W 4145   8.664  22.511  13.440
42615W        W 4146  10.846   3.809   0.443
42616W        W 4147  39.444   4.307  13.347
42617W        W 4148  32.983  11.680  11.906
42618W        W 4149   9.726   6.185   0.924
42619W        W 4150  19.283  28.455  14.996
42620W        W 4151   5.721  11.221   2.819
42621W        W 4152  23.526  25.570   2.194
42622W        W 4153  38.939  15.281  14.443
42623W        W 4154  37.026  19.567   0.385
42624W        W 4155   2.732  44.833  12.556
42625W        W 4156  18.270   3.421   3.746
42626W        W 4157   8.756  32.895   1.296
42627W        W 4158  31.079  17.637   3.300
42628W        W 4159  10.321   2.819   2.798
42629W        W 4160  21.650  23.601   3.199
42630W        W 4161  33.573  12.303  13.055
42631W        W 4162  27.645  27.189  11.123
42632W        W 4163  23.181   2.945  11.545
42633W        W 4164  22.243  10.744   3.845
42634W        W 4165  35.548  30.515  14.814
42635W        W 4166  26.521   9.788  13.051
42636W        W 4167  12.667  40.854   1.237
42637W        W 4168  40.871  38.000   1.306
42638W        W 4169  36.912  28.173  11.434
42639W        W 4170  35.377  14.273   4.182
42640W        W 4171   7.781  27.547   4.625
42641W        W 4172  25.571   5.252   2.266
42642W        W 4173  19.119  18.569   3.689
42643W        W 4174  11.715  21.210   3.273
42644W        W 4175   1.362  10.202  13.484
42645W        W 4176  23.639  25.168   1.272
42646W        W 4177  24.698  17.299  11.927
42647W        W 4178   3.314   4.394   1.335
42648W        W 4179   7.701  14.156   0.294
42649W        W 4180  35.514   0.834  14.419
42650W        W 4181  34.965  32.924  14.410
42651W        W 4182  21.158  25.204   4.769
42652W        W 4183  34.471  18.607   2.688
42653W        W 4184  32.120  39.316   5.148
42654W        W 4185  27.603  13.126  14.817
42655W        W 4186  12.264  19.094   4.169
42656W        W 4187   3.327  23.718   4.125
42657W        W 4188  41.336  22.170  10.504
42658W        W 4189  30.538  22.665  11.082
42659W        W 4190  11.229  35.369   3.171
42660W        W 4191   3.419   5.365   1.319
42661W        W 4192  11.638  14.147   4.826
42662W        W 4193  32.605  40.424  11.499
42663W        W 4194  39.937  22.688   4.713
42664W        W 4195  31.519  41.911   1.448
42665W        W 4196  11.322  22.647  10.546
42666W        W 4197  26.998  39.950  14.898
42667W        W 4198  21.646  31.611   5.785
42668W        W 4199  38.416  21.032  14.870
42669W        W 4200  16.285  36.026  12.825
42670W        W 4201  31.536  38.905   0.467
42671W        W 4202  27.595  38.942   0.961
42672W        W 4203  12.850  27.195   4.833
42673W        W 4204  32.553   3.826  14.937
42674W        W 4205  31.496   6.795   4.206
42675W        W 4206  38.526  38.469   2.833
42676W        W 4207  35.960   1.253   1.338
42677W        W 4208  14.113  25.206  14.979
42678W        W 4209   0.805  35.357  14.825
42679W        W 4210   3.721  27.195   3.780
42680W        W 4211  27.646  37.062  12.930
42681W        W 4212  16.637   5.910  11.395
42682W        W 4213  13.336  16.751   2.328
42683W        W 4214  21.570  12.135   3.754
42684W        W 4215  14.813  43.858  12.480
42685W        W 4216   9.328  38.040   4.627
42686W        W 4217   5.749   1.444  11.612
42687W        W 4218  41.351  32.944  14.418
42688W        W 4219  28.170  12.691   4.834
42689W        W 4220  19.749  43.970  10.423
42690W        W 4221  27.488  38.990  11.018
42691W        W 4222  10.319  13.210  14.399
42692W        W 4223  11.814   0.942   0.248
42693W        W 4224   1.974  42.869   4.131
42694W        W 4225  35.371  22.194  12.052
42695W        W 4226   8.336  41.827   1.700
42696W        W 4227  41.447  29.525   4.331
42697W        W 4228  29.426  12.218   4.603
42698W        W 4229  24.164  11.186  13.352
42699W        W 4230  24.558  29.975  13.036
42700W        W 4231  38.935  20.738   0.266
42701W        W 4232  21.220  12.668  10.543
42702W        W 4233  17.201   0.761   2.370
42703W        W 4234  38.510  30.572  12.426
42704W        W 4235  38.459   6.188  11.002
42705W        W 4236  10.241   4.761   4.614
42706W        W 4237   9.190   2.293  14.419
42707W        W 4238  16.167  20.217   1.864
42708W        W 4239  43.375   6.308   1.371
42709W        W 4240   7.684  31.066  14.297
42710W        W 4241  42.486   8.780  11.918
42711W        W 4242  18.223  38.510   4.323
42712W        W 4243  28.139  39.852   1.913
42713W        W 4244  33.028  11.719  14.759
42714W        W 4245  19.084  11.224  10.992
42715W        W 4246  16.657  13.831   1.932
42716W        W 4247  37.441  18.098   2.202
42717W        W 4248  36.349  38.510  11.445
42718W        W 4249  21.690  41.852   0.753
42719W        W 4250   0.319  19.553  14.926
42720W        W 4251   2.743  27.552  14.848
42721W        W 4252  33.561  12.671  14.456
42722W        W 4253  10.182  28.969  10.548
42723W        W 4254  44.502   9.740  13.956
42724W        W 4255  38.347   7.860   3.357
42725W        W 4256  10.339  11.814   2.670
42726W        W 4257   9.701   3.325   0.317
42727W        W 4258  19.658   5.362  14.513
42728W        W 4259  12.733  37.902  11.105
42729W        W 4260  35.892  19.178  12.824
42730W        W 4261  35.006  24.104  12.474
42731W        W 4262   4.394   0.396   2.705
42732W        W 4263   6.839   3.326   2.721
42733W        W 4264  42.919  14.125   4.298
42734W        W 4265  24.570  34.869   1.798
42735W        W 4266  15.252   1.454   2.324
42736W        W 4267   9.154  37.019   3.694
42737W        W 4268   1.397   1.268   1.312
42738W        W 4269  36.460  21.100   9.952
42739W        W 4270  30.131  13.762   1.228
42740W        W 4271  36.024  16.568  12.349
42741W        W 4272  35.361  44.439   4.627
42742W        W 4273  41.506   6.315   0.298
42743W        W 4274  35.523  39.355   2.205
42744W        W 4275  11.316  38.984   1.358
42745W        W 4276  16.581  34.986   2.229
42746W        W 4277   3.871  30.945  14.402
42747W        W 4278  25.517   5.769   3.763
42748W        W 4279  21.236  16.240  12.402
42749W        W 4280  33.418   1.966  11.124
42750W        W 4281  37.344   6.683   4.803
42751W        W 4282  42.294  22.603  14.973
42752W        W 4283  11.289  27.598   0.775
42753W        W 4284   1.964  23.578  13.027
42754W        W 4285  42.336  15.589   1.315
42755W        W 4286  35.580  40.432   4.173
42756W        W 4287   2.418  44.909  14.774
42757W        W 4288  24.676   6.185   2.683
42758W        W 4289  33.479  43.441  12.914
42759W        W 4290   7.686  26.516  14.477
42760W        W 4291  39.975  14.263  11.450
42761W        W 4292   1.336   9.676   3.371
42762W        W 4293   5.399  31.073   2.314
42763W        W 4294   4.746  10.270  10.445
42764W        W 4295  15.628  10.138  11.469
42765W        W 4296  32.046  27.196  10.600
42766W        W 4297  25.504  33.597   2.186
42767W        W 4298  16.206   6.845   1.246
42768W        W 4299  23.522   3.441   0.339
42769W        W 4300  38.530  25.676  10.547
42770W        W 4301   5.280  43.350   4.729
42771W        W 4302  27.034  25.691   2.755
42772W        W 4303  27.655  40.446  12.909
42773W        W 4304  25.564   1.331  14.782
42774W        W 4305  20.081  22.654   3.385
42775W        W 4306  42.321  31.543   2.247
42776W        W 4307  32.949   8.860   1.362
42777W        W 4308  17.702  30.476   3.258
42778W        W 4309  29.559  25.530   2.828
42779W        W 4310  39.482  11.632  14.807
42780W        W 4311  15.697  44.830   1.272
42781W        W 4312  35.361  12.856   4.273
42782W        W 4313  42.414  40.419  10.590
42783W        W 4314  38.497  23.226  12.058
42784W        W 4315  37.404  42.423   1.909
42785W        W 4316  40.891   8.322  14.501
42786W        W 4317  44.436  30.580   1.265
42787W        W 4318  30.603  26.466  10.909
42788W        W 4319  23.213  23.589   4.750
42789W        W 4320  23.569  35.535  12.429
42790W        W 4321   6.332  33.382   1.285
42791W        W 4322  21.122   8.816  13.365
42792W        W 4323  41.880  30.440  13.514
42793W        W 4324   4.325  26.605  12.390
42794W        W 4325  28.590  31.522   1.881
42795W        W 4326  17.218  15.696   4.748
42796W        W 4327   8.840  35.432   0.320
42797W        W 4328  24.690  44.782  13.976
42798W        W 4329   5.330  16.092   4.827
42799W        W 4330   2.828   0.759   4.661
42800W        W 4331   2.839  12.835  11.450
42801W        W 4332  17.079  24.611  13.433
42802W        W 4333   9.395  31.444   4.248
42803W        W 4334   3.243  23.697   1.866
42804W        W 4335  20.260  23.199  12.453
42805W        W 4336  23.134  39.855  12.873
42806W        W 4337   7.417  29.564  10.621
42807W        W 4338   9.291  15.291   2.391
42808W        W 4339  31.478  25.503  11.470
42809W        W 4340  30.491   4.803  14.775
42810W        W 4341  13.744  32.623  11.568
42811W        W 4342  24.503  30.927   4.324
42812W        W 4343  30.471  32.922   0.417
42813W        W 4344  24.564  29.549  13.953
42814W        W 4345   6.808  23.129   2.352
42815W        W 4346  29.594  12.714   0.910
42816W        W 4347  19.241  33.047   3.219
42817W        W 4348  32.928  31.014   4.208
42818W        W 4349  36.008  42.429  14.023
42819W        W 4350  13.211  39.413  13.929
42820W        W 4351  22.022  27.455  11.123
42821W        W 4352  38.968  20.537  11.398
42822W        W 4353  29.963   6.807  13.540
42823W        W 4354   3.385  42.795   5.202
42824W        W 4355  18.136  27.605  11.404
42825W        W 4356  14.255  26.529   1.869
42826W        W 4357  25.509  14.760   2.762
42827W        W 4358  16.798   0.345   4.800
42828W        W 4359   6.232  42.292   0.958
42829W        W 4360  41.993  14.824   2.794
42830W        W 4361  33.971  29.621  11.464
42831W        W 4362  41.390   9.786   0.336
42832W        W 4363  28.498  37.849   1.795
42833W        W 4364   0.377  11.363  12.896
42834W        W 4365  20.594   2.721  12.862
42835W        W 4366   2.945  33.944  14.848
42836W        W 4367  36.406  14.234   3.249
42837W        W 4368   2.739  44.264   1.851
42838W        W 4369   9.704  14.709   3.379
42839W        W 4370  15.754  38.484   0.405
42840W        W 4371  37.087  17.227   2.826
42841W        W 4372  18.545  14.250   5.223
42842W        W 4373  12.746   2.412  12.866
42843W        W 4374  11.768  23.689  12.974
42844W        W 4375  19.771  40.910  10.579
42845W        W 4376  26.541  21.120   2.304
42846W        W 4377   5.757   2.258  14.950
42847W        W 4378  32.079  10.138  14.452
42848W        W 4379  16.114  12.171   1.211
42849W        W 4380  37.437  36.358   3.155
42850W        W 4381  23.102  21.249   5.317
42851W        W 4382  38.343  27.572  12.476
42852W        W 4383  29.077  15.097  12.830
42853W        W 4384   0.875  39.003  13.331
42854W        W 4385  29.550  24.664  10.602
42855W        W 4386  18.175  31.647   1.220
42856W        W 4387   9.803  33.941   2.394
42857W        W 4388  39.894  30.450   2.679
42858W        W 4389  41.000  20.579  14.424
42859W        W 4390  30.058   3.837   4.790
42860W        W 4391  40.406  21.702  11.086
42861W        W 4392  17.771  14.341   3.755
42862W        W 4393  40.389  35.600   0.361
42863W        W 4394  42.378  41.991  13.822
42864W        W 4395  24.614  15.139   3.690
42865W        W 4396   9.783  25.604   2.826
42866W        W 4397  26.595  39.531  14.341
42867W        W 4398  21.105  32.535   4.710
42868W        W 4399  21.225  16.230  11.940
42869W        W 4400  24.561  27.628  14.450
42870W        W 4401  14.775  13.605  13.350
42871W        W 4402  41.865  37.030   4.807
42872W        W 4403   5.240  23.670   1.340
42873W        W 4404  20.188  36.985   4.766
42874W        W 4405  11.264  32.471  14.027
42875W        W 4406   9.335  35.465  10.991
42876W        W 4407  34.380  21.684   3.805
42877W        W 4408  21.239   5.277   0.252
42878W        W 4409   4.922  21.093   3.254
42879W        W 4410  40.448  35.588   3.317
42880W        W 4411   3.857  30.453   4.775
42881W        W 4412  14.177  22.122   2.689
42882W        W 4413  42.853   8.394  11.042
42883W        W 4414  40.544  13.120  13.464
42884W        W 4415  13.179  24.061   4.328
42885W        W 4416  22.610  28.933  12.456
42886W        W 4417  24.111  12.774   1.909
42887W        W 4418   0.284   2.354  12.463
42888W        W 4419  29.110  15.306  12.383
42889W        W 4420  12.697  25.115   0.846
42890W        W 4421  42.444   5.804  13.003
42891W        W 4422   4.902   6.199   4.279
42892W        W 4423  16.596  19.590   4.217
42893W        W 4424   5.842  36.556  14.016
42894W        W 4425  11.727   2.276   3.804
42895W        W 4426  44.484   7.373  10.075
42896W        W 4427   9.349  37.570  13.902
42897W        W 4428  25.611  43.420   3.755
42898W        W 4429  19.092   8.665   4.211
42899W        W 4430   1.734  26.140   2.671
42900W        W 4431  32.941  41.421   0.832
42901W        W 4432  23.545   5.262  12.027
42902W        W 4433  20.623  14.119  14.970
42903W        W 4434  20.535  22.649  10.475
42904W        W 4435  14.257  41.439   3.149
42905W        W 4436  40.821   3.855   3.659
42906W        W 4437  44.481   5.200   2.399
42907W        W 4438   1.851  38.518  13.905
42908W        W 4439  26.078  28.523  13.506
42909W        W 4440  29.591  21.043  11.978
42910W        W 4441  17.563   1.934  12.517
42911W        W 4442  34.467  12.678   0.372
42912W        W 4443  23.578  30.919  12.385
42913W        W 4444  33.972  10.674  11.442
42914W        W 4445  36.563   8.359   2.268
42915W        W 4446  43.474   6.282   1.896
42916W        W 4447  33.923  16.705  13.334
42917W        W 4448  39.829  11.272  11.964
42918W        W 4449  43.367  30.964  13.411
42919W        W 4450  43.986  41.401  13.859
42920W        W 4451  16.631  26.042   0.872
42921W        W 4452  11.369   8.378   1.368
42922W        W 4453  17.767  39.924   1.886
42923W        W 4454  13.723  26.191  12.450
42924W        W 4455  10.260  27.980  13.892
42925W        W 4456  13.630  22.097   4.734
42926W        W 4457   5.889  18.115  14.851
42927W        W 4458  15.726  23.493  10.106
42928W        W 4459  43.930   8.360   4.221
42929W        W 4460   5.372  24.047   0.858
42930W        W 4461   5.438  28.041  13.518
42931W        W 4462  32.621  11.739   4.811
42932W        W 4463   3.912  12.343  12.952
42933W        W 4464  32.509  13.616   1.302
42934W        W 4465  35.418   1.343   4.613
42935W        W 4466  14.292  30.102   2.746
42936W        W 4467  17.191  41.422   9.942
42937W        W 4468  38.492  43.967  10.561
42938W        W 4469  17.572  26.536   2.255
42939W        W 4470  29.993  27.448   3.631
42940W        W 4471  42.447  37.540  11.069
42941W        W 4472  20.179  36.374  11.904
42942W        W 4473  21.062   7.769  12.846
42943W        W 4474  42.832  36.984   0.774
42944W        W 4475  15.775  37.058  14.416
42945W        W 4476  10.833  30.920   5.123
42946W        W 4477  13.830  21.053   2.834
42947W        W 4478  12.829  41.421  11.969
42948W        W 4479  44.405   5.351   3.202
42949W        W 4480  19.057  22.718  13.848
42950W        W 4481   1.360   1.900  12.937
42951W        W 4482  19.718  39.873   1.337
42952W        W 4483  15.670  11.334  14.430
42953W        W 4484  26.204  37.982   4.157
42954W        W 4485  13.269  23.689  14.438
42955W        W 4486   2.422  21.643   5.242
42956W        W 4487  11.274  19.538  10.581
42957W        W 4488  15.662  19.758  11.553
42958W        W 4489   9.646  43.429   2.794
42959W        W 4490  37.034  43.450   4.335
42960W        W 4491  24.697   0.422  10.896
42961W        W 4492   2.405  26.969   3.755
42962W        W 4493  19.685  16.797   1.384
42963W        W 4494  42.455  42.013   0.455
42964W        W 4495  25.115  22.625   2.725
42965W        W 4496  24.185  24.205  10.426
42966W        W 4497  15.166  31.434   3.254
42967W        W 4498   3.763   3.781  11.932
42968W        W 4499   6.816  31.536  10.452
42969W        W 4500  23.141  33.421  12.531
42970W        W 4501   6.332  38.056   3.705
42971W        W 4502   9.822   6.388  14.986
42972W        W 4503   6.791  37.463   2.691
42973W        W 4504   2.419   4.244   4.230
42974W        W 4505   7.688  22.105  14.401
42975W        W 4506   2.274  40.305   3.248
42976W        W 4507  35.578  26.523  13.491
42977W        W 4508  25.060  19.711  14.275
42978W        W 4509  39.493  25.979  10.529
42979W        W 4510  20.542  34.955   1.215
42980W        W 4511  31.567   7.387  14.357
42981W        W 4512  20.722  43.342  10.410
42982W        W 4513  35.855  34.502   2.726
42983W        W 4514  22.545  44.884   3.712
42984W        W 4515  10.143  39.896   1.848
42985W        W 4516   4.285  44.762   1.801
42986W        W 4517  25.167  31.920   5.675
42987W        W 4518  12.202  36.416   1.839
42988W        W 4519   9.722   2.858  12.951
42989W        W 4520  20.104  11.825  10.552
42990W        W 4521  18.169  19.601  13.346
42991W        W 4522   7.785  34.489  13.487
42992W        W 4523  17.716   4.724  13.327
42993W        W 4524  21.195  24.646   3.200
42994W        W 4525  34.397  38.946   1.927
42995W        W 4526   0.257  28.539  10.620
42996W        W 4527  26.180  33.604   1.336
42997W        W 4528   3.917  33.615   0.478
42998W        W 4529   6.346  13.344   2.766
42999W        W 4530   9.372  35.942  11.408
43000W        W 4531  36.097   7.197  12.363
43001W        W 4532   0.252  13.825  12.984
43002W        W 4533   9.161   3.449   1.766
43003W        W 4534  43.427  35.426  12.842
43004W        W 4535  19.573  11.141   0.834
43005W        W 4536   9.871  16.675   4.823
43006W        W 4537  44.773   7.191   0.337
43007W        W 4538   1.347   6.231   4.143
43008W        W 4539  23.096  12.790  12.948
43009W        W 4540   5.316  26.531   2.680
43010W        W 4541   1.940   9.166  12.488
43011W        W 4542  16.803  18.678  10.894
43012W        W 4543  11.858  43.930  12.005
43013W        W 4544  35.471   5.768  10.568
43014W        W 4545  16.072  41.456   2.714
43015W        W 4546   6.846  32.029   1.451
43016W        W 4547   9.712  24.683  14.935
43017W        W 4548   7.407  38.866   3.202
43018W        W 4549  27.948  27.529   2.242
43019W        W 4550  26.106  10.310   3.310
43020W        W 4551  32.977  43.859   2.407
43021W        W 4552  27.043  26.689   2.267
43022W        W 4553  41.510  31.065  11.126
43023W        W 4554  14.329  26.627  12.907
43024W        W 4555  43.859  31.017  12.939
43025W        W 4556  32.896  24.610  12.004
43026W        W 4557  36.094  17.217  10.585
43027W        W 4558  35.982  27.105  13.804
43028W        W 4559  34.594  42.434   2.680
43029W        W 4560   7.849  13.761   0.274
43030W        W 4561   7.356  18.584  12.005
43031W        W 4562  28.476  34.917   0.432
43032W        W 4563   8.341  42.380   0.862
43033W        W 4564  43.454   4.338   1.327
43034W        W 4565  33.022  13.133  10.484
43035W        W 4566  10.829  41.466   2.318
43036W        W 4567   1.440  15.245  13.891
43037W        W 4568  35.556  13.600   3.840
43038W        W 4569  19.672  14.334   0.942
43039W        W 4570  18.686  16.805  14.361
43040W        W 4571  32.982  31.045   3.354
43041W        W 4572  16.221  38.431  10.585
43042W        W 4573  37.030   7.881   0.434
43043W        W 4574   5.280  20.632  11.921
43044W        W 4575  32.558   3.364  11.978
43045W        W 4576  41.381  31.038   1.792
43046W        W 4577  41.969   4.267   0.824
43047W        W 4578   8.353   7.283  11.064
43048W        W 4579  33.036  24.511  13.838
43049W        W 4580  28.989  34.553   1.788
43050W        W 4581  41.509  22.230  11.055
43051W        W 4582  40.975   3.227  14.843
43052W        W 4583   8.748  24.597   4.799
43053W        W 4584  21.526  13.266  10.955
43054W        W 4585  42.434  37.454  13.924
43055W        W 4586  23.604  26.648   5.152
43056W        W 4587  34.474  39.044  14.313
43057W        W 4588  40.430   9.719   3.368
43058W        W 4589  31.629  16.589  13.928
43059W        W 4590   2.861  36.017  11.008
43060W        W 4591  29.601  33.401   0.279
43061W        W 4592   7.879  16.770  12.530
43062W        W 4593  20.164   1.405  12.920
43063W        W 4594  14.832   4.909   2.212
43064W        W 4595   1.263  19.204  12.384
43065W        W 4596   9.226   6.815   2.691
43066W        W 4597   2.916  36.424  10.403
43067W        W 4598  38.394   6.834  14.014
43068W        W 4599  29.108  16.125  13.993
43069W        W 4600  34.060  26.684   0.383
43070W        W 4601  27.474   6.216   1.412
43071W        W 4602  30.653  22.625   4.142
43072W        W 4603  18.056  10.327   2.369
43073W        W 4604  22.081  43.848  13.022
43074W        W 4605  44.981  12.144  12.455
43075W        W 4606  14.820   4.239   1.326
43076W        W 4607  43.981   0.278   1.292
43077W        W 4608   2.364  19.739   5.082
43078W        W 4609  19.742  41.408   2.218
43079W        W 4610  37.009  10.714  10.546
43080W        W 4611  36.404   7.765   4.195
43081W        W 4612  28.012  10.330   1.905
43082W        W 4613  25.699  13.626  12.379
43083W        W 4614  12.781  33.000  10.996
43084W        W 4615  33.382  15.198   0.409
43085W        W 4616   8.351  34.439  14.493
43086W        W 4617  21.593  43.488  13.308
43087W        W 4618  27.564   0.444  11.050
43088W        W 4619   1.895   4.923  14.026
43089W        W 4620   3.766  10.779   3.178
43090W        W 4621   1.432  13.279  12.472
43091W        W 4622  21.229  14.716   0.912
43092W        W 4623  30.611  37.009  13.998
43093W        W 4624  43.848   0.250   4.343
43094W        W 4625  37.577   5.899  10.641
43095W        W 4626   0.791  15.651  10.521
43096W        W 4627  13.640   7.344  10.642
43097W        W 4628   1.410  21.591   4.193
43098W        W 4629  21.674  17.695  13.312
43099W        W 4630  38.348  32.483  13.446
43100W        W 4631  32.493  11.169  11.104
43101W        W 4632  19.262   0.901  14.446
43102W        W 4633  31.032  20.549   3.864
43103W        W 4634  21.034  37.026  12.838
43104W        W 4635  35.520  22.576   4.776
43105W        W 4636  27.032  33.517   1.929
43106W        W 4637  34.577   6.716   0.421
43107W        W 4638   4.810   7.277   0.737
43108W        W 4639  22.648  21.668   4.273
43109W        W 4640  16.707  27.522   2.662
43110W        W 4641  13.218   5.369  11.855
43111W        W 4642  31.150  44.336  14.776
43112W        W 4643  42.481  40.536  12.421
43113W        W 4644  23.030  29.947   1.384
43114W        W 4645  38.474  41.818   1.300
43115W        W 4646  14.754  32.001   1.740
43116W        W 4647   3.359  25.500   4.676
43117W        W 4648   0.346  35.016  12.962
43118W        W 4649  12.646  18.060  12.898
43119W        W 4650   5.324  10.674   1.743
43120W        W 4651  42.521  28.939   4.820
43121W        W 4652  24.198  44.973  10.903
43122W        W 4653   5.727  15.323   3.707
43123W        W 4654   4.428  22.066  12.068
43124W        W 4655  32.102  43.357  14.997
43125W        W 4656   4.807   2.347   4.811
43126W        W 4657  10.236  10.148  14.364
43127W        W 4658   1.786  12.672  13.058
43128W        W 4659   3.782  33.623   1.256
43129W        W 4660  39.974   3.899  14.417
43130W        W 4661  24.110  41.975  10.477
43131W        W 4662  32.453  22.691  12.947
43132W        W 4663   3.911  10.308   2.229
43133W        W 4664  16.697  43.933  11.446
43134W        W 4665  17.753   7.904   0.324
43135W        W 4666  21.697   0.269   3.315
43136W        W 4667  17.642  24.058  13.841
43137W        W 4668  25.604  13.833   3.699
43138W        W 4669  30.487  40.438   0.453
43139W        W 4670  37.950  44.296  10.620
43140W        W 4671   7.386  43.422   0.886
43141W        W 4672  20.075  27.531  12.487
43142W        W 4673  42.961  22.194  13.028
43143W        W 4674   5.897  18.766   2.305
43144W        W 4675  42.963  10.658  14.504
43145W        W 4676  42.290  40.493  14.412
43146W        W 4677  16.668  18.137  13.484
43147W        W 4678   9.326  22.701   1.762
43148W        W 4679  15.718  19.095  14.441
43149W        W 4680  27.992  14.742  13.868
43150W        W 4681  36.914  15.674   3.257
43151W        W 4682  43.510   7.313   0.868
43152W        W 4683   9.798  34.043   1.355
43153W        W 4684   1.846  39.871   4.271
43154W        W 4685  42.891  13.708  12.408
43155W        W 4686  44.853  43.979  12.415
43156W        W 4687  17.658   4.330   1.211
43157W        W 4688  28.119  22.684   5.157
43158W        W 4689  18.180  20.163   0.781
43159W        W 4690   2.909  42.960   0.762
43160W        W 4691   3.830  29.438   4.324
43161W        W 4692   8.359   1.432   9.508
43162W        W 4693  44.946   0.805  10.988
43163W        W 4694  33.451  44.475  10.012
43164W        W 4695   4.343  42.917   1.827
43165W        W 4696  18.663  31.138  13.817
43166W        W 4697  30.423   0.844  12.555
43167W        W 4698  43.325   2.897  10.636
43168W        W 4699  15.093   0.869  12.346
43169W        W 4700  28.508  25.165  13.487
43170W        W 4701  18.216  24.487  12.000
43171W        W 4702  34.019  34.038   3.829
43172W        W 4703   0.366  44.415   1.749
43173W        W 4704  23.149  21.653   0.866
43174W        W 4705  20.221   7.190  13.877
43175W        W 4706  37.049  33.993  10.620
43176W        W 4707  28.558  32.460   1.432
43177W        W 4708  39.920  35.485   1.355
43178W        W 4709  38.030  29.603  13.387
43179W        W 4710   6.918   8.343  14.005
43180W        W 4711  23.138  32.561   1.357
43181W        W 4712  41.437  10.874   1.725
43182W        W 4713   2.271  36.093   3.739
43183W        W 4714   3.233   8.694   1.806
43184W        W 4715  38.435  44.848  12.007
43185W        W 4716   7.854  32.934  10.430
43186W        W 4717  30.645  12.119   2.867
43187W        W 4718   8.776   4.775   0.262
43188W        W 4719  16.570  19.635  11.063
43189W        W 4720  14.125   9.849  10.628
43190W        W 4721  41.871   2.243  14.950
43191W        W 4722  27.036  14.710   0.326
43192W        W 4723  11.312  15.135   0.281
43193W        W 4724  32.923  34.984   1.796
43194W        W 4725  25.005  36.532  13.432
43195W        W 4726   3.787   2.296   3.292
43196W        W 4727  16.776  18.161  11.565
43197W        W 4728  10.856  16.178  11.015
43198W        W 4729   9.317  34.968   2.219
43199W        W 4730   1.258  33.116   4.677
43200W        W 4731  15.202   9.710   2.802
43201W        W 4732  20.090  27.168   1.745
43202W        W 4733   3.807  24.706   2.203
43203W        W 4734  39.417  23.201  10.484
43204W        W 4735  24.017  18.566   4.787
43205W        W 4736   9.656  14.737   4.792
43206W        W 4737  35.552   4.772   3.319
43207W        W 4738  44.781   3.216  13.525
43208W        W 4739  30.604  24.001   4.203
43209W        W 4740  12.821  23.218   4.217
43210W        W 4741  30.121  41.794  14.940
43211W        W 4742   7.278  25.517  11.471
43212W        W 4743  18.088  19.216   3.190
43213W        W 4744  40.942  36.957   3.849
43214W        W 4745  24.152   1.887   5.119
43215W        W 4746  43.791   6.404   2.249
43216W        W 4747  40.920  15.647  12.504
43217W        W 4748  15.294   9.224   2.193
43218W        W 4749  39.361  33.947  11.394
43219W        W 4750  36.535  15.236   1.899
43220W        W 4751   4.747   3.272   4.689
43221W        W 4752  25.111   8.391  12.431
43222W        W 4753  24.597  42.522   0.835
43223W        W 4754  25.658  34.054   3.330
43224W        W 4755  10.307  20.630  12.489
43225W        W 4756  37.535  22.158   1.310
43226W        W 4757  44.000  15.178  13.968
43227W        W 4758  34.880  24.116  14.468
43228W        W 4759  31.457  37.060   4.181
43229W        W 4760  42.906  13.765  13.846
43230W        W 4761  26.666   0.872   5.266
43231W        W 4762  24.542  18.691   0.252
43232W        W 4763   1.446  11.202  11.545
43233W        W 4764  12.235   3.791   3.733
43234W        W 4765  10.664  25.977  14.432
43235W        W 4766  19.547  26.646   1.277
43236W        W 4767  33.573  30.584  14.308
43237W        W 4768  40.946  39.879   1.862
43238W        W 4769  12.647  33.442  12.491
43239W        W 4770  19.536  14.298   5.189
43240W        W 4771  13.726  11.214  11.460
43241W        W 4772  41.497   3.287   4.302
43242W        W 4773  19.254  12.836  14.460
43243W        W 4774   7.385  34.054   4.284
43244W        W 4775  10.243  26.076  10.905
43245W        W 4776   4.886   1.298  11.047
43246W        W 4777   2.254  43.330  13.468
43247W        W 4778   8.381  26.052   0.922
43248W        W 4779   9.857  26.979  12.830
43249W        W 4780  31.927  34.392  12.916
43250W        W 4781  29.620  22.542   3.174
43251W        W 4782  21.129   7.691  13.800
43252W        W 4783  25.628  36.591  13.058
43253W        W 4784  29.466   9.888   0.459
43254W        W 4785  17.606  37.551  11.011
43255W        W 4786  38.534  35.932  12.396
43256W        W 4787  18.178  19.114   2.359
43257W        W 4788  28.992  35.540  11.115
43258W        W 4789  20.047  37.831  11.567
43259W        W 4790   2.376  36.843   0.751
43260W        W 4791  22.630   4.219  13.050
43261W        W 4792  34.118   0.833   1.353
43262W        W 4793  26.205  20.592   2.212
43263W        W 4794  10.741  29.654  14.278
43264W        W 4795  37.916  44.003  11.002
43265W        W 4796  30.102   5.792  11.919
43266W        W 4797  36.419  13.717   9.517
43267W        W 4798  19.548   0.759  11.523
43268W        W 4799  12.238  31.897   1.425
43269W        W 4800   7.347  41.370   1.763
43270W        W 4801  24.041  31.406  11.515
43271W        W 4802  36.092  17.710   1.933
43272W        W 4803   2.456   4.804  11.595
43273W        W 4804  24.709   0.378  14.027
43274W        W 4805  34.946   7.239  13.468
43275W        W 4806   0.492  33.112  13.947
43276W        W 4807   4.750  29.510  12.893
43277W        W 4808  23.989  20.188   3.172
43278W        W 4809  27.095   2.294   0.318
43279W        W 4810  41.380  22.066   4.210
43280W        W 4811   8.682  22.545   4.273
43281W        W 4812  16.652  41.983  11.595
43282W        W 4813  16.297  26.644  12.373
43283W        W 4814  27.049  19.185   3.332
43284W        W 4815   8.322  18.259   3.338
43285W        W 4816  39.035  28.981  12.400
43286W        W 4817   4.836   3.779   4.701
43287W        W 4818  23.021  44.401   0.771
43288W        W 4819  16.645  13.127  13.012
43289W        W 4820  15.720  26.971  12.085
43290W        W 4821   7.399  10.236  13.900
43291W        W 4822  13.123  14.147   3.698
43292W        W 4823  37.964  24.167   4.754
43293W        W 4824  34.452   1.887   3.347
43294W        W 4825  21.690  23.049   4.350
43295W        W 4826   8.744   6.267  14.947
43296W        W 4827   0.771   3.753   0.258
43297W        W 4828   6.346  24.190   2.792
43298W        W 4829  15.234  36.087  10.910
43299W        W 4830   6.350   5.710   0.961
43300W        W 4831  21.165  19.571   2.194
43301W        W 4832  34.877  34.921   4.836
43302W        W 4833   2.961  15.232   2.236
43303W        W 4834  42.320  13.720   3.384
43304W        W 4835   7.703  21.075  11.389
43305W        W 4836   5.762  26.503   0.462
43306W        W 4837  38.873  25.555   3.365
43307W        W 4838  14.127  27.590  10.579
43308W        W 4839  41.342  32.586  13.893
43309W        W 4840  29.979  10.240  14.944
43310W        W 4841  11.825  39.470  12.350
43311W        W 4842   3.762  22.096  13.435
43312W        W 4843   4.838   0.916  10.511
43313W        W 4844  25.159  14.196  11.128
43314W        W 4845   1.468  30.599  13.860
43315W        W 4846  16.653  12.324  11.455
43316W        W 4847  39.849   8.250  10.939
43317W        W 4848   4.358  11.317  13.971
43318W        W 4849   7.403   6.201  10.453
43319W        W 4850  43.884  25.530  12.402
43320W        W 4851  11.690   8.673   1.723
43321W        W 4852   5.356   2.387   2.701
43322W        W 4853   5.804  25.172   4.687
43323W        W 4854   7.753  20.533  13.506
43324W        W 4855  35.561  12.765  14.949
43325W        W 4856  22.747   1.974   3.348
43326W        W 4857   1.813   7.906   2.213
43327W        W 4858  40.475  21.047  14.424
43328W        W 4859  23.111  17.200  13.399
43329W        W 4860  26.011  16.175   4.696
43330W        W 4861   9.758  31.447  13.438
43331W        W 4862  18.074  28.642   3.847
43332W        W 4863  30.537  25.001   1.424
43333W        W 4864  29.003  18.607   0.463
43334W        W 4865  39.937  27.523  11.574
43335W        W 4866   4.426  34.614   3.655
43336W        W 4867  22.725  19.658  10.566
43337W        W 4868  44.815   3.442   4.802
43338W        W 4869   0.846   6.725   1.931
43339W        W 4870  40.448  16.302  10.986
43340W        W 4871   1.404  10.634   1.294
43341W        W 4872  33.993  21.736   4.621
43342W        W 4873  28.643  24.092   2.693
43343W        W 4874  39.002   6.325   3.856
43344W        W 4875  20.583  21.597  14.928
43345W        W 4876  15.823  28.079  12.419
43346W        W 4877  17.714   5.926   0.793
43347W        W 4878   7.669  29.977   2.857
43348W        W 4879  19.777   7.223  11.033
43349W        W 4880  26.557  33.522   4.812
43350W        W 4881   1.835  15.744  10.910
43351W        W 4882   4.912   6.240  11.883
43352W        W 4883  35.487  18.222   0.322
43353W        W 4884  37.437  14.764  10.980
43354W        W 4885  16.226  33.918  11.990
43355W        W 4886   0.873   5.760   3.856
43356W        W 4887  36.392  26.184   4.182
43357W        W 4888   1.450   2.288   0.254
43358W        W 4889   3.348  31.507  11.907
43359W        W 4890  18.670  36.453  11.089
43360W        W 4891   5.901  34.019  13.922
43361W        W 4892   2.358  32.622   3.857
43362W        W 4893  25.520  40.358   1.711
43363W        W 4894   4.862  43.855   0.361
43364W        W 4895   0.378   7.236   0.292
43365W        W 4896  33.504  33.093  11.103
43366W        W 4897  34.896   2.238  11.860
43367W        W 4898  33.606   4.937  12.053
43368W        W 4899  32.134  16.161  11.995
43369W        W 4900  33.402   2.436  10.453
43370W        W 4901  23.515  17.117   2.773
43371W        W 4902  40.459  43.420  10.558
43372W        W 4903  11.812  33.013  14.277
43373W        W 4904  35.409  15.219  12.070
43374W        W 4905  32.127  25.106  14.907
43375W        W 4906  11.625  30.501   1.851
43376W        W 4907  30.462   6.212   3.349
43377W        W 4908   3.276  10.214   0.278
43378W        W 4909  44.312   2.789  11.931
43379W        W 4910  35.880  11.292   0.469
43380W        W 4911  27.130  24.105  12.426
43381W        W 4912  38.363  14.334  11.052
43382W        W 4913  37.552  25.998   0.758
43383W        W 4914  44.890   3.802  14.789
43384W        W 4915  19.755  38.002  12.480
43385W        W 4916  15.588  42.526   0.363
43386W        W 4917  11.289  12.717   0.432
43387W        W 4918   8.323  17.785  13.974
43388W        W 4919  38.507   9.334   1.716
43389W        W 4920  32.553  22.231  11.433
43390W        W 4921  14.258   3.905   3.731
43391W        W 4922   4.787  16.294   0.902
43392W        W 4923  16.309  21.639  14.936
43393W        W 4924  12.688  42.867   3.707
43394W        W 4925  44.963   3.877  10.927
43395W        W 4926  10.277   9.728   0.440
43396W        W 4927  10.793  33.420   3.705
43397W        W 4928  31.970   8.267   1.773
43398W        W 4929  30.538  29.046  12.471
43399W        W 4930  26.519   0.348  14.980
43400W        W 4931  33.380   1.423   0.936
43401W        W 4932  44.273  22.661  13.317
43402W        W 4933  44.792  20.232  14.917
43403W        W 4934  39.378   4.725   0.794
43404W        W 4935   2.455  32.100   3.801
43405W        W 4936  15.797  31.938   1.375
43406W        W 4937  33.917  14.225  12.536
43407W        W 4938  23.543  18.758   3.194
43408W        W 4939  43.425  29.990   3.736
43409W        W 4940  31.431   3.310   3.267
43410W        W 4941  34.433  14.602  12.473
43411W        W 4942  25.714   7.377  11.585
43412W        W 4943  18.544  23.034  11.961
43413W        W 4944  10.226  33.945   1.415
43414W        W 4945  37.564  36.928   2.807
43415W        W 4946  33.596  25.148  10.911
43416W        W 4947  22.138  23.613  11.561
43417W        W 4948  10.673   5.737  10.459
43418W        W 4949  22.124  19.598  12.362
43419W        W 4950  22.138  19.226   4.327
43420W        W 4951  32.542  14.283  10.915
43421W        W 4952  29.485  37.470  10.522
43422W        W 4953  42.315  44.457  11.941
43423W        W 4954  43.808  12.349  11.938
43424W        W 4955  14.649  44.461   4.316
43425W        W 4956   7.208  16.316   3.377
43426W        W 4957  14.120   8.684   1.861
43427W        W 4958  42.290  35.001  10.895
43428W        W 4959  35.363  12.326  11.104
43429W        W 4960  31.620   2.387   1.288
43430W        W 4961  42.000   2.738  10.549
43431W        W 4962  34.400  44.932  10.641
43432W        W 4963  43.837  31.540   4.156
43433W        W 4964  36.475  30.569  10.051
43434W        W 4965  19.212  43.003  14.394
43435W        W 4966  15.294  41.853  10.937
43436W        W 4967  26.160  27.453  13.828
43437W        W 4968  26.518  42.495   4.627
43438W        W 4969  35.443   7.364   4.777
43439W        W 4970   7.359   6.890   2.875
43440W        W 4971  26.616  14.678  12.020
43441W        W 4972  31.002  10.171   3.345
43442W        W 4973  14.789  28.079  13.963
43443W        W 4974   7.286  38.867  11.998
43444W        W 4975   3.422  41.792   4.344
43445W        W 4976  24.719   2.948  13.884
43446W        W 4977  23.092  43.964  14.479
43447W        W 4978   3.712  22.644  14.973
43448W        W 4979  23.566  29.036   1.364
43449W        W 4980  34.466  22.215  13.432
43450W        W 4981   6.921  24.066   1.734
43451W        W 4982  26.167  40.807  12.443
43452W        W 4983  22.188  42.443   9.475
43453W        W 4984  39.408   5.857   3.299
43454W        W 4985  13.144  12.289   3.230
43455W        W 4986  25.143  28.488  10.424
43456W        W 4987  38.559  36.081   1.776
43457W        W 4988  26.173   2.893  11.503
43458W        W 4989  23.536  37.834  13.921
43459W        W 4990   4.786  25.172   1.297
43460W        W 4991  18.156  27.175  11.472
43461W        W 4992  11.667  43.480  10.085
43462W        W 4993  39.456   8.256   3.201
43463W        W 4994   7.667   4.320  14.832
43464W        W 4995  31.949  25.132  14.005
43465W        W 4996   3.792  40.847  14.506
43466W        W 4997  18.682  25.673  14.762
43467W        W 4998  35.922  11.836   2.675
43468W        W 4999  10.210  25.617  12.473
43469W        W 5000   9.240  17.078   4.754
43470W        W 5001   0.985  17.740   1.742
43471W        W 5002   5.428  40.460  11.586
43472W        W 5003   4.922  35.390   4.160
43473W        W 5004  34.941  34.484   3.203
43474W        W 5005  13.349  31.918  11.123
43475W        W 5006  44.408  33.478  13.054
43476W        W 5007  25.484  44.293   4.117
43477W        W 5008  17.152   9.647  13.343
43478W        W 5009   8.871  17.165   1.267
43479W        W 5010  14.096  25.060   3.278
43480W        W 5011  36.366   3.782   2.301
43481W        W 5012  35.601  17.792  14.800
43482W        W 5013  12.733  10.841   0.311
43483W        W 5014  40.481  25.648   0.425
43484W        W 5015  17.267  27.552  11.880
43485W        W 5016  18.228  17.100   0.957
43486W        W 5017  16.308  21.606  12.028
43487W        W 5018  41.480  15.622  11.910
43488W        W 5019  22.606  44.914   2.757
43489W        W 5020  24.032  34.930  13.992
43490W        W 5021  15.314  29.662   4.799
43491W        W 5022  35.485  16.279  14.770
43492W        W 5023  17.790  25.635   4.195
43493W        W 5024  16.167  29.622   1.861
43494W        W 5025  39.462  20.576   1.814
43495W        W 5026  34.965   0.886  11.442
43496W        W 5027  35.578  33.051  11.473
43497W        W 5028  40.441   4.288  10.547
43498W        W 5029  42.900  31.468  11.471
43499W        W 5030   7.671  29.961  12.948
43500W        W 5031  22.501  33.493   2.391
43501W        W 5032  42.331  26.989  10.563
43502W        W 5033  40.499  10.298   2.706
43503W        W 5034   3.770   6.331   3.670
43504W        W 5035  43.396  34.527   0.402
43505W        W 5036  32.028   9.813  10.940
43506W        W 5037  36.551  18.584  14.453
43507W        W 5038  25.587  18.068   0.917
43508W        W 5039  42.001  13.230   4.737
43509W        W 5040   3.858  14.143  12.836
43510W        W 5041  29.495  43.323   1.727
43511W        W 5042  35.474  39.883   3.156
43512W        W 5043  30.513  28.523  14.283
43513W        W 5044  23.506  11.787  11.593
43514W        W 5045   2.750  12.741  12.065
43515W        W 5046  19.661   7.851   2.778
43516W        W 5047  44.466  16.772   3.816
43517W        W 5048  42.283  20.647   4.252
43518W        W 5049   6.283  22.208   3.852
43519W        W 5050  38.409  12.361  11.451
43520W        W 5051   0.860  32.494   1.297
43521W        W 5052  40.443   3.852   4.314
43522W        W 5053   3.379  29.643   1.866
43523W        W 5054  39.830  34.439  10.623
43524W        W 5055  31.542  15.116   3.758
43525W        W 5056   4.211  26.574  13.461
43526W        W 5057  29.938   4.908  13.880
43527W        W 5058  44.009  43.958   1.314
43528W        W 5059  30.550  40.467   4.740
43529W        W 5060   5.760  39.840   4.174
43530W        W 5061   7.872  35.475  10.893
43531W        W 5062  16.310  39.330   0.341
43532W        W 5063  11.664  42.433  10.547
43533W        W 5064   6.408  40.989   4.713
43534W        W 5065  18.722   0.923  14.388
43535W        W 5066  31.550  35.898  12.500
43536W        W 5067   4.895  18.271   1.784
43537W        W 5068  37.953  28.554   3.369
43538W        W 5069  39.333   2.781  10.465
43539W        W 5070  43.946  38.043   0.356
43540W        W 5071  29.484  43.501  14.954
43541W        W 5072   2.351  18.630   0.437
43542W        W 5073  19.692   2.856  12.480
43543W        W 5074  11.642  27.953  13.315
43544W        W 5075   5.380   1.733  12.908
43545W        W 5076  39.544  32.024   2.775
43546W        W 5077  20.578  18.630   0.777
43547W        W 5078  34.890  37.913   2.364
43548W        W 5079  37.539  17.247   1.746
43549W        W 5080  43.509  33.540  12.566
43550W        W 5081  44.416  42.969   1.728
43551W        W 5082  13.349   0.792  13.515
43552W        W 5083  30.433  21.039   4.262
43553W        W 5084  42.868  31.951  11.505
43554W        W 5085  38.049   1.748   3.346
43555W        W 5086  12.687  44.887  12.887
43556W        W 5087  39.983  40.825   2.312
43557W        W 5088   8.212  27.471   3.385
43558W        W 5089  27.654   7.286  12.421
43559W        W 5090  26.585  16.765  10.936
43560W        W 5091  12.147  20.594  11.055
43561W        W 5092  22.728   3.930  14.277
43562W        W 5093  16.227  37.547  14.771
43563W        W 5094   6.363  41.009  12.437
43564W        W 5095  31.920  15.599  11.539
43565W        W 5096  42.473  13.715  14.832
43566W        W 5097  20.228  24.508   3.776
43567W        W 5098   3.433  44.502   4.759
43568W        W 5099  17.144  25.213   1.367
43569W        W 5100  36.888  37.831   3.202
43570W        W 5101   4.307  41.907  11.915
43571W        W 5102  43.833  23.158  14.513
43572W        W 5103  38.008  37.416   4.838
43573W        W 5104   0.896  25.194   2.194
43574W        W 5105  13.201   9.815   1.430
43575W        W 5106  30.485   5.794  11.385
43576W        W 5107   1.440  29.425  10.463
43577W        W 5108  30.964  14.722   3.845
43578W        W 5109  35.919  41.466   5.264
43579W        W 5110  33.020  29.542  13.855
43580W        W 5111   0.808  34.961  12.468
43581W        W 5112   7.199  25.175  11.522
43582W        W 5113  26.611  19.694   3.783
43583W        W 5114  25.092  28.035  14.869
43584W        W 5115  27.603  28.014   3.804
43585W        W 5116  24.119  37.446  13.941
43586W        W 5117  40.853   8.324  13.826
43587W        W 5118   1.785  26.089   0.847
43588W        W 5119  24.225   4.427   0.900
43589W        W 5120  29.586  21.577  12.956
43590W        W 5121  19.092  35.082   0.858
43591W        W 5122  35.981  37.353   0.300
43592W        W 5123  35.465   0.287   4.674
43593W        W 5124  35.048  44.006  13.433
43594W        W 5125  17.766   8.700   3.631
43595W        W 5126   1.838  16.266   3.635
43596W        W 5127  15.610  26.627   2.210
43597W        W 5128  34.379  22.643   0.416
43598W        W 5129  19.649  33.489  14.300
43599W        W 5130  13.158  29.918  10.435
43600W        W 5131  39.494   2.448  11.387
43601W        W 5132  29.493  22.223  14.962
43602W        W 5133   0.855  29.931  14.852
43603W        W 5134   7.797   7.690   4.689
43604W        W 5135  22.105  44.505   4.743
43605W        W 5136  28.533  22.650   2.228
43606W        W 5137   2.344  12.705   0.272
43607W        W 5138   1.891  28.170   1.439
43608W        W 5139  25.695  18.661   2.396
43609W        W 5140  22.689  36.972  13.901
43610W        W 5141  15.639  20.267  11.985
43611W        W 5142   3.768  40.498   0.437
43612W        W 5143  38.994  20.121   0.310
43613W        W 5144  22.113  29.489   3.257
43614W        W 5145  38.392  44.475  14.010
43615W        W 5146   7.824  43.018  11.573
43616W        W 5147  34.986  32.922  11.556
43617W        W 5148  35.380  25.135   1.449
43618W        W 5149   7.248   5.703  11.969
43619W        W 5150   4.719  30.096  11.602
43620W        W 5151  36.996  12.727   1.932
43621W        W 5152   7.728  27.963   0.326
43622W        W 5153  25.703  42.425  10.956
43623W        W 5154  42.405  12.194  10.961
43624W        W 5155  38.820  19.537   1.271
43625W        W 5156  37.982   8.881   0.449
43626W        W 5157   7.395  22.103   4.340
43627W        W 5158  17.269  33.516   4.641
43628W        W 5159   3.401  14.642  11.480
43629W        W 5160  16.666   1.319   4.347
43630W        W 5161  37.399   2.307  10.632
43631W        W 5162  23.229  29.936  14.503
43632W        W 5163  39.464   7.866  10.951
43633W        W 5164  17.747   5.276   2.297
43634W        W 5165  42.420  14.770   3.842
43635W        W 5166   6.704   4.799   1.336
43636W        W 5167  24.712  17.620  12.069
43637W        W 5168  40.515  16.308   2.664
43638W        W 5169  10.798  12.714  10.984
43639W        W 5170  40.411  14.823   1.261
43640W        W 5171  27.553  40.961  14.453
43641W        W 5172  15.722  28.452   2.362
43642W        W 5173  29.542  20.241  14.496
43643W        W 5174  20.679  14.218   1.377
43644W        W 5175  40.985   4.325  14.281
43645W        W 5176   9.326   7.229  10.526
43646W        W 5177  30.947  10.871  13.352
43647W        W 5178  16.591   8.223  12.968
43648W        W 5179   0.294   5.331   2.890
43649W        W 5180   3.218  32.018  12.370
43650W        W 5181  38.943  20.062  12.371
43651W        W 5182  16.257  20.582  10.548
43652W        W 5183  10.324  41.515   4.203
43653W        W 5184  13.705  42.328   3.871
43654W        W 5185  22.727   2.354  11.108
43655W        W 5186  17.587  41.311   3.680
43656W        W 5187  12.188  38.326  14.902
43657W        W 5188  23.101  17.773   0.463
43658W        W 5189   5.921  20.664  12.021
43659W        W 5190   5.929  16.583  14.022
43660W        W 5191   1.396  24.690  11.955
43661W        W 5192  28.493  40.807   2.866
43662W        W 5193  17.735  41.376   3.374
43663W        W 5194  22.571   2.759   2.744
43664W        W 5195  42.797  31.482  10.465
43665W        W 5196   2.891  23.578  12.966
43666W        W 5197  44.838  28.972   1.913
43667W        W 5198  41.485  25.973  14.355
43668W        W 5199  10.869  10.716   0.362
43669W        W 5200  42.023  38.372  11.442
43670W        W 5201  24.613  12.153  10.441
43671W        W 5202  38.962   9.741   0.886
43672W        W 5203  35.361  35.049   3.166
43673W        W 5204   5.705  44.348   0.839
43674W        W 5205  30.453  33.893   2.705
43675W        W 5206  41.482   6.746  12.027
43676W        W 5207  20.628  27.024  13.930
43677W        W 5208  17.646   5.918  13.856
43678W        W 5209   6.843  20.754  13.946
43679W        W 5210   9.684  28.009  11.114
43680W        W 5211   0.373  33.430   0.833
43681W        W 5212  23.004  33.620   5.305
43682W        W 5213  16.075  23.721   0.923
43683W        W 5214  21.030  39.361  13.448
43684W        W 5215  15.096  17.273   2.707
43685W        W 5216  19.206  23.028   1.868
43686W        W 5217  34.424   1.441  12.580
43687W        W 5218  27.661  37.025  13.413
43688W        W 5219  24.612   4.342  12.851
43689W        W 5220  10.654  32.606   0.946
43690W        W 5221  38.424  37.496   4.294
43691W        W 5222   9.732  15.144   1.742
43692W        W 5223  34.395  28.447  12.399
43693W        W 5224  28.168  20.124   2.693
43694W        W 5225  34.096   6.884   1.740
43695W        W 5226  39.856  13.828  11.072
43696W        W 5227   8.406  38.553  12.064
43697W        W 5228  12.287   4.361   5.257
43698W        W 5229   3.459  42.383  14.449
43699W        W 5230  40.911   0.389  12.957
43700W        W 5231  20.222  24.199   2.888
43701W        W 5232   4.340  34.120   4.254
43702W        W 5233  42.822  22.618   0.906
43703W        W 5234   2.810  38.454   0.937
43704W        W 5235  30.544  18.200   2.388
43705W        W 5236   4.724  13.198   2.307
43706W        W 5237  44.300  11.793  14.437
43707W        W 5238   1.915  29.102  12.444
43708W        W 5239  13.742  42.843   0.373
43709W        W 5240  15.585   6.823   0.291
43710W        W 5241  33.564   1.876  10.528
43711W        W 5242  34.412  19.134  11.092
43712W        W 5243   9.256   3.336  10.643
43713W        W 5244  24.670  16.221  13.870
43714W        W 5245  10.256   7.903  12.359
43715W        W 5246   3.353  12.646   3.383
43716W        W 5247   3.807  23.601   1.734
43717W        W 5248  28.648  21.201   1.228
43718W        W 5249   4.727  15.227  11.506
43719W        W 5250  41.355  39.949   2.325
43720W        W 5251   3.869  44.480  14.938
43721W        W 5252  19.121  30.910  14.298
43722W        W 5253  16.729  37.465  10.146
43723W        W 5254  34.473  30.121  14.983
43724W        W 5255   9.319  42.851  13.359
43725W        W 5256   3.270  15.688  14.276
43726W        W 5257  37.924   4.740   2.228
43727W        W 5258  26.480  21.175   1.370
43728W        W 5259   3.728  18.105  11.539
43729W        W 5260  18.621  32.624   3.683
43730W        W 5261  31.007  38.824   2.670
43731W        W 5262  18.106  28.055  10.510
43732W        W 5263  25.569  12.251  12.543
43733W        W 5264   1.287  34.521  13.805
43734W        W 5265  26.513  22.540  11.930
43735W        W 5266  19.246  26.652  11.378
43736W        W 5267   7.888   9.868  14.313
43737W        W 5268   9.764   5.322  12.026
43738W        W 5269  34.503  11.824  10.915
43739W        W 5270  37.067  19.068  11.942
43740W        W 5271  20.248  23.180   2.310
43741W        W 5272  22.743  23.146  11.392
43742W        W 5273  25.526   6.769   2.342
43743W        W 5274   7.215  44.811  14.799
43744W        W 5275  31.943   5.688  14.376
43745W        W 5276  11.297  27.019  13.867
43746W        W 5277  21.039  36.354  14.402
43747W        W 5278   8.810  16.102   0.379
43748W        W 5279  44.274   8.188  12.092
43749W        W 5280  28.983  16.144   4.787
43750W        W 5281   6.376  13.286   1.441
43751W        W 5282  34.448   7.402  12.830
43752W        W 5283   4.772  43.989   3.866
43753W        W 5284   7.218  30.149   4.792
43754W        W 5285   7.893  42.807   3.797
43755W        W 5286  38.902   0.485  11.386
43756W        W 5287  29.642  26.063   0.740
43757W        W 5288   3.455  29.504   3.244
43758W        W 5289  44.977   1.240  11.915
43759W        W 5290  12.633  34.415   9.979
43760W        W 5291  21.105   3.770  14.925
43761W        W 5292   2.818  33.448   1.377
43762W        W 5293  44.785  26.097  14.858
43763W        W 5294  43.354  24.146   2.307
43764W        W 5295  13.773  15.147   1.792
43765W        W 5296  30.016  42.471  11.415
43766W        W 5297  29.961  15.743   2.811
43767W        W 5298  27.488  23.093   3.364
43768W        W 5299   1.348   1.760   4.816
43769W        W 5300   1.923  32.444  13.810
43770W        W 5301  24.696  24.547   1.302
43771W        W 5302  16.693  24.679   1.908
43772W        W 5303  26.668  17.740   4.243
43773W        W 5304  13.642   9.188   3.700
43774W        W 5305  37.967  40.873   2.389
43775W        W 5306  40.496  39.032   5.312
43776W        W 5307  12.701  42.828  13.926
43777W        W 5308  28.163   6.794  14.795
43778W        W 5309  41.887  23.573  13.472
43779W        W 5310  21.603  35.884  12.507
43780W        W 5311   6.699   8.354  13.475
43781W        W 5312  12.256   1.778   5.584
43782W        W 5313   3.323  35.475   0.296
43783W        W 5314  19.151  33.625  13.514
43784W        W 5315   0.973  34.945   2.664
43785W        W 5316  38.881  40.479  13.999
43786W        W 5317   7.380  23.991   2.394
43787W        W 5318  21.523  12.853  13.878
43788W        W 5319  35.096  11.265  11.975
43789W        W 5320   3.243   5.827  14.439
43790W        W 5321  13.731   2.843  11.470
43791W        W 5322  21.220  21.017   4.802
43792W        W 5323   2.833  28.459   2.384
43793W        W 5324  26.609   3.309   0.313
43794W        W 5325  18.712  15.805  11.955
43795W        W 5326  38.904  37.909   4.735
43796W        W 5327  36.353  36.899   5.307
43797W        W 5328  17.297  24.516   0.904
43798W        W 5329   8.861  32.097  11.956
43799W        W 5330  39.453  32.593  12.023
43800W        W 5331  39.538  17.097  11.451
43801W        W 5332  26.546   7.720  10.560
43802W        W 5333  26.991  13.307   4.726
43803W        W 5334  14.645   2.262  13.543
43804W        W 5335  39.502  12.773  14.920
43805W        W 5336   0.780  21.112   1.265
43806W        W 5337  41.319  41.434   1.826
43807W        W 5338  23.118   6.209  14.461
43808W        W 5339  25.217  34.944   5.241
43809W        W 5340   4.267   5.271  14.799
43810W        W 5341  40.447  41.896  14.454
43811W        W 5342  19.613  17.082   2.867
43812W        W 5343   8.783  23.527  13.056
43813W        W 5344   3.807  33.044  11.085
43814W        W 5345   3.281  42.289  10.620
43815W        W 5346  27.631  23.077   4.217
43816W        W 5347  26.144   4.741   2.328
43817W        W 5348  19.113  31.540   4.212
43818W        W 5349   7.223  37.046  13.823
43819W        W 5350  41.426  31.141   0.281
43820W        W 5351   8.266  13.298  11.113
43821W        W 5352  38.068  25.653   2.351
43822W        W 5353  40.389  35.402  14.514
43823W        W 5354  33.615  38.356   3.241
43824W        W 5355   0.369   7.773   3.866
43825W        W 5356  35.395  21.120  12.022
43826W        W 5357  19.580  22.662   2.210
43827W        W 5358  28.488  19.764   0.375
43828W        W 5359  10.173  27.150   4.352
43829W        W 5360  23.228  29.664   0.368
43830W        W 5361   0.439   4.334   3.772
43831W        W 5362  37.407  13.846  12.038
43832W        W 5363  33.417  10.238   3.356
43833W        W 5364  26.573  42.015  13.487
43834W        W 5365  44.813  22.739  13.376
43835W        W 5366   2.451  39.984  13.910
43836W        W 5367  36.895  40.027   1.449
43837W        W 5368  34.074  26.629  14.441
43838W        W 5369  29.967  31.138   3.313
43839W        W 5370  31.645  42.996  11.015
43840W        W 5371  29.035  21.117  11.389
43841W        W 5372  13.671  17.168   4.144
43842W        W 5373   0.336  33.584   2.735
43843W        W 5374  11.252  39.350   0.247
43844W        W 5375   0.957  27.097  12.092
43845W        W 5376  17.067  20.257  10.639
43846W        W 5377  40.847  14.330  10.619
43847W        W 5378  28.941   6.785  14.020
43848W        W 5379   8.805  22.013   0.851
43849W        W 5380  16.114  28.602  12.850
43850W        W 5381  42.288  23.093  10.642
43851W        W 5382  19.563  25.513   5.211
43852W        W 5383  39.875  23.152  12.896
43853W        W 5384  28.670   3.279  13.999
43854W        W 5385  26.693  18.252  11.107
43855W        W 5386  43.344  43.346   4.205
43856W        W 5387  22.675  37.036   2.258
43857W        W 5388  14.331  31.525  12.047
43858W        W 5389   6.703  42.961   0.442
43859W        W 5390  17.136  19.190   0.397
43860W        W 5391   3.852   7.410  10.042
43861W        W 5392  43.839  41.803  13.486
43862W        W 5393  33.111  28.611   3.278
43863W        W 5394  15.743   9.289   4.257
43864W        W 5395  34.397  20.269   2.799
43865W        W 5396  40.377  11.685  14.470
43866W        W 5397  12.161  10.747  10.610
43867W        W 5398  19.209  18.768   4.211
43868W        W 5399  22.128   3.821   3.854
43869W        W 5400  39.521   7.867  11.910
43870W        W 5401   3.262  15.220   4.641
43871W        W 5402  37.527   0.859  11.002
43872W        W 5403  41.788  37.393   3.385
43873W        W 5404   4.708  40.537   1.307
43874W        W 5405  41.462  17.181  13.855
43875W        W 5406  32.919   1.286  10.588
43876W        W 5407  24.537  41.981   2.816
43877W        W 5408  14.757   5.712  13.950
43878W        W 5409  22.640  31.123   3.178
43879W        W 5410  33.554   4.842  11.393
43880W        W 5411  14.121   2.459  12.463
43881W        W 5412  21.241   7.875   4.623
43882W        W 5413  37.026  43.423   4.828
43883W        W 5414  23.632  26.461   3.836
43884W        W 5415   4.400  42.527  11.068
43885W        W 5416  19.535  25.623   1.259
43886W        W 5417  28.002  25.003  14.849
43887W        W 5418   8.215  29.975  11.030
43888W        W 5419   6.914  26.680  14.897
43889W        W 5420  36.352  17.612  13.451
43890W        W 5421  29.928  22.009  13.935
43891W        W 5422   7.202  32.954   4.189
43892W        W 5423  24.063   7.853   0.931
43893W        W 5424   7.845  39.334   3.349
43894W        W 5425  17.629  11.780  10.474
43895W        W 5426  33.902  28.502  14.941
43896W        W 5427  24.995  40.941   3.168
43897W        W 5428  40.516  27.021   3.381
43898W        W 5429   2.391  32.141   5.141
43899W        W 5430   4.729   6.817  11.583
43900W        W 5431  44.917  26.044   1.715
43901W        W 5432   7.173  30.058  10.640
43902W        W 5433  14.805  31.968  11.385
43903W        W 5434  13.152  35.027   5.131
43904W        W 5435  37.563  27.986  11.431
43905W        W 5436   7.319  34.070   3.652
43906W        W 5437  10.297  35.503   4.648
43907W        W 5438   3.413  28.055  13.357
43908W        W 5439  42.831  33.395   1.313
43909W        W 5440   3.290   4.882  10.510
43910W        W 5441  23.985  15.592   2.333
43911W        W 5442  18.565   8.821   3.801
43912W        W 5443  13.693  19.074  10.556
43913W        W 5444  20.242  23.030  13.832
43914W        W 5445  20.097  42.978   3.216
43915W        W 5446  24.637  15.595   0.771
43916W        W 5447   6.283   0.844   4.354
43917W        W 5448   0.851   8.734   0.733
43918W        W 5449  16.077   1.802   1.746
43919W        W 5450  25.508   6.289  14.771
43920W        W 5451  39.459  36.944  10.595
43921W        W 5452  40.496  11.856  10.631
43922W        W 5453   7.310  33.573   0.251
43923W        W 5454  38.414  18.717  13.981
43924W        W 5455  36.075  41.883   4.290
43925W        W 5456  44.472  11.793   1.843
43926W        W 5457  18.715   3.415  11.095
43927W        W 5458  44.439  19.168   1.417
43928W        W 5459  26.675  14.307  10.992
43929W        W 5460  39.434  19.688  13.486
43930W        W 5461  16.306  36.577  13.447
43931W        W 5462  34.035  17.105   3.857
43932W        W 5463   8.839  26.670   4.354
43933W        W 5464  29.559   8.320  13.982
43934W        W 5465   5.759  33.596  13.966
43935W        W 5466   4.330  39.048   1.748
43936W        W 5467   8.227  40.831   4.715
43937W        W 5468  32.025  22.602   4.159
43938W        W 5469  38.534  24.553   3.347
43939W        W 5470  42.814   7.282  14.312
43940W        W 5471  39.470   9.276   5.157
43941W        W 5472  37.048  38.897   3.645
43942W        W 5473  13.349  43.860  12.491
43943W        W 5474  32.964  20.082   3.358
43944W        W 5475  19.694  17.291  11.085
43945W        W 5476  20.217  17.175  10.975
43946W        W 5477  15.815  43.512  12.896
43947W        W 5478  39.978  12.720  11.977
43948W        W 5479  38.370  44.260  11.502
43949W        W 5480  21.712  18.248   1.421
43950W        W 5481  32.977  10.687  10.630
43951W        W 5482  40.883  11.805   4.627
43952W        W 5483  14.754  43.291   4.663
43953W        W 5484  32.440   8.862  12.956
43954W        W 5485  21.711  44.499  10.965
43955W        W 5486  14.181  34.002  12.026
43956W        W 5487  26.099  22.644   4.267
43957W        W 5488   5.221  33.446  10.027
43958W        W 5489  31.508  34.370  14.774
43959W        W 5490  26.150  34.896  12.885
43960W        W 5491   4.892  38.521  11.476
43961W        W 5492  42.940  25.480  10.958
43962W        W 5493  18.111   8.760  14.423
43963W        W 5494  30.464  28.628  13.511
43964W        W 5495   9.713   4.414   0.753
43965W        W 5496  44.394  44.347   4.728
43966W        W 5497  38.454  18.592   1.303
43967W        W 5498   2.328   3.399  14.886
43968W        W 5499  14.275  20.189  10.563
43969W        W 5500  23.112  34.996  10.986
43970W        W 5501  41.039   3.332   4.267
43971W        W 5502  13.725   4.896   0.924
43972W        W 5503  28.075  31.451   1.892
43973W        W 5504  21.097  15.165  14.896
43974W        W 5505  25.099  21.714  13.420
43975W        W 5506  26.684  21.251   4.166
43976W        W 5507  42.804  10.778  12.483
43977W        W 5508  32.498  27.635   4.270
43978W        W 5509  38.834   3.835  11.573
43979W        W 5510  44.833  27.019   0.844
43980W        W 5511  20.530  30.067   1.242
43981W        W 5512   2.240   0.848  13.362
43982W        W 5513  39.410  44.364  10.118
43983W        W 5514   5.860  16.146   3.757
43984W        W 5515   1.342  18.660   0.304
43985W        W 5516  18.642  31.936   2.193
43986W        W 5517   3.390  21.623  13.430
43987W        W 5518   7.802   3.821  10.572
43988W        W 5519  31.605  44.274   2.804
43989W        W 5520   4.444   0.840   3.282
43990W        W 5521  31.043  43.466  10.433
43991W        W 5522  13.288  31.041  13.531
43992W        W 5523  25.492   3.326   4.810
43993W        W 5524   8.372  22.594  13.982
43994W        W 5525  30.565  42.914   0.258
43995W        W 5526  17.781  41.467   4.138
43996W        W 5527  18.193   8.302   0.280
43997W        W 5528  42.994  18.630  13.483
43998W        W 5529  10.712   4.760  10.513
43999W        W 5530   2.760   2.279   1.336
44000W        W 5531  40.828  40.323   3.759
44001W        W 5532  29.640  10.258   0.891
44002W        W 5533  21.541   4.355  11.875
44003W        W 5534  14.625   8.276   0.955
44004W        W 5535   6.364  14.607  14.372
44005W        W 5536  37.458  21.134  11.876
44006W        W 5537  13.622   3.264   0.375
44007W        W 5538  12.685  31.070  12.869
44008W        W 5539  11.281   3.760  14.427
44009W        W 5540  33.104  33.977   3.305
44010W        W 5541  40.409  36.080   1.381
44011W        W 5542  29.062  18.569  12.393
44012W        W 5543   9.869   9.752  10.955
44013W        W 5544  31.448  28.097   0.322
44014W        W 5545  20.210  33.951  12.540
44015W        W 5546  26.157  14.190  10.643
44016W        W 5547  13.762  36.562   2.724
44017W        W 5548  28.998  23.597   4.267
44018W        W 5549  29.045  12.699   3.151
44019W        W 5550  15.129  19.163   1.427
44020W        W 5551  44.940  11.684  13.340
44021W        W 5552   9.229  32.521  14.794
44022W        W 5553  22.998  15.134  12.050
44023W        W 5554  35.372   8.330  12.943
44024W        W 5555   6.269  31.899   3.843
44025W        W 5556  16.187  10.345  14.814
44026W        W 5557  42.918   0.851  11.372
44027W        W 5558  26.975  34.938   0.802
44028W        W 5559  44.412  44.410  13.932
44029W        W 5560   8.203  24.081   3.747
44030W        W 5561  15.317   4.293  14.838
44031W        W 5562  11.220   3.307   2.851
44032W        W 5563  29.636  38.961   1.440
44033W        W 5564  36.985   9.290   1.874
44034W        W 5565  17.293  10.166  10.595
44035W        W 5566  27.565  34.414  11.399
44036W        W 5567  36.476  40.983   4.668
44037W        W 5568  41.022  28.616  11.113
44038W        W 5569   5.707  41.026   0.248
44039W        W 5570  18.119   3.800   2.319
44040W        W 5571  24.120   0.780  12.957
44041W        W 5572  35.567  15.591   5.587
44042W        W 5573   7.256   4.799   5.264
44043W        W 5574  20.100  30.528  10.988
44044W        W 5575  20.629  36.863  10.433
44045W        W 5576  42.006  12.756   1.767
44046W        W 5577  30.492  35.086  11.071
44047W        W 5578  11.650  25.024   4.666
44048W        W 5579  42.969  14.810  11.476
44049W        W 5580  42.869  10.801  12.897
44050W        W 5581   8.348  31.639   4.247
44051W        W 5582   2.355  25.198   2.824
44052W        W 5583   9.334  43.916   0.821
44053W        W 5584  14.753  44.929  12.391
44054W        W 5585  24.603   0.947  11.091
44055W        W 5586  42.836   9.327  13.446
44056W        W 5587   6.364  13.180  14.484
44057W        W 5588  26.629  16.200  11.412
44058W        W 5589   1.377  21.020  11.124
44059W        W 5590  38.420  15.716  14.443
44060W        W 5591   1.306   7.807  10.468
44061W        W 5592  36.056  10.166  13.323
44062W        W 5593  41.464  10.794   3.700
44063W        W 5594   3.735  17.163  12.055
44064W        W 5595   7.240   8.354   1.816
44065W        W 5596  18.653   1.811  14.440
44066W        W 5597  44.407  15.637  14.431
44067W        W 5598  14.160   8.274  13.446
44068W        W 5599   9.304  11.742   0.833
44069W        W 5600  24.708  21.099  12.505
44070W        W 5601  30.112  18.585   2.303
44071W        W 5602  16.134  30.462  14.822
44072W        W 5603  13.289  27.615   3.658
44073W        W 5604  44.380  15.156   4.830
44074W        W 5605  33.089  43.819   1.334
44075W        W 5606  20.620  15.224   1.756
44076W        W 5607   3.908   8.664   2.880
44077W        W 5608  31.564  16.107   5.114
44078W        W 5609  23.733  20.054  14.501
44079W        W 5610  19.615  11.712  12.572
44080W        W 5611  19.749  42.779   3.711
44081W        W 5612  34.476  39.974   0.881
44082W        W 5613  33.114  13.832  14.878
44083W        W 5614  39.495  36.090   4.626
44084W        W 5615  17.574  32.035   0.360
44085W        W 5616  23.629  28.115  14.014
44086W        W 5617  28.471  44.791   2.816
44087W        W 5618   9.837   8.789   0.819
44088W        W 5619  34.878  42.787   3.346
44089W        W 5620  20.199   1.822  10.094
44090W        W 5621  24.154  38.463   2.226
44091W        W 5622   2.321  33.429  10.584
44092W        W 5623  20.230  42.439   4.337
44093W        W 5624  13.255  10.326  11.561
44094W        W 5625  28.479  19.749  12.541
44095W        W 5626  32.571  34.384   4.172
44096W        W 5627  44.859   6.755  10.632
44097W        W 5628  31.132  26.204  11.569
44098W        W 5629  37.564  32.426  14.765
44099W        W 5630   3.798  23.669   0.250
44100W        W 5631   7.229  23.672   3.629
44101W        W 5632   7.242  44.835   4.221
44102W        W 5633  16.623  12.208  14.347
44103W        W 5634  18.593   9.298   0.408
44104W        W 5635   9.335  19.753   3.799
44105W        W 5636  25.578  12.799   3.750
44106W        W 5637  44.322  15.701  10.607
44107W        W 5638  11.133  28.533   3.695
44108W        W 5639   5.923  43.795   3.312
44109W        W 5640  26.040  44.505   2.370
44110W        W 5641  29.071  10.292   5.165
44111W        W 5642  32.099  22.056  12.855
44112W        W 5643  20.224  22.108   2.832
44113W        W 5644   9.323  21.695   0.388
44114W        W 5645  20.232  10.695   2.378
44115W        W 5646   2.958  39.330   4.210
44116W        W 5647  18.708  16.622  12.490
44117W        W 5648  26.098  35.939   1.424
44118W        W 5649   3.243  15.296  13.932
44119W        W 5650   3.312  26.660  11.867
44120W        W 5651   2.400  25.000   2.327
44121W        W 5652   0.749   1.301   2.711
44122W        W 5653  21.674  15.292   0.353
44123W        W 5654   1.266  13.758   3.307
44124W        W 5655  35.958  42.011  12.933
44125W        W 5656  17.789  44.812   2.416
44126W        W 5657   6.719   4.834  14.907
44127W        W 5658   7.390   3.250   3.780
44128W        W 5659  25.193  15.244   3.682
44129W        W 5660  30.092   9.216  12.420
44130W        W 5661  33.550   5.732  11.971
44131W        W 5662  15.764   1.382  13.062
44132W        W 5663  16.712  14.715  13.511
44133W        W 5664  33.013  26.671   0.775
44134W        W 5665  40.016  16.123   2.784
44135W        W 5666  11.244  25.152   4.691
44136W        W 5667   0.877  36.554  11.581
44137W        W 5668  20.090  39.488   0.328
44138W        W 5669   0.918  32.021  11.380
44139W        W 5670  25.675  14.707   0.359
44140W        W 5671   8.260  32.429  11.570
44141W        W 5672  29.081  25.172   4.316
44142W        W 5673   4.764   4.415   0.781
44143W        W 5674  21.228  23.988   3.747
44144W        W 5675  15.147   5.433   1.858
44145W        W 5676  17.195   3.402  10.514
44146W        W 5677  31.592  41.794   2.825
44147W        W 5678   9.189  12.833  12.043
44148W        W 5679   6.407  18.237  14.798
44149W        W 5680  44.327  15.644  12.461
44150W        W 5681  23.544   8.180   1.706
44151W        W 5682  40.034  33.910  10.436
44152W        W 5683  30.146  39.351   0.822
44153W        W 5684   7.235  43.343  10.624
44154W        W 5685  44.288   5.319   0.256
44155W        W 5686  39.048   1.331  10.616
44156W        W 5687   6.185  29.611   0.428
44157W        W 5688  21.167  27.596  14.003
44158W        W 5689  29.522   7.209   0.764
44159W        W 5690   2.899  29.511  14.469
44160W        W 5691  17.118  26.538   3.845
44161W        W 5692  12.662  21.596  13.424
44162W        W 5693   4.340  44.458  12.846
44163W        W 5694   2.463   4.265   2.733
44164W        W 5695  36.485   0.777   1.804
44165W        W 5696   2.382   6.921  10.472
44166W        W 5697   9.864  31.136  13.941
44167W        W 5698  18.054  31.931   0.777
44168W        W 5699  36.363  43.401  12.504
44169W        W 5700  41.925  41.889   0.884
44170W        W 5701   6.751  13.122   2.196
44171W        W 5702  22.706  26.537   1.319
44172W        W 5703  13.743  10.786   0.858
44173W        W 5704   8.716  43.782   0.864
44174W        W 5705   9.848  27.006   0.733
44175W        W 5706  20.072  14.827  12.464
44176W        W 5707  43.929  28.973  14.994
44177W        W 5708   6.229  29.545  13.382
44178W        W 5709   3.334  17.229   1.254
44179W        W 5710  23.539  26.148   4.178
44180W        W 5711  33.034  14.737   2.796
44181W        W 5712  27.008  10.164   1.882
44182W        W 5713   6.328  28.647   1.258
44183W        W 5714  40.318  11.770   1.776
44184W        W 5715   3.402   1.883   0.289
44185W        W 5716   2.345  40.969   1.440
44186W        W 5717  43.344  39.904   0.251
44187W        W 5718  24.481  19.263  11.884
44188W        W 5719  25.526  13.105   0.336
44189W        W 5720   2.852   7.848   4.243
44190W        W 5721  40.907  18.185  14.482
44191W        W 5722  17.298  24.021  14.275
44192W        W 5723  28.469   8.291   1.907
44193W        W 5724  44.974  18.617   4.662
44194W        W 5725   9.853  42.482   1.843
44195W        W 5726  14.146  14.297  12.877
44196W        W 5727  41.880   3.718   3.200
44197W        W 5728  40.857  16.136  11.926
44198W        W 5729  16.646  38.821   2.373
44199W        W 5730  10.767  36.581  10.888
44200W        W 5731  16.299  34.054   0.898
44201W        W 5732   4.411   8.865   4.336
44202W        W 5733  13.768   3.820  13.044
44203W        W 5734  36.412  23.682   4.650
44204W        W 5735   6.798  15.672   3.177
44205W        W 5736  31.915  29.063   0.855
44206W        W 5737   1.754  43.007   0.909
44207W        W 5738   2.888  15.805  12.826
44208W        W 5739  24.492  17.282   0.272
44209W        W 5740   4.266  35.453  13.810
44210W        W 5741   3.305  11.805   1.800
44211W        W 5742  42.341  16.786  10.993
44212W        W 5743  31.075  17.066   4.247
44213W        W 5744   0.388  20.708   2.770
44214W        W 5745  41.880  17.639  11.880
44215W        W 5746   6.210  22.143  10.975
44216W        W 5747  19.206  26.624   1.325
44217W        W 5748  23.565   1.474  13.942
44218W        W 5749   7.268  11.241  12.051
44219W        W 5750  12.780  10.876  14.940
44220W        W 5751   2.857  33.453   0.841
44221W        W 5752  43.292  20.224   1.790
44222W        W 5753   5.238  14.161  14.806
44223W        W 5754   0.835  38.882   4.671
44224W        W 5755  25.623  15.323   2.742
44225W        W 5756  38.923  12.299  13.972
44226W        W 5757  41.397   2.312   4.653
44227W        W 5758   5.327   2.423  14.844
44228W        W 5759   0.923  25.965   2.678
44229W        W 5760  16.569   7.872  10.483
44230W        W 5761  10.740  15.755   0.897
44231W        W 5762  28.499  33.070  11.536
44232W        W 5763  41.938  35.993   0.277
44233W        W 5764  39.881  23.105  14.782
44234W        W 5765  43.339  13.218   2.408
44235W        W 5766  11.287  16.711   4.720
44236W        W 5767  23.100  19.769  14.316
44237W        W 5768  16.621  44.445  10.475
44238W        W 5769  44.855  40.451  12.577
44239W        W 5770  16.635  13.160  10.935
44240W        W 5771  21.605   1.450  14.925
44241W        W 5772  16.148  11.129   1.398
44242W        W 5773  15.604   6.878   1.909
44243W        W 5774  43.453  37.581   2.314
44244W        W 5775  20.175  43.902   2.669
44245W        W 5776  27.614   1.752  14.379
44246W        W 5777  12.730  28.498  13.803
44247W        W 5778   7.827   6.428  12.897
44248W        W 5779   9.291   4.858   4.224
44249W        W 5780  41.413  22.624  12.946
44250W        W 5781   2.373  31.489  11.056
44251W        W 5782  15.309  33.975  14.821
44252W        W 5783  11.202  21.726   3.664
44253W        W 5784  24.997   2.462  11.122
44254W        W 5785  12.647  14.627   3.163
44255W        W 5786  42.415  34.116   2.347
44256W        W 5787  32.527  38.391  14.410
44257W        W 5788  43.328  31.517   2.370
44258W        W 5789   5.210  13.282  11.099
44259W        W 5790  43.952   0.876   4.274
44260W        W 5791  21.088   2.391  14.319
44261W        W 5792   7.414   6.871   4.812
44262W        W 5793  41.933  32.536   3.679
44263W        W 5794   5.846  25.531  13.426
44264W        W 5795  38.549  13.679   5.270
44265W        W 5796   2.766  32.092   4.328
44266W        W 5797   9.802   1.455   2.246
44267W        W 5798  19.612  17.729  14.478
44268W        W 5799  32.527  37.436  12.064
44269W        W 5800   1.780  12.168  13.472
44270W        W 5801   0.861  38.477  14.003
44271W        W 5802  36.007  25.587  11.448
44272W        W 5803  36.354  34.108   1.822
44273W        W 5804  33.556  13.300  12.423
44274W        W 5805   3.748  28.506  13.334
44275W        W 5806  13.766  38.515  11.009
44276W        W 5807   4.769  20.083  12.979
44277W        W 5808  42.395  24.046   2.894
44278W        W 5809  17.681   6.284  12.950
44279W        W 5810   6.331  35.570  13.309
44280W        W 5811   2.469  41.422  13.791
44281W        W 5812  23.608  17.241  12.024
44282W        W 5813  23.612   6.424  11.517
44283W        W 5814  35.385   9.876  10.968
44284W        W 5815  32.081  38.900  10.563
44285W        W 5816  19.642  41.392  13.031
44286W        W 5817   0.773  40.807   0.927
44287W        W 5818  30.155  29.994  14.455
44288W        W 5819  41.815  39.544   2.322
44289W        W 5820  35.868   4.250   0.754
44290W        W 5821  34.964  44.361  11.128
44291W        W 5822  21.673   3.718  11.122
44292W        W 5823  24.999  11.636   4.622
44293W        W 5824  25.541  25.645  13.918
44294W        W 5825  38.528  17.263   4.697
44295W        W 5826  31.957  43.488   0.822
44296W        W 5827  35.362   0.303  14.422
44297W        W 5828  34.484   1.334   3.759
44298W        W 5829  39.898  21.628  11.892
44299W        W 5830  35.420  23.542  10.519
44300W        W 5831  43.410   6.290  13.923
44301W        W 5832  14.235   0.422   2.834
44302W        W 5833  44.761  39.507  11.524
44303W        W 5834   4.292   2.808   2.325
44304W        W 5835  25.609  11.656   1.312
44305W        W 5836  35.878  19.655   2.700
44306W        W 5837  43.911  19.125  12.964
44307W        W 5838  24.166  25.002  10.534
44308W        W 5839  42.485   5.841   3.217
44309W        W 5840  33.565  33.090   3.250
44310W        W 5841   6.422  37.856  10.934
44311W        W 5842  27.588  29.997  14.017
44312W        W 5843  36.082   7.886  12.933
44313W        W 5844   8.760  32.598  12.076
44314W        W 5845   4.334  35.551   3.217
44315W        W 5846  41.436  15.703  14.945
44316W        W 5847  33.596   5.413   4.137
44317W        W 5848  14.789   6.393  10.584
44318W        W 5849  21.602  24.036  11.967
44319W        W 5850   7.877  40.920  11.492
44320W        W 5851  30.083  18.565   4.796
44321W        W 5852  11.664  28.676  10.456
44322W        W 5853  16.117  15.816   4.598
44323W        W 5854  13.347  24.482  13.885
44324W        W 5855  25.180  10.305  10.933
44325W        W 5856  43.376  32.058  10.921
44326W        W 5857  27.097  18.285  10.557
44327W        W 5858  12.805  11.137  13.322
44328W        W 5859  29.133  20.659   1.407
44329W        W 5860   5.347  36.922   4.804
44330W        W 5861   7.222   6.873  14.390
44331W        W 5862   1.915  41.519  10.545
44332W        W 5863  26.621  44.360   4.759
44333W        W 5864  18.295  18.193  11.433
44334W        W 5865  33.966  32.081  12.916
44335W        W 5866   2.443  17.259  13.389
44336W        W 5867  22.030   4.700  11.092
44337W        W 5868  13.631   2.839   2.215
44338W        W 5869  22.072  30.513  12.084
44339W        W 5870  22.197  40.844   0.258
44340W        W 5871  43.385  11.275  14.859
44341W        W 5872  25.712  22.196  13.319
44342W        W 5873  13.154  31.997  13.438
44343W        W 5874  19.038  34.591  12.525
44344W        W 5875  11.664  26.966   2.383
44345W        W 5876  32.539   1.733   3.840
44346W        W 5877  10.704   4.417   0.811
44347W        W 5878  38.470  43.824   4.257
44348W        W 5879  44.007  14.633   1.719
44349W        W 5880  44.821  16.644   4.714
44350W        W 5881  28.625  28.592  12.880
44351W        W 5882  12.347  18.190  11.403
44352W        W 5883  24.155  21.515  10.456
44353W        W 5884   0.886  22.546  14.978
44354W        W 5885  25.517  41.908   0.395
44355W        W 5886   1.421   3.876   4.274
44356W        W 5887  20.637   6.189  14.364
44357W        W 5888  21.062  14.609  14.808
44358W        W 5889  44.344  33.546  11.534
44359W        W 5890  22.647  16.772   3.340
44360W        W 5891  37.991   2.392  13.336
44361W        W 5892  35.017   6.768   2.769
44362W        W 5893   4.423   6.307  11.586
44363W        W 5894  38.509  26.052  12.339
44364W        W 5895  12.341  29.558  12.887
44365W        W 5896  41.391  40.456   0.808
44366W        W 5897  22.695  42.314   5.230
44367W        W 5898  12.730  32.083  13.488
44368W        W 5899  14.620  38.834   0.728
44369W        W 5900  29.172  35.497   3.786
44370W        W 5901  36.413  14.673  13.058
44371W        W 5902  18.244  18.699   2.333
44372W        W 5903  12.816  44.271  14.806
44373W        W 5904  43.488  14.176   1.871
44374W        W 5905  42.000  30.536   3.788
44375W        W 5906   4.413  21.123   2.772
44376W        W 5907  44.357  10.341  12.398
44377W        W 5908  15.218   1.830  12.862
44378W        W 5909  15.649  10.187   3.238
44379W        W 5910   2.731  10.837  12.451
44380W        W 5911  22.693  27.652   4.742
44381W        W 5912  34.461   0.864  13.507
44382W        W 5913   5.839  16.693  14.920
44383W        W 5914  20.221  40.011  11.926
44384W        W 5915  25.547   6.808  13.818
44385W        W 5916   1.892  23.021  13.433
44386W        W 5917  33.530   2.388   0.739
44387W        W 5918  22.514  37.957  12.344
44388W        W 5919  33.054  41.936  11.373
44389W        W 5920  39.019  17.115   1.741
44390W        W 5921  39.505  37.069   0.294
44391W        W 5922  27.547   2.851  10.561
44392W        W 5923  44.272   4.703   3.756
44393W        W 5924   6.795   3.921   2.363
44394W        W 5925  42.010  35.601  14.994
44395W        W 5926   9.701  40.481   1.279
44396W        W 5927  22.658  25.059  14.879
44397W        W 5928  11.148   0.308   0.862
44398W        W 5929   1.826  20.122   1.699
44399W        W 5930  28.665  22.626   0.480
44400W        W 5931   2.450  44.933   2.717
44401W        W 5932  11.239  24.102   2.186
44402W        W 5933  26.562  22.185  11.901
44403W        W 5934   9.756  31.945  13.842
44404W        W 5935  24.098  17.768  14.440
44405W        W 5936   6.242   5.252  12.384
44406W        W 5937  44.888  35.862   1.223
44407W        W 5938   0.305   6.264   2.390
44408W        W 5939  36.378   2.378  12.946
44409W        W 5940   8.248  41.451  14.023
44410W        W 5941  43.820   7.758  12.511
44411W        W 5942  42.438  32.473  11.960
44412W        W 5943  25.100  24.030  10.475
44413W        W 5944   1.887  35.468  13.870
44414W        W 5945  20.679   0.258   2.243
44415W        W 5946  24.093   9.228  11.099
44416W        W 5947  32.044  12.315   3.775
44417W        W 5948  44.424   0.947  10.463
44418W        W 5949  39.017  32.510  13.886
44419W        W 5950  43.901  27.072   3.155
44420W        W 5951  33.493  24.502  13.014
44421W        W 5952  43.862  20.108   1.857
44422W        W 5953   7.194  41.909  10.913
44423W        W 5954  26.668  33.499  11.442
44424W        W 5955  16.789  11.274  13.504
44425W        W 5956  13.776  32.046   3.762
44426W        W 5957   6.716  37.966  12.562
44427W        W 5958  17.696  31.121   2.356
44428W        W 5959  33.528  28.070  11.110
44429W        W 5960   0.392  22.686   2.867
44430W        W 5961  39.989  32.401  13.822
44431W        W 5962  21.247   6.391   4.666
44432W        W 5963  20.695  36.365  13.813
44433W        W 5964  38.892  33.923  14.791
44434W        W 5965  31.100   0.458  13.914
44435W        W 5966  30.517   1.292  13.508
44436W        W 5967  22.127  15.609   2.336
44437W        W 5968  30.632  24.055  13.372
44438W        W 5969   2.332  31.529   2.178
44439W        W 5970  24.621  16.726  10.592
44440W        W 5971  36.548  28.058  10.476
44441W        W 5972  35.506  37.387  12.905
44442W        W 5973  35.926  25.182  11.868
44443W        W 5974  26.172  14.807  13.813
44444W        W 5975   7.384  30.966   2.240
44445W        W 5976  22.080   7.894  14.399
44446W        W 5977  15.106  33.551   9.555
44447W        W 5978  37.480  31.634  12.093
44448W        W 5979   4.831  15.807   1.424
44449W        W 5980  23.638   3.270  11.934
44450W        W 5981  37.537  19.271  11.435
44451W        W 5982  42.477  35.601  10.642
44452W        W 5983  23.059   1.407   0.398
44453W        W 5984  42.822  41.538  11.534
44454W        W 5985  38.987  34.405  13.394
44455W        W 5986  23.666  28.975  12.524
44456W        W 5987   7.270  15.323   1.316
44457W        W 5988  35.464   3.293  13.946
44458W        W 5989   0.926  16.764  13.990
44459W        W 5990   9.718   1.850   2.411
44460W        W 5991  41.841   1.894   3.786
44461W        W 5992  22.023   1.465   3.152
44462W        W 5993  28.499  30.960  14.492
44463W        W 5994  24.006   7.717   0.420
44464W        W 5995   9.797  13.292   1.855
44465W        W 5996  25.610  44.356   5.118
44466W        W 5997  25.998  23.652   2.875
44467W        W 5998  34.445   0.456  11.049
44468W        W 5999  43.381  37.457  11.511
44469W        W 6000   5.842  34.932   3.734
44470W        W 6001  22.189  18.556   1.774
44471W        W 6002  36.881  24.505  13.886
44472W        W 6003  39.040   6.823  11.601
44473W        W 6004  35.453  27.096  12.574
44474W        W 6005  20.215  26.203  13.323
44475W        W 6006  24.723   2.857  12.888
44476W        W 6007   5.899  10.159  14.809
44477W        W 6008   4.721  30.038  10.616
44478W        W 6009  23.051   8.676   4.289
44479W        W 6010   9.851  26.115  11.550
44480W        W 6011  39.490   7.678  13.871
44481W        W 6012  18.050  20.585   2.703
44482W        W 6013  39.821  15.824  12.890
44483W        W 6014  43.939  42.926   0.448
44484W        W 6015  30.644  15.791  11.399
44485W        W 6016  32.415  11.655  14.774
44486W        W 6017  27.163  15.115   4.298
44487W        W 6018  32.441  29.576  12.054
44488W        W 6019   9.646   0.945  12.011
44489W        W 6020  19.565  40.303   3.239
44490W        W 6021  21.523   0.756  12.972
44491W        W 6022   6.381   3.383  10.476
44492W        W 6023   1.466  10.648  10.471
44493W        W 6024   3.931  39.325  11.944
44494W        W 6025  35.944  33.883  14.434
44495W        W 6026  44.783  34.867   2.255
44496W        W 6027  22.735  14.689   3.212
44497W        W 6028  37.010  17.209   0.363
44498W        W 6029   0.283   6.732   4.258
44499W        W 6030   4.700  11.864  12.446
44500W        W 6031  38.434  16.294   1.310
44501W        W 6032  41.527  20.162  13.043
44502W        W 6033  16.129  29.960   2.820
44503W        W 6034   0.766  24.043   5.265
44504W        W 6035  21.039  18.126  13.842
44505W        W 6036  42.313  15.204  12.060
44506W        W 6037  26.154  29.557  13.469
44507W        W 6038   0.420  43.474   2.400
44508W        W 6039  17.167   0.797   4.834
44509W        W 6040  32.423   7.344  13.336
44510W        W 6041  44.787   4.852   1.395
44511W        W 6042  42.022  44.474  10.517
44512W        W 6043  37.860  25.106  11.436
44513W        W 6044  26.697   7.708  12.570
44514W        W 6045   5.815   2.411   1.303
44515W        W 6046   6.195  23.228   1.242
44516W        W 6047   1.976  34.060  11.978
44517W        W 6048  16.590  12.344   4.748
44518W        W 6049  37.437   0.364  11.867
44519W        W 6050  25.139  23.019  12.341
44520W        W 6051  13.173  38.552   2.769
44521W        W 6052  36.379  40.889  13.512
44522W        W 6053   1.970   3.224   2.877
44523W        W 6054  10.878  32.546  14.015
44524W        W 6055  38.330  36.581   0.757
44525W        W 6056  10.811  13.673   2.854
44526W        W 6057  33.053   2.415   4.175
44527W        W 6058  10.832   3.293  14.329
44528W        W 6059  23.704  15.101  12.347
44529W        W 6060  40.304   0.943  12.856
44530W        W 6061  32.935   6.782  13.857
44531W        W 6062  26.514  16.766  12.037
44532W        W 6063  19.090  27.085   1.712
44533W        W 6064  10.640  13.744  12.437
44534W        W 6065  42.778  44.003   0.899
44535W        W 6066  13.775   3.253   0.928
44536W        W 6067   7.723   1.903   2.669
44537W        W 6068  41.403  12.182  12.458
44538W        W 6069  38.074  34.932  10.969
44539W        W 6070  42.963  40.936   4.609
44540W        W 6071  23.117   8.725  13.850
44541W        W 6072  24.216  32.979   4.821
44542W        W 6073  40.452  14.266  14.303
44543W        W 6074  15.179  40.987   1.252
44544W        W 6075   2.724  22.589   0.743
44545W        W 6076  13.166  36.530  12.577
44546W        W 6077  13.816  15.581   3.814
44547W        W 6078  17.190   0.817  13.971
44548W        W 6079  14.650   3.799  12.903
44549W        W 6080  36.351  19.054  10.931
44550W        W 6081  42.343  37.578  14.854
44551W        W 6082   0.958  38.846  14.443
44552W        W 6083   6.682   3.244   3.701
44553W        W 6084   1.429  14.638  11.926
44554W        W 6085  31.529  10.286  14.007
44555W        W 6086  35.575  18.729   0.741
44556W        W 6087  16.709   5.926   2.856
44557W        W 6088  20.727  11.193  12.525
44558W        W 6089  44.346  30.923   3.646
44559W        W 6090  11.835  33.905  13.936
44560W        W 6091  15.642  15.108   2.756
44561W        W 6092  11.750   4.745  11.855
44562W        W 6093  25.049   5.386   2.225
44563W        W 6094  39.004  42.864  13.522
44564W        W 6095  41.909  37.452  13.816
44565W        W 6096  32.424  18.755   5.233
44566W        W 6097  27.496  38.451   1.278
44567W        W 6098   2.295  44.298  12.873
44568W        W 6099   3.409  28.052   2.858
44569W        W 6100  34.557  32.891   4.809
44570W        W 6101  38.820  31.533  14.317
44571W        W 6102  41.387  18.553   4.733
44572W        W 6103  24.026  34.100   1.855
44573W        W 6104   9.749   7.262  11.544
44574W        W 6105  40.843  16.115   1.306
44575W        W 6106  26.018   0.968  13.482
44576W        W 6107  44.352  24.114   3.204
44577W        W 6108  14.284  42.989   1.286
44578W        W 6109   9.163  18.562  12.580
44579W        W 6110  27.954  40.413   0.917
44580W        W 6111   0.319  40.342  10.942
44581W        W 6112   5.858  33.459  14.961
44582W        W 6113  27.979  18.126   0.422
44583W        W 6114  34.039  28.549  10.578
44584W        W 6115   9.378  43.945   2.899
44585W        W 6116  15.221  13.663  12.466
44586W        W 6117  15.605  28.179   0.339
44587W        W 6118  43.854   5.762   2.399
44588W        W 6119   4.294  32.985   4.299
44589W        W 6120  34.496   4.919   2.827
44590W        W 6121  37.415   9.834   1.409
44591W        W 6122  37.504   9.683  12.952
44592W        W 6123  12.275  12.647  11.495
44593W        W 6124  28.640  12.646   4.617
44594W        W 6125  32.533   9.669   3.177
44595W        W 6126  21.697   2.944   3.255
44596W        W 6127  27.138  12.773   0.375
44597W        W 6128  27.989  41.977   0.402
44598W        W 6129  28.588  42.828   1.907
44599W        W 6130  23.658  26.998   4.722
44600W        W 6131  13.251  25.629  10.971
44601W        W 6132   8.759  32.950   3.250
44602W        W 6133  27.953  31.587   9.993
44603W        W 6134   7.860  31.490  10.554
44604W        W 6135  30.927  20.654  14.456
44605W        W 6136  16.758  36.542  11.537
44606W        W 6137  38.056   0.278  12.479
44607W        W 6138  26.162   1.289  12.349
44608W        W 6139  20.201   2.263  11.420
44609W        W 6140  37.472  25.714  12.960
44610W        W 6141   5.284   5.749  14.925
44611W        W 6142  19.111   2.426   2.779
44612W        W 6143   8.837  37.511  12.377
44613W        W 6144  41.306   7.844   4.274
44614W        W 6145  13.158  43.785   0.480
44615W        W 6146  32.558   8.770   1.810
44616W        W 6147  23.720  27.163   1.881
44617W        W 6148   0.398  23.040  13.812
44618W        W 6149   8.328  14.156  12.032
44619W        W 6150  17.581   8.306   1.906
44620W        W 6151   6.206  14.699  12.555
44621W        W 6152   0.779   9.325   4.772
44622W        W 6153  34.094  15.809  14.935
44623W        W 6154  22.162  14.620   0.923
44624W        W 6155   4.248   5.695   2.222
44625W        W 6156  24.033  14.200   1.864
44626W        W 6157  27.470  30.584   0.769
44627W        W 6158  37.866  40.043   1.919
44628W        W 6159  32.007  37.563  13.992
44629W        W 6160  40.018  33.959  11.605
44630W        W 6161  42.382  10.161  10.593
44631W        W 6162  23.519   7.752  10.954
44632W        W 6163  12.818   6.805   1.430
44633W        W 6164  33.096   5.798  13.823
44634W        W 6165  19.176  37.414  13.978
44635W        W 6166  18.230   4.211  14.339
44636W        W 6167  22.182  31.534   0.387
44637W        W 6168  28.180   0.488   2.234
44638W        W 6169  41.459  35.497   3.340
44639W        W 6170   0.895  34.106  13.377
44640W        W 6171  29.029  25.160   1.291
44641W        W 6172  20.711  37.410  13.311
44642W        W 6173  22.090  27.013   3.777
44643W        W 6174  44.967  37.904  13.961
44644W        W 6175   6.259  10.768   1.435
44645W        W 6176  40.019   0.840  11.990
44646W        W 6177  41.388   4.282  11.612
44647W        W 6178  39.960  34.911   3.687
44648W        W 6179  31.596  40.855   1.700
44649W        W 6180  36.590  42.437   2.733
44650W        W 6181  26.026  14.297   0.315
44651W        W 6182  27.562  27.960  12.824
44652W        W 6183  13.760  43.020  10.564
44653W        W 6184   3.430   0.456   2.853
44654W        W 6185  43.332  18.661   1.211
44655W        W 6186  35.861  28.502  14.502
44656W        W 6187  31.444   5.830   0.438
44657W        W 6188   8.862  30.006  12.878
44658W        W 6189  12.733  40.873  11.975
44659W        W 6190   4.842   5.253   4.135
44660W        W 6191  15.641   1.754  11.494
44661W        W 6192  17.070  41.342   0.820
44662W        W 6193  13.246  14.144   5.171
44663W        W 6194  42.296   7.398   0.366
44664W        W 6195   8.795   5.860  14.803
44665W        W 6196  34.995  37.999   1.779
44666W        W 6197  13.233   3.461   4.345
44667W        W 6198  30.430  13.773   4.746
44668W        W 6199  36.467  36.029  14.300
44669W        W 6200   4.208  33.950   2.811
44670W        W 6201  21.146  29.044   3.335
44671W        W 6202  28.459  11.852   0.841
44672W        W 6203  29.100  36.506   3.739
44673W        W 6204  44.352  17.159  14.796
44674W        W 6205   1.831   3.342   5.236
44675W        W 6206  13.337  24.626  12.525
44676W        W 6207  35.553  26.558  14.342
44677W        W 6208  13.745  37.973  10.908
44678W        W 6209  27.113  21.169  11.530
44679W        W 6210  35.387   2.799   0.371
44680W        W 6211  25.206  14.314   3.239
44681W        W 6212  37.344  21.032   0.420
44682W        W 6213  20.097  43.812   0.920
44683W        W 6214   9.684  42.359   0.920
44684W        W 6215  35.553   9.194  10.044
44685W        W 6216  30.076   9.289   3.815
44686W        W 6217   7.829  34.068  12.070
44687W        W 6218  28.079  37.970   2.399
44688W        W 6219  25.467  15.199   4.196
44689W        W 6220  38.044  21.221  12.055
44690W        W 6221  38.541   5.846  14.870
44691W        W 6222  25.497  31.403  11.470
44692W        W 6223  33.579   7.854  13.888
44693W        W 6224  21.676  15.593  11.965
44694W        W 6225  33.559  18.605   3.200
44695W        W 6226  11.664   6.903  13.535
44696W        W 6227  20.227  16.699   1.854
44697W        W 6228   5.729  16.199  14.023
44698W        W 6229  22.037   6.357   3.229
44699W        W 6230  19.279  10.366  14.461
44700W        W 6231   3.376   0.434   4.297
44701W        W 6232  27.155   3.369   2.362
44702W        W 6233  39.355   1.934   3.773
44703W        W 6234  39.883  17.087  11.996
44704W        W 6235  12.653  29.655   5.782
44705W        W 6236  40.412  12.233  13.941
44706W        W 6237  14.815  41.297  13.485
44707W        W 6238  41.328  38.857  10.596
44708W        W 6239  25.551  24.557  12.463
44709W        W 6240  40.418  34.926  14.493
44710W        W 6241   5.781  24.182  10.570
44711W        W 6242   5.360  27.156  14.806
44712W        W 6243   5.266   5.828   2.392
44713W        W 6244  15.710  20.621   2.333
44714W        W 6245  36.438  37.574   3.302
44715W        W 6246  33.046   3.414   0.762
44716W        W 6247  32.573   9.806   3.669
44717W        W 6248  14.653  26.197  12.975
44718W        W 6249  18.576   7.333   3.269
44719W        W 6250  31.901   3.333  11.371
44720W        W 6251  20.126  13.284   3.216
44721W        W 6252   9.349  34.083  14.908
44722W        W 6253  15.234  10.659  11.895
44723W        W 6254  36.027  35.469  13.825
44724W        W 6255  30.456  21.241  12.516
44725W        W 6256   6.328  31.105   3.366
44726W        W 6257  23.605  28.998   2.803
44727W        W 6258  33.983   0.789  10.469
44728W        W 6259   4.796   8.678  14.370
44729W        W 6260   5.727  22.710  13.060
44730W        W 6261  43.321  36.021   5.094
44731W        W 6262   1.460  32.913  14.319
44732W        W 6263  19.667  25.652  12.055
44733W        W 6264  18.759  16.181  11.094
44734W        W 6265  24.517  20.756  13.403
44735W        W 6266  12.285  24.565  14.435
44736W        W 6267  33.122  36.499   2.782
44737W        W 6268  10.706  41.333   4.212
44738W        W 6269  14.607  20.182   1.789
44739W        W 6270  39.812  42.932  10.498
44740W        W 6271  39.423   4.792   2.796
44741W        W 6272   2.926  43.867   4.707
44742W        W 6273   1.793  19.684   3.350
44743W        W 6274  15.306  12.135   4.642
44744W        W 6275  22.669  30.415   2.790
44745W        W 6276  43.953  11.698  11.384
44746W        W 6277  36.562  44.991   3.153
44747W        W 6278   8.405   1.743   0.438
44748W        W 6279  30.082   5.921  12.553
44749W        W 6280  18.106  23.211   0.304
44750W        W 6281  15.184  38.410   1.345
44751W        W 6282  14.595  10.231  12.475
44752W        W 6283  11.785  44.301  12.397
44753W        W 6284  40.315  42.890   0.830
44754W        W 6285  39.911  44.489  13.802
44755W        W 6286  31.514  24.164   3.318
44756W        W 6287  38.053  37.076   4.159
44757W        W 6288  16.685  31.910   4.230
44758W        W 6289  34.523  22.662   1.301
44759W        W 6290  21.600  26.655  11.382
44760W        W 6291  12.138  14.176  14.989
44761W        W 6292  21.237  22.196  10.575
44762W        W 6293  15.613  30.511   3.689
44763W        W 6294   4.383  27.518   1.256
44764W        W 6295  18.248  13.705   2.234
44765W        W 6296  44.828  35.026   3.861
44766W        W 6297   4.357  11.752   4.751
44767W        W 6298  17.584  37.559  14.900
44768W        W 6299  13.287   7.416   4.237
44769W        W 6300  39.932  35.986   0.753
44770W        W 6301   9.343  42.954   2.814
44771W        W 6302   5.749  44.995   3.749
44772W        W 6303  41.043  37.389   1.762
44773W        W 6304  34.919  43.851   0.788
44774W        W 6305  36.082  20.211   4.322
44775W        W 6306  27.087  35.541  13.027
44776W        W 6307  43.492  29.479   0.295
44777W        W 6308  39.386  35.041  14.870
44778W        W 6309  34.970  33.957   4.810
44779W        W 6310  38.951  16.569  12.875
44780W        W 6311  22.134  31.495   1.226
44781W        W 6312  36.462  44.779   2.747
44782W        W 6313  42.925  20.762   0.323
44783W        W 6314   4.204  14.188   2.718
44784W        W 6315   2.385  44.996   4.180
44785W        W 6316  41.322  39.901   4.772
44786W        W 6317  13.172  35.380  13.970
44787W        W 6318  32.432  43.476   3.757
44788W        W 6319   8.761  42.801   3.257
44789W        W 6320  26.570   7.266  12.884
44790W        W 6321  18.549  27.971   4.723
44791W        W 6322   9.877  38.324  11.857
44792W        W 6323  32.093  25.509  11.408
44793W        W 6324  15.657  20.105  13.887
44794W        W 6325   7.373  20.048   0.366
44795W        W 6326  16.158  12.315  13.364
44796W        W 6327  16.191  12.312  12.535
44797W        W 6328  13.618  25.479   3.849
44798W        W 6329  11.168  29.154   2.396
44799W        W 6330  42.379  25.134  13.980
44800W        W 6331  39.345  38.355  10.510
44801W        W 6332  14.776  34.999   0.810
44802W        W 6333  26.055  13.179   2.232
44803W        W 6334  35.098   3.354   9.945
44804W        W 6335  31.967  35.487   1.211
44805W        W 6336  14.159  35.560  13.055
44806W        W 6337  11.372  36.417  11.480
44807W        W 6338  25.042  39.840  11.474
44808W        W 6339  32.994  35.456   4.630
44809W        W 6340  36.576   7.281   2.673
44810W        W 6341   7.820  28.003   2.788
44811W        W 6342  20.666   9.763  11.485
44812W        W 6343  19.274  34.105   3.834
44813W        W 6344   6.315   2.375   3.842
44814W        W 6345  12.797  40.330  11.443
44815W        W 6346  15.582   7.856   2.709
44816W        W 6347  22.707  33.551   3.231
44817W        W 6348  28.936  29.095   0.471
44818W        W 6349   1.351  23.053   4.241
44819W        W 6350  44.505  42.852  14.760
44820W        W 6351  26.565   4.391  12.472
44821W        W 6352   1.823  23.061   3.300
44822W        W 6353   8.398   3.771  11.025
44823W        W 6354  10.292  35.379   3.867
44824W        W 6355  10.169   7.221   4.123
44825W        W 6356  23.572  40.986   0.422
44826W        W 6357  31.542  26.506   2.787
44827W        W 6358  32.933  21.206   4.222
44828W        W 6359  29.064  42.288  13.867
44829W        W 6360  21.249  33.509  14.805
44830W        W 6361  10.377  37.880   2.360
44831W        W 6362  34.869  29.582  11.927
44832W        W 6363  37.054   2.847  11.402
44833W        W 6364  12.856  22.224  14.279
44834W        W 6365  35.483  36.564  10.945
44835W        W 6366  27.620  15.714  14.817
44836W        W 6367  22.712  44.955  13.909
44837W        W 6368   8.208  17.582  11.927
44838W        W 6369  35.500  25.115  14.499
44839W        W 6370  24.483  35.548  12.993
44840W        W 6371  25.630  43.477   0.726
44841W        W 6372  31.083  35.887  14.809
44842W        W 6373  18.219  36.443  13.864
44843W        W 6374  22.501  44.334  14.863
44844W        W 6375  41.303  34.101   1.292
44845W        W 6376  24.656  35.939   0.467
44846W        W 6377  43.852   9.782   0.760
44847W        W 6378  31.546   9.234   4.739
44848W        W 6379   4.700  39.460   1.877
44849W        W 6380  14.598  18.230  14.983
44850W        W 6381  20.144  34.543   1.404
44851W        W 6382   1.252  34.492   4.769
44852W        W 6383  36.068  28.065  14.816
44853W        W 6384  37.949  30.419   4.238
44854W        W 6385  24.598   4.393   1.359
44855W        W 6386  34.567   3.843  11.610
44856W        W 6387  40.508  29.157   2.793
44857W        W 6388  12.343  10.159  14.876
44858W        W 6389  40.452  21.565  14.921
44859W        W 6390  36.585  36.022  12.519
44860W        W 6391  37.492  32.520   4.621
44861W        W 6392  20.648  29.669  13.516
44862W        W 6393  38.837  12.765   2.209
44863W        W 6394  19.757  29.442  14.365
44864W        W 6395  16.573   3.730  12.885
44865W        W 6396  21.560  36.401  14.020
44866W        W 6397   4.909  20.641  12.421
44867W        W 6398  20.180  28.098  12.980
44868W        W 6399  41.955  22.189   0.734
44869W        W 6400  21.734  25.667   0.275
44870W        W 6401  26.042   4.875   4.685
44871W        W 6402  17.619  37.509   1.694
44872W        W 6403   5.279  11.354  14.483
44873W        W 6404  14.260  18.614  12.056
44874W        W 6405  24.628   7.362   1.899
44875W        W 6406  24.657  39.949   3.263
44876W        W 6407  25.068  31.101   4.197
44877W        W 6408  27.049  16.113  10.888
44878W        W 6409  25.970   6.283  11.524
44879W        W 6410  21.594  36.413  12.574
44880W        W 6411  29.089  14.162   4.764
44881W        W 6412   6.391  37.380   2.320
44882W        W 6413  23.229  29.539  13.488
44883W        W 6414  29.443   7.674   2.346
44884W        W 6415  38.980  34.612   1.291
44885W        W 6416  29.138  39.000  11.601
44886W        W 6417  18.133  35.953  13.335
44887W        W 6418  27.960   5.277  13.842
44888W        W 6419  27.948  11.338  13.424
44889W        W 6420  10.646  14.212   4.129
44890W        W 6421  15.235  11.820  14.350
44891W        W 6422  41.914   4.802   2.185
44892W        W 6423  43.872  44.381   2.387
44893W        W 6424  38.394  41.443  12.958
44894W        W 6425  36.398  23.701  10.963
44895W        W 6426  42.510  20.062   3.723
44896W        W 6427  39.533  21.018  14.013
44897W        W 6428   3.722  42.455  13.339
44898W        W 6429  25.079   8.896   0.421
44899W        W 6430  28.993  32.002  12.453
44900W        W 6431  44.989   9.716  11.391
44901W        W 6432  41.943   5.733   4.245
44902W        W 6433  17.116  30.960  11.581
44903W        W 6434  36.969  42.328   1.860
44904W        W 6435  26.132  14.324  14.884
44905W        W 6436  23.058  30.928   3.352
44906W        W 6437  33.565  36.993  13.444
44907W        W 6438  44.005  33.946  14.799
44908W        W 6439  44.422  34.547   2.686
44909W        W 6440  17.590  22.243   0.409
44910W        W 6441  12.252  15.157   1.891
44911W        W 6442   5.901  23.086   3.172
44912W        W 6443  44.907  19.544  10.607
44913W        W 6444  41.848  30.152   3.286
44914W        W 6445  24.678  26.482  11.888
44915W        W 6446  29.120  17.695   0.818
44916W        W 6447  42.296  10.689   2.209
44917W        W 6448  17.589  12.281   0.872
44918W        W 6449  33.907   1.915   0.736
44919W        W 6450  37.928  33.955  14.770
44920W        W 6451  37.020  24.561  10.455
44921W        W 6452  10.220  11.795  11.102
44922W        W 6453  18.270  18.572   0.351
44923W        W 6454  14.293   9.703   0.394
44924W        W 6455  24.644  44.950  14.905
44925W        W 6456  21.152  14.228   2.182
44926W        W 6457  44.457  34.887   3.802
44927W        W 6458  13.753  36.531   3.305
44928W        W 6459  37.341  27.132  14.919
44929W        W 6460  22.741  26.093  14.371
44930W        W 6461  17.769  22.051   2.292
44931W        W 6462  28.629   7.331  11.991
44932W        W 6463  39.445  24.535  14.497
44933W        W 6464   2.740  31.629   3.278
44934W        W 6465  32.955   4.711  13.916
44935W        W 6466  42.292  11.367   0.941
44936W        W 6467  25.662  20.083   1.419
44937W        W 6468  11.315  23.690   4.742
44938W        W 6469  20.599  28.468  14.416
44939W        W 6470  21.127  37.344   1.848
44940W        W 6471   8.663  20.191   1.699
44941W        W 6472  18.645   9.154   0.815
44942W        W 6473  35.966  41.893   3.700
44943W        W 6474  35.913  43.814   4.220
44944W        W 6475  23.669  21.241   0.933
44945W        W 6476  23.492   4.819  13.842
44946W        W 6477  27.681  39.989  14.852
44947W        W 6478  21.631  38.928  10.411
44948W        W 6479  42.384  22.736  14.442
44949W        W 6480  26.091  31.409   4.647
44950W        W 6481  14.597   4.767  14.368
44951W        W 6482  20.675  14.324  12.963
44952W        W 6483  39.516  39.476   0.798
44953W        W 6484  40.014  27.553  14.891
44954W        W 6485  26.047  40.042  12.446
44955W        W 6486  26.111  31.041  13.816
44956W        W 6487  40.808  15.094   2.250
44957W        W 6488   3.842  19.203  10.421
44958W        W 6489  31.583  22.607   0.738
44959W        W 6490  44.921  43.354  14.414
44960W        W 6491  35.568  26.625  12.082
44961W        W 6492  26.459  44.975   1.283
44962W        W 6493  15.813  25.124   5.290
44963W        W 6494  19.231  19.216  10.564
44964W        W 6495  44.999  21.164  12.876
44965W        W 6496  40.966   0.937  13.524
44966W        W 6497  17.728  33.969   3.634
44967W        W 6498   4.893  11.634   4.675
44968W        W 6499  18.176  41.344  13.846
44969W        W 6500  28.505  17.082   0.451
44970W        W 6501  23.490  39.430  10.020
44971W        W 6502  19.728  35.559   4.638
44972W        W 6503   7.292   3.327   2.372
44973W        W 6504   5.688  40.533  12.468
44974W        W 6505  40.332  10.278  13.957
44975W        W 6506   0.937  42.870   1.425
44976W        W 6507  21.232  34.075  14.990
44977W        W 6508  42.933  24.011   1.426
44978W        W 6509  17.161   8.343   4.251
44979W        W 6510  11.239  43.440   4.750
44980W        W 6511   7.386  23.729   3.280
44981W        W 6512  43.306  31.132  14.866
44982W        W 6513  32.894  31.473  12.455
44983W        W 6514  12.722   8.313  10.501
44984W        W 6515  11.144  41.529  10.583
44985W        W 6516   5.390  13.310  14.867
44986W        W 6517   4.302  37.891   0.418
44987W        W 6518  41.889  18.170  10.555
44988W        W 6519  28.508   1.880   0.945
44989W        W 6520  15.256  42.993  10.962
44990W        W 6521  19.213  23.526   1.810
44991W        W 6522  38.384  12.805  13.365
44992W        W 6523  13.722  16.078   3.247
44993W        W 6524  23.723  30.541   2.811
44994W        W 6525  32.503  14.125  14.854
44995W        W 6526  29.659   6.778  12.465
44996W        W 6527  20.064  25.096  10.526
44997W        W 6528  40.314  18.653   5.202
44998W        W 6529  26.686  15.206   2.196
44999W        W 6530  21.698  26.506  14.965
45000W        W 6531  38.326  40.028   3.188
45001W        W 6532  13.779  13.727  14.393
45002W        W 6533  19.236  37.525  14.967
45003W        W 6534  34.435  29.516   2.407
45004W        W 6535  10.379  23.528  14.851
45005W        W 6536  29.939  43.345   1.714
45006W        W 6537  20.635  42.455  13.046
45007W        W 6538  28.476  20.709   2.362
45008W        W 6539  44.442  43.870   0.759
45009W        W 6540  44.448   1.799   5.304
45010W        W 6541   0.286   4.781   4.340
45011W        W 6542  15.628  12.857  12.964
45012W        W 6543   2.329  34.943  11.421
45013W        W 6544  37.085  44.404   1.259
45014W        W 6545  40.410  27.506  14.987
45015W        W 6546  38.366  42.997   0.335
45016W        W 6547  34.059  17.108  14.402
45017W        W 6548   7.667  29.927   1.424
45018W        W 6549  34.914  38.430  14.931
45019W        W 6550  14.296  16.749   2.189
45020W        W 6551  29.944  19.645  13.394
45021W        W 6552  17.746  22.518   1.863
45022W        W 6553  24.186   0.395   0.481
45023W        W 6554  30.994  38.947  12.898
45024W        W 6555  28.507  15.591  10.619
45025W        W 6556  29.669   0.978  13.811
45026W        W 6557  15.724  19.752   3.175
45027W        W 6558  42.783  25.537  14.442
45028W        W 6559   7.891  19.565   0.855
45029W        W 6560  29.004   2.818   4.259
45030W        W 6561  32.018   0.834  11.043
45031W        W 6562  25.507  29.473  12.902
45032W        W 6563  38.849  12.616  11.526
45033W        W 6564   2.387  41.931  10.999
45034W        W 6565  12.317   1.272  11.998
45035W        W 6566  36.437  29.430   3.736
45036W        W 6567   1.279  29.434  12.511
45037W        W 6568  42.519  37.482   3.679
45038W        W 6569   5.905   5.400  10.431
45039W        W 6570  44.931   4.319   3.649
45040W        W 6571  32.897  43.446  11.127
45041W        W 6572  11.845  25.568  13.886
45042W        W 6573   6.734   2.805   4.346
45043W        W 6574  35.499   8.741  13.359
45044W        W 6575  16.213  39.480  14.005
45045W        W 6576  33.931   0.781  11.467
45046W        W 6577   7.690  38.836   0.399
45047W        W 6578  18.112  18.618   3.734
45048W        W 6579  36.479  17.648  13.930
45049W        W 6580  11.812   1.355  13.382
45050W        W 6581   7.804  13.639   1.838
45051W        W 6582   3.792  14.650  13.408
45052W        W 6583  43.421  37.418  11.934
45053W        W 6584   9.305  19.702   4.726
45054W        W 6585  40.319  27.088  13.810
45055W        W 6586   7.892  36.513   2.377
45056W        W 6587   2.837  10.283  13.823
45057W        W 6588  35.367  17.255  13.516
45058W        W 6589  34.385   8.792   0.300
45059W        W 6590  19.101  16.112  14.939
45060W        W 6591  11.289  17.111   2.194
45061W        W 6592  41.032   5.771   1.302
45062W        W 6593  22.536  28.964  12.902
45063W        W 6594  41.536  44.471   0.749
45064W        W 6595   7.686  18.609  10.915
45065W        W 6596  16.151   3.757  11.026
45066W        W 6597  10.662  14.654   4.250
45067W        W 6598   5.930  26.615   4.785
45068W        W 6599  30.637  20.112   4.152
45069W        W 6600  24.092  14.107  11.559
45070W        W 6601  40.315   0.482   2.885
45071W        W 6602  37.529  20.713   2.857
45072W        W 6603  15.090  21.237   3.762
45073W        W 6604  38.403  42.963   1.908
45074W        W 6605  20.581  11.778  11.007
45075W        W 6606  40.939  38.862  11.117
45076W        W 6607  17.793  18.736  10.895
45077W        W 6608  17.271   0.347  11.021
45078W        W 6609  30.091  24.229   2.245
45079W        W 6610   5.203  41.328  11.018
45080W        W 6611  23.033  10.811   1.380
45081W        W 6612  35.420  44.361  14.341
45082W        W 6613  42.793  15.205   4.274
45083W        W 6614  37.546  15.254   4.325
45084W        W 6615   6.186  40.037   3.858
45085W        W 6616   5.920   5.209  12.021
45086W        W 6617  24.190  20.263  11.443
45087W        W 6618  10.858  44.399  12.067
45088W        W 6619  31.104  27.616   4.161
45089W        W 6620  28.625  38.337   4.712
45090W        W 6621  12.190   7.758   4.256
45091W        W 6622  32.476   0.331   2.316
45092W        W 6623  16.209  15.689   3.347
45093W        W 6624  44.871  12.199  14.813
45094W        W 6625  36.083  44.283   0.949
45095W        W 6626  21.750  10.658   0.470
45096W        W 6627   6.383  26.043  14.514
45097W        W 6628  41.295  18.159  14.429
45098W        W 6629  43.333  39.994  10.996
45099W        W 6630  33.919  17.685   2.740
45100W        W 6631  34.417  28.485   0.457
45101W        W 6632   3.823  26.964   0.346
45102W        W 6633   9.315  21.525   4.193
45103W        W 6634  38.951  26.127  12.381
45104W        W 6635   4.310  40.867   4.265
45105W        W 6636   2.734  29.447  12.414
45106W        W 6637  11.801   6.214  14.007
45107W        W 6638   2.840  39.351  14.415
45108W        W 6639  11.186  14.704   3.834
45109W        W 6640  13.809  21.058  14.878
45110W        W 6641  32.959  19.241   1.347
45111W        W 6642   7.673  41.472  12.565
45112W        W 6643  29.134   9.702   3.186
45113W        W 6644  18.555  44.431   2.292
45114W        W 6645  10.868  22.199  10.427
45115W        W 6646  44.787  22.510  10.052
45116W        W 6647  27.658   6.415  12.906
45117W        W 6648  31.618  10.877  14.903
45118W        W 6649  27.052  19.228   3.866
45119W        W 6650  34.873  31.020   0.950
45120W        W 6651   5.335  28.606   2.418
45121W        W 6652  21.592  42.805   2.894
45122W        W 6653  38.050  25.033   1.441
45123W        W 6654  24.613   6.832   1.352
45124W        W 6655   0.826   0.827   3.792
45125W        W 6656  33.019  29.108   2.704
45126W        W 6657  25.018  23.643  13.400
45127W        W 6658  34.982  40.429   4.207
45128W        W 6659  27.175   0.300   4.276
45129W        W 6660  17.253   1.466  11.429
45130W        W 6661  11.184  30.084   4.720
45131W        W 6662  20.681   6.697   1.311
45132W        W 6663  16.233  29.096   2.781
45133W        W 6664  39.901  21.197   0.453
45134W        W 6665  40.361  35.470   1.353
45135W        W 6666  28.651  29.549   3.147
45136W        W 6667   4.737  23.630  11.977
45137W        W 6668  43.472  27.173  13.306
45138W        W 6669  32.592   0.789  13.001
45139W        W 6670  27.477  16.699   2.404
45140W        W 6671  30.647  26.499   3.835
45141W        W 6672  40.344  42.821  14.892
45142W        W 6673  17.302   5.229  12.997
45143W        W 6674  43.806  40.002   3.259
45144W        W 6675  37.576  25.471  14.893
45145W        W 6676  39.862  29.972  10.604
45146W        W 6677  14.824  28.518   1.280
45147W        W 6678  17.121  15.721   2.322
45148W        W 6679  26.574   4.858  11.470
45149W        W 6680   0.430  38.454   0.735
45150W        W 6681  26.475   8.167  13.438
45151W        W 6682   6.828  38.406   1.357
45152W        W 6683  14.116  24.535  12.859
45153W        W 6684  20.048   2.443   1.854
45154W        W 6685  16.256  27.488   3.271
45155W        W 6686  25.657  35.067   3.270
45156W        W 6687  17.762  28.617  10.584
45157W        W 6688  22.523  13.657   4.702
45158W        W 6689  26.167  37.537   0.750
45159W        W 6690  14.168  29.554  12.545
45160W        W 6691   4.705  10.874  13.328
45161W        W 6692  28.602  23.073  11.565
45162W        W 6693  14.833  17.130   4.313
45163W        W 6694   3.886  21.649  11.060
45164W        W 6695  33.456  24.991   2.687
45165W        W 6696  24.517   8.825   2.401
45166W        W 6697  24.026   0.301  11.874
45167W        W 6698  37.389  20.062  10.459
45168W        W 6699  23.609  24.024   0.921
45169W        W 6700  10.306  29.952  12.413
45170W        W 6701  38.826  38.331  14.028
45171W        W 6702  16.795   7.722   0.967
45172W        W 6703  34.945   1.908   0.767
45173W        W 6704  27.983  37.555  13.374
45174W        W 6705  10.772  17.212  14.859
45175W        W 6706  28.526  44.936   3.699
45176W        W 6707  16.160  15.724  12.529
45177W        W 6708   2.758   3.887  11.452
45178W        W 6709  34.109  33.425  13.950
45179W        W 6710  36.046  32.139  13.022
45180W        W 6711  16.098  12.744  11.001
45181W        W 6712   8.308  38.528  12.477
45182W        W 6713  19.589  15.584   2.700
45183W        W 6714  13.732  19.591   5.236
45184W        W 6715  42.401  21.567  10.427
45185W        W 6716  35.474   9.788   4.160
45186W        W 6717  21.211   0.811  13.018
45187W        W 6718  41.907  24.532  12.051
45188W        W 6719  13.743  22.711  10.998
45189W        W 6720  40.352  28.654  12.348
45190W        W 6721  37.990  23.058   2.231
45191W        W 6722  16.115   1.341   1.346
45192W        W 6723  14.141  10.270   4.715
45193W        W 6724  17.255  23.192  10.098
45194W        W 6725   8.239   7.695  11.036
45195W        W 6726  36.929   5.795  14.314
45196W        W 6727  27.999  22.085   4.659
45197W        W 6728   7.174  36.514   3.813
45198W        W 6729  35.457   3.256   4.193
45199W        W 6730   3.317  16.243   0.360
45200W        W 6731  24.015   6.315  12.566
45201W        W 6732  23.094  25.600  10.584
45202W        W 6733  18.639   5.411   2.723
45203W        W 6734   3.247  36.487  12.845
45204W        W 6735   6.678   7.204  11.862
45205W        W 6736  32.571  39.867   2.892
45206W        W 6737  34.924   7.816   4.264
45207W        W 6738  43.498   7.197   4.648
45208W        W 6739  41.374  27.633   4.818
45209W        W 6740  18.671  43.776   1.268
45210W        W 6741  21.142   4.426   4.338
45211W        W 6742  31.077   8.716  13.359
45212W        W 6743  26.551  25.660   0.788
45213W        W 6744   2.817  33.971   1.424
45214W        W 6745  35.020  12.804   1.442
45215W        W 6746   1.747  32.031   3.346
45216W        W 6747  34.396  17.153   1.810
45217W        W 6748  41.916   3.878  12.408
45218W        W 6749  15.604   6.234  12.927
45219W        W 6750  36.529  33.907   0.879
45220W        W 6751  37.491  34.592   1.444
45221W        W 6752  35.964  38.994   1.768
45222W        W 6753   1.971  41.393  11.575
45223W        W 6754  44.281  12.201  12.471
45224W        W 6755  13.275  15.157   3.864
45225W        W 6756  37.518  25.565   2.865
45226W        W 6757  36.351  29.619   1.732
45227W        W 6758  19.598  21.082   1.316
45228W        W 6759  10.841  20.090   0.888
45229W        W 6760  11.366  20.082  12.560
45230W        W 6761   6.690  26.580   4.296
45231W        W 6762   8.867  43.475   2.206
45232W        W 6763  14.183   4.940   3.230
45233W        W 6764  13.601  17.775  14.379
45234W        W 6765   0.857  13.751  11.115
45235W        W 6766  35.567  13.206  14.923
45236W        W 6767  37.877  32.612  11.383
45237W        W 6768  25.476   7.745  13.426
45238W        W 6769  23.171  16.314  10.580
45239W        W 6770  35.537  41.425   3.284
45240W        W 6771  24.720  30.513  11.438
45241W        W 6772   0.265  14.762  11.910
45242W        W 6773  22.140  25.711  13.383
45243W        W 6774  34.555  41.921  10.590
45244W        W 6775  31.429   2.446   4.818
45245W        W 6776   8.297  15.157  12.913
45246W        W 6777  24.533   5.263  11.419
45247W        W 6778  17.711  42.325  14.330
45248W        W 6779  14.304   5.724   1.814
45249W        W 6780  25.585   2.390  13.453
45250W        W 6781  12.301  25.494   2.398
45251W        W 6782  29.138  44.774  12.880
45252W        W 6783  10.770  32.609  14.801
45253W        W 6784  32.394  36.053  10.075
45254W        W 6785  12.815   7.319   1.870
45255W        W 6786  21.705  13.318   1.934
45256W        W 6787  40.333  13.190   3.863
45257W        W 6788   8.702  34.109  14.290
45258W        W 6789   9.242  28.488  14.302
45259W        W 6790   6.420  30.625  10.033
45260W        W 6791  31.611  32.106   0.246
45261W        W 6792  24.986   6.803  10.989
45262W        W 6793   1.867   3.787   2.357
45263W        W 6794  19.039   5.312   1.797
45264W        W 6795   9.173   8.864  10.979
45265W        W 6796   4.911  39.517  10.445
45266W        W 6797  29.465  14.756  12.418
45267W        W 6798  39.041  14.595  11.039
45268W        W 6799  18.144  12.684  11.889
45269W        W 6800  30.595   5.344   3.260
45270W        W 6801  37.517  19.164  11.004
45271W        W 6802  36.016  25.708  11.015
45272W        W 6803  40.343  18.628   1.715
45273W        W 6804  17.705  11.683   1.742
45274W        W 6805   4.259   7.226   3.800
45275W        W 6806  41.923  10.371  13.328
45276W        W 6807  33.524  30.427  13.388
45277W        W 6808  38.029  28.674   4.150
45278W        W 6809  22.234   9.251  12.925
45279W        W 6810   0.278  13.790  11.041
45280W        W 6811  16.669  42.881  11.916
45281W        W 6812  27.637  22.734   0.415
45282W        W 6813  27.045  18.226  14.895
45283W        W 6814  31.611   7.382  14.023
45284W        W 6815  27.186  32.423  12.428
45285W        W 6816  43.317   2.431   2.223
45286W        W 6817  32.009   0.844   5.224
45287W        W 6818  21.536  14.752   3.697
45288W        W 6819  15.623  10.728   5.232
45289W        W 6820  13.708  10.747  13.804
45290W        W 6821   4.317   1.747  12.500
45291W        W 6822   8.331  16.157   3.245
45292W        W 6823   8.379  10.235  11.072
45293W        W 6824  15.618  22.591  11.388
45294W        W 6825   6.338  29.995  12.554
45295W        W 6826   3.835   7.692  11.031
45296W        W 6827  13.339  31.559  14.832
45297W        W 6828  38.962  28.145  10.535
45298W        W 6829  43.319  33.559   4.630
45299W        W 6830  25.207  15.705  12.548
45300W        W 6831  31.436  25.219   2.240
45301W        W 6832   2.917  33.404  12.976
45302W        W 6833  23.035  28.095  10.922
45303W        W 6834   1.861  33.903  11.568
45304W        W 6835   9.837  33.917  12.060
45305W        W 6836  17.636   0.325  13.973
45306W        W 6837   0.917  40.814  14.299
45307W        W 6838  28.124  29.601  14.293
45308W        W 6839  26.205  22.201   4.219
45309W        W 6840   0.788  41.949   0.867
45310W        W 6841  33.588  10.303  12.896
45311W        W 6842   9.795   4.864   1.820
45312W        W 6843  44.942  25.519  11.919
45313W        W 6844  30.497  44.333   2.274
45314W        W 6845   6.355  33.593   2.302
45315W        W 6846  20.734  16.767   2.289
45316W        W 6847  43.436  12.766  10.531
45317W        W 6848  22.568  16.713   4.233
45318W        W 6849  44.465  41.454   4.154
45319W        W 6850  13.257  30.908   2.203
45320W        W 6851  18.723  41.504  14.280
45321W        W 6852  15.580   9.298   3.233
45322W        W 6853   9.386   4.421   2.293
45323W        W 6854  22.521   4.226  11.489
45324W        W 6855  36.895  32.489  10.971
45325W        W 6856  30.101  24.141  13.010
45326W        W 6857  38.058  11.316  13.025
45327W        W 6858   6.308  33.911   2.390
45328W        W 6859   1.328  11.754   1.258
45329W        W 6860   9.755  38.994   1.261
45330W        W 6861  29.502  31.049  10.893
45331W        W 6862  34.055   9.782   1.722
45332W        W 6863  17.648  41.792   1.813
45333W        W 6864  15.684  38.475  12.843
45334W        W 6865  38.359  25.691   0.782
45335W        W 6866  19.080  40.799  10.549
45336W        W 6867   5.340  12.642  12.989
45337W        W 6868   6.339   6.734  12.950
45338W        W 6869  19.128   5.326  14.431
45339W        W 6870   7.740  25.569   3.247
45340W        W 6871  31.507   5.808  11.963
45341W        W 6872   5.418   8.732   2.761
45342W        W 6873   0.315  18.654   4.286
45343W        W 6874  28.023  25.005  12.871
45344W        W 6875  33.476  21.655  10.630
45345W        W 6876  42.391   5.814   2.350
45346W        W 6877  22.236  34.469  10.414
45347W        W 6878   5.322  44.406  11.470
45348W        W 6879   1.274  24.009  10.979
45349W        W 6880  28.641   8.819  14.862
45350W        W 6881  44.999  36.894  13.799
45351W        W 6882  23.696   6.797   4.128
45352W        W 6883  22.719  10.798  14.959
45353W        W 6884  42.436  31.943   4.741
45354W        W 6885  40.807  14.679  14.948
45355W        W 6886  20.548  34.978  13.338
45356W        W 6887  43.381  25.580  13.793
45357W        W 6888   9.819   1.829   4.637
45358W        W 6889  29.057  33.554   2.846
45359W        W 6890  16.273  26.520  11.562
45360W        W 6891  13.341  44.842  12.015
45361W        W 6892  25.113   9.369  14.347
45362W        W 6893  36.459  26.168  12.574
45363W        W 6894  39.367   4.797  12.037
45364W        W 6895   5.422  12.712  14.884
45365W        W 6896  22.589  32.405   2.203
45366W        W 6897   2.371  21.693   2.345
45367W        W 6898  18.232  19.539   3.205
45368W        W 6899  11.639  13.745  11.548
45369W        W 6900  23.133   3.880  12.395
45370W        W 6901  30.028  28.580  10.436
45371W        W 6902   0.376  28.128  10.463
45372W        W 6903  30.060   0.417  14.291
45373W        W 6904  16.236  23.705  12.919
45374W        W 6905  27.008  44.328  13.887
45375W        W 6906  20.225  20.207   3.251
45376W        W 6907  10.250  16.657   0.917
45377W        W 6908  20.243  12.796  13.844
45378W        W 6909  28.553  33.573   2.293
45379W        W 6910  27.675  23.990   1.273
45380W        W 6911  22.057  23.998  11.886
45381W        W 6912  36.069  23.058   2.700
45382W        W 6913  18.686  17.733  11.011
45383W        W 6914  13.201  34.893  13.366
45384W        W 6915  15.100  10.313   4.199
45385W        W 6916  39.817  30.034   3.249
45386W        W 6917  15.660  39.509   1.776
45387W        W 6918  35.098  22.672   0.945
45388W        W 6919  31.026   4.706   3.857
45389W        W 6920  36.070  21.189   0.356
45390W        W 6921   1.824  18.633   2.364
45391W        W 6922  40.916  10.875   3.212
45392W        W 6923   3.763  22.135  10.636
45393W        W 6924  21.662   4.316   2.239
45394W        W 6925  40.338  13.708  14.298
45395W        W 6926   4.440  15.682   2.707
45396W        W 6927  30.516   7.889   2.180
45397W        W 6928   1.822  10.689   3.658
45398W        W 6929  34.037  36.030  12.531
45399W        W 6930  38.907  30.536  13.539
45400W        W 6931  31.615  27.000  11.947
45401W        W 6932  37.078  33.941  13.371
45402W        W 6933  28.008  42.465  13.868
45403W        W 6934   1.447  28.994  11.565
45404W        W 6935  34.514  27.947  12.414
45405W        W 6936   5.207   2.369  12.988
45406W        W 6937  15.608  34.593  10.083
45407W        W 6938   5.844  19.554   0.380
45408W        W 6939  11.282  27.609   1.351
45409W        W 6940   4.229   6.832  10.413
45410W        W 6941  44.991  41.941   1.266
45411W        W 6942  36.547   0.911  13.958
45412W        W 6943   9.716  25.990   4.598
45413W        W 6944  32.129  42.831   3.667
45414W        W 6945  13.131  33.023   4.688
45415W        W 6946  43.395  16.704  13.326
45416W        W 6947  41.430   3.948   4.626
45417W        W 6948  21.517  43.332  10.950
45418W        W 6949   2.424  21.225  11.448
45419W        W 6950  19.726  12.220   4.329
45420W        W 6951   7.248   1.367   2.340
45421W        W 6952   6.239  28.185   2.703
45422W        W 6953  17.174   9.393  11.122
45423W        W 6954  13.753  19.746  11.911
45424W        W 6955  12.749  43.916  13.512
45425W        W 6956  16.619   4.334   1.396
45426W        W 6957  10.681   4.364  11.947
45427W        W 6958  27.070  20.609   3.686
45428W        W 6959  23.530  21.744   0.951
45429W        W 6960  10.355   2.275  13.352
45430W        W 6961  39.444  33.109   4.120
45431W        W 6962   1.760  44.393  14.944
45432W        W 6963  33.056   5.357   3.839
45433W        W 6964  35.922  20.054   0.753
45434W        W 6965  23.576   4.371  10.611
45435W        W 6966   4.804  16.762   9.930
45436W        W 6967  39.044  17.119   4.743
45437W        W 6968  43.876  26.983  11.900
45438W        W 6969  37.415   8.347  11.871
45439W        W 6970  20.532   5.755  10.535
45440W        W 6971  40.928  19.247  14.369
45441W        W 6972   3.812  11.350  12.090
45442W        W 6973  31.961   1.846   1.309
45443W        W 6974   9.815  24.644   3.270
45444W        W 6975  33.944  36.052  13.354
45445W        W 6976  42.966  23.694  14.936
45446W        W 6977   9.739  44.477   4.705
45447W        W 6978   0.855  20.684   3.328
45448W        W 6979  14.198  35.536   1.836
45449W        W 6980   5.840  11.839   1.754
45450W        W 6981  22.614  34.023   2.837
45451W        W 6982  44.874  11.131  14.799
45452W        W 6983   4.734  23.107   4.694
45453W        W 6984  26.568  17.070   4.298
45454W        W 6985   4.884  40.378   4.171
45455W        W 6986  39.027  35.604  12.908
45456W        W 6987  13.606  14.136  14.780
45457W        W 6988   9.150  18.717   2.416
45458W        W 6989  17.248  42.438   0.473
45459W        W 6990  21.669   5.404  12.877
45460W        W 6991  21.624  28.000   2.230
45461W        W 6992  28.186  31.631  13.914
45462W        W 6993  40.417  20.568  10.981
45463W        W 6994  40.959  24.655   0.465
45464W        W 6995  17.276  38.988  12.914
45465W        W 6996  27.614  17.238  12.490
45466W        W 6997  40.991  22.738   0.246
45467W        W 6998  34.982  40.413  10.902
45468W        W 6999  27.507  19.094   2.721
45469W        W 7000   5.819  42.899   1.273
45470W        W 7001  29.533  33.511  11.472
45471W        W 7002  12.633  25.495  14.509
45472W        W 7003  34.940   1.295   3.817
45473W        W 7004  26.480  18.784   2.244
45474W        W 7005  30.615   4.758  13.797
45475W        W 7006  13.760  36.954   4.265
45476W        W 7007  25.682   0.752   2.289
45477W        W 7008  27.681  28.457  14.501
45478W        W 7009  33.023  36.485  12.870
45479W        W 7010   9.362  28.164  14.396
45480W        W 7011  23.153  12.357  11.018
45481W        W 7012  22.125  26.087  14.783
45482W        W 7013  10.782  39.826   4.733
45483W        W 7014   4.720   2.343  10.499
45484W        W 7015   5.823   5.875  11.582
45485W        W 7016  11.811  17.215   1.847
45486W        W 7017  24.120   2.860  12.354
45487W        W 7018   0.863  44.903   1.785
45488W        W 7019  24.029  39.427  11.856
45489W        W 7020  25.179  37.070  14.471
45490W        W 7021  37.077   5.259   0.760
45491W        W 7022   4.928   5.831  14.921
45492W        W 7023  24.098   1.972  10.096
45493W        W 7024  12.176  30.992  14.342
45494W        W 7025  36.570  39.980  11.576
45495W        W 7026  14.277  23.696   9.993
45496W        W 7027  42.368  29.543   0.756
45497W        W 7028  14.630  17.068   1.928
45498W        W 7029   1.871   2.873   4.211
45499W        W 7030  13.786  35.365  10.608
45500W        W 7031  40.873  43.948  11.475
45501W        W 7032  38.860  19.244   3.686
45502W        W 7033  44.993   8.726   4.754
45503W        W 7034  25.562  25.966  12.573
45504W        W 7035  42.947   0.819   1.368
45505W        W 7036   5.193  24.148   9.934
45506W        W 7037  33.984   6.343   1.278
45507W        W 7038  29.556  14.338   1.255
45508W        W 7039  29.961  12.342  11.084
45509W        W 7040  42.393  21.193   3.692
45510W        W 7041  34.531  38.379   2.781
45511W        W 7042  26.034   2.927  11.088
45512W        W 7043  10.362  15.306  10.116
45513W        W 7044  36.949  18.287   3.726
45514W        W 7045  34.082   6.409  13.032
45515W        W 7046  19.206  16.641  13.396
45516W        W 7047  31.964   2.899   2.857
45517W        W 7048  37.878  36.850   0.268
45518W        W 7049  29.655   0.857   1.285
45519W        W 7050  20.610  20.083   4.269
45520W        W 7051  25.066  22.070  14.455
45521W        W 7052  21.747  18.192   4.321
45522W        W 7053  26.999  33.047   3.149
45523W        W 7054  15.325  36.585   0.786
45524W        W 7055   2.233  43.326  14.379
45525W        W 7056  11.625  32.517   2.870
45526W        W 7057  42.901  37.081  12.924
45527W        W 7058  27.099   5.789  12.833
45528W        W 7059  32.457  17.297  11.540
45529W        W 7060   8.234  12.628   1.784
45530W        W 7061   5.197  35.378  10.496
45531W        W 7062  29.937  12.619   4.137
45532W        W 7063  43.893  41.414  11.926
45533W        W 7064   0.953  19.608  14.339
45534W        W 7065  24.686  36.013   1.752
45535W        W 7066  12.264  32.103   2.730
45536W        W 7067  24.557  19.185  12.409
45537W        W 7068   2.402   6.248   0.321
45538W        W 7069  36.351  41.804  10.995
45539W        W 7070  35.058  15.310  14.988
45540W        W 7071  26.602  24.113  13.339
45541W        W 7072  34.512  42.813   3.321
45542W        W 7073  39.930   7.216  10.963
45543W        W 7074  13.827  44.460   2.736
45544W        W 7075   6.814   6.908  11.896
45545W        W 7076  10.256  17.250  10.508
45546W        W 7077  16.207  17.176   4.272
45547W        W 7078  22.050  23.181  14.852
45548W        W 7079   4.722  44.336   0.951
45549W        W 7080  18.731  31.906  11.499
45550W        W 7081  21.569  44.370  12.967
45551W        W 7082  30.069  18.184   1.816
45552W        W 7083  26.550   4.757   0.250
45553W        W 7084   7.807  21.595  14.318
45554W        W 7085   1.454  10.767   3.363
45555W        W 7086  19.050  12.262  12.521
45556W        W 7087  19.664  28.139   1.889
45557W        W 7088   3.404   9.256  11.898
45558W        W 7089  25.081   0.343  11.086
45559W        W 7090  10.369  15.766  10.644
45560W        W 7091  27.990   7.186  13.395
45561W        W 7092  28.158  12.157   4.730
45562W        W 7093  26.639  29.621   5.192
45563W        W 7094  16.279  42.921   4.712
45564W        W 7095  28.006  11.664   2.877
45565W        W 7096   9.353  31.434  13.872
45566W        W 7097  37.016   9.683  12.883
45567W        W 7098  44.803  28.081  14.888
45568W        W 7099  42.317  36.860   1.834
45569W        W 7100  38.924  39.383   3.213
45570W        W 7101  41.516  15.129  11.473
45571W        W 7102  31.993  43.409  13.393
45572W        W 7103  38.400  13.676   1.346
45573W        W 7104  39.357  23.504   3.650
45574W        W 7105  37.455  14.797  13.792
45575W        W 7106  35.853  26.541  14.416
45576W        W 7107   5.723   1.928  12.411
45577W        W 7108  22.707  18.757   3.239
45578W        W 7109  34.411  44.324  14.396
45579W        W 7110  22.119  15.160   0.808
45580W        W 7111  19.261  22.732  12.479
45581W        W 7112  26.011   8.265  12.561
45582W        W 7113   5.855  15.650   2.882
45583W        W 7114  10.784  25.216  13.431
45584W        W 7115  24.091  41.512  10.483
45585W        W 7116  36.067  24.671   1.731
45586W        W 7117  27.488   4.807   0.866
45587W        W 7118  30.442  39.874  13.822
45588W        W 7119  10.365   9.302  14.396
45589W        W 7120  29.048  20.120   1.219
45590W        W 7121   9.695  27.940   2.805
45591W        W 7122  22.250   4.913   0.748
45592W        W 7123   4.295  18.634   1.287
45593W        W 7124  21.174  25.663  13.987
45594W        W 7125  41.490  36.923  12.342
45595W        W 7126  10.265  19.717   1.809
45596W        W 7127  43.354  43.855   4.149
45597W        W 7128   5.401   1.398  12.410
45598W        W 7129  34.542   7.181   2.412
45599W        W 7130  16.197  16.293  11.872
45600W        W 7131  43.906   8.802  13.911
45601W        W 7132  10.361  40.932  10.423
45602W        W 7133  23.724   7.736   3.786
45603W        W 7134  21.124   3.274   0.249
45604W        W 7135  38.469  44.843  11.596
45605W        W 7136  30.067  44.291   0.400
45606W        W 7137  22.647  12.824  12.060
45607W        W 7138  40.493  39.488   2.880
45608W        W 7139  18.166  28.525  11.535
45609W        W 7140   0.956   2.298  14.343
45610W        W 7141  14.098  29.085  13.411
45611W        W 7142   6.344  10.215   2.887
45612W        W 7143  39.890   8.264  14.773
45613W        W 7144  30.095  33.004  13.537
45614W        W 7145  32.601  17.180  10.493
45615W        W 7146   6.196  28.022   4.217
45616W        W 7147  25.478  37.040   2.844
45617W        W 7148  11.697  19.715  13.870
45618W        W 7149  21.259  38.990   3.660
45619W        W 7150  12.641  29.429  12.372
45620W        W 7151   1.781   3.923  11.903
45621W        W 7152  26.976  24.645   0.956
45622W        W 7153  39.339  12.832  12.406
45623W        W 7154  24.062  31.525  14.337
45624W        W 7155  38.012  11.211   4.337
45625W        W 7156  15.120  44.371   3.826
45626W        W 7157  12.147  34.478  10.914
45627W        W 7158  38.947  26.535   1.316
45628W        W 7159  21.560   8.246  11.435
45629W        W 7160  35.858  40.903  10.035
45630W        W 7161  26.547  37.336   1.227
45631W        W 7162  28.496  22.627   4.793
45632W        W 7163  34.373  18.150  10.578
45633W        W 7164  15.712  26.516   1.249
45634W        W 7165   4.358  32.022   2.794
45635W        W 7166  10.832  21.097   4.794
45636W        W 7167  16.287  25.714   0.284
45637W        W 7168  38.429   3.736  10.463
45638W        W 7169  21.154  12.711   2.377
45639W        W 7170  22.162  41.020   5.595
45640W        W 7171  17.162  22.049   5.673
45641W        W 7172   6.699  43.337  11.856
45642W        W 7173   3.865  27.692  12.877
45643W        W 7174  26.196  21.047  14.428
45644W        W 7175  44.498  38.396  13.464
45645W        W 7176   1.481  26.670   2.887
45646W        W 7177   0.447  13.779  10.445
45647W        W 7178   8.304  43.782   0.353
45648W        W 7179  38.897   2.937  11.958
45649W        W 7180  13.618  44.349   3.711
45650W        W 7181  32.444   1.367  13.492
45651W        W 7182  24.513  40.840   4.113
45652W        W 7183   3.221  43.427  12.446
45653W        W 7184  41.938   8.752   1.333
45654W        W 7185   9.160  40.977   0.313
45655W        W 7186  15.318   6.330   0.369
45656W        W 7187  29.526   7.729   1.835
45657W        W 7188   5.752  32.969   2.396
45658W        W 7189   5.304  31.073  10.515
45659W        W 7190  43.407  18.137   1.860
45660W        W 7191  33.507   5.427  10.558
45661W        W 7192   8.217   7.800   3.812
45662W        W 7193   5.385  16.196  13.946
45663W        W 7194  39.402   7.174   3.170
45664W        W 7195  12.332  19.644  12.909
45665W        W 7196   1.249  12.360   1.386
45666W        W 7197  12.796  18.149   2.205
45667W        W 7198  28.965  14.725   3.728
45668W        W 7199  11.312  27.171  14.868
45669W        W 7200  40.497  20.749  14.306
45670W        W 7201   3.372  41.897  14.788
45671W        W 7202  34.536  27.604   1.239
45672W        W 7203   9.821  41.953   3.243
45673W        W 7204  21.121   0.436  14.842
45674W        W 7205  40.317  42.991   3.859
45675W        W 7206   4.415   6.695  14.983
45676W        W 7207  13.802  21.178   4.670
45677W        W 7208  13.737   0.342  13.329
45678W        W 7209  23.042  28.159   1.829
45679W        W 7210   3.432  18.702   5.135
45680W        W 7211  41.009   3.732  13.028
45681W        W 7212  29.559  39.516   3.732
45682W        W 7213  11.832  40.388  12.369
45683W        W 7214  40.001  21.097   2.409
45684W        W 7215  39.484  22.686  10.435
45685W        W 7216  43.380   4.383   2.316
45686W        W 7217  38.378  18.172  10.554
45687W        W 7218  32.597  22.057  13.959
45688W        W 7219  44.856  23.050  10.947
45689W        W 7220   2.291   0.846   2.350
45690W        W 7221  27.061  26.001  12.929
45691W        W 7222  21.128  24.026   2.368
45692W        W 7223  44.477  12.759   4.686
45693W        W 7224  40.051  26.167  14.324
45694W        W 7225  28.123  10.321  12.480
45695W        W 7226  18.236  21.632  13.395
45696W        W 7227  10.690  28.475  12.829
45697W        W 7228   7.361  27.132   3.830
45698W        W 7229  25.051  22.678   3.270
45699W        W 7230  26.127  30.030   3.765
45700W        W 7231   1.813   8.668   5.136
45701W        W 7232  37.513   4.291   2.883
45702W        W 7233  21.713  11.735  11.878
45703W        W 7234  39.965   3.766  10.639
45704W        W 7235  37.027  18.781   0.893
45705W        W 7236   8.239  39.861  13.401
45706W        W 7237  44.924   2.778  11.941
45707W        W 7238  37.031  12.232   2.742
45708W        W 7239  40.531   0.293   4.712
45709W        W 7240   9.766  14.676   4.285
45710W        W 7241  20.672  26.963   2.719
45711W        W 7242  33.051  37.878   1.262
45712W        W 7243   0.379  36.423   0.351
45713W        W 7244  32.136  30.521   0.479
45714W        W 7245  11.245  28.147   3.813
45715W        W 7246  32.128   3.447   3.857
45716W        W 7247   8.710   5.408  14.767
45717W        W 7248  37.401  11.310   0.413
45718W        W 7249  11.134   5.260  13.941
45719W        W 7250   1.249  19.280   4.309
45720W        W 7251   5.238  41.535   3.249
45721W        W 7252  17.691  38.002  12.038
45722W        W 7253  13.145   3.287   2.218
45723W        W 7254   1.839  29.458  12.397
45724W        W 7255  38.374  21.698   4.326
45725W        W 7256  14.737  15.644  10.578
45726W        W 7257  41.408   8.851   0.797
45727W        W 7258  15.801  28.004  14.950
45728W        W 7259   2.932  34.469   2.741
45729W        W 7260   6.796  24.103  11.480
45730W        W 7261   6.883  40.428   1.891
45731W        W 7262  26.202   2.349   0.962
45732W        W 7263  23.002  19.762  10.452
45733W        W 7264  25.990   1.440  12.955
45734W        W 7265  22.554   6.840  14.786
45735W        W 7266   7.239  20.235   4.214
45736W        W 7267  29.471  42.855  14.768
45737W        W 7268  36.893  20.694   2.713
45738W        W 7269  32.430   5.839  12.462
45739W        W 7270  35.402  35.985   3.694
45740W        W 7271  41.318  26.165   3.773
45741W        W 7272  30.116  32.431  14.481
45742W        W 7273   7.829  25.655  14.960
45743W        W 7274  27.471  26.114   2.664
45744W        W 7275  43.373   5.807   3.294
45745W        W 7276  30.948  19.735   4.653
45746W        W 7277   9.284  19.122   4.336
45747W        W 7278  33.925  40.543   3.303
45748W        W 7279  19.639  22.136  14.775
45749W        W 7280   4.710  22.041  12.459
45750W        W 7281   5.803  41.438   1.705
45751W        W 7282  27.003  11.807  10.941
45752W        W 7283  31.907  24.188  14.855
45753W        W 7284  38.500  12.120   1.344
45754W        W 7285  17.136   7.392   4.249
45755W        W 7286  30.492  16.172  11.978
45756W        W 7287   9.737  18.561  11.937
45757W        W 7288  41.515   8.729  10.090
45758W        W 7289  18.157  13.235   4.709
45759W        W 7290  36.075   4.728  10.477
45760W        W 7291  29.994  32.624   0.371
45761W        W 7292  31.140  44.447   0.265
45762W        W 7293  41.946  24.229  13.408
45763W        W 7294  12.285  34.114  10.997
45764W        W 7295   7.216  40.325   4.236
45765W        W 7296   9.153  31.923   3.817
45766W        W 7297  26.561  44.785   2.333
45767W        W 7298   4.438  30.624   1.293
45768W        W 7299  25.551  34.052   0.274
45769W        W 7300  36.907   1.841  13.950
45770W        W 7301   0.910   0.832   4.227
45771W        W 7302  28.513  24.537  12.534
45772W        W 7303  12.346  11.326  10.440
45773W        W 7304  41.425  27.546  14.891
45774W        W 7305   4.303  32.611   2.185
45775W        W 7306  26.978  15.115  14.393
45776W        W 7307  29.128  39.921   1.899
45777W        W 7308  16.218  13.123   0.759
45778W        W 7309  41.373   9.202   0.259
45779W        W 7310  38.854  28.645   4.746
45780W        W 7311  44.275  19.638   0.747
45781W        W 7312  24.568   2.917   2.798
45782W        W 7313   5.790   1.735   2.707
45783W        W 7314  14.102  14.142   3.155
45784W        W 7315   9.889   5.748   0.465
45785W        W 7316   3.266  18.713  14.467
45786W        W 7317  19.649   2.274  12.060
45787W        W 7318   5.414  24.058   3.252
45788W        W 7319  17.647   6.808   0.932
45789W        W 7320  26.684  15.796   3.781
45790W        W 7321  44.768  11.835  10.628
45791W        W 7322  21.598  26.006  14.503
45792W        W 7323  20.232  29.164  11.440
45793W        W 7324  31.455  34.533   2.726
45794W        W 7325  39.542  21.125   3.244
45795W        W 7326  35.564  15.175   1.325
45796W        W 7327  15.584  11.842  11.518
45797W        W 7328  26.498  43.926  11.880
45798W        W 7329  14.096  37.555   2.668
45799W        W 7330  24.566  11.310   4.184
45800W        W 7331  29.506   3.313   5.125
45801W        W 7332   6.813  33.576  14.837
45802W        W 7333   0.917  42.457   3.307
45803W        W 7334  32.925  10.676   1.884
45804W        W 7335  31.130   4.714  11.511
45805W        W 7336  40.981   8.214   1.386
45806W        W 7337   7.822  34.431  14.856
45807W        W 7338   8.399  23.997  13.507
45808W        W 7339  19.727  10.360   0.911
45809W        W 7340   7.694  42.796  14.977
45810W        W 7341  32.142   0.358   0.309
45811W        W 7342  39.393  27.657   4.790
45812W        W 7343  20.110   1.738  11.413
45813W        W 7344   3.719   4.312   2.718
45814W        W 7345  24.582  23.037   3.766
45815W        W 7346   8.684  16.272   3.181
45816W        W 7347  24.654  22.636   2.224
45817W        W 7348  15.317  35.032  12.091
45818W        W 7349  14.732  27.559  14.470
45819W        W 7350   9.850  24.126  11.578
45820W        W 7351  39.422  18.180  12.428
45821W        W 7352  32.944  33.946   2.324
45822W        W 7353  12.766  36.451  11.608
45823W        W 7354  34.520  25.168  14.282
45824W        W 7355   3.955  44.285  11.960
45825W        W 7356   4.737  21.208   4.299
45826W        W 7357  18.066  34.508  13.437
45827W        W 7358  19.260  33.483  11.438
45828W        W 7359  10.239  44.284  13.004
45829W        W 7360  43.289   7.741  11.106
45830W        W 7361  19.269  43.833   1.806
45831W        W 7362  31.462  44.949  11.442
45832W        W 7363  30.651  10.208   0.953
45833W        W 7364  41.022  41.322  11.557
45834W        W 7365  40.920   4.400   2.877
45835W        W 7366  18.790  40.803  10.614
45836W        W 7367  36.435  22.505  10.604
45837W        W 7368  35.403  43.309  13.013
45838W        W 7369   4.443  42.335   0.393
45839W        W 7370  27.529   4.883  10.899
45840W        W 7371  34.906  18.554   1.451
45841W        W 7372   2.262  10.161  12.380
45842W        W 7373  20.696  22.098  10.526
45843W        W 7374  37.464  27.675   1.779
45844W        W 7375  27.942  39.062  12.523
45845W        W 7376  22.556   1.761   1.711
45846W        W 7377  32.890   1.355  11.602
45847W        W 7378  19.619  19.175  14.337
45848W        W 7379  30.596   2.761  11.608
45849W        W 7380  10.195   3.222   5.134
45850W        W 7381  18.608  42.858   2.677
45851W        W 7382   8.721  28.603  13.856
45852W        W 7383  22.203  31.929   0.761
45853W        W 7384   0.324  27.483  12.972
45854W        W 7385  33.553   6.317  12.902
45855W        W 7386  23.583   7.172   3.857
45856W        W 7387   3.359   9.767   4.334
45857W        W 7388  19.157  44.007   4.118
45858W        W 7389  13.727   4.423  11.976
45859W        W 7390  11.195   1.278  13.057
45860W        W 7391   6.684   1.301   9.440
45861W        W 7392   5.197  15.102   1.318
45862W        W 7393  41.388  17.305   2.231
45863W        W 7394   5.802  35.856  11.977
45864W        W 7395  44.356  26.020   0.465
45865W        W 7396   5.251  29.569  13.923
45866W        W 7397   9.252   6.243  11.512
45867W        W 7398   6.353  33.944  11.523
45868W        W 7399  32.440  19.108   1.818
45869W        W 7400   4.287  20.111   2.359
45870W        W 7401  11.702  10.633  13.310
45871W        W 7402  43.999  23.705   0.396
45872W        W 7403  34.053  14.756   0.777
45873W        W 7404  33.901   5.725  11.464
45874W        W 7405  39.956  42.930   3.153
45875W        W 7406  23.098  41.920  14.898
45876W        W 7407   7.774  11.701  11.066
45877W        W 7408  29.461   7.803   5.118
45878W        W 7409  24.494   0.830   4.260
45879W        W 7410  29.596  25.148  10.495
45880W        W 7411  18.276  15.673  11.405
45881W        W 7412  34.014  23.533   4.655
45882W        W 7413  44.503  42.946   3.372
45883W        W 7414  14.189  18.703   0.317
45884W        W 7415  44.330  36.403   4.759
45885W        W 7416   5.761  10.296  13.388
45886W        W 7417   1.763  20.136   0.848
45887W        W 7418   8.402  39.979  14.387
45888W        W 7419  17.616   1.744   3.271
45889W        W 7420  33.880  18.642  14.786
45890W        W 7421   0.918  44.389  13.347
45891W        W 7422  37.003   0.795  13.332
45892W        W 7423  34.558  30.923   3.200
45893W        W 7424   2.880  34.959   3.322
45894W        W 7425  29.600   7.404   4.258
45895W        W 7426  44.865  12.715  10.432
45896W        W 7427   0.319  13.163  13.812
45897W        W 7428  13.316   0.936   4.691
45898W        W 7429  21.080  42.317   2.807
45899W        W 7430  31.995  41.943  11.575
45900W        W 7431  16.573  44.874  10.478
45901W        W 7432  18.290  26.654  14.778
45902W        W 7433  38.474   6.792  10.638
45903W        W 7434  13.757   1.286  13.331
45904W        W 7435  39.474  25.219  10.493
45905W        W 7436  19.239  12.826   0.347
45906W        W 7437  32.634  22.107   4.169
45907W        W 7438  29.930  40.479   3.808
45908W        W 7439  23.081  26.586   3.692
45909W        W 7440   0.889  44.884  12.359
45910W        W 7441  25.538   9.803  10.126
45911W        W 7442  39.922  30.034  12.947
45912W        W 7443  28.619  13.816  13.860
45913W        W 7444  29.638  20.523   0.902
45914W        W 7445  41.938   5.425  13.016
45915W        W 7446   0.328   5.817  12.956
45916W        W 7447  33.016  30.069  11.867
45917W        W 7448  41.513  19.205   3.228
45918W        W 7449  19.220  30.994   3.651
45919W        W 7450   7.730  21.186  14.876
45920W        W 7451  15.194  33.471   4.158
45921W        W 7452  11.817  24.601   4.126
45922W        W 7453  24.490  25.688   1.841
45923W        W 7454  18.557  15.148   1.266
45924W        W 7455   4.787  15.175   9.974
45925W        W 7456  44.791  18.274  11.982
45926W        W 7457  28.972  39.851   4.775
45927W        W 7458  12.806   9.889   0.822
45928W        W 7459  16.710   6.889   0.965
45929W        W 7460  15.165  43.284  13.431
45930W        W 7461  32.123  35.001  12.361
45931W        W 7462   0.313  18.636  12.449
45932W        W 7463   6.201  36.491  13.952
45933W        W 7464  40.516  27.577  10.946
45934W        W 7465  29.516   1.248  10.620
45935W        W 7466  16.077  25.038   5.092
45936W        W 7467   8.289  16.792  13.943
45937W        W 7468  25.206  14.716   0.371
45938W        W 7469  38.454  29.000   1.275
45939W        W 7470   1.943  41.984   1.349
45940W        W 7471  35.435  34.008   4.344
45941W        W 7472  11.738  35.541   3.633
45942W        W 7473  23.659  40.457   2.719
45943W        W 7474   0.761   2.934   4.813
45944W        W 7475  40.309  35.551  13.913
45945W        W 7476  26.187   7.800   0.354
45946W        W 7477  40.303   6.857  14.390
45947W        W 7478  20.033  11.255   3.159
45948W        W 7479  41.353  37.382   3.272
45949W        W 7480   1.938  37.964  14.008
45950W        W 7481  18.716  20.611  14.321
45951W        W 7482  15.699  27.052  11.586
45952W        W 7483  40.904  40.340  12.943
45953W        W 7484  31.620  11.279  11.562
45954W        W 7485   9.853  34.105   4.344
45955W        W 7486  31.009  23.493   0.824
45956W        W 7487  19.586  27.085  11.100
45957W        W 7488   8.270   5.908   4.126
45958W        W 7489  40.010   2.955   0.912
45959W        W 7490   9.738  18.729   3.299
45960W        W 7491  25.115  27.530   2.804
45961W        W 7492  36.496  37.012  12.980
45962W        W 7493  17.605  26.114  12.422
45963W        W 7494  34.421  28.648   0.963
45964W        W 7495  27.977   1.794   1.294
45965W        W 7496   5.797  39.044   2.776
45966W        W 7497  26.485  17.582  13.031
45967W        W 7498  42.889  35.054   5.303
45968W        W 7499  12.699  24.118   1.436
45969W        W 7500   5.763   4.266   3.387
45970W        W 7501   2.868  17.740   4.615
45971W        W 7502  10.269   1.899  11.565
45972W        W 7503  38.937  18.761   5.121
45973W        W 7504   4.363  27.527  11.373
45974W        W 7505  41.932  33.124  10.490
45975W        W 7506  37.910  38.006   0.301
45976W        W 7507  26.512  16.692  11.401
45977W        W 7508  22.604   1.443  13.061
45978W        W 7509   2.429  18.101  11.964
45979W        W 7510   0.407  34.956   1.738
45980W        W 7511  39.036  19.205   2.897
45981W        W 7512   7.794  22.127  13.954
45982W        W 7513  18.161  40.302   1.413
45983W        W 7514  25.122  28.671  13.431
45984W        W 7515  30.579  23.147   4.680
45985W        W 7516  35.019  33.959   2.826
45986W        W 7517  18.737  24.603  12.443
45987W        W 7518  18.158  40.966  12.850
45988W        W 7519   6.315  11.751  14.761
45989W        W 7520  20.236  11.803  12.853
45990W        W 7521   9.172  20.583   3.362
45991W        W 7522   4.718  16.790   0.415
45992W        W 7523  24.642   6.883  10.522
45993W        W 7524  14.136  22.092  14.308
45994W        W 7525  20.602  13.131   2.902
45995W        W 7526  43.387   0.838  12.382
45996W        W 7527  20.679  38.459   3.754
45997W        W 7528  13.775  16.745  14.305
45998W        W 7529   9.774  40.983   0.440
45999W        W 7530  15.794  32.616   0.363
46000W        W 7531  43.904  10.171   3.677
46001W        W 7532  19.052  33.881   1.854
46002W        W 7533  32.455  25.973   2.299
46003W        W 7534   3.258  12.358  11.458
46004W        W 7535  27.634   5.691   3.247
46005W        W 7536   4.825   6.743  11.064
46006W        W 7537  20.175  37.904   2.292
46007W        W 7538   9.705  18.105  12.455
46008W        W 7539   7.370  37.065  12.946
46009W        W 7540  27.598   5.751  14.003
46010W        W 7541  26.005  40.957   1.765
46011W        W 7542  28.040   7.361   1.249
46012W        W 7543  21.623  40.019   1.823
46013W        W 7544  17.732  33.439   2.876
46014W        W 7545  23.628   7.675   0.407
46015W        W 7546  34.448  23.658   4.760
46016W        W 7547  33.478  29.162   3.630
46017W        W 7548  20.665   2.464  11.098
46018W        W 7549   0.349   2.360  11.009
46019W        W 7550  26.651  29.595   2.755
46020W        W 7551   0.475   3.757  12.998
46021W        W 7552  25.082  40.973  13.539
46022W        W 7553   7.339  40.944   0.382
46023W        W 7554   3.333   9.379  13.904
46024W        W 7555  41.877  15.585   2.707
46025W        W 7556   2.849  20.545  11.066
46026W        W 7557  35.425   7.360  12.842
46027W        W 7558  23.709   7.744   1.917
46028W        W 7559  41.302  22.716   4.605
46029W        W 7560  14.301   5.847   0.876
46030W        W 7561  30.610  21.726  10.585
46031W        W 7562  26.666   0.296   4.303
46032W        W 7563  40.053  27.991  11.481
46033W        W 7564  15.709  39.017   5.299
46034W        W 7565  12.170  29.634   4.237
46035W        W 7566  39.861   9.723  13.980
46036W        W 7567  21.607  35.996  10.936
46037W        W 7568  39.810  20.685   3.249
46038W        W 7569  44.361   4.420  11.464
46039W        W 7570  23.016  33.430   4.302
46040W        W 7571  33.989   7.878   0.467
46041W        W 7572   4.349   7.775  14.462
46042W        W 7573  28.604  35.989   4.309
46043W        W 7574  31.094  44.820  10.636
46044W        W 7575  26.195   3.887   1.341
46045W        W 7576  34.486  40.856  13.027
46046W        W 7577   6.787  44.264   1.835
46047W        W 7578  36.881   3.457   0.892
46048W        W 7579  25.011  15.122  12.873
46049W        W 7580   1.924   5.311   1.884
46050W        W 7581   8.167  24.993   4.642
46051W        W 7582  30.070   6.893   2.313
46052W        W 7583  15.724  35.964   2.196
46053W        W 7584  36.458  44.315  11.549
46054W        W 7585  11.761  11.145  14.280
46055W        W 7586  44.869  33.007   1.861
46056W        W 7587  37.014  27.677  12.843
46057W        W 7588   6.310  25.068  11.913
46058W        W 7589   1.926  26.966   0.893
46059W        W 7590  28.129  42.936  12.945
46060W        W 7591  43.897   8.829  10.571
46061W        W 7592  24.998  24.119   3.776
46062W        W 7593  30.975  32.482   4.205
46063W        W 7594  12.854  32.495  12.356
46064W        W 7595  36.954   8.783  10.605
46065W        W 7596   9.851  43.889   2.899
46066W        W 7597  29.491  16.632  11.939
46067W        W 7598  33.556  33.592  11.487
46068W        W 7599  44.804  12.348  14.009
46069W        W 7600  22.552  14.331   5.170
46070W        W 7601  29.452  37.956  11.382
46071W        W 7602  14.821  12.183   1.773
46072W        W 7603  35.953  44.786  11.914
46073W        W 7604  33.049  39.442  12.825
46074W        W 7605   7.210  43.976   4.754
46075W        W 7606  11.193  27.459  13.468
46076W        W 7607  11.216  14.620  10.974
46077W        W 7608   7.884  20.685  14.344
46078W        W 7609  43.309  44.324  12.937
46079W        W 7610  17.747   2.752  11.435
46080W        W 7611  12.790  27.197   1.711
46081W        W 7612  31.149  44.381   2.856
46082W        W 7613  10.193  36.997   2.708
46083W        W 7614  25.176  35.528  12.922
46084W        W 7615   0.875  15.205   3.777
46085W        W 7616  15.725   3.756   1.277
46086W        W 7617  41.341  25.012   4.632
46087W        W 7618  16.125  33.565   1.391
46088W        W 7619  27.047  41.861   1.253
46089W        W 7620  33.445   8.287   0.830
46090W        W 7621  31.065   7.381  12.406
46091W        W 7622   4.405  43.332   3.662
46092W        W 7623  43.798   8.862  14.371
46093W        W 7624  26.960  19.726   5.127
46094W        W 7625  14.786  17.596  14.807
46095W        W 7626   5.868  14.110   4.208
46096W        W 7627   0.489  11.737  12.346
46097W        W 7628  16.721   7.798   3.725
46098W        W 7629   3.902  16.802  12.473
46099W        W 7630  43.830  22.108  14.461
46100W        W 7631  21.513  33.379   3.671
46101W        W 7632  11.340   4.336   1.733
46102W        W 7633   2.767  25.498   3.773
46103W        W 7634   6.689   0.851  14.784
46104W        W 7635  18.274  32.918   0.411
46105W        W 7636   2.906  26.050  14.864
46106W        W 7637  14.325  39.456  13.840
46107W        W 7638  13.709  26.016   4.327
46108W        W 7639  21.689   0.896  14.883
46109W        W 7640  28.171  32.923   4.803
46110W        W 7641  43.506  18.174  14.426
46111W        W 7642  37.484   1.256  12.486
46112W        W 7643  11.651  23.568   5.197
46113W        W 7644  10.175   1.288  13.887
46114W        W 7645  25.482  22.644  13.972
46115W        W 7646  30.494   9.295   2.307
46116W        W 7647  12.764  35.084  12.389
46117W        W 7648  30.162  36.583   2.388
46118W        W 7649  28.976  43.882  12.055
46119W        W 7650   4.827  33.605  13.414
46120W        W 7651  34.050   7.713  12.905
46121W        W 7652   6.217  16.654   3.274
46122W        W 7653   2.815  31.567   0.782
46123W        W 7654  13.147  22.078  10.510
46124W        W 7655   7.859   3.222   1.896
46125W        W 7656  11.241  31.021   2.411
46126W        W 7657  15.178   8.707   2.259
46127W        W 7658   4.700   3.369  14.980
46128W        W 7659  25.538  22.691  11.459
46129W        W 7660   1.781   0.951  12.827
46130W        W 7661  28.033  30.445   0.372
46131W        W 7662  11.866   1.251   1.774
46132W        W 7663  28.446  29.055   4.284
46133W        W 7664  32.536  18.061  14.893
46134W        W 7665  26.047  10.253   2.802
46135W        W 7666   8.796  44.865  12.384
46136W        W 7667  14.812   3.299  12.342
46137W        W 7668   2.449  21.118  13.922
46138W        W 7669  33.997  18.623   0.904
46139W        W 7670  27.500  21.082   3.830
46140W        W 7671  37.427   6.322  13.928
46141W        W 7672  16.799  10.231   4.132
46142W        W 7673  15.591  14.229  13.033
46143W        W 7674  14.702  17.674  11.472
46144W        W 7675  36.974  33.933  11.511
46145W        W 7676  24.548  16.096  14.307
46146W        W 7677  16.242   6.720   2.839
46147W        W 7678  29.098  24.081  12.932
46148W        W 7679  19.740  38.895   0.472
46149W        W 7680   3.231   7.771  13.981
46150W        W 7681  39.831   1.900  11.963
46151W        W 7682  22.569   9.282  11.046
46152W        W 7683  18.269  33.559  10.894
46153W        W 7684  35.443  41.024   2.394
46154W        W 7685  42.007   7.314   1.833
46155W        W 7686   1.303   4.223   1.832
46156W        W 7687  27.193  25.583  11.862
46157W        W 7688   6.309  26.649   2.258
46158W        W 7689  18.250  27.637   1.864
46159W        W 7690   1.386  11.143  12.515
46160W        W 7691  31.993  20.579  14.987
46161W        W 7692  43.787  14.305   0.945
46162W        W 7693   2.446   6.808  11.035
46163W        W 7694  15.664   7.284   4.243
46164W        W 7695  39.517  36.518  12.486
46165W        W 7696  14.805   0.925  11.048
46166W        W 7697  29.587  29.583  14.799
46167W        W 7698  25.996   4.355  10.440
46168W        W 7699  37.492  41.466  13.525
46169W        W 7700  12.117  31.434  11.433
46170W        W 7701  27.152  22.640   4.636
46171W        W 7702  21.033  44.862   1.777
46172W        W 7703  39.838  32.410   4.306
46173W        W 7704  38.417  17.672   4.180
46174W        W 7705  10.843  44.779   3.741
46175W        W 7706  43.321   9.274  10.916
46176W        W 7707  10.762  16.693   1.812
46177W        W 7708  41.338   2.887  12.023
46178W        W 7709  31.534   3.836  12.503
46179W        W 7710  37.454   4.801   2.796
46180W        W 7711  29.535  43.270   4.733
46181W        W 7712   1.429  32.907  13.925
46182W        W 7713  18.210  30.051   4.693
46183W        W 7714  35.493   1.871  13.884
46184W        W 7715  32.016  18.590   0.251
46185W        W 7716  21.549  26.055  11.920
46186W        W 7717  11.742   0.343   2.373
46187W        W 7718  38.541   2.815  13.480
46188W        W 7719  38.933  29.037  11.473
46189W        W 7720   1.785  39.384  14.905
46190W        W 7721  31.515   2.350  12.501
46191W        W 7722   8.784  12.784   0.377
46192W        W 7723  24.655  42.995  11.894
46193W        W 7724  10.143   9.251   1.796
46194W        W 7725  39.902   3.426  13.826
46195W        W 7726  12.355  39.404   2.293
46196W        W 7727  33.541   5.809  11.595
46197W        W 7728   4.362   6.398  10.905
46198W        W 7729   0.377  43.487   2.685
46199W        W 7730  12.321   3.406   2.400
46200W        W 7731   0.490   0.832  10.635
46201W        W 7732  35.535  33.624  14.959
46202W        W 7733   6.243  34.091   0.413
46203W        W 7734  30.507  32.457  13.970
46204W        W 7735  29.626   4.758   3.793
46205W        W 7736   7.860  25.008  11.460
46206W        W 7737  24.608  32.939   5.164
46207W        W 7738  15.103   8.337  10.951
46208W        W 7739  19.657  16.677   4.310
46209W        W 7740  29.079  43.271  11.502
46210W        W 7741  30.099  40.879   2.677
46211W        W 7742  32.027  16.308   0.454
46212W        W 7743  42.349  25.058  10.981
46213W        W 7744   3.844  15.745  11.003
46214W        W 7745  23.707  33.479   4.761
46215W        W 7746  15.778  24.112   3.295
46216W        W 7747  41.972  35.982   1.443
46217W        W 7748   1.256   2.801   4.685
46218W        W 7749  33.951  28.154   2.242
46219W        W 7750  10.820  40.366  11.055
46220W        W 7751  13.728  13.713   2.236
46221W        W 7752  21.576  36.351  10.913
46222W        W 7753  36.867  36.444   2.756
46223W        W 7754  37.979  31.425  13.455
46224W        W 7755  42.816  34.930  11.556
46225W        W 7756  29.018  35.053  12.579
46226W        W 7757  16.284  24.990  11.448
46227W        W 7758  17.220  28.098   4.342
46228W        W 7759  34.987   8.392  13.857
46229W        W 7760   0.490  44.311  12.073
46230W        W 7761  28.932  14.625  14.472
46231W        W 7762   5.319  31.957   3.802
46232W        W 7763   2.789  36.936   3.690
46233W        W 7764  15.589  37.339   3.182
46234W        W 7765  39.016  22.052   2.689
46235W        W 7766   6.416   8.702   2.781
46236W        W 7767  17.605  27.446  12.517
46237W        W 7768  39.418  37.947   3.820
46238W        W 7769  41.972  33.381   1.289
46239W        W 7770   0.428  24.063   4.709
46240W        W 7771  39.332   1.734  13.506
46241W        W 7772  37.077  28.164  13.407
46242W        W 7773  32.465  14.762  13.410
46243W        W 7774  24.593  40.931  13.424
46244W        W 7775  22.586   0.815   1.742
46245W        W 7776  37.847  17.625   2.743
46246W        W 7777  32.076  39.524   1.404
46247W        W 7778  10.164  37.901   4.821
46248W        W 7779   7.908  35.108  11.119
46249W        W 7780  11.676  20.111  11.558
46250W        W 7781  31.015  18.145  12.938
46251W        W 7782  34.422  13.636   1.722
46252W        W 7783  10.733  26.966   1.328
46253W        W 7784  37.834  17.571  14.945
46254W        W 7785  27.097  13.633  14.029
46255W        W 7786  35.856  15.103  14.993
46256W        W 7787  15.806   4.918  10.020
46257W        W 7788   9.393  31.596   1.308
46258W        W 7789  38.479  35.105  14.799
46259W        W 7790  31.402  10.741  13.844
46260W        W 7791  19.077  17.692  12.904
46261W        W 7792  26.657  19.251   2.228
46262W        W 7793   0.939  44.873   1.349
46263W        W 7794  41.843  25.202   2.858
46264W        W 7795  33.456  18.225  13.971
46265W        W 7796   2.268  10.727  10.460
46266W        W 7797   9.726   7.311   1.286
46267W        W 7798   3.909  18.121  10.084
46268W        W 7799   6.911  39.882   0.394
46269W        W 7800   3.380  22.143  13.405
46270W        W 7801  17.634  34.509  14.446
46271W        W 7802  37.003   9.882   2.810
46272W        W 7803  42.328  29.948   0.965
46273W        W 7804  30.639  35.439  13.029
46274W        W 7805  37.980  12.221  13.887
46275W        W 7806   1.742   1.886   0.813
46276W        W 7807  26.663  40.538   3.866
46277W        W 7808  37.460  33.069  12.358
46278W        W 7809  27.549  42.439  10.943
46279W        W 7810  42.029  22.026   2.345
46280W        W 7811  36.873   6.184  10.603
46281W        W 7812  36.526  40.911  14.862
46282W        W 7813  26.205  24.679   2.744
46283W        W 7814  17.214  43.998   0.860
46284W        W 7815  25.171   7.283   0.466
46285W        W 7816   3.862  30.021  14.391
46286W        W 7817  20.619   2.240   0.908
46287W        W 7818  32.049   7.687   1.780
46288W        W 7819  33.546  11.666  10.557
46289W        W 7820  34.949  43.803   4.724
46290W        W 7821  15.620  17.567  10.896
46291W        W 7822  10.232  18.232   1.212
46292W        W 7823  18.624  25.042   3.243
46293W        W 7824  30.012  32.135   2.736
46294W        W 7825   8.814  27.111   3.307
46295W        W 7826  18.653   8.779  11.528
46296W        W 7827  17.119  36.025  14.018
46297W        W 7828  37.834  38.564  13.496
46298W        W 7829   4.248  39.841  11.066
46299W        W 7830  42.335  42.302  11.468
46300W        W 7831  37.427  28.939  12.570
46301W        W 7832   6.903  44.437  13.049
46302W        W 7833  26.525  14.607   2.379
46303W        W 7834   5.742  13.137  12.505
46304W        W 7835   0.827  13.182  12.969
46305W        W 7836  27.624  10.879  12.480
46306W        W 7837  30.414  17.101   0.960
46307W        W 7838  40.971  23.166  13.810
46308W        W 7839  32.563   3.309   9.988
46309W        W 7840   9.747  19.704   2.800
46310W        W 7841  13.833  22.064  11.395
46311W        W 7842  40.829  27.549  11.450
46312W        W 7843  24.589  21.697  10.957
46313W        W 7844  20.708  38.038   5.585
46314W        W 7845  16.709   1.247   1.423
46315W        W 7846  17.728  19.076   1.406
46316W        W 7847  14.688   8.719  14.442
46317W        W 7848  26.118  39.506   2.744
46318W        W 7849   7.320   4.278   2.876
46319W        W 7850  38.903  19.598  13.029
46320W        W 7851  33.018  33.017   3.818
46321W        W 7852  43.380  20.188  14.006
46322W        W 7853   3.733  32.941   1.769
46323W        W 7854  30.432  23.031   2.355
46324W        W 7855  21.030  23.094  11.025
46325W        W 7856  35.915  12.299  12.992
46326W        W 7857  24.606   8.326  10.558
46327W        W 7858  15.790  23.034   0.303
46328W        W 7859  26.640  13.122  13.433
46329W        W 7860  11.800   8.835   2.699
46330W        W 7861  36.371  17.200   2.200
46331W        W 7862  27.663  35.864   1.807
46332W        W 7863  40.922  15.767   1.920
46333W        W 7864   0.461  19.584   0.736
46334W        W 7865  14.189  43.892  14.881
46335W        W 7866  42.794   6.377   3.796
46336W        W 7867  17.278  35.077  12.534
46337W        W 7868  13.723   0.813   1.311
46338W        W 7869  12.638  37.363   4.794
46339W        W 7870  25.001   2.943  11.490
46340W        W 7871  15.122  23.641  13.974
46341W        W 7872  43.465  22.102  14.865
46342W        W 7873  40.467  42.285  13.801
46343W        W 7874  33.387  22.720   0.864
46344W        W 7875  34.371  20.198  13.323
46345W        W 7876  29.929  41.502  13.435
46346W        W 7877  28.020   1.477  13.806
46347W        W 7878  22.549  20.575   0.906
46348W        W 7879  16.625  16.800  13.542
46349W        W 7880  14.751  44.364  11.551
46350W        W 7881  12.327  37.050   0.351
46351W        W 7882  33.404  31.969   1.789
46352W        W 7883   9.290   7.289   3.832
46353W        W 7884  18.092  31.036   3.862
46354W        W 7885  12.119  17.767   3.758
46355W        W 7886  12.838  13.190  12.397
46356W        W 7887  28.527   1.744   0.473
46357W        W 7888  13.641  13.123   1.298
46358W        W 7889   9.849   1.849  11.090
46359W        W 7890  32.032  16.621  11.021
46360W        W 7891   3.399   0.427   1.744
46361W        W 7892  29.969  23.690  14.308
46362W        W 7893  42.925   8.780  14.941
46363W        W 7894  21.581  36.009   5.150
46364W        W 7895  10.256  30.967  12.380
46365W        W 7896   8.739  26.106  13.535
46366W        W 7897  33.607  28.444   3.301
46367W        W 7898  37.053  19.696  12.574
46368W        W 7899  34.432  22.550   4.680
46369W        W 7900   3.299  37.050   0.793
46370W        W 7901  18.774  10.211   2.324
46371W        W 7902  19.215  33.521   1.935
46372W        W 7903  21.631   4.922   2.376
46373W        W 7904  10.757  16.111  12.911
46374W        W 7905   3.444  16.213   1.366
46375W        W 7906  37.917   8.201  14.904
46376W        W 7907  39.342  23.212   1.402
46377W        W 7908  39.341  26.181   4.839
46378W        W 7909  40.983  20.606   1.731
46379W        W 7910   9.855  31.057  14.814
46380W        W 7911   1.791  15.721  12.456
46381W        W 7912  44.301  39.955   0.449
46382W        W 7913  27.091   2.869  14.332
46383W        W 7914   3.716  23.498  13.917
46384W        W 7915  24.660   5.428  12.480
46385W        W 7916  14.671  28.008  10.489
46386W        W 7917  20.148  15.153  13.830
46387W        W 7918  41.325   4.359   1.842
46388W        W 7919  29.165  32.064   3.249
46389W        W 7920   6.319   4.228  13.407
46390W        W 7921  22.725   1.732  14.787
46391W        W 7922   5.791  40.482   2.363
46392W        W 7923  21.208  27.012   2.401
46393W        W 7924  30.646  23.568  11.560
46394W        W 7925  36.399  41.441   0.754
46395W        W 7926  31.899  39.556  10.940
46396W        W 7927   7.825  27.469  13.523
46397W        W 7928  38.840  40.033   0.404
46398W        W 7929  23.539   1.770  13.503
46399W        W 7930  41.918   1.948  13.339
46400W        W 7931   8.252  21.723   1.705
46401W        W 7932  11.630  19.039  14.446
46402W        W 7933  24.986  35.100  12.424
46403W        W 7934   9.769  32.054   4.316
46404W        W 7935  18.182   5.343   2.262
46405W        W 7936  16.653  19.739   4.772
46406W        W 7937  41.018   9.327  14.863
46407W        W 7938  42.498   8.392   1.362
46408W        W 7939  32.008  40.908  13.859
46409W        W 7940  31.938   9.844  13.322
46410W        W 7941  31.080   4.904   3.243
46411W        W 7942  29.585  37.411   1.795
46412W        W 7943  22.012  22.147   0.409
46413W        W 7944   9.860  40.456  11.927
46414W        W 7945  21.220  20.768   2.669
46415W        W 7946   3.780   8.810  10.591
46416W        W 7947  33.979  35.435  13.498
46417W        W 7948  13.624   2.310   1.935
46418W        W 7949  15.610   2.461  12.383
46419W        W 7950  28.026  24.640  12.082
46420W        W 7951  30.967   5.285  14.513
46421W        W 7952  30.038   4.434   0.858
46422W        W 7953   5.212  10.220   0.312
46423W        W 7954  44.312  38.484   4.161
46424W        W 7955  20.759  11.763   3.636
46425W        W 7956  31.937  17.793   1.738
46426W        W 7957  20.111  21.716   2.733
46427W        W 7958  11.352  43.413   2.312
46428W        W 7959  37.380   0.793   0.302
46429W        W 7960   2.827  33.033   2.741
46430W        W 7961  23.681   3.839   1.339
46431W        W 7962  13.344  19.211   1.890
46432W        W 7963  13.345  29.567  11.488
46433W        W 7964   9.286  19.090   2.258
46434W        W 7965  33.533  24.493  11.506
46435W        W 7966  24.649  42.885   3.334
46436W        W 7967  26.544   9.816  14.488
46437W        W 7968  16.604  23.089  13.999
46438W        W 7969   6.679   1.249  14.926
46439W        W 7970   4.802  20.060  11.594
46440W        W 7971   0.392  39.365  11.401
46441W        W 7972  37.463  39.446  14.807
46442W        W 7973  20.216   7.182  11.920
46443W        W 7974  28.017  27.594   3.294
46444W        W 7975  20.523   3.838   2.335
46445W        W 7976  27.449  25.592   1.264
46446W        W 7977   1.836  18.293   0.928
46447W        W 7978  16.795   0.953  11.380
46448W        W 7979   4.743  39.002   3.764
46449W        W 7980  31.561  34.408   4.740
46450W        W 7981   0.783   5.712   1.832
46451W        W 7982  11.625   2.932   3.679
46452W        W 7983   1.463  19.629  13.382
46453W        W 7984  26.536  34.867  11.936
46454W        W 7985  30.025  30.917   2.899
46455W        W 7986  39.869  43.898  13.903
46456W        W 7987   0.281  21.576  10.490
46457W        W 7988  44.903   7.177  14.951
46458W        W 7989  20.697  44.365   1.412
46459W        W 7990  21.646  35.951   2.287
46460W        W 7991  23.189   3.909   2.326
46461W        W 7992  15.288  33.990  10.611
46462W        W 7993   7.367  36.514   1.783
46463W        W 7994  39.458   0.464   0.254
46464W        W 7995  24.672   7.870  11.972
46465W        W 7996  28.593  33.893   2.326
46466W        W 7997  37.518  35.603  13.797
46467W        W 7998   4.757  40.858   3.256
46468W        W 7999   0.419  44.909  14.286
46469W        W 8000  22.714  33.917  13.045
46470W        W 8001  13.839  44.355  10.528
46471W        W 8002   1.288  42.008  10.595
46472W        W 8003  18.594  26.546  10.040
46473W        W 8004   9.745   8.213   4.673
46474W        W 8005  29.050  38.983  14.862
46475W        W 8006  32.514  27.445   0.794
46476W        W 8007  13.213  24.498   0.280
46477W        W 8008  38.426  16.687   0.876
46478W        W 8009  37.427  26.083   2.349
46479W        W 8010  41.879  44.480   5.096
46480W        W 8011  13.784  35.022  11.859
46481W        W 8012   2.847  38.042  13.528
46482W        W 8013  27.061  42.357   0.912
46483W        W 8014  29.653   0.452  13.937
46484W        W 8015  16.785  43.504   3.280
46485W        W 8016  28.619  41.532  13.436
46486W        W 8017  41.808   1.354   2.313
46487W        W 8018   6.694   7.236   1.733
46488W        W 8019  11.149  42.816  10.895
46489W        W 8020  42.307  37.001   3.707
46490W        W 8021   9.281  11.723  13.939
46491W        W 8022  32.420   7.195   1.303
46492W        W 8023  21.542  42.451   2.767
46493W        W 8024  37.353  17.693   1.310
46494W        W 8025  35.959  13.304  13.866
46495W        W 8026  36.950   3.441   2.702
46496W        W 8027  38.558  38.985  14.898
46497W        W 8028  33.924  41.870   0.851
46498W        W 8029  13.655  39.481   0.803
46499W        W 8030   0.975  41.989   3.309
46500W        W 8031  26.966  15.163   2.774
46501W        W 8032  21.614  16.116   4.160
46502W        W 8033  29.591  15.759  14.826
46503W        W 8034  24.526  15.640  12.987
46504W        W 8035  41.414  36.395  13.011
46505W        W 8036  33.528   6.363   4.831
46506W        W 8037   5.211  29.934  10.962
46507W        W 8038   5.781  30.513   4.205
46508W        W 8039  31.926  18.723  10.565
46509W        W 8040  33.129   6.750  10.632
46510W        W 8041  34.545  41.400   0.262
46511W        W 8042  40.047  19.286   3.651
46512W        W 8043  17.566  43.291   2.256
46513W        W 8044   4.430   1.351  12.407
46514W        W 8045  42.347   9.857  11.408
46515W        W 8046  41.943  15.605  13.055
46516W        W 8047  37.980   5.388   0.335
46517W        W 8048  29.584  39.057  14.377
46518W        W 8049  10.139  20.571  12.913
46519W        W 8050  10.146  27.615   1.311
46520W        W 8051  22.642   8.224  13.998
46521W        W 8052  34.388  41.343   3.166
46522W        W 8053  12.789  23.985   0.435
46523W        W 8054  39.342  31.406  12.877
46524W        W 8055  43.766  27.105  13.365
46525W        W 8056  33.988  31.622  12.987
46526W        W 8057  18.155   5.875  13.829
46527W        W 8058  14.772  27.993   9.967
46528W        W 8059   6.860  41.440   3.346
46529W        W 8060  21.023  11.217  13.542
46530W        W 8061  12.627  36.511   4.214
46531W        W 8062  34.523  38.999   1.408
46532W        W 8063  21.145  26.989   3.814
46533W        W 8064  27.130  33.540  10.902
46534W        W 8065  22.620  41.525  11.572
46535W        W 8066  28.513  14.308   0.379
46536W        W 8067  30.454   8.688   0.927
46537W        W 8068  14.764  25.989  14.334
46538W        W 8069  14.631  11.735   4.267
46539W        W 8070  40.826  42.501   2.898
46540W        W 8071  20.585  41.376  14.031
46541W        W 8072  32.465   7.763   4.323
46542W        W 8073  31.439  35.009  12.933
46543W        W 8074  18.696   0.946   2.722
46544W        W 8075  12.730  11.729  11.890
46545W        W 8076  38.541  22.583   4.673
46546W        W 8077  12.117  12.822   4.134
46547W        W 8078  38.427  11.866   1.317
46548W        W 8079  43.860   8.340   0.886
46549W        W 8080  42.418  19.682  12.823
46550W        W 8081  34.604  26.139   3.777
46551W        W 8082  35.094  19.055  13.898
46552W        W 8083   8.669   0.275   2.342
46553W        W 8084  15.169  16.203  11.545
46554W        W 8085  17.296  33.391  10.118
46555W        W 8086  36.494   3.319  14.966
46556W        W 8087   5.802  40.349   0.291
46557W        W 8088   3.884  37.077  14.869
46558W        W 8089  24.008   7.325   5.305
46559W        W 8090  23.096  38.855  13.916
46560W        W 8091  25.193  30.078   2.891
46561W        W 8092   9.335  34.519   4.723
46562W        W 8093  32.126   6.785   2.746
46563W        W 8094  22.194  42.472   3.702
46564W        W 8095  35.490  24.137  14.401
46565W        W 8096   6.763   5.837  12.431
46566W        W 8097  15.720   9.249   2.405
46567W        W 8098  28.960  23.678   2.189
46568W        W 8099   4.254   2.933   2.821
46569W        W 8100   5.850  27.468  11.546
46570W        W 8101  20.547  40.968   4.652
46571W        W 8102  38.496  25.688   4.336
46572W        W 8103  39.062  17.613  12.404
46573W        W 8104  11.653  44.375  12.913
46574W        W 8105  39.886  31.038   2.852
46575W        W 8106  29.640   8.788  12.920
46576W        W 8107  38.990  22.051  12.418
46577W        W 8108  31.144  32.894   3.221
46578W        W 8109  37.502   7.808   5.108
46579W        W 8110  29.921  11.716   0.903
46580W        W 8111  16.686  12.835  14.843
46581W        W 8112   9.887  31.918  11.593
46582W        W 8113  17.558  35.502   1.362
46583W        W 8114  44.843   3.842  13.924
46584W        W 8115   6.685  32.463  12.384
46585W        W 8116  26.021   3.403  10.913
46586W        W 8117  42.421  29.424  13.926
46587W        W 8118  34.437  31.980  11.880
46588W        W 8119  38.571  33.555   1.695
46589W        W 8120  37.491  27.031   3.295
46590W        W 8121   2.754  32.920  13.358
46591W        W 8122  32.016  27.570   4.340
46592W        W 8123  14.321  17.135  14.457
46593W        W 8124   8.247  40.007   0.804
46594W        W 8125   3.288  41.825   4.708
46595W        W 8126   8.284  41.977   1.399
46596W        W 8127  15.602  36.527  12.410
46597W        W 8128   6.907  22.638  14.788
46598W        W 8129  38.858  41.827   1.770
46599W        W 8130   6.239   6.750  12.468
46600W        W 8131   5.276  37.483   2.681
46601W        W 8132   8.216  21.716  11.944
46602W        W 8133  36.075   7.807   5.177
46603W        W 8134   2.282  42.977   1.271
46604W        W 8135   9.884  34.534   2.711
46605W        W 8136  13.784  42.860  11.967
46606W        W 8137   7.381   4.906   3.191
46607W        W 8138   7.721  37.831   4.604
46608W        W 8139  31.573   4.930   2.270
46609W        W 8140  13.723   3.374  14.437
46610W        W 8141   3.437   2.285   2.301
46611W        W 8142  36.862  27.190   0.908
46612W        W 8143  36.566  10.791   4.117
46613W        W 8144  29.122   2.281   3.201
46614W        W 8145  35.439  32.965   2.315
46615W        W 8146  30.027  15.769   2.364
46616W        W 8147  39.822  12.356   3.783
46617W        W 8148  27.553  30.639  14.831
46618W        W 8149  42.880  30.918   5.211
46619W        W 8150  19.618   6.844   0.860
46620W        W 8151  17.659  33.060   1.228
46621W        W 8152  41.827   0.921   2.365
46622W        W 8153  21.210  27.502   4.270
46623W        W 8154   8.178  42.778   5.303
46624W        W 8155  15.206   2.424   3.826
46625W        W 8156  33.384  21.163  12.889
46626W        W 8157  10.177  24.096   1.737
46627W        W 8158   4.823  10.688  14.421
46628W        W 8159  41.844  22.650   5.284
46629W        W 8160   5.292  16.204   0.453
46630W        W 8161  17.159   5.415   3.191
46631W        W 8162  10.176   5.274  13.806
46632W        W 8163  24.089   5.236  11.608
46633W        W 8164  25.695  25.045   4.261
46634W        W 8165  31.539  17.085  12.881
46635W        W 8166  15.601  35.453   2.866
46636W        W 8167   0.850  15.312  13.836
46637W        W 8168  39.347  40.389   3.160
46638W        W 8169   5.905  31.639  11.938
46639W        W 8170  34.461  27.470   0.854
46640W        W 8171  11.705  38.403  14.508
46641W        W 8172   7.353  12.170   4.644
46642W        W 8173   0.467  25.631  13.366
46643W        W 8174  10.673  31.107  10.490
46644W        W 8175  29.621  44.494  11.530
46645W        W 8176  28.607  34.067   2.858
46646W        W 8177  29.470  20.039   1.803
46647W        W 8178  36.591  44.844  13.435
46648W        W 8179  41.337  42.824   3.691
46649W        W 8180  25.066  14.643   2.775
46650W        W 8181  16.778  43.001   2.788
46651W        W 8182  32.923  39.313   2.834
46652W        W 8183  36.858  18.629   4.601
46653W        W 8184  36.402  24.652   4.246
46654W        W 8185  24.683   1.291  11.910
46655W        W 8186  12.724   0.836  12.546
46656W        W 8187  36.552  44.309   2.199
46657W        W 8188  41.358  27.970  12.911
46658W        W 8189  37.049  34.955   1.328
46659W        W 8190  23.151  35.383  13.482
46660W        W 8191  14.298  42.794  14.304
46661W        W 8192  21.019  26.090   3.292
46662W        W 8193  42.991  19.563  10.640
46663W        W 8194  16.281  18.124   1.404
46664W        W 8195  41.487   6.752   2.900
46665W        W 8196   1.358  40.445   0.322
46666W        W 8197  39.491  11.657  10.447
46667W        W 8198  34.028   9.887  10.577
46668W        W 8199  44.385  36.480  13.854
46669W        W 8200  25.039   0.963  12.415
46670W        W 8201  38.345  11.770   3.171
46671W        W 8202  39.977   8.725  12.391
46672W        W 8203  22.166  36.424   2.213
46673W        W 8204   3.316  10.679  12.921
46674W        W 8205  24.201   4.709   5.245
46675W        W 8206   8.249  36.039   4.201
46676W        W 8207  10.814  34.592   3.803
46677W        W 8208   1.403  38.531  10.430
46678W        W 8209  33.129  43.906  13.530
46679W        W 8210   2.372   3.276  12.464
46680W        W 8211  23.084   9.362   0.864
46681W        W 8212  39.999  11.787  12.900
46682W        W 8213  37.916  16.191  11.036
46683W        W 8214  15.804  44.880  13.057
46684W        W 8215  22.071   4.864   4.798
46685W        W 8216  18.786   3.259   0.355
46686W        W 8217  40.823   7.732  11.967
46687W        W 8218   7.257  35.079  12.494
46688W        W 8219  37.413  36.459  14.758
46689W        W 8220  17.717   2.766   4.642
46690W        W 8221   6.276  14.245  13.806
46691W        W 8222  34.952  35.941  10.137
46692W        W 8223  41.499   1.317   0.285
46693W        W 8224  39.839  15.136   2.859
46694W        W 8225  43.394  12.152   1.843
46695W        W 8226  25.993  27.507  13.058
46696W        W 8227  22.680  27.993   5.189
46697W        W 8228  19.604  31.957   2.831
46698W        W 8229  17.305   8.759  13.838
46699W        W 8230  28.058  19.116  10.621
46700W        W 8231  10.743  35.390  10.445
46701W        W 8232  42.854   1.256   1.410
46702W        W 8233  22.614  12.347  11.027
46703W        W 8234  26.983  25.180   5.197
46704W        W 8235   4.312  35.375   3.828
46705W        W 8236  37.067  22.121   3.762
46706W        W 8237  36.496  17.794  12.964
46707W        W 8238  22.138  39.827  12.432
46708W        W 8239  10.651  35.379  14.001
46709W        W 8240  43.434  34.959   0.819
46710W        W 8241  21.199  10.662  11.863
46711W        W 8242  39.026  12.829   0.830
46712W        W 8243  32.052   3.448  13.904
46713W        W 8244  32.532  35.080  12.843
46714W        W 8245   3.450  12.840  14.415
46715W        W 8246   5.786   4.337   4.270
46716W        W 8247   1.271   1.762   1.875
46717W        W 8248   7.667  13.737  11.530
46718W        W 8249  19.047  43.976   3.359
46719W        W 8250  38.902  38.875  13.828
46720W        W 8251  27.550  32.452  14.786
46721W        W 8252  20.730   7.811  14.306
46722W        W 8253  40.888  12.278  12.490
46723W        W 8254  38.946  17.638  11.410
46724W        W 8255  37.053  42.818   1.232
46725W        W 8256  30.103  38.517   2.387
46726W        W 8257  27.508  43.320   0.425
46727W        W 8258  41.846  43.468  10.513
46728W        W 8259  10.731  24.076   3.653
46729W        W 8260  12.136   2.407   3.271
46730W        W 8261  27.054   5.891   4.739
46731W        W 8262  10.742  40.485  14.294
46732W        W 8263  24.095   0.455   5.110
46733W        W 8264   5.363  10.359  13.509
46734W        W 8265  27.145  37.904  14.348
46735W        W 8266  11.780   5.321   0.803
46736W        W 8267  19.572  23.159   4.836
46737W        W 8268   4.835  12.142  13.375
46738W        W 8269  38.042   3.440   4.664
46739W        W 8270  25.626  22.598   2.272
46740W        W 8271  36.988  22.192  12.858
46741W        W 8272  39.324  26.040  11.039
46742W        W 8273  40.867   7.691  13.800
46743W        W 8274  23.517  36.855   1.276
46744W        W 8275  44.834  36.864  12.446
46745W        W 8276   1.318  12.673  13.527
46746W        W 8277  22.528   8.346  12.952
46747W        W 8278  26.585  27.166   2.204
46748W        W 8279  35.374  18.091  13.010
46749W        W 8280  36.367  14.163  11.934
46750W        W 8281   9.672  19.177   4.830
46751W        W 8282  14.298  20.572  11.105
46752W        W 8283   8.184  23.163   0.948
46753W        W 8284  16.306   6.806  12.008
46754W        W 8285  14.105   3.797  12.869
46755W        W 8286  23.142   2.268   1.873
46756W        W 8287   4.712   6.216  12.950
46757W        W 8288  36.909  42.785   3.192
46758W        W 8289  33.422  36.577   1.425
46759W        W 8290  42.398  27.625   4.233
46760W        W 8291  17.674  22.559   4.749
46761W        W 8292   1.820   4.717  14.290
46762W        W 8293  42.375  37.075  11.549
46763W        W 8294  35.906   2.447   3.291
46764W        W 8295   8.882   9.172   4.781
46765W        W 8296  10.355  29.097  10.076
46766W        W 8297  28.604  42.370   1.410
46767W        W 8298  20.104  33.877  10.990
46768W        W 8299   8.775   8.321   1.707
46769W        W 8300  19.561  26.034   0.263
46770W        W 8301  20.685  40.933   3.370
46771W        W 8302  39.813  42.873  12.894
46772W        W 8303   8.787  37.870  12.571
46773W        W 8304  25.670  34.430   1.441
46774W        W 8305   3.911  14.236  11.429
46775W        W 8306  12.324  21.555  10.508
46776W        W 8307   7.409   9.310   4.270
46777W        W 8308  28.002   7.891  10.050
46778W        W 8309   3.424   2.277   0.883
46779W        W 8310  17.571  32.029  13.336
46780W        W 8311  30.991  10.868   1.873
46781W        W 8312  21.717   3.812   1.286
46782W        W 8313  42.424   8.207   1.705
46783W        W 8314  27.554  27.568   1.327
46784W        W 8315  43.920  10.872   4.332
46785W        W 8316  38.057  26.954   3.704
46786W        W 8317  31.643   8.213  13.008
46787W        W 8318  42.791  40.903  12.984
46788W        W 8319  16.190   4.225  10.601
46789W        W 8320  32.098   6.746   0.353
46790W        W 8321  29.508  35.362   2.752
46791W        W 8322  14.634  29.145   3.837
46792W        W 8323  43.927  18.276  14.956
46793W        W 8324   8.196   4.356  13.406
46794W        W 8325  26.494   5.873  13.404
46795W        W 8326  44.469  37.355  12.013
46796W        W 8327  13.609   9.337  14.344
46797W        W 8328  30.118  42.415   0.772
46798W        W 8329  34.072   5.807  13.422
46799W        W 8330  43.317  29.128   1.812
46800W        W 8331  25.091  10.838  14.358
46801W        W 8332  16.578  21.667  11.046
46802W        W 8333   0.882   0.802   1.422
46803W        W 8334  39.909  25.636   1.334
46804W        W 8335  44.266  22.561   1.831
46805W        W 8336  26.052  34.401  14.323
46806W        W 8337  26.693  28.140  14.313
46807W        W 8338  38.985  36.358   3.862
46808W        W 8339  30.908   2.361   2.256
46809W        W 8340  21.595   6.795   2.307
46810W        W 8341  28.640  19.157  14.832
46811W        W 8342   7.812  36.479  14.854
46812W        W 8343  14.772  19.754  11.024
46813W        W 8344  19.628   3.852  10.927
46814W        W 8345  14.108  21.664  13.871
46815W        W 8346  38.907  23.696   3.358
46816W        W 8347  23.667  40.391  13.531
46817W        W 8348   9.317   0.839  13.854
46818W        W 8349  22.627  22.746  12.958
46819W        W 8350  25.077  22.575  10.896
46820W        W 8351  10.224  17.720   4.271
46821W        W 8352  17.637  38.470  11.991
46822W        W 8353  10.689  15.636  11.084
46823W        W 8354  16.123  11.139   3.775
46824W        W 8355  17.196  33.601   1.880
46825W        W 8356  14.307  41.460  14.338
46826W        W 8357  37.043  23.713   4.751
46827W        W 8358  35.551  28.978   2.728
46828W        W 8359  43.439  23.231  12.091
46829W        W 8360  25.211  11.289   4.613
46830W        W 8361  42.397  17.710   3.378
46831W        W 8362   8.335   8.740   3.324
46832W        W 8363  18.285  42.855   0.296
46833W        W 8364  37.042   1.273  14.814
46834W        W 8365  39.874  13.621  14.504
46835W        W 8366  43.510   6.762  11.864
46836W        W 8367  38.369  30.136  10.458
46837W        W 8368  42.281   8.872  11.507
46838W        W 8369  24.147  31.455   1.821
46839W        W 8370   2.353  11.156  14.425
46840W        W 8371  41.953  37.024  11.593
46841W        W 8372  34.009   2.938   1.421
46842W        W 8373  24.690  40.409   1.857
46843W        W 8374  18.275  29.979   2.779
46844W        W 8375  23.592   1.831  10.596
46845W        W 8376  32.124  28.453  13.429
46846W        W 8377  37.950  23.640  14.940
46847W        W 8378  14.209  41.909   5.308
46848W        W 8379  10.267   3.439   2.792
46849W        W 8380  27.953  25.014  13.525
46850W        W 8381  16.308   8.167   4.208
46851W        W 8382  44.756  21.159  11.528
46852W        W 8383  11.782  31.912  12.977
46853W        W 8384  15.260  38.857  10.068
46854W        W 8385  42.471  22.591   3.648
46855W        W 8386  26.673  40.824   4.599
46856W        W 8387   0.808  33.596  14.824
46857W        W 8388  29.568  25.215  14.466
46858W        W 8389  13.240  39.924   2.785
46859W        W 8390  21.057   6.301   0.387
46860W        W 8391  11.727  25.690   0.290
46861W        W 8392  27.470  35.925  13.396
46862W        W 8393  21.147  34.919  14.816
46863W        W 8394  33.522  39.003   3.386
46864W        W 8395  10.231   5.916  10.507
46865W        W 8396  42.823   8.675   1.895
46866W        W 8397  24.529  16.184   0.832
46867W        W 8398  14.294  34.426   3.650
46868W        W 8399   9.731  25.650  14.289
46869W        W 8400  10.313  34.901   2.697
46870W        W 8401  30.087  25.564   2.340
46871W        W 8402  15.771  25.036  12.496
46872W        W 8403  19.085  42.848   0.402
46873W        W 8404  34.413  32.463   0.277
46874W        W 8405  30.068   2.744  11.505
46875W        W 8406  17.641  42.004  12.388
46876W        W 8407  20.597  24.523  11.505
46877W        W 8408   1.442  40.502   3.170
46878W        W 8409  44.990   1.829  11.025
46879W        W 8410   9.201  19.617   5.290
46880W        W 8411  13.677  14.198  13.977
46881W        W 8412   6.804  30.143  10.996
46882W        W 8413  17.122   0.397  13.381
46883W        W 8414  23.235  31.965   4.138
46884W        W 8415  32.401  25.066   5.314
46885W        W 8416  22.206  23.106  12.983
46886W        W 8417  41.997  41.898  12.955
46887W        W 8418  24.561   9.705  14.411
46888W        W 8419  22.024  33.993   0.324
46889W        W 8420   6.863  27.508   0.291
46890W        W 8421  19.756  19.624  13.833
46891W        W 8422  34.079  11.834  11.534
46892W        W 8423  31.454  12.625  11.936
46893W        W 8424   7.676  40.919   0.421
46894W        W 8425  32.138  20.613  13.832
46895W        W 8426  14.699   5.316  11.464
46896W        W 8427   3.759  33.610  10.902
46897W        W 8428  33.919  14.600  14.446
46898W        W 8429  23.536   7.403  11.574
46899W        W 8430  37.561  17.170   5.140
46900W        W 8431  40.548  43.503  12.423
46901W        W 8432  13.233  18.661  12.516
46902W        W 8433  36.889  32.545   4.322
46903W        W 8434   7.793  16.673  14.303
46904W        W 8435  41.435  31.064  14.423
46905W        W 8436  13.839   3.952  14.990
46906W        W 8437  30.014   1.443   4.218
46907W        W 8438  29.118  32.126  12.030
46908W        W 8439  10.647   4.253   2.687
46909W        W 8440  15.104  16.688  12.895
46910W        W 8441   3.755   0.747   0.247
46911W        W 8442  14.248  11.346  11.969
46912W        W 8443  41.465  30.627   0.402
46913W        W 8444   7.300  43.987  12.078
46914W        W 8445  37.582  42.907   3.197
46915W        W 8446  26.053  24.530  14.441
46916W        W 8447  17.296  10.817  12.842
46917W        W 8448  34.986  30.491  10.025
46918W        W 8449  19.195  23.091  14.321
46919W        W 8450  15.757  32.539  13.442
46920W        W 8451  28.600   2.231   1.292
46921W        W 8452  44.898   0.319  11.984
46922W        W 8453  44.823  15.098  14.419
46923W        W 8454  26.495   7.322   0.857
46924W        W 8455  16.145  34.543  14.000
46925W        W 8456  15.641   4.834   2.772
46926W        W 8457  39.837  36.543   3.871
46927W        W 8458   6.187  37.001   4.762
46928W        W 8459  20.055  13.198   1.383
46929W        W 8460  33.547  21.656  12.872
46930W        W 8461  16.766  21.109   4.166
46931W        W 8462  24.539  40.992   0.775
46932W        W 8463  12.147  44.395  14.961
46933W        W 8464  22.120  28.503  14.858
46934W        W 8465  28.001  11.729  10.964
46935W        W 8466  20.275   3.393  14.367
46936W        W 8467  26.047   6.184  10.505
46937W        W 8468  23.668  43.397  12.501
46938W        W 8469  43.501   7.796   1.340
46939W        W 8470   2.807  26.621   5.258
46940W        W 8471  10.796   7.300  11.441
46941W        W 8472   7.824  16.616   0.479
46942W        W 8473   3.769  22.187   3.629
46943W        W 8474  32.978  37.449  13.943
46944W        W 8475  11.332  19.113   1.247
46945W        W 8476   7.708  25.508  13.456
46946W        W 8477   4.383  20.666   0.398
46947W        W 8478  33.463  19.144   4.794
46948W        W 8479  33.045  12.162  13.062
46949W        W 8480  10.277  24.708  11.476
46950W        W 8481  35.960  19.700   3.772
46951W        W 8482   3.865   6.729  14.396
46952W        W 8483   5.409   8.658   1.785
46953W        W 8484  42.512  14.174   5.145
46954W        W 8485  16.682   5.888  13.462
46955W        W 8486  18.088  29.135  13.012
46956W        W 8487  17.199   9.297  11.956
46957W        W 8488  42.919  40.931   2.300
46958W        W 8489  16.811  21.543   9.601
46959W        W 8490  44.944  33.393   2.417
46960W        W 8491  18.719  13.182  14.422
46961W        W 8492  14.618  36.943   0.856
46962W        W 8493   1.765  33.008  10.965
46963W        W 8494  16.253  44.927  11.414
46964W        W 8495  41.948   8.900  10.480
46965W        W 8496   2.342  27.448  12.405
46966W        W 8497  22.623   6.408   3.819
46967W        W 8498   6.915  33.918   3.865
46968W        W 8499  16.737   5.288  10.910
46969W        W 8500  21.700  33.014  12.987
46970W        W 8501  34.959  27.197  12.842
46971W        W 8502  26.520  34.080  14.953
46972W        W 8503  12.780  34.912   2.730
46973W        W 8504   8.693  40.936   3.816
46974W        W 8505   9.201  30.030   1.728
46975W        W 8506  43.787  34.980  14.819
46976W        W 8507   5.758   9.278   1.438
46977W        W 8508  30.459   4.438  10.915
46978W        W 8509  32.962  12.207  14.318
46979W        W 8510  26.505  12.839  11.071
46980W        W 8511   3.793  28.018  13.309
46981W        W 8512  38.483  14.805   0.791
46982W        W 8513  21.043  32.544   0.462
46983W        W 8514  30.510   2.361  12.045
46984W        W 8515  41.365  15.313   1.374
46985W        W 8516  10.805  25.660   3.146
46986W        W 8517  39.033  25.662  14.346
46987W        W 8518  43.451  28.626   0.373
46988W        W 8519  12.217   5.754   1.272
46989W        W 8520   0.381   7.383   2.887
46990W        W 8521   9.816  22.227  12.501
46991W        W 8522  27.971   3.893   0.335
46992W        W 8523   3.380  19.585  13.872
46993W        W 8524  31.910  37.953  14.489
46994W        W 8525  43.964  42.459  13.492
46995W        W 8526   6.678  33.404   1.418
46996W        W 8527  32.580  19.649  11.523
46997W        W 8528  22.148  39.961  14.439
46998W        W 8529  29.488  37.526   4.750
46999W        W 8530  25.604  28.543   1.383
47000W        W 8531   0.800  41.917   1.731
47001W        W 8532  17.671  24.498   4.236
47002W        W 8533  19.677  30.576   2.191
47003W        W 8534  21.747  22.183  12.020
47004W        W 8535  31.989  17.115  13.481
47005W        W 8536  40.822  12.175  10.955
47006W        W 8537   5.351  37.426   3.148
47007W        W 8538  40.346  33.127   2.761
47008W        W 8539   0.494  39.994  11.870
47009W        W 8540  44.486  42.319   2.405
47010W        W 8541  21.058  18.109   0.244
47011W        W 8542  43.515  34.571   3.804
47012W        W 8543  10.243   6.413  13.336
47013W        W 8544  12.224  34.969   3.629
47014W        W 8545  39.844  13.740  14.024
47015W        W 8546  13.751  40.487   2.252
47016W        W 8547  37.921   2.378   4.257
47017W        W 8548  11.352  29.934   0.730
47018W        W 8549  17.581   7.249  12.062
47019W        W 8550   9.319  44.888   0.894
47020W        W 8551  18.761  39.394   3.794
47021W        W 8552  22.524  34.987   1.266
47022W        W 8553   4.882   1.950   4.146
47023W        W 8554   7.759  43.486   4.669
47024W        W 8555  43.849  19.650   1.901
47025W        W 8556  19.629   0.872  14.767
47026W        W 8557  25.469  33.112  10.978
47027W        W 8558  30.621   3.261   2.754
47028W        W 8559  24.979  21.696   2.376
47029W        W 8560   1.478  25.170  12.057
47030W        W 8561  40.529  43.962   2.860
47031W        W 8562  33.583   4.834  10.558
47032W        W 8563  14.179   2.329   1.217
47033W        W 8564  33.892  32.929  12.577
47034W        W 8565   1.371   8.796  13.947
47035W        W 8566   6.396  14.180   0.928
47036W        W 8567  16.129  27.138   1.786
47037W        W 8568   3.866  43.876   4.704
47038W        W 8569  14.751   3.259   2.214
47039W        W 8570  16.310  41.883   2.781
47040W        W 8571   2.233  34.467   2.412
47041W        W 8572   7.298   5.709  13.920
47042W        W 8573  24.219  23.600   1.797
47043W        W 8574  20.028  24.225  12.063
47044W        W 8575  28.565  18.655   2.260
47045W        W 8576  34.394  22.147   4.716
47046W        W 8577  22.207  15.615  12.064
47047W        W 8578  29.075  33.586  14.492
47048W        W 8579   6.923  24.211  12.926
47049W        W 8580   3.421  25.115   4.624
47050W        W 8581  28.578   9.874  13.532
47051W        W 8582  11.267  36.931   2.795
47052W        W 8583   8.868  13.709   0.254
47053W        W 8584  10.856  14.321  11.025
47054W        W 8585  13.754  15.786  11.581
47055W        W 8586  44.847  13.824   3.696
47056W        W 8587  29.616  11.650   1.444
47057W        W 8588  24.088  43.968   4.671
47058W        W 8589  12.785  29.957  11.880
47059W        W 8590  10.645   3.299  13.339
47060W        W 8591  44.783  17.163   2.722
47061W        W 8592  22.115  43.965  13.534
47062W        W 8593  27.555  20.179  14.911
47063W        W 8594  27.543   6.328  12.442
47064W        W 8595  18.716  11.659  14.777
47065W        W 8596  37.432   3.374  14.011
47066W        W 8597   4.282  38.041  14.818
47067W        W 8598   4.704  41.879   0.336
47068W        W 8599  40.991  42.891  14.947
47069W        W 8600   9.718  17.097   0.360
47070W        W 8601  29.435  39.880  12.514
47071W        W 8602   2.376  40.989  13.519
47072W        W 8603  30.031  27.101   2.292
47073W        W 8604  37.032   5.338  10.424
47074W        W 8605   9.875  29.134  11.006
47075W        W 8606  28.516   0.941  14.508
47076W        W 8607  16.787  19.110   0.442
47077W        W 8608  23.216  18.551   2.346
47078W        W 8609  40.488  31.032  11.995
47079W        W 8610  27.491  26.491  13.486
47080W        W 8611  32.978  14.269   4.673
47081W        W 8612  28.964   9.233  14.857
47082W        W 8613  12.294   4.320  11.086
47083W        W 8614  19.115  27.111  10.972
47084W        W 8615  13.350  19.068   2.252
47085W        W 8616   1.733  26.553  12.530
47086W        W 8617  17.247  43.346   2.787
47087W        W 8618   9.816   9.830  13.802
47088W        W 8619  44.354  29.592   3.829
47089W        W 8620  18.143  35.092  12.562
47090W        W 8621  35.032  23.210   1.764
47091W        W 8622  18.639  19.780  14.801
47092W        W 8623   1.245   5.931  10.909
47093W        W 8624  16.182  14.129   5.135
47094W        W 8625  43.375   6.683   2.827
47095W        W 8626  35.486  27.624   2.706
47096W        W 8627   4.764   6.241  14.881
47097W        W 8628  10.145   4.942  10.583
47098W        W 8629   8.752  13.294   4.184
47099W        W 8630  31.023  19.754   0.933
47100W        W 8631  25.156  28.985  12.091
47101W        W 8632   1.394  25.523   3.185
47102W        W 8633  40.047  44.847   2.334
47103W        W 8634   1.404   0.350  12.514
47104W        W 8635   5.200  24.668  13.968
47105W        W 8636  31.965   0.940  12.509
47106W        W 8637  26.625  22.109  10.947
47107W        W 8638  42.008  24.660   3.698
47108W        W 8639   1.259   7.207  12.974
47109W        W 8640  21.167  43.883  12.340
47110W        W 8641  20.230   8.685  13.439
47111W        W 8642  31.502  43.838   4.745
47112W        W 8643  44.948  11.202   4.771
47113W        W 8644   1.427   0.946   2.887
47114W        W 8645  22.707  36.863   3.720
47115W        W 8646  22.623  27.071  13.338
47116W        W 8647  29.129  13.602   4.617
47117W        W 8648  28.572  25.996   0.401
47118W        W 8649  22.722  39.937   0.871
47119W        W 8650  43.933  11.171   0.418
47120W        W 8651  26.551  31.086  12.887
47121W        W 8652  26.147  31.585   1.932
47122W        W 8653  20.764  26.012   3.304
47123W        W 8654  28.096  13.763   1.873
47124W        W 8655   8.872  25.663   4.327
47125W        W 8656  35.855  29.984   2.832
47126W        W 8657   1.309   0.822   4.624
47127W        W 8658   2.399  31.966   3.329
47128W        W 8659  28.068  41.527  14.952
47129W        W 8660   0.963  42.972   1.796
47130W        W 8661  16.723  19.699  10.640
47131W        W 8662   0.347  35.456  14.343
47132W        W 8663  11.224  26.686  13.956
47133W        W 8664  14.683   0.381  12.995
47134W        W 8665  38.525   1.470   3.691
47135W        W 8666  27.482  30.481  13.336
47136W        W 8667  24.513  10.376  14.339
47137W        W 8668  10.707   9.724   2.403
47138W        W 8669  28.168  18.070   3.252
47139W        W 8670  22.560  37.940  12.827
47140W        W 8671  17.177   9.699   0.839
47141W        W 8672  17.116  42.968  11.430
47142W        W 8673  38.895   6.753  12.936
47143W        W 8674  44.758  32.954   2.827
47144W        W 8675  42.514   4.284  10.933
47145W        W 8676  33.516  40.040  11.593
47146W        W 8677  27.615   6.884  11.927
47147W        W 8678  13.770  16.697   1.825
47148W        W 8679   1.309  24.165  14.901
47149W        W 8680  38.500   7.681  10.117
47150W        W 8681  40.929  21.057   0.908
47151W        W 8682   1.778  17.305   0.468
47152W        W 8683  10.797  37.841   3.753
47153W        W 8684  37.532  26.542   0.368
47154W        W 8685  19.708  21.569  10.942
47155W        W 8686  17.208  26.672   1.919
47156W        W 8687  31.429   9.831  12.469
47157W        W 8688  26.085   0.862  13.961
47158W        W 8689  27.484  28.664  12.845
47159W        W 8690  41.869  38.861   3.152
47160W        W 8691  10.743   1.402   0.299
47161W        W 8692   5.320   7.695  13.357
47162W        W 8693  21.081  15.794  11.872
47163W        W 8694   4.932  44.852   1.254
47164W        W 8695  29.534  13.191   3.315
47165W        W 8696  36.038  40.377   1.752
47166W        W 8697   9.317  26.980  11.017
47167W        W 8698  12.616  20.122  12.865
47168W        W 8699   9.248  17.663  11.450
47169W        W 8700  27.544   5.319  14.018
47170W        W 8701  29.141   0.406   3.233
47171W        W 8702   2.769  16.162  10.968
47172W        W 8703  28.621   8.815   0.882
47173W        W 8704  13.677  14.300  10.559
47174W        W 8705  18.193  28.001  11.375
47175W        W 8706  15.621   3.740   0.371
47176W        W 8707  22.019  17.105  13.955
47177W        W 8708  34.529  19.634  13.927
47178W        W 8709  43.335  11.833  12.037
47179W        W 8710  43.011  11.275  11.532
47180W        W 8711  11.843  33.611   1.218
47181W        W 8712  28.088  34.079  13.473
47182W        W 8713  10.863  35.055   0.457
47183W        W 8714  29.993  38.388  14.865
47184W        W 8715   4.438  19.194  11.473
47185W        W 8716  23.662  37.473   4.351
47186W        W 8717   8.679   9.710   1.287
47187W        W 8718  17.189   5.227  12.492
47188W        W 8719  24.583   7.206   4.349
47189W        W 8720   3.870  42.419  13.861
47190W        W 8721  27.555  19.048  14.400
47191W        W 8722  17.645  24.151   4.598
47192W        W 8723  32.530  32.013   3.328
47193W        W 8724   9.844  24.097   0.480
47194W        W 8725  44.425  30.500  14.414
47195W        W 8726  12.781  24.985   2.406
47196W        W 8727  22.724   5.332  13.818
47197W        W 8728  42.916   5.406   1.264
47198W        W 8729  14.317  21.750  11.878
47199W        W 8730  16.778  43.352  12.372
47200W        W 8731  10.379  26.503  13.444
47201W        W 8732   7.715  27.028  12.999
47202W        W 8733  18.731  12.617   0.382
47203W        W 8734  28.615  41.911   4.243
47204W        W 8735  22.677  31.105  11.013
47205W        W 8736  41.879  23.172  11.488
47206W        W 8737  18.195  34.401  11.945
47207W        W 8738   6.328  17.584  12.443
47208W        W 8739  24.147  29.440   0.776
47209W        W 8740  42.352  27.158   3.279
47210W        W 8741  29.108   3.251   3.768
47211W        W 8742  27.616  23.700   3.333
47212W        W 8743  17.602  26.693  13.876
47213W        W 8744  39.846  30.059  11.117
47214W        W 8745   2.289  33.089   1.737
47215W        W 8746  26.046   5.317   4.201
47216W        W 8747  15.146  24.213  12.346
47217W        W 8748  41.856  21.089   1.921
47218W        W 8749  33.485  21.019   4.829
47219W        W 8750  39.000  33.520   3.256
47220W        W 8751  41.915  11.139  11.109
47221W        W 8752  36.500  12.268  10.550
47222W        W 8753  22.235  17.103   0.398
47223W        W 8754  26.661   3.926   3.374
47224W        W 8755  30.565  30.597  14.926
47225W        W 8756  31.501  22.522   1.856
47226W        W 8757  11.355   3.895  12.069
47227W        W 8758  19.058  29.960   4.172
47228W        W 8759  21.248  33.626   2.669
47229W        W 8760   8.826   0.921  14.016
47230W        W 8761  14.220  22.035  14.766
47231W        W 8762  33.900  28.022  12.471
47232W        W 8763  34.949  18.127   0.805
47233W        W 8764   2.256  16.643  10.546
47234W        W 8765  38.487  17.300  11.378
47235W        W 8766   7.671   8.238  14.956
47236W        W 8767   2.458  27.453   3.711
47237W        W 8768  19.666  40.363   4.700
47238W        W 8769  33.470  23.130  10.425
47239W        W 8770   9.299  31.424  12.484
47240W        W 8771  13.766   4.921   0.294
47241W        W 8772  17.172  30.553  10.421
47242W        W 8773  23.993  13.705  13.872
47243W        W 8774  41.985   8.215  10.966
47244W        W 8775  20.226  18.740   1.346
47245W        W 8776  35.089  10.194   9.929
47246W        W 8777  32.072   6.231   1.314
47247W        W 8778   9.174  30.559   4.788
47248W        W 8779  39.359  24.989   4.300
47249W        W 8780  28.184  16.072  12.952
47250W        W 8781  28.596  34.962  11.529
47251W        W 8782  24.705  32.511   5.578
47252W        W 8783  43.914   9.250  13.480
47253W        W 8784   5.304  41.478  11.468
47254W        W 8785  19.236  35.911   2.404
47255W        W 8786  37.916   2.395   4.644
47256W        W 8787   5.728  22.115  11.554
47257W        W 8788   1.273  34.571  12.400
47258W        W 8789  11.744   0.791   5.278
47259W        W 8790  34.437  40.936  13.504
47260W        W 8791  31.039  16.081   0.914
47261W        W 8792  34.571  34.059   3.261
47262W        W 8793  26.484  20.274  11.535
47263W        W 8794  15.265   6.750   3.664
47264W        W 8795  31.909  34.504   1.310
47265W        W 8796  39.877   4.768   2.363
47266W        W 8797  25.168  21.178   4.764
47267W        W 8798  39.933  36.457   1.222
47268W        W 8799  19.056  35.871   1.211
47269W        W 8800   7.275   4.278   4.623
47270W        W 8801  27.021   7.768  11.893
47271W        W 8802  39.835   4.429  13.460
47272W        W 8803  43.005  24.197  14.898
47273W        W 8804  42.331  22.051   3.742
47274W        W 8805  28.518  23.698  14.808
47275W        W 8806  24.076  17.148  13.310
47276W        W 8807  27.452  27.536   0.801
47277W        W 8808  31.582   9.694  13.531
47278W        W 8809  42.844  44.398   3.227
47279W        W 8810   6.770  40.932  10.431
47280W        W 8811   2.765  41.982  14.879
47281W        W 8812  35.417  32.537   3.215
47282W        W 8813  11.813  16.213  10.440
47283W        W 8814   1.424   4.336   3.241
47284W        W 8815  31.005  10.224   1.358
47285W        W 8816  14.199   6.303   5.133
47286W        W 8817  30.658  16.206  13.026
47287W        W 8818  33.120  35.037   2.381
47288W        W 8819  43.995   6.871   3.675
47289W        W 8820  26.988  39.510   2.193
47290W        W 8821  38.437  40.395  12.971
47291W        W 8822  40.856  19.773  11.003
47292W        W 8823   6.283  33.522   2.790
47293W        W 8824  10.791   8.375   4.802
47294W        W 8825  28.094  30.425   3.641
47295W        W 8826  34.883  29.052  13.950
47296W        W 8827  14.249   6.337   0.428
47297W        W 8828  21.253   0.961  14.982
47298W        W 8829  22.195   8.296   1.715
47299W        W 8830  21.118  12.689   1.858
47300W        W 8831  24.121  22.140   2.758
47301W        W 8832  29.570  19.041   3.640
47302W        W 8833  35.005   4.829  13.041
47303W        W 8834  13.181  12.210  13.061
47304W        W 8835  22.650  31.614  11.952
47305W        W 8836   6.381   7.397   1.421
47306W        W 8837  36.033   8.316   2.745
47307W        W 8838  11.251   9.645  12.041
47308W        W 8839  20.149  36.972   0.264
47309W        W 8840  11.292  44.345  14.980
47310W        W 8841   5.262  31.427   4.218
47311W        W 8842  20.573  25.508  11.394
47312W        W 8843  32.474  42.018  11.020
47313W        W 8844  27.089  20.616   4.729
47314W        W 8845  11.703   4.787  13.505
47315W        W 8846  37.381  37.034  11.567
47316W        W 8847  36.888  38.902   1.900
47317W        W 8848  12.192  28.613   2.722
47318W        W 8849  16.657  13.295   0.284
47319W        W 8850  34.051  39.395   2.222
47320W        W 8851  17.114  25.104  14.342
47321W        W 8852  17.301  40.920  14.338
47322W        W 8853  31.580   9.163   9.467
47323W        W 8854   7.802  20.239  11.490
47324W        W 8855   9.866  25.480  12.514
47325W        W 8856  32.047  28.058  13.945
47326W        W 8857   2.850   8.331   1.427
47327W        W 8858   5.422  27.080   0.831
47328W        W 8859  32.928  39.856   0.438
47329W        W 8860  29.098  10.344  14.821
47330W        W 8861   3.394  17.654   4.225
47331W        W 8862  39.969  36.397  11.002
47332W        W 8863  22.186  32.033  14.483
47333W        W 8864  40.852  32.447  11.407
47334W        W 8865  32.017   1.254  12.460
47335W        W 8866   4.936  33.945   4.163
47336W        W 8867  13.814  38.905   2.691
47337W        W 8868  13.819  18.151  11.390
47338W        W 8869   2.810  19.717   3.684
47339W        W 8870  39.331  44.838  14.312
47340W        W 8871  19.699   6.765   2.404
47341W        W 8872  13.712  10.254   4.352
47342W        W 8873  33.581  36.495  10.481
47343W        W 8874  22.214  13.836   3.279
47344W        W 8875  31.929  18.214  12.425
47345W        W 8876  44.373  34.114   2.226
47346W        W 8877  17.223  35.882  11.909
47347W        W 8878  35.423   7.388  13.364
47348W        W 8879  11.325   1.372  14.877
47349W        W 8880  33.040  21.190  12.924
47350W        W 8881  37.402   3.763  11.491
47351W        W 8882  25.513  28.986   1.414
47352W        W 8883  41.987  22.726   3.843
47353W        W 8884  38.352  34.459   4.659
47354W        W 8885  22.089   3.359   1.774
47355W        W 8886   8.265  28.093  12.521
47356W        W 8887   8.772  41.518  14.899
47357W        W 8888  27.476  36.016   3.827
47358W        W 8889  40.534  26.462  10.082
47359W        W 8890  36.888  15.310   0.428
47360W        W 8891  13.829  44.287  11.433
47361W        W 8892  36.589  22.661  11.597
47362W        W 8893   1.310   3.743   2.413
47363W        W 8894  26.188  25.710   2.713
47364W        W 8895  19.713  41.982  11.042
47365W        W 8896  35.038  26.119   1.932
47366W        W 8897   4.407  30.502   4.339
47367W        W 8898  16.303   7.806   0.855
47368W        W 8899  24.674  11.327  14.875
47369W        W 8900   8.198  28.981  10.612
47370W        W 8901  28.465  36.940   1.865
47371W        W 8902  44.827  32.418  12.942
47372W        W 8903  25.507  30.026   0.806
47373W        W 8904  14.649  43.959  14.951
47374W        W 8905  21.045   0.289   0.297
47375W        W 8906  18.612  35.396   4.213
47376W        W 8907  31.896  31.058   4.803
47377W        W 8908  16.683   3.328   2.371
47378W        W 8909  38.346   6.396   1.396
47379W        W 8910  17.074  26.563  10.082
47380W        W 8911  16.777  22.562  14.307
47381W        W 8912   8.297  15.302  11.055
47382W        W 8913  31.483  44.301  11.530
47383W        W 8914   7.268  37.496  11.605
47384W        W 8915  42.856  33.453  14.773
47385W        W 8916  23.709  38.486   2.887
47386W        W 8917  36.369  39.985   3.366
47387W        W 8918  20.668  25.662  14.514
47388W        W 8919   2.430  26.029  11.457
47389W        W 8920  41.950  33.917  11.569
47390W        W 8921  19.045  36.459  14.765
47391W        W 8922  33.532  33.400   4.278
47392W        W 8923   0.299  25.705  12.011
47393W        W 8924  30.421  27.055   2.269
47394W        W 8925  12.221   5.396  13.028
47395W        W 8926  24.601   8.259   3.757
47396W        W 8927  17.133  18.612   3.358
47397W        W 8928  30.946  42.776  10.116
47398W        W 8929  39.012  18.704   1.704
47399W        W 8930  20.739   1.876  11.394
47400W        W 8931  31.534  23.641   2.768
47401W        W 8932  13.116   4.381   0.277
47402W        W 8933  34.065  10.690   0.464
47403W        W 8934  17.238   3.414   2.329
47404W        W 8935  13.607  36.592   4.799
47405W        W 8936  24.667   0.375  13.339
47406W        W 8937  33.502  26.144   2.310
47407W        W 8938   3.864  42.856   4.295
47408W        W 8939  14.332   1.351  12.377
47409W        W 8940  32.416  35.408  13.808
47410W        W 8941  10.142  30.627  10.138
47411W        W 8942  10.824  32.977   4.286
47412W        W 8943   3.352  42.934   1.423
47413W        W 8944   1.361  12.320   3.750
47414W        W 8945  24.003   2.956  11.424
47415W        W 8946  12.187  25.546   4.159
47416W        W 8947  19.575   8.793   5.156
47417W        W 8948  23.989   7.341   1.434
47418W        W 8949   2.782   7.806  13.377
47419W        W 8950  14.179  40.525   1.756
47420W        W 8951  43.493   3.783  14.903
47421W        W 8952  33.108  14.223   1.764
47422W        W 8953  30.452   4.812   4.774
47423W        W 8954  37.373  33.619  14.471
47424W        W 8955  18.761  29.624  10.587
47425W        W 8956   6.919  14.340  10.417
47426W        W 8957  44.324  15.762   4.239
47427W        W 8958   0.277   7.693   2.384
47428W        W 8959  38.502  33.549  12.887
47429W        W 8960  29.573   0.986  12.409
47430W        W 8961  25.660  37.365  12.939
47431W        W 8962  13.644  39.901   2.349
47432W        W 8963  11.813  15.224  14.987
47433W        W 8964  11.276  30.112  10.584
47434W        W 8965  16.686  18.555  13.325
47435W        W 8966  16.660  19.185   1.373
47436W        W 8967   1.837  28.462  13.889
47437W        W 8968  30.955  33.524   2.674
47438W        W 8969  10.138   8.293   3.859
47439W        W 8970  35.911  16.289   5.147
47440W        W 8971  15.102  36.367   4.741
47441W        W 8972  40.524  18.555   2.835
47442W        W 8973   1.760  31.029   1.301
47443W        W 8974  29.469  12.781  14.948
47444W        W 8975  37.909   7.813   3.685
47445W        W 8976  24.517   0.264   1.714
47446W        W 8977  37.010   5.700   2.808
47447W        W 8978  28.473   6.781  14.993
47448W        W 8979  35.081  22.722  11.906
47449W        W 8980  44.768  12.827   3.173
47450W        W 8981  15.272   7.381   4.793
47451W        W 8982  38.926  30.529   1.377
47452W        W 8983  36.585  27.084   4.725
47453W        W 8984  38.526  16.263   0.408
47454W        W 8985   6.322  30.121   1.769
47455W        W 8986  28.619  28.498  14.917
47456W        W 8987  36.071   2.451   1.702
47457W        W 8988  36.975  25.702   4.603
47458W        W 8989  14.820   8.233   0.416
47459W        W 8990  38.924  13.275  10.620
47460W        W 8991  10.811  28.511   4.295
47461W        W 8992  10.695  12.139   1.374
47462W        W 8993  24.584  29.429  12.484
47463W        W 8994  39.989  17.566   1.712
47464W        W 8995  30.066  19.283   0.732
47465W        W 8996  30.018  23.618  14.971
47466W        W 8997  10.253  22.076  12.353
47467W        W 8998  21.720  19.776  14.996
47468W        W 8999  43.814  23.587   3.743
47469W        W 9000  41.439  27.669   4.167
47470W        W 9001  40.804  13.279   4.219
47471W        W 9002  35.586  37.057   9.538
47472W        W 9003  26.188  26.951   4.300
47473W        W 9004   7.350   7.226  13.320
47474W        W 9005  10.738  41.531   3.226
47475W        W 9006  35.442   9.306  13.873
47476W        W 9007   8.201  33.024  11.068
47477W        W 9008  19.553  23.063   0.294
47478W        W 9009   7.691  16.226  13.526
47479W        W 9010   5.250  31.064  11.583
47480W        W 9011  31.065  34.111   0.401
47481W        W 9012   5.829  38.542  11.522
47482W        W 9013   8.838   4.719   4.273
47483W        W 9014  18.761  16.130  14.367
47484W        W 9015  19.050   6.388  14.893
47485W        W 9016  44.986  26.205  12.488
47486W        W 9017  30.517  23.090  14.863
47487W        W 9018  25.650  28.023  14.459
47488W        W 9019  27.470  21.663   3.810
47489W        W 9020  39.489   8.244   2.412
47490W        W 9021  19.608  44.414  12.424
47491W        W 9022  30.048  38.014  12.397
47492W        W 9023  36.579   4.296  13.499
47493W        W 9024  14.643  41.865   3.781
47494W        W 9025  41.319  24.034   4.694
47495W        W 9026   2.723   6.209  12.520
47496W        W 9027  30.155   7.250  14.449
47497W        W 9028  25.666  20.252   1.822
47498W        W 9029  38.991  26.957   0.868
47499W        W 9030  40.048   9.792  10.915
47500W        W 9031  41.031   7.181   2.205
47501W        W 9032  30.085  31.451  12.362
47502W        W 9033  20.159  13.665   2.327
47503W        W 9034  44.003  36.920   0.749
47504W        W 9035  28.936  37.352   2.233
47505W        W 9036  16.272   0.274   1.935
47506W        W 9037  39.040  14.589  11.425
47507W        W 9038  29.546  26.553  14.346
47508W        W 9039  38.053  41.340   2.207
47509W        W 9040  34.952   2.464  11.603
47510W        W 9041  21.176  23.614  12.479
47511W        W 9042  33.973  34.086   1.806
47512W        W 9043  27.999  21.086  11.585
47513W        W 9044   5.332  32.430  12.568
47514W        W 9045  25.704  41.849  10.477
47515W        W 9046  20.662  42.841  13.526
47516W        W 9047  28.964  12.246  10.433
47517W        W 9048  19.179  35.943  14.934
47518W        W 9049  40.415  26.078   2.405
47519W        W 9050  16.115  34.482   1.263
47520W        W 9051  17.232  40.420  11.376
47521W        W 9052  19.622  16.217   4.634
47522W        W 9053  41.457  22.587  12.029
47523W        W 9054  39.060  35.429  11.544
47524W        W 9055  36.914  35.891   1.403
47525W        W 9056   1.251  26.996  12.947
47526W        W 9057  37.517  42.500   3.265
47527W        W 9058  30.439  18.119  12.874
47528W        W 9059  38.888  42.365   2.697
47529W        W 9060  40.848  10.350   4.337
47530W        W 9061  25.506  29.533   2.355
47531W        W 9062  42.329   0.357   1.731
47532W        W 9063  44.926   8.666  13.957
47533W        W 9064  37.574  34.056  10.933
47534W        W 9065  12.658  28.968   3.355
47535W        W 9066  29.050  28.092  11.539
47536W        W 9067   4.788  28.075  10.505
47537W        W 9068  32.012   0.465  12.018
47538W        W 9069  40.951  24.596   3.272
47539W        W 9070  12.250  19.700  11.483
47540W        W 9071  41.459  26.699  10.938
47541W        W 9072  34.962  29.027  10.601
47542W        W 9073  20.135  35.391  14.497
47543W        W 9074  40.049   9.709  14.454
47544W        W 9075  26.588   6.372  12.878
47545W        W 9076  44.259  37.069  11.104
47546W        W 9077   5.895  13.673   3.168
47547W        W 9078  39.536  41.439  13.041
47548W        W 9079   3.858  19.695  11.895
47549W        W 9080  11.219  22.525  11.120
47550W        W 9081  32.936  29.628   4.205
47551W        W 9082  38.931  28.968  12.038
47552W        W 9083  21.657  29.536  11.909
47553W        W 9084   1.469  19.141  14.355
47554W        W 9085  12.166  20.100  12.524
47555W        W 9086  42.286   3.884   4.616
47556W        W 9087   4.842  25.968   1.417
47557W        W 9088  26.020  17.587   1.728
47558W        W 9089  13.608  27.061  10.500
47559W        W 9090  11.218   1.967  12.344
47560W        W 9091  10.794  20.684  11.378
47561W        W 9092   6.864  27.657  11.016
47562W        W 9093  25.054  19.629  13.826
47563W        W 9094  23.225  43.458  10.974
47564W        W 9095  24.523  40.520   9.493
47565W        W 9096  30.982  11.742   5.184
47566W        W 9097  32.965  17.774   1.706
47567W        W 9098  15.708  22.202   4.754
47568W        W 9099  25.551   2.352  11.958
47569W        W 9100  27.529   1.878  14.017
47570W        W 9101  36.556  36.089   4.316
47571W        W 9102   5.356  20.620   4.718
47572W        W 9103   3.436  20.048   4.275
47573W        W 9104   4.737  38.467   1.759
47574W        W 9105  18.260  19.043  14.825
47575W        W 9106   7.171   4.450   9.928
47576W        W 9107  20.071  30.946  14.380
47577W        W 9108  35.585  22.715   4.218
47578W        W 9109   9.254  36.048  14.898
47579W        W 9110  17.102  23.680  14.015
47580W        W 9111  27.960  20.731  14.455
47581W        W 9112  26.456  26.031   4.619
47582W        W 9113  27.484  16.257  12.571
47583W        W 9114   1.414  33.975   1.824
47584W        W 9115  27.124  23.173   3.242
47585W        W 9116  18.563  12.730   9.947
47586W        W 9117  39.422  31.093   0.424
47587W        W 9118  40.453  36.359  11.961
47588W        W 9119  24.051  18.655  14.931
47589W        W 9120   4.388   5.371   1.705
47590W        W 9121  21.713  16.116  14.382
47591W        W 9122  11.769   7.855   3.336
47592W        W 9123  36.423  32.015  10.635
47593W        W 9124   2.448  22.141  11.866
47594W        W 9125  14.618  29.569  10.894
47595W        W 9126  34.933   5.716   3.205
47596W        W 9127  36.500  20.699  11.580
47597W        W 9128  26.631   0.868   4.230
47598W        W 9129   6.205  22.696  14.800
47599W        W 9130  36.364  43.496   3.208
47600W        W 9131  22.020   2.304  12.548
47601W        W 9132  35.581  16.217  12.422
47602W        W 9133  34.564  29.162   2.681
47603W        W 9134   3.241  15.605   1.351
47604W        W 9135  15.096  29.150   4.673
47605W        W 9136   3.842  10.216  13.920
47606W        W 9137  32.923  22.149  14.471
47607W        W 9138  31.617   6.909  10.605
47608W        W 9139  21.083  15.623   2.356
47609W        W 9140   9.169  14.214  12.910
47610W        W 9141  19.737   5.232   2.321
47611W        W 9142  40.524  36.459   0.931
47612W        W 9143  38.866  36.575  13.405
47613W        W 9144  31.633  35.386  12.396
47614W        W 9145  16.703  30.558   2.746
47615W        W 9146  40.834   8.258  11.047
47616W        W 9147  31.439  10.864   0.849
47617W        W 9148   5.411  31.435   4.835
47618W        W 9149  18.604   5.693  11.426
47619W        W 9150  27.010   8.193   3.642
47620W        W 9151  25.585  13.230   3.171
47621W        W 9152  13.616  27.999  12.072
47622W        W 9153  24.483   9.357  14.386
47623W        W 9154   6.891   2.261  13.046
47624W        W 9155  11.231  18.185  14.384
47625W        W 9156  16.603   8.853  12.920
47626W        W 9157  25.511   8.240   4.776
47627W        W 9158  30.018  42.905  13.796
47628W        W 9159  25.184  36.989   3.681
47629W        W 9160  42.306  33.396   2.726
47630W        W 9161  20.057  15.786  11.007
47631W        W 9162  30.612  14.124   2.303
47632W        W 9163  44.385  35.856  13.005
47633W        W 9164  43.464  35.852  11.989
47634W        W 9165  12.774  22.536   3.782
47635W        W 9166  31.914  42.457  14.495
47636W        W 9167  23.239  21.072   2.224
47637W        W 9168  34.022  43.427   2.743
47638W        W 9169   9.663  26.058  12.031
47639W        W 9170  25.143   2.865  12.832
47640W        W 9171  43.862  23.239  14.978
47641W        W 9172  34.443  27.067   1.849
47642W        W 9173  25.501  38.552  12.002
47643W        W 9174  30.563   9.854  12.951
47644W        W 9175   3.847  20.530  13.002
47645W        W 9176  20.582  27.129  13.440
47646W        W 9177  32.117  39.865   2.398
47647W        W 9178  44.909  25.999  14.426
47648W        W 9179  36.506  27.064  11.438
47649W        W 9180  36.009  25.182   2.271
47650W        W 9181  17.795  10.190  12.074
47651W        W 9182  44.987  28.930   2.326
47652W        W 9183   6.343  22.656   1.704
47653W        W 9184  41.316  35.057   1.918
47654W        W 9185  30.440  14.630   4.805
47655W        W 9186  27.541  31.932   1.342
47656W        W 9187   2.877  13.148   1.860
47657W        W 9188  42.431   3.844  13.380
47658W        W 9189  40.824  17.734  11.038
47659W        W 9190  29.475  15.804  13.521
47660W        W 9191  17.292  28.681  13.358
47661W        W 9192  13.608  31.991   1.831
47662W        W 9193  44.270  34.398  12.508
47663W        W 9194  10.728  44.405   9.999
47664W        W 9195  41.928  32.475  13.986
47665W        W 9196   8.663  26.156   1.894
47666W        W 9197   6.790  19.682   2.676
47667W        W 9198  26.564  39.808   0.813
47668W        W 9199   3.381  18.613   4.268
47669W        W 9200  31.957   9.380   2.405
47670W        W 9201   3.831   5.203   1.342
47671W        W 9202  10.675   8.792   3.184
47672W        W 9203  32.560   8.759  11.978
47673W        W 9204  19.608  41.876  12.488
47674W        W 9205  39.855   1.929  11.603
47675W        W 9206  39.393  36.095  13.509
47676W        W 9207  13.714  20.066   2.248
47677W        W 9208  36.467  17.108   0.440
47678W        W 9209   7.210   6.702  12.370
47679W        W 9210  19.197   0.344   2.378
47680W        W 9211  34.914   4.292   4.633
47681W        W 9212   6.332  21.539   3.340
47682W        W 9213  24.696  33.420  10.978
47683W        W 9214  30.086   1.786  11.103
47684W        W 9215   6.322  43.294   0.904
47685W        W 9216  32.984   9.169   4.738
47686W        W 9217  24.197  21.660  11.028
47687W        W 9218  27.479  16.592   0.790
47688W        W 9219  28.616  44.401  13.974
47689W        W 9220  13.844  24.605   1.229
47690W        W 9221   6.375  36.403   0.377
47691W        W 9222  40.891  23.233  14.763
47692W        W 9223  34.555  16.257   0.876
47693W        W 9224   6.278  43.327  12.564
47694W        W 9225   7.309  29.079   2.879
47695W        W 9226   3.833  14.162   3.305
47696W        W 9227  33.072   8.732  13.379
47697W        W 9228  16.645  39.891  11.122
47698W        W 9229   0.898  26.529   4.186
47699W        W 9230  33.990  21.565  14.462
47700W        W 9231  21.754   0.464   1.232
47701W        W 9232  36.426  25.009  13.307
47702W        W 9233   8.827  21.129   4.142
47703W        W 9234  37.433  41.883   1.436
47704W        W 9235   3.874  27.531  13.956
47705W        W 9236   5.355  41.379  11.965
47706W        W 9237  39.509  13.811   5.716
47707W        W 9238  38.505  34.982   2.277
47708W        W 9239   1.383  31.008   0.311
47709W        W 9240  33.581  10.210  10.090
47710W        W 9241  29.011  43.918   4.183
47711W        W 9242  12.287  31.486   2.898
47712W        W 9243  18.274  40.863   4.193
47713W        W 9244  42.973   5.735   3.743
47714W        W 9245  17.203  23.160  10.439
47715W        W 9246  43.960  12.692  13.548
47716W        W 9247   6.844  26.495  12.519
47717W        W 9248  43.928  32.562  11.505
47718W        W 9249  11.677  42.887   2.296
47719W        W 9250  11.725   4.207  10.927
47720W        W 9251  44.834  42.015  10.548
47721W        W 9252  24.497   3.795  14.844
47722W        W 9253  18.245  43.329   3.780
47723W        W 9254  35.100  32.946   1.383
47724W        W 9255  29.148  11.713   1.379
47725W        W 9256  13.728  42.006   4.218
47726W        W 9257  35.059  30.563  14.897
47727W        W 9258   6.382   6.288  14.802
47728W        W 9259  12.277  41.021  14.402
47729W        W 9260  19.654  32.924  11.976
47730W        W 9261  13.261  21.113  11.116
47731W        W 9262  17.301  18.164  14.396
47732W        W 9263  25.202  11.711  14.352
47733W        W 9264  15.246  26.576  13.891
47734W        W 9265  35.866  10.164  14.981
47735W        W 9266  30.419  28.070   0.796
47736W        W 9267  36.488  22.589   4.698
47737W        W 9268   8.315  19.727  14.783
47738W        W 9269  41.951  17.601   1.838
47739W        W 9270  26.181  33.032   3.658
47740W        W 9271  17.273  12.755   0.752
47741W        W 9272  42.874   5.825   1.397
47742W        W 9273  35.875  19.241  14.357
47743W        W 9274  29.632  36.421  12.545
47744W        W 9275  18.688  39.554   4.643
47745W        W 9276   0.289  19.193  13.905
47746W        W 9277  33.595  17.772   0.420
47747W        W 9278  34.932  39.478   9.921
47748W        W 9279  34.013  41.347  14.773
47749W        W 9280  14.618   7.306   3.833
47750W        W 9281  16.261  19.183  10.498
47751W        W 9282  22.701  29.475  10.634
47752W        W 9283  31.432  40.948   0.382
47753W        W 9284  42.859  12.814   0.300
47754W        W 9285  34.578  40.489   0.853
47755W        W 9286  41.793   8.839   3.222
47756W        W 9287  25.003  28.948  13.536
47757W        W 9288  32.467   4.368   3.706
47758W        W 9289  10.194  28.445   3.722
47759W        W 9290  29.594   7.845  14.954
47760W        W 9291  27.627  41.027  14.811
47761W        W 9292  27.682   0.330   1.388
47762W        W 9293   2.795  19.678   1.288
47763W        W 9294  18.062  30.968   1.876
47764W        W 9295  27.197  36.892  11.546
47765W        W 9296   9.646  15.105   0.858
47766W        W 9297  11.813  25.575  10.157
47767W        W 9298  36.577  17.735   0.408
47768W        W 9299  38.898  15.685  11.591
47769W        W 9300  18.759  38.838   4.309
47770W        W 9301  27.059  34.109  14.432
47771W        W 9302  33.503  27.606   4.775
47772W        W 9303   9.238  34.471  10.491
47773W        W 9304  40.971   2.816   0.284
47774W        W 9305  36.975   0.314   4.214
47775W        W 9306   5.365   1.760  13.966
47776W        W 9307  23.725  39.824   3.777
47777W        W 9308  44.388   9.162  12.495
47778W        W 9309  16.249  19.626   4.226
47779W        W 9310   1.830  38.062  12.950
47780W        W 9311  14.102   8.395   0.786
47781W        W 9312  23.069   5.837   4.621
47782W        W 9313  26.006  41.465   0.412
47783W        W 9314  34.437  35.379  11.037
47784W        W 9315  16.203  14.276  14.486
47785W        W 9316  12.256   5.435   4.133
47786W        W 9317  15.771  35.994  13.420
47787W        W 9318   6.355  23.062  14.806
47788W        W 9319  35.078   2.372   4.269
47789W        W 9320  11.822   8.307   2.820
47790W        W 9321  39.356  35.382   1.918
47791W        W 9322   6.707  10.194  10.125
47792W        W 9323  13.669  41.817  10.953
47793W        W 9324  35.005   1.365  13.493
47794W        W 9325   2.446  40.023   3.754
47795W        W 9326  37.537  36.964   0.861
47796W        W 9327  33.936  39.314   3.789
47797W        W 9328  10.346  16.187   3.841
47798W        W 9329  32.018  16.246   2.362
47799W        W 9330  40.899  42.423  12.534
47800W        W 9331  32.471  32.478  11.474
47801W        W 9332  15.309  22.225   4.696
47802W        W 9333   5.861  44.485  14.928
47803W        W 9334   2.315  36.347  13.425
47804W        W 9335  18.199   2.887  11.406
47805W        W 9336  28.050   4.226  14.813
47806W        W 9337  10.839  12.826   2.215
47807W        W 9338  21.117   8.795   4.332
47808W        W 9339  12.223   1.452   2.284
47809W        W 9340  36.460  15.215  10.446
47810W        W 9341  14.334  30.562   3.840
47811W        W 9342  27.079  22.100  11.578
47812W        W 9343  38.402  27.546   1.840
47813W        W 9344  39.493  10.166   1.834
47814W        W 9345   0.768  34.476   1.817
47815W        W 9346  27.578  23.694   4.621
47816W        W 9347  21.223  22.592   0.446
47817W        W 9348  16.784  36.053   1.269
47818W        W 9349  41.951  40.305  12.858
47819W        W 9350  14.175  16.683  12.533
47820W        W 9351  34.425  43.502   2.270
47821W        W 9352  42.790  40.847   1.732
47822W        W 9353  34.608  22.208  10.921
47823W        W 9354  10.722  33.560   2.814
47824W        W 9355  29.589  12.693  12.037
47825W        W 9356   2.917   1.876  14.924
47826W        W 9357   7.704  18.069  14.838
47827W        W 9358   6.391  43.340  13.815
47828W        W 9359  10.231  36.034  13.426
47829W        W 9360  22.129  32.099   4.193
47830W        W 9361  10.850   8.182   0.863
47831W        W 9362  39.415   7.838   2.271
47832W        W 9363  30.454   8.165   1.772
47833W        W 9364  22.679  31.429  13.996
47834W        W 9365  27.658   1.789   1.720
47835W        W 9366  26.537  13.803   4.739
47836W        W 9367   5.393  27.532  14.862
47837W        W 9368  39.007   3.417   3.861
47838W        W 9369  15.690  19.258   0.827
47839W        W 9370  32.493  24.195  13.518
47840W        W 9371  19.283  16.128   3.328
47841W        W 9372   2.398   0.869   0.762
47842W        W 9373  44.794  21.212  10.471
47843W        W 9374   0.900  26.137   1.927
47844W        W 9375   7.389   2.463   1.302
47845W        W 9376  26.115  40.871  10.497
47846W        W 9377  25.558  23.696  12.947
47847W        W 9378   5.422  13.266   2.901
47848W        W 9379   5.305  38.495   0.348
47849W        W 9380  44.004  44.262  13.972
47850W        W 9381  32.034   9.870  10.036
47851W        W 9382  36.590  36.960   1.284
47852W        W 9383  31.502  41.359   0.323
47853W        W 9384  21.662  34.540   2.226
47854W        W 9385  10.328  22.211  11.006
47855W        W 9386  25.676  31.431  12.051
47856W        W 9387  22.215   6.394  12.960
47857W        W 9388  29.147  32.918  11.475
47858W        W 9389  20.730   1.325  10.920
47859W        W 9390  28.098   6.375   1.417
47860W        W 9391  33.107  41.916  14.939
47861W        W 9392  38.379  35.954   0.280
47862W        W 9393  27.057  29.944   1.750
47863W        W 9394   1.375  23.508   4.284
47864W        W 9395  15.637   2.298  12.837
47865W        W 9396  29.555   1.450   0.966
47866W        W 9397  18.294  43.822  11.542
47867W        W 9398  42.029  24.675   1.894
47868W        W 9399  43.958   7.277  11.467
47869W        W 9400   2.379  27.648   4.610
47870W        W 9401  27.587  25.686  11.943
47871W        W 9402  19.684  10.833   4.200
47872W        W 9403  10.153   3.740   2.893
47873W        W 9404  24.139  28.460  14.883
47874W        W 9405  36.917  39.812  13.934
47875W        W 9406  32.554  24.698  11.034
47876W        W 9407   7.214  40.839  14.817
47877W        W 9408  37.990  41.916   2.233
47878W        W 9409  12.277  35.569  12.907
47879W        W 9410  31.942  37.523   2.232
47880W        W 9411  43.948  43.918  14.402
47881W        W 9412  23.074  37.061   4.209
47882W        W 9413   7.899   0.335  11.385
47883W        W 9414  34.518  40.847  11.078
47884W        W 9415  26.518  29.988   1.239
47885W        W 9416  12.228  15.585  11.556
47886W        W 9417  11.726  23.555   3.645
47887W        W 9418   4.435  41.367  11.897
47888W        W 9419  37.357   5.689  12.535
47889W        W 9420   5.288  25.139  10.935
47890W        W 9421  13.266   5.712  14.467
47891W        W 9422  26.618   9.665   3.237
47892W        W 9423  21.534   8.688   1.371
47893W        W 9424  31.940  10.375  10.469
47894W        W 9425  10.255  40.052   1.311
47895W        W 9426  24.655  16.698  12.825
47896W        W 9427  15.155  31.465   5.737
47897W        W 9428  24.182   4.909   0.864
47898W        W 9429  40.311  13.339   4.278
47899W        W 9430   9.709  26.640   0.423
47900W        W 9431  14.107   4.810  10.406
47901W        W 9432   9.351  13.197  11.947
47902W        W 9433   5.420  21.172   0.262
47903W        W 9434   0.358  39.425   1.293
47904W        W 9435  27.060  41.918   3.755
47905W        W 9436   5.253   7.366   2.299
47906W        W 9437  16.210  18.661   3.234
47907W        W 9438  44.874  38.872  12.415
47908W        W 9439   0.389   4.828   0.943
47909W        W 9440   8.280  38.382   3.304
47910W        W 9441  30.622  40.808  14.947
47911W        W 9442  13.611  30.485  11.446
47912W        W 9443  23.695   9.259  12.373
47913W        W 9444   8.236  23.155  10.537
47914W        W 9445  19.244  20.728   2.679
47915W        W 9446  13.297   7.322  12.445
47916W        W 9447   4.941  38.056   0.335
47917W        W 9448   0.429  31.473   0.481
47918W        W 9449  13.655  12.629   3.387
47919W        W 9450  33.445   0.963   1.430
47920W        W 9451   0.279  35.463   1.838
47921W        W 9452  42.342  39.357   1.791
47922W        W 9453   4.930   1.240  14.403
47923W        W 9454  12.662  43.458  13.490
47924W        W 9455  41.932  44.000   1.310
47925W        W 9456  12.667   7.184  14.314
47926W        W 9457  30.544  21.149  10.511
47927W        W 9458  32.517  32.427  10.591
47928W        W 9459  40.500  29.655  12.068
47929W        W 9460  14.594  37.888  14.446
47930W        W 9461   3.427  15.272   4.301
47931W        W 9462  20.235  13.822   3.709
47932W        W 9463  28.014  10.311  14.356
47933W        W 9464  31.613  35.905  13.816
47934W        W 9465   6.299  31.079  13.820
47935W        W 9466  27.671  29.537   4.722
47936W        W 9467  40.503  15.696  14.450
47937W        W 9468   4.212  21.672  11.858
47938W        W 9469  17.764  33.437  10.631
47939W        W 9470  26.148  28.462  11.548
47940W        W 9471  39.885  16.307   4.730
47941W        W 9472   9.243   8.242   4.687
47942W        W 9473  43.515  18.644  11.436
47943W        W 9474  21.025   1.791   0.738
47944W        W 9475  12.705  25.102   3.188
47945W        W 9476  14.607  22.662   4.625
47946W        W 9477  32.969   8.364  14.777
47947W        W 9478  18.622   4.310   1.886
47948W        W 9479  38.983   1.854   4.269
47949W        W 9480   9.646  35.921   3.683
47950W        W 9481  37.531   9.768   1.900
47951W        W 9482   6.798   9.851   2.759
47952W        W 9483   8.884   3.246   4.670
47953W        W 9484   9.191  17.746  13.432
47954W        W 9485  11.349  37.939   3.773
47955W        W 9486   0.885  28.108   3.743
47956W        W 9487  28.995  26.076   3.731
47957W        W 9488   3.285   1.875   3.683
47958W        W 9489  22.716   3.290   1.277
47959W        W 9490  18.575  32.566   1.285
47960W        W 9491   3.727  36.567  10.441
47961W        W 9492   2.470   3.747  13.924
47962W        W 9493  10.693  36.081  14.793
47963W        W 9494  25.699  28.993  14.966
47964W        W 9495  29.598  34.869   3.797
47965W        W 9496  24.582  25.705  11.944
47966W        W 9497  40.371  41.970   3.848
47967W        W 9498  20.742  41.292   2.859
47968W        W 9499  25.136  31.937  13.985
47969W        W 9500   7.270  17.690  12.900
47970W        W 9501   4.435  25.054  12.923
47971W        W 9502  28.656  40.859  11.857
47972W        W 9503  39.347  36.463   0.782
47973W        W 9504  27.503  25.691   0.320
47974W        W 9505  44.259   9.861  14.916
47975W        W 9506  24.535  34.383  12.034
47976W        W 9507  34.387  32.989   2.381
47977W        W 9508  43.311   8.678  13.949
47978W        W 9509  43.796  42.848  12.939
47979W        W 9510   8.707  37.925  10.416
47980W        W 9511  10.669  18.592  14.475
47981W        W 9512  40.877  35.459   3.362
47982W        W 9513   6.758  43.858   3.337
47983W        W 9514  40.868  30.524  11.925
47984W        W 9515  18.706  17.781   1.377
47985W        W 9516  36.859   6.296   2.687
47986W        W 9517  24.514   7.861   2.853
47987W        W 9518   0.972  27.642  14.894
47988W        W 9519  44.977  40.379  11.479
47989W        W 9520   9.305   4.856   2.329
47990W        W 9521  41.343   7.242  13.991
47991W        W 9522  32.048  39.527   3.203
47992W        W 9523   1.378  34.917   4.734
47993W        W 9524  26.207   4.891  14.904
47994W        W 9525  20.225  11.703   0.407
47995W        W 9526  27.948  12.330   2.767
47996W        W 9527   1.443  13.662  12.853
47997W        W 9528  24.556  31.044  10.571
47998W        W 9529  31.025   0.747   2.239
47999W        W 9530  25.652   0.973   1.347
48000W        W 9531   2.885  10.379   3.775
48001W        W 9532  31.623  21.644  10.980
48002W        W 9533  32.908  41.335   3.267
48003W        W 9534  26.039   0.257  14.985
48004W        W 9535   3.315  25.122   1.302
48005W        W 9536  13.707  12.641  11.019
48006W        W 9537   5.799  18.571   4.303
48007W        W 9538  13.186  20.750  11.468
48008W        W 9539  37.984  18.108  14.980
48009W        W 9540  25.668  20.606  12.359
48010W        W 9541  11.254   0.328  12.047
48011W        W 9542  30.651   2.380   0.874
48012W        W 9543  11.756  29.981   4.656
48013W        W 9544  10.374  11.671  11.606
48014W        W 9545  38.880  37.374   2.225
48015W        W 9546  34.084  18.141   0.270
48016W        W 9547  11.168  40.928   2.854
48017W        W 9548   1.431  44.471   4.818
48018W        W 9549  31.124   6.881   5.097
48019W        W 9550  15.229  30.586  12.095
48020W        W 9551   7.776  39.325   1.740
48021W        W 9552  43.867  31.571  10.597
48022W        W 9553  23.177  15.619   3.270
48023W        W 9554  18.779   4.731   0.310
48024W        W 9555  10.306  22.998  13.969
48025W        W 9556  20.736  25.167  14.981
48026W        W 9557  31.935  43.333  12.994
48027W        W 9558  35.097   1.840   3.375
48028W        W 9559  36.393  20.052  10.455
48029W        W 9560   3.921  15.584  14.022
48030W        W 9561   8.692  38.898  10.510
48031W        W 9562  35.541  41.831  13.366
48032W        W 9563  22.026  37.919  10.940
48033W        W 9564   7.387   6.382  13.350
48034W        W 9565  23.606  37.551   1.767
48035W        W 9566   6.340  15.685   0.409
48036W        W 9567   4.720  12.346   9.940
48037W        W 9568  26.040   6.367  12.966
48038W        W 9569  43.306  18.775  14.927
48039W        W 9570  43.963   3.802   0.367
48040W        W 9571   3.801  19.549   2.337
48041W        W 9572  33.019   5.349   3.193
48042W        W 9573   6.310  28.655   1.775
48043W        W 9574  34.467  16.136   0.473
48044W        W 9575  10.261  19.237  12.071
48045W        W 9576  25.175  44.983  14.028
48046W        W 9577  43.452  26.204  11.388
48047W        W 9578   4.709   5.202   4.738
48048W        W 9579  13.719  12.702  12.827
48049W        W 9580  35.504  31.128  14.900
48050W        W 9581  31.021   7.285   1.816
48051W        W 9582  18.748  16.111  12.057
48052W        W 9583  32.133   2.307   1.308
48053W        W 9584  33.472  35.896   4.821
48054W        W 9585  36.547  29.635   2.666
48055W        W 9586  11.163  20.630   1.285
48056W        W 9587  29.993   1.425   2.392
48057W        W 9588   2.312   5.414   3.715
48058W        W 9589   0.439  29.065   4.753
48059W        W 9590  12.228  19.773   5.216
48060W        W 9591  44.425  26.629  12.446
48061W        W 9592   6.719   0.463   1.427
48062W        W 9593  11.799  18.293  11.989
48063W        W 9594  27.163  41.005   2.282
48064W        W 9595  43.879  31.636   3.676
48065W        W 9596  37.417  38.351   3.253
48066W        W 9597  19.086   2.899  13.385
48067W        W 9598   4.805  13.116   4.704
48068W        W 9599  23.574  36.880   4.182
48069W        W 9600  34.613  35.461  11.919
48070W        W 9601   1.439  27.646  14.882
48071W        W 9602  39.493   0.909  13.381
48072W        W 9603  15.632  32.453  14.377
48073W        W 9604   2.290  27.115   5.746
48074W        W 9605  40.430  33.878   4.117
48075W        W 9606   7.733  24.019   9.928
48076W        W 9607  29.041  37.924  11.111
48077W        W 9608  35.461  19.169  13.805
48078W        W 9609  36.571   3.869   3.330
48079W        W 9610  24.659  27.118  11.477
48080W        W 9611  21.695   0.908   4.312
48081W        W 9612  22.187  12.719   2.266
48082W        W 9613  44.490  26.654  14.343
48083W        W 9614   3.261   3.380  13.006
48084W        W 9615  11.786  31.534  11.383
48085W        W 9616  20.730  21.677  13.462
48086W        W 9617  43.798  26.050  10.558
48087W        W 9618  27.077  22.663  10.508
48088W        W 9619   8.776  14.781  11.526
48089W        W 9620  33.032  18.293   3.748
48090W        W 9621  28.507  34.585  14.010
48091W        W 9622   5.414  30.957  14.787
48092W        W 9623  41.892  41.399  11.415
48093W        W 9624   3.324  35.438   3.745
48094W        W 9625  30.448  10.736   3.272
48095W        W 9626  15.609   6.828  10.480
48096W        W 9627  23.218  20.196  12.372
48097W        W 9628  41.463  15.651  13.958
48098W        W 9629  34.121  29.927   2.220
48099W        W 9630  28.562  44.003  12.838
48100W        W 9631  29.954  41.538   4.273
48101W        W 9632  34.435  14.646   5.748
48102W        W 9633  30.591  30.494  11.896
48103W        W 9634  33.469  24.137  13.322
48104W        W 9635   4.880  41.037   4.281
48105W        W 9636  24.586  43.457  13.540
48106W        W 9637   4.218  15.661   4.617
48107W        W 9638  33.558  33.883   1.419
48108W        W 9639  20.247  10.644  14.441
48109W        W 9640  27.575  11.727  11.053
48110W        W 9641  18.691  31.052  12.050
48111W        W 9642  17.287  30.951  10.506
48112W        W 9643  14.281   9.788  12.357
48113W        W 9644  32.141  37.500  11.408
48114W        W 9645  33.519  10.181   4.288
48115W        W 9646  43.871  28.186   3.710
48116W        W 9647   7.411  39.812   1.244
48117W        W 9648  35.562  14.726  11.541
48118W        W 9649   7.198  39.319  14.767
48119W        W 9650   8.318  40.862   0.929
48120W        W 9651  11.317   7.897   1.864
48121W        W 9652   8.236  15.797   3.635
48122W        W 9653  22.640  43.355  12.014
48123W        W 9654  18.622   9.735   3.211
48124W        W 9655  28.037  19.129   4.688
48125W        W 9656  44.260  23.669   3.285
48126W        W 9657  35.599   6.740   3.837
48127W        W 9658  33.507  17.132   2.826
48128W        W 9659  29.504  31.568  12.528
48129W        W 9660  11.749  30.934  13.459
48130W        W 9661  33.553  40.314   3.740
48131W        W 9662   7.810   3.419  11.979
48132W        W 9663  39.378  24.619   3.839
48133W        W 9664  15.243   1.951  14.336
48134W        W 9665   8.230   0.918   5.163
48135W        W 9666  15.134   3.874   2.736
48136W        W 9667   1.482  44.435  13.909
48137W        W 9668  40.946  38.402   4.633
48138W        W 9669  14.333  21.541  14.439
48139W        W 9670  29.022   3.421   0.401
48140W        W 9671  22.667  30.942   3.833
48141W        W 9672  24.686  42.312   3.695
48142W        W 9673  25.645  41.833   4.147
48143W        W 9674   0.896  42.002   4.317
48144W        W 9675  11.766   1.329  12.373
48145W        W 9676  41.985   8.829   1.722
48146W        W 9677  31.609   1.866  14.382
48147W        W 9678  12.850  33.053   0.736
48148W        W 9679   6.379  27.665  14.354
48149W        W 9680  38.883  44.934   3.337
48150W        W 9681  35.561   8.332   3.768
48151W        W 9682   6.336  32.456  11.469
48152W        W 9683  15.804  23.686   3.781
48153W        W 9684   9.171  33.603   0.387
48154W        W 9685   9.835  25.988   0.918
48155W        W 9686  30.987  18.265   0.438
48156W        W 9687  40.928  20.609  13.872
48157W        W 9688   8.341  24.507   3.718
48158W        W 9689  24.028  15.720  13.395
48159W        W 9690  20.646  41.327  13.326
48160W        W 9691  24.094  16.108  12.412
48161W        W 9692  17.167  37.469  10.903
48162W        W 9693  41.881  24.152  14.321
48163W        W 9694  26.550  11.358   1.882
48164W        W 9695  25.021  37.339  10.545
48165W        W 9696  35.065   9.152   0.403
48166W        W 9697  44.300  16.243   4.186
48167W        W 9698  38.401  36.401  11.396
48168W        W 9699  32.892  44.473   0.780
48169W        W 9700  34.927  12.838   5.134
48170W        W 9701  34.076  12.304  12.909
48171W        W 9702  34.006  33.007   3.863
48172W        W 9703  28.140  20.060  10.465
48173W        W 9704   2.351  35.603   1.295
48174W        W 9705  15.783   0.834   3.260
48175W        W 9706  31.074  27.194   1.734
48176W        W 9707   6.902  40.838   4.648
48177W        W 9708  24.017  26.982  13.004
48178W        W 9709  44.822  38.876  10.908
48179W        W 9710  27.150  19.666  12.466
48180W        W 9711  34.976  32.473  14.466
48181W        W 9712  39.873  42.933   0.387
48182W        W 9713  30.639  18.092   1.356
48183W        W 9714  27.042  30.006  11.606
48184W        W 9715  38.375  43.928   1.298
48185W        W 9716  21.165  11.833  10.535
48186W        W 9717  22.129  16.094   3.732
48187W        W 9718   9.245  21.637  13.510
48188W        W 9719  16.608  26.140   2.825
48189W        W 9720  12.231  29.595   0.425
48190W        W 9721  36.424  35.094   2.875
48191W        W 9722   9.686   9.682  11.977
48192W        W 9723   9.697   5.355  13.822
48193W        W 9724  38.432  32.932  12.467
48194W        W 9725   3.347  31.906   3.162
48195W        W 9726  27.012  18.643   2.685
48196W        W 9727  31.920  12.709  13.390
48197W        W 9728   4.211  39.878  14.397
48198W        W 9729  43.987   7.857   4.290
48199W        W 9730  21.713  10.797  10.565
48200W        W 9731  35.962  24.666   0.325
48201W        W 9732  34.920   2.773  11.113
48202W        W 9733  17.655  34.112   0.859
48203W        W 9734  39.969  29.052   2.229
48204W        W 9735  17.729  38.920  12.036
48205W        W 9736  44.760  31.119  11.054
48206W        W 9737  12.354  26.574  13.971
48207W        W 9738   2.472  42.921  11.535
48208W        W 9739  43.433  36.096  14.479
48209W        W 9740  13.116  35.000   1.921
48210W        W 9741  22.143  32.521  12.919
48211W        W 9742  10.854   5.796   0.809
48212W        W 9743   2.762  38.362   3.676
48213W        W 9744  15.083  12.778   0.874
48214W        W 9745  25.630  14.664  10.549
48215W        W 9746  25.171  41.804   2.281
48216W        W 9747   9.890  18.164   4.350
48217W        W 9748  10.168  16.730  10.491
48218W        W 9749  42.367  36.410  13.542
48219W        W 9750  11.680  16.267   0.278
48220W        W 9751   5.868  41.537  11.594
48221W        W 9752  24.980  14.220   1.818
48222W        W 9753  11.217  16.073   1.796
48223W        W 9754  39.062  34.511   2.680
48224W        W 9755  44.290  34.931  13.045
48225W        W 9756  15.619  21.256  14.858
48226W        W 9757  10.224   7.394  13.315
48227W        W 9758   5.352  38.022  13.353
48228W        W 9759  19.099  27.089  10.588
48229W        W 9760  17.705  41.506  12.845
48230W        W 9761  37.064   1.417   2.798
48231W        W 9762  23.705  22.585  14.032
48232W        W 9763  25.653  10.675   4.715
48233W        W 9764  24.689  25.999   3.292
48234W        W 9765   5.934  16.674  14.470
48235W        W 9766  20.092  10.189  10.587
48236W        W 9767  23.067  33.408  14.847
48237W        W 9768  24.188  17.263   1.317
48238W        W 9769  32.450  33.415   4.746
48239W        W 9770  29.106  33.017  12.987
48240W        W 9771  41.410  20.647  13.548
48241W        W 9772  14.128  19.599   3.637
48242W        W 9773  14.334  18.243  12.968
48243W        W 9774  42.295  30.026  10.450
48244W        W 9775  26.166   5.217   3.789
48245W        W 9776  29.524  17.722  13.798
48246W        W 9777  17.764  41.852  14.808
48247W        W 9778  40.546  23.201   0.265
48248W        W 9779   2.922  16.691  12.823
48249W        W 9780  44.847   3.275   0.372
48250W        W 9781  36.932   9.150  11.392
48251W        W 9782  23.675   3.711  12.342
48252W        W 9783  14.104  12.206   1.732
48253W        W 9784  15.159  15.672  12.009
48254W        W 9785  10.859  22.575  13.932
48255W        W 9786  17.794  39.528  14.801
48256W        W 9787  19.584  36.437  11.022
48257W        W 9788  31.935   6.750   0.962
48258W        W 9789  38.047  44.931   0.383
48259W        W 9790   7.373   6.693   0.862
48260W        W 9791  41.975  41.481   1.442
48261W        W 9792  24.169   0.963   4.230
48262W        W 9793  40.434   5.314   4.676
48263W        W 9794  33.033  27.607   0.271
48264W        W 9795  11.839  38.416  13.027
48265W        W 9796  15.117  43.769  14.304
48266W        W 9797  26.616  35.026   1.232
48267W        W 9798  37.982   8.811   5.094
48268W        W 9799  11.691  18.105   3.746
48269W        W 9800   5.225  10.813  12.055
48270W        W 9801  14.814  14.321   4.345
48271W        W 9802  37.915  30.477   9.969
48272W        W 9803  37.490   6.245  10.405
48273W        W 9804   8.241  31.437  10.969
48274W        W 9805  11.727  18.786   2.278
48275W        W 9806   7.861  20.230   4.686
48276W        W 9807  11.209   6.261   3.802
48277W        W 9808   8.213  22.029   3.688
48278W        W 9809   5.205  37.518  10.921
48279W        W 9810  12.806   2.893   3.382
48280W        W 9811  31.994  32.531   1.371
48281W        W 9812   0.766  19.724   0.736
48282W        W 9813  10.216  42.451   0.263
48283W        W 9814   2.812  41.476   4.209
48284W        W 9815  37.969  44.997  11.096
48285W        W 9816   0.437  28.111   4.145
48286W        W 9817   3.461   8.860  12.053
48287W        W 9818  27.512  41.416   2.356
48288W        W 9819  19.686  34.424   3.265
48289W        W 9820  22.639  20.062   1.776
48290W        W 9821  27.467  11.843  11.394
48291W        W 9822  44.373   0.905  13.801
48292W        W 9823  23.098   3.914   1.286
48293W        W 9824  29.653  37.903   1.314
48294W        W 9825   8.213  27.096  13.821
48295W        W 9826  15.271   3.783  13.530
48296W        W 9827  10.654  25.152   0.962
48297W        W 9828  16.775  17.770   1.407
48298W        W 9829  32.445  38.520  10.624
48299W        W 9830  12.789  18.550  14.502
48300W        W 9831   4.372  10.790   3.779
48301W        W 9832   1.477  26.139   2.902
48302W        W 9833  15.615  35.088   2.206
48303W        W 9834  37.341  27.628   1.366
48304W        W 9835  19.127  44.493  14.448
48305W        W 9836  37.413  30.567   0.437
48306W        W 9837  21.625  13.249   0.302
48307W        W 9838   0.387  41.437  14.792
48308W        W 9839  11.149  35.600  14.477
48309W        W 9840   8.197  11.351  10.605
48310W        W 9841  40.406  19.167   1.289
48311W        W 9842  32.452  33.617   1.431
48312W        W 9843  18.746  21.590   3.836
48313W        W 9844  20.132  40.370  13.039
48314W        W 9845  32.516   0.432  14.504
48315W        W 9846  32.034  31.983  11.975
48316W        W 9847   9.649  25.058  10.633
48317W        W 9848  14.135  20.600  13.535
48318W        W 9849  20.045  28.163   0.823
48319W        W 9850   8.816  20.589  13.904
48320W        W 9851  13.327   5.420   2.711
48321W        W 9852  12.703  34.404   5.217
48322W        W 9853   8.276   9.349  14.479
48323W        W 9854   9.168  25.116  11.050
48324W        W 9855  22.599  30.946   1.405
48325W        W 9856   5.360  36.928  14.941
48326W        W 9857   3.953   5.786  12.026
48327W        W 9858  41.982  41.837  13.405
48328W        W 9859  30.933  27.090   3.175
48329W        W 9860   9.844  15.637   1.334
48330W        W 9861  32.499  32.983   0.360
48331W        W 9862  25.684  37.982  14.427
48332W        W 9863  15.615  10.665  11.458
48333W        W 9864  27.656  12.720  13.357
48334W        W 9865  38.422   8.848  11.589
48335W        W 9866  26.159  20.121  12.878
48336W        W 9867  13.741   7.774   3.741
48337W        W 9868  21.718  22.552   1.764
48338W        W 9869  42.823  23.605   4.669
48339W        W 9870  41.417  13.217   0.307
48340W        W 9871  39.541   1.941   2.269
48341W        W 9872   1.321   4.224   2.713
48342W        W 9873  14.147  13.204   3.856
48343W        W 9874  21.719  37.339  13.993
48344W        W 9875   1.822  11.644  13.491
48345W        W 9876  32.635  37.377   9.438
48346W        W 9877  36.852  28.437  14.398
48347W        W 9878   2.880  30.440  14.430
48348W        W 9879  27.482   9.365   2.366
48349W        W 9880  35.985  16.158  10.074
48350W        W 9881   4.908  15.631  10.453
48351W        W 9882  42.010   2.794   2.323
48352W        W 9883  31.896  13.240  12.524
48353W        W 9884  10.677  32.457   0.272
48354W        W 9885  11.213  34.900   4.242
48355W        W 9886  22.156  28.660   3.377
48356W        W 9887  15.182   5.397  11.468
48357W        W 9888   8.176  28.505   3.382
48358W        W 9889  43.976  10.293   2.414
48359W        W 9890  30.163   3.420  11.523
48360W        W 9891  13.146  39.006  11.055
48361W        W 9892  36.347   0.794  11.128
48362W        W 9893  13.627  30.440  13.061
48363W        W 9894  44.441  31.045  13.309
48364W        W 9895  14.146   4.278   1.293
48365W        W 9896  37.839  27.195  12.893
48366W        W 9897  28.035  30.941   0.730
48367W        W 9898  24.146  39.903   4.326
48368W        W 9899  22.196  15.582   1.407
48369W        W 9900  23.015  32.069  10.901
48370W        W 9901  10.221  14.289   3.697
48371W        W 9902   8.324  27.992   1.246
48372W        W 9903  11.865  39.370  13.340
48373W        W 9904  22.500  13.605   2.249
48374W        W 9905  12.205  27.611  11.383
48375W        W 9906  34.373  18.547   5.712
48376W        W 9907  34.034  35.037  12.510
48377W        W 9908  33.009  38.535   2.282
48378W        W 9909  15.265  44.804   4.804
48379W        W 9910  26.642  42.339  13.014
48380W        W 9911  40.383   9.814   2.870
48381W        W 9912   4.900  30.968   2.251
48382W        W 9913  11.736  23.046   3.661
48383W        W 9914  35.958  24.589  11.861
48384W        W 9915  38.959  27.651  11.457
48385W        W 9916  32.548  38.043   1.694
48386W        W 9917  24.519   2.863   0.750
48387W        W 9918  12.199  35.956   3.664
48388W        W 9919  17.555  24.610   0.906
48389W        W 9920  19.609  39.447   1.889
48390W        W 9921   4.235  26.018  12.415
48391W        W 9922   5.696  19.151  10.420
48392W        W 9923   1.917   7.751  13.843
48393W        W 9924  16.240  14.681   0.277
48394W        W 9925  37.977  12.841   1.348
48395W        W 9926  42.996  11.675   2.348
48396W        W 9927  23.616  29.442   2.792
48397W        W 9928  42.971   2.232  13.544
48398W        W 9929  25.972  40.457  10.622
48399W        W 9930  22.526  22.601   2.706
48400W        W 9931   1.770  27.531  14.885
48401W        W 9932  24.107  11.715  11.890
48402W        W 9933   5.737  17.095  11.378
48403W        W 9934  13.706  44.909   3.315
48404W        W 9935  35.949  28.535   2.335
48405W        W 9936  40.355   5.272   2.353
48406W        W 9937  35.906  12.171   2.406
48407W        W 9938  44.322  28.124  14.328
48408W        W 9939  31.428  10.152   0.743
48409W        W 9940  14.144  39.371   4.265
48410W        W 9941   9.270  40.302  11.868
48411W        W 9942   5.209  29.077  12.385
48412W        W 9943  43.794   4.247   4.191
48413W        W 9944  29.088   6.713  10.076
48414W        W 9945  35.926  13.162  12.375
48415W        W 9946   6.281   9.212  14.006
48416W        W 9947  21.146   7.773   5.101
48417W        W 9948  37.035  30.996   2.822
48418W        W 9949  20.541  32.624   2.370
48419W        W 9950  35.368  20.151   1.354
48420W        W 9951   4.352  23.527  14.815
48421W        W 9952   4.351  32.628   0.438
48422W        W 9953  25.193   8.698   1.887
48423W        W 9954  40.846  22.598   4.125
48424W        W 9955  20.682  18.621   0.481
48425W        W 9956  22.508  33.021  14.483
48426W        W 9957  20.208   7.290   4.225
48427W        W 9958  31.087  32.119  10.889
48428W        W 9959  28.458  42.361  14.770
48429W        W 9960  14.172   4.348  10.415
48430W        W 9961  22.741  35.062  12.000
48431W        W 9962  22.133   5.799  10.418
48432W        W 9963  31.033  32.905  13.385
48433W        W 9964   9.236   0.812  14.435
48434W        W 9965   2.369  20.051  13.452
48435W        W 9966  28.186  34.371   9.971
48436W        W 9967  14.645  34.868  10.975
48437W        W 9968  21.241   4.844  11.546
48438W        W 9969  12.854   7.385   4.786
48439W        W 9970  34.863   9.395   4.271
48440W        W 9971   3.764  21.256  13.036
48441W        W 9972  12.853   4.930  13.424
48442W        W 9973   6.802   4.719  12.545
48443W        W 9974  30.009  27.997   3.821
48444W        W 9975   4.726  19.040  10.560
48445W        W 9976  11.630  10.714  14.879
48446W        W 9977  35.873  33.109  10.425
48447W        W 9978  18.215  26.481   3.265
48448W        W 9979  21.134  12.258  10.636
48449W        W 9980  35.413  42.381   3.801
48450W        W 9981  39.950   4.887  10.921
48451W        W 9982  36.549  17.747   4.340
48452W        W 9983  30.552   6.690   3.828
48453W        W 9984  36.587  14.830   4.804
48454W        W 9985  18.271  43.863   0.957
48455W        W 9986  23.016  33.575  14.276
48456W        W 9987  42.891   9.215  11.539
48457W        W 9988  25.630  25.024   3.176
48458W        W 9989  24.678   2.900   4.208
48459W        W 9990  41.299  17.134  12.339
48460W        W 9991   1.441  12.261  12.031
48461W        W 9992  40.965   5.933  13.842
48462W        W 9993  44.823  13.239   4.726
48463W        W 9994   3.860  34.978   1.316
48464W        W 9995  35.400   3.811  14.813
48465W        W 9996  33.600  24.107  12.936
48466W        W 9997   2.229  16.598   4.689
48467W        W 9998  26.017  21.602  13.392
48468W        W 9999  14.731   5.267  13.025
48469W        W10000  39.051   1.416  13.981
48470W        W10001  10.792  36.383   4.201
48471W        W10002  35.050  10.232   0.250
48472W        W10003  16.578  26.621   2.861
48473W        W10004  20.056  28.108   2.189
48474W        W10005  29.107  39.835  12.448
48475W        W10006  40.541   8.880  10.477
48476W        W10007  10.165  29.456  12.856
48477W        W10008  35.588  30.979  13.330
48478W        W10009  24.182   3.258   4.779
48479W        W10010  40.356   0.916   2.765
48480W        W10011  41.949   9.757   0.911
48481W        W10012   8.355   5.255   2.882
48482W        W10013  26.534  18.103  14.467
48483W        W10014  43.368  19.580  13.044
48484W        W10015  14.311   3.355  14.339
48485W        W10016  36.098  36.579  14.023
48486W        W10017  17.674  43.492  10.625
48487W        W10018  43.476   7.212  13.035
48488W        W10019  26.505   3.859   4.272
48489W        W10020  20.644   3.304  10.916
48490W        W10021  33.481   5.301   2.291
48491W        W10022  28.610   6.414  14.969
48492W        W10023  12.662  33.930  14.962
48493W        W10024   0.374  40.857  10.891
48494W        W10025  40.822   8.840   3.232
48495W        W10026  28.532  18.059  14.823
48496W        W10027  43.769   6.816   2.793
48497W        W10028  24.085  44.830   2.841
48498W        W10029  19.650   8.168   0.828
48499W        W10030  23.233  10.648   3.234
48500W        W10031   6.757  38.058  14.320
48501W        W10032  36.395  13.335   2.860
48502W        W10033  22.620  20.722  11.519
48503W        W10034  43.423  14.818   3.269
48504W        W10035  44.457  33.993   3.164
48505W        W10036   9.301  44.892  14.777
48506W        W10037  14.269  35.021  12.375
48507W        W10038  41.897  37.370  11.996
48508W        W10039  31.479   9.793  10.449
48509W        W10040  16.668  22.579   4.293
48510W        W10041  43.342  25.979  14.324
48511W        W10042  31.475  24.170  13.466
48512W        W10043  37.435  22.553  13.793
48513W        W10044  34.897  14.684  12.478
48514W        W10045  31.073   1.365  14.402
48515W        W10046  33.439  16.665  14.413
48516W        W10047   7.709  38.841  10.909
48517W        W10048  30.120  28.456   0.307
48518W        W10049  16.662  32.139   2.372
48519W        W10050  29.111  40.362  14.498
48520W        W10051   7.289  34.927   1.923
48521W        W10052   0.871  35.983  13.509
48522W        W10053  10.158  19.559   0.479
48523W        W10054   9.778  42.828  13.949
48524W        W10055  29.468  43.985  13.358
48525W        W10056  30.530  19.737  12.038
48526W        W10057  44.499  13.700  12.981
48527W        W10058   2.383   3.355   0.375
48528W        W10059  30.493  20.575  11.612
48529W        W10060  31.610  21.744  14.891
48530W        W10061  29.551   6.324   0.813
48531W        W10062  10.771  31.645   1.828
48532W        W10063  11.681  14.309  13.500
48533W        W10064  31.965  14.693   9.640
48534W        W10065  21.025   6.305  11.575
48535W        W10066  14.245  18.778   1.329
48536W        W10067   1.911  33.386  14.401
48537W        W10068  15.685   2.787   4.709
48538W        W10069  26.051  38.887  11.128
48539W        W10070  25.024  25.063  13.009
48540W        W10071  36.857   7.221   3.820
48541W        W10072  38.513  39.014   3.167
48542W        W10073  10.168   3.388  13.859
48543W        W10074   9.790  38.858   0.408
48544W        W10075  28.581  23.991   4.810
48545W        W10076  25.646   5.407  13.062
48546W        W10077  25.584   7.700  14.985
48547W        W10078   8.658   3.354  12.946
48548W        W10079   7.860  27.682   1.304
48549W        W10080  37.930  17.269  10.914
48550W        W10081  22.531  16.217   2.294
48551W        W10082   8.260  34.429  12.947
48552W        W10083   8.187   5.849   0.310
48553W        W10084  15.117  39.417   3.153
48554W        W10085  33.115   6.293   3.849
48555W        W10086   6.202   1.915   5.235
48556W        W10087  19.616  36.988   0.400
48557W        W10088  20.143   9.395  10.527
48558W        W10089  43.816  15.304   1.403
48559W        W10090  15.672   3.298   4.229
48560W        W10091  37.012  18.192   1.848
48561W        W10092   5.769  41.026  12.055
48562W        W10093   1.465  18.697   0.854
48563W        W10094   5.399   3.745   2.765
48564W        W10095  19.077   2.341   1.808
48565W        W10096  12.179  38.876   3.265
48566W        W10097  18.106  19.670   1.902
48567W        W10098  10.854  43.455  11.856
48568W        W10099  19.584   1.853   4.258
48569W        W10100  21.755  42.387   1.855
48570W        W10101  33.931   4.355  14.298
48571W        W10102   6.744   3.869   1.435
48572W        W10103  11.237  41.970  14.970
48573W        W10104  40.883  41.349  10.947
48574W        W10105  25.010  35.405  14.992
48575W        W10106  14.698   9.233   4.822
48576W        W10107  20.233   3.768   2.861
48577W        W10108  44.949  42.411   1.373
48578W        W10109  18.053  43.941  13.058
48579W        W10110   5.430  17.070   3.241
48580W        W10111  19.593  35.455  13.792
48581W        W10112  28.605  42.955  10.478
48582W        W10113  13.273  10.718  10.448
48583W        W10114  28.996  19.736   0.818
48584W        W10115  32.010  35.914  12.857
48585W        W10116  22.204  14.217  12.536
48586W        W10117  26.501  22.650  13.388
48587W        W10118  22.598  36.964  13.416
48588W        W10119  34.499   5.376  12.494
48589W        W10120  20.196  20.138  10.411
48590W        W10121  16.809  28.506  12.878
48591W        W10122  18.094  28.567   4.219
48592W        W10123  26.043   5.299   1.802
48593W        W10124  13.787  14.272  12.948
48594W        W10125   6.218   5.732  13.062
48595W        W10126  23.701  18.202   4.225
48596W        W10127  35.452   5.795   2.792
48597W        W10128  39.820   5.858   1.340
48598W        W10129  13.260  30.048   9.466
48599W        W10130  17.275  13.777   2.189
48600W        W10131  41.951  29.031   4.682
48601W        W10132  21.561  39.362   4.138
48602W        W10133  16.281   4.939  14.316
48603W        W10134  37.054  13.725   2.227
48604W        W10135  42.289   5.299   3.645
48605W        W10136  35.018   9.881  11.396
48606W        W10137  37.450   3.829   1.260
48607W        W10138  31.407   4.230   3.637
48608W        W10139  14.254   7.258   1.313
48609W        W10140   8.204   4.352  12.088
48610W        W10141   8.178  19.544   1.856
48611W        W10142  23.585  24.221  12.545
48612W        W10143  19.646  31.557  10.931
48613W        W10144   5.203  24.503  14.319
48614W        W10145  18.241   8.893   3.781
48615W        W10146  32.471   6.414   2.661
48616W        W10147  11.213  15.755  11.442
48617W        W10148  37.899  21.666   2.713
48618W        W10149  42.941  29.534  10.471
48619W        W10150  19.592  32.107  14.441
48620W        W10151  41.456   5.843  13.955
48621W        W10152   8.242  24.996   2.372
48622W        W10153   1.399  13.803  10.427
48623W        W10154  13.840  23.041  14.328
48624W        W10155   0.351  22.211  10.019
48625W        W10156  30.049  15.693   4.785
48626W        W10157  13.602  16.614  11.405
48627W        W10158  13.602  38.447   0.800
48628W        W10159  10.877  30.555   0.269
48629W        W10160   1.447   0.765   4.183
48630W        W10161  29.090  41.931   0.316
48631W        W10162  34.979  26.170   4.636
48632W        W10163  19.605  18.094   0.807
48633W        W10164  27.680   7.811   4.777
48634W        W10165  34.614   6.347   2.413
48635W        W10166  42.430  19.108  12.480
48636W        W10167   6.385  25.500  11.426
48637W        W10168  38.346  42.437   0.464
48638W        W10169   7.381   7.333   0.927
48639W        W10170  26.208  27.555   0.919
48640W        W10171   3.235  33.967  11.062
48641W        W10172  39.007  10.772   2.847
48642W        W10173  13.629   5.739  12.922
48643W        W10174  34.373  41.486  13.398
48644W        W10175  40.851   0.333  14.018
48645W        W10176  39.949  33.956   0.957
48646W        W10177  29.118  24.090   3.642
48647W        W10178   1.918  15.111   0.411
48648W        W10179  34.021  20.091   0.764
48649W        W10180  42.425  34.489  13.365
48650W        W10181  38.034   3.317   2.380
48651W        W10182  15.238   5.230  14.333
48652W        W10183  28.008  39.066  14.488
48653W        W10184  44.881   5.395   4.150
48654W        W10185  33.879  17.200  10.955
48655W        W10186  28.468   8.165   3.238
48656W        W10187   5.230  35.998  11.897
48657W        W10188  19.566   0.415   3.258
48658W        W10189   0.377  26.073  13.058
48659W        W10190   2.356  23.547   2.269
48660W        W10191  31.949  19.137   0.350
48661W        W10192  18.171  42.455  11.448
48662W        W10193  17.677   1.456   3.274
48663W        W10194  44.416  16.664   4.314
48664W        W10195  13.301  31.123  14.479
48665W        W10196   7.786  24.079   2.698
48666W        W10197  39.435  35.935   1.867
48667W        W10198   8.402  10.182  13.542
48668W        W10199  12.361  33.572   0.868
48669W        W10200  18.051   0.279  12.402
48670W        W10201  32.447   6.756  11.066
48671W        W10202  32.482  15.195  12.459
48672W        W10203  29.173  42.522  12.085
48673W        W10204  36.468  12.321  10.904
48674W        W10205   6.405  20.670   4.170
48675W        W10206  38.985  30.018  10.562
48676W        W10207   9.648  24.984  10.937
48677W        W10208   6.375  38.433  11.486
48678W        W10209  14.774  16.797   2.716
48679W        W10210  43.506  43.913   3.291
48680W        W10211  19.614  15.799   4.743
48681W        W10212   9.318  43.324  10.958
48682W        W10213   7.415  15.261   2.311
48683W        W10214  27.090  44.463   3.865
48684W        W10215   3.346  20.274  10.483
48685W        W10216  16.077  18.229   3.694
48686W        W10217  41.990  41.934   3.192
48687W        W10218  41.004  26.965  10.447
48688W        W10219  12.347  22.055  13.050
48689W        W10220   5.380  33.468   2.818
48690W        W10221   6.784  24.577  13.020
48691W        W10222   6.350  23.583  10.057
48692W        W10223  38.917  20.769   2.404
48693W        W10224   2.308  44.505   0.416
48694W        W10225   8.791  35.949  10.601
48695W        W10226  14.213   4.851   4.706
48696W        W10227  36.095  23.149  12.062
48697W        W10228  20.126   3.455   1.423
48698W        W10229  11.190   8.811   4.165
48699W        W10230  13.251  26.457   1.889
48700W        W10231  21.209  33.453  12.571
48701W        W10232  11.705  11.770   2.351
48702W        W10233  14.163  29.051  10.977
48703W        W10234  13.218  29.602   2.273
48704W        W10235  35.054   0.884   2.834
48705W        W10236  27.453  15.286   3.191
48706W        W10237   3.325   8.188   2.708
48707W        W10238  32.014   3.324   0.849
48708W        W10239  17.593  22.135   3.283
48709W        W10240  43.826  10.652  11.433
48710W        W10241  40.911  29.077   1.834
48711W        W10242   6.853  25.011  11.480
48712W        W10243   3.358  24.069  14.016
48713W        W10244  22.181  28.137  14.959
48714W        W10245  11.792  34.498  11.560
48715W        W10246  19.653  13.768  12.824
48716W        W10247  35.397   7.757  14.890
48717W        W10248   4.874  12.200   2.344
48718W        W10249  17.175  44.421   2.787
48719W        W10250   4.234  33.402   0.747
48720W        W10251  16.099   2.927  11.529
48721W        W10252  29.969  14.645  13.966
48722W        W10253  44.482   3.421   3.866
48723W        W10254  18.226  32.559   1.371
48724W        W10255  27.605  36.047   2.775
48725W        W10256  42.307  33.970   3.345
48726W        W10257  35.577  42.792   0.862
48727W        W10258   2.259  17.602  14.489
48728W        W10259  21.580  30.446  10.549
48729W        W10260  11.192   8.889  13.968
48730W        W10261  36.419  17.802   3.350
48731W        W10262  15.287  11.286  14.281
48732W        W10263   0.940  26.103  14.832
48733W        W10264  21.705  14.221   3.790
48734W        W10265  31.554  14.198  13.530
48735W        W10266  39.969  17.757   3.287
48736W        W10267  38.022  30.650   0.347
48737W        W10268   1.896   5.871  10.499
48738W        W10269  38.375  19.643  14.986
48739W        W10270  11.356  18.569   4.229
48740W        W10271  39.913  20.599  14.299
48741W        W10272  22.225  43.876   1.328
48742W        W10273  22.058  17.741   2.885
48743W        W10274  32.432   2.370   3.845
48744W        W10275  27.484  42.801   3.326
48745W        W10276  33.113  37.036  13.402
48746W        W10277   5.760  30.549  13.515
48747W        W10278  19.099   4.422  14.460
48748W        W10279   6.235   6.865  10.897
48749W        W10280  41.476  15.584  13.430
48750W        W10281  18.608  33.531  14.507
48751W        W10282  18.069  28.585   3.175
48752W        W10283   3.873  38.824  10.150
48753W        W10284  32.081  30.150  12.400
48754W        W10285  32.001  38.433   1.335
48755W        W10286  14.628  28.582   3.229
48756W        W10287   0.915  39.444   0.373
48757W        W10288  40.375   2.439   3.834
48758W        W10289   9.245  23.690  13.044
48759W        W10290  17.102  31.960   2.855
48760W        W10291  28.110   7.715   3.342
48761W        W10292  38.936   7.786   4.352
48762W        W10293  16.113  18.225   3.178
48763W        W10294  22.659   9.835  14.976
48764W        W10295  40.982  31.623   3.303
48765W        W10296  30.419   4.772   2.250
48766W        W10297   8.177   5.802  11.458
48767W        W10298  18.553  40.423  14.862
48768W        W10299   4.316  11.713   1.839
48769W        W10300  20.050   2.751  13.938
48770W        W10301  28.539  15.693   3.160
48771W        W10302  42.943   6.285  11.598
48772W        W10303   0.808  20.159   0.782
48773W        W10304   9.230   6.698   3.215
48774W        W10305  44.438  10.691   1.257
48775W        W10306   2.766  15.626  13.493
48776W        W10307   7.805  32.574   4.656
48777W        W10308  15.801   9.859  11.612
48778W        W10309  23.224  12.766  10.554
48779W        W10310  18.087  43.494   3.354
48780W        W10311  25.706   2.382   0.953
48781W        W10312  36.444   6.286   5.248
48782W        W10313   6.705  34.369   4.245
48783W        W10314  38.503  30.923   4.705
48784W        W10315  41.399  21.646   2.693
48785W        W10316  34.873  36.455   1.802
48786W        W10317  19.777  36.374   0.949
48787W        W10318  13.764  11.263  12.086
48788W        W10319  18.129  21.622   0.853
48789W        W10320  28.942   8.700  13.919
48790W        W10321   2.376  20.169   4.760
48791W        W10322  35.366  16.778   5.275
48792W        W10323  36.097  12.687  12.045
48793W        W10324  38.017  22.520   1.748
48794W        W10325   2.757  18.761   1.796
48795W        W10326  31.542  30.538   4.611
48796W        W10327  15.642   7.184   2.312
48797W        W10328  42.433   6.412   2.416
48798W        W10329   9.811   2.727   3.775
48799W        W10330  44.982   8.384   4.749
48800W        W10331  17.749  23.083   9.595
48801W        W10332  25.602  40.445   1.289
48802W        W10333  43.903  30.645   2.759
48803W        W10334   1.330  42.491   4.310
48804W        W10335  41.818  42.314   2.204
48805W        W10336  25.594  37.008   3.330
48806W        W10337  14.158   2.866   2.401
48807W        W10338  21.164  34.888  14.330
48808W        W10339  17.073  21.217   4.346
48809W        W10340  11.689  13.279  11.905
48810W        W10341  43.476   8.391  12.545
48811W        W10342  13.689   1.319   9.981
48812W        W10343  26.575  19.685  11.529
48813W        W10344  40.487   6.392  13.048
48814W        W10345  40.306  35.895  14.505
48815W        W10346  33.046   7.734  11.558
48816W        W10347  28.065  12.831  10.565
48817W        W10348  42.781   3.787   2.695
48818W        W10349  24.059   4.791   4.310
48819W        W10350  27.573  10.652   0.251
48820W        W10351   9.781   8.336   3.257
48821W        W10352  20.546  40.340  11.965
48822W        W10353   0.855   9.813  11.410
48823W        W10354  33.500  10.137   4.779
48824W        W10355  20.238  20.611  14.490
48825W        W10356  21.032  36.982  13.433
48826W        W10357  17.652  31.917  14.809
48827W        W10358  31.996  10.311   0.817
48828W        W10359  27.957   5.922  12.967
48829W        W10360  22.143  21.166   3.179
48830W        W10361  39.819  39.406  12.578
48831W        W10362  15.125  43.780  12.439
48832W        W10363   9.373  11.314   4.151
48833W        W10364   3.889  25.579  14.760
48834W        W10365  20.108  12.723  14.409
48835W        W10366  12.717  23.226  14.386
48836W        W10367  12.790  33.516  14.348
48837W        W10368  40.906   2.814  12.029
48838W        W10369  35.378  17.233  12.464
48839W        W10370  35.959  16.578   0.737
48840W        W10371  17.211   4.290  12.542
48841W        W10372  27.593  12.813   3.636
48842W        W10373  37.864  38.925  14.336
48843W        W10374  37.909  21.719  11.579
48844W        W10375  33.396  32.006  12.926
48845W        W10376   5.766  16.696  13.452
48846W        W10377  18.297  35.048   3.636
48847W        W10378   3.282  15.116   2.674
48848W        W10379   6.799  41.876   3.236
48849W        W10380   7.692  23.147  10.444
48850W        W10381   3.875  19.681   0.828
48851W        W10382   3.300  13.175  11.609
48852W        W10383  24.184  18.142   0.890
48853W        W10384  43.986  19.278   1.281
48854W        W10385  37.499   5.770  14.308
48855W        W10386  42.030  39.966  13.855
48856W        W10387  36.451   7.879   3.159
48857W        W10388  43.809  18.740  14.516
48858W        W10389  38.866  14.114   1.879
48859W        W10390  24.975  38.500  14.423
48860W        W10391   9.648  32.080  14.467
48861W        W10392  18.189  27.963   5.119
48862W        W10393  18.582  17.788  13.337
48863W        W10394  18.601   9.691  10.530
48864W        W10395   8.379  31.574   1.831
48865W        W10396  18.076   5.438   1.313
48866W        W10397  33.468  22.514   3.644
48867W        W10398  22.727  13.199   2.365
48868W        W10399   1.796  11.261   4.776
48869W        W10400  12.202  36.569   3.831
48870W        W10401  31.532  34.980   2.256
48871W        W10402  44.422  26.092  13.819
48872W        W10403  14.252  20.272  13.803
48873W        W10404  40.905  37.568   4.707
48874W        W10405  43.878  39.333  13.528
48875W        W10406  27.123  27.674   4.341
48876W        W10407  43.381  16.798  10.543
48877W        W10408  19.166  22.129   4.676
48878W        W10409  19.715  12.614   4.730
48879W        W10410  16.074  38.979   2.410
48880W        W10411   9.753  25.589  10.888
48881W        W10412  32.986  38.371  12.389
48882W        W10413  16.756   8.296   3.333
48883W        W10414  39.971  10.199  11.965
48884W        W10415  41.825  19.604  11.522
48885W        W10416   5.405  43.865  13.903
48886W        W10417  22.170  24.206   3.189
48887W        W10418  44.308  13.184   0.866
48888W        W10419  26.530  16.096  12.368
48889W        W10420   9.365   9.809   0.481
48890W        W10421  29.159  24.610  10.543
48891W        W10422  36.060  33.586   0.452
48892W        W10423  23.092  28.947  11.550
48893W        W10424  16.174  40.976  13.469
48894W        W10425  23.135  27.192   1.820
48895W        W10426  44.415  44.938  10.410
48896W        W10427  44.904  35.462   2.270
48897W        W10428   3.710   8.213   1.210
48898W        W10429  38.832  40.389   0.480
48899W        W10430  16.739  35.394   4.354
48900W        W10431  24.594  32.049   2.361
48901W        W10432  33.114  22.051  14.827
48902W        W10433  18.736  33.479  14.795
48903W        W10434  14.813   3.296  14.275
48904W        W10435  37.468  27.966  12.872
48905W        W10436  25.591  37.522  14.485
48906W        W10437  29.573  37.391   9.921
48907W        W10438  29.087  21.748  11.952
48908W        W10439  23.236  26.600  12.932
48909W        W10440  23.177  25.567   1.783
48910W        W10441  43.354   4.767  10.129
48911W        W10442  33.955  40.528   0.340
48912W        W10443  11.136  12.212  11.894
48913W        W10444  26.618  38.998   4.284
48914W        W10445  28.145  26.624   3.662
48915W        W10446  21.628  37.076   9.582
48916W        W10447  35.417  22.577  11.064
48917W        W10448   9.761  25.664   1.267
48918W        W10449  31.586   3.453   2.885
48919W        W10450   4.861   6.231   1.296
48920W        W10451  36.435  26.557   2.728
48921W        W10452  29.587   8.900  13.987
48922W        W10453  21.635   8.772  11.466
48923W        W10454  28.479  36.902  14.979
48924W        W10455  14.622  11.145   0.403
48925W        W10456   6.782  17.662   0.394
48926W        W10457  29.425  27.463   2.676
48927W        W10458  38.044   9.351   0.728
48928W        W10459  38.329  43.797   1.918
48929W        W10460   4.763  12.214  10.440
48930W        W10461  19.227  26.545  14.427
48931W        W10462  39.497  41.441   1.766
48932W        W10463  10.735  15.724  14.307
48933W        W10464   1.948   3.427  14.790
48934W        W10465  13.628  21.717  13.919
48935W        W10466  44.794   0.384   3.691
48936W        W10467  40.364  11.273  11.388
48937W        W10468  20.535   1.736   1.746
48938W        W10469  15.127  21.165  13.451
48939W        W10470  18.785  18.152   5.206
48940W        W10471  37.084  38.059   0.244
48941W        W10472  36.452  12.325  14.959
48942W        W10473  27.592  17.172   4.181
48943W        W10474  10.233  37.894   2.844
48944W        W10475  17.278  28.498  11.454
48945W        W10476   4.938   8.846  14.973
48946W        W10477  12.841  18.291   4.125
48947W        W10478   2.937  11.207  14.990
48948W        W10479  35.078  41.796  12.083
48949W        W10480   7.853  43.841   4.637
48950W        W10481   8.341  26.497  13.980
48951W        W10482  28.967  33.451   3.242
48952W        W10483  34.105  15.296  13.531
48953W        W10484  13.140  40.531   1.268
48954W        W10485   7.722   8.347   2.851
48955W        W10486  26.972  23.074  14.430
48956W        W10487  23.582  16.726   1.266
48957W        W10488  30.574  10.173  10.597
48958W        W10489   9.681  17.788  13.336
48959W        W10490   2.314  43.490   1.250
48960W        W10491  39.028  27.529   2.266
48961W        W10492  21.643  22.736  13.796
48962W        W10493  11.280  23.184  14.447
48963W        W10494   6.759  10.770  11.571
48964W        W10495  21.020  41.041  13.948
48965W        W10496  40.337  15.089   2.894
48966W        W10497  26.983   4.430   4.331
48967W        W10498  28.470  13.720   2.320
48968W        W10499   3.317  11.139   2.276
48969W        W10500  32.065  42.811   1.228
48970W        W10501   7.678  12.758   4.705
48971W        W10502   0.761  41.926  14.881
48972W        W10503  26.695  10.832   4.708
48973W        W10504  25.664   9.161   3.299
48974W        W10505  31.427  38.442   2.777
48975W        W10506   6.349  15.328   0.878
48976W        W10507   8.833  44.839   2.335
48977W        W10508   2.887  25.993  12.861
48978W        W10509  12.767  38.409  11.516
48979W        W10510  22.631  40.901   1.328
48980W        W10511  33.604  27.674   2.384
48981W        W10512   4.258   9.351   4.298
48982W        W10513  13.260  20.074  11.420
48983W        W10514   7.341  13.844   4.647
48984W        W10515  23.207  34.971  11.609
48985W        W10516  14.643  19.690   0.453
48986W        W10517  36.580  24.011  10.954
48987W        W10518  29.427  26.966  12.547
48988W        W10519  31.982  34.085   0.795
48989W        W10520  10.710  20.070   3.849
48990W        W10521  30.143   1.316   0.908
48991W        W10522  28.076  39.331  10.948
48992W        W10523   7.711  19.193  14.924
48993W        W10524  44.269  17.751   2.326
48994W        W10525   5.775  34.003  14.429
48995W        W10526  15.270   7.775  11.946
48996W        W10527  43.516  18.597  10.006
48997W        W10528  32.048  19.687   2.342
48998W        W10529   8.711   6.383   0.302
48999W        W10530  18.253  30.606   3.310
49000W        W10531  25.639  19.276   1.216
49001W        W10532   7.284  18.216  10.495
49002W        W10533  40.443  38.567  14.018
49003W        W10534   5.320  18.641  12.468
49004W        W10535  38.564  32.580   1.862
49005W        W10536   3.361  13.171  13.357
49006W        W10537  16.728  13.694  14.916
49007W        W10538  10.173  20.196   2.269
49008W        W10539  10.839   5.764   2.203
49009W        W10540   0.286   6.814  14.453
49010W        W10541  24.606  15.277  14.362
49011W        W10542  19.728  29.656   0.916
49012W        W10543  37.343  19.681  11.916
49013W        W10544  13.256  14.654  12.917
49014W        W10545  17.113  14.160  11.471
49015W        W10546  42.012  31.942  10.551
49016W        W10547  36.462  31.490  11.506
49017W        W10548  14.603  42.825   3.217
49018W        W10549   0.304  28.979   1.348
49019W        W10550  31.118  15.607   3.757
49020W        W10551  14.257  25.660   1.249
49021W        W10552   8.660  18.070  14.931
49022W        W10553  17.630  30.575  13.424
49023W        W10554  34.511  42.507  12.083
49024W        W10555   2.313  42.518  14.401
49025W        W10556  34.415  39.041   5.211
49026W        W10557  13.259  28.978  13.489
49027W        W10558  17.190  10.249   3.229
49028W        W10559  20.102   4.374  13.543
49029W        W10560  35.547  12.786  12.344
49030W        W10561  14.798  11.308   2.894
49031W        W10562   8.383  36.540   1.709
49032W        W10563  12.354  42.438  12.495
49033W        W10564   9.189   0.819   1.796
49034W        W10565  22.576  41.511   0.351
49035W        W10566  13.315  38.346   2.409
49036W        W10567  40.342  16.734  12.872
49037W        W10568  11.800   9.241   0.733
49038W        W10569  11.253   8.735   3.678
49039W        W10570  19.263  34.946   2.342
49040W        W10571  40.045  23.053   4.769
49041W        W10572  11.354  40.432   1.726
49042W        W10573   6.738  24.534  10.456
49043W        W10574  38.990  34.438   0.257
49044W        W10575  32.410  41.040  10.910
49045W        W10576  40.052  24.491   3.254
49046W        W10577  28.093  19.597  11.569
49047W        W10578  42.864  29.919  14.912
49048W        W10579  14.687  32.473   2.355
49049W        W10580  44.385  40.908   3.331
49050W        W10581  15.796  25.032  13.016
49051W        W10582  17.755   3.299   1.921
49052W        W10583  36.842  27.171   3.280
49053W        W10584   3.749  16.785  11.475
49054W        W10585  32.886  16.725   0.320
49055W        W10586   9.738  13.620  11.044
49056W        W10587  21.537  18.584  13.445
49057W        W10588  32.562  36.012   1.910
49058W        W10589  38.959  30.916   2.846
49059W        W10590   3.377  43.294   0.902
49060W        W10591   5.319  43.431   2.856
49061W        W10592  10.788  13.700   0.398
49062W        W10593  19.754   9.778  14.328
49063W        W10594  39.005  40.529   4.723
49064W        W10595  26.202   5.757   4.653
49065W        W10596  18.604  43.879   3.631
49066W        W10597  41.334  21.061   2.700
49067W        W10598  42.787  43.885  11.935
49068W        W10599  35.375   8.664   2.365
49069W        W10600  24.020  39.866   5.657
49070W        W10601  21.130  31.092   3.358
49071W        W10602  44.458   5.921   3.830
49072W        W10603  20.667  24.675  14.759
49073W        W10604  10.875  39.951   3.232
49074W        W10605  38.496  30.548   2.726
49075W        W10606   2.353  17.775   4.797
49076W        W10607   6.305  26.611  10.625
49077W        W10608  21.202  28.609   1.787
49078W        W10609  12.123  20.171  12.835
49079W        W10610  20.594  22.076   3.186
49080W        W10611  17.125   2.777  12.393
49081W        W10612  11.773  22.702   1.892
49082W        W10613   0.810  19.556  13.807
49083W        W10614  40.890  36.486   2.309
49084W        W10615  43.370  28.564  13.045
49085W        W10616   1.771   9.725  13.484
49086W        W10617  40.029  19.125   1.394
49087W        W10618   3.360  28.567  12.385
49088W        W10619  28.959  44.261   2.899
49089W        W10620   6.396  18.550   4.601
49090W        W10621  36.974  32.417   1.312
49091W        W10622  41.526  16.262  13.479
49092W        W10623  40.991  10.687   1.397
49093W        W10624  14.296  17.074   1.398
49094W        W10625  44.967   2.269   4.190
49095W        W10626  17.670   5.277  14.969
49096W        W10627  11.641  16.083   4.171
49097W        W10628  31.964  27.645   9.979
49098W        W10629  31.994  35.435  12.054
49099W        W10630  25.216  28.452  13.053
49100W        W10631  18.151  11.190   3.811
49101W        W10632  33.060  19.267  10.081
49102W        W10633  14.106   2.723   0.837
49103W        W10634  28.973   4.210  10.538
49104W        W10635  40.799  26.612   1.771
49105W        W10636  20.222  12.249  11.919
49106W        W10637  35.572   3.849  12.505
49107W        W10638   2.391  29.024  14.838
49108W        W10639  33.089   7.235   0.384
49109W        W10640  11.127   5.276  14.792
49110W        W10641  11.281  42.512  10.584
49111W        W10642  38.532  26.517  14.994
49112W        W10643   9.776  37.392  10.516
49113W        W10644   8.331  36.847   0.267
49114W        W10645  34.004  28.135   3.701
49115W        W10646  19.682  43.465  12.470
49116W        W10647  35.900  39.854  13.808
49117W        W10648  32.924  27.663  14.959
49118W        W10649  31.069  29.559   0.480
49119W        W10650   2.368   8.329  11.001
49120W        W10651  29.500  15.162   3.189
49121W        W10652  16.665   3.331  14.486
49122W        W10653   7.714  26.578   0.262
49123W        W10654   5.395  37.023  14.311
49124W        W10655  15.650  23.492   2.185
49125W        W10656  15.282  36.393   0.403
49126W        W10657  44.995  39.872   3.273
49127W        W10658  13.790  15.683  14.449
49128W        W10659   7.765  37.487   4.684
49129W        W10660  26.681  16.644   1.760
49130W        W10661  39.406   0.288   2.340
49131W        W10662  24.187  11.343  11.899
49132W        W10663  40.543  20.060   3.365
49133W        W10664  33.467  21.146  13.365
49134W        W10665  36.978   6.876  10.505
49135W        W10666  20.769  21.204  11.881
49136W        W10667  14.701   7.325   2.274
49137W        W10668  23.528  25.026  13.379
49138W        W10669   3.732  32.926   3.329
49139W        W10670  21.074  31.112  10.969
49140W        W10671  35.570  24.084  14.938
49141W        W10672  44.812  10.775  13.843
49142W        W10673  18.240  12.777   4.679
49143W        W10674  23.727  39.994   5.177
49144W        W10675  35.377  32.551   0.828
49145W        W10676  11.146   9.761  14.947
49146W        W10677  32.021  10.783  12.503
49147W        W10678  30.989  29.561   1.869
49148W        W10679  43.876   9.682   3.273
49149W        W10680   1.322  15.148  11.968
49150W        W10681  25.601  41.431   0.900
49151W        W10682  18.146  25.640   1.710
49152W        W10683  31.568  21.745   1.398
49153W        W10684   9.257   6.237   0.393
49154W        W10685  11.362  11.325  11.093
49155W        W10686  29.095  31.643   0.924
49156W        W10687  23.519  27.944  14.291
49157W        W10688  27.024  25.172   3.814
49158W        W10689  13.190  37.352  10.114
49159W        W10690  17.084   4.813   2.893
49160W        W10691  14.156  34.090  14.941
49161W        W10692  31.570  22.683   4.155
49162W        W10693   2.404  17.718  10.600
49163W        W10694  23.718  18.664   0.279
49164W        W10695  19.755   7.365  10.551
49165W        W10696  26.521   0.977  11.538
49166W        W10697  38.875   3.393  10.126
49167W        W10698  39.398  22.586  13.796
49168W        W10699   6.314  25.969  11.393
49169W        W10700  10.157  12.733  11.930
49170W        W10701  32.094  43.477  14.014
49171W        W10702   1.803  22.655  13.438
49172W        W10703   4.260  38.026  11.575
49173W        W10704  20.172  15.784   3.669
49174W        W10705  41.787  37.926   1.761
49175W        W10706  26.081  22.703   1.339
49176W        W10707  11.721  30.541  13.956
49177W        W10708   0.881  17.113  13.952
49178W        W10709   2.858  20.541  12.374
49179W        W10710   0.880   5.820  14.485
49180W        W10711   3.807  17.569  13.335
49181W        W10712  22.069   1.420  13.896
49182W        W10713   5.369  31.932   4.329
49183W        W10714  35.450  37.541  14.870
49184W        W10715  12.693  19.736  10.636
49185W        W10716  28.665   5.210  12.363
49186W        W10717  37.418   4.326  12.504
49187W        W10718  30.084  41.998   1.395
49188W        W10719   1.895  22.633  11.428
49189W        W10720  24.592  20.647  14.828
49190W        W10721  22.672  10.728   0.373
49191W        W10722  42.857  32.026  12.430
49192W        W10723  27.995  20.046  12.855
49193W        W10724  18.142  21.018  12.504
49194W        W10725  34.468  25.682   2.808
49195W        W10726  13.327  15.706   3.288
49196W        W10727  35.451  30.545   2.758
49197W        W10728   1.786  21.185   4.778
49198W        W10729  35.417  39.027  12.966
49199W        W10730  16.140  28.542   3.328
49200W        W10731  29.965  44.847   1.738
49201W        W10732  15.734  34.075  13.051
49202W        W10733   2.873  20.579   2.344
49203W        W10734  33.584  40.531  12.983
49204W        W10735  24.122  23.564   2.247
49205W        W10736  44.501  16.634   0.367
49206W        W10737  13.155  29.426  10.589
49207W        W10738   0.348  44.835   0.908
49208W        W10739  29.110   5.826   1.341
49209W        W10740  37.927  29.970   2.884
49210W        W10741  14.776  30.629   0.749
49211W        W10742  34.520  39.350  14.024
49212W        W10743  31.451   5.283   0.824
49213W        W10744   0.909   4.898  11.531
49214W        W10745   1.912   4.362   3.721
49215W        W10746  30.055  35.585   4.134
49216W        W10747  39.914  35.549  11.046
49217W        W10748  19.624  30.929  11.387
49218W        W10749  22.681   7.297  13.475
49219W        W10750   0.491  37.875  14.950
49220W        W10751  16.089  39.525  10.629
49221W        W10752  42.340  21.586   4.601
49222W        W10753  43.421  13.149   3.702
49223W        W10754  19.700  34.535  12.965
49224W        W10755  24.101   2.916   0.332
49225W        W10756  33.415  36.944   1.348
49226W        W10757  15.635  35.886  14.923
49227W        W10758  35.990   9.153  11.917
49228W        W10759  38.400  14.308  14.855
49229W        W10760  25.032   8.739  12.093
49230W        W10761  28.641  36.446   0.743
49231W        W10762   1.892   2.916   2.369
49232W        W10763   5.370  34.469  10.535
49233W        W10764  23.611  28.075   2.822
49234W        W10765  36.507  41.005  11.034
49235W        W10766   0.910   2.846   2.371
49236W        W10767  20.063   4.373  11.006
49237W        W10768  19.577  41.446   3.661
49238W        W10769  18.295   9.211  13.021
49239W        W10770   3.808  16.631  11.899
49240W        W10771   0.457  33.416  13.307
49241W        W10772   5.868   5.378   3.733
49242W        W10773   7.870  21.613  10.621
49243W        W10774  40.812  43.013   4.305
49244W        W10775  41.847  13.185   3.661
49245W        W10776  18.070  13.735  10.888
49246W        W10777  22.585  36.385  12.016
49247W        W10778  28.018  28.004   2.309
49248W        W10779  32.586  27.599   0.455
49249W        W10780  39.468  15.669  10.503
49250W        W10781  10.694  44.924   5.089
49251W        W10782  21.514  11.649   4.262
49252W        W10783  44.280  42.325  13.394
49253W        W10784  26.630   3.375   0.920
49254W        W10785  28.451   6.362   3.654
49255W        W10786  10.238  41.926  10.930
49256W        W10787  34.519   8.688   4.735
49257W        W10788   1.845   8.271   2.675
49258W        W10789   6.338   2.906  13.973
49259W        W10790   4.400   5.211  11.428
49260W        W10791  30.576  31.990  11.468
49261W        W10792  37.386  34.943   4.822
49262W        W10793   0.276  16.294   0.369
49263W        W10794  40.497  32.921   4.803
49264W        W10795  41.403   7.743   2.413
49265W        W10796  35.528  21.058  11.376
49266W        W10797  11.157  43.484   1.854
49267W        W10798  12.208   1.455   4.819
49268W        W10799  24.651   2.385   4.350
49269W        W10800   6.732  31.517   1.868
49270W        W10801  16.812  14.795   2.345
49271W        W10802  33.427  34.519   3.370
49272W        W10803  13.235  27.097  12.086
49273W        W10804   6.292  44.779   2.363
49274W        W10805  25.639   5.321  11.968
49275W        W10806  19.104  33.575  13.953
49276W        W10807  20.692  33.445  14.395
49277W        W10808  41.899   7.220   4.296
49278W        W10809  26.183  37.551  11.866
49279W        W10810   4.304  40.373   3.283
49280W        W10811   9.249  26.103  14.957
49281W        W10812  11.130  43.381   2.806
49282W        W10813  37.972  33.900   0.740
49283W        W10814  24.606  16.711  11.399
49284W        W10815  14.611  19.043  12.090
49285W        W10816  21.574  25.566   2.890
49286W        W10817  32.417  26.506  14.936
49287W        W10818  42.976  28.575   1.788
49288W        W10819  15.584  38.405  14.855
49289W        W10820  30.983   2.760   1.401
49290W        W10821  26.578  32.120  13.963
49291W        W10822  15.087  19.052   3.190
49292W        W10823  17.599  30.648  14.444
49293W        W10824  30.424  26.196   1.734
49294W        W10825  44.854  40.972  12.860
49295W        W10826  28.103  24.658  10.930
49296W        W10827  27.048  25.990  12.472
49297W        W10828  26.498  33.004  12.432
49298W        W10829  19.644   4.771  11.993
49299W        W10830  32.418   5.334   4.709
49300W        W10831  25.045  21.637  14.895
49301W        W10832  34.378  39.448  10.916
49302W        W10833   3.438   8.197   1.784
49303W        W10834  17.161  35.503   1.327
49304W        W10835  29.016  39.540  13.364
49305W        W10836  13.788  41.835  12.891
49306W        W10837  34.907  34.089   1.857
49307W        W10838   2.937  36.590  13.325
49308W        W10839  35.075   9.308   1.244
49309W        W10840  12.214  10.640   3.777
49310W        W10841  31.970  23.028  13.325
49311W        W10842  31.583   9.335  14.011
49312W        W10843   7.399  44.495   3.639
49313W        W10844  16.690   1.971  11.031
49314W        W10845   3.883  12.302  13.457
49315W        W10846  40.362  24.059  13.495
49316W        W10847  34.870  11.685   1.352
49317W        W10848  39.879   5.198  11.885
49318W        W10849  11.366  38.411  11.948
49319W        W10850  18.760   9.237   1.284
49320W        W10851  21.672  25.616  10.976
49321W        W10852  20.089   6.184  10.965
49322W        W10853  11.191  19.601  14.975
49323W        W10854  44.896  17.304  13.465
49324W        W10855  40.920  32.928  13.326
49325W        W10856  40.423  28.031   2.229
49326W        W10857   6.261  37.430  10.024
49327W        W10858  33.878  29.602   3.369
49328W        W10859  39.326  17.627   4.706
49329W        W10860  29.650  38.973   4.297
49330W        W10861  11.174  34.958   3.193
49331W        W10862  33.413  38.905  12.483
49332W        W10863  16.292  31.555   2.254
49333W        W10864  43.378   9.159  11.398
49334W        W10865  38.972  39.423   4.152
49335W        W10866   9.849  30.977   1.396
49336W        W10867  24.184  35.492   4.247
49337W        W10868  28.031  21.585   3.640
49338W        W10869  34.866  26.144  10.618
49339W        W10870  40.338  13.114   5.222
49340W        W10871  41.044  15.164   0.904
49341W        W10872  40.451  10.217  14.929
49342W        W10873  30.620  43.866   4.179
49343W        W10874  23.689  23.014   4.311
49344W        W10875  33.901  34.611   0.835
49345W        W10876   2.360  22.518   0.924
49346W        W10877   0.436  24.612   3.833
49347W        W10878  21.259   1.790  12.462
49348W        W10879  17.244  11.738  11.861
49349W        W10880  21.739  34.530  11.447
49350W        W10881   2.401  21.521  10.515
49351W        W10882  38.405  17.694  13.927
49352W        W10883  12.740  16.286   2.730
49353W        W10884  30.036   2.736  14.872
49354W        W10885  13.328  20.732   3.838
49355W        W10886  37.858  38.521   1.763
49356W        W10887   4.431  37.363   4.618
49357W        W10888  24.619   9.721   1.434
49358W        W10889  30.010  11.174   2.877
49359W        W10890  27.055  34.886   2.317
49360W        W10891  29.145  14.235  10.957
49361W        W10892   5.721  23.677   3.796
49362W        W10893  31.989  38.383   3.839
49363W        W10894  16.235  29.164   0.817
49364W        W10895   9.260  25.050   1.844
49365W        W10896  13.828   8.222  10.486
49366W        W10897  17.072  44.462  11.906
49367W        W10898  43.372  43.816   1.432
49368W        W10899   4.436  22.516  12.569
49369W        W10900  22.251  14.207  13.941
49370W        W10901  29.144  40.457   2.776
49371W        W10902  20.550  10.372   4.755
49372W        W10903  24.106  11.830  11.029
49373W        W10904  13.754  19.141  13.945
49374W        W10905  26.560  11.821  13.948
49375W        W10906  19.725   9.842  10.965
49376W        W10907  39.408  20.201   2.406
49377W        W10908  44.488  41.429   2.686
49378W        W10909  43.288  27.572   0.436
49379W        W10910   1.270  15.738   2.239
49380W        W10911  25.630  27.558  13.329
49381W        W10912  29.652  31.086   2.820
49382W        W10913  35.969   8.366   4.711
49383W        W10914  40.044  32.971   4.772
49384W        W10915  21.748  43.341  11.960
49385W        W10916  14.710   0.275   3.735
49386W        W10917  21.667  36.987  14.792
49387W        W10918  44.441   4.359   3.816
49388W        W10919  34.427  21.618   3.268
49389W        W10920   4.408  23.620  13.009
49390W        W10921  42.896  14.197   1.416
49391W        W10922  11.683  18.570   0.860
49392W        W10923   1.331  13.207   2.864
49393W        W10924   8.744  20.757  12.866
49394W        W10925   0.774   4.735  12.038
49395W        W10926  36.412  39.503  13.808
49396W        W10927  38.941   8.254   0.448
49397W        W10928  26.676  20.560  13.369
49398W        W10929  28.452   6.720   4.653
49399W        W10930  42.926  39.005   1.866
49400W        W10931  19.713  38.497   9.654
49401W        W10932  36.030  16.756  10.034
49402W        W10933  33.976  42.898   0.319
49403W        W10934  23.675  42.020  11.944
49404W        W10935  15.156  40.809  12.509
49405W        W10936  42.497  27.644  13.458
49406W        W10937   6.193  19.625  13.402
49407W        W10938  33.082  10.737  11.467
49408W        W10939   0.776   2.950  10.913
49409W        W10940  30.432  18.056  10.615
49410W        W10941  23.590  28.679  11.901
49411W        W10942  36.999  16.783  12.876
49412W        W10943  26.537  33.552   1.332
49413W        W10944  32.617  13.698  14.811
49414W        W10945  33.126  10.345  12.354
49415W        W10946   7.820   6.406   5.209
49416W        W10947   2.400  36.036  13.811
49417W        W10948  44.412  16.620  12.538
49418W        W10949  12.766  38.904   2.247
49419W        W10950  34.924  34.904  11.942
49420W        W10951  42.323   2.947  12.384
49421W        W10952  35.484  43.492   1.380
49422W        W10953  12.768  18.699   4.278
49423W        W10954  28.640   2.339   1.866
49424W        W10955  15.232   6.917  12.519
49425W        W10956  22.727  24.493  14.370
49426W        W10957  17.621  24.023  10.158
49427W        W10958   0.973  30.950  12.540
49428W        W10959  43.482  16.653   2.727
49429W        W10960  44.011  39.908   2.237
49430W        W10961  15.278  10.699   4.115
49431W        W10962   3.229   0.871   2.189
49432W        W10963  42.822   5.399  14.369
49433W        W10964  21.707  40.382  13.389
49434W        W10965  35.502   1.352  14.822
49435W        W10966  34.037  25.212  14.919
49436W        W10967  28.982  42.424   1.857
49437W        W10968  35.931   0.866   4.608
49438W        W10969  36.418  23.197   2.771
49439W        W10970   4.788  24.111   1.786
49440W        W10971  32.119  19.561  10.978
49441W        W10972  25.612  10.799   4.344
49442W        W10973  19.143   0.280  14.906
49443W        W10974  24.549  43.792  11.510
49444W        W10975  38.859  18.670   2.365
49445W        W10976  27.081  22.646   2.316
49446W        W10977   1.371  43.939   4.298
49447W        W10978   4.793  36.844  13.994
49448W        W10979  31.104  15.228  13.807
49449W        W10980   7.303   8.782  13.425
49450W        W10981  26.519   3.946  14.304
49451W        W10982  21.739  32.565   1.373
49452W        W10983   6.744  11.141  12.417
49453W        W10984   8.303  17.732  12.922
49454W        W10985  12.269  15.278   2.253
49455W        W10986   9.801  22.736   2.306
49456W        W10987  30.604  33.980  13.332
49457W        W10988  44.334  35.009   5.275
49458W        W10989   0.858  27.056  12.476
49459W        W10990  37.561   7.837   3.819
49460W        W10991   0.886  42.473  14.277
49461W        W10992  20.165   6.381  14.996
49462W        W10993  34.386  18.671  11.397
49463W        W10994  15.705   9.327  11.480
49464W        W10995   1.782  35.383   0.747
49465W        W10996  19.627  15.630   1.332
49466W        W10997  31.092  22.070  12.398
49467W        W10998   2.779  15.805  11.423
49468W        W10999   6.196  15.280   3.748
49469W        W11000   2.234  42.993   3.281
49470W        W11001  11.699   4.826  11.098
49471W        W11002  10.179  40.513  13.793
49472W        W11003  28.072  44.803   2.787
49473W        W11004  20.182  23.705  11.970
49474W        W11005  18.783  17.265   3.757
49475W        W11006  32.024   5.849  12.919
49476W        W11007  23.504  16.254  10.981
49477W        W11008  40.878  23.538  14.397
49478W        W11009  19.194  17.794   3.291
49479W        W11010  27.177  16.213   2.274
49480W        W11011  29.555   3.739  13.326
49481W        W11012  43.767  35.940   1.320
49482W        W11013  37.848  35.983  14.469
49483W        W11014  21.757  20.175   4.272
49484W        W11015  26.525  30.449  11.960
49485W        W11016  16.267  44.452   3.320
49486W        W11017   7.338   3.805  11.992
49487W        W11018  24.531  18.698   2.776
49488W        W11019  42.806  22.239   9.921
49489W        W11020  36.916   3.816   4.744
49490W        W11021   9.846  43.441   0.809
49491W        W11022  35.975   1.744  12.343
49492W        W11023  35.900  39.991   3.296
49493W        W11024  37.377   3.910  13.996
49494W        W11025  19.570  44.306   4.213
49495W        W11026   4.400  41.494  10.465
49496W        W11027  11.130  15.736   1.426
49497W        W11028  11.244  40.858  14.013
49498W        W11029  15.757  22.616   0.415
49499W        W11030  28.954  12.342   0.776
49500W        W11031  25.071   7.272  13.346
49501W        W11032  10.294  15.139   1.718
49502W        W11033  26.603  23.700   4.234
49503W        W11034  32.933   8.205   3.701
49504W        W11035  41.950  41.893  14.026
49505W        W11036  42.820  26.002  14.408
49506W        W11037  17.625  21.121  10.152
49507W        W11038  38.885  35.427   4.341
49508W        W11039  26.495  23.144   0.934
49509W        W11040  17.220  36.964  10.571
49510W        W11041   5.391  13.768   1.312
49511W        W11042   8.702   2.955   1.438
49512W        W11043  41.906  42.970  11.053
49513W        W11044   1.948  44.484  14.318
49514W        W11045   3.424  42.944   4.166
49515W        W11046   4.447   3.748   0.963
49516W        W11047  42.423  24.544  12.092
49517W        W11048  21.561  22.508  12.516
49518W        W11049  33.927  35.051  13.806
49519W        W11050  38.355  36.025  12.984
49520W        W11051  14.106  15.150  14.767
49521W        W11052  36.417  15.760   0.893
49522W        W11053   1.954  44.260   5.237
49523W        W11054  40.940  39.416  11.468
49524W        W11055  11.155   9.272  12.546
49525W        W11056  13.341   4.434  12.850
49526W        W11057   4.700  15.096  10.531
49527W        W11058   1.848  32.131   2.287
49528W        W11059  26.200  25.989  10.544
49529W        W11060  27.644  13.706   2.664
49530W        W11061  14.794   2.865   4.179
49531W        W11062  33.467  22.669  10.410
49532W        W11063  42.005  12.661  13.315
49533W        W11064  18.705   0.483   4.612
49534W        W11065  19.198  38.878   9.513
49535W        W11066   3.297  40.539  11.588
49536W        W11067  13.154  40.414  12.577
49537W        W11068  44.448  30.467   2.804
49538W        W11069  25.470  41.809  10.907
49539W        W11070  29.109  41.339   1.416
49540W        W11071  37.579  20.577   4.345
49541W        W11072  28.562  12.231  10.031
49542W        W11073  35.041  36.048  11.904
49543W        W11074  23.164  16.773   1.335
49544W        W11075  19.146  23.107   2.335
49545W        W11076  16.611   4.746   2.271
49546W        W11077  39.503   8.871   4.204
49547W        W11078  32.446  34.076   2.371
49548W        W11079  35.970  30.098  11.494
49549W        W11080  17.645  13.690  12.904
49550W        W11081   1.953  19.539   4.643
49551W        W11082  37.021   8.827  11.946
49552W        W11083  26.104  10.813   2.742
49553W        W11084  13.333  22.052   3.218
49554W        W11085  20.694  36.538  12.014
49555W        W11086  39.933   6.711  14.400
49556W        W11087  24.094  39.889   2.251
49557W        W11088   1.969  36.540   0.401
49558W        W11089  20.236   1.970  12.870
49559W        W11090  25.975  32.575  13.410
49560W        W11091   5.274  28.163  13.053
49561W        W11092  10.721  15.715   2.814
49562W        W11093  22.687  41.295  12.341
49563W        W11094  42.976  44.796  11.485
49564W        W11095  26.653  21.067   1.758
49565W        W11096  19.756  24.654  12.551
49566W        W11097  19.634  30.430  12.076
49567W        W11098  35.972  29.994   1.828
49568W        W11099  22.621  18.650   4.634
49569W        W11100  12.820   9.149   0.796
49570W        W11101  21.563   2.461  10.926
49571W        W11102  44.821  26.671  11.459
49572W        W11103  34.055  24.656  13.355
49573W        W11104  13.664   3.442  12.423
49574W        W11105  11.658  33.891  14.967
49575W        W11106  31.071  19.710  12.080
49576W        W11107   0.939  43.901   0.957
49577W        W11108  31.144  26.092  12.510
49578W        W11109  25.176  17.663   4.675
49579W        W11110  12.219  31.614   1.747
49580W        W11111  39.963  21.663  14.973
49581W        W11112  17.616  40.915   1.852
49582W        W11113   3.393  29.580   2.715
49583W        W11114  30.126  13.117   1.733
49584W        W11115   1.873   0.485  12.964
49585W        W11116  33.489  28.573   0.306
49586W        W11117  37.076  20.599  14.772
49587W        W11118   2.244   5.871   0.937
49588W        W11119  36.076  23.542   4.615
49589W        W11120   9.282  22.080  13.866
49590W        W11121  28.667  38.840  10.978
49591W        W11122   5.872   2.256   3.852
49592W        W11123  12.740  40.883   1.889
49593W        W11124  24.155  35.854   1.327
49594W        W11125   4.786   4.327  12.996
49595W        W11126   9.223  17.158  12.902
49596W        W11127  44.960   0.374   1.396
49597W        W11128  11.627   1.924  12.991
49598W        W11129  35.519  41.982   4.826
49599W        W11130  34.491   3.877   4.813
49600W        W11131   8.243  30.019  11.575
49601W        W11132   9.371   3.325  13.033
49602W        W11133  44.378  38.561  14.908
49603W        W11134   8.181  30.631  13.375
49604W        W11135  21.143  23.607   2.692
49605W        W11136  40.386  19.689   2.880
49606W        W11137  32.497  30.568   2.361
49607W        W11138  18.245  10.184  14.887
49608W        W11139  41.439  21.634  13.377
49609W        W11140  44.779   3.332  12.002
49610W        W11141   5.918  16.746  10.455
49611W        W11142  24.036  39.332   1.933
49612W        W11143  14.299   3.390  13.811
49613W        W11144  20.204  35.007   4.645
49614W        W11145  34.371   9.871   2.195
49615W        W11146  20.253  40.377   0.340
49616W        W11147  17.114  33.887   0.341
49617W        W11148  35.401  26.141   0.328
49618W        W11149   8.234   1.957  12.922
49619W        W11150   6.222  20.684   2.249
49620W        W11151  32.483  11.858  10.448
49621W        W11152  31.580  38.015   0.410
49622W        W11153  11.236  21.677   1.272
49623W        W11154  14.325   9.339   0.877
49624W        W11155  19.619  30.113  10.484
49625W        W11156  41.425   3.898  10.635
49626W        W11157   7.865   0.483  14.370
49627W        W11158  17.728  11.780  12.480
49628W        W11159  44.857   9.658   4.322
49629W        W11160   5.389  39.360   0.762
49630W        W11161  33.011  21.214  13.955
49631W        W11162   4.316   1.318  10.522
49632W        W11163  25.672  32.089  14.471
49633W        W11164   6.275  40.876   4.173
49634W        W11165  30.097  16.159  11.535
49635W        W11166  19.232  40.487  12.010
49636W        W11167   5.926  17.128   0.441
49637W        W11168   7.831  25.966  12.986
49638W        W11169  10.346   4.334   0.741
49639W        W11170  37.535  22.999   1.410
49640W        W11171  40.539  17.709   1.210
49641W        W11172  24.515  12.263   1.865
49642W        W11173  29.568  19.778   2.217
49643W        W11174   0.357  17.592   1.900
49644W        W11175  14.673   7.188   4.161
49645W        W11176  30.153  14.596   3.650
49646W        W11177  35.555  41.309  14.831
49647W        W11178  41.505  11.657  11.936
49648W        W11179  28.955  39.545  13.991
49649W        W11180  11.172  10.699   1.251
49650W        W11181   9.234  22.040  12.448
49651W        W11182  19.197   0.974  13.363
49652W        W11183  19.051  23.710   0.392
49653W        W11184   9.184  34.955   3.830
49654W        W11185  30.143  37.443   1.782
49655W        W11186  31.514   8.893  12.956
49656W        W11187  15.109  32.995   0.287
49657W        W11188  11.184  40.966   0.842
49658W        W11189  30.642  31.905  14.344
49659W        W11190  32.046  12.689   3.818
49660W        W11191  39.853   3.875  13.032
49661W        W11192  23.632   1.270   0.858
49662W        W11193  22.040  32.504  10.502
49663W        W11194  35.044  44.912   3.845
49664W        W11195   1.813  13.644   2.791
49665W        W11196  40.484  30.546   3.295
49666W        W11197  34.105  30.951  11.018
49667W        W11198  27.187   4.267   0.965
49668W        W11199  29.567  28.981  14.369
49669W        W11200  39.372  43.893  13.840
49670W        W11201  28.435   3.800   2.849
49671W        W11202  40.312  31.430   4.240
49672W        W11203  43.289   5.384   0.843
49673W        W11204  16.164  31.141   2.193
49674W        W11205  43.829  41.510   4.836
49675W        W11206  38.950  31.127  12.393
49676W        W11207  11.716   6.347  12.997
49677W        W11208  25.677  34.960   0.775
49678W        W11209  39.370  35.898  11.951
49679W        W11210  36.910   9.332   0.471
49680W        W11211  28.058  11.362  14.841
49681W        W11212  32.475   3.726   1.265
49682W        W11213  28.987  33.893  11.489
49683W        W11214  15.193  29.484   0.884
49684W        W11215  12.779  15.651   1.786
49685W        W11216  28.550  36.853  12.347
49686W        W11217  37.580  28.581  12.914
49687W        W11218  39.014   5.839   2.797
49688W        W11219  26.146   9.806   1.278
49689W        W11220   0.455  38.985  10.942
49690W        W11221  21.026  39.953   1.443
49691W        W11222  37.903   5.220  10.978
49692W        W11223  28.506  40.802   2.184
49693W        W11224  35.962  36.555  13.357
49694W        W11225  28.951  18.607   2.879
49695W        W11226   9.323  39.389  13.850
49696W        W11227  40.404   3.223   4.176
49697W        W11228  13.650  11.241   3.284
49698W        W11229   2.351  22.239   0.846
49699W        W11230  35.012  26.610  11.451
49700W        W11231  36.926  17.082   1.376
49701W        W11232  39.867  35.942  12.470
49702W        W11233  34.879  19.053   0.449
49703W        W11234   5.693   6.197   0.257
49704W        W11235  42.831  33.383   4.164
49705W        W11236  42.321  42.296  10.526
49706W        W11237  20.079  10.690   3.847
49707W        W11238  25.597   9.778  14.814
49708W        W11239  14.722   8.813   2.885
49709W        W11240   1.885  13.260   4.312
49710W        W11241  11.358   0.484  10.899
49711W        W11242  41.488   5.813   3.659
49712W        W11243  37.525  30.028  14.369
49713W        W11244  21.552  19.634  10.434
49714W        W11245  21.203  33.592  10.945
49715W        W11246  19.561  25.555   2.349
49716W        W11247  22.697  39.862  11.381
49717W        W11248  43.341   3.906   2.356
49718W        W11249  14.140   7.815  12.070
49719W        W11250  34.542  38.398  13.476
49720W        W11251  14.184  36.582  13.327
49721W        W11252  24.526  19.242   4.212
49722W        W11253  34.004  16.218  11.378
49723W        W11254  29.924  40.438   2.785
49724W        W11255  26.028  13.134   3.152
49725W        W11256  37.390  44.919   3.257
49726W        W11257  11.809   1.920   3.330
49727W        W11258   3.791  18.253   0.433
49728W        W11259  19.650  44.473  12.974
49729W        W11260   6.716  43.870   1.851
49730W        W11261   4.727  44.821  11.069
49731W        W11262  11.276  43.801  13.986
49732W        W11263   7.741   9.700  12.375
49733W        W11264  32.435   3.438  13.548
49734W        W11265  23.020  37.502  13.985
49735W        W11266   1.975   5.886   0.926
49736W        W11267  17.757  26.490   3.376
49737W        W11268  26.042  29.486  14.975
49738W        W11269  32.458  19.043   4.786
49739W        W11270  19.177  19.665   0.268
49740W        W11271  24.217  14.638   3.710
49741W        W11272  23.176   1.873   0.433
49742W        W11273  10.152  33.380  13.450
49743W        W11274   7.674  28.160  12.501
49744W        W11275  10.375  44.806  10.410
49745W        W11276  15.738  34.055   2.691
49746W        W11277   7.324  43.381  13.991
49747W        W11278   7.200  41.408   4.184
49748W        W11279   1.949  41.477   2.191
49749W        W11280   7.280  14.606   4.257
49750W        W11281  32.391  38.980   4.641
49751W        W11282  40.914   8.885  11.914
49752W        W11283  13.247  20.132   2.270
49753W        W11284   7.291  17.754   0.419
49754W        W11285   6.737  33.064   1.319
49755W        W11286  25.538  29.492   0.278
49756W        W11287   1.356  11.639   0.431
49757W        W11288  24.219  14.182   0.758
49758W        W11289  25.207   0.351   3.805
49759W        W11290  26.016  13.726  11.585
49760W        W11291   4.703  11.676  13.044
49761W        W11292  31.916  37.502  10.123
49762W        W11293  29.918   4.349  12.085
49763W        W11294   3.918   8.820  10.153
49764W        W11295  25.478   4.228  11.448
49765W        W11296   4.258   7.855  13.353
49766W        W11297  41.939  37.411  10.161
49767W        W11298  43.291  20.753  11.871
49768W        W11299   7.286   2.890   2.353
49769W        W11300   8.361  10.318   0.423
49770W        W11301  14.268  16.574   0.806
49771W        W11302  37.399  20.713  10.070
49772W        W11303  10.253   0.310   0.834
49773W        W11304  18.574  34.987   2.889
49774W        W11305   7.867   5.420  13.399
49775W        W11306  25.013  21.606   0.900
49776W        W11307  19.610  29.475  13.965
49777W        W11308   0.395  10.712   4.308
49778W        W11309  20.673  16.600  13.908
49779W        W11310  33.040   2.914   2.747
49780W        W11311  42.847  13.805   4.283
49781W        W11312  11.846   4.742   2.362
49782W        W11313  20.199  18.232   1.266
49783W        W11314   7.876  28.493   0.276
49784W        W11315  35.468  16.781   1.856
49785W        W11316   8.292  40.975  14.824
49786W        W11317  22.249  44.269  13.940
49787W        W11318   7.211  21.130   0.380
49788W        W11319  19.200  14.685  13.814
49789W        W11320  26.041  22.061   4.630
49790W        W11321  17.101  42.776   1.755
49791W        W11322  32.447  29.522   4.236
49792W        W11323  43.364  37.917   3.726
49793W        W11324  25.616   4.246   2.879
49794W        W11325  21.539  33.997   4.660
49795W        W11326   1.350   2.916   0.404
49796W        W11327  35.476  42.020   1.908
49797W        W11328  44.977  29.026  11.929
49798W        W11329  26.544   2.368  13.536
49799W        W11330  15.107  37.500  12.866
49800W        W11331  39.544  21.073  14.463
49801W        W11332  19.167  15.196  12.078
49802W        W11333  21.596  32.138  10.408
49803W        W11334  34.017  17.103   1.416
49804W        W11335   7.250  20.599  13.017
49805W        W11336  14.661   9.331  12.045
49806W        W11337  29.060   1.927   4.266
49807W        W11338  39.508  38.957  14.937
49808W        W11339  44.943   4.897  13.347
49809W        W11340  34.071  19.095  11.461
49810W        W11341  31.419  37.407   4.230
49811W        W11342  17.793  31.143  10.972
49812W        W11343  19.552  13.691   1.886
49813W        W11344  43.314  17.681  12.073
49814W        W11345  42.409   2.734   3.250
49815W        W11346   0.982  18.755   2.824
49816W        W11347   4.287   7.768   0.329
49817W        W11348   8.237  21.750  10.507
49818W        W11349  14.824  17.710  13.881
49819W        W11350  41.484  30.147  12.519
49820W        W11351  26.004  10.262   0.822
49821W        W11352  20.034  10.281   1.330
49822W        W11353   5.831  11.829  11.101
49823W        W11354   9.772  40.979   0.924
49824W        W11355  20.757  34.475  11.460
49825W        W11356   0.785  44.349   2.749
49826W        W11357  30.651  42.878  14.492
49827W        W11358  32.598  33.050   2.746
49828W        W11359  17.658   4.318   4.806
49829W        W11360  17.621  44.977   2.764
49830W        W11361   4.327  19.596  13.448
49831W        W11362  26.687   5.437  11.505
49832W        W11363  11.272  13.718   2.821
49833W        W11364  32.431  14.129   3.218
49834W        W11365  20.748  38.443  14.478
49835W        W11366   3.795  39.407  13.445
49836W        W11367  31.630   9.185   2.775
49837W        W11368  31.906  12.740   0.453
49838W        W11369   9.342  36.570  11.423
49839W        W11370  38.955  32.899  11.480
49840W        W11371  21.145   1.273   1.297
49841W        W11372  39.872  11.669   3.192
49842W        W11373  33.027  31.053  11.011
49843W        W11374  11.688  36.946   0.265
49844W        W11375  30.925   3.401   3.695
49845W        W11376  29.643  26.659  12.441
49846W        W11377  38.991  23.149  11.409
49847W        W11378  13.310   8.833  13.930
49848W        W11379  33.063  13.173  12.414
49849W        W11380  39.331  34.034  14.940
49850W        W11381  28.634   2.334  13.509
49851W        W11382  42.780  11.291   1.358
49852W        W11383  26.582  28.588  12.830
49853W        W11384  30.071  34.976   3.800
49854W        W11385  44.817  20.215  12.088
49855W        W11386  28.183  22.527  12.440
49856W        W11387  29.470  42.845   3.287
49857W        W11388  32.549   7.668   0.822
49858W        W11389   3.869  24.220   1.388
49859W        W11390  37.394  22.208   1.867
49860W        W11391  29.120  33.940   1.869
49861W        W11392  24.715  16.621   0.328
49862W        W11393  24.121  15.649   3.227
49863W        W11394   4.781  23.600  10.123
49864W        W11395   7.745  31.975   2.737
49865W        W11396  15.664  16.298  14.864
49866W        W11397  35.508  32.433   0.456
49867W        W11398   8.274  12.256  13.363
49868W        W11399  17.556  41.845  12.053
49869W        W11400   8.382  28.096   0.471
49870W        W11401  24.084  42.886   4.170
49871W        W11402  19.285  35.376  12.041
49872W        W11403  35.977  29.529  13.430
49873W        W11404  13.121   8.765   4.182
49874W        W11405  37.454  23.166   0.364
49875W        W11406  13.656  17.734   3.736
49876W        W11407   5.216  41.442   2.687
49877W        W11408  21.164  17.152   2.875
49878W        W11409  15.227  27.690   2.681
49879W        W11410  21.159  12.671  13.518
49880W        W11411  24.653  21.694  12.446
49881W        W11412   3.324  17.628   0.810
49882W        W11413  25.668  25.023   2.874
49883W        W11414   1.336  33.071  11.558
49884W        W11415   4.320  17.279  12.434
49885W        W11416   5.223  11.149   1.436
49886W        W11417   4.391  22.690  12.945
49887W        W11418  35.888  12.212   4.644
49888W        W11419  40.990  20.056  10.943
49889W        W11420  22.165  34.961   4.330
49890W        W11421   8.184  29.504  13.941
49891W        W11422   2.869  31.072  13.935
49892W        W11423  15.242   5.323  12.911
49893W        W11424  17.123  13.271  10.641
49894W        W11425  33.902   4.853  13.364
49895W        W11426  12.842  39.895   4.151
49896W        W11427   2.942  17.721  12.003
49897W        W11428  39.339  21.207   3.794
49898W        W11429  38.985  22.637   5.299
49899W        W11430  24.631  31.487   2.840
49900W        W11431  44.358  10.262   1.303
49901W        W11432  18.250   5.364   1.863
49902W        W11433  30.129   0.931   3.714
49903W        W11434   2.250   1.897   3.209
49904W        W11435  20.127  27.122  13.393
49905W        W11436  21.092  13.309   3.243
49906W        W11437  34.067   0.851  13.797
49907W        W11438  16.079  27.605  11.377
49908W        W11439   4.714  43.388   3.374
49909W        W11440   5.364   8.213   1.357
49910W        W11441  38.880  13.216   1.442
49911W        W11442  30.555   9.662   2.724
49912W        W11443  20.201  42.808   0.780
49913W        W11444   8.804  26.579  10.906
49914W        W11445  41.523  31.968  12.059
49915W        W11446  34.866  36.008   0.275
49916W        W11447  26.978  11.268   0.301
49917W        W11448  26.042   9.777  14.397
49918W        W11449  43.905  37.016  11.005
49919W        W11450  24.655  37.027   9.448
49920W        W11451  35.902  36.894  13.972
49921W        W11452  30.506   5.404   3.670
49922W        W11453  33.120  14.251  10.439
49923W        W11454  44.972  30.595  14.983
49924W        W11455  23.000   3.952  12.077
49925W        W11456  11.774  24.199  14.774
49926W        W11457  26.520   8.358   3.235
49927W        W11458  33.012  21.724   0.793
49928W        W11459   3.459   1.366  11.522
49929W        W11460  12.665   7.293   0.876
49930W        W11461  33.982  36.389  13.806
49931W        W11462  41.848   4.352   2.299
49932W        W11463  20.183  23.118   4.622
49933W        W11464  31.136  38.411  13.028
49934W        W11465  22.638  16.657  11.072
49935W        W11466  32.030  35.968  10.904
49936W        W11467  12.329  14.250  13.982
49937W        W11468  40.461  24.502  12.908
49938W        W11469  12.343  33.972  12.384
49939W        W11470  38.392   0.923  12.923
49940W        W11471  32.102  43.471   4.633
49941W        W11472  33.497   1.925  11.421
49942W        W11473  12.318  26.142  11.055
49943W        W11474  21.132  22.246   3.193
49944W        W11475  32.501  19.732   1.698
49945W        W11476  28.935  15.212   3.751
49946W        W11477  42.834  17.759   3.763
49947W        W11478  24.546  14.782   3.690
49948W        W11479   3.216   6.247  11.024
49949W        W11480   2.773  19.070  10.982
49950W        W11481  44.324  13.809  12.371
49951W        W11482  35.005  31.453  13.477
49952W        W11483  35.891  42.990   0.447
49953W        W11484  15.765  40.488  10.563
49954W        W11485  20.694   9.353   0.425
49955W        W11486  40.391  18.231  10.451
49956W        W11487  23.077  41.870   2.864
49957W        W11488  17.095   6.390   5.226
49958W        W11489  23.087   5.331   2.821
49959W        W11490  17.153   0.938  11.607
49960W        W11491   6.895  17.130  14.324
49961W        W11492  20.270   5.889  11.533
49962W        W11493  44.499   0.472  10.980
49963W        W11494  26.115   6.236   1.856
49964W        W11495  13.112  36.905   3.240
49965W        W11496  23.699   6.685  14.845
49966W        W11497  44.875  36.016   4.128
49967W        W11498  20.220  23.187  13.336
49968W        W11499  14.217  13.194  14.956
49969W        W11500  36.034  22.548   0.953
49970W        W11501   6.676  31.906  11.003
49971W        W11502  42.352  15.289   1.911
49972W        W11503  25.700  32.996   5.318
49973W        W11504  28.055  35.970   2.284
49974W        W11505  26.097  32.901   1.796
49975W        W11506  15.240   5.739  11.114
49976W        W11507  19.583  32.947   4.833
49977W        W11508  13.117  37.911  12.971
49978W        W11509   8.204  22.136  14.390
49979W        W11510  27.134  35.855   2.717
49980W        W11511   7.183  22.714   3.342
49981W        W11512  40.877  36.432  12.916
49982W        W11513  18.577  22.148   3.331
49983W        W11514   1.328  25.098   1.887
49984W        W11515  16.237  32.460   1.338
49985W        W11516  33.895  18.584  12.858
49986W        W11517  24.085  44.960   0.300
49987W        W11518   0.784  41.469  12.578
49988W        W11519  14.596  32.012  11.094
49989W        W11520   9.710   8.217  14.941
49990W        W11521  12.191  27.577   0.426
49991W        W11522  13.822   7.823  10.934
49992W        W11523  20.634  10.866   0.805
49993W        W11524  11.715  34.574   2.178
49994W        W11525   3.293  36.500   1.240
49995W        W11526  13.832   0.339  10.460
49996W        W11527  15.634  32.104  11.511
49997W        W11528   2.448  19.585   4.794
49998W        W11529  31.518  11.723  10.532
49999W        W11530  14.284  12.618  14.798
50000W        W11531  28.082  41.379  13.475
50001W        W11532  39.057   4.892   1.714
50002W        W11533  17.239  12.725  14.410
50003W        W11534  19.092  32.625   4.279
50004W        W11535  20.686  16.710  14.777
50005W        W11536  19.130  19.640   3.287
50006W        W11537  40.430  27.626   1.436
50007W        W11538  40.801  34.405  12.842
50008W        W11539  27.481  35.577   0.412
50009W        W11540  27.037  27.453   2.401
50010W        W11541  16.234  37.569  11.481
50011W        W11542   5.872  12.149  10.425
50012W        W11543   5.194  15.103  10.905
50013W        W11544  38.915  25.962   4.118
50014W        W11545  31.462  16.301  11.910
50015W        W11546   5.275  43.380  12.479
50016W        W11547  30.914  14.720  11.471
50017W        W11548   4.283  39.488  13.963
50018W        W11549   7.694   7.258   1.215
50019W        W11550   4.864   2.787   4.285
50020W        W11551  13.685   0.971  11.863
50021W        W11552  34.890  40.414   1.841
50022W        W11553  21.146  17.253   0.780
50023W        W11554  19.574  43.931  12.546
50024W        W11555   4.449  32.066  14.474
50025W        W11556  37.992  13.203   2.714
50026W        W11557  34.073   3.279   1.449
50027W        W11558  44.869   9.266  13.403
50028W        W11559   5.736   0.390  14.497
50029W        W11560  38.433  24.146  10.630
50030W        W11561  37.061  36.897   5.208
50031W        W11562  19.186  41.980   1.352
50032W        W11563  33.902  14.649   4.247
50033W        W11564  41.420  19.215  13.491
50034W        W11565  17.107   4.330  11.025
50035W        W11566   2.856  35.946   2.851
50036W        W11567  33.391  35.556  11.605
50037W        W11568  43.975   6.720   0.474
50038W        W11569  10.194  24.724  10.433
50039W        W11570   0.808   9.671  13.407
50040W        W11571  17.213   9.670  14.330
50041W        W11572   4.307  42.420   1.856
50042W        W11573   8.384  13.632   0.406
50043W        W11574  35.389  10.681   4.129
50044W        W11575  17.259  39.528   0.302
50045W        W11576   6.699  36.590   1.425
50046W        W11577  32.584  28.455  11.022
50047W        W11578  12.644  38.005   2.320
50048W        W11579  43.939   8.697   1.777
50049W        W11580  25.091  33.539  13.485
50050W        W11581  21.209   9.788  12.008
50051W        W11582  38.037  10.833  14.357
50052W        W11583  37.976  28.016  12.956
50053W        W11584  18.769   1.949   4.135
50054W        W11585  30.018  40.889   3.157
50055W        W11586  16.615   2.724   1.213
50056W        W11587  32.960  32.434   4.767
50057W        W11588  40.318  17.675  12.466
50058W        W11589  36.857  23.639   1.802
50059W        W11590  32.080   5.281   1.351
50060W        W11591  12.732  33.039   1.863
50061W        W11592  11.315  42.878   4.326
50062W        W11593  42.002  42.921  12.358
50063W        W11594  14.767   3.893  14.839
50064W        W11595   0.920  24.012  14.322
50065W        W11596   7.746  28.957  14.847
50066W        W11597  42.879  35.476   3.342
50067W        W11598   8.243  39.043  10.446
50068W        W11599   8.782   4.371   3.330
50069W        W11600  14.780  16.231  13.529
50070W        W11601   2.379  44.807  11.068
50071W        W11602   3.355  25.530  12.847
50072W        W11603   1.904  31.557   3.766
50073W        W11604  25.576   1.400   1.892
50074W        W11605  15.656   1.929  12.878
50075W        W11606  22.220  33.952  10.457
50076W        W11607   1.819   6.311  13.798
50077W        W11608  30.961  29.142   3.154
50078W        W11609  27.103  17.105   1.387
50079W        W11610   4.215  43.472   3.174
50080W        W11611  40.368  26.120   2.794
50081W        W11612  38.888  44.377  14.393
50082W        W11613  18.766   2.422  12.843
50083W        W11614  44.841  44.468  14.789
50084W        W11615  36.968  29.604  12.951
50085W        W11616  41.337   1.384   4.673
50086W        W11617  18.608   6.213  10.636
50087W        W11618   0.947   5.336  11.048
50088W        W11619  25.195  40.004  14.762
50089W        W11620  32.031  17.292  11.901
50090W        W11621   0.400   9.823  14.413
50091W        W11622  43.394  30.437  13.035
50092W        W11623  10.381   7.281   3.194
50093W        W11624  42.497  18.132   4.823
50094W        W11625  41.518  28.098   4.262
50095W        W11626  20.208  26.536  12.461
50096W        W11627  26.107  10.799   3.687
50097W        W11628  20.676  12.748  10.564
50098W        W11629  27.455   1.360   4.264
50099W        W11630   4.882   2.730   4.824
50100W        W11631   4.288  26.081   1.892
50101W        W11632  35.536  17.110  13.024
50102W        W11633  20.659  40.905   2.350
50103W        W11634   4.241  29.156   1.780
50104W        W11635   7.738  20.168  13.951
50105W        W11636  30.937   0.311   3.750
50106W        W11637  13.219  20.753  12.378
50107W        W11638   1.895  20.690   4.185
50108W        W11639  21.110  10.726  11.529
50109W        W11640   1.373  39.511   4.159
50110W        W11641  19.621  16.660  13.886
50111W        W11642  21.049  42.387   2.200
50112W        W11643  17.731  20.551   1.419
50113W        W11644  39.863   3.327  14.974
50114W        W11645  18.175  36.072  14.832
50115W        W11646  12.623  29.457   1.819
50116W        W11647   4.264  42.859  12.497
50117W        W11648  26.614  30.971  12.556
50118W        W11649  34.908  19.161   2.258
50119W        W11650  16.800  14.222   0.798
50120W        W11651  43.291  39.486   2.297
50121W        W11652   9.279  12.668   4.670
50122W        W11653  14.286  44.830   1.269
50123W        W11654   7.675  16.700  13.821
50124W        W11655  34.470  23.005   2.197
50125W        W11656   1.882  43.363  11.896
50126W        W11657   2.294   5.377  14.335
50127W        W11658  13.740   6.739   0.289
50128W        W11659  16.652  22.206  11.999
50129W        W11660  35.027  32.606   1.364
50130W        W11661  29.957   3.325   0.312
50131W        W11662  20.135   4.921  12.399
50132W        W11663  29.936  36.848   4.716
50133W        W11664  12.822  38.459  11.026
50134W        W11665  38.822  38.329   2.219
50135W        W11666   8.896   1.265  14.786
50136W        W11667  13.782  43.507  12.891
50137W        W11668  21.209  19.690  13.877
50138W        W11669  12.354   1.259  13.892
50139W        W11670   9.760  26.701   2.768
50140W        W11671   3.360  15.259   0.964
50141W        W11672  33.943  28.029  10.136
50142W        W11673  28.520  43.980   4.772
50143W        W11674   9.329  18.149   2.730
50144W        W11675  18.719  18.064  10.111
50145W        W11676  27.117  12.147  13.924
50146W        W11677  31.023  30.444  14.352
50147W        W11678  39.016  16.684   4.165
50148W        W11679  20.761   2.415   3.219
50149W        W11680  36.353  42.867  14.290
50150W        W11681  37.518  35.434  12.961
50151W        W11682  24.981   7.748  11.125
50152W        W11683   0.946  25.969   4.184
50153W        W11684  40.452  42.448   0.469
50154W        W11685   2.747   7.669  12.027
50155W        W11686  32.930  16.159   1.756
50156W        W11687   7.372  17.301  12.926
50157W        W11688  36.593   8.746  14.487
50158W        W11689  32.103  35.545   3.658
50159W        W11690   4.726  23.103  12.966
50160W        W11691  24.046  41.976   3.666
50161W        W11692  26.672  23.633   4.780
50162W        W11693   3.894  21.072   4.635
50163W        W11694   7.325  32.081   1.824
50164W        W11695  44.865  10.258  11.939
50165W        W11696  25.049  15.696  13.404
50166W        W11697  10.779  13.633   2.328
50167W        W11698  40.883  15.323  12.876
50168W        W11699  44.342  18.766  13.345
50169W        W11700  13.737  20.525   0.245
50170W        W11701  22.195  10.267   1.232
50171W        W11702   7.761  11.292  13.495
50172W        W11703   8.374  35.855   2.381
50173W        W11704  13.267   1.753  14.028
50174W        W11705  15.604  11.715   1.331
50175W        W11706  23.016  30.951  11.472
50176W        W11707  28.113  15.155  12.360
50177W        W11708   9.369  42.943  10.157
50178W        W11709  16.094  35.936  14.342
50179W        W11710  27.154  20.270   4.253
50180W        W11711   4.295   3.732  11.106
50181W        W11712  13.837  11.150   3.660
50182W        W11713  23.153   0.332   3.276
50183W        W11714   6.280  36.379   0.806
50184W        W11715  44.430  39.895   0.801
50185W        W11716  18.286  42.422   1.746
50186W        W11717  40.879  12.769   0.243
50187W        W11718   7.738  39.336   3.662
50188W        W11719   1.902   1.395  13.823
50189W        W11720  26.025  33.074  10.918
50190W        W11721  23.628  22.079   0.372
50191W        W11722  18.565  36.435  13.916
50192W        W11723   9.394  16.285  13.520
50193W        W11724  42.997   0.805   4.132
50194W        W11725  18.576  32.908   2.807
50195W        W11726  34.604  22.070   1.902
50196W        W11727  40.972  20.226  10.466
50197W        W11728  31.963  16.688  13.526
50198W        W11729  14.181  26.664   4.244
50199W        W11730  22.655  36.514   4.306
50200W        W11731  20.721  11.132  13.359
50201W        W11732  39.838   2.730   1.771
50202W        W11733  28.167  15.717   2.233
50203W        W11734  31.036  22.666  12.383
50204W        W11735  38.403  10.793  13.891
50205W        W11736  11.743  26.621   2.195
50206W        W11737   7.178  18.143  14.787
50207W        W11738   3.917  26.521  12.481
50208W        W11739  13.314  23.147  14.815
50209W        W11740  25.632  24.595  10.466
50210W        W11741  21.692  41.881   3.182
50211W        W11742   7.187  12.713  12.343
50212W        W11743  25.106   4.373  13.422
50213W        W11744  11.783   7.325   1.891
50214W        W11745  42.472  18.209  11.911
50215W        W11746  34.878  30.924   2.326
50216W        W11747  42.469  31.075   4.710
50217W        W11748  18.761  35.442  11.437
50218W        W11749   8.710  21.651   1.796
50219W        W11750   0.374  19.726   2.818
50220W        W11751  25.193  11.868  14.912
50221W        W11752  19.542  16.717   2.333
50222W        W11753  42.820  33.605  12.508
50223W        W11754  33.437  43.376  14.422
50224W        W11755  20.177   4.208   4.602
50225W        W11756   1.327  32.543  12.876
50226W        W11757   0.336  43.515   4.262
50227W        W11758  35.374  16.136   3.281
50228W        W11759  31.402  33.398  10.985
50229W        W11760  18.755  39.407   1.745
50230W        W11761  12.190   4.812  14.299
50231W        W11762  40.995  11.758  12.999
50232W        W11763  21.626  40.545  11.538
50233W        W11764  11.670  31.479   0.842
50234W        W11765  19.663  19.073   0.762
50235W        W11766  10.849  20.567  14.486
50236W        W11767  10.727  15.175   3.362
50237W        W11768  15.133  19.570   4.640
50238W        W11769  32.946  39.851   0.770
50239W        W11770  39.341  44.832  12.893
50240W        W11771  24.550  37.986   4.819
50241W        W11772  12.704  20.659  10.601
50242W        W11773   9.294  24.037  14.834
50243W        W11774  29.544  35.069  13.976
50244W        W11775  21.250  15.089  12.060
50245W        W11776  20.029  14.614  13.884
50246W        W11777  15.631  22.698  12.572
50247W        W11778  22.509  26.514  12.384
50248W        W11779  19.537  25.658  13.377
50249W        W11780  12.317  27.190  14.330
50250W        W11781  44.876  16.599  12.402
50251W        W11782  31.457  19.201  13.898
50252W        W11783  24.586  29.920  10.981
50253W        W11784  14.648   2.841  12.839
50254W        W11785  36.567  36.536   4.262
50255W        W11786  18.732   6.812   4.233
50256W        W11787   4.840  16.677   1.416
50257W        W11788  41.898  22.999   2.678
50258W        W11789  41.415  25.166   2.820
50259W        W11790  28.484   5.346  14.396
50260W        W11791  42.811  24.119   1.807
50261W        W11792  43.482  27.672   1.380
50262W        W11793  29.987  39.396   4.675
50263W        W11794  18.237  41.888   1.749
50264W        W11795  15.764  23.104  13.002
50265W        W11796  20.762  43.443  11.957
50266W        W11797   0.973  25.597  11.484
50267W        W11798  29.092  14.284  13.519
50268W        W11799  34.409  32.978   3.808
50269W        W11800  37.369   4.771  10.892
50270W        W11801  31.908  29.528   2.681
50271W        W11802  35.442  17.796   3.787
50272W        W11803  31.954   5.337  13.995
50273W        W11804  24.048  16.084   3.359
50274W        W11805  19.050  19.128   1.722
50275W        W11806  19.547   0.461  13.864
50276W        W11807  12.235  21.726   0.327
50277W        W11808  44.440  36.041   0.733
50278W        W11809   4.830   9.806   3.347
50279W        W11810  26.138   3.829   3.787
50280W        W11811  22.744  25.638   0.288
50281W        W11812  42.437  41.900  12.491
50282W        W11813  22.100  44.466  14.915
50283W        W11814  35.441   8.200   0.293
50284W        W11815   8.330   5.861   0.736
50285W        W11816   8.240  44.927  13.989
50286W        W11817  42.784  11.754  11.450
50287W        W11818   3.877  27.083   3.272
50288W        W11819  44.773   4.205  12.957
50289W        W11820  24.493  15.196  12.386
50290W        W11821  30.020  34.905  11.432
50291W        W11822  14.206  36.888  14.931
50292W        W11823  28.592  19.705  13.414
50293W        W11824  23.614  17.744   1.695
50294W        W11825   9.697  32.481   5.303
50295W        W11826  13.348  33.088   2.409
50296W        W11827  24.145  37.578   2.390
50297W        W11828  30.506  24.986  13.970
50298W        W11829  41.824  25.089   3.744
50299W        W11830   4.309  21.069  10.417
50300W        W11831  17.568  26.998   1.412
50301W        W11832  30.575  38.996   1.272
50302W        W11833  38.397  30.136  10.926
50303W        W11834  16.574  20.594   2.866
50304W        W11835  21.525  41.427   0.416
50305W        W11836  15.115  38.539  13.332
50306W        W11837  30.087  27.073   0.401
50307W        W11838  40.822  43.832   1.708
50308W        W11839   4.785   6.862   0.439
50309W        W11840  19.217  32.983  14.793
50310W        W11841  37.068  21.090   4.353
50311W        W11842  22.590  27.628   1.722
50312W        W11843  40.052  23.713  13.985
50313W        W11844  37.029  41.918   0.851
50314W        W11845  32.072  15.239   4.177
50315W        W11846   3.948   0.814  14.860
50316W        W11847  17.165  40.888  13.481
50317W        W11848  16.611  37.552   2.839
50318W        W11849  28.649  34.916  12.927
50319W        W11850  32.944  42.382   3.795
50320W        W11851  16.803   9.873  10.501
50321W        W11852  11.350  25.058  14.027
50322W        W11853  36.007  27.692  13.975
50323W        W11854  40.983  20.560   4.225
50324W        W11855  20.622   9.288  10.948
50325W        W11856  39.547  19.552   3.333
50326W        W11857  18.099  36.877   1.221
50327W        W11858   9.773  10.146  12.016
50328W        W11859  27.594   1.303  14.494
50329W        W11860   9.299  38.075   2.328
50330W        W11861  22.050  26.204  12.517
50331W        W11862  38.408  18.254   3.855
50332W        W11863  11.686  42.290   3.750
50333W        W11864  33.980   5.788  10.412
50334W        W11865   1.888  41.951   4.819
50335W        W11866  15.121  43.284   0.341
50336W        W11867  16.311  37.855  14.460
50337W        W11868  22.584  21.145   1.242
50338W        W11869  31.094  38.927  11.887
50339W        W11870   6.741   2.356   2.401
50340W        W11871  29.431   8.721   0.771
50341W        W11872  26.667   0.273   0.917
50342W        W11873  44.827  35.008   3.312
50343W        W11874  14.775  25.533  11.919
50344W        W11875  31.900   0.799   2.703
50345W        W11876  34.023  29.570  10.408
50346W        W11877   4.251  14.261  14.445
50347W        W11878  23.138  31.138  14.988
50348W        W11879  37.878   4.822  14.503
50349W        W11880  20.129  22.201  11.076
50350W        W11881   1.264   8.175   4.625
50351W        W11882   4.888  22.683   3.669
50352W        W11883  37.076  31.960  14.315
50353W        W11884  24.622   8.164  14.499
50354W        W11885  16.756  33.384   2.856
50355W        W11886  23.240   4.356   4.744
50356W        W11887  15.759   0.382  11.017
50357W        W11888  22.233  30.938   4.609
50358W        W11889  34.533  30.590  13.811
50359W        W11890  26.163  18.761  13.485
50360W        W11891  38.336  16.093   1.842
50361W        W11892  20.689  30.432   0.443
50362W        W11893  32.057  30.430   2.819
50363W        W11894  39.411  30.561  13.929
50364W        W11895  36.557  10.255   3.740
50365W        W11896  19.046  44.467   2.409
50366W        W11897  11.748   1.338   3.823
50367W        W11898  44.497   6.840  12.563
50368W        W11899  19.730   3.948   3.842
50369W        W11900  11.638  18.686   1.213
50370W        W11901  15.750  31.906  14.906
50371W        W11902  19.673   1.777  14.360
50372W        W11903  39.527  19.565  14.468
50373W        W11904  34.887  22.203  12.565
50374W        W11905  23.681  28.962   0.267
50375W        W11906   2.913   8.397  14.308
50376W        W11907  25.691  30.919  12.052
50377W        W11908  14.264  15.690   4.652
50378W        W11909  35.391  31.474  14.468
50379W        W11910  14.139  34.436   0.964
50380W        W11911  39.417  40.369  14.506
50381W        W11912  32.519   9.269   4.766
50382W        W11913  26.012   2.470  11.879
50383W        W11914   1.818  24.038   0.370
50384W        W11915  21.535  39.829   4.138
50385W        W11916  36.541  32.046   2.323
50386W        W11917  32.992  33.049   2.747
50387W        W11918  31.972  41.336   2.794
50388W        W11919  44.861  11.152  12.013
50389W        W11920  16.762  44.942  12.576
50390W        W11921  20.161   6.245  11.980
50391W        W11922  41.822  20.679  11.871
50392W        W11923   7.171  31.099  10.911
50393W        W11924  44.455  38.855  13.801
50394W        W11925  19.628  40.990   2.783
50395W        W11926  11.321  20.640   0.403
50396W        W11927  41.392  13.297  11.904
50397W        W11928  11.675  25.199   3.632
50398W        W11929  40.837  41.348  12.369
50399W        W11930  26.982  18.707   2.387
50400W        W11931  22.573  18.196  12.887
50401W        W11932  13.675  36.986  12.091
50402W        W11933  17.773  39.988   2.298
50403W        W11934   5.312  24.102  13.424
50404W        W11935  23.619  41.511  11.860
50405W        W11936   0.980   7.685  12.008
50406W        W11937   6.183  43.866  12.909
50407W        W11938   9.833  42.957  14.500
50408W        W11939  19.049  39.017   5.610
50409W        W11940  28.974  22.520   0.815
50410W        W11941  39.889  22.026  14.416
50411W        W11942  13.599   9.178  12.978
50412W        W11943   5.835  34.098   1.723
50413W        W11944  25.134  24.999   3.769
50414W        W11945  31.519  36.913  12.483
50415W        W11946  14.134  11.745  11.523
50416W        W11947  13.157  30.979  12.853
50417W        W11948   6.372  20.565  11.008
50418W        W11949   8.894  25.586  11.979
50419W        W11950  14.804  14.241   0.323
50420W        W11951  28.619   1.975   4.641
50421W        W11952  38.327  11.838   9.483
50422W        W11953  38.443  43.773  11.950
50423W        W11954  20.154  20.714  12.450
50424W        W11955  31.104   6.194   2.210
50425W        W11956  43.975  43.949   4.328
50426W        W11957  43.318   2.877  13.515
50427W        W11958  38.550  32.460  14.301
50428W        W11959  11.346  43.313  12.506
50429W        W11960  11.340  21.573  12.499
50430W        W11961  24.103  14.197  12.928
50431W        W11962  37.014  20.708   4.182
50432W        W11963  13.703  21.703  14.873
50433W        W11964  18.748   7.367  14.027
50434W        W11965  37.508   6.824   3.309
50435W        W11966  34.387  34.874   0.796
50436W        W11967  29.478  15.142   2.733
50437W        W11968  39.499  38.894  13.480
50438W        W11969   4.905  43.496   1.818
50439W        W11970  17.669  42.968   1.276
50440W        W11971  27.452  20.206  11.899
50441W        W11972  39.403   9.650  11.958
50442W        W11973  32.115   9.770   2.831
50443W        W11974  27.466   5.250  14.479
50444W        W11975   4.895   3.339  10.046
50445W        W11976   9.791  23.996   0.910
50446W        W11977  11.682  24.115   3.732
50447W        W11978  19.549  22.097  10.082
50448W        W11979  37.983  16.256  13.425
50449W        W11980   7.285  38.074   0.354
50450W        W11981   7.325   8.198  14.486
50451W        W11982  17.090  21.711  12.947
50452W        W11983  41.840  33.009   1.773
50453W        W11984  33.974   9.227  14.787
50454W        W11985  33.955  41.497   4.780
50455W        W11986   7.843   8.282   3.153
50456W        W11987  12.137  29.438   3.692
50457W        W11988  22.112  44.361  11.482
50458W        W11989  36.516  38.840  12.990
50459W        W11990   7.841  42.398  11.958
50460W        W11991  37.446  29.159  12.071
50461W        W11992  27.978  20.074  11.013
50462W        W11993  38.381  29.920   0.416
50463W        W11994  44.392  23.661  13.932
50464W        W11995  11.646  11.137  14.989
50465W        W11996  31.419  31.897   0.817
50466W        W11997  18.261  31.937   4.829
50467W        W11998  16.127  23.232  11.585
50468W        W11999   1.896   3.849  13.968
50469W        W12000   6.413  19.667  11.921
50470W        W12001  17.776  16.092  11.394
50471W        W12002   7.756  30.420  10.514
50472W        W12003  25.094   3.286   2.758
50473W        W12004  23.069   3.251   5.252
50474W        W12005  39.885  19.745   1.386
50475W        W12006   8.700  35.399   0.943
50476W        W12007  34.938  22.607   4.190
50477W        W12008  18.628   2.311  13.928
50478W        W12009  42.310  21.610  13.359
50479W        W12010   6.780  35.397   0.443
50480W        W12011  31.609  15.145  10.967
50481W        W12012  26.689  28.470  14.006
50482W        W12013  17.566   6.358   4.197
50483W        W12014   7.277  26.472   3.865
50484W        W12015   5.272  42.869   0.452
50485W        W12016  10.382  39.002  11.972
50486W        W12017  40.437  15.649   3.777
50487W        W12018   4.391  38.416   1.903
50488W        W12019  40.850  19.221  10.936
50489W        W12020   0.874  38.000   0.305
50490W        W12021   5.201  43.363  13.548
50491W        W12022  14.766   9.713  11.429
50492W        W12023  35.061   3.949  12.095
50493W        W12024  33.388  20.704  14.310
50494W        W12025  43.985  28.024   0.853
50495W        W12026  14.601   9.265  10.632
50496W        W12027  16.794  14.661  12.360
50497W        W12028   4.861  42.856   1.338
50498W        W12029  40.801  31.641  12.485
50499W        W12030  28.162  44.837  12.453
50500W        W12031   7.333  21.511   4.614
50501W        W12032  27.178  35.559   4.123
50502W        W12033  24.997  37.871  13.487
50503W        W12034  25.992  36.901   3.261
50504W        W12035  40.965   8.389   4.711
50505W        W12036  19.141   6.368   0.762
50506W        W12037  32.925  43.799  11.976
50507W        W12038  33.577  32.435  10.627
50508W        W12039  30.078  27.047  11.558
50509W        W12040  14.679  41.871  14.917
50510W        W12041  30.084  12.828  12.849
50511W        W12042  21.757  39.966  11.960
50512W        W12043  30.024   5.291  12.095
50513W        W12044   5.808  30.999   1.818
50514W        W12045  32.996  39.993   2.219
50515W        W12046  11.333  44.983   4.747
50516W        W12047  19.248  35.504   2.256
50517W        W12048  14.747  12.313  14.846
50518W        W12049  35.424  18.619   2.810
50519W        W12050  31.496  25.144   1.854
50520W        W12051  33.556  33.101  10.443
50521W        W12052  21.516   0.433  14.772
50522W        W12053   0.892  44.846  14.512
50523W        W12054  38.425   8.803   1.793
50524W        W12055  37.467  28.633  11.856
50525W        W12056   8.380  27.940   3.280
50526W        W12057  42.329  18.058  13.461
50527W        W12058  28.080  13.329   3.263
50528W        W12059  32.917  10.658  12.057
50529W        W12060   4.414  32.621   3.685
50530W        W12061  43.435  38.456   1.403
50531W        W12062  28.677  25.120   0.343
50532W        W12063  34.921  30.619   1.893
50533W        W12064  33.893  13.296  10.468
50534W        W12065   2.460  10.801   1.359
50535W        W12066   8.340  25.515  11.872
50536W        W12067  26.460  20.685  10.084
50537W        W12068  15.593  34.092   1.282
50538W        W12069  38.063  31.103   0.800
50539W        W12070  11.186  20.566  14.473
50540W        W12071  14.641  10.273  13.452
50541W        W12072  30.095  30.918  12.507
50542W        W12073  15.160   4.362  11.392
50543W        W12074  27.017  43.810  11.977
50544W        W12075  11.313  11.671   4.770
50545W        W12076  10.697  13.317   4.699
50546W        W12077  14.142  19.161   0.913
50547W        W12078   3.458   2.261   4.737
50548W        W12079  16.615  11.666  11.531
50549W        W12080  43.792   6.256  12.856
50550W        W12081  36.482  13.669  13.342
50551W        W12082  20.060  13.714  10.930
50552W        W12083  14.203  10.155   4.126
50553W        W12084  34.485  28.477   2.321
50554W        W12085  27.052  36.567  14.802
50555W        W12086  26.647  42.988  12.932
50556W        W12087  37.472  18.148   1.747
50557W        W12088  39.952  35.014   4.645
50558W        W12089  19.121  43.965   0.421
50559W        W12090  20.664  18.661   3.674
50560W        W12091  26.133  36.575   1.262
50561W        W12092  34.077  35.852  13.035
50562W        W12093  23.170   9.824  14.504
50563W        W12094  21.135   2.871  13.380
50564W        W12095  11.641  39.947   1.923
50565W        W12096  37.505  34.103   0.941
50566W        W12097  11.348  14.323  11.523
50567W        W12098  41.339  24.713   3.630
50568W        W12099  18.103  31.005   4.633
50569W        W12100  39.886  10.384   3.386
50570W        W12101  11.626  24.168   1.235
50571W        W12102  39.974  42.505  14.468
50572W        W12103  19.279  27.994   4.598
50573W        W12104   5.215   2.246  11.538
50574W        W12105  38.820  40.381   3.810
50575W        W12106   6.844  42.842  12.025
50576W        W12107  13.275  13.269   2.285
50577W        W12108  31.048  18.682   0.430
50578W        W12109  39.931  43.400   2.812
50579W        W12110   1.477   0.822  13.977
50580W        W12111  14.670  44.396   1.774
50581W        W12112  19.252   5.916  11.573
50582W        W12113  32.142  38.954  14.292
50583W        W12114  32.052  28.956  12.043
50584W        W12115   8.812  13.346  10.965
50585W        W12116  32.480  42.400  12.398
50586W        W12117  39.507  35.096  13.891
50587W        W12118  14.735  26.553   2.332
50588W        W12119  28.117  18.108  12.381
50589W        W12120  10.739  28.525   2.843
50590W        W12121  17.643  43.347  14.313
50591W        W12122   9.389  32.424   2.372
50592W        W12123  17.183  42.377   0.849
50593W        W12124  33.490   1.878  12.422
50594W        W12125  18.673  13.610  13.973
50595W        W12126  32.904  10.307   2.319
50596W        W12127  24.651  24.057   4.839
50597W        W12128  41.889  11.180   2.274
50598W        W12129   0.831  39.917  11.546
50599W        W12130   7.287  27.959   3.184
50600W        W12131  14.247   0.473  13.852
50601W        W12132   6.269  19.188  12.954
50602W        W12133  25.623  40.988   1.251
50603W        W12134  18.562  11.721  13.339
50604W        W12135  22.622  19.706  11.553
50605W        W12136  26.065   5.793  11.891
50606W        W12137  26.959  36.480   3.797
50607W        W12138  26.118  33.973   1.764
50608W        W12139   0.425  42.797   5.271
50609W        W12140  38.936  21.597  13.814
50610W        W12141  25.488  13.729  13.964
50611W        W12142  32.926   6.254   2.675
50612W        W12143  10.292  44.260  12.455
50613W        W12144  14.671   3.781   1.769
50614W        W12145  44.439  22.630   2.376
50615W        W12146  40.452  18.663   0.887
50616W        W12147  43.363  32.532  10.987
50617W        W12148  27.050  30.471   4.130
50618W        W12149  13.253  29.047   0.886
50619W        W12150   4.270   1.812   2.377
50620W        W12151  28.975   2.868   4.754
50621W        W12152  13.776  11.316   4.763
50622W        W12153  38.482   4.333   3.176
50623W        W12154  27.945  13.171  14.335
50624W        W12155  33.906  29.471  13.354
50625W        W12156  26.588  17.754  10.956
50626W        W12157  20.624  20.645   4.808
50627W        W12158  28.659   2.455  13.964
50628W        W12159   8.242   2.448  11.401
50629W        W12160  14.133   9.773   4.304
50630W        W12161  19.774  24.680   9.583
50631W        W12162  42.308   3.798  10.989
50632W        W12163  22.240  38.361   2.362
50633W        W12164   8.318  31.443  11.398
50634W        W12165  19.143  42.521  10.477
50635W        W12166   4.366  44.764  12.886
50636W        W12167  31.973  33.968   0.318
50637W        W12168   4.763   5.748  14.420
50638W        W12169  25.654  36.378   4.787
50639W        W12170  13.601  44.413   0.785
50640W        W12171   4.737  17.617  11.055
50641W        W12172  10.167  28.520  11.886
50642W        W12173   6.362  34.111   2.818
50643W        W12174  16.645  32.912   1.252
50644W        W12175  32.986  13.711   9.441
50645W        W12176  26.569  33.443   3.821
50646W        W12177  20.115  35.999   4.118
50647W        W12178  31.455  16.636   0.803
50648W        W12179  24.146  11.764  10.055
50649W        W12180  42.317  27.102   0.453
50650W        W12181  25.170  18.065   4.800
50651W        W12182  27.484  17.282   1.767
50652W        W12183   7.248  44.297   0.909
50653W        W12184  15.778  44.458   4.828
50654W        W12185  38.342  27.067   2.825
50655W        W12186  25.026   1.822   1.734
50656W        W12187  31.478  18.767   1.286
50657W        W12188  14.823  34.968  12.424
50658W        W12189  16.303  43.455  11.964
50659W        W12190  13.719  28.584  14.848
50660W        W12191  32.511  40.529  14.815
50661W        W12192  15.128  42.436  13.548
50662W        W12193  10.279   6.905   4.692
50663W        W12194  24.125  31.604   5.300
50664W        W12195  42.452   4.928  12.038
50665W        W12196  44.321  18.055   3.147
50666W        W12197  17.130  25.565   3.714
50667W        W12198  24.620   2.412  11.560
50668W        W12199  12.844  42.510   2.300
50669W        W12200   8.334  36.377  12.829
50670W        W12201  41.903  15.243   1.847
50671W        W12202  29.573  34.430  12.362
50672W        W12203  14.754  40.969  14.298
50673W        W12204  29.106  42.452   0.322
50674W        W12205  40.846  34.581  14.777
50675W        W12206  25.704  16.773   4.783
50676W        W12207  25.517  34.518   4.166
50677W        W12208  23.671  36.495   1.764
50678W        W12209  34.520  34.614  11.454
50679W        W12210   5.336  22.150   5.613
50680W        W12211  10.783  18.189   3.769
50681W        W12212   0.984  23.047   0.269
50682W        W12213  34.894   8.836  12.961
50683W        W12214  41.036  10.792  13.529
50684W        W12215  35.446  21.113   1.359
50685W        W12216  18.283   5.272  14.335
50686W        W12217  25.033  33.398  14.482
50687W        W12218  26.033  23.704  11.447
50688W        W12219  16.126  44.505   9.939
50689W        W12220   1.890  10.318   2.795
50690W        W12221  39.016  12.799  10.906
50691W        W12222  25.966   9.367   0.392
50692W        W12223  11.316  14.752  11.428
50693W        W12224  42.841  10.297  10.900
50694W        W12225   4.368  17.681  12.087
50695W        W12226  18.202  39.046   1.331
50696W        W12227  35.583  25.052  13.505
50697W        W12228   9.706  12.362  11.908
50698W        W12229  27.120   4.752   4.643
50699W        W12230  34.411  17.602   4.722
50700W        W12231  42.362  31.597  13.533
50701W        W12232   7.717  18.135   3.732
50702W        W12233  42.287  44.878  14.835
50703W        W12234  44.896  28.478   1.844
50704W        W12235  32.996  44.756  14.497
50705W        W12236  28.642  21.102   2.399
50706W        W12237  21.098   4.350   3.342
50707W        W12238  42.963  41.005  12.437
50708W        W12239  41.475  36.541   1.301
50709W        W12240  29.579  31.456  13.891
50710W        W12241  44.419  37.833  14.950
50711W        W12242  40.535  37.522   0.458
50712W        W12243  29.100  28.129   2.821
50713W        W12244  43.328   6.249  14.390
50714W        W12245  35.394  41.983  10.968
50715W        W12246  10.684  44.782   0.443
50716W        W12247   7.196  21.256   1.274
50717W        W12248  13.272   2.856   1.885
50718W        W12249  38.986   0.777  14.026
50719W        W12250  38.458  23.100  13.014
50720W        W12251   6.205   3.387  11.504
50721W        W12252  16.706  34.874   1.873
50722W        W12253   5.333  37.529   2.330
50723W        W12254  42.965  44.392   0.764
50724W        W12255  24.120   9.714   1.902
50725W        W12256  38.369   2.902   3.634
50726W        W12257  27.572  20.113   4.776
50727W        W12258  29.531  21.088   1.301
50728W        W12259  31.951  41.327   1.877
50729W        W12260  10.658   6.879   1.250
50730W        W12261  20.050  23.019  10.608
50731W        W12262   9.749  32.918   3.148
50732W        W12263  28.464  12.729  11.876
50733W        W12264  36.449  33.023  11.935
50734W        W12265  20.258  10.204  12.861
50735W        W12266  14.327  35.453  12.564
50736W        W12267  16.730   9.293  13.910
50737W        W12268  31.566   7.868   0.351
50738W        W12269   9.169  15.191   4.764
50739W        W12270  27.054   2.756   2.744
50740W        W12271  23.707  23.057   2.894
50741W        W12272  23.627  31.470   5.222
50742W        W12273  34.552  25.493  14.421
50743W        W12274  40.453  41.831   1.310
50744W        W12275  10.226  11.153  10.579
50745W        W12276  26.693   9.785  13.898
50746W        W12277  44.984  14.112  11.939
50747W        W12278  16.119  31.579  10.520
50748W        W12279   3.252   5.701  13.861
50749W        W12280   7.275  12.747  14.962
50750W        W12281  30.916   0.949  12.374
50751W        W12282  44.395  40.900  13.974
50752W        W12283  31.024  11.276  12.892
50753W        W12284  19.133   2.834   4.737
50754W        W12285   0.752  12.757   3.861
50755W        W12286  30.649  38.059  10.888
50756W        W12287  16.171  15.716   0.376
50757W        W12288  19.089  43.446   4.786
50758W        W12289   7.245  18.659  14.984
50759W        W12290  39.524  32.406   2.379
50760W        W12291   6.838  37.472   2.189
50761W        W12292  30.518  25.215   0.310
50762W        W12293   8.193   8.656   2.822
50763W        W12294  40.503  20.737  11.948
50764W        W12295  16.230   0.273  11.891
50765W        W12296  21.564   9.180   0.799
50766W        W12297  17.712  22.221   4.629
50767W        W12298   9.816  23.711   4.232
50768W        W12299   6.875  34.417  14.760
50769W        W12300   2.240  17.092  14.284
50770W        W12301  37.566   8.821   2.271
50771W        W12302  38.048   8.872   9.475
50772W        W12303  32.422  27.612  11.519
50773W        W12304  27.537  29.080   2.886
50774W        W12305  33.591  37.026   3.852
50775W        W12306  34.592   8.858   0.843
50776W        W12307  30.937  44.461   0.965
50777W        W12308  11.745  25.063  10.907
50778W        W12309  22.741  35.873  10.614
50779W        W12310  39.535  43.999   2.708
50780W        W12311   8.879  25.689  13.064
50781W        W12312  28.132  11.688  10.045
50782W        W12313   3.826   2.953  13.471
50783W        W12314  13.661  43.335   0.457
50784W        W12315  10.778  16.253  13.919
50785W        W12316  32.085  20.132   3.261
50786W        W12317  23.042  10.645   0.808
50787W        W12318   8.721  28.970  11.591
50788W        W12319   0.324  27.589   3.634
50789W        W12320  39.537  41.917  12.513
50790W        W12321  39.454  15.681  12.465
50791W        W12322  38.352  28.617  13.520
50792W        W12323  21.072  19.764   2.718
50793W        W12324  34.450  12.636   3.377
50794W        W12325  27.465  40.532   0.348
50795W        W12326  36.578  20.051  13.010
50796W        W12327  43.417  10.293  14.992
50797W        W12328  36.472  22.044   1.765
50798W        W12329  18.284  24.528   3.320
50799W        W12330   7.335  28.549   0.959
50800W        W12331  37.070  24.009   2.841
50801W        W12332   1.869  21.118  12.023
50802W        W12333  13.215  28.556   0.821
50803W        W12334   6.377  33.493  11.088
50804W        W12335  41.428  22.123   3.361
50805W        W12336   5.409   2.966  11.566
50806W        W12337   2.279   1.966   1.334
50807W        W12338  43.836   2.457  10.571
50808W        W12339  38.982   7.171   3.842
50809W        W12340   1.867  21.694  11.921
50810W        W12341   1.966  24.184   1.928
50811W        W12342  43.998   5.405  10.436
50812W        W12343  20.527  40.382   4.115
50813W        W12344   6.801  44.488  11.943
50814W        W12345  38.539   9.181   0.853
50815W        W12346   9.229  27.560   1.329
50816W        W12347  32.010   2.766   2.320
50817W        W12348  42.387  37.077  13.547
50818W        W12349   6.326   4.379   3.182
50819W        W12350  11.283  24.001   4.782
50820W        W12351  33.444   3.819  12.370
50821W        W12352  10.639  24.494   1.320
50822W        W12353  34.017  37.890  14.429
50823W        W12354  37.563   8.716   0.414
50824W        W12355  40.487  11.236   3.743
50825W        W12356  13.184  21.589  12.935
50826W        W12357  16.074   8.854   4.310
50827W        W12358   2.952  27.656   2.796
50828W        W12359  44.771  38.869  13.865
50829W        W12360   9.283  30.040  11.013
50830W        W12361  32.424   8.317   9.591
50831W        W12362  21.050  10.828   4.269
50832W        W12363   5.352  43.361   0.945
50833W        W12364   4.383  31.536  11.127
50834W        W12365  37.083  23.129   1.339
50835W        W12366  27.129  27.109  12.415
50836W        W12367  39.380  31.468   3.297
50837W        W12368  11.355  37.988  14.801
50838W        W12369  19.122  14.790   4.271
50839W        W12370  30.014   7.710   1.366
50840W        W12371  18.194  16.686   2.391
50841W        W12372  26.186  20.564   0.407
50842W        W12373   8.174  23.122  14.278
50843W        W12374   0.868  38.977  11.607
50844W        W12375  12.615  29.456   2.816
50845W        W12376  17.205  16.217  13.042
50846W        W12377  34.480   4.405  14.367
50847W        W12378  34.972  44.972  12.987
50848W        W12379  31.425  18.130  10.130
50849W        W12380  15.604  39.023  12.376
50850W        W12381  27.527  15.265  14.986
50851W        W12382  26.149  26.627   1.377
50852W        W12383  22.006  13.248  13.352
50853W        W12384  42.920   4.331   0.739
50854W        W12385  23.234  23.557  10.977
50855W        W12386  37.979   8.324   5.133
50856W        W12387   8.255  40.414  11.512
50857W        W12388  20.707  18.175  13.800
50858W        W12389  19.228   7.381   2.230
50859W        W12390  30.076  11.781  13.324
50860W        W12391  21.602  23.054  11.466
50861W        W12392  29.610  17.631  11.102
50862W        W12393  22.595  28.640  13.020
50863W        W12394  14.775   6.921  12.032
50864W        W12395  26.185   3.822   2.685
50865W        W12396  14.607   6.831   3.828
50866W        W12397  20.212  25.469  11.121
50867W        W12398  21.255  22.684  14.334
50868W        W12399  35.852  30.919   0.924
50869W        W12400  28.164   4.785   1.708
50870W        W12401  26.098  30.048   3.178
50871W        W12402  32.558  33.544  11.421
50872W        W12403  33.007  44.766  13.428
50873W        W12404  18.706  21.148   4.754
50874W        W12405   4.440  25.100   1.701
50875W        W12406  31.638  42.841  12.060
50876W        W12407  21.620  10.722  12.571
50877W        W12408  25.014   1.387   3.858
50878W        W12409   9.708   8.279   1.927
50879W        W12410  23.149  31.450  13.999
50880W        W12411  34.505   0.256   3.289
50881W        W12412  43.421  24.488   3.659
50882W        W12413   4.824  30.429   4.218
50883W        W12414  10.329  39.437   1.737
50884W        W12415   5.769  13.105   4.133
50885W        W12416  42.519  23.135  13.337
50886W        W12417  33.949  36.361  10.465
50887W        W12418  19.152  22.529   0.334
50888W        W12419   9.157  25.085  14.455
50889W        W12420  35.904  12.675   2.269
50890W        W12421  30.128  13.346  11.024
50891W        W12422  25.659  14.311  10.098
50892W        W12423  27.074  29.938   4.698
50893W        W12424  20.096  40.815   2.316
50894W        W12425   2.384  23.017  11.444
50895W        W12426  29.036  22.703   2.231
50896W        W12427  43.458  14.113  11.398
50897W        W12428  18.151  22.209  13.858
50898W        W12429  17.756  41.036   0.912
50899W        W12430  22.505  22.652   0.943
50900W        W12431  18.667  26.967  12.417
50901W        W12432   1.403  22.187   0.734
50902W        W12433  35.594  27.185   2.903
50903W        W12434  13.267  13.185  11.052
50904W        W12435   3.237  16.304   4.825
50905W        W12436  38.990  17.751  12.095
50906W        W12437   2.330  27.544  10.580
50907W        W12438  24.549  39.014   1.695
50908W        W12439   3.440   2.819  10.426
50909W        W12440  30.465   7.281   2.302
50910W        W12441  14.624   7.869   1.700
50911W        W12442  10.862  32.603  11.096
50912W        W12443  10.248  19.147   0.312
50913W        W12444  28.589  20.552  10.490
50914W        W12445  30.456  33.587   0.764
50915W        W12446  40.984   3.457   9.971
50916W        W12447   3.408  37.423   4.263
50917W        W12448   8.703  16.717   3.164
50918W        W12449  43.420  39.893   0.943
50919W        W12450  20.561  38.498  11.888
50920W        W12451  18.121  28.025  14.406
50921W        W12452  14.185   6.839  10.935
50922W        W12453  35.008   4.443   4.153
50923W        W12454  40.432  16.684  11.012
50924W        W12455  14.715  26.144   3.680
50925W        W12456  43.413  34.606   2.718
50926W        W12457  26.476   1.309  13.360
50927W        W12458   7.223  33.073   4.699
50928W        W12459  22.067  20.769   2.887
50929W        W12460  10.272  41.489  13.022
50930W        W12461  13.791   3.766  13.987
50931W        W12462  31.059   6.228  13.810
50932W        W12463  37.414  33.104  10.497
50933W        W12464  30.588  27.071   0.871
50934W        W12465  13.809   0.345   2.236
50935W        W12466  11.354  28.570  10.630
50936W        W12467  21.152  38.070   3.268
50937W        W12468  12.834  21.529  12.423
50938W        W12469  26.985   8.305  13.056
50939W        W12470  24.108  10.705  12.970
50940W        W12471  40.854  26.654  12.952
50941W        W12472  32.005   7.266  13.791
50942W        W12473  43.822   8.406  13.845
50943W        W12474  40.366  23.120  13.536
50944W        W12475  24.982  16.654   3.152
50945W        W12476  37.525   9.301  11.534
50946W        W12477  13.125  33.600  10.008
50947W        W12478  43.498  14.804   4.292
50948W        W12479  10.211  17.227  14.291
50949W        W12480  19.095  21.708   0.886
50950W        W12481  19.115  19.101   1.286
50951W        W12482  17.070  14.744   3.263
50952W        W12483  24.679  11.766  11.545
50953W        W12484   8.242   5.195  12.545
50954W        W12485   6.729  35.493  11.856
50955W        W12486  11.687   4.331   2.726
50956W        W12487   2.273  12.807   2.795
50957W        W12488   5.868  19.611   4.628
50958W        W12489  30.479  31.131  13.356
50959W        W12490   6.318  13.828   2.411
50960W        W12491  23.531  10.661  11.927
50961W        W12492   5.315  14.685   3.664
50962W        W12493  13.287   7.682  12.378
50963W        W12494  10.652  28.956   1.434
50964W        W12495   4.798   9.258   4.139
50965W        W12496  44.292  12.832   3.245
50966W        W12497   6.361  22.202  14.864
50967W        W12498  42.015  31.982   2.662
50968W        W12499  36.495  40.945   1.251
50969W        W12500  44.976  10.355   3.310
50970W        W12501  26.130  16.621  14.005
50971W        W12502  33.623  43.964  14.993
50972W        W12503  28.172  38.528   4.638
50973W        W12504  36.940  39.419  10.615
50974W        W12505  20.039  10.736  12.402
50975W        W12506   7.723  10.332  10.473
50976W        W12507  36.357  36.907  10.050
50977W        W12508  22.134  24.572  12.953
50978W        W12509  37.580   6.333  14.900
50979W        W12510  40.504  35.542  12.414
50980W        W12511  34.385  17.664  12.026
50981W        W12512   2.284  39.999  11.558
50982W        W12513  36.368  14.815  14.893
50983W        W12514   3.739  39.014  12.357
50984W        W12515  25.125  27.601   0.813
50985W        W12516  37.877   2.768  12.344
50986W        W12517  18.287   4.439   3.810
50987W        W12518   9.341   7.236  12.481
50988W        W12519  22.542  29.107   2.837
50989W        W12520   7.339  18.249   1.843
50990W        W12521  14.715  34.908  13.507
50991W        W12522  16.605   1.307   1.900
50992W        W12523  21.141  44.383   1.761
50993W        W12524  38.873  15.697   4.693
50994W        W12525  11.729  13.777  14.784
50995W        W12526   4.405  23.503  14.410
50996W        W12527  21.703   2.418  13.337
50997W        W12528  18.758  29.665   4.824
50998W        W12529  17.648  14.795  14.921
50999W        W12530  17.150  22.679  14.909
51000W        W12531   7.898  34.373   4.183
51001W        W12532  40.912  21.032  14.472
51002W        W12533  23.052  31.108  12.909
51003W        W12534  12.614  33.395   0.309
51004W        W12535  29.103   4.897  13.988
51005W        W12536  34.388  26.107  11.106
51006W        W12537  15.319   7.671   4.251
51007W        W12538  28.933  29.452  13.454
51008W        W12539  34.492  26.154  12.026
51009W        W12540  35.583   5.699   1.394
51010W        W12541  37.425  12.193  14.307
51011W        W12542  28.548  30.476   0.819
51012W        W12543  31.424  39.342  13.888
51013W        W12544   8.290   6.294  13.924
51014W        W12545  18.708  25.208   2.404
51015W        W12546  28.155  18.169  14.471
51016W        W12547  15.808   8.762  10.477
51017W        W12548  39.335  33.505   1.432
51018W        W12549  10.281  15.314   0.410
51019W        W12550   0.786  27.519  14.450
51020W        W12551   3.389  34.393   3.170
51021W        W12552  34.891  31.484  14.986
51022W        W12553  22.601  32.636  14.492
51023W        W12554  40.306  38.004  10.947
51024W        W12555   1.409  10.247   4.163
51025W        W12556  16.699  32.888  14.319
51026W        W12557  26.197  15.703   1.880
51027W        W12558   7.370   8.858   2.322
51028W        W12559  15.674  34.560  11.882
51029W        W12560  21.564   7.271  13.533
51030W        W12561  18.176  26.148   4.833
51031W        W12562  40.441  25.523  13.909
51032W        W12563   3.425  31.477   4.170
51033W        W12564  40.017  35.964   4.750
51034W        W12565  37.873  39.358   0.478
51035W        W12566   7.402  17.668  11.467
51036W        W12567  22.600  19.246  11.891
51037W        W12568   9.712   2.794  11.494
51038W        W12569  37.477  17.723  14.348
51039W        W12570  39.047  35.012  12.079
51040W        W12571  25.608  32.568  12.478
51041W        W12572  21.059   8.889   3.635
51042W        W12573  43.840  28.091   2.397
51043W        W12574  19.139  39.993   0.322
51044W        W12575  23.689  12.268   2.789
51045W        W12576  29.601  13.720  12.409
51046W        W12577  44.262  25.468  14.343
51047W        W12578   2.906  18.548   1.385
51048W        W12579   2.433  38.433   2.794
51049W        W12580  31.442  37.551   4.688
51050W        W12581   5.917   7.801   3.693
51051W        W12582  23.686   2.276   3.766
51052W        W12583  31.153   0.302   0.840
51053W        W12584  18.622   4.449   1.212
51054W        W12585  33.911  38.959   9.924
51055W        W12586   7.797  24.028   1.393
51056W        W12587  32.008  28.624  12.471
51057W        W12588  29.617  30.096   2.274
51058W        W12589  39.930  15.319   0.758
51059W        W12590  18.562  27.604  11.426
51060W        W12591  10.731   7.701  12.080
51061W        W12592  18.167   4.274   2.192
51062W        W12593  19.236  28.003   0.481
51063W        W12594  19.687  40.469   2.791
51064W        W12595  21.161  26.109  12.880
51065W        W12596  39.456   5.763  10.556
51066W        W12597  19.759  24.585  11.549
51067W        W12598  35.543  36.073   4.208
51068W        W12599  35.481  35.597  10.133
51069W        W12600  25.985  40.503   4.742
51070W        W12601   2.400   6.863  13.839
51071W        W12602  23.698  10.313   2.722
51072W        W12603  12.169   1.860   9.651
51073W        W12604   5.815  42.397  11.460
51074W        W12605   2.965  40.812   1.751
51075W        W12606  31.902  44.319  14.894
51076W        W12607  24.504  39.899   9.659
51077W        W12608  37.370   8.171   3.178
51078W        W12609  39.850  44.985  12.005
51079W        W12610  36.539  19.612   1.888
51080W        W12611  40.541  23.612   3.284
51081W        W12612   6.870  13.651  12.483
51082W        W12613  16.136   4.824   1.370
51083W        W12614  22.589  36.049  11.032
51084W        W12615  17.165  12.244  10.889
51085W        W12616  14.269   6.395   3.782
51086W        W12617  17.671   4.841   0.372
51087W        W12618  17.262   3.894   1.812
51088W        W12619  16.692  34.427  12.870
51089W        W12620   1.947   3.310  12.422
51090W        W12621  34.887  26.058   2.732
51091W        W12622  25.626  32.948   0.301
51092W        W12623  12.634   6.724  13.331
51093W        W12624   0.906  42.291  12.887
51094W        W12625   6.833   5.398  11.029
51095W        W12626  35.052  22.197  13.995
51096W        W12627  41.435  25.710  14.815
51097W        W12628  12.257  26.954   1.434
51098W        W12629  34.062   2.839   2.780
51099W        W12630  27.041  35.575   0.832
51100W        W12631   2.731  24.095  12.064
51101W        W12632  25.014  10.794   3.241
51102W        W12633  26.962  26.478   3.257
51103W        W12634  16.076   9.269  12.465
51104W        W12635  32.975  24.162  10.511
51105W        W12636  19.585  24.602  14.483
51106W        W12637   7.401   2.461  12.378
51107W        W12638  18.198  44.934   1.287
51108W        W12639  23.670   2.256  11.579
51109W        W12640  10.181   6.898   3.853
51110W        W12641  30.911  21.077  13.533
51111W        W12642  28.561  18.165   1.248
51112W        W12643  43.316  21.217   4.229
51113W        W12644  23.502  35.091   4.178
51114W        W12645  11.193  11.281   3.777
51115W        W12646  13.825  14.650   0.451
51116W        W12647   6.823  41.044  12.453
51117W        W12648  17.238  26.997   0.752
51118W        W12649   7.259  34.931   0.447
51119W        W12650  18.249  31.989  13.047
51120W        W12651  24.031  17.570   3.737
51121W        W12652  24.598   8.354   4.307
51122W        W12653  10.147  37.475  11.431
51123W        W12654  19.252  18.244   3.865
51124W        W12655  18.194  33.513   1.871
51125W        W12656  41.979   6.420   2.307
51126W        W12657   9.186   7.872  14.367
51127W        W12658  26.962  32.470   4.233
51128W        W12659   3.742  27.594   4.735
51129W        W12660  36.538  40.007   1.359
51130W        W12661  43.448  44.324  10.552
51131W        W12662  10.788  21.168   0.867
51132W        W12663  40.039   1.894   2.817
51133W        W12664  35.444  39.043  12.574
51134W        W12665  29.609  22.518  14.482
51135W        W12666  20.105  36.096   3.307
51136W        W12667  13.761  13.227  13.329
51137W        W12668   5.716  25.168   3.784
51138W        W12669   4.850  44.271  11.125
51139W        W12670   5.908  27.183   2.765
51140W        W12671  34.585  15.733   3.302
51141W        W12672  33.436  35.914   4.250
51142W        W12673  31.959  44.862  13.833
51143W        W12674  36.440  34.506  14.412
51144W        W12675  40.409  30.581  12.468
51145W        W12676  35.060  29.164   5.303
51146W        W12677  37.395  19.090  13.888
51147W        W12678  20.644  16.223  12.527
51148W        W12679  34.982  25.189   5.144
51149W        W12680  19.205  43.457   3.188
51150W        W12681  33.056  18.088  14.962
51151W        W12682  31.560  42.917  14.407
51152W        W12683  36.531   7.795  14.910
51153W        W12684  33.624   7.204  12.825
51154W        W12685   4.317  35.081   2.746
51155W        W12686  42.381   9.271  14.984
51156W        W12687  21.525  14.698   1.831
51157W        W12688  23.139  29.650   2.310
51158W        W12689  38.001  38.345   0.466
51159W        W12690  12.797  20.760  14.992
51160W        W12691  16.220  35.901   0.957
51161W        W12692  28.012   5.219   0.780
51162W        W12693  11.737  33.992   2.836
51163W        W12694  23.564  31.610   4.658
51164W        W12695  13.319   7.826  13.903
51165W        W12696   9.888  13.168  10.529
51166W        W12697  23.192  41.901  14.285
51167W        W12698  42.510  29.142  13.503
51168W        W12699  23.151  19.224   2.373
51169W        W12700  17.099  25.505   2.296
51170W        W12701  16.747  16.591  14.767
51171W        W12702  31.632   9.370  14.802
51172W        W12703  30.978  37.371  14.823
51173W        W12704  39.338  11.783   4.268
51174W        W12705  12.708  38.911   4.838
51175W        W12706  14.234  27.065  11.522
51176W        W12707  44.884  39.493   3.774
51177W        W12708  18.649   6.842  14.960
51178W        W12709  21.101  42.407  10.472
51179W        W12710  15.139  14.301   3.179
51180W        W12711  14.249  10.701   1.927
51181W        W12712  11.629  30.463   5.314
51182W        W12713   2.727   0.484   1.900
51183W        W12714  26.670  23.522   0.963
51184W        W12715  30.481  12.303  12.456
51185W        W12716  12.695  43.484   1.367
51186W        W12717   9.381  18.567   3.629
51187W        W12718  31.551  43.895  14.898
51188W        W12719  12.151  32.445   1.925
51189W        W12720  15.819  10.753   1.438
51190W        W12721  11.827  13.187  14.328
51191W        W12722  21.184  33.475  12.990
51192W        W12723  26.587   0.982   4.648
51193W        W12724  11.315  32.979  12.511
51194W        W12725  31.417   5.904  12.561
51195W        W12726  27.140   2.799  12.549
51196W        W12727  21.513   1.842   3.193
51197W        W12728  37.019  25.177   1.241
51198W        W12729  41.788   3.876   2.796
51199W        W12730  13.657  32.947   9.956
51200W        W12731  11.275   5.754   2.359
51201W        W12732  32.462  21.650  13.031
51202W        W12733  39.443  37.989  13.831
51203W        W12734  38.862  29.512  10.970
51204W        W12735   5.227   7.678  11.993
51205W        W12736  35.884  28.632   4.771
51206W        W12737  18.225   4.294  14.780
51207W        W12738  23.536  39.929   4.204
51208W        W12739  15.125  12.248   1.935
51209W        W12740  22.185  38.490  11.393
51210W        W12741  22.502  44.788  14.479
51211W        W12742  20.724  28.650  13.457
51212W        W12743  14.723  40.433   2.287
51213W        W12744  33.468   2.456  11.103
51214W        W12745  14.629  12.227   4.822
51215W        W12746  14.153   1.361   2.895
51216W        W12747  44.463  11.674   5.157
51217W        W12748  27.572  41.012  11.031
51218W        W12749  12.623  43.355   0.306
51219W        W12750  36.094  40.349   5.294
51220W        W12751   2.256  43.010  13.392
51221W        W12752  38.384   1.464   4.245
51222W        W12753  22.054  39.811   2.882
51223W        W12754  10.771  17.577   4.609
51224W        W12755   0.487  39.355  11.925
51225W        W12756  39.904  27.456   1.734
51226W        W12757  41.995  14.102   0.324
51227W        W12758  14.770  20.049   0.956
51228W        W12759  15.152  15.797  14.447
51229W        W12760  14.166   8.310  14.464
51230W        W12761  34.462  11.336  10.483
51231W        W12762   1.957  20.723  14.325
51232W        W12763   8.198  29.936   4.770
51233W        W12764  22.202  23.630   2.227
51234W        W12765   4.236  33.427   3.337
51235W        W12766  16.281  22.029   1.279
51236W        W12767  44.969  33.044  13.016
51237W        W12768  16.147  18.648  12.977
51238W        W12769  12.297  10.689  13.327
51239W        W12770  15.649  32.093   3.855
51240W        W12771  43.466  15.726   3.866
51241W        W12772  42.837  10.377   0.866
51242W        W12773   6.401  36.997   1.430
51243W        W12774  25.471  42.292   0.802
51244W        W12775   9.173  20.556   1.701
51245W        W12776  25.977   6.856  13.445
51246W        W12777   3.844  18.060  13.837
51247W        W12778  11.851  37.871   2.694
51248W        W12779  36.400  32.039  13.472
51249W        W12780  44.954  38.829  14.917
51250W        W12781  34.440  36.462   3.783
51251W        W12782  32.899  17.687   0.477
51252W        W12783  24.561   9.391   4.632
51253W        W12784  30.063   2.299   4.689
51254W        W12785  42.980   3.862   4.634
51255W        W12786  10.702  37.476   1.389
51256W        W12787  37.985  25.550   3.713
51257W        W12788  26.190  32.515   0.792
51258W        W12789  12.267  26.986  12.955
51259W        W12790  20.714   8.223   1.840
51260W        W12791  38.538  12.654   3.254
51261W        W12792  19.725  32.898   0.250
51262W        W12793   9.221  34.098   3.319
51263W        W12794  13.113  18.232   1.871
51264W        W12795   8.396  43.449  13.521
51265W        W12796  28.485  12.323   0.367
51266W        W12797  12.188  36.961  12.372
51267W        W12798   3.396  23.733  11.887
51268W        W12799  33.896  37.562  12.563
51269W        W12800  29.070  14.704  13.871
51270W        W12801  13.626  27.181  12.526
51271W        W12802  20.272  36.000  11.578
51272W        W12803  29.583  14.693   1.838
51273W        W12804  36.494  18.094  14.819
51274W        W12805  42.431   8.794  14.833
51275W        W12806  34.425  25.027  12.088
51276W        W12807  15.321   2.881   2.698
51277W        W12808   5.836  10.279   2.345
51278W        W12809  26.661  13.656   4.345
51279W        W12810  28.510  43.460  11.575
51280W        W12811  28.105  17.768  12.498
51281W        W12812   5.289   8.717   0.371
51282W        W12813  42.379  19.740  13.523
51283W        W12814  22.106  13.663  13.884
51284W        W12815  22.030  38.396  12.876
51285W        W12816  24.041  29.479  11.857
51286W        W12817   6.242  26.469   3.305
51287W        W12818  16.791  41.394  10.619
51288W        W12819  29.527  21.757  14.002
51289W        W12820  38.413  25.712  14.307
51290W        W12821  32.488  36.003  11.391
51291W        W12822  41.981  28.026  12.087
51292W        W12823  21.699   4.712   0.762
51293W        W12824  25.700  31.970  12.439
51294W        W12825  10.839  29.060  12.070
51295W        W12826  41.480  21.204   3.371
51296W        W12827  35.517  39.560   1.280
51297W        W12828  18.110  25.110   2.777
51298W        W12829   9.851  44.398  14.871
51299W        W12830  17.067   7.669   4.778
51300W        W12831  38.561  12.306   2.721
51301W        W12832  22.590  10.702   2.199
51302W        W12833  40.004   2.470  11.015
51303W        W12834  41.371  13.725  12.449
51304W        W12835  26.104  12.620   4.123
51305W        W12836  34.518   2.747   2.181
51306W        W12837  12.702  18.603   3.201
51307W        W12838   5.313  22.136   2.218
51308W        W12839  43.883   3.283  12.914
51309W        W12840  23.580  27.656   4.719
51310W        W12841  10.838  41.920  12.488
51311W        W12842  23.711  17.201  14.434
51312W        W12843  15.745  22.156  13.929
51313W        W12844  26.144  33.889  14.880
51314W        W12845  38.863  37.484  11.434
51315W        W12846   3.831  40.012   3.382
51316W        W12847  24.985   5.393  10.459
51317W        W12848  42.790  23.994   2.303
51318W        W12849  29.095  32.409  12.344
51319W        W12850   1.932  15.623   4.722
51320W        W12851  23.106  12.345   2.265
51321W        W12852   2.283  16.137   3.224
51322W        W12853  12.710  20.548   4.123
51323W        W12854  37.480  24.200   1.389
51324W        W12855  11.316  39.810   3.341
51325W        W12856  10.835  37.891   1.896
51326W        W12857  15.293  43.937  11.451
51327W        W12858   7.800  17.775   3.240
51328W        W12859  25.006  10.328  10.595
51329W        W12860  43.964  15.670  14.948
51330W        W12861  35.492  23.587   3.866
51331W        W12862   0.353  41.810  12.451
51332W        W12863  35.906  22.219  11.975
51333W        W12864  33.893  41.898  14.937
51334W        W12865   5.706  23.021  10.641
51335W        W12866  28.533  21.616  12.937
51336W        W12867  25.551  23.676  10.023
51337W        W12868  11.317  37.423  14.493
51338W        W12869  27.602  17.637   2.397
51339W        W12870   7.282  32.129  13.894
51340W        W12871   1.969  30.935  10.623
51341W        W12872   1.449  13.795  14.957
51342W        W12873  27.099  43.010  14.424
51343W        W12874  15.637  11.274   3.358
51344W        W12875   7.905  19.175  10.617
51345W        W12876   1.857   2.449   4.281
51346W        W12877   8.735  30.110  13.391
51347W        W12878  17.632  38.856  10.948
51348W        W12879  40.052  22.641   3.374
51349W        W12880   7.348  41.033  14.370
51350W        W12881   0.317  29.974   4.186
51351W        W12882   6.239  20.126  14.960
51352W        W12883  16.315   0.490  14.028
51353W        W12884  34.411  42.811   0.750
51354W        W12885  40.513  30.609  14.896
51355W        W12886  19.584   4.926  13.519
51356W        W12887   8.211  22.645   4.328
51357W        W12888  33.417  44.387  12.089
51358W        W12889  11.153  42.360   0.947
51359W        W12890  17.253  37.939  12.519
51360W        W12891  22.610  11.227  11.056
51361W        W12892  32.114   3.459   2.803
51362W        W12893  14.594  33.057  14.404
51363W        W12894  26.052   1.910   4.691
51364W        W12895  23.209  18.287  13.912
51365W        W12896  21.672  29.531  11.398
51366W        W12897  42.989  43.800  11.410
51367W        W12898   4.836  27.445  12.346
51368W        W12899  44.873   6.743  14.275
51369W        W12900  27.054  16.574  13.984
51370W        W12901  26.507  28.947   2.766
51371W        W12902  40.466  29.111   3.845
51372W        W12903  21.729  38.544  11.540
51373W        W12904  22.042   8.882  14.493
51374W        W12905  33.544  10.141   2.707
51375W        W12906  23.019  26.978  13.892
51376W        W12907   5.416   0.468   1.844
51377W        W12908  13.769  13.649   4.121
51378W        W12909  20.235  29.549  13.522
51379W        W12910   0.395   2.859  10.494
51380W        W12911  41.366  15.288   1.886
51381W        W12912  17.061  34.958   1.850
51382W        W12913  26.569  39.549   0.413
51383W        W12914  12.694  25.978  13.939
51384W        W12915  15.127  37.527  12.082
51385W        W12916  37.455  28.519   4.305
51386W        W12917  13.307  11.248   0.457
51387W        W12918  38.547  26.204   4.262
51388W        W12919  40.422  36.923   0.948
51389W        W12920   1.843  36.431  10.975
51390W        W12921  36.351   3.354   1.222
51391W        W12922   4.796  44.496  11.959
51392W        W12923  13.610  38.842   4.783
51393W        W12924  40.917   0.924   0.351
51394W        W12925  23.015   7.172   0.390
51395W        W12926   5.422  43.432   3.778
51396W        W12927   8.274   7.274  14.911
51397W        W12928   6.237   2.768  11.045
51398W        W12929  29.053  13.124  14.405
51399W        W12930  16.791  27.066   1.354
51400W        W12931  43.876   4.879   2.851
51401W        W12932  22.623  23.060   0.855
51402W        W12933   6.887   3.255   0.250
51403W        W12934  36.430  12.280   3.380
51404W        W12935   1.329  18.084   1.866
51405W        W12936  42.956  31.131   1.235
51406W        W12937  38.043  20.229  11.971
51407W        W12938  36.527  40.319   2.667
51408W        W12939  23.665  20.721   4.193
51409W        W12940   3.904  35.982  10.921
51410W        W12941  38.047   4.715  11.556
51411W        W12942  13.338   2.966   0.768
51412W        W12943  30.157   3.369   2.858
51413W        W12944   5.397  20.095  14.381
51414W        W12945  32.036  23.079  11.019
51415W        W12946  14.775  21.631  13.444
51416W        W12947  22.222   5.911   4.609
51417W        W12948   6.367   3.285   3.810
51418W        W12949   5.297  21.142  12.565
51419W        W12950   4.349  25.164   0.397
51420W        W12951   2.319  38.471   0.354
51421W        W12952  28.655  28.678   4.326
51422W        W12953  41.039   1.739  12.439
51423W        W12954  25.554  44.305   1.818
51424W        W12955  14.247   0.838   0.895
51425W        W12956   6.912  30.972   4.295
51426W        W12957  26.642  25.512  11.966
51427W        W12958   0.985   9.388  12.060
51428W        W12959  19.116  34.432  10.979
51429W        W12960  23.236  26.581   2.825
51430W        W12961  12.119  20.613   4.812
51431W        W12962  25.171  16.293  14.001
51432W        W12963  20.598  37.531  13.810
51433W        W12964  22.252  38.528  14.486
51434W        W12965  38.477  20.262   3.186
51435W        W12966  24.667  19.231  13.390
51436W        W12967  42.282   9.225   1.389
51437W        W12968  13.279  24.580   3.153
51438W        W12969  14.621  24.043   3.341
51439W        W12970  43.765  31.111  14.861
51440W        W12971   9.293  24.039  13.971
51441W        W12972   6.852  12.827   3.789
51442W        W12973  14.808   5.837   2.198
51443W        W12974  34.939  22.746   4.794
51444W        W12975   5.429   7.845  12.930
51445W        W12976  36.564  25.191   0.277
51446W        W12977   7.718  17.194   2.881
51447W        W12978  41.807  27.577   3.631
51448W        W12979  32.086  24.617  11.587
51449W        W12980  12.624  33.115  13.879
51450W        W12981  29.584  20.666  13.374
51451W        W12982  34.369  19.251   5.636
51452W        W12983   3.410  40.992   2.685
51453W        W12984  13.617   9.690  11.610
51454W        W12985  26.476  24.227  11.994
51455W        W12986  10.634  13.624   0.902
51456W        W12987  35.975  40.900   1.234
51457W        W12988  19.615  11.817   2.711
51458W        W12989  37.906   1.940   4.784
51459W        W12990  31.592  36.944  11.026
51460W        W12991  23.156  32.613  10.986
51461W        W12992   3.945  12.350  11.499
51462W        W12993  32.542   9.390  11.112
51463W        W12994  33.394  13.164   3.750
51464W        W12995  43.289   4.218  11.920
51465W        W12996  28.629  37.383   0.303
51466W        W12997  39.394  29.446  11.513
51467W        W12998   4.813   2.255   2.879
51468W        W12999  33.412  23.528  14.919
51469W        W13000  26.460  20.592  13.976
51470W        W13001  44.499   7.404  12.071
51471W        W13002  23.664  25.973   0.442
51472W        W13003  44.462  20.105  11.123
51473W        W13004  28.011  44.434  12.079
51474W        W13005   3.857   0.756  12.402
51475W        W13006  21.714  24.657  14.447
51476W        W13007  27.526  11.779  14.788
51477W        W13008   6.343  26.460   4.799
51478W        W13009  16.075  10.763   3.764
51479W        W13010  22.053  24.060   1.423
51480W        W13011  40.518   2.882  10.561
51481W        W13012   8.732  15.616   3.220
51482W        W13013  17.171   2.957  10.992
51483W        W13014  39.322  27.536  11.506
51484W        W13015  26.524  44.314   2.876
51485W        W13016   9.156   5.817  14.992
51486W        W13017  10.751  23.504  12.898
51487W        W13018  28.989  21.102  12.377
51488W        W13019  27.564   6.217   4.337
51489W        W13020   8.264  40.977  10.948
51490W        W13021  31.024  10.810   1.299
51491W        W13022  13.130  42.383   2.412
51492W        W13023  29.973  15.267  11.005
51493W        W13024  11.324  44.936   1.299
51494W        W13025   3.364  32.097   1.705
51495W        W13026   3.871  26.471   3.633
51496W        W13027  11.687  21.174   4.829
51497W        W13028  28.499  19.250  11.439
51498W        W13029  26.168   7.815   4.206
51499W        W13030  44.985  11.291  12.987
51500W        W13031  21.543   2.380  14.447
51501W        W13032   2.274  16.773   1.356
51502W        W13033  43.806  17.261  12.876
51503W        W13034  16.314  38.829  14.416
51504W        W13035  11.766  32.604   0.476
51505W        W13036  34.377  40.984  12.097
51506W        W13037  43.477  38.902   2.204
51507W        W13038  33.021  13.737   2.727
51508W        W13039  39.949  12.204   1.384
51509W        W13040  16.152  37.953  10.466
51510W        W13041   5.922  40.533  13.398
51511W        W13042  43.402  12.274   1.436
51512W        W13043  44.485  31.474  12.830
51513W        W13044  12.192  35.089   1.305
51514W        W13045  36.951  20.665  11.410
51515W        W13046  32.917  25.691  12.569
51516W        W13047   3.828  40.427  12.839
51517W        W13048   9.200  29.126   1.367
51518W        W13049  25.181   5.801  14.484
51519W        W13050  40.506  17.187  10.094
51520W        W13051  15.134   2.922   1.222
51521W        W13052   4.291  38.325  14.305
51522W        W13053  24.609  14.736  11.122
51523W        W13054   3.426   7.220   0.773
51524W        W13055  16.235  28.160   1.230
51525W        W13056  27.105   1.453   2.315
51526W        W13057  15.642   9.666   2.345
51527W        W13058  26.592  15.686  11.515
51528W        W13059   4.293   2.879   4.333
51529W        W13060  38.564  24.566   0.468
51530W        W13061  22.741  29.983   4.208
51531W        W13062   7.407  40.422   0.817
51532W        W13063   6.914  44.956  14.882
51533W        W13064  41.822   9.826   4.665
51534W        W13065   6.833   4.823   1.696
51535W        W13066  43.959   1.360  12.942
51536W        W13067  34.886  29.424  12.571
51537W        W13068  20.252  10.227   4.608
51538W        W13069  18.214  32.594   3.266
51539W        W13070  37.057   7.249  12.536
51540W        W13071  26.017  32.396  11.118
51541W        W13072  25.498   9.783  12.562
51542W        W13073  36.532  37.053   4.674
51543W        W13074  40.365   9.783  12.008
51544W        W13075  42.445  25.186   4.348
51545W        W13076  27.945  34.875   0.889
51546W        W13077  14.817  35.515  12.429
51547W        W13078  34.947  17.183   4.787
51548W        W13079   5.294   6.311  12.439
51549W        W13080  38.991  33.536  14.443
51550W        W13081   6.726  31.543  14.477
51551W        W13082  10.702  42.405   2.309
51552W        W13083   4.822  20.563   4.746
51553W        W13084  44.875  23.189   0.289
51554W        W13085  33.490  24.161  13.828
51555W        W13086  20.033  17.801   4.706
51556W        W13087  21.539  40.834  13.535
51557W        W13088  13.751   6.363   4.815
51558W        W13089  26.498  44.756   0.416
51559W        W13090  14.305   0.340   1.719
51560W        W13091  42.968   8.281   1.921
51561W        W13092  31.018  28.614  10.590
51562W        W13093  21.627  18.663  14.370
51563W        W13094  10.864   1.262   0.898
51564W        W13095   7.788   7.229  11.892
51565W        W13096  38.938  12.670  10.636
51566W        W13097  31.032  30.440   0.869
51567W        W13098  17.290   6.356  10.121
51568W        W13099  26.517  24.491  13.942
51569W        W13100  42.451  22.544   2.840
51570W        W13101   7.799   2.741   1.230
51571W        W13102  32.590  35.096  11.091
51572W        W13103  41.041  15.293   2.876
51573W        W13104  14.294  14.694   4.121
51574W        W13105  37.404  18.778   1.372
51575W        W13106  32.937  21.638   4.793
51576W        W13107  35.401  38.336   4.655
51577W        W13108  12.697  27.534   3.713
51578W        W13109  41.976   0.375   0.867
51579W        W13110   9.191  29.018  14.322
51580W        W13111  37.085   2.426  14.761
51581W        W13112  38.042  26.573  13.010
51582W        W13113  17.128  43.422  13.435
51583W        W13114  18.278  30.637   0.909
51584W        W13115   5.803   2.429   4.688
51585W        W13116  27.474  21.094  11.562
51586W        W13117  17.680  11.151   0.250
51587W        W13118  25.968   6.888   1.907
51588W        W13119  37.923  15.609   4.317
51589W        W13120  30.998   1.918   3.323
51590W        W13121   4.734  39.036  13.536
51591W        W13122  38.000  37.415  11.913
51592W        W13123  35.586  40.432  10.135
51593W        W13124  37.531  28.141  10.637
51594W        W13125   7.184  28.648  10.454
51595W        W13126  35.377   4.441   0.744
51596W        W13127   6.726   5.832   3.237
51597W        W13128  14.702  28.036   0.413
51598W        W13129  13.115   6.232   5.276
51599W        W13130  26.694  42.808   0.936
51600W        W13131  26.663  15.629   2.896
51601W        W13132  16.595  14.300  14.367
51602W        W13133  35.501  40.002  10.408
51603W        W13134  37.066   6.242   0.433
51604W        W13135  18.183   7.767  11.921
51605W        W13136   6.815  39.035  13.917
51606W        W13137  21.232   8.722   1.784
51607W        W13138  13.165  34.027   4.685
51608W        W13139  24.128  24.040   3.648
51609W        W13140   0.254   1.305  12.365
51610W        W13141  38.867  35.942   4.320
51611W        W13142  29.067  15.094   2.328
51612W        W13143   1.376  36.893   4.306
51613W        W13144  12.184  11.639  11.919
51614W        W13145  37.837  40.424   2.337
51615W        W13146  18.113   2.451  14.377
51616W        W13147  30.607  27.520  12.435
51617W        W13148   6.270  32.611   1.297
51618W        W13149  40.496   3.409   1.238
51619W        W13150  10.321  24.722   3.321
51620W        W13151  25.187  14.315  14.778
51621W        W13152  26.543  18.259   2.210
51622W        W13153   1.964   5.413  12.914
51623W        W13154  17.763  26.022   3.795
51624W        W13155  24.690  36.589  12.539
51625W        W13156  13.257  34.422  12.007
51626W        W13157  21.573  11.669   1.389
51627W        W13158  35.401  31.411  14.924
51628W        W13159  30.523  21.597   1.296
51629W        W13160   1.958   9.874   2.737
51630W        W13161  34.600  28.603  11.118
51631W        W13162  33.937  43.500  13.039
51632W        W13163  29.629  18.250  14.381
51633W        W13164   2.411   4.893  11.080
51634W        W13165  22.510  28.618  11.587
51635W        W13166  28.493  44.920   2.313
51636W        W13167  33.457   7.687   2.366
51637W        W13168   9.651  39.961   3.376
51638W        W13169  17.177  35.598   4.226
51639W        W13170  32.450  26.461  11.026
51640W        W13171  21.052  27.574   3.374
51641W        W13172  16.675  31.045   5.256
51642W        W13173  16.620   5.321   0.319
51643W        W13174  39.883  28.583   0.769
51644W        W13175  44.946  30.525   1.213
51645W        W13176  44.979  34.915   4.127
51646W        W13177  21.516  14.163  12.092
51647W        W13178  16.791  24.003   2.402
51648W        W13179  35.480  35.396  11.501
51649W        W13180   5.772  25.693   4.260
51650W        W13181   3.383  39.934   9.983
51651W        W13182   4.823   6.716  14.795
51652W        W13183  15.766  40.384   0.389
51653W        W13184  32.484  39.485  10.597
51654W        W13185  29.631  27.635  13.412
51655W        W13186  40.425  34.557   3.704
51656W        W13187  14.157   4.413  13.481
51657W        W13188   5.702   0.977  12.000
51658W        W13189   5.818  17.730   3.335
51659W        W13190  26.956   3.460   4.196
51660W        W13191  13.651   9.316   1.408
51661W        W13192   1.450  21.532  10.408
51662W        W13193  21.077  12.335  14.805
51663W        W13194  17.161  18.253  12.489
51664W        W13195  16.672  12.330  13.358
51665W        W13196  32.075   3.868  14.331
51666W        W13197  40.835  31.988  10.465
51667W        W13198   0.354  41.813  14.467
51668W        W13199  20.147  40.976  11.110
51669W        W13200   3.291  13.176   5.199
51670W        W13201  33.957  14.228  13.920
51671W        W13202  37.464  34.599  14.448
51672W        W13203   9.798   5.795  11.981
51673W        W13204   0.394   8.664  11.120
51674W        W13205  13.145  14.278   0.864
51675W        W13206   3.281  44.318  12.848
51676W        W13207  32.473  43.333   2.318
51677W        W13208  19.615  12.190   2.286
51678W        W13209  29.142  19.144  10.461
51679W        W13210  18.723  11.692   2.238
51680W        W13211  39.033  18.054   3.210
51681W        W13212  30.974  40.007   1.309
51682W        W13213  22.107  10.825  14.795
51683W        W13214  34.910  16.313  14.028
51684W        W13215  36.565   5.867  10.472
51685W        W13216  31.062  24.667   0.359
51686W        W13217  39.363  19.259   4.737
51687W        W13218  32.039  21.747  10.909
51688W        W13219  35.367  22.225   2.833
51689W        W13220  32.509  37.440   3.256
51690W        W13221   4.712   8.813  12.562
51691W        W13222  18.109  35.102  11.017
51692W        W13223  39.947  23.698   2.227
51693W        W13224  17.111  26.108  10.917
51694W        W13225  39.987  43.278  14.864
51695W        W13226  32.576  34.035  11.516
51696W        W13227  14.187  23.004  14.322
51697W        W13228  11.684  19.575  11.058
51698W        W13229   4.733  32.978   3.343
51699W        W13230  18.644  39.002  11.585
51700W        W13231  42.970  16.631  12.833
51701W        W13232  17.610  32.024   2.354
51702W        W13233  12.201  28.543   3.253
51703W        W13234  27.993  44.370   0.314
51704W        W13235  22.140  30.159   1.370
51705W        W13236  12.362  20.194  13.792
51706W        W13237   7.749  11.369   0.346
51707W        W13238   4.821  34.510  14.789
51708W        W13239  17.238  31.986  10.534
51709W        W13240   2.403  44.830   1.385
51710W        W13241  20.527  20.132  11.410
51711W        W13242  35.981   8.358  10.127
51712W        W13243   8.257  29.077  13.064
51713W        W13244  34.513   5.298  10.465
51714W        W13245  11.740  25.695   2.778
51715W        W13246  34.012  24.138  10.406
51716W        W13247  24.974  34.373   0.462
51717W        W13248  25.690  15.103  14.424
51718W        W13249  41.485  24.555   2.368
51719W        W13250  14.709  20.040   1.368
51720W        W13251  14.259   9.878  11.436
51721W        W13252   1.828  27.692  12.576
51722W        W13253  10.722  21.218   3.274
51723W        W13254  13.744  37.893   2.351
51724W        W13255  12.654  27.558   4.737
51725W        W13256   2.733   6.342   4.641
51726W        W13257  37.920  33.511   2.339
51727W        W13258  20.626  30.437  11.945
51728W        W13259  16.811  36.582   2.178
51729W        W13260  19.629  15.698   1.759
51730W        W13261  17.305  39.350   3.258
51731W        W13262  22.137  39.530  14.410
51732W        W13263  24.491  15.596  10.447
51733W        W13264  15.098   5.354   3.860
51734W        W13265  34.495  36.058   2.295
51735W        W13266   6.289  29.158  10.451
51736W        W13267  15.631   1.466  12.403
51737W        W13268  36.543  37.083   2.180
51738W        W13269  26.525  34.465   1.705
51739W        W13270   9.393  27.173  12.909
51740W        W13271  25.984  28.164   1.268
51741W        W13272  24.998  43.372  10.425
51742W        W13273   5.293  38.027   3.305
51743W        W13274  28.177  42.974  11.922
51744W        W13275  10.199  12.759  14.353
51745W        W13276  28.542  39.462  11.524
51746W        W13277   8.776  12.827   1.933
51747W        W13278   0.753  11.298  10.084
51748W        W13279   2.434   3.368  12.943
51749W        W13280   1.890  25.552   0.892
51750W        W13281   2.440   7.263  11.970
51751W        W13282  33.961  39.323  14.374
51752W        W13283  10.297  44.910   0.729
51753W        W13284  33.890   0.791  11.973
51754W        W13285  22.550  33.476  14.422
51755W        W13286  27.988  26.978  13.792
51756W        W13287  21.197   3.717  13.927
51757W        W13288  26.029  30.907  12.428
51758W        W13289  43.349   1.408  12.849
51759W        W13290  22.708  28.021   3.763
51760W        W13291  28.537  32.010  10.436
51761W        W13292  12.317  37.931   1.391
51762W        W13293   7.873  14.238  10.905
51763W        W13294  39.876   8.871  12.050
51764W        W13295  41.984   8.355   2.677
51765W        W13296  37.886   5.821   0.476
51766W        W13297   1.461  10.163  11.920
51767W        W13298   2.853  25.567   0.936
51768W        W13299  25.484  23.561  11.858
51769W        W13300   9.768  12.619  14.989
51770W        W13301  19.668   9.264   2.710
51771W        W13302  43.919  17.792  13.396
51772W        W13303  22.583  32.512   0.943
51773W        W13304   3.377  39.374   1.342
51774W        W13305  35.047  32.449  10.603
51775W        W13306  16.169   0.824  10.630
51776W        W13307  13.223   8.699  10.499
51777W        W13308  22.200  15.329   1.756
51778W        W13309  23.570  12.270  14.910
51779W        W13310  31.087   4.274  14.279
51780W        W13311  39.377  43.767  10.488
51781W        W13312  29.042  12.725   4.165
51782W        W13313  25.707   5.376   1.216
51783W        W13314  34.456  10.675   1.713
51784W        W13315  19.631  24.037   0.871
51785W        W13316  33.568   8.380   4.796
51786W        W13317   1.363   8.279   2.337
51787W        W13318  28.965  19.040   1.808
51788W        W13319   9.270  39.033   0.309
51789W        W13320  11.813  15.774   0.281
51790W        W13321  27.109   5.343   3.207
51791W        W13322  10.657  31.052   4.245
51792W        W13323   5.836  28.159   0.884
51793W        W13324  33.100  17.258   0.856
51794W        W13325  12.846  42.337  12.444
51795W        W13326  16.608  16.642   4.716
51796W        W13327  38.557  31.018   1.710
51797W        W13328  30.126  26.527   2.791
51798W        W13329  11.233  26.602   1.798
51799W        W13330  15.771  20.534  11.921
51800W        W13331   5.856   4.337  12.049
51801W        W13332  16.590  34.083  11.941
51802W        W13333  20.724   7.686   1.847
51803W        W13334  31.485  28.656  11.450
51804W        W13335  34.542  10.379   0.930
51805W        W13336  43.016  36.382   2.747
51806W        W13337   6.235  43.957  12.518
51807W        W13338  10.371  24.003  14.796
51808W        W13339  38.537  12.734  12.518
51809W        W13340  17.105   3.255  12.078
51810W        W13341  29.098  17.070   0.797
51811W        W13342  36.916  43.443   2.369
51812W        W13343  26.172  41.804  12.929
51813W        W13344  19.149  13.606   4.729
51814W        W13345  23.608  30.965   3.776
51815W        W13346  30.422  28.545  11.868
51816W        W13347  36.860  35.959  12.446
51817W        W13348  21.742  22.740  14.921
51818W        W13349  41.921  44.995   1.328
51819W        W13350  31.953  15.088  10.403
51820W        W13351  34.463  37.492  12.481
51821W        W13352  34.895  44.266   2.358
51822W        W13353  24.551  34.083   4.301
51823W        W13354  28.460  31.439   4.835
51824W        W13355   3.791  20.706   0.804
51825W        W13356  36.856  27.476  14.934
51826W        W13357  18.133  12.851   3.334
51827W        W13358   1.930   4.404  11.382
51828W        W13359  13.806  29.447  14.395
51829W        W13360  12.800  21.241  13.866
51830W        W13361  29.453   3.276  11.432
51831W        W13362  20.088  10.818  11.960
51832W        W13363  35.560  42.507   0.261
51833W        W13364  11.834  15.171   2.374
51834W        W13365  31.644   2.443  11.903
51835W        W13366   7.206  30.049   3.635
51836W        W13367  26.538  40.005   2.687
51837W        W13368  26.010  36.914   2.751
51838W        W13369  33.877  21.210   2.325
51839W        W13370   3.251  12.210   4.215
51840W        W13371   8.682   3.794  11.490
51841W        W13372  34.004   4.419   4.606
51842W        W13373  21.075  17.203   0.246
51843W        W13374  30.054   7.242  11.568
51844W        W13375  24.504   0.821   0.955
51845W        W13376   6.405   8.334   4.119
51846W        W13377   4.816   3.814   1.699
51847W        W13378  40.936  17.717  13.323
51848W        W13379  31.550  33.588   9.974
51849W        W13380   6.417   1.757  11.575
51850W        W13381  30.956  18.677  14.860
51851W        W13382  36.481  16.590  10.129
51852W        W13383   2.844  22.151  11.461
51853W        W13384   6.835   8.207   0.396
51854W        W13385   8.262  20.169  14.319
51855W        W13386  19.046   7.904  13.036
51856W        W13387  19.179  42.981   2.717
51857W        W13388  26.962  24.657   3.215
51858W        W13389  14.240   2.747  12.917
51859W        W13390  17.611  19.049   3.249
51860W        W13391  13.206   0.377   2.761
51861W        W13392  19.576   9.213  14.420
51862W        W13393  24.994  32.888   9.992
51863W        W13394  36.888  20.719   1.279
51864W        W13395  30.139  33.066   2.324
51865W        W13396  24.573  39.949  10.053
51866W        W13397  11.313  12.252  10.986
51867W        W13398  41.877  19.149  14.328
51868W        W13399   9.213  32.543   4.292
51869W        W13400  33.568  42.845  10.463
51870W        W13401  35.449   6.425  12.955
51871W        W13402  29.615  28.020   3.761
51872W        W13403   8.349  32.634  13.532
51873W        W13404  25.053  26.173   2.759
51874W        W13405   9.345  30.442   0.374
51875W        W13406  14.786  12.174   2.834
51876W        W13407   5.302  11.718   2.877
51877W        W13408  27.688  27.629   4.316
51878W        W13409  11.658  23.560   4.269
51879W        W13410  26.607   1.434   1.807
51880W        W13411  20.654  16.284   0.394
51881W        W13412   5.245  29.530   0.740
51882W        W13413   7.774  16.185   0.247
51883W        W13414  37.023  29.558  12.428
51884W        W13415   5.375  35.585   0.353
51885W        W13416   6.747  18.229  12.340
51886W        W13417  15.609  15.097   4.642
51887W        W13418  29.596  25.154   1.325
51888W        W13419  24.076  25.110   2.200
51889W        W13420  21.090  15.676   0.756
51890W        W13421  17.253  36.427  11.983
51891W        W13422  35.098  24.181  13.867
51892W        W13423  22.500   2.966   3.260
51893W        W13424   1.440  41.532   4.698
51894W        W13425  19.256  26.654  12.834
51895W        W13426  10.688  18.788  11.480
51896W        W13427  32.118   7.878   0.398
51897W        W13428  43.435  37.344   1.295
51898W        W13429  42.467  12.224   4.281
51899W        W13430   3.393  20.733  12.091
51900W        W13431  40.045   8.706   4.177
51901W        W13432  25.014  27.943  11.507
51902W        W13433  23.498   0.879   0.434
51903W        W13434   3.794   5.228   0.894
51904W        W13435  41.874  27.052   1.264
51905W        W13436   7.862   9.669  12.966
51906W        W13437  44.492  11.852   0.309
51907W        W13438  36.486  41.532   2.700
51908W        W13439  44.854   0.942  12.092
51909W        W13440  23.112  34.087  13.817
51910W        W13441  11.714  26.517   4.750
51911W        W13442   1.877  20.752   1.863
51912W        W13443  12.818   9.807  10.913
51913W        W13444   1.861  29.064   3.822
51914W        W13445   2.924   9.759  11.427
51915W        W13446  20.056  44.989   0.287
51916W        W13447  14.741  27.485  13.879
51917W        W13448   6.361  44.781  10.437
51918W        W13449  31.492  33.002  10.954
51919W        W13450  33.508  43.372  10.577
51920W        W13451  21.631  17.606  14.951
51921W        W13452  29.617  19.600  13.056
51922W        W13453  17.175  39.425  13.013
51923W        W13454   1.392  24.032   3.630
51924W        W13455   9.258  39.988   4.820
51925W        W13456  31.539  12.675   0.262
51926W        W13457  40.947  19.686   2.303
51927W        W13458  18.056  15.301   3.705
51928W        W13459  35.920   3.881   4.770
51929W        W13460  30.452   4.726  11.389
51930W        W13461  30.124  11.794   9.999
51931W        W13462  21.096  24.529   2.261
51932W        W13463  31.144  31.124   3.663
51933W        W13464  12.139  14.716  12.415
51934W        W13465  36.092  28.145  14.468
51935W        W13466  39.553  19.092  14.297
51936W        W13467  35.570  16.294  12.068
51937W        W13468  38.471  24.698  10.517
51938W        W13469  11.224  26.465   1.284
51939W        W13470  39.046  35.397   0.396
51940W        W13471  16.302  22.725  13.940
51941W        W13472  28.565   4.728  13.374
51942W        W13473  31.556  15.312  10.090
51943W        W13474  18.185   9.878   0.779
51944W        W13475  40.994  12.659  11.610
51945W        W13476  25.191  40.996   0.269
51946W        W13477  30.535   1.257   0.921
51947W        W13478  14.096  34.115  11.124
51948W        W13479  35.476  24.483   1.875
51949W        W13480   6.319  32.503   3.832
51950W        W13481  39.362   1.777  14.429
51951W        W13482  32.608  18.193  13.959
51952W        W13483  19.597  28.529  12.432
51953W        W13484  17.614  17.258   1.823
51954W        W13485   5.702  27.002   3.384
51955W        W13486   5.292  43.347  14.972
51956W        W13487  19.163  41.406   1.228
51957W        W13488  24.156  31.017  13.488
51958W        W13489  15.600  38.535   1.884
51959W        W13490  22.064   5.695   1.236
51960W        W13491  40.883  28.579  14.868
51961W        W13492  37.528  39.005  13.943
51962W        W13493  31.914  36.066  10.644
51963W        W13494  24.724  20.663   4.837
51964W        W13495  24.000  24.687  12.979
51965W        W13496  12.733  38.420  12.014
51966W        W13497  13.734  36.361  14.460
51967W        W13498  26.574  33.090  14.507
51968W        W13499  35.001  38.919  11.083
51969W        W13500   4.717  25.644  10.993
51970W        W13501  18.296   0.269   3.300
51971W        W13502  11.285  29.434   1.881
51972W        W13503  27.145  18.670  13.901
51973W        W13504   4.738  42.333  11.995
51974W        W13505  16.723  26.983   0.751
51975W        W13506   5.847  32.897  14.458
51976W        W13507  32.611  10.842  11.919
51977W        W13508  12.357  23.990  14.296
51978W        W13509  15.741  20.547  11.015
51979W        W13510   4.425   5.272  10.957
51980W        W13511  39.449  12.287  14.290
51981W        W13512   6.421  15.247  14.818
51982W        W13513  30.460   7.306  10.988
51983W        W13514  29.643  43.890   0.865
51984W        W13515   8.326  42.885   0.765
51985W        W13516  41.523  44.486  13.462
51986W        W13517  39.843  41.432  11.870
51987W        W13518   8.855  27.996   4.675
51988W        W13519  15.658  37.555  13.513
51989W        W13520  11.685  20.095   0.327
51990W        W13521  12.188  37.380  11.540
51991W        W13522  16.659  26.070  14.870
51992W        W13523  41.334  26.037  11.108
51993W        W13524  25.004  25.579   3.147
51994W        W13525   0.471  16.740   0.767
51995W        W13526   3.416  30.988  11.022
51996W        W13527   4.719  30.940   1.891
51997W        W13528   3.361  35.438  14.293
51998W        W13529  28.498  20.536   3.836
51999W        W13530  29.635  27.551  11.890
52000W        W13531  31.448  12.641  13.483
52001W        W13532  40.926  27.074  13.813
52002W        W13533  31.525  24.512   0.312
52003W        W13534  39.493  41.471  10.921
52004W        W13535  18.564  11.686   1.450
52005W        W13536  16.268  12.226  14.378
52006W        W13537  18.747   0.493   2.305
52007W        W13538  33.561   7.182   1.908
52008W        W13539  40.969   1.334   0.429
52009W        W13540  19.566  10.669  11.612
52010W        W13541  37.066  34.065   1.419
52011W        W13542  41.405  39.045  14.929
52012W        W13543  17.680  29.175  13.466
52013W        W13544  39.843   6.777  12.549
52014W        W13545  10.228  44.428   3.226
52015W        W13546  32.948   7.818  13.033
52016W        W13547   4.345   0.832   0.270
52017W        W13548   8.405  14.753   0.828
52018W        W13549  27.034  24.227  14.509
52019W        W13550  12.799  23.655  14.906
52020W        W13551  28.996  22.173   1.797
52021W        W13552  16.190  16.670  14.839
52022W        W13553  29.608  25.985   2.414
52023W        W13554  20.266   4.317  14.810
52024W        W13555  31.528   9.765   4.230
52025W        W13556   9.645  16.142  10.968
52026W        W13557  29.945  31.914   5.149
52027W        W13558  13.272  22.600  14.022
52028W        W13559  33.094  10.159  10.598
52029W        W13560   9.771  42.825   2.697
52030W        W13561  25.179  43.440   0.444
52031W        W13562  35.560   0.359   3.734
52032W        W13563  12.253  32.462   0.294
52033W        W13564  31.954   6.239   5.316
52034W        W13565  40.048   2.314  13.843
52035W        W13566  24.514  28.593  11.991
52036W        W13567  29.497  22.050  13.315
52037W        W13568  20.219  29.454  12.548
52038W        W13569  41.431  33.998  13.322
52039W        W13570  37.834   1.835  11.532
52040W        W13571  23.681  25.542  14.427
52041W        W13572  20.251  17.094   0.924
52042W        W13573  19.724  16.795  11.069
52043W        W13574  18.634   2.363  10.934
52044W        W13575  24.657  20.208   1.722
52045W        W13576  31.552  15.156   3.226
52046W        W13577  10.366  34.079  11.094
52047W        W13578  18.598   6.296  11.500
52048W        W13579  40.521  42.850   0.471
52049W        W13580  10.753  28.489   3.333
52050W        W13581  39.383  42.916  14.803
52051W        W13582  35.436  36.024  12.900
52052W        W13583  12.712  19.056   3.856
52053W        W13584  16.300  36.032  13.502
52054W        W13585  38.452   5.830  10.460
52055W        W13586  27.638  19.565   1.238
52056W        W13587  22.065  27.151   2.321
52057W        W13588  37.045  28.616   4.667
52058W        W13589   3.231   1.268   2.240
52059W        W13590  32.516  33.941  13.434
52060W        W13591  33.969   5.232   3.343
52061W        W13592   7.787   1.417  14.805
52062W        W13593  40.438  16.169  13.885
52063W        W13594  23.526   4.764   4.312
52064W        W13595  19.186  41.909   3.244
52065W        W13596  41.998  19.674  10.091
52066W        W13597  41.793  35.434   4.132
52067W        W13598   7.855  27.512  12.916
52068W        W13599  18.181  43.342  13.870
52069W        W13600   8.363  35.418   0.889
52070W        W13601  34.597  15.626  13.340
52071W        W13602  11.221  29.514  11.084
52072W        W13603  29.961  24.176   3.796
52073W        W13604   9.271   9.321   4.837
52074W        W13605  20.125   0.292   1.419
52075W        W13606  31.129  37.981  13.851
52076W        W13607  31.498  35.035  11.512
52077W        W13608  42.409   7.354   4.648
52078W        W13609  14.782   9.343   3.363
52079W        W13610  17.071  37.012  12.344
52080W        W13611  36.503   8.353   0.822
52081W        W13612  27.548  31.961  10.536
52082W        W13613   7.782  29.097   0.940
52083W        W13614  17.572   5.423  13.808
52084W        W13615   4.337  40.468  14.430
52085W        W13616  22.603  33.416  10.467
52086W        W13617  11.337  16.082   3.356
52087W        W13618   3.910  28.965  11.418
52088W        W13619  41.428  23.147  14.468
52089W        W13620   0.311  30.645   2.237
52090W        W13621  23.649  43.007  14.277
52091W        W13622  19.734  43.502   4.799
52092W        W13623  42.308  29.584   2.180
52093W        W13624  39.995  16.242   1.858
52094W        W13625  15.710  29.056  12.047
52095W        W13626   4.898  14.209  12.373
52096W        W13627  17.708  27.608   3.786
52097W        W13628  29.124  11.643  11.904
52098W        W13629  34.039  22.511   1.336
52099W        W13630  14.319  16.097  11.525
52100W        W13631   8.747  19.712  10.160
52101W        W13632  18.745  13.336   4.735
52102W        W13633  20.229  18.207  11.894
52103W        W13634  43.437   5.741  13.030
52104W        W13635  24.614   9.798  11.091
52105W        W13636  12.790  20.165  13.382
52106W        W13637  27.502  15.632  11.440
52107W        W13638  13.730  22.544   2.385
52108W        W13639  42.354  25.623  10.462
52109W        W13640  28.488  16.678   2.822
52110W        W13641  19.179  43.329   0.430
52111W        W13642  44.766   9.342  11.963
52112W        W13643  15.635   2.355   2.371
52113W        W13644  32.029  13.704   4.715
52114W        W13645   1.738   5.711   4.200
52115W        W13646  13.717  11.650  13.474
52116W        W13647  27.544  21.643  10.479
52117W        W13648  38.449  27.977   1.329
52118W        W13649  37.540  41.481  12.920
52119W        W13650   5.854   1.433  13.812
52120W        W13651  16.217   7.235   0.907
52121W        W13652  18.615  27.024   2.841
52122W        W13653  15.789  17.742   2.716
52123W        W13654   9.671  29.626  10.515
52124W        W13655  31.098   8.356   5.198
52125W        W13656  29.582  37.911   0.727
52126W        W13657  35.494  30.525  12.459
52127W        W13658  40.323  33.449  13.806
52128W        W13659  15.127  29.066   1.922
52129W        W13660  14.754  43.864  11.538
52130W        W13661   4.343  21.683   1.854
52131W        W13662  17.288  11.860   1.800
52132W        W13663   6.835  13.625   1.367
52133W        W13664  13.211  32.071   3.740
52134W        W13665  10.860  11.136   2.186
52135W        W13666  32.590   2.764  13.331
52136W        W13667  20.595  40.044  12.568
52137W        W13668  41.011  19.123   0.310
52138W        W13669  25.673   5.710  14.355
52139W        W13670  43.011  31.943   3.313
52140W        W13671  41.835  29.452  10.545
52141W        W13672  34.082  20.139  10.645
52142W        W13673  38.526  33.517  10.956
52143W        W13674  26.138  22.037  11.028
52144W        W13675  15.250  29.045  13.956
52145W        W13676  36.441   4.429   4.231
52146W        W13677   2.351  35.505   3.311
52147W        W13678  37.357  27.149  14.507
52148W        W13679  11.152  44.849  11.105
52149W        W13680   9.733  24.220  14.411
52150W        W13681   0.259  32.984  14.286
52151W        W13682  44.924  26.078   3.203
52152W        W13683  30.425  39.496  13.998
52153W        W13684  18.554  44.854  11.875
52154W        W13685  28.596   0.958   3.871
52155W        W13686  44.369  17.237  14.346
52156W        W13687  26.521  33.042   2.281
52157W        W13688  38.393  27.669  13.520
52158W        W13689  11.709  20.263   2.775
52159W        W13690   4.789  43.286  14.450
52160W        W13691  28.129   9.849  13.950
52161W        W13692  19.749  29.103  13.037
52162W        W13693   8.722  18.702  13.026
52163W        W13694  16.703  11.716   3.220
52164W        W13695   9.698   0.889  12.969
52165W        W13696   7.205  41.932   4.130
52166W        W13697  29.057  31.599  13.957
52167W        W13698  13.652  23.554  14.925
52168W        W13699  14.144  36.494   4.703
52169W        W13700   1.386  26.474   0.279
52170W        W13701  24.168  28.009  13.877
52171W        W13702  17.580  27.054  12.921
52172W        W13703  19.533  20.541   2.901
52173W        W13704  28.036  28.635  10.917
52174W        W13705  29.151  27.545  13.334
52175W        W13706   3.324   1.869   1.913
52176W        W13707  34.101  17.799   4.822
52177W        W13708  17.295  18.600  11.471
52178W        W13709  29.480  42.515  10.522
52179W        W13710  38.495   0.417  14.903
52180W        W13711  20.100  39.976   2.335
52181W        W13712  19.535  16.300  12.000
52182W        W13713  21.136  25.967   3.650
52183W        W13714   1.388  41.006   2.751
52184W        W13715  29.111   8.847   4.330
52185W        W13716  25.510  13.289  12.348
52186W        W13717  41.916  10.236   0.391
52187W        W13718  25.159   1.283   3.323
52188W        W13719  25.123   5.290  10.935
52189W        W13720  21.052  21.670  11.114
52190W        W13721  24.564   6.369  14.886
52191W        W13722   3.249  44.363  11.418
52192W        W13723  42.953   8.803   3.174
52193W        W13724  17.777  28.579  14.502
52194W        W13725  22.634   6.399   4.762
52195W        W13726  21.622   7.188  14.878
52196W        W13727   9.223   0.275  11.591
52197W        W13728  43.492  44.834  14.006
52198W        W13729  22.734  17.144  11.891
52199W        W13730  13.713   6.338  12.364
52200W        W13731  34.432  33.415   4.695
52201W        W13732  31.115   8.891   1.826
52202W        W13733   8.275  30.049   4.340
52203W        W13734  18.251  12.149   2.683
52204W        W13735  37.948  32.544  14.377
52205W        W13736  24.572   6.772   3.325
52206W        W13737   3.429  23.177   1.844
52207W        W13738  17.253  16.173   0.965
52208W        W13739  22.181  13.638  13.020
52209W        W13740   3.362  40.826  14.300
52210W        W13741  40.912  42.412  11.508
52211W        W13742  17.634   4.406  12.908
52212W        W13743  44.929  37.005  13.374
52213W        W13744  24.548  11.199  13.956
52214W        W13745   5.340  42.867  12.544
52215W        W13746  41.024   6.283  12.077
52216W        W13747  41.932  31.640  13.484
52217W        W13748  14.798   9.377   1.294
52218W        W13749  43.937  11.270   2.790
52219W        W13750  33.421  43.935   4.803
52220W        W13751  25.143  18.211  13.062
52221W        W13752  38.942  41.527  10.423
52222W        W13753  20.202  12.789   4.121
52223W        W13754  16.569  33.503   1.723
52224W        W13755  36.008  11.160  11.119
52225W        W13756  20.079  38.362   2.379
52226W        W13757  35.595   4.370   1.342
52227W        W13758  44.340   3.807  13.795
52228W        W13759  37.956   3.308   3.773
52229W        W13760   0.469  12.144   1.258
52230W        W13761  16.257  32.504   0.871
52231W        W13762  33.065   6.774   3.221
52232W        W13763  44.920  37.376  11.463
52233W        W13764   2.812  10.215   1.751
52234W        W13765  34.571   7.248  13.437
52235W        W13766  37.364  37.353  14.502
52236W        W13767  14.135  23.237  14.012
52237W        W13768  27.117  22.505  12.390
52238W        W13769  15.184  12.284   0.937
52239W        W13770  36.575  39.982  10.967
52240W        W13771  41.897  14.791  12.947
52241W        W13772   2.329  20.155  14.345
52242W        W13773   8.161  20.118   4.790
52243W        W13774  21.044  17.707  11.591
52244W        W13775  44.411  29.633  14.968
52245W        W13776  11.735  18.173  11.541
52246W        W13777  28.441  17.112  14.934
52247W        W13778   0.950   8.878  13.403
52248W        W13779  17.140  17.275   9.996
52249W        W13780  43.434  30.129  13.547
52250W        W13781  33.515  12.661   0.799
52251W        W13782  22.249  18.240  11.544
52252W        W13783  27.682  29.573   4.347
52253W        W13784  39.485  10.661  12.877
52254W        W13785  26.672  12.350  14.419
52255W        W13786  26.027  30.596   2.178
52256W        W13787  41.856  28.489   4.740
52257W        W13788   8.789  14.832  11.089
52258W        W13789  10.175  42.009  11.587
52259W        W13790  26.527  10.861   2.419
52260W        W13791  12.159  41.798  10.581
52261W        W13792   4.224  41.406   2.723
52262W        W13793  14.828   4.769  10.933
52263W        W13794  44.327  44.503  12.471
52264W        W13795   7.823  38.918  13.544
52265W        W13796  43.311   6.352   3.313
52266W        W13797  37.966  36.527  10.488
52267W        W13798  19.723  13.731  14.415
52268W        W13799   6.801  11.173   4.685
52269W        W13800  44.865  39.473   1.893
52270W        W13801  16.245   8.844  13.358
52271W        W13802   9.889  33.586   1.237
52272W        W13803  37.403  16.680   9.956
52273W        W13804  12.319  23.622  11.908
52274W        W13805  43.012  38.937  13.923
52275W        W13806  25.097   8.876  12.460
52276W        W13807   8.724  16.650   3.664
52277W        W13808  36.026  28.513   4.157
52278W        W13809  43.967   1.961  14.933
52279W        W13810  23.643  17.714  11.551
52280W        W13811  20.663  21.743  14.021
52281W        W13812   5.243   3.375   3.378
52282W        W13813  34.929  30.637  13.996
52283W        W13814  38.019  23.149  11.912
52284W        W13815  34.516   6.783  12.416
52285W        W13816  36.980  20.272  11.043
52286W        W13817  39.359  20.611   3.659
52287W        W13818  37.356  20.556  10.913
52288W        W13819  20.764  34.456   4.709
52289W        W13820  11.670  34.880  13.000
52290W        W13821   7.273  19.564  12.062
52291W        W13822  20.096  10.160   2.819
52292W        W13823  33.611  34.407   2.187
52293W        W13824  12.180  42.491  14.377
52294W        W13825  44.418   6.365   9.937
52295W        W13826  22.721  27.968   0.947
52296W        W13827  36.412  11.641   1.272
52297W        W13828  15.243  30.414  12.900
52298W        W13829  23.661   8.877  13.403
52299W        W13830  31.085  37.402  10.524
52300W        W13831  28.506   5.689  11.523
52301W        W13832  24.002  38.555   1.833
52302W        W13833  30.138   0.442  13.818
52303W        W13834  29.989  30.069   2.803
52304W        W13835  44.494  27.034  11.384
52305W        W13836   2.266   3.725   4.615
52306W        W13837  36.460  30.600  10.955
52307W        W13838   8.406  26.583  11.072
52308W        W13839  29.462  39.509   3.317
52309W        W13840  40.364  22.698   4.158
52310W        W13841  33.089  21.595  10.590
52311W        W13842  39.957  21.621   4.600
52312W        W13843  43.872   4.792   4.624
52313W        W13844   6.397   0.951  13.794
52314W        W13845  32.002   2.454   3.330
52315W        W13846  23.077  41.966   0.422
52316W        W13847  42.450  28.173   4.688
52317W        W13848  19.729  38.069  13.368
52318W        W13849  23.723  28.655   3.228
52319W        W13850   9.696   3.854   0.475
52320W        W13851   3.939   2.429  14.020
52321W        W13852  28.499   6.732   3.338
52322W        W13853  32.566  40.875   0.961
52323W        W13854  18.071  14.696   0.836
52324W        W13855  23.198   8.247   4.142
52325W        W13856   2.838  37.436   3.171
52326W        W13857  17.203  19.153   3.254
52327W        W13858  34.536  20.262  11.124
52328W        W13859  26.479  19.251  14.767
52329W        W13860  18.291  39.962  11.451
52330W        W13861  14.145  14.117  11.462
52331W        W13862  18.606  19.175   3.787
52332W        W13863  41.796  33.885  10.407
52333W        W13864  23.190  39.017  12.433
52334W        W13865  19.647  34.944   0.400
52335W        W13866  10.288  12.240   1.434
52336W        W13867  27.959  34.001   2.780
52337W        W13868  19.633  32.907   1.788
52338W        W13869  31.509   2.846  14.897
52339W        W13870   6.414  27.690   0.468
52340W        W13871  35.951  15.594  11.471
52341W        W13872  18.742  37.923  10.589
52342W        W13873  20.068  33.047   2.726
52343W        W13874  26.686  17.577   4.671
52344W        W13875  16.077  22.593   3.722
52345W        W13876  16.791   5.327  14.854
52346W        W13877  17.761   8.218  12.069
52347W        W13878  17.163  43.418   4.638
52348W        W13879  13.229  43.285  11.518
52349W        W13880  27.519   6.829  13.840
52350W        W13881  29.520   0.279   1.341
52351W        W13882  15.585  20.583  10.567
52352W        W13883   9.203   2.834  14.812
52353W        W13884  15.704  34.445  12.355
52354W        W13885   6.808  34.005  12.993
52355W        W13886  12.229  15.170   2.847
52356W        W13887   7.771   4.931  10.438
52357W        W13888   9.747  38.513   3.767
52358W        W13889  24.207  17.800  13.875
52359W        W13890  31.469  42.382  11.488
52360W        W13891  42.785  17.773  14.285
52361W        W13892  32.459  21.163   1.350
52362W        W13893  35.417  33.435   0.459
52363W        W13894  16.204  35.557   4.153
52364W        W13895  15.320  10.692   0.467
52365W        W13896  28.534  27.145  13.813
52366W        W13897  39.829   0.763  10.466
52367W        W13898   5.735  25.125   0.867
52368W        W13899  17.184  19.213   2.823
52369W        W13900  40.313   1.755   3.718
52370W        W13901  43.892   3.735  13.384
52371W        W13902  12.223   3.939   1.793
52372W        W13903  42.820  12.736  10.405
52373W        W13904  17.728  37.969   2.865
52374W        W13905  29.933  12.245  10.590
52375W        W13906  18.084  17.151  13.859
52376W        W13907  40.813   8.655   4.193
52377W        W13908  40.431  25.551  11.899
52378W        W13909  35.457  21.608  13.316
52379W        W13910  27.458   3.885   2.384
52380W        W13911  32.567  19.681  13.527
52381W        W13912  41.447  12.192  14.497
52382W        W13913  42.887  37.039  14.791
52383W        W13914   6.829  26.112   1.848
52384W        W13915  10.854  20.084   2.708
52385W        W13916  23.034  42.474  14.792
52386W        W13917  42.356  14.717  14.997
52387W        W13918  33.883  11.753  12.506
52388W        W13919   0.950  39.336  14.422
52389W        W13920  30.065  26.670  11.483
52390W        W13921   6.820  37.457   4.716
52391W        W13922  16.270  21.100  12.986
52392W        W13923  37.476  40.852   3.670
52393W        W13924   2.931  32.917  11.427
52394W        W13925  24.518  35.881  12.400
52395W        W13926  22.600   4.822   1.749
52396W        W13927  15.196   8.677  12.374
52397W        W13928  24.201  42.833   5.252
52398W        W13929   3.738   9.346   2.242
52399W        W13930  31.996  11.334   1.846
52400W        W13931  13.782  37.472   0.295
52401W        W13932  29.470   2.730  13.400
52402W        W13933  10.238   2.315  13.960
52403W        W13934  30.501  33.532   1.896
52404W        W13935  17.120   1.900  11.020
52405W        W13936  17.205  36.520  12.870
52406W        W13937   4.847  41.520  14.377
52407W        W13938  34.510  21.242   4.647
52408W        W13939  10.686  43.765  10.525
52409W        W13940  38.849  34.897  12.476
52410W        W13941  31.053  30.463  11.993
52411W        W13942   5.199   6.299   2.302
52412W        W13943   7.710   6.708  11.375
52413W        W13944  39.965  23.172   4.148
52414W        W13945  40.338  24.187  11.569
52415W        W13946  26.118  14.746   1.764
52416W        W13947  30.053  31.080  10.924
52417W        W13948  28.537   9.337  11.965
52418W        W13949  21.087  44.474  10.525
52419W        W13950  36.542   3.766  12.398
52420W        W13951  32.517  13.625  13.993
52421W        W13952  28.464  30.160   1.364
52422W        W13953   9.785  15.317   2.256
52423W        W13954  10.712  30.083   1.225
52424W        W13955  29.626   5.237   0.816
52425W        W13956  11.144  10.252  14.891
52426W        W13957  12.333  10.203   4.159
52427W        W13958  31.605  29.933  12.990
52428W        W13959   7.222  21.126   0.877
52429W        W13960  44.444  11.297   4.183
52430W        W13961  26.976  41.348  14.480
52431W        W13962  18.744  31.428  12.342
52432W        W13963  34.085  34.545   5.177
52433W        W13964   6.318   9.323   1.287
52434W        W13965  18.223   7.894  10.623
52435W        W13966  33.492  43.463  11.114
52436W        W13967  30.056   0.424  11.979
52437W        W13968  24.211  35.978  10.898
52438W        W13969  38.840  40.304   1.772
52439W        W13970  31.547   5.925   2.186
52440W        W13971  42.455  44.800   3.768
52441W        W13972  39.338  14.697  14.793
52442W        W13973  13.189  28.980   1.806
52443W        W13974   1.936   3.732   0.917
52444W        W13975  20.762  22.077   2.668
52445W        W13976  41.797  40.014   3.361
52446W        W13977  35.065   3.954  10.990
52447W        W13978   2.878   2.260  14.844
52448W        W13979  12.259  26.476  11.873
52449W        W13980  33.059  27.489  10.952
52450W        W13981  25.195  44.266   2.268
52451W        W13982  27.092  18.769  12.569
52452W        W13983   3.814  32.605   0.273
52453W        W13984  12.134  33.583  13.899
52454W        W13985  19.067  30.934  13.462
52455W        W13986   5.726  20.675   1.740
52456W        W13987  38.552  24.020   2.285
52457W        W13988  21.540   8.233   4.613
52458W        W13989   8.826   0.474   0.372
52459W        W13990  37.531  40.947   2.878
52460W        W13991  26.465  44.800  14.926
52461W        W13992  38.893   0.269   1.362
52462W        W13993  42.319  27.622   1.294
52463W        W13994  44.957   7.347  12.356
52464W        W13995  32.001  18.215  14.895
52465W        W13996  27.591  21.668  13.915
52466W        W13997  29.994  43.780   4.296
52467W        W13998  12.745  21.075   1.369
52468W        W13999  24.696  28.186  14.879
52469W        W14000  36.535  37.924  11.986
52470W        W14001  35.924  25.154   1.797
52471W        W14002  35.494  27.060   1.284
52472W        W14003  19.763  38.071  11.009
52473W        W14004  20.048   6.834  11.911
52474W        W14005   3.219  44.412  10.008
52475W        W14006  13.780  29.520   3.834
52476W        W14007  31.914  26.001   3.860
52477W        W14008  17.136  14.792  11.374
52478W        W14009  35.012  25.076  14.978
52479W        W14010   8.820  36.936  13.394
52480W        W14011  39.960  30.136   0.919
52481W        W14012  20.522   5.439   3.679
52482W        W14013  38.010  41.019   4.721
52483W        W14014   7.676  43.950  10.576
52484W        W14015  38.005   3.356   0.818
52485W        W14016  41.960  32.410  12.048
52486W        W14017  17.683   7.818   1.296
52487W        W14018  23.107  16.235   2.382
52488W        W14019   2.299  37.559  10.571
52489W        W14020  13.120  33.043   0.252
52490W        W14021  28.634  20.523  14.397
52491W        W14022  14.290  10.735  14.406
52492W        W14023  22.745  30.611  14.325
52493W        W14024  22.037  36.854  14.408
52494W        W14025  29.492  32.128   5.292
52495W        W14026  39.879  20.655   0.340
52496W        W14027  44.753  41.484  13.396
52497W        W14028  31.449  18.272   0.941
52498W        W14029   6.418  22.585  14.009
52499W        W14030  24.172   1.905   1.766
52500W        W14031  30.910  41.830  14.802
52501W        W14032  18.138   7.854  13.322
52502W        W14033  39.056  32.614  12.937
52503W        W14034   6.693  22.603  13.835
52504W        W14035   1.329   2.236   2.738
52505W        W14036  30.568  26.530   1.324
52506W        W14037  12.832  41.892  10.514
52507W        W14038  17.185  21.596  11.495
52508W        W14039  10.829  11.180  11.906
52509W        W14040   9.659  38.337  12.968
52510W        W14041  30.080  29.524  11.446
52511W        W14042  34.032   9.215  13.465
52512W        W14043  32.035  30.932   3.193
52513W        W14044  36.991  10.324  12.463
52514W        W14045   8.894  36.531  13.520
52515W        W14046   9.250  11.647   4.297
52516W        W14047  26.978   7.261   0.953
52517W        W14048  12.716   5.870  13.051
52518W        W14049  23.493  25.663   4.341
52519W        W14050  17.593  44.851  14.855
52520W        W14051  24.707  44.337  13.473
52521W        W14052  21.158  40.310  12.888
52522W        W14053  40.032  27.017   2.687
52523W        W14054  19.246   2.775   0.742
52524W        W14055   1.275  13.839   1.378
52525W        W14056  42.880  25.111   3.703
52526W        W14057  12.633   1.963   2.867
52527W        W14058  42.311  26.677  10.608
52528W        W14059  10.166  41.489   3.356
52529W        W14060  28.977   1.370   1.776
52530W        W14061  23.595  29.118   0.730
52531W        W14062  43.913  39.064   0.826
52532W        W14063   0.798  17.160  13.358
52533W        W14064  10.217  18.247  14.957
52534W        W14065  18.054  27.945   0.332
52535W        W14066  24.025  40.350   1.315
52536W        W14067  41.314  29.612  11.043
52537W        W14068  15.815  26.158   0.385
52538W        W14069  42.323   3.271  13.797
52539W        W14070  15.154  21.530   0.815
52540W        W14071   4.266  28.181  14.958
52541W        W14072   2.827  20.628   3.195
52542W        W14073  29.431   7.213   4.657
52543W        W14074   4.822  23.997  13.384
52544W        W14075  31.989  17.769   0.439
52545W        W14076  16.272  32.497   1.843
52546W        W14077  11.330  44.950  14.384
52547W        W14078  15.294  10.244   0.954
52548W        W14079  15.757  31.106   0.470
52549W        W14080  14.311  22.248  12.936
52550W        W14081  14.824  38.843  10.557
52551W        W14082  29.146  35.414   3.177
52552W        W14083  24.529  37.347  11.524
52553W        W14084  30.102  37.513   3.211
52554W        W14085   6.218  40.331   5.197
52555W        W14086  10.720  35.860   0.338
52556W        W14087   4.853  43.877  11.531
52557W        W14088   1.785  44.975   1.745
52558W        W14089  15.271  28.513  13.953
52559W        W14090  21.689   2.316   3.844
52560W        W14091   2.893  23.690   0.936
52561W        W14092   5.394   5.205  11.548
52562W        W14093  31.504  12.200   0.268
52563W        W14094  23.077  26.976   4.612
52564W        W14095   2.249   4.298   3.737
52565W        W14096  17.152  16.120  10.488
52566W        W14097   5.232   1.774  11.559
52567W        W14098  39.975  18.166   0.920
52568W        W14099  29.135  38.062  14.832
52569W        W14100  33.453  20.735  11.434
52570W        W14101  32.559  11.342   4.278
52571W        W14102  32.560  31.126   1.424
52572W        W14103  10.379  31.464   0.318
52573W        W14104  39.399  38.416   4.120
52574W        W14105  28.666  16.662  12.505
52575W        W14106  26.172  13.707  14.296
52576W        W14107  32.417   5.899   4.678
52577W        W14108  12.851   4.848  14.328
52578W        W14109  37.426  43.364  11.080
52579W        W14110  14.303  14.340   2.686
52580W        W14111  32.512  35.993   4.826
52581W        W14112  34.495   1.973  14.920
52582W        W14113  27.527  39.373   3.158
52583W        W14114  33.430  32.558   3.858
52584W        W14115  27.482  34.050   0.311
52585W        W14116  42.291   7.294  10.487
52586W        W14117  32.048   3.399  14.960
52587W        W14118  30.922  44.368   4.810
52588W        W14119  38.499  10.383   4.667
52589W        W14120   6.210  29.659  13.846
52590W        W14121  39.030  20.709  10.894
52591W        W14122  14.599  36.538  12.848
52592W        W14123  19.102   1.976   3.764
52593W        W14124  18.189  44.807  13.535
52594W        W14125   8.344  37.024   3.148
52595W        W14126  34.072   3.253   0.414
52596W        W14127   5.718  36.045  14.765
52597W        W14128  32.999   4.263  14.368
52598W        W14129  19.757  30.618   2.780
52599W        W14130   5.416   9.868  12.572
52600W        W14131  15.124  17.566   1.341
52601W        W14132  17.240   7.796   0.407
52602W        W14133   0.461  11.174   0.839
52603W        W14134  21.143  10.233  10.508
52604W        W14135   3.799  42.347  14.887
52605W        W14136  26.546  36.528   3.711
52606W        W14137  21.219  44.418   4.806
52607W        W14138  18.743  21.520  12.927
52608W        W14139  34.034  22.667  13.506
52609W        W14140   1.391   8.892  13.443
52610W        W14141  44.989  39.009   4.786
52611W        W14142  32.020  30.945   2.257
52612W        W14143  21.085  40.316  13.919
52613W        W14144   7.258   0.765   3.769
52614W        W14145   7.243  33.551   3.695
52615W        W14146  43.326  21.717   4.317
52616W        W14147   2.823   6.817  11.888
52617W        W14148  30.649  15.278  14.917
52618W        W14149   1.335   5.370   0.737
52619W        W14150  41.372  40.959   4.262
52620W        W14151   8.183  38.868  14.857
52621W        W14152  34.049  31.437  12.387
52622W        W14153  18.182  14.305   1.438
52623W        W14154   7.746  13.637   4.654
52624W        W14155  17.696   2.284  12.481
52625W        W14156   2.770  34.096   4.240
52626W        W14157  27.676   4.897  14.997
52627W        W14158  38.845  24.578   2.220
52628W        W14159  40.432  13.176   2.188
52629W        W14160  14.824  10.805   0.794
52630W        W14161   8.358  28.656   1.276
52631W        W14162  33.105   6.798  12.569
52632W        W14163  40.435  12.323   3.697
52633W        W14164  29.601  14.190  11.574
52634W        W14165   4.344  37.491  12.043
52635W        W14166  18.215  35.468  13.812
52636W        W14167  36.484   1.341  11.023
52637W        W14168  15.154  15.688   1.774
52638W        W14169  16.577  36.430   2.751
52639W        W14170  25.596  35.530  12.500
52640W        W14171  17.660  34.583   4.325
52641W        W14172  39.357   8.272  12.961
52642W        W14173  14.289   7.756  10.575
52643W        W14174  22.547  12.854   4.136
52644W        W14175  24.185   3.750   1.777
52645W        W14176   2.403   8.171  10.596
52646W        W14177  26.208  42.842   3.724
52647W        W14178  36.489   1.433  12.967
52648W        W14179  12.629  32.131   2.275
52649W        W14180   0.817   0.944  11.555
52650W        W14181  23.603  10.373  11.054
52651W        W14182  43.883  10.278   4.188
52652W        W14183   8.847  25.682   3.318
52653W        W14184   1.329  27.603  14.300
52654W        W14185  31.628   3.902   4.636
52655W        W14186   8.704   8.317  13.994
52656W        W14187  11.763  32.898  11.055
52657W        W14188  22.041  27.678   3.752
52658W        W14189   2.308   3.949   0.924
52659W        W14190  21.082   9.778   4.647
52660W        W14191   2.455  32.970  13.045
52661W        W14192  34.427  25.145   3.269
52662W        W14193  15.329   4.863   2.890
52663W        W14194  19.626   7.756   3.352
52664W        W14195  23.557  25.700  13.912
52665W        W14196  29.148  28.166   0.951
52666W        W14197  15.109  24.716   3.748
52667W        W14198  20.155   9.814  12.481
52668W        W14199  29.475  11.699   0.890
52669W        W14200  28.544  19.208   4.282
52670W        W14201   0.255  33.531  14.993
52671W        W14202  16.696   3.876  14.002
52672W        W14203  13.687   9.649  14.802
52673W        W14204  27.452  32.629   0.280
52674W        W14205  41.032  31.070  11.035
52675W        W14206  41.474  19.150   0.935
52676W        W14207  29.564  16.208  14.305
52677W        W14208  30.123  42.812  13.058
52678W        W14209  21.134  37.502   4.320
52679W        W14210  43.275  44.908   4.225
52680W        W14211  24.073  20.675   4.130
52681W        W14212  28.142   7.713   0.962
52682W        W14213  44.893  15.786  13.324
52683W        W14214  33.389  13.700  11.583
52684W        W14215  42.871  14.644  13.337
52685W        W14216  14.234  38.346  10.909
52686W        W14217  13.784  39.354  14.306
52687W        W14218  15.227  39.314   2.886
52688W        W14219  31.592  10.336  10.559
52689W        W14220  26.561  37.452   5.281
52690W        W14221   5.258  14.288   4.192
52691W        W14222   4.371  39.006  11.482
52692W        W14223   8.900  41.321   3.384
52693W        W14224  25.051  38.458   0.828
52694W        W14225  17.590  33.403   1.810
52695W        W14226   8.202  39.894  12.892
52696W        W14227  39.857  37.048   4.343
52697W        W14228  44.279  23.539   5.219
52698W        W14229  42.788  23.055   4.208
52699W        W14230  41.795   9.737  13.904
52700W        W14231  28.040  18.740   3.176
52701W        W14232   0.369  14.602  11.507
52702W        W14233  33.421   0.900   1.818
52703W        W14234  38.457  10.738   0.763
52704W        W14235  41.921   6.813  14.316
52705W        W14236  30.456  10.231   2.760
52706W        W14237  20.111  14.285  12.509
52707W        W14238  35.525  22.251  10.527
52708W        W14239  24.525   9.189   1.415
52709W        W14240  21.646  30.959   3.192
52710W        W14241  21.595   4.447   0.774
52711W        W14242   6.194  20.124   4.643
52712W        W14243  39.403  34.104   3.730
52713W        W14244  21.531  22.248   1.297
52714W        W14245  14.269   2.844  11.055
52715W        W14246  22.177  32.022   3.813
52716W        W14247   5.898  32.021  14.788
52717W        W14248  40.515   9.677   0.304
52718W        W14249  30.997  42.423  10.931
52719W        W14250   0.885  13.283  11.864
52720W        W14251  13.651  15.226   4.652
52721W        W14252  27.529  18.767   0.876
52722W        W14253  32.142  14.821   4.240
52723W        W14254  25.528  15.106  12.343
52724W        W14255  20.160  25.506  13.545
52725W        W14256  41.855   8.854   2.392
52726W        W14257  32.108  22.621   2.841
52727W        W14258  35.444   2.250   3.309
52728W        W14259  30.591   8.310  14.841
52729W        W14260  43.366   2.340   4.261
52730W        W14261  26.552  40.928  10.495
52731W        W14262  42.824   7.774   1.395
52732W        W14263  20.528   9.838   3.348
52733W        W14264   2.809  42.804  12.392
52734W        W14265  36.572   9.676  14.479
52735W        W14266  29.548  19.210   3.152
52736W        W14267  43.844  10.208   0.365
52737W        W14268  40.318  22.560   1.278
52738W        W14269   3.902  37.996   2.212
52739W        W14270  17.108  42.779   3.168
52740W        W14271   4.765  27.179  11.571
52741W        W14272   0.448  44.259   2.234
52742W        W14273  28.028  10.652   3.643
52743W        W14274   3.294  37.054  13.351
52744W        W14275   3.863  42.322  12.912
52745W        W14276  34.528  35.981  13.871
52746W        W14277  23.535  43.416  10.477
52747W        W14278  34.472  44.417  14.814
52748W        W14279   5.930  32.970   0.474
52749W        W14280  22.037  15.712  13.415
52750W        W14281  42.862   9.316   4.298
52751W        W14282   8.692  22.576   5.171
52752W        W14283  33.922  29.161  12.344
52753W        W14284  44.288  23.137  14.443
52754W        W14285  10.180  35.576   3.213
52755W        W14286  37.478  27.091  10.935
52756W        W14287  42.021  23.536   3.658
52757W        W14288   1.963  25.967   1.735
52758W        W14289   5.366  21.123  13.512
52759W        W14290  34.056  14.168   2.775
52760W        W14291   9.752  35.503  14.481
52761W        W14292  32.894  43.452  12.930
52762W        W14293  19.686  41.481  14.806
52763W        W14294  39.833  11.753   0.254
52764W        W14295   7.282  21.715   1.232
52765W        W14296  11.288   4.766  14.376
52766W        W14297  42.913   4.913  12.509
52767W        W14298  29.064  35.906  14.410
52768W        W14299  24.508  27.519   2.344
52769W        W14300  40.482   5.770  12.024
52770W        W14301   0.914  31.935   5.171
52771W        W14302  18.232  39.928   4.836
52772W        W14303  18.750  21.531  10.030
52773W        W14304  34.526  26.633   4.661
52774W        W14305  23.611  23.986  11.421
52775W        W14306   1.402   0.456  14.423
52776W        W14307   2.470  28.440  10.538
52777W        W14308   2.863   1.896   1.826
52778W        W14309   1.829  32.604  12.095
52779W        W14310  32.588  14.744   4.292
52780W        W14311   5.727  30.581   3.652
52781W        W14312  41.466   6.189  12.985
52782W        W14313  39.337  17.285   2.286
52783W        W14314  21.026  19.191   1.294
52784W        W14315   7.841  34.878   1.375
52785W        W14316  24.031  21.041  10.563
52786W        W14317   0.275   0.744  12.083
52787W        W14318  31.960  38.495  10.404
52788W        W14319   5.911  29.125   4.325
52789W        W14320  11.324  36.448  14.481
52790W        W14321  32.907  35.375   2.757
52791W        W14322  27.530  40.423  13.903
52792W        W14323  42.453   0.780  12.402
52793W        W14324  20.609   7.815   0.294
52794W        W14325  11.192  15.686   1.780
52795W        W14326  10.670  31.948  14.314
52796W        W14327  15.176  10.242   2.284
52797W        W14328  27.039   8.776   0.351
52798W        W14329  37.076  42.007   0.326
52799W        W14330   9.737  43.381  10.509
52800W        W14331  25.075   6.777   3.699
52801W        W14332   2.764  44.850  11.889
52802W        W14333  34.388  33.909   3.713
52803W        W14334  32.078  21.082  10.073
52804W        W14335   5.212  25.648   3.652
52805W        W14336   4.241   9.685  14.349
52806W        W14337  24.717  10.824  10.933
52807W        W14338  43.431  10.746   4.348
52808W        W14339  42.387  13.674  13.026
52809W        W14340  16.311  31.900   2.870
52810W        W14341   3.855  39.951   0.778
52811W        W14342  26.960  15.720  11.524
52812W        W14343  17.686  22.574   4.127
52813W        W14344  34.382  44.374  12.471
52814W        W14345  35.402  20.738  12.367
52815W        W14346  32.469  42.525  10.961
52816W        W14347  27.506  23.007   1.785
52817W        W14348  38.944  23.678   3.776
52818W        W14349  40.828  33.381  11.004
52819W        W14350  38.562  39.540  13.810
52820W        W14351  13.753   0.327   3.784
52821W        W14352   1.790  42.388   3.378
52822W        W14353  40.817  36.987   0.797
52823W        W14354   7.205  23.110   2.243
52824W        W14355   8.731  44.314  11.531
52825W        W14356   8.811  10.254   1.880
52826W        W14357  10.305  20.053   3.651
52827W        W14358  29.103  23.571   4.831
52828W        W14359  29.051  14.131  12.950
52829W        W14360  44.874  44.763  14.847
52830W        W14361  41.511   1.765  14.326
52831W        W14362  34.437   4.773  12.499
52832W        W14363   3.808  19.251  12.041
52833W        W14364  25.538  42.941  10.606
52834W        W14365  43.350  38.829  10.063
52835W        W14366   6.239  15.742  12.432
52836W        W14367  40.026  28.066   0.893
52837W        W14368  44.375  23.236  14.801
52838W        W14369   1.825  38.388  11.006
52839W        W14370  30.922  32.104   3.649
52840W        W14371  29.585  24.214  11.065
52841W        W14372  26.599  31.944  11.554
52842W        W14373  37.921  19.672  10.079
52843W        W14374  39.475  12.695   3.653
52844W        W14375  30.961   2.724  13.496
52845W        W14376  38.029  40.845   1.785
52846W        W14377  26.964  36.933   3.194
52847W        W14378   1.852  41.424  12.958
52848W        W14379  12.845   6.393  13.404
52849W        W14380  32.892   0.457  11.512
52850W        W14381  12.851  23.646  12.566
52851W        W14382  20.069  37.834  12.891
52852W        W14383   1.858  42.421  11.397
52853W        W14384  42.505   5.420   4.172
52854W        W14385  40.474   7.743   0.454
52855W        W14386  12.163  22.998  11.889
52856W        W14387  11.710  27.661   1.347
52857W        W14388   2.755  42.398   3.725
52858W        W14389  25.600  12.232   4.661
52859W        W14390  32.530  17.660   0.778
52860W        W14391  18.758  19.051   3.325
52861W        W14392  40.524  17.265  10.509
52862W        W14393  10.239  25.098  14.297
52863W        W14394  24.546  17.173   1.405
52864W        W14395  18.113  42.488  13.406
52865W        W14396   4.338  34.538  14.395
52866W        W14397   8.241  42.901  14.804
52867W        W14398  10.181  17.653  11.122
52868W        W14399   5.322   3.947  14.445
52869W        W14400  23.114  24.491  14.458
52870W        W14401  24.487  31.410  12.388
52871W        W14402  40.971   6.885   3.703
52872W        W14403  18.647  43.337   0.819
52873W        W14404  43.312  24.169  11.483
52874W        W14405  20.659  42.379   5.157
52875W        W14406   8.830  20.158   3.674
52876W        W14407   0.932   1.936   5.119
52877W        W14408  37.978  36.059   4.747
52878W        W14409  15.271  20.526  13.390
52879W        W14410  25.197  31.528  12.414
52880W        W14411  12.693  15.772   2.402
52881W        W14412   6.785  13.650  10.507
52882W        W14413   2.349  18.576  10.502
52883W        W14414  14.741  31.514   2.271
52884W        W14415   2.467  14.202  13.020
52885W        W14416  13.771  13.772   0.300
52886W        W14417  22.618  27.590  11.434
52887W        W14418  31.919  39.833   1.258
52888W        W14419  31.587  26.548   1.920
52889W        W14420  44.378  37.503  10.928
52890W        W14421  43.016  36.524  13.819
52891W        W14422  33.985  22.731   3.651
52892W        W14423   5.884   7.826  11.453
52893W        W14424  16.257  15.767  10.410
52894W        W14425  18.239  30.057  14.376
52895W        W14426  31.103  41.332   1.918
52896W        W14427  27.077  39.873   0.838
52897W        W14428   3.228  17.099   5.309
52898W        W14429  13.617  26.982   3.867
52899W        W14430   1.908  12.336   4.270
52900W        W14431   2.967  43.477   0.768
52901W        W14432  24.012   7.261  12.577
52902W        W14433  24.210  37.494  10.448
52903W        W14434  17.232  41.480  14.458
52904W        W14435   3.928  22.721   4.262
52905W        W14436  14.617  21.644  13.923
52906W        W14437  35.066  11.333   5.114
52907W        W14438  18.269   0.434   0.892
52908W        W14439   6.721   2.233   3.822
52909W        W14440  41.384  42.503   3.759
52910W        W14441  39.041  32.503   4.252
52911W        W14442  10.192  18.175   0.416
52912W        W14443  28.061   4.331   9.949
52913W        W14444  15.807  27.070  11.099
52914W        W14445   5.746  18.144   2.207
52915W        W14446  29.086  39.014   4.331
52916W        W14447  25.065  24.055   5.090
52917W        W14448  24.004  16.677   1.699
52918W        W14449  26.996  41.308   2.377
52919W        W14450  28.116  30.654  13.978
52920W        W14451   7.686  37.990  14.884
52921W        W14452   0.373  16.308  14.428
52922W        W14453  17.783  23.074   5.646
52923W        W14454  10.187  20.640   2.207
52924W        W14455  21.598  22.131   0.473
52925W        W14456  12.752  41.961  14.931
52926W        W14457  31.471  30.418  11.481
52927W        W14458  19.085  24.044  12.401
52928W        W14459   4.772  19.044   3.842
52929W        W14460  24.209  26.172   2.894
52930W        W14461  31.503  28.560  10.586
52931W        W14462  21.020  18.747  11.944
52932W        W14463  17.147  31.574   3.861
52933W        W14464   0.322  35.366   2.744
52934W        W14465   3.319   2.773  11.066
52935W        W14466  22.229  24.141  12.931
52936W        W14467  23.701   9.311  13.005
52937W        W14468  37.484   7.175  10.506
52938W        W14469  40.900  18.546  11.485
52939W        W14470   3.839  35.979  11.393
52940W        W14471  36.086  34.413   1.448
52941W        W14472  32.530  44.385  13.791
52942W        W14473   9.883  18.231   3.239
52943W        W14474  32.598  30.633   3.849
52944W        W14475  28.944  16.621   2.788
52945W        W14476  24.495  18.774   1.775
52946W        W14477  28.931   7.765  11.116
52947W        W14478   9.359   5.193  11.084
52948W        W14479  26.969  13.283  12.970
52949W        W14480  25.060  14.761  13.501
52950W        W14481   4.288  23.731   3.242
52951W        W14482   0.933   0.328  14.801
52952W        W14483  43.375  26.640  12.493
52953W        W14484  28.115   5.760   3.666
52954W        W14485   2.291  15.678  11.036
52955W        W14486  35.937  11.719  10.890
52956W        W14487  30.588  38.978   3.788
52957W        W14488  16.639  41.503   1.411
52958W        W14489   2.790  23.230   4.747
52959W        W14490  41.827  24.158  14.995
52960W        W14491  21.550  44.908  10.583
52961W        W14492   9.149  20.627   2.205
52962W        W14493   1.977  17.212   2.692
52963W        W14494  28.633  30.976   1.236
52964W        W14495  34.608   4.269   0.936
52965W        W14496  26.038  14.743   4.717
52966W        W14497  35.904   9.846  10.985
52967W        W14498  24.708  38.534  14.464
52968W        W14499  17.572   2.962  12.852
52969W        W14500  43.432  20.628   4.720
52970W        W14501  21.713  20.635   2.384
52971W        W14502  41.818  33.572   0.472
52972W        W14503  10.712  24.611  11.601
52973W        W14504   0.870  19.112  10.937
52974W        W14505  38.822  33.574   0.727
52975W        W14506  34.512   8.279  11.516
52976W        W14507  15.581  18.607   3.247
52977W        W14508  26.605  12.850   0.286
52978W        W14509  24.130   6.849   3.353
52979W        W14510  21.145  29.084  13.928
52980W        W14511  36.043  20.716  10.455
52981W        W14512   1.854  42.878   3.230
52982W        W14513  43.276  12.130   0.478
52983W        W14514  30.968   8.351   9.607
52984W        W14515  44.894  23.162   4.644
52985W        W14516  29.103   1.815   1.222
52986W        W14517  18.178  39.865  10.150
52987W        W14518  32.131   4.779   3.366
52988W        W14519   8.305  20.584  13.976
52989W        W14520  23.630   8.352   2.797
52990W        W14521  23.221  33.395   0.244
52991W        W14522  25.995  37.992  14.301
52992W        W14523  28.074  20.703   1.823
52993W        W14524  39.476  34.610  13.864
52994W        W14525  22.745  12.353   4.123
52995W        W14526  10.250  13.182  12.350
52996W        W14527  31.068  18.297   2.355
52997W        W14528  37.541  15.318  14.909
52998W        W14529  11.759  14.246   3.171
52999W        W14530   4.863  40.463  11.954
53000W        W14531  15.278  30.445   9.951
53001W        W14532  41.429  36.097   3.158
53002W        W14533  12.345  16.769  10.552
53003W        W14534  25.181  35.864  12.040
53004W        W14535  22.719  41.951  13.399
53005W        W14536  41.868  36.950  13.399
53006W        W14537   3.845  42.364   2.376
53007W        W14538  28.970  24.012  11.584
53008W        W14539   3.385  41.865  13.799
53009W        W14540  33.893   3.329   2.299
53010W        W14541  25.985  32.581  11.401
53011W        W14542  18.713  12.792  11.966
53012W        W14543  26.040   8.848  11.924
53013W        W14544  23.500   2.312   0.749
53014W        W14545  39.332  37.528  10.406
53015W        W14546  11.362   0.800   1.280
53016W        W14547  31.459  17.620  13.040
53017W        W14548  44.283  44.809   1.231
53018W        W14549   5.422   9.237   4.298
53019W        W14550  14.643  18.566   2.238
53020W        W14551  24.523  14.621   2.790
53021W        W14552  11.738  10.168   9.980
53022W        W14553  23.566  31.428  14.385
53023W        W14554  10.718  39.015  10.424
53024W        W14555  18.099   6.681  11.563
53025W        W14556  20.205  18.144  10.632
53026W        W14557   9.889  36.033   0.942
53027W        W14558  41.903  39.035   5.198
53028W        W14559  44.372  40.870   4.643
53029W        W14560  12.790   4.383   0.410
53030W        W14561  15.631  28.021   3.219
53031W        W14562  43.986  28.448  10.455
53032W        W14563  18.270  35.523  11.108
53033W        W14564  40.398   6.215   4.637
53034W        W14565  29.089   7.768   0.329
53035W        W14566  39.975   9.322   4.169
53036W        W14567  25.701  42.454   3.693
53037W        W14568  25.651  22.214  10.157
53038W        W14569  37.406  27.574  12.391
53039W        W14570  28.036   3.791   3.799
53040W        W14571  19.560  40.817   1.222
53041W        W14572  42.306  37.565   4.272
53042W        W14573  34.084   5.895   2.233
53043W        W14574  20.650  32.543  12.579
53044W        W14575  11.855   2.752  12.580
53045W        W14576  32.546   5.773  12.026
53046W        W14577   9.241   9.776  14.852
53047W        W14578   5.792  40.425   1.399
53048W        W14579  34.436  42.974   1.872
53049W        W14580   7.350  32.553  14.762
53050W        W14581  38.486  27.014  13.009
53051W        W14582  21.124  27.519   1.851
53052W        W14583  42.889   0.915   2.323
53053W        W14584  20.261   8.206  11.881
53054W        W14585  42.524  14.720  13.526
53055W        W14586  25.712  27.597   9.947
53056W        W14587  38.527   3.417   3.785
53057W        W14588   3.249  37.524   1.891
53058W        W14589  18.706   1.366  14.790
53059W        W14590   6.220   7.853  12.439
53060W        W14591  28.614  22.585   3.174
53061W        W14592  19.756   7.273   0.303
53062W        W14593   9.826  36.573   1.396
53063W        W14594  35.510  23.628  14.777
53064W        W14595  31.900  33.951   3.809
53065W        W14596  34.886  22.625  14.472
53066W        W14597  14.254  39.330  14.873
53067W        W14598  14.628  16.779   3.785
53068W        W14599   3.943  40.941   4.249
53069W        W14600  24.485  35.537  13.378
53070W        W14601   2.376   4.852  10.491
53071W        W14602   1.917  22.570  14.987
53072W        W14603   5.302  35.058  10.932
53073W        W14604  36.353   3.880   3.776
53074W        W14605  21.636  31.933   1.351
53075W        W14606  29.935   2.946  11.024
53076W        W14607  34.094  43.358  12.062
53077W        W14608   8.205  13.724  12.403
53078W        W14609  37.880  43.961  13.923
53079W        W14610   5.308  29.440  10.976
53080W        W14611  40.342   2.314   2.761
53081W        W14612  18.560  17.249   5.155
53082W        W14613   7.761   0.886   4.159
53083W        W14614  39.998  10.802  11.906
53084W        W14615  41.911  11.645  11.898
53085W        W14616  17.731  20.245  14.998
53086W        W14617  42.308  35.424   0.738
53087W        W14618  27.529  30.451  12.988
53088W        W14619  14.678  34.586   1.256
53089W        W14620   0.947  38.830  14.932
53090W        W14621   3.454   0.977  12.550
53091W        W14622  37.401   0.912  12.449
53092W        W14623  20.600  31.140  10.436
53093W        W14624  39.535  28.553  12.860
53094W        W14625  12.288  15.113  14.378
53095W        W14626   4.700  38.487   0.854
53096W        W14627  39.896   0.283  11.970
53097W        W14628  32.044  16.692  12.987
53098W        W14629  37.993  13.762  13.893
53099W        W14630   3.711  11.765   2.848
53100W        W14631  32.987   0.941  10.620
53101W        W14632  44.502  43.512   3.809
53102W        W14633   0.760  33.428  12.542
53103W        W14634  43.273  40.831   3.269
53104W        W14635  38.851  40.025   4.767
53105W        W14636  39.065   5.888  14.434
53106W        W14637  32.536  39.026   3.721
53107W        W14638  36.900   8.350   4.186
53108W        W14639  23.553  38.849  12.093
53109W        W14640  32.909  18.739  10.913
53110W        W14641  14.301  23.514  14.905
53111W        W14642  43.378  42.372   3.717
53112W        W14643  38.371  35.094  10.550
53113W        W14644  37.940  29.934  13.919
53114W        W14645  36.586   0.364   2.370
53115W        W14646  19.697  32.448  14.871
53116W        W14647  13.722  38.975  12.854
53117W        W14648   7.844  41.461   4.115
53118W        W14649  17.275  31.593  10.613
53119W        W14650   1.295  19.543   2.336
53120W        W14651  18.546  43.299  14.031
53121W        W14652   3.442  31.142   3.378
53122W        W14653  33.619  19.213   2.749
53123W        W14654  22.598  35.870   4.334
53124W        W14655  16.183   7.182   3.658
53125W        W14656  44.981  17.246   2.278
53126W        W14657  10.805  26.531  10.497
53127W        W14658  13.225  38.348   3.269
53128W        W14659   4.214  15.145   4.278
53129W        W14660  37.513  34.469  10.511
53130W        W14661  16.276  33.546  13.984
53131W        W14662  41.867  16.664   0.771
53132W        W14663  17.171  14.677  10.450
53133W        W14664  38.497  40.331   9.939
53134W        W14665  22.078  39.819  12.079
53135W        W14666  35.447   4.830  14.004
53136W        W14667  11.280  39.001  12.825
53137W        W14668   2.254  23.062   0.764
53138W        W14669  42.023   7.683  12.539
53139W        W14670  10.144  16.663  11.016
53140W        W14671  26.101  22.704  14.464
53141W        W14672  39.506  41.310  13.474
53142W        W14673   7.761  14.816  10.915
53143W        W14674  42.933  44.406   2.885
53144W        W14675  42.446  11.687  14.809
53145W        W14676  41.977  38.359   1.861
53146W        W14677   2.840  34.020   2.183
53147W        W14678  33.956  13.678   3.236
53148W        W14679   4.802  14.242   3.804
53149W        W14680  23.639   9.793   4.123
53150W        W14681  32.524  35.871   0.916
53151W        W14682  23.099  12.231   3.832
53152W        W14683  38.047  14.212   2.880
53153W        W14684   6.282   8.402  13.032
53154W        W14685  16.600  21.097  14.919
53155W        W14686  15.247  16.138  10.567
53156W        W14687  43.960  33.110  13.352
53157W        W14688  27.667  18.639  14.972
53158W        W14689  11.245   1.394   1.240
53159W        W14690   9.654  16.768  11.054
53160W        W14691   4.894  24.068   4.635
53161W        W14692  40.505   3.768   0.818
53162W        W14693  42.964  30.982  13.898
53163W        W14694  11.226   5.277  11.058
53164W        W14695  39.065  18.786   1.407
53165W        W14696   9.862  35.903   0.276
53166W        W14697  32.058  10.212   4.730
53167W        W14698  22.224  18.581  14.363
53168W        W14699  18.791  26.472  13.858
53169W        W14700   3.276   9.300   2.196
53170W        W14701  29.555  18.266   1.816
53171W        W14702  43.018  42.785  14.280
53172W        W14703   3.250  31.998   1.311
53173W        W14704  39.048  21.094  12.080
53174W        W14705  22.135   6.678   3.753
53175W        W14706  30.437   4.310  12.877
53176W        W14707   9.845  23.240  10.595
53177W        W14708   0.257  24.491   0.886
53178W        W14709  21.665   3.737   0.858
53179W        W14710  30.108  31.553  13.936
53180W        W14711  31.454   3.320  14.007
53181W        W14712   7.846  25.618  14.440
53182W        W14713  42.407  10.212   3.234
53183W        W14714   1.418   4.446  13.851
53184W        W14715  22.027   4.231  12.045
53185W        W14716  20.112   5.239   2.382
53186W        W14717  13.645  25.078  10.619
53187W        W14718  11.796   2.394   5.765
53188W        W14719  16.682   6.248   3.324
53189W        W14720  32.017  11.742  13.794
53190W        W14721  15.138  16.583   4.715
53191W        W14722  37.490  31.578  11.398
53192W        W14723  17.260   2.803  11.978
53193W        W14724  17.158   2.401  11.394
53194W        W14725   1.746  38.334   1.703
53195W        W14726  12.192  30.559  12.011
53196W        W14727  40.361  42.909   2.877
53197W        W14728  34.076  13.820   0.909
53198W        W14729  26.631  22.527  12.832
53199W        W14730   7.845  19.771   1.419
53200W        W14731  29.077   5.244  13.042
53201W        W14732  44.008   9.747  12.904
53202W        W14733  36.538  17.114  12.969
53203W        W14734   3.344   9.668  13.021
53204W        W14735   7.282  22.096   1.801
53205W        W14736  33.109  29.489  14.338
53206W        W14737   6.351   8.379   4.784
53207W        W14738  15.648   8.862  11.018
53208W        W14739  31.901  39.060   1.783
53209W        W14740  21.176  38.009  14.927
53210W        W14741   3.239  14.659  13.512
53211W        W14742  23.730  13.153   1.789
53212W        W14743  17.673  28.945  13.818
53213W        W14744   2.248   6.408  10.086
53214W        W14745  36.391  29.496   1.268
53215W        W14746  44.504  26.114  12.546
53216W        W14747  34.108   3.335  10.483
53217W        W14748  30.498  28.991   1.301
53218W        W14749  12.211  36.589  12.975
53219W        W14750  30.577  23.489  12.938
53220W        W14751  20.626  27.679  10.547
53221W        W14752  36.461  31.017  11.867
53222W        W14753  40.914  39.471  11.948
53223W        W14754   8.275  39.046  14.416
53224W        W14755   9.698  36.531  11.036
53225W        W14756   6.747  44.431   2.802
53226W        W14757  18.258  25.539   3.728
53227W        W14758  15.243  16.104   3.154
53228W        W14759  30.962  19.725  14.353
53229W        W14760  43.791   7.681  10.585
53230W        W14761  32.582  40.819   4.605
53231W        W14762  43.275   1.875  10.438
53232W        W14763  30.580  37.994  11.526
53233W        W14764  23.657  10.648  13.452
53234W        W14765  23.491  38.563  10.455
53235W        W14766  19.195  33.423   4.715
53236W        W14767   2.417  36.494   3.850
53237W        W14768  24.010  25.007  12.539
53238W        W14769   7.329  26.160   4.241
53239W        W14770  30.985  17.215  11.381
53240W        W14771  20.052  30.139  11.029
53241W        W14772  10.708  22.581  14.988
53242W        W14773  43.365  35.901   0.446
53243W        W14774  35.985   8.345   0.321
53244W        W14775  38.448   0.873   1.719
53245W        W14776  43.949  32.471   1.700
53246W        W14777   8.849  28.092   0.922
53247W        W14778  13.224   6.341   2.292
53248W        W14779  14.707  36.949   4.303
53249W        W14780   8.868  10.716   4.276
53250W        W14781  10.289   4.931  14.452
53251W        W14782   6.410  27.152   4.292
53252W        W14783  38.545  37.376  14.319
53253W        W14784  31.602   1.926  13.030
53254W        W14785   0.469  44.941   2.376
53255W        W14786  30.464   2.412  12.501
53256W        W14787   4.807  31.526   0.837
53257W        W14788  41.037   5.429  12.389
53258W        W14789  38.412  10.715  14.969
53259W        W14790   1.873   2.957   4.746
53260W        W14791  22.196  38.007  12.826
53261W        W14792  41.378  42.941   2.233
53262W        W14793  28.997  44.825  14.018
53263W        W14794  41.510  34.997   3.719
53264W        W14795  39.547  44.828   0.299
53265W        W14796  19.273  29.085  12.527
53266W        W14797  20.135  29.670  13.801
53267W        W14798  16.647  29.019   2.191
53268W        W14799   6.393  38.505  14.823
53269W        W14800  36.982  14.826   1.716
53270W        W14801  20.259  30.657   3.312
53271W        W14802  22.030  17.163   0.832
53272W        W14803  19.686  21.067  12.469
53273W        W14804  29.148  30.149   3.315
53274W        W14805  25.594  40.326   0.779
53275W        W14806  44.430  25.122   2.285
53276W        W14807  42.022  11.748   9.595
53277W        W14808   7.802  34.105  14.351
53278W        W14809   5.790  27.091  11.897
53279W        W14810  41.359   9.291   3.834
53280W        W14811  25.193  29.079   0.265
53281W        W14812   8.855  23.606   2.791
53282W        W14813   2.756  11.186  12.931
53283W        W14814   9.684  25.973  12.885
53284W        W14815  41.970  43.767   0.349
53285W        W14816  42.917  22.645   3.291
53286W        W14817   7.855  36.386   4.645
53287W        W14818  21.241  30.486  12.345
53288W        W14819  27.031   5.281  13.361
53289W        W14820  33.383   7.887  10.014
53290W        W14821  44.805  38.029   4.274
53291W        W14822  44.343  43.488   0.787
53292W        W14823  17.291  17.610  10.415
53293W        W14824  12.635  34.580  13.824
53294W        W14825  40.025  15.786  13.892
53295W        W14826   2.949  15.329  12.982
53296W        W14827  22.670  27.184  11.980
53297W        W14828  20.703  20.552  14.496
53298W        W14829   7.247  38.927  14.358
53299W        W14830  39.857  13.709   1.762
53300W        W14831  36.483  23.079  12.560
53301W        W14832   2.397   5.724   2.871
53302W        W14833   1.928  14.784  11.919
53303W        W14834  38.958  33.423  12.434
53304W        W14835   6.196  33.598   0.395
53305W        W14836   7.396  37.440   0.341
53306W        W14837  38.373  18.782   4.261
53307W        W14838  10.679  43.313  10.550
53308W        W14839  17.249  12.696  13.498
53309W        W14840  38.387  32.132   4.801
53310W        W14841  28.448  37.861   3.183
53311W        W14842  13.763  23.516   4.268
53312W        W14843  42.883  35.552  14.904
53313W        W14844  11.366  34.403   1.229
53314W        W14845  25.979  26.137   4.812
53315W        W14846  17.612  35.537   0.419
53316W        W14847  30.520  38.850   5.089
53317W        W14848  40.835  14.807   2.799
53318W        W14849  36.892  44.815   2.333
53319W        W14850  40.013  17.589   2.406
53320W        W14851  29.155  43.350   0.889
53321W        W14852   3.385  12.307  13.945
53322W        W14853  12.133   7.671  12.854
53323W        W14854  26.530  40.341  10.592
53324W        W14855  15.145  17.189   4.218
53325W        W14856  17.213  16.216  13.497
53326W        W14857   8.216  29.553   1.230
53327W        W14858   8.773  16.713  13.004
53328W        W14859  10.385  15.271  10.555
53329W        W14860  14.179  34.379  13.832
53330W        W14861  12.234  34.382  12.985
53331W        W14862  42.854   9.669  14.396
53332W        W14863  35.430  39.025   2.704
53333W        W14864  20.526  36.906   9.586
53334W        W14865  35.001  24.643  12.551
53335W        W14866  42.019  25.655   1.832
53336W        W14867  17.722  33.492   4.307
53337W        W14868  27.167  37.392  12.500
53338W        W14869  40.033  38.542   0.933
53339W        W14870  17.163  40.808   0.410
53340W        W14871  35.918  31.562  14.816
53341W        W14872  44.270  39.951  13.934
53342W        W14873  16.708   4.217   0.276
53343W        W14874  34.988   1.816   5.299
53344W        W14875  30.462  18.275   9.924
53345W        W14876  12.808  32.984  12.454
53346W        W14877  20.543  22.219   9.984
53347W        W14878  31.464  40.838   0.782
53348W        W14879  17.268   8.727  10.960
53349W        W14880  40.493  10.191   9.653
53350W        W14881  41.385  19.057  13.980
53351W        W14882  11.743   0.422  14.492
53352W        W14883  23.707  20.099   3.303
53353W        W14884   7.685  28.983   1.845
53354W        W14885  26.582  35.384   0.335
53355W        W14886  40.977  28.516  12.087
53356W        W14887  15.128  34.104  10.981
53357W        W14888  23.057  14.188  11.120
53358W        W14889  28.656  18.136  11.485
53359W        W14890  30.521   1.288   4.200
53360W        W14891  30.422   3.273  14.951
53361W        W14892  14.220  40.819   0.258
53362W        W14893   4.723  38.542   3.193
53363W        W14894  36.978  36.555  14.770
53364W        W14895   1.478  23.560  12.537
53365W        W14896  42.517  29.923   4.698
53366W        W14897  19.704  44.391  11.942
53367W        W14898  14.265  16.669  14.494
53368W        W14899   4.237  41.404  14.300
53369W        W14900  37.388  27.641   0.896
53370W        W14901  21.232  36.959  11.596
53371W        W14902  13.303  43.010   4.295
53372W        W14903  24.227  25.068  11.576
53373W        W14904   3.365  34.976   1.927
53374W        W14905  43.019   3.945  10.501
53375W        W14906   6.393  12.215   4.819
53376W        W14907  38.508  37.374  13.795
53377W        W14908  21.624  35.079   4.773
53378W        W14909  18.085  31.939   1.383
53379W        W14910   5.781  35.368  13.470
53380W        W14911  34.569  24.990   1.321
53381W        W14912   9.295   7.735   2.228
53382W        W14913  35.464   3.782  10.624
53383W        W14914  12.780  20.570  13.372
53384W        W14915  37.834  15.605  13.414
53385W        W14916  23.684  41.358  14.955
53386W        W14917  26.498  34.110   1.738
53387W        W14918  38.959   3.322   1.237
53388W        W14919   5.229  27.976  12.461
53389W        W14920  42.941  42.817   3.737
53390W        W14921  15.700  23.584  14.989
53391W        W14922  16.185  17.645   1.283
53392W        W14923  13.651   1.298   5.583
53393W        W14924  40.522   7.709   2.724
53394W        W14925  10.352  40.920  10.133
53395W        W14926  34.096  22.597  10.110
53396W        W14927  41.402  31.977  11.019
53397W        W14928  35.384   4.319   4.170
53398W        W14929  38.872  29.632  12.512
53399W        W14930  34.885  42.496  12.435
53400W        W14931  15.174  38.946  11.567
53401W        W14932  17.789   9.732  14.774
53402W        W14933  17.674  32.979  13.966
53403W        W14934  43.452  36.898  13.494
53404W        W14935  21.734  38.916   0.775
53405W        W14936  10.686  43.400  14.955
53406W        W14937   5.351  33.992  14.286
53407W        W14938  14.774  43.453   3.286
53408W        W14939   4.813  18.776  11.038
53409W        W14940   2.954  36.970  12.437
53410W        W14941  38.895  23.110   4.648
53411W        W14942  19.675  21.687   0.260
53412W        W14943  10.243   5.747  12.890
53413W        W14944  10.359  17.199   3.207
53414W        W14945  16.661  39.419  11.907
53415W        W14946  13.703  35.912  12.493
53416W        W14947  20.146  27.447   1.710
53417W        W14948  36.452  41.890  12.873
53418W        W14949  23.042   8.774  11.400
53419W        W14950  37.862  30.471   1.824
53420W        W14951  40.898  14.195  10.894
53421W        W14952  27.031  43.346   2.673
53422W        W14953  35.084  11.130  14.321
53423W        W14954  16.088  44.458  11.940
53424W        W14955  13.186  27.538   4.285
53425W        W14956  23.527  18.142   3.277
53426W        W14957  39.332  31.411   2.356
53427W        W14958  40.994   5.358   4.795
53428W        W14959  29.170   9.808  11.872
53429W        W14960  33.973  36.997  11.527
53430W        W14961  39.418  38.379  11.889
53431W        W14962  37.385  40.998   1.716
53432W        W14963   9.158  15.248   2.760
53433W        W14964  18.244  18.234   4.149
53434W        W14965  29.562  30.963   0.924
53435W        W14966  40.357   3.459   2.315
53436W        W14967  23.036  27.522   4.638
53437W        W14968  28.664  38.402  10.489
53438W        W14969  32.573   4.283   1.907
53439W        W14970  18.104  33.446   2.391
53440W        W14971  17.245  30.459  12.523
53441W        W14972  37.069  35.406   0.457
53442W        W14973  22.066   9.387  14.774
53443W        W14974  40.305  36.544   1.759
53444W        W14975   6.336   1.891   1.360
53445W        W14976  41.453  36.016  11.531
53446W        W14977  38.496  13.345   4.771
53447W        W14978  42.871  23.529   1.404
53448W        W14979  25.526   3.761   3.149
53449W        W14980  13.150   0.916  12.059
53450W        W14981   1.906   8.300  14.361
53451W        W14982  25.486  12.239   4.138
53452W        W14983   2.794  17.570  13.419
53453W        W14984  25.140  33.461  14.000
53454W        W14985  13.124  15.760   5.288
53455W        W14986  14.643  27.094   3.708
53456W        W14987  13.205  12.756  11.933
53457W        W14988  20.683  19.658  10.521
53458W        W14989   2.312  19.113   0.437
53459W        W14990  22.035  28.996   0.349
53460W        W14991  16.724  36.969  13.326
53461W        W14992  40.866  21.532   1.745
53462W        W14993  41.833  35.463   0.943
53463W        W14994   7.720  13.652  11.064
53464W        W14995  21.073  14.689   1.251
53465W        W14996  36.526  21.105  12.402
53466W        W14997  39.344  33.491  11.968
53467W        W14998  27.018  25.106   4.217
53468W        W14999  26.611  26.028  13.398
53469W        W15000  21.719  29.942   3.159
53470W        W15001  22.686   5.308  11.081
53471W        W15002   1.258  20.165  11.877
53472W        W15003  14.209  15.208  10.634
53473W        W15004  41.894  38.062   4.665
53474W        W15005  21.677  37.340   3.288
53475W        W15006  33.564  15.763  14.500
53476W        W15007  29.165  12.825   1.794
53477W        W15008  32.619  21.562   0.309
53478W        W15009  41.501   6.858   4.804
53479W        W15010  18.686   8.756   2.365
53480W        W15011  29.609   8.347   3.312
53481W        W15012  24.537  38.542  11.394
53482W        W15013  31.920  32.115  14.030
53483W        W15014  10.802  14.731  11.411
53484W        W15015  41.429  12.840   2.190
53485W        W15016  12.166  41.335  12.852
53486W        W15017  38.406  36.983  10.602
53487W        W15018   5.775  37.350   0.394
53488W        W15019  40.911  16.188   0.837
53489W        W15020  13.109  10.764   0.794
53490W        W15021   1.365  28.595  14.471
53491W        W15022   7.695   2.825  14.908
53492W        W15023   2.880  29.055   4.343
53493W        W15024  29.484  41.361  11.976
53494W        W15025  23.008  17.203   0.768
53495W        W15026  31.554   0.830   3.813
53496W        W15027  44.821  36.053   2.237
53497W        W15028  44.417  22.571  12.978
53498W        W15029   3.949  31.128   2.750
53499W        W15030  11.788  30.013  11.533
53500W        W15031  27.977  25.712   3.266
53501W        W15032  12.236   5.888  10.927
53502W        W15033  24.073  30.154  11.425
53503W        W15034  17.205   1.924   2.254
53504W        W15035  26.645  24.020  10.438
53505W        W15036  43.847  33.381  13.842
53506W        W15037  21.098  14.708   2.244
53507W        W15038  14.202  35.003  10.955
53508W        W15039  33.003   3.276   0.468
53509W        W15040  44.319  10.872   1.699
53510W        W15041  31.984   6.265  14.515
53511W        W15042  11.185  30.981  12.475
53512W        W15043  22.143  23.515  14.439
53513W        W15044  37.524  37.504   1.242
53514W        W15045  31.607  14.724   4.248
53515W        W15046   2.361  21.071  10.429
53516W        W15047  34.106  33.388   4.617
53517W        W15048  38.947  42.800   0.843
53518W        W15049  29.601  40.358   0.790
53519W        W15050  33.414  14.751   9.444
53520W        W15051  30.927  30.921   1.758
53521W        W15052  22.737  21.186  12.056
53522W        W15053  43.508   7.843  12.529
53523W        W15054  23.718  33.943   1.856
53524W        W15055  28.009  24.131  11.524
53525W        W15056   3.872  27.622  10.000
53526W        W15057  21.653   6.750  14.999
53527W        W15058  30.132  25.181   4.684
53528W        W15059  24.620   6.711  12.902
53529W        W15060   5.734   5.244  12.412
53530W        W15061  12.351  34.612   2.761
53531W        W15062  11.754  23.600   0.436
53532W        W15063  25.999   5.919   3.382
53533W        W15064  32.036  18.635   4.178
53534W        W15065  13.652  12.239  14.465
53535W        W15066  35.474  33.491   1.731
53536W        W15067  39.037  42.473  13.000
53537W        W15068  24.988  10.817   4.240
53538W        W15069  23.187   6.202   2.298
53539W        W15070  31.062  23.671   1.909
53540W        W15071  37.485  41.376   4.813
53541W        W15072  37.836   5.870   3.646
53542W        W15073   3.710  41.881  14.491
53543W        W15074   7.303  35.435   0.967
53544W        W15075  41.810  39.856   0.390
53545W        W15076  14.333  36.031   4.659
53546W        W15077  43.889  30.112  14.282
53547W        W15078  27.176  16.615   2.878
53548W        W15079  27.572   7.899   0.405
53549W        W15080   8.826  36.523  14.923
53550W        W15081  30.015  37.999   2.701
53551W        W15082  27.972  40.879   0.894
53552W        W15083  20.600  32.089  10.500
53553W        W15084  26.520  27.961   3.638
53554W        W15085   0.276  37.064   3.836
53555W        W15086  43.329  39.818  12.562
53556W        W15087  32.939  17.098  14.785
53557W        W15088   3.768  32.927   0.291
53558W        W15089  30.640   9.217   1.776
53559W        W15090   2.772  20.061   0.261
53560W        W15091  28.071  28.952   5.088
53561W        W15092  17.711  34.511   1.303
53562W        W15093  36.351  32.071  14.008
53563W        W15094   2.394  42.434  10.448
53564W        W15095  28.509  18.598   4.735
53565W        W15096  42.433  35.048  13.318
53566W        W15097  26.617  35.417  12.012
53567W        W15098  19.735  40.408   1.934
53568W        W15099   0.480   4.851  12.548
53569W        W15100  18.656  36.995   1.439
53570W        W15101  10.723  11.265  13.967
53571W        W15102   2.802  14.179  12.068
53572W        W15103   3.745  19.618  13.890
53573W        W15104  14.801  17.078  11.434
53574W        W15105   8.186  17.660   0.730
53575W        W15106  14.782  18.097   0.791
53576W        W15107  28.169  27.981   1.296
53577W        W15108  30.031   0.277   4.612
53578W        W15109  25.190  13.792   0.771
53579W        W15110  26.523  44.335  11.389
53580W        W15111  19.083  42.497   0.481
53581W        W15112  18.292  18.189  13.812
53582W        W15113   4.378  27.452   0.847
53583W        W15114  29.632  14.130   2.757
53584W        W15115  27.038  33.933   0.463
53585W        W15116  18.224  36.515   4.612
53586W        W15117   4.780  18.074  13.502
53587W        W15118  17.557  21.629  12.413
53588W        W15119  34.522  34.590   2.886
53589W        W15120  21.109  40.855   3.333
53590W        W15121  25.064  31.507  13.341
53591W        W15122  23.566  24.544  14.815
53592W        W15123  39.498  28.110  12.944
53593W        W15124  30.422  31.978   4.671
53594W        W15125  22.747  14.815  13.923
53595W        W15126  15.209  26.036   2.747
53596W        W15127  44.989  28.619  11.898
53597W        W15128  39.909  18.238  11.869
53598W        W15129  39.907  32.571   2.199
53599W        W15130   4.880  18.117  12.476
53600W        W15131  25.618  25.545  10.992
53601W        W15132  19.584  10.780  13.046
53602W        W15133   0.341  29.138   2.669
53603W        W15134  13.826   6.822  11.564
53604W        W15135  36.508  17.202   1.854
53605W        W15136  20.273  18.771  13.933
53606W        W15137  13.295  41.516   0.316
53607W        W15138  15.681  29.058  10.562
53608W        W15139  32.915   4.791  12.833
53609W        W15140   8.781   4.332   4.224
53610W        W15141  15.591  41.446   1.740
53611W        W15142   2.741   4.324   0.360
53612W        W15143   6.405   2.453   0.748
53613W        W15144   0.780  20.057  13.961
53614W        W15145  42.894  21.697   0.255
53615W        W15146  16.243  34.370  11.900
53616W        W15147   9.323  21.243   5.189
53617W        W15148  23.690  37.533  14.787
53618W        W15149  13.351   0.858   1.435
53619W        W15150  13.792  42.360   1.252
53620W        W15151  32.609  28.965  10.443
53621W        W15152  31.959   1.464  11.960
53622W        W15153  29.439  16.635  12.966
53623W        W15154  42.792  44.430  14.478
53624W        W15155   7.303  30.956  12.839
53625W        W15156   5.423  14.701   0.345
53626W        W15157  21.237   4.443  11.511
53627W        W15158  26.701  23.150  13.529
53628W        W15159  26.489  42.412   3.838
53629W        W15160  37.053  11.137  12.546
53630W        W15161  35.032  31.525  12.038
53631W        W15162  20.564   8.183   2.897
53632W        W15163  34.988   9.222  11.972
53633W        W15164  18.698  27.110  14.403
53634W        W15165  20.562  41.347  14.476
53635W        W15166  28.676  39.493   2.203
53636W        W15167  26.682  18.764   0.288
53637W        W15168  40.325  41.528  12.025
53638W        W15169  20.091  24.127   1.749
53639W        W15170  12.650  26.648   2.787
53640W        W15171  25.016  15.187   4.329
53641W        W15172   2.897  17.596   3.633
53642W        W15173   9.343  21.203   3.861
53643W        W15174  33.972  29.918  11.404
53644W        W15175   8.178  21.156  10.525
53645W        W15176   8.306  29.543  14.930
53646W        W15177   6.290   8.188   2.784
53647W        W15178  23.987  31.464  12.551
53648W        W15179  25.469  35.976  14.769
53649W        W15180   3.341   5.425  13.403
53650W        W15181  25.475  27.657  12.860
53651W        W15182  21.065  22.560  13.810
53652W        W15183  20.208  31.463   1.301
53653W        W15184   3.741  14.687   3.234
53654W        W15185   5.221  38.385   3.268
53655W        W15186   6.361   5.869  14.411
53656W        W15187  39.907  27.491   0.814
53657W        W15188  25.500  40.800  14.470
53658W        W15189  44.954  33.042   2.393
53659W        W15190  19.197   3.799   2.763
53660W        W15191   0.867  11.272   1.344
53661W        W15192  33.104  23.185  12.524
53662W        W15193  39.834   2.747   3.858
53663W        W15194  28.486  15.739   9.935
53664W        W15195  29.991  19.722  11.585
53665W        W15196   2.732  13.632  11.089
53666W        W15197  18.067  40.537   5.114
53667W        W15198  19.713  14.235   4.166
53668W        W15199  14.687  10.699  13.388
53669W        W15200   7.735   1.819   2.199
53670W        W15201  12.767  34.061  13.790
53671W        W15202   4.880   7.852   3.238
53672W        W15203  19.595  14.699  14.342
53673W        W15204  26.685  35.474   2.902
53674W        W15205  23.551   5.281  14.923
53675W        W15206   8.279  25.113   1.807
53676W        W15207   8.255   3.425  10.982
53677W        W15208  27.534  29.561  12.005
53678W        W15209  44.846  30.416  13.020
53679W        W15210  35.975   9.298   3.318
53680W        W15211  40.518  14.636  12.558
53681W        W15212  18.556   7.760   4.260
53682W        W15213  11.323  19.060  12.489
53683W        W15214  18.612  36.997  13.899
53684W        W15215  26.572  18.073  13.311
53685W        W15216  32.595  26.593   2.721
53686W        W15217  43.814  39.839  14.351
53687W        W15218  11.865   9.741  14.885
53688W        W15219  14.309  17.619  14.018
53689W        W15220  18.097  26.643   5.272
53690W        W15221  15.139  25.642   2.715
53691W        W15222  14.263  14.738  11.908
53692W        W15223   2.452  40.406  11.533
53693W        W15224   2.814  25.675  13.511
53694W        W15225  20.157  29.466   4.629
53695W        W15226  36.538  16.278   3.208
53696W        W15227  28.478  36.380  12.071
53697W        W15228   2.836   0.836   0.791
53698W        W15229  37.945  29.088   1.383
53699W        W15230  23.714  17.288   1.227
53700W        W15231  30.995  18.114   4.680
53701W        W15232  34.897  43.315  13.438
53702W        W15233  29.060   3.314  14.460
53703W        W15234   6.807  28.094   4.718
53704W        W15235   5.691  27.000  11.027
53705W        W15236   2.907  41.792  10.493
53706W        W15237  35.041  30.106  12.073
53707W        W15238  31.916  37.359   2.667
53708W        W15239  32.399  23.708  14.390
53709W        W15240  40.972   8.200  13.049
53710W        W15241   5.821  24.174   3.352
53711W        W15242   0.381  39.480  14.510
53712W        W15243  21.737  16.195   0.471
53713W        W15244  31.001  13.308  12.924
53714W        W15245  13.215  35.594  11.910
53715W        W15246  24.137  32.906  14.355
53716W        W15247   0.444   0.799  14.868
53717W        W15248  32.935  37.865   9.602
53718W        W15249  40.545  20.118  11.604
53719W        W15250  25.544  30.915  13.903
53720W        W15251  28.134  31.552  11.600
53721W        W15252  10.225  27.993   3.387
53722W        W15253  38.889  20.738   1.883
53723W        W15254   2.245  19.631  11.872
53724W        W15255  16.203  10.779   4.674
53725W        W15256  27.664  38.456   3.183
53726W        W15257  36.088  34.477  13.014
53727W        W15258   2.739  35.424   0.326
53728W        W15259  31.641  30.543   2.369
53729W        W15260   5.295  24.060  14.840
53730W        W15261  27.030  22.250   2.674
53731W        W15262  29.947  32.506   3.717
53732W        W15263  28.936   6.255   1.853
53733W        W15264  37.388  26.033  14.346
53734W        W15265  40.362   6.429   3.684
53735W        W15266  30.641   3.931  13.033
53736W        W15267  24.189  35.015   0.345
53737W        W15268  40.965  44.895   1.403
53738W        W15269  19.097  15.136   3.635
53739W        W15270   5.722  30.058   1.701
53740W        W15271  20.166  39.528   2.200
53741W        W15272  37.922  18.751  10.956
53742W        W15273  11.219  30.034  13.937
53743W        W15274  34.972   3.740  12.868
53744W        W15275  42.450  20.115   4.258
53745W        W15276  37.072  32.054  13.797
53746W        W15277  26.567  21.066  10.533
53747W        W15278  10.161  24.572   0.287
53748W        W15279  29.012   5.252   3.160
53749W        W15280  39.024  16.228  12.347
53750W        W15281  41.358  16.293  12.545
53751W        W15282  26.696  18.547  11.413
53752W        W15283  13.649  41.808  10.599
53753W        W15284   7.189  31.488  12.029
53754W        W15285  33.415   0.980  13.023
53755W        W15286  14.758  20.180  13.469
53756W        W15287   3.767  37.053   1.416
53757W        W15288  28.941  35.016   1.370
53758W        W15289  40.981   6.295  13.470
53759W        W15290  13.672  26.463   4.669
53760W        W15291  35.978   8.829   2.695
53761W        W15292  12.227  32.891  12.045
53762W        W15293   2.244  14.269   4.143
53763W        W15294   2.317  27.106   1.450
53764W        W15295  24.666  42.306   4.267
53765W        W15296  43.351  13.636  14.303
53766W        W15297  17.214  42.923  10.057
53767W        W15298  21.701   1.307   1.327
53768W        W15299  14.756  34.000   0.344
53769W        W15300  19.286  36.399  12.905
53770W        W15301  22.198  35.054   4.694
53771W        W15302  39.390  10.844   0.730
53772W        W15303  38.361  35.000   3.822
53773W        W15304  14.618  23.046  11.889
53774W        W15305  14.154   7.279  10.131
53775W        W15306   5.246  24.605   2.309
53776W        W15307  35.566  15.108  12.399
53777W        W15308  25.492  30.917  12.985
53778W        W15309  38.358  19.125   3.184
53779W        W15310  37.857  44.954  13.408
53780W        W15311  29.522   7.842  12.551
53781W        W15312  27.082  30.981  10.584
53782W        W15313  17.607   2.256   0.729
53783W        W15314  27.642  29.100   3.259
53784W        W15315  26.081   1.781   2.898
53785W        W15316  31.510   8.714  11.086
53786W        W15317  43.882  26.583  11.028
53787W        W15318  34.380  28.939   3.865
53788W        W15319  27.661  19.552  10.986
53789W        W15320  19.544  23.177  14.463
53790W        W15321   7.696  19.645  13.505
53791W        W15322  23.547  21.649   2.245
53792W        W15323  38.396  11.697   1.825
53793W        W15324  23.198  28.078   0.396
53794W        W15325  43.317   3.302   3.157
53795W        W15326   2.357  21.569   4.833
53796W        W15327  26.661  42.286   2.874
53797W        W15328  34.048  19.056  12.523
53798W        W15329  41.818  18.548   3.838
53799W        W15330   9.737  40.427   0.368
53800W        W15331  36.494  28.594  11.962
53801W        W15332  33.936  43.844  11.889
53802W        W15333  13.749  33.552  10.644
53803W        W15334   2.437  17.073  13.835
53804W        W15335  11.300  41.379  12.998
53805W        W15336  35.593  43.392  12.519
53806W        W15337  19.619  24.094  12.010
53807W        W15338  38.363  29.134  14.403
53808W        W15339  17.642   9.271  12.495
53809W        W15340  37.934   5.784  14.785
53810W        W15341  36.516  13.611  11.069
53811W        W15342  14.744  15.217   3.817
53812W        W15343  24.565   7.329  11.112
53813W        W15344  41.468  23.174   1.712
53814W        W15345  41.016   8.745   3.813
53815W        W15346  15.640   7.362   1.298
53816W        W15347  11.692  17.219  10.917
53817W        W15348  10.338  34.585   1.274
53818W        W15349  38.991  12.127   0.925
53819W        W15350  26.127  31.139  13.398
53820W        W15351  20.102  25.996  11.098
53821W        W15352  42.289   8.687  13.353
53822W        W15353   8.225   3.370  10.593
53823W        W15354   1.263  42.467   3.264
53824W        W15355   4.886  44.987   1.745
53825W        W15356  21.728  11.344  12.547
53826W        W15357   3.242  28.959   0.318
53827W        W15358  39.323   7.218   1.793
53828W        W15359  17.685  11.138  12.925
53829W        W15360  27.475  44.943   2.197
53830W        W15361  35.418   3.777  10.978
53831W        W15362  34.012  16.775   3.738
53832W        W15363  39.341   9.254   1.821
53833W        W15364  21.105  11.261   4.620
53834W        W15365   8.825  25.524   2.191
53835W        W15366  44.382  26.036   1.928
53836W        W15367  33.884  22.547   3.355
53837W        W15368  27.487  35.403   2.837
53838W        W15369  37.977   8.299   4.213
53839W        W15370  26.510  15.607  10.986
53840W        W15371  24.602  29.566   9.576
53841W        W15372   9.285  23.574  11.042
53842W        W15373   5.801   4.810   1.866
53843W        W15374  41.358  29.023   4.803
53844W        W15375  19.584  36.016   4.210
53845W        W15376  12.238   1.404   5.708
53846W        W15377  28.991   2.469   1.803
53847W        W15378  22.726  28.172   3.198
53848W        W15379  32.049   5.413   2.360
53849W        W15380  33.458  21.132  13.996
53850W        W15381  11.273  23.533  12.956
53851W        W15382   0.465  28.960  12.416
53852W        W15383  22.163  16.583  10.449
53853W        W15384  16.176  13.796   2.744
53854W        W15385  35.389  34.957  12.479
53855W        W15386   7.827  42.831   0.966
53856W        W15387  21.738  11.746   0.441
53857W        W15388  44.995  42.025  13.330
53858W        W15389  29.043  11.212   2.299
53859W        W15390   1.327  14.174  14.950
53860W        W15391  34.027   5.361  14.506
53861W        W15392  22.048  14.719   2.780
53862W        W15393   9.851  28.969   0.958
53863W        W15394  43.424  13.231  13.982
53864W        W15395  23.014  39.365   0.331
53865W        W15396   1.785  12.748  13.399
53866W        W15397   2.937  27.956   4.700
53867W        W15398   7.282  38.020   0.837
53868W        W15399  31.042  19.100  12.044
53869W        W15400  30.928  35.008  12.576
53870W        W15401  31.938  12.120   1.340
53871W        W15402  43.959  42.826  12.035
53872W        W15403  35.477  19.140   1.753
53873W        W15404  25.211  22.583  14.916
53874W        W15405  25.172  31.449   1.276
53875W        W15406  15.164  26.536   1.217
53876W        W15407  33.409  14.281   9.574
53877W        W15408  34.936   5.746  10.435
53878W        W15409  39.982  28.935  13.035
53879W        W15410  17.115  23.658   2.898
53880W        W15411  14.219  35.880  11.588
53881W        W15412   8.837   7.202  13.376
53882W        W15413   4.439  42.863   3.163
53883W        W15414  27.097  11.785  13.523
53884W        W15415  38.055   1.479  13.937
53885W        W15416   8.366  25.681  11.465
53886W        W15417  36.091  28.055   0.833
53887W        W15418  30.433  15.249   3.325
53888W        W15419  36.373  15.781   1.335
53889W        W15420  42.884  11.360   3.725
53890W        W15421  20.739  36.012  12.478
53891W        W15422  13.222   9.196  14.375
53892W        W15423  27.502  39.884  12.020
53893W        W15424  33.619   2.378   0.341
53894W        W15425  36.525  20.179  14.474
53895W        W15426  19.737  15.234  13.375
53896W        W15427   4.806   0.336  11.593
53897W        W15428  39.468   5.294   4.334
53898W        W15429  12.154  18.117  14.339
53899W        W15430   5.817  16.101   3.316
53900W        W15431  21.201  24.051  11.435
53901W        W15432   6.871  22.211   0.387
53902W        W15433  18.607  26.698   0.272
53903W        W15434   8.276  14.821   4.654
53904W        W15435  44.429  30.520  10.017
53905W        W15436   2.357  43.270  10.887
53906W        W15437  20.231  23.700   4.277
53907W        W15438  32.445  23.114   3.179
53908W        W15439  10.689  19.252  12.070
53909W        W15440  10.267   2.385   1.242
53910W        W15441  19.126  37.402  13.498
53911W        W15442  12.221   5.835   0.775
53912W        W15443   7.200  38.423   0.963
53913W        W15444  24.634  43.419  12.937
53914W        W15445   1.286  17.244  10.956
53915W        W15446  16.168  30.114   0.330
53916W        W15447   8.209  28.489  10.975
53917W        W15448   6.338   2.226  14.801
53918W        W15449  31.410  26.000  14.514
53919W        W15450  16.580  12.642   4.720
53920W        W15451  25.681  10.266   1.244
53921W        W15452  26.201  40.993  14.379
53922W        W15453   0.814  28.940  10.641
53923W        W15454   6.225   2.774  14.454
53924W        W15455  40.972  35.970   3.764
53925W        W15456  41.445  23.692  14.921
53926W        W15457   8.243   7.342  12.881
53927W        W15458  41.838  43.471  11.064
53928W        W15459  24.716  44.303   1.334
53929W        W15460  13.216  23.547   0.372
53930W        W15461  23.188  36.579  13.539
53931W        W15462  18.204  35.415  12.006
53932W        W15463  28.168  13.233  12.410
53933W        W15464  40.368  36.373  13.424
53934W        W15465  26.200  42.345  14.406
53935W        W15466  32.519  19.629   0.402
53936W        W15467  29.046  17.585   3.268
53937W        W15468  31.483  26.139  13.895
53938W        W15469  11.763  38.497   2.860
53939W        W15470  42.399   3.284   3.844
53940W        W15471  22.604  30.037   0.882
53941W        W15472  24.024  22.575  13.364
53942W        W15473  22.669  18.290   1.345
53943W        W15474  36.875  43.822  10.430
53944W        W15475  34.510  33.030  11.050
53945W        W15476  29.638  34.024   4.633
53946W        W15477  15.764  28.580  14.410
53947W        W15478   3.305  24.217   0.777
53948W        W15479  21.676  41.886   0.393
53949W        W15480  19.074  14.186   3.285
53950W        W15481   2.377  13.815   1.262
53951W        W15482  38.995  16.761   3.673
53952W        W15483   3.229   7.250   2.282
53953W        W15484  40.825  28.457  14.007
53954W        W15485  18.063   5.292   3.844
53955W        W15486   2.727  14.713   3.363
53956W        W15487   4.867  32.602  11.879
53957W        W15488   5.797  21.020  10.605
53958W        W15489  25.206  24.725   1.715
53959W        W15490  15.271  26.973  12.578
53960W        W15491   4.424   8.757   0.257
53961W        W15492  34.405   4.318  11.482
53962W        W15493  36.397   3.312  10.638
53963W        W15494   0.752  19.631  13.308
53964W        W15495  15.247  12.290  12.564
53965W        W15496  32.470   9.252  11.978
53966W        W15497  22.179   3.727   4.739
53967W        W15498  42.806  18.243  14.394
53968W        W15499  39.966  38.514  11.026
53969W        W15500  34.576  35.932   5.648
53970W        W15501   8.753  37.944   1.901
53971W        W15502  44.879  37.503   0.244
53972W        W15503   7.248  40.912   3.675
53973W        W15504  38.881  19.777   3.345
53974W        W15505  38.515  24.082   0.248
53975W        W15506  22.189  41.442   4.693
53976W        W15507  35.481  37.554   0.936
53977W        W15508  10.274  17.777  14.327
53978W        W15509   9.249  20.561  13.983
53979W        W15510   7.386  33.423  13.436
53980W        W15511  27.078  43.485  10.944
53981W        W15512  17.117  28.175  10.149
53982W        W15513  35.507   4.731  12.538
53983W        W15514  31.044  21.135   3.656
53984W        W15515   5.756  41.811   0.472
53985W        W15516  36.879  43.954   4.802
53986W        W15517  11.135  40.800   2.328
53987W        W15518  16.089  38.879  11.050
53988W        W15519  19.235  11.723   1.257
53989W        W15520  41.916   6.864   2.415
53990W        W15521  27.674  10.756  13.393
53991W        W15522   4.799  37.379   4.684
53992W        W15523  15.696   6.814  14.955
53993W        W15524  19.705  22.501  10.938
53994W        W15525   2.952   1.431  11.939
53995W        W15526   2.451  41.911  12.542
53996W        W15527  25.131   4.408   1.780
53997W        W15528  31.430  33.529  11.936
53998W        W15529  26.641  23.567  10.076
53999W        W15530  44.908  12.210  11.033
54000W        W15531  38.480  10.213  14.775
54001W        W15532  38.923  39.889   4.331
54002W        W15533  19.282  42.308   0.832
54003W        W15534  43.486  12.849   2.830
54004W        W15535  35.853  17.146   3.799
54005W        W15536  23.663  36.984  13.420
54006W        W15537  19.692   7.347   1.376
54007W        W15538   7.406  42.335  12.459
54008W        W15539  11.853  28.981   2.689
54009W        W15540  19.268  27.652   2.692
54010W        W15541  17.200  21.098  12.557
54011W        W15542  12.124  12.128  14.281
54012W        W15543  22.653  17.261   0.340
54013W        W15544  27.475  11.260  11.528
54014W        W15545   2.438  22.182  13.427
54015W        W15546  27.489  25.477  11.537
54016W        W15547  30.599   8.826   2.891
54017W        W15548  20.146   6.903  10.405
54018W        W15549   3.390   8.185  13.874
54019W        W15550  33.907   8.843   1.739
54020W        W15551  10.247  35.526   2.777
54021W        W15552  25.021  15.682  11.544
54022W        W15553  44.268  19.539  12.517
54023W        W15554  26.655  23.619  13.339
54024W        W15555  26.956  40.384   2.679
54025W        W15556  44.809  19.195  14.288
54026W        W15557  42.842  16.794  14.297
54027W        W15558  31.511  14.230  11.910
54028W        W15559   7.314  40.797  11.902
54029W        W15560   6.246   0.461   3.260
54030W        W15561  34.368  22.741  12.432
54031W        W15562  26.127   3.418  14.972
54032W        W15563   4.902  22.146  12.986
54033W        W15564   1.393  10.768  12.837
54034W        W15565  19.618  28.120   2.873
54035W        W15566  29.006   5.273   1.238
54036W        W15567  38.561  30.988  11.521
54037W        W15568  29.506  37.338   1.435
54038W        W15569   4.304  44.003   4.202
54039W        W15570  41.531  14.796   4.704
54040W        W15571  36.497  16.097  10.010
54041W        W15572  12.228  36.869   0.937
54042W        W15573  20.647  44.345  14.981
54043W        W15574   8.784  33.956  13.991
54044W        W15575  23.547  10.853  13.836
54045W        W15576  27.593  16.145  10.628
54046W        W15577  42.346  35.905   3.373
54047W        W15578  44.448  38.542   4.612
54048W        W15579  44.472  15.275   2.296
54049W        W15580  39.812  19.598  11.437
54050W        W15581   3.280  20.061  11.399
54051W        W15582   8.332  13.168  14.905
54052W        W15583  10.694  36.540  13.823
54053W        W15584   6.817  39.933  12.066
54054W        W15585   4.243  11.750   4.129
54055W        W15586  34.051  16.139   3.769
54056W        W15587  24.541  32.633   4.688
54057W        W15588  17.064  36.435  12.398
54058W        W15589  10.300  32.513   5.627
54059W        W15590  20.270  28.493  14.378
54060W        W15591  16.677  15.233   0.871
54061W        W15592  25.107  13.108   4.227
54062W        W15593  30.943  10.682  10.922
54063W        W15594   2.245   0.830   3.856
54064W        W15595  11.244   4.719   3.836
54065W        W15596  10.675   3.725   1.412
54066W        W15597  35.904   4.307   2.400
54067W        W15598  17.175  36.468   1.842
54068W        W15599  37.859  39.493   4.733
54069W        W15600  30.049  29.021  10.612
54070W        W15601  12.129  19.704   1.344
54071W        W15602   5.379  33.561   0.773
54072W        W15603  43.353  29.432  12.897
54073W        W15604  39.531  44.378  11.589
54074W        W15605   4.926  24.993  12.999
54075W        W15606  35.383   3.881  11.514
54076W        W15607  10.288  17.294   2.330
54077W        W15608   3.867  31.035   2.376
54078W        W15609  26.078  32.058   3.274
54079W        W15610  28.596  15.189   4.349
54080W        W15611  34.373  33.941   4.134
54081W        W15612  24.080  28.042  13.340
54082W        W15613  39.964   7.234   2.677
54083W        W15614   0.326  20.116   4.207
54084W        W15615  42.481   9.205  11.032
54085W        W15616  37.418  26.665  13.060
54086W        W15617   8.683  43.838   0.278
54087W        W15618   6.207  25.512  14.366
54088W        W15619   5.811   1.867   3.217
54089W        W15620   9.860  17.187  11.472
54090W        W15621  13.248  44.800   0.909
54091W        W15622   5.289  29.484  14.968
54092W        W15623  18.287  38.825   4.173
54093W        W15624  19.237  18.724   4.661
54094W        W15625  12.808  37.376   1.810
54095W        W15626  33.026   0.310  10.952
54096W        W15627  33.068  25.631   3.801
54097W        W15628  10.338  19.246  10.441
54098W        W15629   3.793  37.528  10.487
54099W        W15630  40.367  40.884   4.200
54100W        W15631  10.805  15.705   4.740
54101W        W15632  42.020   0.378  12.050
54102W        W15633  10.261  43.818  13.397
54103W        W15634   6.708   7.273   0.881
54104W        W15635  33.582  33.449  13.533
54105W        W15636  34.537  27.637  12.400
54106W        W15637  35.934  32.506  13.847
54107W        W15638  15.611  36.380  14.451
54108W        W15639  32.565  37.060   4.296
54109W        W15640  29.576   4.331  12.497
54110W        W15641  38.972  11.674   0.445
54111W        W15642  16.770  19.203  12.922
54112W        W15643   3.450  34.053   0.845
54113W        W15644   3.263  42.413   2.678
54114W        W15645  25.019  31.594   0.863
54115W        W15646  32.618  41.487  13.513
54116W        W15647  36.347  36.496  13.883
54117W        W15648  29.023  39.896  11.452
54118W        W15649  43.920  20.214  10.624
54119W        W15650  30.505  36.852  14.385
54120W        W15651  31.437  21.020   2.225
54121W        W15652  43.474   7.342  14.022
54122W        W15653  44.455   1.800  11.446
54123W        W15654   0.475   9.232  12.886
54124W        W15655   2.419  41.887   1.926
54125W        W15656  26.657  11.129  10.608
54126W        W15657  43.822  36.401  13.832
54127W        W15658  30.591  32.072  12.961
54128W        W15659   5.690   0.921  10.439
54129W        W15660  19.622  29.074   0.799
54130W        W15661  20.148  25.085   0.271
54131W        W15662  40.453  11.161   5.264
54132W        W15663  15.105  39.457  13.847
54133W        W15664  41.491   8.163  11.090
54134W        W15665  24.607  43.806  10.981
54135W        W15666  43.834  22.207  14.930
54136W        W15667  10.174  26.165  12.073
54137W        W15668  15.673  16.224   0.475
54138W        W15669  43.813  33.072  10.954
54139W        W15670  19.179  17.783  10.602
54140W        W15671  10.331  20.049  12.033
54141W        W15672  11.232   4.771   0.816
54142W        W15673  10.190  32.608  13.540
54143W        W15674  39.838  42.519  14.002
54144W        W15675   6.215  18.660   1.719
54145W        W15676   5.228  31.513  11.511
54146W        W15677  24.090   7.879  10.931
54147W        W15678   2.816  19.779   2.860
54148W        W15679  26.604  11.752   3.234
54149W        W15680  37.988   2.813   0.483
54150W        W15681  23.119  14.824   0.824
54151W        W15682   2.358  36.964  12.544
54152W        W15683  22.670  44.268  12.025
54153W        W15684  24.682  23.198   4.238
54154W        W15685  15.140  14.645  12.400
54155W        W15686  19.577  38.874  13.516
54156W        W15687  29.068  28.007  13.360
54157W        W15688  37.041  43.307  10.989
54158W        W15689  39.812   8.274   1.444
54159W        W15690  38.329  23.141  11.428
54160W        W15691   2.800  21.028  14.499
54161W        W15692  22.510  44.328  11.059
54162W        W15693  34.978  31.145   4.717
54163W        W15694   2.261  38.531   3.268
54164W        W15695  42.915   1.918   3.634
54165W        W15696  15.283  26.158  12.061
54166W        W15697  21.121  23.492   1.698
54167W        W15698  30.124  34.080   1.336
54168W        W15699  29.970  42.511   1.736
54169W        W15700  17.188  34.447   3.262
54170W        W15701  44.902  10.843   4.602
54171W        W15702  21.666  44.935   0.317
54172W        W15703  39.837  23.133  11.031
54173W        W15704   4.763  24.505   2.403
54174W        W15705   2.833  29.514  11.127
54175W        W15706  29.933  22.225  10.634
54176W        W15707  24.591  21.518  13.822
54177W        W15708  10.224   1.761  14.894
54178W        W15709  21.130  36.961   4.340
54179W        W15710  24.602  24.159  14.961
54180W        W15711   5.393  37.082   3.766
54181W        W15712  25.056  35.457   3.767
54182W        W15713  10.651  36.514   1.743
54183W        W15714   1.289  12.298  11.015
54184W        W15715  25.648  29.600  14.910
54185W        W15716  16.752   9.302   3.233
54186W        W15717  14.099  26.010   1.350
54187W        W15718  18.556  10.253  12.932
54188W        W15719   6.887  43.302   0.361
54189W        W15720   9.370  30.147   2.418
54190W        W15721   6.302  36.571   3.293
54191W        W15722  25.659  41.958   2.890
54192W        W15723   3.392  38.075  10.574
54193W        W15724   9.308  36.934  11.440
54194W        W15725  21.091  31.027   1.767
54195W        W15726  30.596  41.029  13.823
54196W        W15727  23.720  25.590  10.571
54197W        W15728   9.709  22.595   0.758
54198W        W15729  25.016  28.530   3.823
54199W        W15730  31.937   7.846  10.422
54200W        W15731  31.997  26.623   0.347
54201W        W15732  14.173  28.066   4.215
54202W        W15733  31.023   4.860  12.920
54203W        W15734  32.889  27.141   2.330
54204W        W15735   6.198  26.556  13.909
54205W        W15736  19.072  35.047   4.211
54206W        W15737  16.811  36.474  12.019
54207W        W15738  31.589  22.042  13.891
54208W        W15739  40.445  43.311   1.276
54209W        W15740  41.372  32.092   1.825
54210W        W15741  28.983   1.476  13.919
54211W        W15742  27.563  16.780   1.719
54212W        W15743  42.021  31.506  12.456
54213W        W15744  31.096  12.155   0.759
54214W        W15745  11.285  30.012   5.201
54215W        W15746  36.388  15.582   5.670
54216W        W15747  28.553  18.254  10.995
54217W        W15748  35.012  28.006  10.149
54218W        W15749  28.079  38.503   3.161
54219W        W15750   0.428  24.203   0.291
54220W        W15751  26.486  31.514   0.773
54221W        W15752  40.529  17.801   0.363
54222W        W15753  26.075  43.503   1.242
54223W        W15754  17.603  21.192   3.288
54224W        W15755  41.377  25.136  11.122
54225W        W15756  32.489  37.913   3.273
54226W        W15757  29.964  19.219  11.456
54227W        W15758  22.189  37.463  12.832
54228W        W15759   5.838  32.579  13.456
54229W        W15760  20.093  13.216  12.889
54230W        W15761  38.912  44.775   0.826
54231W        W15762  44.413  41.383  11.960
54232W        W15763  38.432   2.940   3.189
54233W        W15764  24.988   6.408   4.307
54234W        W15765  36.945  12.659   2.270
54235W        W15766  40.496  40.911  11.589
54236W        W15767  23.070  28.536  13.485
54237W        W15768  25.154  37.455   2.847
54238W        W15769  21.577  17.641  13.966
54239W        W15770  10.739  42.480  10.418
54240W        W15771   7.702   5.710  11.419
54241W        W15772  32.096  33.464  10.487
54242W        W15773  19.279  11.217   4.766
54243W        W15774  21.100  19.069  11.559
54244W        W15775  39.822  38.061  14.804
54245W        W15776   3.298  44.264   2.748
54246W        W15777  16.750  33.446   1.392
54247W        W15778  35.081   0.280   2.220
54248W        W15779  32.636  25.695  14.876
54249W        W15780   8.897  38.438   4.731
54250W        W15781  20.194  41.981  10.597
54251W        W15782  17.251  19.610   3.771
54252W        W15783  11.761  39.469   0.892
54253W        W15784   3.287  35.409  11.004
54254W        W15785  26.614   2.806  14.321
54255W        W15786  10.692  11.369  14.772
54256W        W15787  11.707  10.869  10.152
54257W        W15788  14.324  23.507  12.993
54258W        W15789  31.904   4.395  10.541
54259W        W15790   3.756  41.980   2.304
54260W        W15791  44.318  18.239   2.766
54261W        W15792  23.609  10.298  12.827
54262W        W15793  44.826  11.708   0.950
54263W        W15794  22.503   4.293   0.852
54264W        W15795  24.979   1.969   2.822
54265W        W15796  22.124  21.150  10.543
54266W        W15797  42.892  12.625   1.742
54267W        W15798   8.711  40.449  13.399
54268W        W15799  31.632  29.933  12.424
54269W        W15800  27.640  44.922   1.708
54270W        W15801  40.851  25.618  11.926
54271W        W15802   7.772  14.593   1.877
54272W        W15803  44.768  10.334   2.871
54273W        W15804  36.452   1.340   0.417
54274W        W15805  12.297  24.054  12.094
54275W        W15806  24.628   1.962   4.737
54276W        W15807  10.876   8.824   2.397
54277W        W15808  25.005  37.485   0.399
54278W        W15809   4.862  23.998   2.264
54279W        W15810   5.426   0.769   2.180
54280W        W15811   3.254  44.276   4.285
54281W        W15812  24.520  25.107   0.408
54282W        W15813   7.717  30.058   4.271
54283W        W15814  26.598   3.449  10.586
54284W        W15815  20.064  28.641   2.855
54285W        W15816   0.977  30.595  13.956
54286W        W15817  40.496  17.569   4.295
54287W        W15818   7.292  17.281   1.227
54288W        W15819  28.492  19.741  13.828
54289W        W15820  18.276  20.546  12.518
54290W        W15821  23.153   6.836  14.853
54291W        W15822  15.206   8.788   5.246
54292W        W15823  42.021  21.249  11.122
54293W        W15824   9.244  38.395  11.063
54294W        W15825  35.972  31.146  13.020
54295W        W15826   4.878  34.512   1.881
54296W        W15827   8.881   9.851  14.318
54297W        W15828  34.598   5.811   0.862
54298W        W15829  44.345  18.781   2.677
54299W        W15830  40.367   6.789   4.173
54300W        W15831  20.206  22.154   1.320
54301W        W15832   4.291   3.305  12.040
54302W        W15833  37.900  36.967   3.672
54303W        W15834  38.922  29.457  11.491
54304W        W15835  37.997   2.953   1.740
54305W        W15836  24.121  37.428  13.382
54306W        W15837  10.690  25.502   4.120
54307W        W15838  40.031  16.764  11.062
54308W        W15839  33.942  29.167   4.191
54309W        W15840  17.586  33.978  14.831
54310W        W15841  11.233  21.203  14.962
54311W        W15842   5.772   6.838   0.441
54312W        W15843   5.811  30.928  12.560
54313W        W15844  41.818  40.806  14.478
54314W        W15845  11.789  19.649  13.007
54315W        W15846  34.907   7.280  11.442
54316W        W15847  24.046  35.567   2.784
54317W        W15848  12.294  41.387   2.305
54318W        W15849  40.316   2.256   2.183
54319W        W15850  44.768  16.762  13.914
54320W        W15851  36.376  19.224  12.056
54321W        W15852  12.769  43.930   3.331
54322W        W15853  30.585  11.815  13.544
54323W        W15854   1.437  13.238   3.386
54324W        W15855  31.047  25.160  10.556
54325W        W15856   7.723  19.098   1.881
54326W        W15857  18.745  33.079  10.963
54327W        W15858  26.967   3.758   0.281
54328W        W15859  16.674  38.073   3.306
54329W        W15860  24.216  43.946   2.340
54330W        W15861   5.934  17.303  12.540
54331W        W15862   7.253  12.625   0.293
54332W        W15863  17.166  13.780  11.088
54333W        W15864  31.557  27.956  13.383
54334W        W15865  35.417  33.001   1.924
54335W        W15866  35.463   0.940   0.922
54336W        W15867  10.271   4.260   1.825
54337W        W15868  12.356  40.047   1.277
54338W        W15869  37.984  41.906  12.895
54339W        W15870  32.574   6.302  12.953
54340W        W15871   0.876   6.281   3.753
54341W        W15872   1.252  32.458   2.885
54342W        W15873  32.115  19.112  11.895
54343W        W15874   4.214   7.718  11.119
54344W        W15875  26.159  26.092   3.721
54345W        W15876  42.999  39.038   2.753
54346W        W15877  38.975   1.840   0.869
54347W        W15878  35.366  15.168  10.938
54348W        W15879   2.892   9.792  14.769
54349W        W15880  15.789  17.250   1.280
54350W        W15881   1.430  17.249   4.235
54351W        W15882  10.317  10.708   4.134
54352W        W15883  19.224  35.027  10.901
54353W        W15884  40.549  16.762  14.317
54354W        W15885   1.738  35.061  13.837
54355W        W15886  28.934  22.078  14.940
54356W        W15887  33.584  18.677  11.098
54357W        W15888  11.264  12.320   1.733
54358W        W15889  36.046  27.614   0.405
54359W        W15890  29.105  29.591   4.194
54360W        W15891  11.672  25.563  14.320
54361W        W15892   6.882  15.649  10.932
54362W        W15893  40.374  27.678   1.722
54363W        W15894   8.774  41.818   5.313
54364W        W15895  19.709   7.271   0.739
54365W        W15896  38.916  40.799  12.070
54366W        W15897  17.209  22.226  12.826
54367W        W15898  36.529  34.370   2.207
54368W        W15899  31.929   0.974   1.252
54369W        W15900  20.081  19.150  12.372
54370W        W15901  28.122   2.332  12.956
54371W        W15902  22.687  23.663   3.721
54372W        W15903  11.345   3.318  12.550
54373W        W15904   2.962  13.773   0.315
54374W        W15905  35.456  42.870   3.784
54375W        W15906  24.179  24.688  10.546
54376W        W15907   1.863   9.183   4.735
54377W        W15908  43.796   4.746   1.822
54378W        W15909   7.826  21.034   1.764
54379W        W15910  28.142  34.464   4.723
54380W        W15911  14.130  25.494   0.418
54381W        W15912  34.521   9.330  14.359
54382W        W15913  33.594  34.401   0.944
54383W        W15914   3.914  38.396   0.925
54384W        W15915  38.931  33.454  11.919
54385W        W15916  28.452   9.209   2.277
54386W        W15917  16.696  43.992   0.395
54387W        W15918  31.121  36.501   3.174
54388W        W15919  23.601  23.101  11.554
54389W        W15920  18.226   3.885  13.006
54390W        W15921   1.829   7.340  14.351
54391W        W15922   1.965  22.057   1.391
54392W        W15923  23.192  22.673  14.414
54393W        W15924  23.068  15.754   2.673
54394W        W15925  32.093  18.198   4.267
54395W        W15926  18.166   1.460   1.426
54396W        W15927  34.411  18.628  10.443
54397W        W15928  35.093  17.097   4.343
54398W        W15929  19.053   8.745  11.076
54399W        W15930   3.713  21.709  12.923
54400W        W15931  26.666  41.364  10.630
54401W        W15932  40.403  35.860  13.062
54402W        W15933  43.013  10.688  13.433
54403W        W15934   3.335  37.560  11.993
54404W        W15935  12.784  14.242   4.597
54405W        W15936  31.903  31.930  13.348
54406W        W15937   9.722   7.198  11.944
54407W        W15938  10.868  24.009   2.684
54408W        W15939  17.628  25.468   1.310
54409W        W15940  44.449  32.986  14.364
54410W        W15941  16.178  36.875  10.981
54411W        W15942  28.520  38.960   1.876
54412W        W15943   6.315  26.134  10.577
54413W        W15944  18.600   0.788   3.238
54414W        W15945  38.915   6.371   5.252
54415W        W15946  21.263   0.835   4.116
54416W        W15947  22.620  30.081   5.665
54417W        W15948  42.976  16.154  10.631
54418W        W15949  39.370  34.921   1.372
54419W        W15950  18.151  29.660  11.004
54420W        W15951  22.204   2.232   2.208
54421W        W15952  42.490  40.871   0.876
54422W        W15953   3.392  11.734   1.388
54423W        W15954  28.668  23.097   1.445
54424W        W15955  12.333  35.377  11.958
54425W        W15956  42.932   7.254  11.927
54426W        W15957   6.325  17.164  14.953
54427W        W15958  22.590   3.816  11.883
54428W        W15959  41.809  28.086  10.156
54429W        W15960  22.138  18.566   1.296
54430W        W15961  35.365   8.372  10.403
54431W        W15962  38.921   2.438   2.226
54432W        W15963   9.714   9.811   1.829
54433W        W15964  15.219  18.188  13.372
54434W        W15965  35.040  20.176   3.657
54435W        W15966  36.846  21.123  13.949
54436W        W15967  33.898  18.153   4.116
54437W        W15968   7.847  36.859   1.341
54438W        W15969  14.739  28.618   2.276
54439W        W15970  27.088  44.810   1.233
54440W        W15971  35.463  38.514   2.775
54441W        W15972  24.568  18.184   4.745
54442W        W15973   1.837  22.060   1.758
54443W        W15974  34.057  43.982  14.417
54444W        W15975  38.358  21.733   2.386
54445W        W15976  29.447  36.099  11.925
54446W        W15977  22.545  19.216   0.439
54447W        W15978  19.577  24.573   3.743
54448W        W15979  13.842  34.531   9.994
54449W        W15980   8.764   3.379   1.871
54450W        W15981   5.861  42.392   0.889
54451W        W15982   3.830  11.847   0.914
54452W        W15983  33.995  38.861   3.367
54453W        W15984   7.748  24.670   4.809
54454W        W15985  11.246   0.403   2.895
54455W        W15986  12.760  28.102   3.325
54456W        W15987  36.361  20.188   0.758
54457W        W15988  27.517  40.387  14.470
54458W        W15989  36.029  22.095  11.543
54459W        W15990  31.035   0.910   0.929
54460W        W15991  39.038  18.131  13.520
54461W        W15992  13.777  25.137  14.019
54462W        W15993   2.818  42.414  10.475
54463W        W15994  35.057  38.826  12.477
54464W        W15995   4.321   0.251   0.447
54465W        W15996  19.193  12.182   3.649
54466W        W15997  31.423  44.452  12.532
54467W        W15998   7.409  10.159   1.870
54468W        W15999  27.524  35.384  12.975
54469W        W16000  27.618  11.180   4.342
54470W        W16001  27.050  17.655   4.186
54471W        W16002   9.653  34.937  14.791
54472W        W16003  26.510  26.199   3.668
54473W        W16004  26.590  38.978  11.499
54474W        W16005  37.895  42.466   2.259
54475W        W16006  44.287   0.858   1.733
54476W        W16007  33.526  14.285  12.067
54477W        W16008  42.916  18.173   4.791
54478W        W16009  27.009  18.765  14.428
54479W        W16010  15.616  23.165  13.370
54480W        W16011  29.141  24.649  12.966
54481W        W16012  36.404  29.598  11.938
54482W        W16013  12.225  33.390   2.314
54483W        W16014   0.355   6.302   1.802
54484W        W16015   6.367  40.853  12.895
54485W        W16016  19.258  16.606  10.626
54486W        W16017   6.812  31.487   4.717
54487W        W16018  26.045   4.858  12.571
54488W        W16019  11.861   6.678  11.085
54489W        W16020   6.304  17.590   0.350
54490W        W16021  20.648   4.348   3.314
54491W        W16022  31.951  33.500   3.767
54492W        W16023  33.933  37.435   2.769
54493W        W16024  38.408   5.282   3.217
54494W        W16025  29.490   5.905  11.886
54495W        W16026  32.948  28.622  11.989
54496W        W16027  12.182  35.497   1.369
54497W        W16028   2.274  10.801   4.757
54498W        W16029  16.089  30.567  11.507
54499W        W16030  20.523  27.524   0.931
54500W        W16031   3.368  26.518   2.816
54501W        W16032  38.328   1.471  12.463
54502W        W16033  26.497  10.173  14.403
54503W        W16034  16.086  12.215   1.884
54504W        W16035   7.738  42.389   2.871
54505W        W16036  37.389  22.652  14.294
54506W        W16037  43.439  44.402  13.879
54507W        W16038  15.667  40.507  10.951
54508W        W16039  40.405  15.272  12.930
54509W        W16040   4.931  38.031   1.861
54510W        W16041  11.754  29.590   2.185
54511W        W16042  39.858  30.478   3.669
54512W        W16043   4.931   1.458   1.732
54513W        W16044  28.043  24.982   0.436
54514W        W16045  10.163  31.039  13.038
54515W        W16046  28.069  32.915  13.887
54516W        W16047   3.282   3.305  12.363
54517W        W16048  39.811  15.299   2.394
54518W        W16049  17.777  11.832   3.223
54519W        W16050   0.905   7.171   0.435
54520W        W16051  19.731  28.002  11.513
54521W        W16052  28.000   5.867  13.887
54522W        W16053  31.928  31.088  11.461
54523W        W16054  40.854  43.457   1.712
54524W        W16055  37.883  31.487   1.278
54525W        W16056  11.762  29.665   1.898
54526W        W16057  24.994  32.080  10.890
54527W        W16058   5.411  39.410  10.624
54528W        W16059   1.370  42.804  10.973
54529W        W16060  27.029  36.032   0.919
54530W        W16061  33.495  13.784  13.995
54531W        W16062   1.897   5.276  12.013
54532W        W16063  37.852  43.973  12.519
54533W        W16064  28.529  37.430  13.968
54534W        W16065  40.003   1.352  11.017
54535W        W16066   2.418  39.939   2.334
54536W        W16067   4.437  21.214   1.815
54537W        W16068  22.010  29.543   0.382
54538W        W16069  39.997   9.856  12.869
54539W        W16070   1.792  21.194   4.350
54540W        W16071  40.022   2.326  12.844
54541W        W16072  44.871  34.543   1.819
54542W        W16073  10.835  36.505  10.638
54543W        W16074   6.219  11.729  10.541
54544W        W16075  38.365   7.347   4.821
54545W        W16076  37.976  17.794   0.336
54546W        W16077  32.628  41.455  14.881
54547W        W16078  11.181  23.492  14.956
54548W        W16079  13.311  37.930  10.628
54549W        W16080  22.633  10.281   0.916
54550W        W16081   6.914  27.066  14.401
54551W        W16082  37.537  37.393  12.986
54552W        W16083  28.508   1.403   4.257
54553W        W16084  36.960   3.791  10.617
54554W        W16085  36.432  39.921   2.369
54555W        W16086   3.718   7.413   2.862
54556W        W16087  40.959   2.844  13.915
54557W        W16088  34.561   7.174  10.530
54558W        W16089  41.016  19.592  13.024
54559W        W16090  41.537   5.427  11.017
54560W        W16091   4.307  35.459   4.282
54561W        W16092   8.269   7.240   1.906
54562W        W16093  15.667  30.459  11.605
54563W        W16094  15.674  22.502   4.643
54564W        W16095  12.740   7.178  10.952
54565W        W16096  21.123  11.230   0.888
54566W        W16097  44.849   3.883   4.834
54567W        W16098  29.432  33.907  14.416
54568W        W16099  37.577  12.675  14.416
54569W        W16100  36.940  13.208   3.859
54570W        W16101  36.373   1.840   1.332
54571W        W16102  17.689   7.240   0.370
54572W        W16103  26.052   5.263  14.346
54573W        W16104  34.537  43.290  13.011
54574W        W16105  24.153  39.544   1.289
54575W        W16106  28.589  11.723  13.979
54576W        W16107  42.961  14.189   2.231
54577W        W16108  16.102   8.349   2.820
54578W        W16109  29.483   2.730   4.158
54579W        W16110  13.216   1.821   0.945
54580W        W16111  32.090  21.742   3.237
54581W        W16112  39.378  10.138  13.511
54582W        W16113  24.215  41.393   0.940
54583W        W16114  34.029  36.998   0.274
54584W        W16115  15.789  35.571   1.915
54585W        W16116  16.240  29.662  11.490
54586W        W16117  25.488  44.872  11.487
54587W        W16118  43.948  33.543   0.322
54588W        W16119  42.315  44.497   1.756
54589W        W16120  19.146  38.363   2.391
54590W        W16121  17.246  34.919  11.895
54591W        W16122  33.616  12.687   4.740
54592W        W16123  39.996  35.489   4.344
54593W        W16124   6.336  18.762   3.157
54594W        W16125   7.910  27.104   2.324
54595W        W16126   7.200  34.032  12.573
54596W        W16127  20.610  11.684   2.884
54597W        W16128  26.557  40.355   1.446
54598W        W16129   1.921   1.431  13.410
54599W        W16130  31.063  43.951  13.877
54600W        W16131   0.408  12.687  14.764
54601W        W16132   2.257  36.518  10.437
54602W        W16133  36.900   1.842   4.600
54603W        W16134  20.037  14.195  11.083
54604W        W16135  33.048  32.060   0.354
54605W        W16136  21.157   9.706  12.340
54606W        W16137  11.692  23.629   1.425
54607W        W16138  23.149  41.981   3.146
54608W        W16139   4.703   3.328  11.489
54609W        W16140   2.901  30.511  14.991
54610W        W16141   1.251  33.450  13.969
54611W        W16142  39.370   3.330   1.372
54612W        W16143   8.695   0.809   2.232
54613W        W16144  10.346  40.944  13.865
54614W        W16145   2.926  14.638  10.569
54615W        W16146  15.268  44.269   1.773
54616W        W16147   0.312  35.080  14.281
54617W        W16148   1.257  38.828   4.276
54618W        W16149  25.613   8.275  13.521
54619W        W16150  41.317  40.933   2.363
54620W        W16151  10.694  18.279  13.353
54621W        W16152  40.996  29.457  13.541
54622W        W16153  14.748  12.856  12.923
54623W        W16154  17.211  12.123  13.324
54624W        W16155   3.385  27.193   3.318
54625W        W16156  36.017  10.776   3.862
54626W        W16157   9.861  11.834   0.298
54627W        W16158  25.216  43.920  11.457
54628W        W16159  23.613   7.388  14.292
54629W        W16160   8.222  19.690   2.711
54630W        W16161  31.063  10.875  14.331
54631W        W16162  31.606  31.613  13.465
54632W        W16163  24.547  35.560   3.813
54633W        W16164  18.544   0.828   1.921
54634W        W16165  11.262  10.646   0.361
54635W        W16166  42.408  38.565   1.739
54636W        W16167  31.457   1.821   3.833
54637W        W16168  14.289  34.903   4.269
54638W        W16169  34.482  32.946  14.885
54639W        W16170  27.055  30.480  11.868
54640W        W16171   1.363   6.298   4.623
54641W        W16172  26.988  11.722   4.788
54642W        W16173  31.975  17.171   1.224
54643W        W16174  37.861  38.982   4.716
54644W        W16175  29.930   5.787  11.537
54645W        W16176   6.198   4.799  12.545
54646W        W16177  32.552   8.351   0.294
54647W        W16178  38.999  36.357  10.972
54648W        W16179  36.390  31.488   0.762
54649W        W16180  41.371  21.515  12.578
54650W        W16181   4.762  13.831  14.792
54651W        W16182  11.158   3.298  14.764
54652W        W16183  14.637  10.259   4.321
54653W        W16184  26.686  31.131   0.271
54654W        W16185  14.593  22.641   3.840
54655W        W16186  23.181  33.418  11.566
54656W        W16187  22.533  24.185   2.845
54657W        W16188  24.168  44.315  14.409
54658W        W16189  12.733  42.472   1.363
54659W        W16190  34.960  21.553   4.677
54660W        W16191  35.049  34.442  11.015
54661W        W16192  19.558  34.530   1.899
54662W        W16193  39.402   3.355  11.418
54663W        W16194  41.953  40.967   0.354
54664W        W16195  29.611  24.528  11.124
54665W        W16196   7.256  33.102  11.005
54666W        W16197  14.721   0.289  14.430
54667W        W16198  21.165  26.548  14.355
54668W        W16199  33.927  21.699  13.395
54669W        W16200  38.528  27.183  10.554
54670W        W16201  10.714  38.008   2.257
54671W        W16202  24.164  33.526   3.676
54672W        W16203  28.073  32.139  13.996
54673W        W16204  34.972  23.171  10.482
54674W        W16205  11.801   1.794  11.945
54675W        W16206   4.398  41.518   1.241
54676W        W16207  41.863  42.508  10.521
54677W        W16208  22.085  32.015  11.958
54678W        W16209  16.730  17.251  10.458
54679W        W16210  31.943  13.689   1.323
54680W        W16211   5.844  40.044  13.048
54681W        W16212  26.178  22.543  13.484
54682W        W16213  29.462  29.465   0.247
54683W        W16214  31.012  18.600   4.646
54684W        W16215   3.862  34.611  10.991
54685W        W16216   5.354  36.959  11.004
54686W        W16217   3.450  10.802   4.235
54687W        W16218  28.142   6.360  10.906
54688W        W16219  36.471  15.673   5.295
54689W        W16220   8.839  44.898  14.784
54690W        W16221  27.090  29.427   0.282
54691W        W16222  34.502  19.716  14.967
54692W        W16223  39.515  22.649   4.129
54693W        W16224  39.973  27.974   3.723
54694W        W16225   6.817  43.399  11.063
54695W        W16226  44.784   1.963  10.413
54696W        W16227  23.057  10.767  12.831
54697W        W16228  18.247  21.189   1.894
54698W        W16229  12.259  44.812  12.045
54699W        W16230  38.917   6.381   2.739
54700W        W16231   7.216   4.875  14.327
54701W        W16232  23.519  12.665   0.740
54702W        W16233  44.395   2.833   3.769
54703W        W16234   9.648  14.307   3.791
54704W        W16235   6.874  24.159   2.402
54705W        W16236  24.138  34.379  13.443
54706W        W16237  36.479   0.279   4.715
54707W        W16238  40.845  10.237  13.993
54708W        W16239   1.816   3.280   0.358
54709W        W16240  13.113   3.782  10.433
54710W        W16241  11.266  26.462   0.468
54711W        W16242  39.354  34.995  12.056
54712W        W16243  38.496  26.004  14.770
54713W        W16244  35.374  12.816  11.076
54714W        W16245  44.457  20.554   3.774
54715W        W16246   9.701  29.996   9.921
54716W        W16247  15.676  23.101   3.275
54717W        W16248  33.590   3.388   0.919
54718W        W16249   4.865  20.606  11.915
54719W        W16250  39.020  20.163   5.280
54720W        W16251   5.301  35.975  13.408
54721W        W16252  20.761  26.100  13.380
54722W        W16253  21.600  25.968   4.642
54723W        W16254  37.943  16.760  12.455
54724W        W16255   5.355  16.724   4.597
54725W        W16256  37.853  10.799  12.559
54726W        W16257  23.712  25.973  14.765
54727W        W16258  32.465  17.670  14.402
54728W        W16259  13.259  14.123  14.402
54729W        W16260  13.205  33.029  12.465
54730W        W16261   3.730  27.166   2.703
54731W        W16262  36.555   8.345   3.835
54732W        W16263  20.596  21.220  13.315
54733W        W16264   3.877  24.000   1.786
54734W        W16265   1.830  39.547  12.918
54735W        W16266   0.321  26.000   1.741
54736W        W16267  34.382   9.847  14.866
54737W        W16268  25.587  33.972   2.729
54738W        W16269  33.428  10.684   1.889
54739W        W16270   8.866  38.982   4.824
54740W        W16271  20.159  41.531  13.791
54741W        W16272  35.579  18.704  13.883
54742W        W16273  14.283  43.785   3.225
54743W        W16274  30.939  18.207   2.757
54744W        W16275  22.141  19.087  13.014
54745W        W16276   9.765  35.002   4.277
54746W        W16277  29.097   7.698   3.325
54747W        W16278  13.109  31.964   0.735
54748W        W16279   5.215  34.491  13.884
54749W        W16280  25.122  33.995  14.963
54750W        W16281  26.633  14.145  12.076
54751W        W16282  16.692  25.990  13.366
54752W        W16283  22.746  29.088   0.424
54753W        W16284  11.651   8.292  13.036
54754W        W16285  35.365  42.407   3.279
54755W        W16286  22.685  10.219  13.871
54756W        W16287   3.399  34.472  10.948
54757W        W16288  16.622  15.790  12.450
54758W        W16289  22.125  42.369   4.212
54759W        W16290  24.143  38.996   4.256
54760W        W16291   4.732  19.702   0.880
54761W        W16292   3.266  17.606   1.240
54762W        W16293  22.117  21.216   2.803
54763W        W16294  24.059   6.287   4.620
54764W        W16295  24.617  28.542   0.778
54765W        W16296  37.546   9.309  13.429
54766W        W16297   3.426   1.839   3.156
54767W        W16298  26.592  31.503   3.689
54768W        W16299   8.312   8.305   3.762
54769W        W16300  36.988  40.481   0.406
54770W        W16301  34.448  35.065  13.459
54771W        W16302  33.448  17.667   4.691
54772W        W16303  16.168  12.244  11.120
54773W        W16304  33.072  23.575   0.276
54774W        W16305   6.300  19.188  12.441
54775W        W16306   9.815  27.572   4.629
54776W        W16307  17.106   1.797  12.509
54777W        W16308  22.046  42.976  11.009
54778W        W16309   1.766  40.987   2.407
54779W        W16310  19.676  42.331  13.544
54780W        W16311   5.400  38.350  12.920
54781W        W16312   1.418  23.084  11.114
54782W        W16313   6.363  39.501   1.829
54783W        W16314   7.864  28.468   1.850
54784W        W16315  17.760  29.471  11.479
54785W        W16316  18.749   6.684  13.851
54786W        W16317  38.023  26.970   4.752
54787W        W16318   3.842   9.220   4.286
54788W        W16319   2.844  24.178   1.696
54789W        W16320  12.137   0.330  13.529
54790W        W16321  27.075  27.654  10.501
54791W        W16322  36.867  14.309   2.811
54792W        W16323  28.999  33.611  12.079
54793W        W16324  31.141  41.409  11.067
54794W        W16325  12.310   6.200  12.565
54795W        W16326   5.378  21.667   0.392
54796W        W16327   7.712   8.206   0.874
54797W        W16328  34.425  27.967  11.522
54798W        W16329   4.772  19.139  13.035
54799W        W16330  36.406  29.167  11.040
54800W        W16331  42.456  30.025   1.284
54801W        W16332  23.183  38.024  10.447
54802W        W16333  27.647  13.273   4.774
54803W        W16334  25.642   8.681   3.344
54804W        W16335   5.351  38.448   2.672
54805W        W16336  21.725  39.998  13.871
54806W        W16337  41.940   8.202  12.951
54807W        W16338  10.345  14.318   2.718
54808W        W16339  10.861  10.866   2.409
54809W        W16340  21.222  15.141   1.231
54810W        W16341   4.239  27.986  11.039
54811W        W16342  32.428  28.148   0.358
54812W        W16343  31.085  11.736   1.728
54813W        W16344  40.438  23.123  14.030
54814W        W16345  39.478  19.082   1.734
54815W        W16346  15.582  28.935  14.299
54816W        W16347  43.493  37.365   0.899
54817W        W16348  13.326   4.364  11.409
54818W        W16349  19.576   1.416   4.179
54819W        W16350   0.406  14.307   4.253
54820W        W16351  34.580  30.512  10.981
54821W        W16352   9.840  29.928   3.817
54822W        W16353  13.804   5.303   1.447
54823W        W16354  20.209   1.918   0.373
54824W        W16355   4.759   8.838  10.583
54825W        W16356  40.845   2.275  13.518
54826W        W16357   0.352   1.939   0.471
54827W        W16358   2.761  35.978  12.824
54828W        W16359  42.500  34.417  14.009
54829W        W16360  23.041   8.329  11.950
54830W        W16361  13.760   0.260   0.476
54831W        W16362   9.705  32.479  12.079
54832W        W16363   6.403  33.908  11.881
54833W        W16364  20.072  21.219   2.395
54834W        W16365   5.754   5.778  14.355
54835W        W16366  39.457  30.424   0.272
54836W        W16367  18.703  38.856  11.876
54837W        W16368  28.567  31.434   1.245
54838W        W16369   6.750  19.251   4.325
54839W        W16370   6.270   0.830   2.817
54840W        W16371  28.484   7.780  11.460
54841W        W16372  26.694  24.091   1.875
54842W        W16373  30.562  14.767   3.282
54843W        W16374  40.806   4.883  12.373
54844W        W16375  23.155  13.243   2.718
54845W        W16376  19.123  26.643   0.299
54846W        W16377   3.731   4.730   2.199
54847W        W16378  44.312   4.238  10.922
54848W        W16379  26.040  30.917   0.925
54849W        W16380  31.989  36.948  14.456
54850W        W16381   5.268  35.439  13.941
54851W        W16382  44.962  44.444  11.445
54852W        W16383  24.569   1.268   1.354
54853W        W16384  14.175  21.685   2.685
54854W        W16385  34.487  42.425   3.640
54855W        W16386  23.508  18.132  14.933
54856W        W16387  33.930  42.838  14.304
54857W        W16388  24.687  41.453  13.376
54858W        W16389   5.756  20.656  13.818
54859W        W16390  40.913   2.265   1.903
54860W        W16391  34.065  24.130  11.964
54861W        W16392  38.355  22.118   3.187
54862W        W16393  38.998  44.409  11.433
54863W        W16394  33.388   4.762   0.896
54864W        W16395  40.517  36.363  12.452
54865W        W16396  15.722   6.234  10.959
54866W        W16397  42.320  35.424  11.105
54867W        W16398  16.768  15.705   0.803
54868W        W16399  15.113  37.363   4.252
54869W        W16400   6.684  38.536  13.015
54870W        W16401  10.298  23.048  12.908
54871W        W16402  20.192  14.331   2.815
54872W        W16403  23.127  37.951  11.537
54873W        W16404  35.019  24.002  14.903
54874W        W16405  37.884  12.723  13.977
54875W        W16406  36.504  28.974   0.243
54876W        W16407  22.514  22.243  14.498
54877W        W16408  31.416  32.489  13.048
54878W        W16409   3.803  21.673  14.029
54879W        W16410  22.088  17.627  12.382
54880W        W16411  27.657   1.837   4.632
54881W        W16412   5.779   5.420  14.976
54882W        W16413  32.077  14.204  10.625
54883W        W16414   3.814  34.019   3.724
54884W        W16415  36.356  34.581   0.418
54885W        W16416   2.754  18.192  13.001
54886W        W16417   0.303  24.681  12.074
54887W        W16418  12.834   8.802  11.477
54888W        W16419  24.697  41.318  12.544
54889W        W16420  23.657   2.851   0.890
54890W        W16421  17.201  13.769  13.508
54891W        W16422  23.003  40.869  10.971
54892W        W16423  22.155   1.243  12.083
54893W        W16424   5.838  35.441   0.324
54894W        W16425  16.200  34.008  10.937
54895W        W16426   4.926  44.895  12.926
54896W        W16427  33.594   1.955  11.960
54897W        W16428  14.118  29.511  10.582
54898W        W16429  15.186  17.071   2.182
54899W        W16430  42.290  19.062   2.791
54900W        W16431  40.828  44.804   0.431
54901W        W16432   2.897  22.654  10.125
54902W        W16433  16.141   2.418   4.188
54903W        W16434  30.962  18.584  12.094
54904W        W16435  39.836  42.972   4.215
54905W        W16436   0.463  15.112   1.255
54906W        W16437  16.699   2.725   4.252
54907W        W16438  11.286  33.391   4.336
54908W        W16439   3.428   8.684   1.319
54909W        W16440   7.780   4.247   0.780
54910W        W16441  31.617  33.019   0.393
54911W        W16442  41.331  13.159   4.638
54912W        W16443   8.299   4.372   4.266
54913W        W16444  28.464  40.503  11.579
54914W        W16445  32.475  29.089   1.846
54915W        W16446  11.744   2.916  11.020
54916W        W16447  25.587   0.373   4.348
54917W        W16448  31.959  17.703  12.377
54918W        W16449   7.289  12.337   0.739
54919W        W16450  31.073  44.312   3.298
54920W        W16451  29.600  33.131   0.913
54921W        W16452  44.907  33.380  14.931
54922W        W16453  15.819  36.981  13.792
54923W        W16454  24.608   5.914   2.236
54924W        W16455   8.366  33.555  11.942
54925W        W16456  36.981  19.117  14.314
54926W        W16457  26.663  26.071   1.776
54927W        W16458  38.884  25.108  11.073
54928W        W16459  29.055  19.215   1.372
54929W        W16460  16.632   0.343  11.866
54930W        W16461  36.388  23.654  12.935
54931W        W16462  24.602  39.864  12.867
54932W        W16463   3.261  28.978  13.366
54933W        W16464  44.977  32.492  11.109
54934W        W16465  25.028  11.331   0.763
54935W        W16466  26.057  16.273   2.217
54936W        W16467   6.838  32.547  11.541
54937W        W16468   8.348   7.856  13.342
54938W        W16469  39.881  15.790  10.103
54939W        W16470  44.979   8.756   1.876
54940W        W16471  40.396  34.954  11.587
54941W        W16472  44.386  37.528   1.747
54942W        W16473   0.812  25.078  12.479
54943W        W16474  37.858  25.061  12.503
54944W        W16475  30.581  39.477   1.233
54945W        W16476   2.388  23.642  11.400
54946W        W16477  20.087   0.907   3.708
54947W        W16478  38.049  15.136  11.912
54948W        W16479  33.532  31.141  10.105
54949W        W16480  22.594  17.726  12.965
54950W        W16481  13.712  17.668  12.970
54951W        W16482  26.166  10.369  11.049
54952W        W16483  44.347  15.119   0.252
54953W        W16484  24.626   1.963  12.940
54954W        W16485  16.688  28.079   2.812
54955W        W16486  41.802  34.884   4.121
54956W        W16487  15.094  40.975   0.747
54957W        W16488  33.541  32.448   3.161
54958W        W16489   8.269  15.644   4.114
54959W        W16490  19.727  21.130  11.871
54960W        W16491  37.045  34.118   4.651
54961W        W16492  27.553  35.595  13.844
54962W        W16493  15.222  20.210   1.217
54963W        W16494  24.148   7.311  10.965
54964W        W16495  19.665  10.191  13.331
54965W        W16496   0.892  40.390  10.621
54966W        W16497  34.597   4.927   3.196
54967W        W16498  36.968  41.342  14.922
54968W        W16499  42.985  37.379  11.603
54969W        W16500   6.790  35.580   4.181
54970W        W16501  11.635  13.635   0.902
54971W        W16502  18.174  28.611   1.237
54972W        W16503   4.247  33.086   1.852
54973W        W16504  33.439  37.049   4.265
54974W        W16505  12.690  38.426   1.315
54975W        W16506  20.733  35.452   4.236
54976W        W16507  30.504   6.213  14.326
54977W        W16508  11.198  17.713   0.483
54978W        W16509  27.521  28.457   1.438
54979W        W16510  42.005  42.349  14.942
54980W        W16511   5.894  43.895   4.137
54981W        W16512   5.416  20.195  11.523
54982W        W16513   1.327   1.414  13.479
54983W        W16514   2.380  21.586   2.803
54984W        W16515  41.793  12.350   3.178
54985W        W16516  11.227   7.223  13.993
54986W        W16517  22.108  29.173  10.531
54987W        W16518  14.275  24.517   2.193
54988W        W16519   8.746  28.450  13.517
54989W        W16520   0.250  44.858   2.740
54990W        W16521   0.477  44.877  12.054
54991W        W16522   7.749   8.832  14.491
54992W        W16523  26.646   4.809   0.851
54993W        W16524  43.985  10.319  12.567
54994W        W16525   5.774  30.120   2.735
54995W        W16526  30.504  19.271   2.753
54996W        W16527  33.417  20.042  11.551
54997W        W16528  41.341  11.220  14.865
54998W        W16529  32.068   8.703   1.931
54999W        W16530  27.041  26.078   0.936
55000W        W16531  21.159  36.537   4.167
55001W        W16532   8.317  25.519   0.864
55002W        W16533   9.847   0.742   9.505
55003W        W16534  21.213  10.208  12.349
55004W        W16535  12.751   2.790  10.487
55005W        W16536  19.148  25.468   1.244
55006W        W16537  26.134  14.709  12.932
55007W        W16538  18.237  35.863  11.566
55008W        W16539   8.747  39.968  12.856
55009W        W16540   2.348   0.396   0.477
55010W        W16541  32.985  32.033  13.391
55011W        W16542  43.514   3.949   3.174
55012W        W16543  17.193   9.212   0.868
55013W        W16544  27.159  16.633   2.319
55014W        W16545  41.503   1.949  11.568
55015W        W16546   6.375   4.359  13.974
55016W        W16547  17.750  42.517  12.012
55017W        W16548  40.907  15.788  10.963
55018W        W16549  32.636   1.367   1.296
55019W        W16550  16.163  43.310   2.349
55020W        W16551   1.330  14.648  13.803
55021W        W16552  19.226  23.730  10.067
55022W        W16553  42.516  41.908   4.213
55023W        W16554   0.948  18.790   2.324
55024W        W16555  40.838  18.660  13.026
55025W        W16556   4.329  36.354  14.381
55026W        W16557  41.966  18.113   5.200
55027W        W16558  35.588  11.856  12.472
55028W        W16559  28.931  17.061   1.856
55029W        W16560   4.277  37.914   3.739
55030W        W16561  29.067  36.460   2.340
55031W        W16562  31.086  35.557  14.309
55032W        W16563  19.085  36.895   5.574
55033W        W16564  17.170  30.163  11.476
55034W        W16565  34.578  43.384   4.831
55035W        W16566  33.953  35.479  12.059
55036W        W16567   3.216   5.718  11.572
55037W        W16568  23.201  38.339  11.025
55038W        W16569  34.865  32.536  11.497
55039W        W16570  38.854  42.502  11.931
55040W        W16571   0.354  19.774  13.497
55041W        W16572  22.127   7.354   2.293
55042W        W16573  10.841  34.380   3.285
55043W        W16574  32.941  31.457   4.331
55044W        W16575   8.197  44.455  13.061
55045W        W16576  32.044  18.640  11.888
55046W        W16577   4.917  18.663   5.104
55047W        W16578  29.504  26.964   2.662
55048W        W16579  23.985  28.157   5.139
55049W        W16580  26.574  16.809  12.978
55050W        W16581  27.637  13.232  11.023
55051W        W16582  33.490   6.899  14.432
55052W        W16583  11.828   7.305   4.661
55053W        W16584  13.735  40.340   4.699
55054W        W16585   6.799   0.767   9.519
55055W        W16586  25.991  38.358   2.667
55056W        W16587  20.704   3.817   1.808
55057W        W16588   8.218   3.227   2.404
55058W        W16589  33.020  15.714   2.842
55059W        W16590  22.084  26.659   1.361
55060W        W16591   8.790  11.669  12.013
55061W        W16592  11.195   9.174   1.403
55062W        W16593  24.133   0.396   0.937
55063W        W16594   4.256  23.234   1.787
55064W        W16595  14.299   0.375  13.363
55065W        W16596  32.533  14.595   5.696
55066W        W16597   2.309  33.025  13.406
55067W        W16598   7.283  23.179   1.413
55068W        W16599  22.028   5.325  11.606
55069W        W16600  11.159  17.619   4.637
55070W        W16601   2.761  22.591   2.255
55071W        W16602  24.210  13.816   0.426
55072W        W16603  41.295   0.337  13.354
55073W        W16604  35.006  39.345   3.824
55074W        W16605   9.736  34.917   3.655
55075W        W16606  21.046  40.017  10.908
55076W        W16607  35.043  13.621   3.824
55077W        W16608  43.007  28.439  11.935
55078W        W16609  17.583  16.694  14.418
55079W        W16610  43.815  34.014   4.797
55080W        W16611  18.651   3.882   0.300
55081W        W16612  18.624  26.654  12.356
55082W        W16613  38.470  27.462   4.181
55083W        W16614   6.181  37.064  12.504
55084W        W16615  10.861   6.723  12.990
55085W        W16616   8.272  24.996  12.927
55086W        W16617  42.326  10.259   1.269
55087W        W16618  29.530  34.907  11.020
55088W        W16619  17.745  33.088  11.035
55089W        W16620   8.817   9.675  10.972
55090W        W16621   0.268   3.219  11.612
55091W        W16622  23.206  37.018   0.405
55092W        W16623  38.498  38.905  13.541
55093W        W16624  18.750  15.308   2.706
55094W        W16625  14.245  23.603  12.362
55095W        W16626  22.572  25.053  10.488
55096W        W16627   0.303  29.567  12.504
55097W        W16628  17.151   8.399  13.852
55098W        W16629  18.224  42.352  11.913
55099W        W16630  34.928  17.105   3.817
55100W        W16631   1.977  12.722  10.624
55101W        W16632  18.606   2.278  14.409
55102W        W16633  38.325  16.258  12.412
55103W        W16634  33.544   6.186   3.789
55104W        W16635  35.975   2.308  14.417
55105W        W16636  44.968  17.684  10.645
55106W        W16637   5.406  11.291   4.255
55107W        W16638  43.303   7.245  14.816
55108W        W16639  21.699  41.469  14.459
55109W        W16640  10.651  12.322  13.928
55110W        W16641  40.805  36.000   2.349
55111W        W16642  23.662  44.994   1.709
55112W        W16643  11.843  16.582  11.070
55113W        W16644   0.855  39.352  10.621
55114W        W16645  36.389  35.004  14.764
55115W        W16646  30.042  15.748   1.838
55116W        W16647  27.529  37.575   0.964
55117W        W16648  13.625   3.268   4.142
55118W        W16649  26.200   5.277  10.487
55119W        W16650  20.746  41.032   0.382
55120W        W16651  42.525  17.580   0.850
55121W        W16652  34.068  29.445  14.761
55122W        W16653  32.057  15.089   0.398
55123W        W16654  10.636   1.839  11.519
55124W        W16655  14.291  28.082  14.761
55125W        W16656  13.236  38.877   5.180
55126W        W16657  43.333   9.358   2.775
55127W        W16658   7.816  13.788   3.659
55128W        W16659  31.538  25.054  12.374
55129W        W16660  25.108   2.267  11.544
55130W        W16661   6.389  26.690  12.926
55131W        W16662  31.584  34.393  10.595
55132W        W16663  21.656  19.690   1.862
55133W        W16664  29.121  38.978   1.741
55134W        W16665  26.521   5.354   0.863
55135W        W16666  29.078   3.920   0.432
55136W        W16667  31.144  19.535  13.891
55137W        W16668   7.680  23.186  11.879
55138W        W16669  29.665  27.993   2.211
55139W        W16670  17.298   1.372   1.230
55140W        W16671  15.119  15.247  13.318
55141W        W16672   5.329  28.517   1.229
55142W        W16673   4.395  40.496  13.964
55143W        W16674  27.507  43.348   1.289
55144W        W16675  42.306  21.753  11.971
55145W        W16676   7.789   3.814   1.288
55146W        W16677  29.962   6.370  11.865
55147W        W16678   9.738  39.950  11.475
55148W        W16679  14.685  14.286  12.043
55149W        W16680  24.187  30.583   2.768
55150W        W16681  19.274  23.531   2.810
55151W        W16682  13.258  43.387   3.182
55152W        W16683  24.678  37.512  13.956
55153W        W16684  15.231   5.781  11.988
55154W        W16685  27.146   7.729  13.853
55155W        W16686  31.112  16.662  13.333
55156W        W16687  38.398  36.978   5.782
55157W        W16688  25.528  38.977   1.243
55158W        W16689  36.060  21.087  10.545
55159W        W16690   7.712  43.002  12.931
55160W        W16691   0.896  14.668  14.456
55161W        W16692  11.218  32.593   4.236
55162W        W16693  13.606  28.535   3.249
55163W        W16694  39.374  21.554  12.538
55164W        W16695  14.292  40.987   4.759
55165W        W16696  14.815  23.528   3.771
55166W        W16697  18.174  13.777  11.928
55167W        W16698   7.265  33.589  14.309
55168W        W16699  24.533  30.552   1.906
55169W        W16700  40.915  17.702  10.528
55170W        W16701  26.469   8.350   4.747
55171W        W16702  15.593  11.815  10.511
55172W        W16703   7.261  31.526  13.431
55173W        W16704   9.874  15.615   0.763
55174W        W16705  19.187  32.475   2.326
55175W        W16706  30.465  37.086   4.283
55176W        W16707  24.115  32.402   2.352
55177W        W16708  25.101  13.330  13.838
55178W        W16709  18.130  24.191   1.340
55179W        W16710  23.122  40.953   0.804
55180W        W16711  38.505   7.176   4.299
55181W        W16712  41.364  27.004  13.921
55182W        W16713  11.296   0.953  13.385
55183W        W16714  39.541  22.248  12.435
55184W        W16715  27.038  12.757  13.516
55185W        W16716  15.713  38.406  10.549
55186W        W16717  43.833   6.184   4.837
55187W        W16718  21.235  24.125   2.690
55188W        W16719  17.735  36.943   2.714
55189W        W16720  16.756  39.835   0.828
55190W        W16721   0.416   2.313  13.942
55191W        W16722   3.403  13.241  10.468
55192W        W16723  43.459  33.515   1.390
55193W        W16724  29.160  17.065  14.878
55194W        W16725  36.483   2.391   3.168
55195W        W16726  30.124  30.428  10.554
55196W        W16727  25.616  16.791   2.223
55197W        W16728  29.651   4.840   0.938
55198W        W16729  21.190  37.432   9.511
55199W        W16730  29.647   9.294   2.345
55200W        W16731  31.927  39.466   2.824
55201W        W16732   5.920  23.501   5.160
55202W        W16733   7.207  36.493  13.029
55203W        W16734  14.778  31.638   1.316
55204W        W16735  35.001  32.922   4.751
55205W        W16736  36.011  15.627   9.562
55206W        W16737  44.846   2.879   3.209
55207W        W16738  26.103   9.222   2.357
55208W        W16739  28.434  42.513   2.775
55209W        W16740  13.293  33.024   5.642
55210W        W16741   8.897  23.234   2.726
55211W        W16742  40.885   8.744  13.011
55212W        W16743   3.936  16.647   1.727
55213W        W16744  37.554   9.800  14.888
55214W        W16745  31.122  12.832   1.836
55215W        W16746  17.119   1.779   4.301
55216W        W16747   1.357  21.707   1.242
55217W        W16748   0.811  37.495   4.294
55218W        W16749  25.672  16.807  11.437
55219W        W16750  37.514  32.035   3.316
55220W        W16751  11.650   9.330  13.014
55221W        W16752   2.810  41.874  14.333
55222W        W16753  44.974   0.982   4.273
55223W        W16754  22.227  44.866  13.910
55224W        W16755  27.996  28.439   2.678
55225W        W16756  27.195  32.057  14.780
55226W        W16757  30.654   1.975   1.284
55227W        W16758  35.399  34.539  12.864
55228W        W16759   9.374  37.555  11.125
55229W        W16760   8.854  12.731  12.857
55230W        W16761  18.125  41.790   2.403
55231W        W16762  30.633  10.337  14.986
55232W        W16763  14.105   8.383   1.774
55233W        W16764   2.387   5.881   1.792
55234W        W16765   7.779  32.396  14.454
55235W        W16766  26.081   1.758   3.331
55236W        W16767   1.326  17.730  14.290
55237W        W16768  36.055   2.439  11.878
55238W        W16769  23.096  42.889   3.318
55239W        W16770  12.287  34.611   0.243
55240W        W16771   0.753  40.475   5.317
55241W        W16772  13.665  12.144  12.008
55242W        W16773  27.138   0.269   3.737
55243W        W16774  16.154  30.947   9.526
55244W        W16775  21.079  42.525  13.959
55245W        W16776  41.033  26.553   4.795
55246W        W16777  12.700  42.946  11.537
55247W        W16778  26.993  26.131  14.497
55248W        W16779  32.086  20.146  12.032
55249W        W16780  25.546  35.468  13.376
55250W        W16781  19.095  36.429   4.197
55251W        W16782   4.927   6.797  14.415
55252W        W16783  36.995  27.475   1.711
55253W        W16784  35.051  43.904   2.407
55254W        W16785  32.556  26.638  11.515
55255W        W16786  21.217  12.655   4.325
55256W        W16787  12.355  36.091   0.786
55257W        W16788   2.834   6.377   3.313
55258W        W16789  30.053   8.814  11.884
55259W        W16790  41.964   5.843   3.852
55260W        W16791  37.929  24.711   1.324
55261W        W16792   9.244  33.419  14.999
55262W        W16793  31.083  20.711   1.436
55263W        W16794  22.218  16.738   1.805
55264W        W16795  41.935   3.935  13.478
55265W        W16796  13.612  34.923  14.856
55266W        W16797  31.545  38.416   1.321
55267W        W16798  39.423  27.094  13.857
55268W        W16799  42.942  40.458   5.197
55269W        W16800   0.292  28.552  12.365
55270W        W16801  27.031   8.261  12.517
55271W        W16802   4.450   4.849  14.995
55272W        W16803   8.282  28.994   1.750
55273W        W16804  37.427  20.689  12.383
55274W        W16805  16.235   4.795   2.359
55275W        W16806  14.136  42.383   2.336
55276W        W16807  31.429  35.099   1.293
55277W        W16808  40.412  13.268   1.246
55278W        W16809  11.194  31.116   0.779
55279W        W16810  18.771   5.726  14.458
55280W        W16811   3.855  39.451   0.451
55281W        W16812  33.613  24.672  13.466
55282W        W16813  21.730  20.734  10.643
55283W        W16814   5.291  11.802   1.835
55284W        W16815  21.230   6.909  14.849
55285W        W16816  24.579  17.633   2.871
55286W        W16817  44.856  37.408  12.010
55287W        W16818  10.320   4.437   3.317
55288W        W16819  13.225  30.011  12.961
55289W        W16820  18.271  32.596  11.873
55290W        W16821  28.599  12.650   3.748
55291W        W16822  22.735   5.733   2.190
55292W        W16823  31.113  27.980  13.813
55293W        W16824  29.994  18.213  10.477
55294W        W16825   1.428  33.379  12.422
55295W        W16826  23.225  32.941   0.906
55296W        W16827  40.907  13.166   0.784
55297W        W16828   8.881  35.063  12.051
55298W        W16829  32.424  12.843   4.148
55299W        W16830  14.163  20.166   3.344
55300W        W16831  13.150  44.868  12.568
55301W        W16832  29.998  36.350  14.843
55302W        W16833  42.831  23.206  14.895
55303W        W16834  27.106  14.759  11.572
55304W        W16835  42.444  25.526  10.921
55305W        W16836  11.635  37.364  11.018
55306W        W16837  44.971  36.509  10.414
55307W        W16838  38.492  23.714  11.431
55308W        W16839  25.159   7.358  14.362
55309W        W16840  22.093  43.313  14.779
55310W        W16841  32.497   6.759  10.426
55311W        W16842  37.550   4.279   9.995
55312W        W16843  11.669   9.331   0.470
55313W        W16844  10.145  32.454   3.654
55314W        W16845   4.331  41.377   0.298
55315W        W16846  23.522  40.993   4.603
55316W        W16847  36.527  34.995   1.239
55317W        W16848  13.734  14.145   4.169
55318W        W16849   7.685  21.661   1.282
55319W        W16850   7.304  19.268   2.227
55320W        W16851  38.902   3.814  14.352
55321W        W16852  19.613   1.251  11.933
55322W        W16853   9.887  14.676   1.861
55323W        W16854   0.300  21.541  14.324
55324W        W16855   3.271  23.053  10.976
55325W        W16856  23.173  29.475   2.805
55326W        W16857  37.992  43.823   0.389
55327W        W16858  42.999   4.801   0.753
55328W        W16859  18.244  21.083   0.891
55329W        W16860  35.905  20.171  14.308
55330W        W16861  13.599   8.791  12.504
55331W        W16862  36.390  23.567  14.827
55332W        W16863  36.012  11.784  14.488
55333W        W16864  24.175  30.940  12.007
55334W        W16865  37.478  35.475   2.293
55335W        W16866  19.218  30.028   3.302
55336W        W16867  41.468  15.822   3.814
55337W        W16868  27.001  32.975  12.963
55338W        W16869  30.561   0.962   2.856
55339W        W16870  23.112  42.901  11.093
55340W        W16871   3.804   0.357  11.429
55341W        W16872  33.594  35.460   0.317
55342W        W16873  10.265  24.681  14.938
55343W        W16874   2.954  34.478  11.491
55344W        W16875  35.601  19.544   3.836
55345W        W16876   1.409  24.592   3.230
55346W        W16877  28.445  25.573  11.889
55347W        W16878  40.401  16.613  12.576
55348W        W16879  22.101   6.903   3.192
55349W        W16880  40.894   3.344   1.802
55350W        W16881  25.649  11.718   4.641
55351W        W16882   0.838  24.049   0.826
55352W        W16883  42.387  18.069  12.394
55353W        W16884  30.968  44.756  13.397
55354W        W16885  26.631  12.263  14.946
55355W        W16886  10.638  19.140  14.328
55356W        W16887  24.088  27.690   1.318
55357W        W16888  29.424  14.828   2.778
55358W        W16889  43.001  11.623  12.949
55359W        W16890   3.441  15.158  14.812
55360W        W16891  10.730  16.700   2.359
55361W        W16892   9.342  13.614   4.703
55362W        W16893  35.033  33.044   2.869
55363W        W16894  12.826  28.004  14.022
55364W        W16895  28.050   9.648  13.534
55365W        W16896  34.398  34.572  11.121
55366W        W16897  29.046   7.243   1.868
55367W        W16898  15.764  20.760  14.448
55368W        W16899  28.660   8.214   0.854
55369W        W16900  41.908  38.026  13.413
55370W        W16901  40.957   1.433   3.151
55371W        W16902  20.274   8.727  12.853
55372W        W16903   9.871  42.298  12.010
55373W        W16904  40.413  25.180  12.412
55374W        W16905  28.180  29.059  13.032
55375W        W16906  20.170  35.884   0.379
55376W        W16907   6.259  22.058  13.030
55377W        W16908   5.859  33.546  11.578
55378W        W16909  24.621  36.935   1.364
55379W        W16910  28.043  15.108  11.909
55380W        W16911  27.017  10.761   0.272
55381W        W16912   8.340  19.173  13.512
55382W        W16913  25.173  44.312  13.856
55383W        W16914  42.884  27.586   3.149
55384W        W16915  42.431  19.102  13.467
55385W        W16916  17.638  18.553   3.822
55386W        W16917  37.515  20.586  10.431
55387W        W16918  28.480  35.379  10.574
55388W        W16919  44.930  41.928  10.998
55389W        W16920  14.665  22.017  10.633
55390W        W16921  36.076  32.567   1.729
55391W        W16922  41.533  23.535  11.922
55392W        W16923  36.966  35.386  11.492
55393W        W16924  31.488  12.805  13.847
55394W        W16925   5.737  19.047  11.406
55395W        W16926   6.684  25.618  11.915
55396W        W16927   2.837   4.331   1.242
55397W        W16928  21.756  21.653  11.063
55398W        W16929   8.825  14.094   2.205
55399W        W16930  41.011  11.135   3.326
55400W        W16931  10.759  11.263   0.739
55401W        W16932   4.797   4.870  13.429
55402W        W16933  42.971  31.496  13.918
55403W        W16934  12.355  11.813  11.439
55404W        W16935   5.406  33.521  13.508
55405W        W16936  24.124  16.185  10.527
55406W        W16937  17.160  20.252   3.359
55407W        W16938  25.596  15.817   4.133
55408W        W16939  27.548  12.167   1.223
55409W        W16940  38.397   5.745  13.374
55410W        W16941  13.235  27.004   0.417
55411W        W16942  43.992  10.786   1.866
55412W        W16943  23.068  42.407   4.207
55413W        W16944  40.030   4.354   1.350
55414W        W16945  27.125  18.169   1.307
55415W        W16946  17.560  36.038   3.819
55416W        W16947   8.661  33.058  10.522
55417W        W16948   8.366  36.030  11.560
55418W        W16949  12.146  21.188   1.277
55419W        W16950  25.608  39.504  12.940
55420W        W16951  24.085  27.570   0.271
55421W        W16952  43.315  26.187   2.184
55422W        W16953  35.528  36.921   2.667
55423W        W16954  17.780  17.130  12.969
55424W        W16955   4.853   7.250   1.307
55425W        W16956  26.124  36.050  11.404
55426W        W16957  13.112  23.528   0.950
55427W        W16958  43.866  27.976  14.378
55428W        W16959  18.678  30.440  12.519
55429W        W16960  44.818  23.083  13.357
55430W        W16961  33.613  43.383  13.895
55431W        W16962  23.149  21.031  11.966
55432W        W16963  36.934  25.178  11.013
55433W        W16964  18.550  40.542  11.059
55434W        W16965  22.529  21.640  13.374
55435W        W16966   8.406  14.616   3.798
55436W        W16967   2.789  23.219  11.923
55437W        W16968  38.569  22.103   3.667
55438W        W16969  41.367  44.491   0.420
55439W        W16970  26.618  32.092  14.971
55440W        W16971  43.470  39.352   3.185
55441W        W16972   6.783   5.921   1.396
55442W        W16973  42.969   6.400   0.278
55443W        W16974  30.993  20.742  12.824
55444W        W16975  35.102  23.642  12.828
55445W        W16976  32.073  12.132  11.526
55446W        W16977  31.012   1.846  10.069
55447W        W16978  26.094   1.402  11.001
55448W        W16979  12.340   5.264  13.480
55449W        W16980   8.222  23.717  13.044
55450W        W16981  12.767  35.452  12.539
55451W        W16982   8.354  10.865  14.789
55452W        W16983   6.694  38.874  11.598
55453W        W16984  27.045  21.233   0.769
55454W        W16985  38.526  35.591  11.390
55455W        W16986  22.631  28.932  11.091
55456W        W16987  22.091  14.159   3.640
55457W        W16988  43.466  27.634  14.901
55458W        W16989  35.476  44.490  10.417
55459W        W16990  19.583   2.881  10.994
55460W        W16991   7.302  42.795   3.191
55461W        W16992  21.679   1.946  13.830
55462W        W16993  20.573  19.762   4.688
55463W        W16994  42.361  38.337  11.009
55464W        W16995   1.848  33.952   2.282
55465W        W16996  24.160   6.896   4.162
55466W        W16997  34.599  17.698   0.806
55467W        W16998  22.162   3.902  14.294
55468W        W16999  39.349  14.718  11.373
55469W        W17000  26.652  37.976   4.138
55470W        W17001   0.280  27.526   4.739
55471W        W17002  39.490  12.787  14.343
55472W        W17003  15.675  27.188   4.750
55473W        W17004  18.742  11.248   2.786
55474W        W17005  16.716  38.454  10.600
55475W        W17006  25.970  31.461  14.914
55476W        W17007  25.215  38.040  11.463
55477W        W17008  40.376  40.446   3.651
55478W        W17009  11.312  32.094  13.381
55479W        W17010  37.080  24.501  14.454
55480W        W17011   3.432  32.488   0.394
55481W        W17012  29.967  44.903  11.050
55482W        W17013   4.852  12.646  11.066
55483W        W17014  36.516  25.119  10.527
55484W        W17015  39.485  24.564   1.879
55485W        W17016  26.503  11.179   2.337
55486W        W17017  30.535  18.614   0.315
55487W        W17018  16.666   0.269  14.485
55488W        W17019  10.272  41.434   0.274
55489W        W17020  30.094   2.346  11.590
55490W        W17021  12.261   3.797  14.368
55491W        W17022   5.220  35.526  12.912
55492W        W17023  34.099  33.902   4.786
55493W        W17024   6.248  22.164   0.906
55494W        W17025  41.494  28.111  10.907
55495W        W17026  21.182  38.530   0.334
55496W        W17027   5.874  35.557   4.615
55497W        W17028   0.488  27.963   2.698
55498W        W17029  43.021  21.534   4.646
55499W        W17030  19.208   4.327  12.901
55500W        W17031  30.453  22.676  14.304
55501W        W17032   9.745  19.175  11.480
55502W        W17033   5.215  20.271  10.568
55503W        W17034  35.921  18.750   2.300
55504W        W17035  32.607  12.854  11.079
55505W        W17036  32.952   1.777  13.373
55506W        W17037  15.319  22.078  11.443
55507W        W17038  20.561  38.847  12.947
55508W        W17039   8.269  16.700   2.277
55509W        W17040  15.821  10.238   1.870
55510W        W17041  42.926  30.937  14.994
55511W        W17042  15.212  36.065  13.312
55512W        W17043   0.756  13.719  13.801
55513W        W17044  28.490   4.423   0.376
55514W        W17045   3.395  39.967  11.073
55515W        W17046  12.766  17.220   0.870
55516W        W17047  18.137  38.507   5.320
55517W        W17048  34.925  29.018  10.894
55518W        W17049  17.601  19.775  14.797
55519W        W17050   5.306  11.866   3.335
55520W        W17051   4.780   5.379  10.483
55521W        W17052  23.570  28.033  11.120
55522W        W17053   6.706  23.136  10.428
55523W        W17054  34.382  34.571  14.937
55524W        W17055  28.929  36.557  14.464
55525W        W17056   4.918  20.588   2.284
55526W        W17057  27.088  29.976   3.694
55527W        W17058  15.641  11.828   5.240
55528W        W17059   2.874  10.382  12.504
55529W        W17060  22.722   5.839  14.932
55530W        W17061  16.594  29.475   1.766
55531W        W17062  23.674  21.637  13.427
55532W        W17063   4.395  31.985   3.227
55533W        W17064   1.812  27.122  13.896
55534W        W17065  14.589  25.637   1.713
55535W        W17066  25.211   4.220  14.779
55536W        W17067  12.154  36.029   1.896
55537W        W17068  40.517  34.957   5.119
55538W        W17069  23.733   8.356   4.733
55539W        W17070  34.043  16.316  10.595
55540W        W17071  14.722  13.623  12.398
55541W        W17072  28.449  11.331   3.700
55542W        W17073  29.942  15.289   4.771
55543W        W17074   7.706  16.603   0.761
55544W        W17075   4.889  16.203   4.661
55545W        W17076  40.492   4.816  11.916
55546W        W17077  40.507  13.648  11.048
55547W        W17078   3.443  22.183   0.897
55548W        W17079   6.708  43.487  14.437
55549W        W17080  24.055  31.492  10.109
55550W        W17081  21.699  42.385  14.852
55551W        W17082   5.911  25.219   2.197
55552W        W17083   2.723   9.222   0.248
55553W        W17084  15.647  33.553   5.302
55554W        W17085  30.028  10.847   2.343
55555W        W17086   1.332  24.165  14.303
55556W        W17087  26.069  22.024  13.951
55557W        W17088  16.628   3.920   4.654
55558W        W17089  25.067  16.566  14.025
55559W        W17090   5.867  13.139   3.377
55560W        W17091   8.708  39.833  13.853
55561W        W17092  22.507   5.915   1.341
55562W        W17093   6.852  41.972   2.803
55563W        W17094  39.029  17.676   4.757
55564W        W17095  29.014  32.927   1.390
55565W        W17096  29.423   4.935  10.604
55566W        W17097  37.452  14.162  13.929
55567W        W17098  19.769  43.459   3.674
55568W        W17099  31.484  32.493  11.909
55569W        W17100   8.171  27.129   4.309
55570W        W17101   8.786  33.613  11.906
55571W        W17102  16.079  33.556  10.630
55572W        W17103  11.288  11.332  12.036
55573W        W17104   9.279  23.567   4.238
55574W        W17105  30.157  35.582   0.442
55575W        W17106  23.648  36.080  14.993
55576W        W17107   2.867  33.023   3.717
55577W        W17108  27.619  19.275   0.397
55578W        W17109  30.485   8.238   0.886
55579W        W17110  35.430  25.085   1.864
55580W        W17111  39.454   3.317  14.385
55581W        W17112  31.910   3.932   3.303
55582W        W17113   8.262  19.560  14.386
55583W        W17114  40.365   0.754   3.212
55584W        W17115  29.468   8.229   1.719
55585W        W17116   1.334  39.036  11.418
55586W        W17117  14.802  41.534  14.515
55587W        W17118  31.081  42.781   3.712
55588W        W17119  22.542   1.889   4.828
55589W        W17120  18.237   4.700   1.237
55590W        W17121  30.435  11.718   1.849
55591W        W17122  15.811  16.756  11.548
55592W        W17123   4.212   8.275   2.255
55593W        W17124   1.974  31.064   0.906
55594W        W17125  26.688  33.488  14.902
55595W        W17126  15.772  18.755   4.612
55596W        W17127  12.695  27.455   4.186
55597W        W17128  42.339  30.608  13.039
55598W        W17129  32.484  21.741  14.386
55599W        W17130  36.477  41.822   9.938
55600W        W17131  31.138  26.180  10.523
55601W        W17132  35.059  25.079   0.291
55602W        W17133  39.340  21.025   4.246
55603W        W17134   6.195  28.140   3.277
55604W        W17135   2.365  30.468  11.025
55605W        W17136  25.014   5.269   1.812
55606W        W17137  21.240  44.263   0.462
55607W        W17138   6.912  31.967   3.374
55608W        W17139   9.154  33.993   1.812
55609W        W17140  11.324  24.517   4.280
55610W        W17141  19.618   3.240   0.774
55611W        W17142  42.779   6.722  14.298
55612W        W17143  41.913  29.156  11.119
55613W        W17144  24.614   3.310  14.912
55614W        W17145   5.256  16.571   1.863
55615W        W17146  25.137   5.238  12.918
55616W        W17147   6.266  35.531  12.057
55617W        W17148   2.251  12.280   1.396
55618W        W17149   8.763   8.184   1.216
55619W        W17150   4.223  44.820   0.741
55620W        W17151   3.281   2.819   0.792
55621W        W17152   0.479  12.705   1.776
55622W        W17153  27.545  15.315   1.318
55623W        W17154  33.016  27.554   0.925
55624W        W17155  21.613  28.968  14.893
55625W        W17156  16.741  38.967   1.419
55626W        W17157  17.113  39.001   1.798
55627W        W17158   5.926  21.070   4.322
55628W        W17159   0.403  37.549   4.236
55629W        W17160  42.515   5.273   2.800
55630W        W17161   3.764  30.020  13.317
55631W        W17162  21.249  33.060   0.896
55632W        W17163  21.154  33.057   2.902
55633W        W17164  13.718   4.778   2.378
55634W        W17165  11.147  12.349  11.470
55635W        W17166  27.174  39.542   0.420
55636W        W17167  19.558   6.863  12.989
55637W        W17168   6.897  38.061   4.680
55638W        W17169  35.490  18.157  13.874
55639W        W17170  20.209  31.494   3.179
55640W        W17171  39.856  16.776  14.390
55641W        W17172  19.634  35.926   3.374
55642W        W17173   4.266  16.261   4.182
55643W        W17174  43.831  35.022  12.027
55644W        W17175   5.697  13.246  11.892
55645W        W17176  19.159   1.403  10.508
55646W        W17177   1.827  25.083   1.770
55647W        W17178  17.676   4.342   3.349
55648W        W17179  24.047  20.748  14.877
55649W        W17180   3.775   2.391   4.718
55650W        W17181  38.471  30.484   1.934
55651W        W17182  14.161  39.518  13.406
55652W        W17183  11.850  16.751   4.322
55653W        W17184  44.317  35.387   5.276
55654W        W17185  22.515  15.733  11.517
55655W        W17186  36.947  20.657   2.214
55656W        W17187  15.156   6.299  11.063
55657W        W17188   4.426  21.207  12.395
55658W        W17189   4.240   7.240  14.382
55659W        W17190  36.057  18.574   3.354
55660W        W17191  43.020  36.502  14.276
55661W        W17192  20.653   8.715  10.509
55662W        W17193  18.085  40.959  12.459
55663W        W17194  10.692  16.765   0.286
55664W        W17195  18.730   1.861   1.906
55665W        W17196  30.085   2.227  12.344
55666W        W17197   0.884  13.677  14.460
55667W        W17198  25.676  39.370  14.318
55668W        W17199  40.481  40.043  14.469
55669W        W17200  18.658  23.672   3.337
55670W        W17201  32.031  32.929   3.636
55671W        W17202   5.924  42.399   0.368
55672W        W17203   6.733   1.864  10.554
55673W        W17204  35.012   4.240   3.854
55674W        W17205  24.560   4.220  12.039
55675W        W17206   7.259  29.492   0.284
55676W        W17207  19.135  16.233  10.608
55677W        W17208   7.743  44.319  14.348
55678W        W17209  44.926  28.448  10.589
55679W        W17210   1.325  39.370  12.513
55680W        W17211  37.369  32.085   4.321
55681W        W17212  13.844  37.039   2.676
55682W        W17213   4.727  42.911   0.807
55683W        W17214  11.176  34.530  12.361
55684W        W17215  17.211  14.716   0.242
55685W        W17216  33.116  44.377  12.399
55686W        W17217  19.119  44.358  14.906
55687W        W17218   8.898  35.923  11.861
55688W        W17219  41.311   1.885   0.755
55689W        W17220  23.592  28.473  12.894
55690W        W17221  13.280  28.082   3.792
55691W        W17222  26.054  10.746  13.940
55692W        W17223  20.071  10.816   2.803
55693W        W17224  16.176  43.432   2.693
55694W        W17225  37.890  22.064  14.843
55695W        W17226  31.999  24.051  13.450
55696W        W17227  31.152  32.465  13.431
55697W        W17228   9.831  21.035  11.402
55698W        W17229   3.848  14.277   4.282
55699W        W17230   1.279   4.708   3.842
55700W        W17231   0.745  30.594  10.981
55701W        W17232   0.789  23.063  13.325
55702W        W17233   7.790   1.266  10.555
55703W        W17234  34.059  15.800   4.779
55704W        W17235  17.633  28.662   1.824
55705W        W17236   7.836  40.321   4.137
55706W        W17237  30.451   6.898  13.851
55707W        W17238  33.396  10.344  12.366
55708W        W17239  39.817  34.039   1.839
55709W        W17240  24.487  15.650  14.827
55710W        W17241   1.456  31.132   4.722
55711W        W17242  15.651  41.412  12.035
55712W        W17243  28.613  36.518  14.957
55713W        W17244  34.897  32.051  14.485
55714W        W17245   4.776   0.453  14.412
55715W        W17246  35.076  26.977   3.284
55716W        W17247  28.099  37.015   3.182
55717W        W17248  20.659   9.325  11.868
55718W        W17249  22.745  10.317   2.765
55719W        W17250  21.260  28.596   3.185
55720W        W17251  35.902  29.950  10.578
55721W        W17252  32.069  24.157   3.829
55722W        W17253  30.157  14.766   4.713
55723W        W17254  13.132  13.146   0.255
55724W        W17255  16.295  29.065  13.485
55725W        W17256   8.217  21.139  13.015
55726W        W17257  24.135  10.635   2.380
55727W        W17258  21.551  18.231  13.029
55728W        W17259  21.706   3.435   4.655
55729W        W17260  10.720   9.870  13.805
55730W        W17261  24.482  35.993  11.465
55731W        W17262   0.904  37.518  12.835
55732W        W17263  15.305  35.971   4.349
55733W        W17264   2.848  16.780   1.245
55734W        W17265  24.014  32.479  13.921
55735W        W17266  17.180  38.951  14.408
55736W        W17267  41.380  25.658   1.847
55737W        W17268   5.367  16.677  11.048
55738W        W17269  40.493   6.884   4.735
55739W        W17270   0.971  38.344   0.401
55740W        W17271  13.603  28.995  10.533
55741W        W17272  18.700  44.929  11.588
55742W        W17273  25.650   0.813  13.907
55743W        W17274  27.689   8.383  14.496
55744W        W17275  33.570  12.165  13.514
55745W        W17276  35.560  22.659   0.900
55746W        W17277  18.581   0.870   0.345
55747W        W17278  37.854  29.055  13.963
55748W        W17279  33.125  38.023  12.897
55749W        W17280  24.986   0.918  11.550
55750W        W17281  14.248  19.245  12.909
55751W        W17282   1.813   0.906  10.956
55752W        W17283   1.824  40.458  13.537
55753W        W17284  35.928  10.300  13.916
55754W        W17285  19.148  38.954   3.677
55755W        W17286   4.420  26.540  11.091
55756W        W17287  21.705  41.359  14.916
55757W        W17288  28.131  16.643   3.746
55758W        W17289  34.409  30.009   2.901
55759W        W17290  43.005  43.863   3.815
55760W        W17291  18.720   4.788  12.944
55761W        W17292  10.720  19.705  10.977
55762W        W17293  44.401  36.569   3.764
55763W        W17294  33.405  37.842  14.455
55764W        W17295  29.919   1.951   2.717
55765W        W17296   2.739   4.221   3.765
55766W        W17297  25.513  39.496   0.326
55767W        W17298  42.417  23.678  11.541
55768W        W17299  29.503  26.032   4.228
55769W        W17300   3.326  43.506   2.815
55770W        W17301   8.203  40.848   3.166
55771W        W17302  22.513  15.253   2.842
55772W        W17303   0.793  20.072   3.311
55773W        W17304   1.425  27.091   2.392
55774W        W17305  21.095  20.527   1.741
55775W        W17306  15.193  42.852   0.257
55776W        W17307  38.417  25.972  11.919
55777W        W17308  30.953  11.173  10.605
55778W        W17309   3.237  37.466  12.569
55779W        W17310  26.522  26.986   0.328
55780W        W17311  21.548  35.374   0.803
55781W        W17312   2.380  22.018  13.931
55782W        W17313  12.689  36.922  11.119
55783W        W17314  42.962   1.264   2.245
55784W        W17315  25.583  11.634   3.367
55785W        W17316   1.929  11.348  11.110
55786W        W17317  16.660  15.683   2.324
55787W        W17318  26.585  29.529  13.056
55788W        W17319   8.826   9.709   3.672
55789W        W17320  13.687  34.922  12.869
55790W        W17321  27.951  29.098   4.184
55791W        W17322  30.648  35.950   4.774
55792W        W17323  17.065  11.204  14.284
55793W        W17324  40.010  32.904  11.394
55794W        W17325   7.898  23.567  10.428
55795W        W17326  36.873  29.646  14.820
55796W        W17327  30.059  41.892   2.862
55797W        W17328  32.554  23.648  10.955
55798W        W17329   4.923  16.791  11.447
55799W        W17330  44.366  22.747  14.966
55800W        W17331  20.602  25.087   4.293
55801W        W17332  43.771   9.765   4.827
55802W        W17333  44.770  24.640  13.420
55803W        W17334  39.551   2.371   0.789
55804W        W17335  31.503  17.195  10.586
55805W        W17336  24.076   8.184   2.886
55806W        W17337   3.807  31.611   4.142
55807W        W17338  36.490  17.674   0.954
55808W        W17339  44.322  41.947   1.858
55809W        W17340  36.894  31.544   1.870
55810W        W17341  16.674  25.631   2.298
55811W        W17342  23.522  27.165  11.513
55812W        W17343  17.561   8.745  11.456
55813W        W17344  30.013   5.361   1.428
55814W        W17345  29.098  12.308  13.349
55815W        W17346  37.081  35.570  11.922
55816W        W17347  27.548  11.298   0.373
55817W        W17348  17.258   1.771  10.537
55818W        W17349  28.945  27.550  12.034
55819W        W17350   5.338  18.650  14.911
55820W        W17351  11.754  13.764   3.791
55821W        W17352  33.010  33.937  13.313
55822W        W17353  15.727   7.737  13.360
55823W        W17354  21.154  16.745  13.942
55824W        W17355  37.559  33.401   3.281
55825W        W17356  29.068   2.791  12.860
55826W        W17357  24.138  23.136   1.893
55827W        W17358  34.875  11.795  12.060
55828W        W17359  36.016   7.855  13.375
55829W        W17360  14.315  18.571  10.544
55830W        W17361  15.110  19.228   0.273
55831W        W17362   9.698  10.230   1.895
55832W        W17363  40.335  23.104   3.631
55833W        W17364  31.914   3.829  13.399
55834W        W17365  27.942   6.757   4.316
55835W        W17366  32.991  41.513  13.060
55836W        W17367  12.161  28.442   1.808
55837W        W17368   9.760  22.090   4.801
55838W        W17369  17.068   8.227  10.424
55839W        W17370  28.668  27.940   0.351
55840W        W17371  21.649  37.952   4.799
55841W        W17372  19.553  11.826   0.899
55842W        W17373  40.818  22.566  13.478
55843W        W17374   6.888  40.376  12.901
55844W        W17375  44.410   8.387  13.312
55845W        W17376  40.500  14.653   0.846
55846W        W17377   8.663   8.764   2.683
55847W        W17378  18.544   9.836   2.664
55848W        W17379  22.113  18.075  13.791
55849W        W17380   3.216  42.919  11.989
55850W        W17381  12.824  29.967   2.880
55851W        W17382  12.213   8.188   2.179
55852W        W17383  41.329  34.448   1.330
55853W        W17384  17.264   6.680   3.734
55854W        W17385  11.262  12.328  13.536
55855W        W17386  21.175  37.901  13.988
55856W        W17387  13.238  18.203   3.322
55857W        W17388   0.781  27.547   0.962
55858W        W17389   4.407  29.154   0.426
55859W        W17390  22.023  38.344   2.856
55860W        W17391  40.355  13.727  14.937
55861W        W17392  28.646  10.748   1.750
55862W        W17393  12.769  11.843   2.239
55863W        W17394  27.944  25.130  13.900
55864W        W17395  35.572   3.409   3.355
55865W        W17396  31.552  30.034   0.340
55866W        W17397  33.085  17.717  12.505
55867W        W17398  11.222  16.088  14.820
55868W        W17399  28.037  35.527   4.624
55869W        W17400  41.932   6.216   4.657
55870W        W17401  38.843  21.157  12.958
55871W        W17402  15.581  26.686  14.296
55872W        W17403  20.154  19.226  14.835
55873W        W17404  14.720  20.624  11.090
55874W        W17405  26.548  12.728   3.259
55875W        W17406  18.101  21.068  10.614
55876W        W17407  40.388  31.054  14.765
55877W        W17408  19.233  28.035  12.361
55878W        W17409  35.440  34.002   2.858
55879W        W17410   0.294  43.375  14.789
55880W        W17411  16.116  23.047   1.796
55881W        W17412  35.956  11.134   2.186
55882W        W17413  37.868  31.408  12.441
55883W        W17414  22.131  15.280   2.875
55884W        W17415  37.999  40.330  13.923
55885W        W17416  26.683   0.811  10.406
55886W        W17417  21.035   3.885   1.370
55887W        W17418   3.853  18.196  10.407
55888W        W17419  25.010  18.786   1.376
55889W        W17420  37.421   5.705   0.468
55890W        W17421  39.022  37.383  14.893
55891W        W17422  17.161  22.509   5.648
55892W        W17423   5.407   1.756   0.926
55893W        W17424  27.654   6.294  13.326
55894W        W17425  39.007  24.567   0.868
55895W        W17426   7.373  14.663  11.956
55896W        W17427  39.829   5.888  12.457
55897W        W17428   5.317  25.196  11.473
55898W        W17429  17.191   9.339  14.390
55899W        W17430  26.515  18.282   1.276
55900W        W17431  18.179   0.858   0.374
55901W        W17432  13.779  30.073   3.220
55902W        W17433  31.568  18.203   1.348
55903W        W17434  21.639  37.013   5.178
55904W        W17435  11.153  20.730   4.154
55905W        W17436  36.856  10.767  12.092
55906W        W17437  27.980   6.209   3.297
55907W        W17438   8.306  33.072   4.654
55908W        W17439  37.456   6.805  11.445
55909W        W17440  25.025  32.592   1.333
55910W        W17441   5.879  33.882  11.391
55911W        W17442  28.143  40.845  12.004
55912W        W17443  30.054   2.273   1.411
55913W        W17444   5.812  43.809  11.543
55914W        W17445  20.054  41.885   3.175
55915W        W17446   3.767   3.301   1.268
55916W        W17447  24.011  33.876   2.289
55917W        W17448   7.751   0.467  11.993
55918W        W17449  32.913  35.000   4.649
55919W        W17450   4.450  23.682   2.834
55920W        W17451  22.560   7.253   5.269
55921W        W17452  18.092  16.286   4.197
55922W        W17453   5.292  27.672  13.508
55923W        W17454  30.975  22.075   4.179
55924W        W17455  12.345  25.126   4.811
55925W        W17456   6.217  26.970  14.011
55926W        W17457  36.966  16.123  13.873
55927W        W17458   2.263  35.536   4.691
55928W        W17459  37.580  26.672   1.393
55929W        W17460  22.042  11.683  10.960
55930W        W17461   9.777   0.381   4.763
55931W        W17462   7.910   8.743  13.460
55932W        W17463  30.597  19.748   2.754
55933W        W17464   9.153   2.857  12.495
55934W        W17465  29.481  15.760   3.352
55935W        W17466  28.063  19.537   3.719
55936W        W17467   0.987  22.550  10.940
55937W        W17468  16.199  18.256  13.540
55938W        W17469  13.340  34.959   3.275
55939W        W17470  42.410   3.928   3.658
55940W        W17471  41.403  38.927   2.371
55941W        W17472  12.814   1.822   0.369
55942W        W17473  33.590   7.229  10.626
55943W        W17474  15.795  34.384   2.303
55944W        W17475  32.410  23.517   2.698
55945W        W17476  35.883  39.948  13.437
55946W        W17477  33.509  43.368   0.729
55947W        W17478  37.915  29.018  10.995
55948W        W17479  20.579  35.481   0.347
55949W        W17480   8.267  41.802  10.507
55950W        W17481   1.910   0.345   4.274
55951W        W17482  32.965   4.930   3.789
55952W        W17483  13.628   1.872   3.708
55953W        W17484   6.284  13.227   2.200
55954W        W17485  38.363  32.613   0.775
55955W        W17486   1.342  31.107   3.188
55956W        W17487   5.823  18.737  13.050
55957W        W17488  20.654  10.684  14.791
55958W        W17489   4.833  40.512   3.748
55959W        W17490  29.469  25.618   0.302
55960W        W17491  40.528   7.728  12.486
55961W        W17492   7.906  30.082   3.827
55962W        W17493  40.976  15.309  10.630
55963W        W17494  39.370   2.958   2.237
55964W        W17495   3.376  41.005  12.351
55965W        W17496  21.701  23.125   1.722
55966W        W17497  29.051  17.253  12.881
55967W        W17498  24.611  12.737   3.200
55968W        W17499   4.279   8.184   0.352
55969W        W17500  29.089   7.878  13.351
55970W        W17501   7.683  34.937   0.379
55971W        W17502  10.304   3.902   1.437
55972W        W17503  30.094   8.365   1.426
55973W        W17504  12.159  44.800   1.360
55974W        W17505   0.962  18.221   0.434
55975W        W17506  17.128   2.835  13.928
55976W        W17507  10.860  42.863  13.352
55977W        W17508  17.785  13.762   2.685
55978W        W17509  28.439   3.280  12.572
55979W        W17510  42.873  39.981   3.821
55980W        W17511  33.108  15.820  11.382
55981W        W17512  14.797  21.124   4.748
55982W        W17513  31.481  13.167   0.733
55983W        W17514  15.657  38.413  13.883
55984W        W17515   6.754  31.949  10.003
55985W        W17516  34.983   6.782   0.762
55986W        W17517   8.293  37.970  11.868
55987W        W17518   1.868  41.347   0.923
55988W        W17519  24.099  39.957   2.863
55989W        W17520  13.777  14.246   0.288
55990W        W17521   8.846  32.440   4.265
55991W        W17522  21.031   7.399   1.236
55992W        W17523  33.525  38.898   1.860
55993W        W17524  23.014  10.768  12.428
55994W        W17525  41.532  11.675  14.925
55995W        W17526  29.467  18.765   3.796
55996W        W17527  14.803   3.722  12.015
55997W        W17528   6.396  22.711   0.934
55998W        W17529   2.957  27.482  14.274
55999W        W17530  36.580   4.320   1.914
56000W        W17531  20.586   7.361  11.371
56001W        W17532  37.974  10.773  10.909
56002W        W17533   1.802  20.688   2.332
56003W        W17534  10.870   4.219  10.640
56004W        W17535  23.638  28.138   4.809
56005W        W17536  12.131  18.120  13.515
56006W        W17537  41.362  16.644   1.840
56007W        W17538   3.926  33.979   4.145
56008W        W17539  25.192  36.391  12.921
56009W        W17540  32.431  26.010  12.903
56010W        W17541   2.235  36.499   0.826
56011W        W17542  17.697  25.630  11.534
56012W        W17543   4.847  31.066  13.862
56013W        W17544  27.468  41.913  14.902
56014W        W17545  17.140  20.598  14.986
56015W        W17546  25.983   3.829   3.309
56016W        W17547  37.568  15.727  12.924
56017W        W17548  26.529   2.346   1.244
56018W        W17549  43.976  36.419  11.508
56019W        W17550  36.514  24.029  12.339
56020W        W17551  19.570  43.961   4.674
56021W        W17552  12.191   3.278   3.368
56022W        W17553  42.989  40.420   4.737
56023W        W17554  29.626  25.614  14.489
56024W        W17555   0.789  44.313  11.531
56025W        W17556   6.824  43.846   4.622
56026W        W17557  44.945  33.112   3.152
56027W        W17558  34.065   8.347  13.471
56028W        W17559  13.626  12.791  11.398
56029W        W17560  12.258  42.935  12.511
56030W        W17561  17.237   8.803  11.950
56031W        W17562  31.996  36.921  14.895
56032W        W17563  17.771   3.412  14.357
56033W        W17564  42.950   9.257   3.153
56034W        W17565  37.439  25.684  14.366
56035W        W17566  18.057  40.037   2.705
56036W        W17567  27.624  10.198   2.314
56037W        W17568  31.480   0.336  12.923
56038W        W17569  43.388  41.881  13.035
56039W        W17570   0.462  44.924   1.342
56040W        W17571  27.675  14.674   1.237
56041W        W17572  33.601   7.828   2.876
56042W        W17573  43.961  28.505  12.014
56043W        W17574  21.224  28.499  11.594
56044W        W17575  21.082  34.101   4.820
56045W        W17576  14.700  40.840   2.258
56046W        W17577   3.236  31.605  14.509
56047W        W17578  15.675   0.375  11.940
56048W        W17579  10.634  39.556  10.475
56049W        W17580  44.435   7.825  14.015
56050W        W17581  41.362  13.115  10.629
56051W        W17582  24.048  24.616   1.754
56052W        W17583  38.425   8.400  13.814
56053W        W17584  25.196  13.723  10.424
56054W        W17585  24.009  35.896   3.704
56055W        W17586   7.884  43.858   3.369
56056W        W17587  21.603   7.745   4.787
56057W        W17588  35.487  36.930  11.557
56058W        W17589   0.773  11.230  12.499
56059W        W17590  15.134   0.352   0.949
56060W        W17591  30.122   9.863  12.482
56061W        W17592  16.243  29.437  14.884
56062W        W17593  19.228  35.481   1.386
56063W        W17594  15.221  21.721  14.865
56064W        W17595  35.394  36.039  12.527
56065W        W17596  35.490   5.688   0.458
56066W        W17597  21.686   9.670   2.706
56067W        W17598  27.044   4.220  11.877
56068W        W17599  15.240  22.187   1.799
56069W        W17600  21.048  37.338  12.553
56070W        W17601   5.878  34.889  11.539
56071W        W17602  13.667  44.426   4.712
56072W        W17603  35.508  22.133   0.450
56073W        W17604   4.258   9.814  12.044
56074W        W17605  43.938  35.999  14.429
56075W        W17606  42.020  32.518  10.412
56076W        W17607  13.810  15.693  13.996
56077W        W17608  14.336  38.405   1.266
56078W        W17609  32.412  33.494   3.263
56079W        W17610  37.008   5.865  11.382
56080W        W17611  37.950  37.566   0.932
56081W        W17612  16.645  36.923   2.675
56082W        W17613  31.987  15.329  14.985
56083W        W17614  14.236  36.404   2.686
56084W        W17615  24.209  15.196   3.694
56085W        W17616   4.399  39.913  11.897
56086W        W17617  39.365  33.892   1.329
56087W        W17618  33.108  41.865  13.488
56088W        W17619   4.754  11.765  13.376
56089W        W17620  28.007  33.886  13.953
56090W        W17621  27.050  21.199   1.924
56091W        W17622  44.845  37.038   4.189
56092W        W17623  16.581   0.343  12.942
56093W        W17624   7.823  19.207   3.192
56094W        W17625  20.652  13.223   1.699
56095W        W17626   0.914   5.360  13.457
56096W        W17627   1.442  24.140   1.393
56097W        W17628  10.876  20.527  10.529
56098W        W17629   4.880  40.446  14.758
56099W        W17630  27.072   5.254  12.930
56100W        W17631  23.589   0.490   2.291
56101W        W17632  24.685  34.049  12.420
56102W        W17633   6.385  26.974  13.343
56103W        W17634  30.459   2.266  11.424
56104W        W17635  42.936  41.403  11.121
56105W        W17636  43.369  22.231   1.890
56106W        W17637   4.761  34.459  10.599
56107W        W17638  12.147  34.454   4.712
56108W        W17639  33.906  24.001   1.910
56109W        W17640   8.686   4.428  13.404
56110W        W17641  21.242   6.716   4.115
56111W        W17642  12.670   5.865  14.960
56112W        W17643  21.076   8.297   1.437
56113W        W17644   9.852  23.580  13.443
56114W        W17645  10.286  36.972  12.496
56115W        W17646  24.178   6.279   2.343
56116W        W17647  38.862  17.683   1.366
56117W        W17648  33.624  37.841   1.224
56118W        W17649  17.214   7.744   3.147
56119W        W17650  13.634  19.134  13.377
56120W        W17651  42.888   5.820   2.822
56121W        W17652  11.851  12.847   0.477
56122W        W17653  44.392  24.985   3.338
56123W        W17654  12.651  24.170  10.559
56124W        W17655  11.233  38.452  14.356
56125W        W17656   4.821  34.553   2.205
56126W        W17657   9.249   3.423  13.820
56127W        W17658  15.731   6.207  14.406
56128W        W17659  26.039   2.340  12.438
56129W        W17660  36.518   5.374   1.801
56130W        W17661  37.384  22.066  12.449
56131W        W17662  13.335   1.335  14.513
56132W        W17663  34.421  11.683   1.393
56133W        W17664  19.609  43.817   2.782
56134W        W17665  22.159  23.157   3.245
56135W        W17666  35.594  16.122  11.575
56136W        W17667   5.239  35.443   4.237
56137W        W17668  13.120  40.414   4.822
56138W        W17669  23.495  22.129   0.938
56139W        W17670  36.065  18.716   4.644
56140W        W17671   2.384   9.859   4.331
56141W        W17672  12.703   2.460   3.340
56142W        W17673  19.074   7.676  13.835
56143W        W17674  12.768  30.533  14.480
56144W        W17675   4.932  34.871  14.803
56145W        W17676  42.338  15.586  13.985
56146W        W17677  19.232  27.454   3.312
56147W        W17678   3.740  31.452  14.766
56148W        W17679  17.136  38.061   4.688
56149W        W17680  41.371  42.854   3.146
56150W        W17681  36.045  34.094   4.346
56151W        W17682  40.309   4.939  11.557
56152W        W17683  10.216  36.529  13.347
56153W        W17684  36.973  10.726   0.765
56154W        W17685  28.006  14.199  11.480
56155W        W17686   3.945   7.679  11.453
56156W        W17687   6.677   7.249  13.464
56157W        W17688   2.895  43.500   2.186
56158W        W17689  26.960  21.684   1.760
56159W        W17690  43.361  22.549  12.361
56160W        W17691  18.744  25.538   0.875
56161W        W17692  14.282  24.668  11.580
56162W        W17693   5.910  12.305   1.848
56163W        W17694  18.201  34.080  13.995
56164W        W17695   1.889  11.133  13.532
56165W        W17696  44.858   8.700  14.977
56166W        W17697  41.327  12.689   3.682
56167W        W17698   6.798  41.913   3.650
56168W        W17699   7.288  28.177   1.438
56169W        W17700  35.388   5.388   1.227
56170W        W17701   6.395  31.045  10.558
56171W        W17702  42.849   4.899   1.432
56172W        W17703  11.287  35.969   0.379
56173W        W17704  25.656  24.131  11.093
56174W        W17705  17.753   5.933   2.372
56175W        W17706  43.915  34.465   4.601
56176W        W17707  13.772  37.501  13.999
56177W        W17708  17.640  22.518   1.222
56178W        W17709   8.293  11.862   1.364
56179W        W17710  29.540  23.696   4.145
56180W        W17711   1.411  12.128   1.724
56181W        W17712  18.120  27.078  13.517
56182W        W17713  34.457  16.642   3.819
56183W        W17714  29.538   0.810  14.444
56184W        W17715  14.730  43.445  12.525
56185W        W17716  42.007  43.918   0.846
56186W        W17717   3.946  12.157   2.723
56187W        W17718  44.916   6.186  10.408
56188W        W17719   4.805  15.184  14.404
56189W        W17720  24.675   3.381   2.784
56190W        W17721  15.687   9.827  12.974
56191W        W17722  32.475   8.797   3.171
56192W        W17723  16.242  17.167  10.611
56193W        W17724  44.320  20.129  10.584
56194W        W17725   6.262  42.334  12.897
56195W        W17726   9.751  30.438   2.739
56196W        W17727   5.412  37.428  13.381
56197W        W17728  18.208  28.675   0.373
56198W        W17729   4.782  20.631  10.463
56199W        W17730  18.766  30.950  14.790
56200W        W17731   0.768  37.026   1.293
56201W        W17732  24.617   1.972   4.116
56202W        W17733  12.664  10.697   2.394
56203W        W17734  16.237   4.441  12.981
56204W        W17735  27.688   2.232  11.940
56205W        W17736   4.370  21.587  12.493
56206W        W17737  32.604   9.665   5.631
56207W        W17738   0.267  31.500  12.523
56208W        W17739  13.608  42.945   2.770
56209W        W17740  34.390  12.669   0.899
56210W        W17741   5.310   8.694   3.813
56211W        W17742  31.423  14.289   2.360
56212W        W17743   2.897  43.388  13.403
56213W        W17744  28.585  18.713  12.941
56214W        W17745  29.137   7.743   2.205
56215W        W17746  27.659  28.521   2.784
56216W        W17747  22.574   8.685   2.822
56217W        W17748   6.801  16.780  13.981
56218W        W17749  13.712   4.409  13.526
56219W        W17750  22.100  19.135   2.225
56220W        W17751  22.674   4.832  12.825
56221W        W17752  24.136   6.293  10.084
56222W        W17753  33.588  19.544   0.427
56223W        W17754  20.219  37.837   0.464
56224W        W17755  36.945  34.918  12.996
56225W        W17756  34.039   1.759   1.331
56226W        W17757   7.759  13.747  13.974
56227W        W17758  20.100  16.221   4.769
56228W        W17759  40.907  36.057  10.979
56229W        W17760   1.342  25.570  11.101
56230W        W17761  36.474  30.557   0.729
56231W        W17762  39.902  17.566  14.446
56232W        W17763  17.668   2.771   1.427
56233W        W17764  36.969  41.421  14.378
56234W        W17765   7.894   9.350   0.360
56235W        W17766  26.955  44.445   1.792
56236W        W17767  19.274   4.259  10.506
56237W        W17768   2.966  42.372  14.888
56238W        W17769  29.661   3.315  11.957
56239W        W17770  42.407  18.624  11.105
56240W        W17771  19.067  28.115   4.280
56241W        W17772   0.877  27.119  10.942
56242W        W17773   9.670  10.859   1.845
56243W        W17774  24.500  43.909   3.750
56244W        W17775  26.046  35.378  14.819
56245W        W17776  41.796  25.217  14.960
56246W        W17777  42.920  23.519  10.045
56247W        W17778  12.169  27.078   3.714
56248W        W17779  22.707  17.614   0.785
56249W        W17780  29.133  38.482   4.178
56250W        W17781   7.790  29.132  12.879
56251W        W17782  21.691  11.777  14.398
56252W        W17783  12.695  43.348   3.241
56253W        W17784  29.109   2.227   2.895
56254W        W17785   6.901  30.617  13.054
56255W        W17786  18.554  22.526  14.281
56256W        W17787  38.401  30.635  11.921
56257W        W17788  15.590  13.254   3.363
56258W        W17789  15.815  24.491   3.701
56259W        W17790  10.667  19.671  14.840
56260W        W17791  23.493  30.415  14.502
56261W        W17792  21.600  37.993   0.312
56262W        W17793  25.036  41.480  11.490
56263W        W17794  13.224   8.707  13.440
56264W        W17795   5.849  42.962  13.488
56265W        W17796   7.711  29.032   3.657
56266W        W17797   4.221   0.403   0.731
56267W        W17798  11.732  37.004  14.446
56268W        W17799  36.999  39.063  14.309
56269W        W17800  17.255  17.160   5.245
56270W        W17801  21.665  36.038  10.004
56271W        W17802  16.721  32.392  14.984
56272W        W17803  17.732  16.807   4.144
56273W        W17804  41.030  24.511  13.534
56274W        W17805  33.426   6.356  13.354
56275W        W17806   7.400  24.148  12.561
56276W        W17807   3.732  21.534   4.347
56277W        W17808  43.776  32.076   1.871
56278W        W17809   0.310  20.082  10.604
56279W        W17810   8.180  19.643  13.436
56280W        W17811  21.546  40.391   1.323
56281W        W17812  24.160  38.438  11.971
56282W        W17813  42.960  11.655   4.794
56283W        W17814   7.807  25.477  11.411
56284W        W17815  38.361  12.701   0.871
56285W        W17816  38.963  20.674  12.382
56286W        W17817  26.156  42.288   1.867
56287W        W17818  17.599  34.997  10.568
56288W        W17819   8.869  18.106  11.129
56289W        W17820   9.246   4.940   2.673
56290W        W17821  42.407  36.033   4.628
56291W        W17822  13.317   8.171   0.775
56292W        W17823   0.278   5.424   4.256
56293W        W17824  22.573   2.323   1.438
56294W        W17825  32.914   9.335  12.892
56295W        W17826   6.308  14.739  13.418
56296W        W17827  36.481  27.547  11.095
56297W        W17828  17.234  33.496  13.894
56298W        W17829  18.070  26.579   0.425
56299W        W17830  18.704  28.073  13.982
56300W        W17831  25.508  16.253   0.249
56301W        W17832  21.077  39.495   4.254
56302W        W17833   3.865  37.976   2.870
56303W        W17834  24.206  15.821  11.024
56304W        W17835   2.375  44.281  11.043
56305W        W17836  21.093  27.471   3.842
56306W        W17837  32.933  24.095  14.331
56307W        W17838  28.152  10.186   3.380
56308W        W17839  23.089  31.052   1.928
56309W        W17840  37.578  27.067   1.336
56310W        W17841   1.849  38.858   4.183
56311W        W17842  41.485   3.260  14.364
56312W        W17843  24.499  16.593   2.849
56313W        W17844  12.705   8.230  13.036
56314W        W17845  17.176  15.712  11.871
56315W        W17846  27.138  25.088   3.182
56316W        W17847  23.691  16.649  13.842
56317W        W17848  44.944  31.523   2.244
56318W        W17849   3.313  22.229  11.456
56319W        W17850  17.177   0.784   9.941
56320W        W17851  21.525   7.847  13.884
56321W        W17852  38.364  22.703   0.838
56322W        W17853   2.403  25.650   0.928
56323W        W17854  10.641  22.514  10.514
56324W        W17855  31.608  35.533   3.306
56325W        W17856  21.111   9.252   1.789
56326W        W17857  17.560   6.382   0.443
56327W        W17858  29.136  21.551   4.155
56328W        W17859  12.781  18.285  10.442
56329W        W17860  28.147   6.851   4.748
56330W        W17861  26.186  12.764   2.832
56331W        W17862  10.267  22.535  14.009
56332W        W17863  31.927   9.187   4.610
56333W        W17864  16.789  29.446   4.721
56334W        W17865  20.048   7.821  13.532
56335W        W17866  23.680  34.486  12.394
56336W        W17867   1.754  19.567  11.594
56337W        W17868  37.031  19.140  11.446
56338W        W17869   3.417  42.308   3.194
56339W        W17870  37.916  16.127   3.642
56340W        W17871  29.610  24.004   1.360
56341W        W17872  43.490  16.098   2.826
56342W        W17873  37.447  30.968  11.123
56343W        W17874  44.364   9.851   3.867
56344W        W17875  31.906  40.876  12.527
56345W        W17876  22.092  11.153   2.797
56346W        W17877  26.570   7.275   0.403
56347W        W17878   6.297  11.721  11.889
56348W        W17879  20.156   8.172  13.547
56349W        W17880  26.564  19.195  12.413
56350W        W17881  25.512  19.054  10.530
56351W        W17882  34.502   6.898  10.618
56352W        W17883   8.772  31.970   2.777
56353W        W17884  26.608  42.475   1.701
56354W        W17885  22.583  36.567   1.234
56355W        W17886  31.977  42.002   3.191
56356W        W17887  13.839   7.254   2.179
56357W        W17888  31.578   8.247   1.925
56358W        W17889  14.160  27.184   4.120
56359W        W17890  27.167  20.221   1.228
56360W        W17891  36.040  42.319  11.433
56361W        W17892   4.415   8.797  12.882
56362W        W17893   5.712  35.462  11.924
56363W        W17894  23.197  30.135   3.325
56364W        W17895  39.828  11.783  14.999
56365W        W17896  39.907  43.775  11.962
56366W        W17897  11.225  36.480   0.259
56367W        W17898  18.658  24.507  10.066
56368W        W17899  15.098  17.063  14.303
56369W        W17900   2.893  29.983   0.437
56370W        W17901  41.834  29.627   2.775
56371W        W17902  43.415  15.623  12.421
56372W        W17903   0.774  27.596   9.936
56373W        W17904   6.840  11.655  10.507
56374W        W17905  31.927  40.426   0.422
56375W        W17906  36.988  33.100  11.877
56376W        W17907  20.141  34.988  13.438
56377W        W17908  10.267  12.302  11.373
56378W        W17909  13.119  15.317   2.838
56379W        W17910  41.936  34.888  13.837
56380W        W17911  33.615  19.632   5.235
56381W        W17912  40.037  31.131  14.880
56382W        W17913   7.681  16.108  14.349
56383W        W17914  30.015   6.423  11.091
56384W        W17915  16.076  34.915   4.799
56385W        W17916   4.440   3.265   1.792
56386W        W17917  13.602  24.013   2.265
56387W        W17918  31.610  43.293  14.914
56388W        W17919  32.987   8.791   2.787
56389W        W17920  38.477  12.722  10.153
56390W        W17921   3.836   2.226   1.364
56391W        W17922   7.754  29.973   0.847
56392W        W17923  11.129  16.745  13.860
56393W        W17924  18.554  19.264  12.950
56394W        W17925  37.413  31.545  12.857
56395W        W17926   9.815  35.969  10.604
56396W        W17927  41.845  28.447  10.611
56397W        W17928  14.705  10.279   3.241
56398W        W17929  24.184  35.513  11.977
56399W        W17930   9.394  18.239  14.370
56400W        W17931  14.827   2.932  12.572
56401W        W17932  30.624  24.058   0.837
56402W        W17933  38.934  36.060   0.464
56403W        W17934  40.924  20.145  12.861
56404W        W17935  10.766  40.512   1.376
56405W        W17936   3.916  40.306   4.192
56406W        W17937   9.358  44.884  12.962
56407W        W17938  21.102  35.462   4.798
56408W        W17939  17.792  15.083   4.348
56409W        W17940  25.677  35.399   4.648
56410W        W17941   8.857  23.619  11.006
56411W        W17942  43.002  12.284   3.291
56412W        W17943  23.188   3.382   1.338
56413W        W17944  32.503   1.934   4.226
56414W        W17945  37.988  44.448  13.036
56415W        W17946  14.260  21.177   0.256
56416W        W17947   8.700  37.564  11.108
56417W        W17948  36.849  20.267  14.778
56418W        W17949  30.588   8.817  12.455
56419W        W17950  32.115  20.126  10.500
56420W        W17951  33.509  33.918   0.334
56421W        W17952  17.755   1.969  12.992
56422W        W17953  14.295   8.861   4.267
56423W        W17954  25.040   3.285   1.262
56424W        W17955   1.343  23.012  13.797
56425W        W17956  43.926   0.481   0.794
56426W        W17957  19.047  19.136  12.451
56427W        W17958  15.699  18.730  11.947
56428W        W17959   4.389  40.991  12.859
56429W        W17960  38.948  32.946  10.962
56430W        W17961  41.301  35.937  13.862
56431W        W17962   1.834   6.868   4.720
56432W        W17963   4.885  18.729   4.161
56433W        W17964  37.491   6.371   4.837
56434W        W17965   3.714  42.414   2.858
56435W        W17966  27.002  10.284   3.146
56436W        W17967   8.795   5.300   3.352
56437W        W17968  36.974  35.883   3.323
56438W        W17969   5.326   0.415  11.483
56439W        W17970  24.552  36.462  13.546
56440W        W17971   0.306  25.658  13.818
56441W        W17972   5.897  41.303   3.822
56442W        W17973  44.402  35.479   4.737
56443W        W17974  34.373  35.977  12.491
56444W        W17975  16.134   5.222  12.094
56445W        W17976  17.217  30.150   3.221
56446W        W17977  25.216  37.998  10.433
56447W        W17978  19.657  11.807   2.191
56448W        W17979  23.025  21.236   9.957
56449W        W17980  11.136  37.582   2.721
56450W        W17981   8.180  20.646   0.776
56451W        W17982  16.201  11.284  12.017
56452W        W17983  42.942   8.194   1.280
56453W        W17984  17.725  19.253   3.654
56454W        W17985  31.999  13.182  10.467
56455W        W17986  30.929  19.581   2.743
56456W        W17987  40.444   5.286   0.804
56457W        W17988  17.653   2.422  12.835
56458W        W17989  21.678  16.288  12.441
56459W        W17990  32.421   9.183   2.743
56460W        W17991   5.711  11.194   0.371
56461W        W17992   7.774  17.663   0.370
56462W        W17993  29.613  30.072  11.037
56463W        W17994  29.604  34.043   3.759
56464W        W17995  41.830  25.542  10.601
56465W        W17996  22.595  17.252  12.384
56466W        W17997  38.468  15.250  11.968
56467W        W17998  26.670  11.775  10.033
56468W        W17999  30.996  42.510  11.872
56469W        W18000   7.849  40.425   1.784
56470W        W18001  18.730   1.949  13.405
56471W        W18002  40.962  26.113   2.724
56472W        W18003   4.918  12.205   3.651
56473W        W18004  38.392  22.681  14.478
56474W        W18005   4.729  25.163   3.337
56475W        W18006   1.939  27.149   1.296
56476W        W18007  33.896  42.289  10.899
56477W        W18008  28.936   1.438  11.401
56478W        W18009  38.339  23.548  13.967
56479W        W18010  18.104   6.414  11.104
56480W        W18011  38.002   7.721  11.939
56481W        W18012  35.036   1.360  12.383
56482W        W18013  19.043   4.776  14.506
56483W        W18014  29.056   2.416   4.189
56484W        W18015  32.097  28.951  10.059
56485W        W18016   2.313   2.792   2.855
56486W        W18017  34.114  16.210  12.498
56487W        W18018  22.225  14.193  13.387
56488W        W18019   1.790  14.131   4.277
56489W        W18020  29.501  16.649   2.400
56490W        W18021  17.269  41.924  11.104
56491W        W18022  22.719  35.539   4.275
56492W        W18023  29.526  16.298   1.310
56493W        W18024  25.181  32.979  10.460
56494W        W18025  40.848  26.516   2.220
56495W        W18026  20.203  24.540  14.309
56496W        W18027  30.609  35.020   1.237
56497W        W18028  20.537   8.744  14.395
56498W        W18029  10.791  21.548  11.904
56499W        W18030  12.631   3.895   4.757
56500W        W18031  39.895  32.466  12.510
56501W        W18032  16.786  28.479  11.864
56502W        W18033  31.941  22.634   5.172
56503W        W18034  28.559  35.390   4.726
56504W        W18035  35.944   8.280   3.171
56505W        W18036  19.144  37.059  14.914
56506W        W18037  26.152  12.788  10.425
56507W        W18038   1.399  28.472   0.411
56508W        W18039  22.016  25.628   2.695
56509W        W18040  39.951  23.107   0.325
56510W        W18041  37.420  36.352  14.466
56511W        W18042   1.749  22.007  10.017
56512W        W18043  11.754  39.913  12.004
56513W        W18044  17.097  10.306  12.993
56514W        W18045  38.405   9.384   3.741
56515W        W18046  44.310  15.692  13.500
56516W        W18047  33.611  40.422  13.471
56517W        W18048   7.319  41.894  13.958
56518W        W18049  32.073   8.682   3.842
56519W        W18050  37.883  29.940  14.510
56520W        W18051   9.292  14.752  14.819
56521W        W18052  41.804   8.223  13.518
56522W        W18053  25.071  21.516  12.873
56523W        W18054  40.892  24.714  11.924
56524W        W18055   8.177  18.572   4.168
56525W        W18056  39.519   2.256  13.929
56526W        W18057  12.634   0.894   2.856
56527W        W18058  13.232  14.770   2.382
56528W        W18059  21.086  32.431   0.925
56529W        W18060  38.382  29.662  12.843
56530W        W18061  25.165  15.094  14.372
56531W        W18062  38.909  32.063   3.822
56532W        W18063  14.174  16.603  10.471
56533W        W18064  20.268   4.430   1.363
56534W        W18065  12.825  23.172   2.285
56535W        W18066   1.857   1.948   4.667
56536W        W18067  35.106   0.414   1.331
56537W        W18068   0.386  27.182  11.601
56538W        W18069  36.581  19.041  11.441
56539W        W18070  31.100  22.048  12.952
56540W        W18071  43.764  28.538  13.924
56541W        W18072  39.045  29.529   2.295
56542W        W18073  16.804  25.625  12.396
56543W        W18074  37.350   0.432  12.570
56544W        W18075  44.804  27.456   2.415
56545W        W18076  10.351   7.809   0.898
56546W        W18077  43.877  43.277  14.512
56547W        W18078   6.870  33.606  12.349
56548W        W18079  16.569  42.469  10.621
56549W        W18080  15.697   7.691  11.548
56550W        W18081  28.597  17.643   4.670
56551W        W18082  17.579  43.771  14.826
56552W        W18083  38.522   1.872  10.591
56553W        W18084  41.475  36.843  12.009
56554W        W18085   2.436  17.768  13.483
56555W        W18086  36.448  33.571   0.389
56556W        W18087  35.046  27.052   0.925
56557W        W18088   6.239  20.525  11.480
56558W        W18089  21.527  43.328   4.251
56559W        W18090  41.374  21.618   4.598
56560W        W18091  33.994  38.846   0.910
56561W        W18092   1.767  19.555   4.317
56562W        W18093   4.353  32.439   3.236
56563W        W18094  18.789  24.201  13.906
56564W        W18095  11.226  11.343  13.411
56565W        W18096  24.706  40.419  13.904
56566W        W18097  29.152  35.012   1.782
56567W        W18098  41.014  34.076  11.428
56568W        W18099  39.540   2.227  13.505
56569W        W18100  15.213  24.096   4.795
56570W        W18101  15.219  12.620  12.844
56571W        W18102  39.337  16.776   1.295
56572W        W18103  36.086  14.829  12.471
56573W        W18104  37.480  22.520  13.485
56574W        W18105   2.863   5.257  14.974
56575W        W18106  27.084  16.085  11.408
56576W        W18107  26.158  27.156   2.892
56577W        W18108  37.453  27.007   4.291
56578W        W18109  37.019  18.222   1.396
56579W        W18110  40.809  17.600   4.722
56580W        W18111  24.035  21.517   3.249
56581W        W18112   1.317  18.619  13.803
56582W        W18113  22.998   7.195  10.624
56583W        W18114  29.121   5.757  10.572
56584W        W18115  39.558  12.617   0.829
56585W        W18116  33.927  35.897  10.629
56586W        W18117  38.390  23.178   0.264
56587W        W18118  26.055  33.476   2.747
56588W        W18119  23.655   4.367  14.433
56589W        W18120   2.249  24.982  11.903
56590W        W18121   3.367  36.953   2.330
56591W        W18122  30.064  36.991  10.575
56592W        W18123  12.247  22.023  11.053
56593W        W18124   8.706   6.364  13.922
56594W        W18125  25.600   9.670   2.405
56595W        W18126  36.430  36.576   0.961
56596W        W18127  14.711  38.506  13.406
56597W        W18128  11.325   7.253   2.713
56598W        W18129  17.670  11.204   0.810
56599W        W18130  42.288   2.390   4.172
56600W        W18131  41.467  39.335  11.068
56601W        W18132  12.324   2.429  10.965
56602W        W18133   4.707   7.867   0.749
56603W        W18134   6.884  29.991  13.891
56604W        W18135  31.481  29.597   4.220
56605W        W18136  35.561  18.161   1.304
56606W        W18137  29.598  31.552   3.850
56607W        W18138   5.915  28.934  10.473
56608W        W18139   7.397  16.125  12.563
56609W        W18140  24.494  18.577  13.995
56610W        W18141  40.452  20.747   1.757
56611W        W18142   6.767   2.367   1.773
56612W        W18143  24.119  13.838   4.273
56613W        W18144  17.608  14.810   3.743
56614W        W18145   9.726  33.913  13.540
56615W        W18146  10.248  21.033  12.037
56616W        W18147  20.108  13.287  11.512
56617W        W18148  43.451   7.794   4.265
56618W        W18149   4.425  28.082   4.310
56619W        W18150  39.480  24.002  14.966
56620W        W18151   1.433   0.355   3.800
56621W        W18152  35.416  23.070  13.381
56622W        W18153   4.339  20.611  14.808
56623W        W18154   2.876   0.491   0.869
56624W        W18155  13.260   0.444   0.761
56625W        W18156   5.304   8.163  14.904
56626W        W18157   6.419  17.301   0.772
56627W        W18158  15.776   8.864  13.009
56628W        W18159  21.756  12.791  13.469
56629W        W18160  17.601  35.473   3.859
56630W        W18161  41.478   2.767   2.826
56631W        W18162  42.517  26.042  11.448
56632W        W18163  44.460  16.569  12.959
56633W        W18164  24.979  24.582  11.448
56634W        W18165  10.272  16.766  11.987
56635W        W18166  28.115  25.668   2.218
56636W        W18167  36.878   5.909  13.805
56637W        W18168  26.591  24.996  12.856
56638W        W18169  18.237  33.432   2.884
56639W        W18170   6.319  34.984   3.833
56640W        W18171   2.411  38.412   1.739
56641W        W18172  18.781  25.571   1.787
56642W        W18173  29.080   5.703   4.204
56643W        W18174   8.655  16.733  12.541
56644W        W18175  23.545  31.485   0.313
56645W        W18176  11.677  16.159  14.346
56646W        W18177  26.993  33.008   2.418
56647W        W18178  31.973  23.126   1.332
56648W        W18179  40.414  25.054   0.749
56649W        W18180   3.875  40.448  10.898
56650W        W18181   7.173  37.470  12.986
56651W        W18182   5.904  38.347   1.742
56652W        W18183  22.675  17.189   4.721
56653W        W18184  30.575  14.766   0.856
56654W        W18185  12.338  19.187   0.321
56655W        W18186  29.503  22.242   4.609
56656W        W18187   2.877  28.128   0.871
56657W        W18188  13.677  31.432   4.187
56658W        W18189  27.577  39.369   0.857
56659W        W18190  31.052   2.410  12.417
56660W        W18191   3.854  26.067  14.361
56661W        W18192   4.295  13.172   2.862
56662W        W18193  39.904  23.532   2.668
56663W        W18194  19.754   3.781  11.858
56664W        W18195   5.718  30.598  14.986
56665W        W18196   0.770   8.715  10.030
56666W        W18197  11.868  34.389   4.681
56667W        W18198   2.927   7.343  14.301
56668W        W18199  38.075  42.778   0.421
56669W        W18200   6.797  32.595  10.465
56670W        W18201  11.643  19.642   2.411
56671W        W18202  38.846   7.871   0.330
56672W        W18203   0.329  26.966  14.482
56673W        W18204  15.326  31.609   9.518
56674W        W18205   4.747  35.573  14.859
56675W        W18206   7.791  21.120   1.434
56676W        W18207   5.769  16.102  14.280
56677W        W18208  37.514  20.139  13.478
56678W        W18209  42.884  41.292   2.822
56679W        W18210  39.989  39.972   3.707
56680W        W18211   6.216  19.727  14.379
56681W        W18212  20.746   6.869   2.816
56682W        W18213  43.423  11.167   1.219
56683W        W18214  22.741  12.241   1.709
56684W        W18215  36.909   1.470  10.614
56685W        W18216  31.110  21.146  12.918
56686W        W18217   1.395  17.600  13.350
56687W        W18218  15.099  38.866   1.430
56688W        W18219   0.751   8.241   0.861
56689W        W18220  13.277   6.406  13.411
56690W        W18221  28.048  27.446   4.708
56691W        W18222  42.338  31.902  13.983
56692W        W18223  29.558  14.104   4.134
56693W        W18224  41.829  10.264  12.966
56694W        W18225  43.897  35.019   4.225
56695W        W18226  19.111   3.806   4.321
56696W        W18227  32.497  36.511  12.964
56697W        W18228  44.928  34.589  13.894
56698W        W18229  24.512   1.853   0.438
56699W        W18230  35.999  31.037   2.379
56700W        W18231  27.966  40.045   0.447
56701W        W18232   4.355  39.815  10.410
56702W        W18233  40.836  28.607  12.939
56703W        W18234  27.585   3.390  11.969
56704W        W18235  28.449   3.912   0.364
56705W        W18236  27.456   9.362   0.433
56706W        W18237  29.650   9.662  13.395
56707W        W18238  20.083  22.044   2.211
56708W        W18239  23.053  22.534  11.371
56709W        W18240  15.659  13.622   3.280
56710W        W18241  35.568  36.390  13.969
56711W        W18242  13.793  40.440  13.819
56712W        W18243  13.722  16.208   0.468
56713W        W18244  36.395   3.407  12.409
56714W        W18245   8.795  35.043   1.818
56715W        W18246  22.086  18.623   3.630
56716W        W18247  37.458  23.670   3.731
56717W        W18248  23.621   1.390   3.316
56718W        W18249  36.467  16.796  13.513
56719W        W18250  26.198   7.255   4.740
56720W        W18251  11.331  37.535  12.470
56721W        W18252   8.237  32.061   3.662
56722W        W18253  34.943  39.007   3.633
56723W        W18254   5.294   0.748  10.045
56724W        W18255   6.356  37.859   4.227
56725W        W18256  36.054  33.960  13.408
56726W        W18257  26.628  27.105   5.247
56727W        W18258  39.859  36.845  14.282
56728W        W18259  21.050  21.122  10.543
56729W        W18260  15.773   3.307  13.848
56730W        W18261  26.043  14.763  10.590
56731W        W18262   6.286   2.231  13.004
56732W        W18263  35.942   9.374  14.786
56733W        W18264  39.961  40.509   1.257
56734W        W18265   1.977  18.592  12.350
56735W        W18266  44.362  23.227  10.441
56736W        W18267  39.873  16.772   1.894
56737W        W18268  33.023  16.292  12.889
56738W        W18269  15.219  39.380  14.369
56739W        W18270  21.718   3.829  13.034
56740W        W18271  31.096  19.546  10.557
56741W        W18272  22.059  38.416   3.355
56742W        W18273  26.065  22.070   1.859
56743W        W18274  42.923  13.265   1.258
56744W        W18275  42.459  17.161  12.367
56745W        W18276  14.763  19.597   2.305
56746W        W18277  33.552  27.504  13.815
56747W        W18278  23.996  19.271  13.007
56748W        W18279   7.739  10.725   3.219
56749W        W18280  13.310   5.888   2.346
56750W        W18281  22.073  12.341   1.831
56751W        W18282  11.309  12.268  13.802
56752W        W18283  29.430  34.598  10.412
56753W        W18284  41.944  33.482   5.258
56754W        W18285  33.382  23.734  11.902
56755W        W18286  41.476  28.109  11.986
56756W        W18287  21.110  37.410   5.739
56757W        W18288  17.293  43.849   3.316
56758W        W18289  37.395  10.354  11.377
56759W        W18290  43.328  22.678  11.598
56760W        W18291  38.848   9.860   1.733
56761W        W18292  44.296   8.844   1.431
56762W        W18293  21.025  10.148   2.345
56763W        W18294  27.146  22.156  10.556
56764W        W18295  33.518   6.854  13.897
56765W        W18296   5.295   7.283  10.928
56766W        W18297  11.792  42.927  12.457
56767W        W18298  19.700  20.064   3.849
56768W        W18299   1.311  20.687  11.061
56769W        W18300  37.524   6.305  12.984
56770W        W18301  41.333  11.755   1.211
56771W        W18302  43.874   9.677   1.731
56772W        W18303  32.396  34.612  10.948
56773W        W18304   7.728  11.304   4.324
56774W        W18305  21.232   3.915   3.253
56775W        W18306  30.618  19.154   0.906
56776W        W18307   9.237  15.223   0.853
56777W        W18308  35.950  39.990  11.964
56778W        W18309   3.423  19.538  14.417
56779W        W18310  37.932  44.927  13.813
56780W        W18311  17.211  35.491   3.790
56781W        W18312  14.236  21.073   2.247
56782W        W18313  42.966  34.982   4.659
56783W        W18314  16.571  10.166  10.592
56784W        W18315  36.571  17.148   2.709
56785W        W18316  17.227  15.254  11.088
56786W        W18317  25.983  23.038   0.821
56787W        W18318  41.854  34.380   1.418
56788W        W18319  26.959  12.169   2.294
56789W        W18320   6.351  31.906  11.557
56790W        W18321  39.826   2.466  11.867
56791W        W18322  37.492  29.142   4.828
56792W        W18323  39.859  18.291   2.282
56793W        W18324  16.797  31.990  14.391
56794W        W18325  11.305  30.992   0.343
56795W        W18326   9.239   5.887   4.616
56796W        W18327  20.753  32.530  14.952
56797W        W18328  30.601  17.069  13.482
56798W        W18329   6.256   8.897   3.381
56799W        W18330  19.676  11.160   2.191
56800W        W18331   5.423  21.574  10.905
56801W        W18332   6.215  35.987   0.437
56802W        W18333  22.710  27.602   4.236
56803W        W18334   7.171  29.526   3.671
56804W        W18335  10.371  16.769   1.399
56805W        W18336  12.739  39.329  13.991
56806W        W18337  32.945  16.160   0.933
56807W        W18338  31.509  32.994  12.089
56808W        W18339  23.124  27.127   0.820
56809W        W18340   1.281  13.624   2.387
56810W        W18341  10.178  18.181   3.274
56811W        W18342  28.565  34.485  10.407
56812W        W18343  41.481  30.501   4.336
56813W        W18344  10.172  14.722   3.866
56814W        W18345  14.694  14.747   4.787
56815W        W18346  34.558  33.611  12.088
56816W        W18347   2.423  13.614  11.378
56817W        W18348  38.055  21.663   3.790
56818W        W18349  42.519  26.083  10.934
56819W        W18350  42.408  44.336  12.982
56820W        W18351  40.863  12.780  14.511
56821W        W18352  23.610  35.565   1.391
56822W        W18353  32.491  39.818  14.900
56823W        W18354  42.312  11.726  13.408
56824W        W18355   7.682  15.129  11.879
56825W        W18356   2.744  28.562   0.961
56826W        W18357  38.390  13.822  11.423
56827W        W18358  42.297  29.593   4.221
56828W        W18359  37.402  31.409  12.462
56829W        W18360  18.245  26.974  14.951
56830W        W18361  42.961  12.769   4.794
56831W        W18362  31.605  29.649   4.629
56832W        W18363  34.965  15.603  10.901
56833W        W18364  19.647  13.300   3.386
56834W        W18365   1.262  22.250  11.068
56835W        W18366  40.529  19.236  13.823
56836W        W18367  37.861  28.567  10.504
56837W        W18368   5.240   5.857   4.128
56838W        W18369  29.043  30.485   3.653
56839W        W18370  15.309  16.316   2.378
56840W        W18371   1.278   5.699   4.639
56841W        W18372  43.286   9.866  11.466
56842W        W18373  43.941  15.198   4.657
56843W        W18374  44.305   0.295  14.948
56844W        W18375  17.769  35.592  11.458
56845W        W18376  10.709  38.450  14.864
56846W        W18377  29.442  42.342   1.727
56847W        W18378  33.129   0.904   3.149
56848W        W18379  43.959  20.618  14.361
56849W        W18380  43.424   4.348   0.958
56850W        W18381  10.787  10.848  14.419
56851W        W18382  41.317  33.447   4.232
56852W        W18383   4.910  33.437   2.390
56853W        W18384  41.505  41.027  12.973
56854W        W18385  27.481  29.163  11.901
56855W        W18386  16.174  25.664  12.536
56856W        W18387   4.425  30.960  12.568
56857W        W18388   7.194  26.490  12.517
56858W        W18389  15.147  18.742   4.162
56859W        W18390   8.285   4.280  14.909
56860W        W18391  10.837  20.579   0.338
56861W        W18392  33.058  19.249   5.288
56862W        W18393  36.395   6.730  14.356
56863W        W18394  41.909   0.321  11.379
56864W        W18395  14.257   9.270   0.322
56865W        W18396  12.208   0.749  10.578
56866W        W18397   4.291   6.693  12.842
56867W        W18398  21.078  10.693   1.858
56868W        W18399   8.237  11.730   2.248
56869W        W18400  31.030  13.765  11.423
56870W        W18401  33.053  39.029  11.116
56871W        W18402  21.096  39.955   0.859
56872W        W18403  38.514   6.409  11.548
56873W        W18404   1.740  37.070   4.805
56874W        W18405  36.482  14.743   5.133
56875W        W18406  42.798  13.332   2.834
56876W        W18407  21.184  41.369  14.785
56877W        W18408  41.508  28.674   3.229
56878W        W18409   4.345   9.734  10.622
56879W        W18410  35.999  12.843   0.284
56880W        W18411  19.606  44.782  11.073
56881W        W18412   7.776  29.536  14.938
56882W        W18413  13.667   3.347  11.561
56883W        W18414  20.081  11.738   4.743
56884W        W18415  34.399  32.093   2.715
56885W        W18416  30.557   7.339   1.264
56886W        W18417  20.149   5.894   4.817
56887W        W18418  16.718  39.850   3.302
56888W        W18419  42.916   7.377  12.867
56889W        W18420  17.653  13.130   0.309
56890W        W18421  20.750  10.320  14.996
56891W        W18422  36.512  31.584  12.563
56892W        W18423  11.778  44.797  14.948
56893W        W18424  10.143  13.612   4.807
56894W        W18425  12.313  30.616  14.948
56895W        W18426  20.172   7.800  14.937
56896W        W18427  13.846  40.469  12.034
56897W        W18428  36.543  29.094   3.373
56898W        W18429  41.892   1.937   0.427
56899W        W18430  19.570  30.616   4.187
56900W        W18431  28.467  11.761  11.027
56901W        W18432   5.898  26.193   1.834
56902W        W18433  36.946  32.608  10.516
56903W        W18434  14.618  42.840  14.310
56904W        W18435  43.385  41.376   0.954
56905W        W18436  35.465  33.576  12.865
56906W        W18437   3.409   1.410   3.643
56907W        W18438  24.022  38.842  11.985
56908W        W18439  44.269  24.122   0.317
56909W        W18440   7.887  44.326  11.048
56910W        W18441  40.806   5.907   2.822
56911W        W18442  43.509  39.350  12.059
56912W        W18443  41.002   1.861   1.445
56913W        W18444  39.558   6.316   4.230
56914W        W18445   4.215  10.230  14.414
56915W        W18446   2.758  40.385  10.603
56916W        W18447  38.531  35.031  13.954
56917W        W18448  32.452  35.400  14.410
56918W        W18449  42.845  27.544   2.799
56919W        W18450  21.199  26.987   4.284
56920W        W18451   0.307  38.389  12.976
56921W        W18452  10.366   4.854   3.696
56922W        W18453  35.022  27.564   1.322
56923W        W18454  14.646  32.001  12.562
56924W        W18455  43.485  20.765   2.297
56925W        W18456  15.182   7.849  11.089
56926W        W18457  43.418   4.940   2.280
56927W        W18458   2.888   7.693  13.952
56928W        W18459  15.111  34.488  12.372
56929W        W18460  17.573  18.258  13.484
56930W        W18461  32.608  21.659  13.500
56931W        W18462  40.353   9.650   1.262
56932W        W18463  35.929  28.090   1.702
56933W        W18464   8.689  38.334  14.846
56934W        W18465  15.233  17.701  12.469
56935W        W18466  29.931  12.637   1.414
56936W        W18467  20.678  17.592  14.026
56937W        W18468  20.638  22.613   4.636
56938W        W18469   4.778  10.700  12.082
56939W        W18470   2.855  16.223   3.856
56940W        W18471  37.861  32.443  12.404
56941W        W18472   7.777   3.762   4.207
56942W        W18473   6.280   6.797   0.728
56943W        W18474  22.202   5.289   4.722
56944W        W18475  34.047   4.741  14.401
56945W        W18476   7.803  34.069   3.160
56946W        W18477  31.597  26.069   4.797
56947W        W18478   3.425  43.501  13.031
56948W        W18479  15.785   8.234  13.058
56949W        W18480   2.778  27.027  12.559
56950W        W18481   7.673  29.971   1.796
56951W        W18482  19.678  40.917  14.898
56952W        W18483  18.222  18.172   3.717
56953W        W18484  15.712   1.309   2.879
56954W        W18485  42.952  30.098   4.615
56955W        W18486   6.210  43.831   3.740
56956W        W18487   7.297  34.463  13.038
56957W        W18488   9.720   2.789   0.799
56958W        W18489  18.646  43.787  13.929
56959W        W18490  21.701  19.654   4.181
56960W        W18491  16.730  36.096  13.431
56961W        W18492  42.912  24.011   2.723
56962W        W18493   6.363   0.877   3.255
56963W        W18494  33.424  13.190   2.415
56964W        W18495  15.210  18.158   4.610
56965W        W18496  25.996  32.975   0.828
56966W        W18497  13.722   9.347   4.738
56967W        W18498  28.497  15.642  13.889
56968W        W18499   4.444  14.710   2.837
56969W        W18500  35.085  12.735  14.825
56970W        W18501  35.451  28.008  13.052
56971W        W18502  38.049  14.260  13.360
56972W        W18503  16.640   6.404   1.413
56973W        W18504  27.091  20.565  11.524
56974W        W18505   1.334  39.944   2.234
56975W        W18506  32.949  25.604  10.548
56976W        W18507  27.034  38.525   0.476
56977W        W18508  33.396  40.868  12.544
56978W        W18509   9.213   8.287   2.895
56979W        W18510  30.955  33.576   3.709
56980W        W18511  11.365  23.085  14.873
56981W        W18512  30.915   0.795   1.261
56982W        W18513  39.881  27.110  13.340
56983W        W18514  33.885  11.319   1.862
56984W        W18515  13.151  17.750   3.250
56985W        W18516  15.142  38.844  11.878
56986W        W18517   1.882  40.426   2.848
56987W        W18518  12.219   9.220  13.918
56988W        W18519  37.079  16.213  14.413
56989W        W18520  44.275   9.159   3.658
56990W        W18521   5.413  37.484  13.975
56991W        W18522   2.892  27.970   1.447
56992W        W18523  42.495  12.692   4.224
56993W        W18524  10.366  39.044  13.025
56994W        W18525  14.725  34.060  14.769
56995W        W18526  17.752  17.648   4.272
56996W        W18527  27.652  38.394   1.834
56997W        W18528  13.842  11.209   2.311
56998W        W18529   2.901  23.716  10.631
56999W        W18530  13.685  19.132   3.718
57000W        W18531   7.865  33.105   1.272
57001W        W18532  26.119  36.013  10.458
57002W        W18533  26.610  44.392  14.807
57003W        W18534   5.237  15.135   4.195
57004W        W18535   0.311  12.130   0.416
57005W        W18536  14.816  24.680  13.814
57006W        W18537  22.158  26.019  10.997
57007W        W18538  23.227  16.595   0.761
57008W        W18539  16.206  19.131  14.341
57009W        W18540  15.134   0.898  14.804
57010W        W18541  28.659  31.010   3.738
57011W        W18542  14.707   2.385  11.124
57012W        W18543  22.709  21.028  10.580
57013W        W18544  13.774  20.614  12.849
57014W        W18545  17.725  13.132   4.652
57015W        W18546   9.229  34.540   2.709
57016W        W18547  17.160  20.059   1.791
57017W        W18548   1.816  28.464   3.738
57018W        W18549  33.603  44.434   3.660
57019W        W18550  12.820  23.529  13.401
57020W        W18551  43.893   7.217   3.764
57021W        W18552  19.745  35.063  14.998
57022W        W18553  34.507  35.970  14.827
57023W        W18554   8.656  14.833  10.532
57024W        W18555  11.652  16.146  13.362
57025W        W18556  34.995  16.629  13.020
57026W        W18557  26.648   2.819   2.255
57027W        W18558   6.922  29.075  13.395
57028W        W18559  24.144  32.593  13.486
57029W        W18560  19.704  11.775  14.793
57030W        W18561  42.813   1.310  14.353
57031W        W18562  12.116   9.228   2.753
57032W        W18563  36.421  12.708  12.361
57033W        W18564  32.988  18.551   4.132
57034W        W18565  30.436   3.299   1.278
57035W        W18566  24.712  34.587  11.476
57036W        W18567   4.769  40.839  12.399
57037W        W18568  13.774  40.313  11.121
57038W        W18569  38.838  15.824  10.511
57039W        W18570   2.383  17.729   4.178
57040W        W18571  35.414  21.081   3.334
57041W        W18572  23.662   6.274   0.397
57042W        W18573  25.181   7.303  12.994
57043W        W18574  18.784  23.022  14.807
57044W        W18575   4.902  40.442   5.228
57045W        W18576  11.215  25.026  11.423
57046W        W18577  33.955   2.284  12.392
57047W        W18578   4.756  36.453  11.496
57048W        W18579  17.784   5.785  13.399
57049W        W18580  10.157  31.985  12.388
57050W        W18581  19.542  33.473   3.245
57051W        W18582  19.534   6.424  10.583
57052W        W18583  32.115  33.988   3.347
57053W        W18584  39.960  39.019  13.051
57054W        W18585   9.746  29.610   2.403
57055W        W18586  10.326  31.523  14.367
57056W        W18587  10.139  37.465   0.293
57057W        W18588  20.746  31.561  12.064
57058W        W18589  35.466  38.408  11.041
57059W        W18590  31.562  34.912  10.486
57060W        W18591  42.311  22.107  14.907
57061W        W18592  12.267  37.849   3.859
57062W        W18593  35.445   2.256   3.852
57063W        W18594  44.266  40.984   0.728
57064W        W18595  29.537  18.758  12.548
57065W        W18596  13.322   8.207  12.825
57066W        W18597  36.374  33.927  13.963
57067W        W18598  39.859  14.614  13.048
57068W        W18599  11.192  24.579   1.424
57069W        W18600   2.880  23.196  13.470
57070W        W18601   6.811   3.239   4.316
57071W        W18602  39.329  27.522   3.263
57072W        W18603  38.875  30.131   2.299
57073W        W18604   3.911  26.686   3.293
57074W        W18605   4.837   2.890  12.376
57075W        W18606  14.617   7.805  13.380
57076W        W18607  36.406  21.230  13.816
57077W        W18608   0.438  33.955   3.779
57078W        W18609   3.272  30.045   4.265
57079W        W18610  17.567   7.788  11.861
57080W        W18611  34.425  10.703  13.417
57081W        W18612   2.794  43.498   4.652
57082W        W18613   0.923  22.048  11.030
57083W        W18614   4.382  10.378  13.885
57084W        W18615  23.103  35.976  11.459
57085W        W18616  34.085  10.758  13.406
57086W        W18617   4.265  19.777  11.521
57087W        W18618   7.259  15.180   3.340
57088W        W18619  16.318  29.071   1.330
57089W        W18620   2.250  28.627   0.323
57090W        W18621  22.566  10.878  11.505
57091W        W18622  38.444  22.617  12.995
57092W        W18623  37.905  19.207  10.644
57093W        W18624  28.156  43.398   4.819
57094W        W18625  37.392  42.285   4.791
57095W        W18626  38.968  29.995   1.402
57096W        W18627  42.893  22.082  14.982
57097W        W18628  14.701  18.122   1.765
57098W        W18629  41.295   3.284   4.696
57099W        W18630  11.161  17.300  11.582
57100W        W18631   5.760   6.330   3.236
57101W        W18632  29.660  39.542  11.980
57102W        W18633  35.013  27.678   4.135
57103W        W18634  42.984  30.988  13.368
57104W        W18635  39.040  28.561   1.370
57105W        W18636  44.888  37.360  12.920
57106W        W18637  15.719  37.853   4.162
57107W        W18638  34.370  12.783  10.594
57108W        W18639  22.201   1.803   4.732
57109W        W18640  28.674  38.383   0.247
57110W        W18641  20.719  14.256   0.361
57111W        W18642  22.578   3.252  12.443
57112W        W18643  43.001  29.954  13.879
57113W        W18644  21.092  44.856   4.239
57114W        W18645   6.368   2.281   2.300
57115W        W18646  27.104  17.194   1.710
57116W        W18647  43.829  30.118  12.923
57117W        W18648  21.696  22.048   4.255
57118W        W18649  44.431  28.010  13.401
57119W        W18650  27.615   8.373   3.236
57120W        W18651  44.951  17.220   4.767
57121W        W18652  11.318  12.780   0.733
57122W        W18653  11.349  19.780   1.801
57123W        W18654   1.397  11.360   4.641
57124W        W18655  26.462  36.354  13.539
57125W        W18656  39.329  39.957   2.706
57126W        W18657  35.380  16.691  13.374
57127W        W18658  31.638   3.347  11.856
57128W        W18659  26.029  31.405  10.515
57129W        W18660   6.238  24.134   1.395
57130W        W18661  11.707  31.061   1.388
57131W        W18662  40.446  33.516  14.487
57132W        W18663  41.983  43.845   2.664
57133W        W18664  29.623  16.783  14.013
57134W        W18665   4.364  11.211  14.293
57135W        W18666  35.527   4.294  10.988
57136W        W18667   3.237  10.649  14.965
57137W        W18668  39.391   8.839  14.509
57138W        W18669  24.987  27.063  11.875
57139W        W18670  29.426  23.219   3.634
57140W        W18671  17.706   8.304   3.377
57141W        W18672  11.701  40.822  14.370
57142W        W18673  18.759  17.087  11.046
57143W        W18674  14.746  35.596   2.402
57144W        W18675  14.155  37.501   3.675
57145W        W18676  36.561  31.912  12.479
57146W        W18677   1.284   7.270  11.963
57147W        W18678  34.592  34.503  12.571
57148W        W18679  31.079  20.164  10.599
57149W        W18680  41.894  26.089  11.884
57150W        W18681   5.393   5.234   3.657
57151W        W18682  34.542  20.053  12.454
57152W        W18683   7.874   4.787   1.886
57153W        W18684  10.289  18.776   1.228
57154W        W18685  19.157  18.231  14.846
57155W        W18686  33.441  28.960  14.494
57156W        W18687  13.280  38.340  12.861
57157W        W18688  42.031  13.696   0.380
57158W        W18689   0.762  40.463   0.851
57159W        W18690  38.415   1.442  10.903
57160W        W18691  21.263  39.835  13.980
57161W        W18692   2.849  32.533  12.834
57162W        W18693  35.373   6.845  10.569
57163W        W18694  17.256  26.702  10.945
57164W        W18695   4.780  34.938   4.132
57165W        W18696  14.721  40.363   4.248
57166W        W18697  11.716   1.327  14.339
57167W        W18698  21.255   0.392   2.801
57168W        W18699  21.064   5.768  14.327
57169W        W18700  32.614  17.772   3.209
57170W        W18701  27.058  17.220   4.832
57171W        W18702  19.597   9.313   4.329
57172W        W18703  18.142  17.627   1.440
57173W        W18704  37.370   2.752   3.681
57174W        W18705  38.509  32.005  10.530
57175W        W18706  33.490  11.763  12.998
57176W        W18707  18.151  31.486   2.747
57177W        W18708  27.990   4.303  13.037
57178W        W18709  44.323   7.310  10.576
57179W        W18710  25.626  20.183   4.798
57180W        W18711  44.309  25.572  12.397
57181W        W18712  43.464  35.497  13.855
57182W        W18713  32.892   6.761   2.198
57183W        W18714   7.301  15.694   1.373
57184W        W18715  10.269  28.079   4.755
57185W        W18716  16.260  14.624   2.188
57186W        W18717  17.701  20.738  12.077
57187W        W18718  43.415  31.141   0.408
57188W        W18719  25.706  31.128   1.850
57189W        W18720  27.965  43.418  11.869
57190W        W18721  38.516  30.125   4.742
57191W        W18722  13.672  13.318  12.976
57192W        W18723  10.236   0.980  11.902
57193W        W18724  34.036  10.219  11.875
57194W        W18725  43.920  28.100  12.562
57195W        W18726   2.383   4.789   0.880
57196W        W18727  37.971  10.299   4.182
57197W        W18728  12.330  34.907   4.166
57198W        W18729  30.017   0.796  12.024
57199W        W18730  25.516  21.200   5.087
57200W        W18731   0.753  41.441  10.580
57201W        W18732  36.977  25.614   0.348
57202W        W18733  22.006  34.397  12.522
57203W        W18734  44.488  24.658  12.946
57204W        W18735  44.788  42.903  14.468
57205W        W18736   9.379  24.160   4.711
57206W        W18737  12.649  28.122  12.511
57207W        W18738  22.584  12.136  11.897
57208W        W18739   0.810   8.380  11.497
57209W        W18740  44.436   8.772   4.639
57210W        W18741  38.950  39.559  12.938
57211W        W18742   1.294   2.897  14.779
57212W        W18743  39.479  43.474  13.019
57213W        W18744   2.386  23.667  12.992
57214W        W18745  41.341  38.911   2.681
57215W        W18746  18.206  36.964  10.444
57216W        W18747   9.300   5.715  10.585
57217W        W18748  12.856  37.556  14.858
57218W        W18749  41.461   4.835  13.888
57219W        W18750  20.765  12.329  13.325
57220W        W18751  26.504  15.591  14.900
57221W        W18752   7.854  13.780   3.183
57222W        W18753  39.903  40.859   2.708
57223W        W18754  33.478  12.203   4.128
57224W        W18755  23.195   2.334   4.834
57225W        W18756  13.238  38.949  11.603
57226W        W18757   3.917   6.255  10.603
57227W        W18758   5.323   4.779  14.857
57228W        W18759   2.899  18.193   4.597
57229W        W18760  21.145  27.528  11.070
57230W        W18761   6.854  34.371   1.727
57231W        W18762  25.561  26.594  12.566
57232W        W18763  32.633   5.702   1.357
57233W        W18764   4.743  17.275   3.342
57234W        W18765  24.028  11.638   5.263
57235W        W18766  42.776   7.337  11.537
57236W        W18767  33.046  43.343   2.852
57237W        W18768  38.071  29.552  14.797
57238W        W18769  14.666   5.859  11.070
57239W        W18770  11.294  41.447  12.470
57240W        W18771  27.535  41.531  13.812
57241W        W18772  11.656  34.603   1.406
57242W        W18773  39.826  39.488   1.788
57243W        W18774  34.378  21.697   1.324
57244W        W18775  32.038  41.424  13.985
57245W        W18776  30.545   0.254   0.377
57246W        W18777  12.193  36.445  10.485
57247W        W18778  34.531  21.032   0.880
57248W        W18779  10.325   9.650   4.129
57249W        W18780   0.266  13.698   1.419
57250W        W18781   6.709  18.118  11.869
57251W        W18782  20.742  26.519   1.438
57252W        W18783  16.201  36.888  14.513
57253W        W18784   7.725  13.305  11.494
57254W        W18785  43.019   0.482   3.314
57255W        W18786  40.455   2.776   0.291
57256W        W18787   8.270  19.222  11.456
57257W        W18788  30.923  37.476   0.802
57258W        W18789   7.837  34.990  10.524
57259W        W18790  24.548  33.909  13.017
57260W        W18791  40.840  30.484  13.962
57261W        W18792  19.711   3.868   1.356
57262W        W18793  31.153  41.840  13.798
57263W        W18794  18.247  39.463  11.970
57264W        W18795  33.530  31.016  11.026
57265W        W18796  28.980   6.701  12.503
57266W        W18797  37.867  30.140  14.759
57267W        W18798  26.460  32.457  12.990
57268W        W18799  25.522  19.623   5.307
57269W        W18800  37.565  30.101   3.643
57270W        W18801  37.424   1.806   0.305
57271W        W18802  21.612  37.072  10.622
57272W        W18803   2.251   3.261   3.266
57273W        W18804  22.659  28.155  10.503
57274W        W18805   5.428  26.001  10.601
57275W        W18806  15.273   2.321  10.559
57276W        W18807  35.940  18.156  11.981
57277W        W18808  35.542   9.804  12.560
57278W        W18809  34.971  40.453  11.532
57279W        W18810  38.430  34.381  11.540
57280W        W18811  27.068  25.187   0.383
57281W        W18812  19.703  43.425   2.845
57282W        W18813  20.188   3.882   3.300
57283W        W18814   7.813  43.353   1.243
57284W        W18815  22.606  33.488  13.547
57285W        W18816  10.219  38.036   5.238
57286W        W18817  36.877  32.121   0.762
57287W        W18818   1.893  23.553   4.625
57288W        W18819  27.137   2.363   4.337
57289W        W18820   3.244  39.884  11.971
57290W        W18821  31.562  15.206   5.603
57291W        W18822  18.750  43.997   2.308
57292W        W18823  22.999  33.390  11.973
57293W        W18824  22.013  32.984  13.313
57294W        W18825  19.704   4.764  14.329
57295W        W18826  37.421  35.951  14.469
57296W        W18827  21.139  18.219   2.706
57297W        W18828  17.217  20.180   2.873
57298W        W18829   8.681  33.382   0.944
57299W        W18830  11.132  27.096  11.440
57300W        W18831  14.097  37.521   0.939
57301W        W18832  37.561  42.346   2.871
57302W        W18833  31.064   7.780  11.859
57303W        W18834  19.086  40.343  13.818
57304W        W18835  34.430  25.592  14.961
57305W        W18836  15.802  41.426  12.852
57306W        W18837   0.785  12.145   1.715
57307W        W18838  26.633  20.209   0.896
57308W        W18839  24.649  25.487  10.563
57309W        W18840  22.587  15.625   1.264
57310W        W18841   9.793  24.138   2.186
57311W        W18842  20.566  25.633  11.985
57312W        W18843  22.610  15.727   2.821
57313W        W18844  17.093  44.489   4.601
57314W        W18845  20.062  42.941  13.022
57315W        W18846  32.965  11.243   2.217
57316W        W18847  28.594  29.943   2.287
57317W        W18848  26.701   4.863   3.358
57318W        W18849  32.110  25.995  13.357
57319W        W18850  10.727  24.207  12.949
57320W        W18851  10.662   1.247  14.946
57321W        W18852  15.735  33.484  14.977
57322W        W18853   9.236  27.055  11.935
57323W        W18854  13.831  26.690   4.121
57324W        W18855  11.315  25.094  12.438
57325W        W18856  19.080  41.939   4.626
57326W        W18857  35.390  13.117  10.574
57327W        W18858   3.277  21.564   1.240
57328W        W18859   8.729  40.033   0.800
57329W        W18860  19.600  32.019  10.516
57330W        W18861  41.457   0.797   0.303
57331W        W18862  41.966  37.868  13.852
57332W        W18863  23.576  18.765  12.899
57333W        W18864  29.106  24.629   0.322
57334W        W18865  24.176  12.192  12.932
57335W        W18866  28.655  38.510   2.358
57336W        W18867  23.116  34.914  12.576
57337W        W18868  39.406  36.551   3.675
57338W        W18869  35.100   6.248   3.795
57339W        W18870  27.496  19.266  13.464
57340W        W18871  39.508  17.111  12.826
57341W        W18872   9.825  27.126   1.864
57342W        W18873   9.706  16.760  11.558
57343W        W18874  41.486  37.424  11.495
57344W        W18875  17.061  33.970   4.819
57345W        W18876  12.323  18.728  13.508
57346W        W18877  15.749  24.035   5.742
57347W        W18878  25.709   4.223   2.271
57348W        W18879  35.585   6.860  11.426
57349W        W18880  26.047  34.920   2.770
57350W        W18881  35.593  24.480  12.884
57351W        W18882  26.034  40.052  10.942
57352W        W18883  27.536  10.870   0.798
57353W        W18884  29.939   7.784   0.279
57354W        W18885  30.498   0.942   4.133
57355W        W18886  30.113   2.293  11.093
57356W        W18887  26.652  12.207  12.970
57357W        W18888  32.985  25.103   1.226
57358W        W18889  32.089  25.023   0.402
57359W        W18890  10.175  16.121  11.444
57360W        W18891  12.796  33.435  14.825
57361W        W18892  22.579  40.524   3.834
57362W        W18893  35.405  12.800   4.721
57363W        W18894  30.588  14.249  10.150
57364W        W18895  34.396   1.960   3.857
57365W        W18896   5.884   8.383  11.393
57366W        W18897  43.787  42.008   3.373
57367W        W18898  28.555   5.262  10.424
57368W        W18899  25.138  29.613   0.965
57369W        W18900   1.243  18.275  12.912
57370W        W18901  13.246  28.453   2.307
57371W        W18902  36.416   4.924   1.233
57372W        W18903  24.100   3.929  11.485
57373W        W18904  13.266  32.054   9.942
57374W        W18905   9.677  38.424   0.348
57375W        W18906  42.480  36.024  11.855
57376W        W18907  16.604  44.478   1.904
57377W        W18908  13.259  19.664   3.671
57378W        W18909  10.750   5.279   3.652
57379W        W18910   4.851  42.863  11.050
57380W        W18911   8.888  42.794   0.388
57381W        W18912  14.821  35.965   1.434
57382W        W18913  31.407  20.089   2.357
57383W        W18914  26.470  36.855  13.499
57384W        W18915  40.473  44.284  13.332
57385W        W18916   1.765  23.524  11.513
57386W        W18917  35.931  39.008  13.857
57387W        W18918  37.030  28.971   4.180
57388W        W18919   6.342  19.593   1.817
57389W        W18920  31.996  15.589  13.470
57390W        W18921  19.205  40.833   3.658
57391W        W18922  33.544  22.633  11.602
57392W        W18923  23.173  42.302   3.336
57393W        W18924   6.857  27.660   1.229
57394W        W18925  43.338  21.615  11.586
57395W        W18926   7.866  20.569   2.255
57396W        W18927  32.920  32.117   3.314
57397W        W18928  24.209  11.241  11.381
57398W        W18929  13.796  24.522   3.772
57399W        W18930  24.078  38.327   5.600
57400W        W18931  30.516  38.912  11.372
57401W        W18932  36.982  10.265  12.879
57402W        W18933  12.338  11.370  13.349
57403W        W18934  32.483  37.446  12.537
57404W        W18935  31.506   8.251  11.948
57405W        W18936  14.796   5.904   3.213
57406W        W18937  10.242  34.373  10.943
57407W        W18938  12.691  27.103   0.786
57408W        W18939  30.515  23.556  14.496
57409W        W18940  14.323  32.968  12.972
57410W        W18941  20.206  44.990  11.101
57411W        W18942  34.382  27.940   2.204
57412W        W18943  15.093  20.594  12.059
57413W        W18944  11.676  33.600  11.109
57414W        W18945  24.015  28.520   9.981
57415W        W18946  18.665   4.841   2.333
57416W        W18947  39.840  24.136   0.726
57417W        W18948  20.145  27.583  12.009
57418W        W18949   6.881  43.824  10.450
57419W        W18950  13.267  32.598   2.727
57420W        W18951  19.649  33.479   5.099
57421W        W18952  30.528   3.799   1.395
57422W        W18953  14.095  28.603   3.814
57423W        W18954  10.194  27.986  13.400
57424W        W18955  34.109  44.991  14.380
57425W        W18956  30.557  23.112  12.974
57426W        W18957  21.131   8.301   2.768
57427W        W18958  29.139  35.372   0.881
57428W        W18959  41.952   5.769   2.290
57429W        W18960  29.129   0.484   0.370
57430W        W18961  37.489  23.161  12.342
57431W        W18962  11.327  33.901  13.935
57432W        W18963  36.089   2.789  13.945
57433W        W18964  29.655   8.663  14.952
57434W        W18965  22.250  14.112   3.287
57435W        W18966  28.537  22.103   1.836
57436W        W18967  39.017  35.419  13.823
57437W        W18968   4.226  39.051   2.814
57438W        W18969  14.133  41.043   2.850
57439W        W18970  32.966  14.638  13.045
57440W        W18971  41.454   9.203  11.528
57441W        W18972  41.856  27.040   3.679
57442W        W18973  35.974  20.087   4.632
57443W        W18974  28.124  32.033   0.924
57444W        W18975  16.721  33.438  11.390
57445W        W18976   4.766  31.063  14.879
57446W        W18977   1.846  16.642   0.852
57447W        W18978   9.384   0.881  11.495
57448W        W18979  44.972  43.824  14.441
57449W        W18980  23.506   5.258  10.586
57450W        W18981  14.240  31.629  11.581
57451W        W18982  14.770  33.020  11.068
57452W        W18983   9.343  28.043   1.932
57453W        W18984  43.933   1.963  13.863
57454W        W18985  44.966  17.067  11.427
57455W        W18986  33.391  10.786   1.231
57456W        W18987   8.191  32.413   2.730
57457W        W18988  31.905  25.137   3.298
57458W        W18989  25.093  36.875   1.308
57459W        W18990  23.719  21.747   3.652
57460W        W18991  23.612  14.726  11.939
57461W        W18992   7.834  14.182  11.409
57462W        W18993  36.846  12.180  10.893
57463W        W18994  10.764  35.037   4.775
57464W        W18995  32.003   8.781  14.792
57465W        W18996  30.078  27.641   2.373
57466W        W18997  30.463  13.611  14.843
57467W        W18998  17.667  15.178  11.004
57468W        W18999  35.881  31.537  10.467
57469W        W19000  32.081  32.572  13.944
57470W        W19001  39.949  32.947   0.884
57471W        W19002  33.876  25.202   2.240
57472W        W19003   7.685  27.512  12.016
57473W        W19004   1.750  38.534  11.529
57474W        W19005  26.494  12.213   1.739
57475W        W19006  28.550  29.540   0.794
57476W        W19007  16.749  44.296  11.977
57477W        W19008  31.512  38.954  13.513
57478W        W19009  16.233  12.772  13.404
57479W        W19010  23.094   2.748   4.137
57480W        W19011  27.093  25.068  13.356
57481W        W19012  21.037   8.782   4.662
57482W        W19013   6.758  44.442   4.809
57483W        W19014  24.143   1.754  12.912
57484W        W19015  39.470   3.331   3.204
57485W        W19016  11.187  34.024   0.892
57486W        W19017   4.334  44.835   3.336
57487W        W19018  27.568  11.358  13.318
57488W        W19019   7.214  25.182   2.201
57489W        W19020  18.061  30.653   1.898
57490W        W19021   6.825   3.750  11.878
57491W        W19022  11.777  38.834  14.452
57492W        W19023  17.284  19.277  14.428
57493W        W19024  15.714  33.921   4.325
57494W        W19025  30.943  33.397  14.348
57495W        W19026  42.490  14.157  10.989
57496W        W19027  33.915  11.843  13.944
57497W        W19028   6.374  36.054  10.127
57498W        W19029  11.770  22.176   1.737
57499W        W19030  13.832  15.190  12.500
57500W        W19031  31.521  34.400  11.910
57501W        W19032  40.903   5.195  13.014
57502W        W19033   3.824   9.205   1.249
57503W        W19034  39.440  26.982  13.429
57504W        W19035  14.093  20.056   2.281
57505W        W19036  36.064  36.081  10.143
57506W        W19037   8.202   4.928   1.369
57507W        W19038  26.995  22.153  14.504
57508W        W19039  20.747   7.315  14.342
57509W        W19040  27.100   2.781   3.856
57510W        W19041   1.851  10.659   3.289
57511W        W19042  33.902   6.706   0.882
57512W        W19043  37.845  20.655   3.191
57513W        W19044   7.887   3.766  14.307
57514W        W19045   2.383  13.313   0.958
57515W        W19046  10.156  18.549   4.332
57516W        W19047  14.689  16.713   0.374
57517W        W19048  14.276  16.705   3.641
57518W        W19049  22.668  22.611   1.341
57519W        W19050  27.689  25.666   4.678
57520W        W19051   2.745   4.355   2.296
57521W        W19052  12.781   5.256  10.947
57522W        W19053  24.495   2.455   4.654
57523W        W19054   6.312   2.328  13.315
57524W        W19055  24.221  38.054  13.044
57525W        W19056  20.652  43.319   3.232
57526W        W19057  38.559  26.703   1.783
57527W        W19058  27.072  28.067  10.125
57528W        W19059  42.843  38.506  12.514
57529W        W19060  15.160  39.462   3.657
57530W        W19061  18.138  27.115   1.354
57531W        W19062  43.325  10.160  11.606
57532W        W19063  28.503  44.423   1.890
57533W        W19064  38.525  39.500   1.716
57534W        W19065  44.856   9.219  11.098
57535W        W19066  31.470  17.627  10.439
57536W        W19067  11.301   1.415  12.402
57537W        W19068  39.407  11.223  11.607
57538W        W19069  18.180   2.746   2.236
57539W        W19070   1.752  36.874  11.971
57540W        W19071  44.876  22.525  12.900
57541W        W19072  10.180  18.671   2.818
57542W        W19073  27.071  20.267   0.384
57543W        W19074  32.140  28.131  12.382
57544W        W19075  15.188  35.050   2.854
57545W        W19076  34.407  40.466  14.831
57546W        W19077  39.319   6.359   1.258
57547W        W19078  32.886   8.377   3.376
57548W        W19079  12.139  17.248  12.350
57549W        W19080  31.933  42.346   0.366
57550W        W19081   3.749  18.153   5.319
57551W        W19082   9.815   9.869   2.679
57552W        W19083  16.702   2.847  10.512
57553W        W19084  14.710   6.729  10.543
57554W        W19085  17.604   1.346   4.140
57555W        W19086   3.292  39.952  10.579
57556W        W19087  12.783  41.027  13.816
57557W        W19088  44.408  44.895   2.191
57558W        W19089  30.470  33.506  13.356
57559W        W19090  42.456  41.406   4.164
57560W        W19091  39.532  31.985  14.883
57561W        W19092  19.108  43.283   1.708
57562W        W19093  21.696  12.625   2.300
57563W        W19094  36.480  37.845  13.844
57564W        W19095  39.957   5.891   3.865
57565W        W19096   9.174  20.151   2.764
57566W        W19097   5.911  17.665  11.099
57567W        W19098   7.239  19.069  14.853
57568W        W19099   2.382  29.505  11.875
57569W        W19100  35.400  25.075   5.114
57570W        W19101  15.261  24.050  13.902
57571W        W19102  16.254  10.859   2.314
57572W        W19103  16.294  17.111   2.383
57573W        W19104  23.724  25.578  11.452
57574W        W19105  36.842  30.658  13.534
57575W        W19106  39.397  37.913  13.064
57576W        W19107  41.515   7.253   4.244
57577W        W19108  30.947  35.006  10.605
57578W        W19109  30.480  10.355  14.486
57579W        W19110  19.665  34.070   2.321
57580W        W19111  17.737  22.105   0.911
57581W        W19112  26.051  15.150  10.604
57582W        W19113   0.257  40.314   2.312
57583W        W19114  21.658  25.067   2.251
57584W        W19115  37.366  22.648   3.159
57585W        W19116  36.389   0.261  14.483
57586W        W19117  11.163  22.652  11.570
57587W        W19118  32.121   3.717   4.308
57588W        W19119  21.262  18.640   2.757
57589W        W19120  39.910  28.549   4.709
57590W        W19121  38.356  15.698   3.782
57591W        W19122  41.514  44.283  12.014
57592W        W19123  43.443  29.634   3.305
57593W        W19124  35.866  42.802   2.183
57594W        W19125  15.748  39.909  11.386
57595W        W19126  14.607  23.051   3.695
57596W        W19127  16.255  34.539   3.332
57597W        W19128  29.037  32.974   0.878
57598W        W19129  10.723  37.844   3.249
57599W        W19130   6.814  18.572  14.477
57600W        W19131  27.030  16.225  13.991
57601W        W19132  27.509  37.065   2.412
57602W        W19133   9.756  26.122  10.475
57603W        W19134   4.399  19.692  12.943
57604W        W19135  44.929  16.781   3.866
57605W        W19136  33.924  13.829  14.020
57606W        W19137  17.205  43.914  12.069
57607W        W19138  16.728  43.942   1.931
57608W        W19139  32.060  17.247   0.750
57609W        W19140  19.155   1.871  11.519
57610W        W19141  32.612  18.191  11.940
57611W        W19142  28.492  28.146  13.354
57612W        W19143  19.647   5.861   1.754
57613W        W19144  37.949  27.448  11.035
57614W        W19145  22.212  41.845  14.823
57615W        W19146  18.129  20.274   2.221
57616W        W19147   4.318   2.338   3.168
57617W        W19148  25.508  17.263   0.764
57618W        W19149   0.887  32.626  11.568
57619W        W19150  23.710  37.961   3.148
57620W        W19151   9.835  31.637  11.531
57621W        W19152  18.701  34.903  10.455
57622W        W19153  17.638  23.498   3.702
57623W        W19154  15.652  24.042  11.519
57624W        W19155  33.950  43.506   1.216
57625W        W19156  17.112  28.179   2.231
57626W        W19157  28.052  37.955  14.292
57627W        W19158  25.137  34.608   2.366
57628W        W19159  27.452  28.478   0.883
57629W        W19160   2.246  35.360   1.726
57630W        W19161   1.249  16.220   1.766
57631W        W19162  39.972  26.502  12.874
57632W        W19163  12.822  11.196  11.538
57633W        W19164  35.410   8.310   1.710
57634W        W19165  12.834  21.176  14.822
57635W        W19166  12.233  10.654  11.905
57636W        W19167  35.378  11.865  10.923
57637W        W19168   5.831  21.727   0.280
57638W        W19169  14.263  21.063   3.202
57639W        W19170  28.063  23.662  10.920
57640W        W19171   5.436  25.187   4.305
57641W        W19172  25.613  16.673   2.861
57642W        W19173  31.107  34.514  14.797
57643W        W19174  17.616  34.107   1.365
57644W        W19175  21.167  23.540  11.889
57645W        W19176  13.292   6.700   1.374
57646W        W19177   5.784  39.434   0.443
57647W        W19178  31.941  33.032  14.388
57648W        W19179   2.333   2.253  12.515
57649W        W19180  15.688  39.005   1.282
57650W        W19181  15.173   9.855  14.896
57651W        W19182  27.941  28.593  12.574
57652W        W19183  20.205  17.689   0.822
57653W        W19184  28.068  10.754   1.328
57654W        W19185  41.394  32.502  14.411
57655W        W19186  21.220  41.330   2.847
57656W        W19187  21.660  44.898   4.318
57657W        W19188   2.813   3.311  12.495
57658W        W19189  30.630   4.823  10.596
57659W        W19190  30.041  24.516  10.919
57660W        W19191  16.158  33.559   0.297
57661W        W19192  19.634   1.866  12.999
57662W        W19193   8.838   7.890  10.524
57663W        W19194   0.417   8.342  10.987
57664W        W19195  20.674  18.127   2.747
57665W        W19196   5.927  44.800  10.558
57666W        W19197  19.638   2.873   4.127
57667W        W19198  35.599  28.542   0.267
57668W        W19199   4.432   6.691   3.840
57669W        W19200  34.094  43.950  12.986
57670W        W19201  30.022  25.612   2.718
57671W        W19202  22.132  35.098   2.316
57672W        W19203  19.080  15.794   4.808
57673W        W19204  25.999  19.095   2.674
57674W        W19205   0.475   5.206   0.307
57675W        W19206  44.980  43.391   4.140
57676W        W19207  40.041  28.084   3.386
57677W        W19208  20.623   2.722   1.742
57678W        W19209  28.447   6.766   0.421
57679W        W19210  25.124  30.438  10.978
57680W        W19211  23.089   9.730  13.907
57681W        W19212  19.079  44.363  12.840
57682W        W19213  17.127   7.337   1.229
57683W        W19214   1.890  32.049   1.342
57684W        W19215  28.047  39.472   2.336
57685W        W19216  12.741  12.686   4.257
57686W        W19217  10.683  22.571   1.860
57687W        W19218  43.904  11.355  10.548
57688W        W19219   7.243  29.043  14.962
57689W        W19220  41.033  14.768   1.932
57690W        W19221  20.742   2.893   2.899
57691W        W19222  13.741  29.101   2.312
57692W        W19223  39.991  36.887   3.185
57693W        W19224  42.812  38.397  14.921
57694W        W19225  12.634   0.296  14.304
57695W        W19226  17.172  29.018   1.284
57696W        W19227  32.074  44.350  12.521
57697W        W19228  26.123  28.520   1.402
57698W        W19229  43.415   5.844  12.426
57699W        W19230   0.746  44.769   0.457
57700W        W19231  43.413  30.138   0.404
57701W        W19232  19.083  20.036   1.764
57702W        W19233  44.473  29.076  13.394
57703W        W19234  26.546  15.268  14.001
57704W        W19235  38.341  25.481  11.966
57705W        W19236  38.382   4.797  13.377
57706W        W19237  17.106  25.617  12.051
57707W        W19238  35.453  35.044  11.879
57708W        W19239  22.560  43.507   3.348
57709W        W19240  23.665  24.049  10.641
57710W        W19241   7.793  10.207   1.286
57711W        W19242  11.355  42.993  12.913
57712W        W19243  37.487  12.337   0.880
57713W        W19244  24.683   7.409  14.488
57714W        W19245  32.594   0.899   4.226
57715W        W19246  25.151   0.978   4.294
57716W        W19247   0.759   6.409   4.185
57717W        W19248   1.764  43.858  13.507
57718W        W19249   9.718  29.652   0.382
57719W        W19250  24.669  32.083   3.336
57720W        W19251  43.277  32.121  10.496
57721W        W19252  27.082  15.312  10.498
57722W        W19253   2.346  32.038   0.448
57723W        W19254  13.792  37.516  11.594
57724W        W19255  20.599  21.101   5.294
57725W        W19256  18.243  19.643   3.632
57726W        W19257  18.068  22.240  12.487
57727W        W19258  20.184  13.696   1.271
57728W        W19259  24.148   1.441  11.407
57729W        W19260  32.525  10.154  12.941
57730W        W19261  20.123  13.155  10.404
57731W        W19262  34.020  28.595   2.710
57732W        W19263  43.379  40.986   1.395
57733W        W19264   2.872   9.803  14.483
57734W        W19265  38.382  11.670  10.467
57735W        W19266  42.961  34.376   0.934
57736W        W19267   0.843  40.497  14.967
57737W        W19268  19.754  31.426   0.475
57738W        W19269  43.357   5.290  10.596
57739W        W19270  42.361   5.851  14.311
57740W        W19271   5.924   2.317  12.463
57741W        W19272  34.945  31.030   3.778
57742W        W19273  43.502  11.352  11.514
57743W        W19274   0.437   5.839  10.973
57744W        W19275  22.034  43.407   0.458
57745W        W19276  25.682  16.730  13.331
57746W        W19277   7.417   1.469  10.556
57747W        W19278  12.274  15.195  13.804
57748W        W19279   5.847  33.063   4.191
57749W        W19280  35.109  31.647  10.998
57750W        W19281  24.980   7.752  14.925
57751W        W19282   5.305  21.198   1.365
57752W        W19283  33.055  15.241  13.451
57753W        W19284   5.870  22.236  14.449
57754W        W19285   1.451  36.452   2.878
57755W        W19286  17.274  22.543   3.696
57756W        W19287   1.877  44.476  12.923
57757W        W19288  31.008   4.904  11.929
57758W        W19289  35.448   5.270  10.606
57759W        W19290  40.846  36.017  10.509
57760W        W19291  23.693  20.044  13.311
57761W        W19292  39.402   0.298   2.839
57762W        W19293  24.696   0.450  14.925
57763W        W19294  11.257  26.617  11.590
57764W        W19295   7.308  13.682  13.462
57765W        W19296  43.446  25.490   2.819
57766W        W19297  33.060  35.911   1.837
57767W        W19298  39.521  34.864  11.512
57768W        W19299  22.121  30.979   0.965
57769W        W19300  36.351   8.289   0.479
57770W        W19301  12.755  13.672  12.580
57771W        W19302  39.498   9.792   1.350
57772W        W19303  20.690  15.767  13.405
57773W        W19304  18.169  19.706  10.596
57774W        W19305  35.928   0.772   0.791
57775W        W19306  33.043  22.646  12.572
57776W        W19307  14.300   9.696  14.980
57777W        W19308  44.799  42.423  11.509
57778W        W19309  21.172   1.251   2.766
57779W        W19310  35.024   8.871  14.462
57780W        W19311  37.849   8.309  13.866
57781W        W19312   0.435  22.600   9.554
57782W        W19313   5.256   1.955   2.845
57783W        W19314  44.863  35.371  10.892
57784W        W19315   2.366  28.970   2.366
57785W        W19316   1.445  44.468   0.296
57786W        W19317  14.801  42.866  11.987
57787W        W19318  43.274  23.188   0.738
57788W        W19319  17.086   3.947   2.779
57789W        W19320  26.134  39.436  12.916
57790W        W19321  26.644   0.493   3.811
57791W        W19322  10.329  37.980  12.909
57792W        W19323  42.797   0.492   0.759
57793W        W19324  28.105   4.897  11.592
57794W        W19325  27.482   3.273  13.422
57795W        W19326  11.707  11.241  11.913
57796W        W19327   1.735  22.151  13.971
57797W        W19328  22.625  33.079   3.284
57798W        W19329  25.189  22.699  14.470
57799W        W19330  38.874  31.068   4.203
57800W        W19331  10.800  10.225  13.932
57801W        W19332   6.273  43.485   2.409
57802W        W19333  36.456   8.396   2.709
57803W        W19334  39.064  23.519   2.760
57804W        W19335  27.608  29.585   3.238
57805W        W19336   0.340   8.898  10.521
57806W        W19337  16.171  30.554  10.460
57807W        W19338  43.352  34.111   0.457
57808W        W19339  39.494   8.285  10.596
57809W        W19340  25.001  33.591   1.411
57810W        W19341  39.367  26.694   4.137
57811W        W19342  40.885   2.367   2.258
57812W        W19343  39.523   0.302  10.423
57813W        W19344  28.164  35.584   4.345
57814W        W19345  22.581  42.796   3.301
57815W        W19346  38.524  35.399   2.711
57816W        W19347  27.950  35.439  14.911
57817W        W19348   7.345  39.460   0.911
57818W        W19349   7.313  28.056  11.926
57819W        W19350  34.047  39.404  10.565
57820W        W19351  41.907  13.730   2.283
57821W        W19352  18.779  34.490   3.849
57822W        W19353  17.085   9.206   1.349
57823W        W19354  30.032  12.358  10.058
57824W        W19355  12.186   0.348   0.839
57825W        W19356  44.793  18.663  10.978
57826W        W19357  25.703   8.211  11.475
57827W        W19358  38.442  15.164  12.863
57828W        W19359  11.628  33.515   4.222
57829W        W19360   3.348  39.318  14.808
57830W        W19361  18.742   2.370   2.247
57831W        W19362  13.613  40.897  10.578
57832W        W19363  39.409  26.665  14.494
57833W        W19364  28.612  39.027   3.818
57834W        W19365  16.151  21.061   4.713
57835W        W19366  15.100  28.609  14.824
57836W        W19367  32.514   3.363   3.184
57837W        W19368  35.945   8.765   0.733
57838W        W19369  31.408  27.562  11.500
57839W        W19370  10.709  19.150  10.549
57840W        W19371   9.746   0.954   1.875
57841W        W19372   8.763  27.497  13.908
57842W        W19373  10.284   3.781   9.945
57843W        W19374  20.646   8.254   2.348
57844W        W19375  36.378  43.352  14.292
57845W        W19376  19.750  22.228   5.284
57846W        W19377  10.872   9.802   0.373
57847W        W19378  26.152   8.692   3.197
57848W        W19379   8.221  19.039   0.415
57849W        W19380   7.289  29.961   2.277
57850W        W19381  16.197   8.309  12.407
57851W        W19382  31.612  42.003   3.180
57852W        W19383   9.290  18.616   1.338
57853W        W19384  23.581  31.065  12.019
57854W        W19385  28.150   9.344   0.752
57855W        W19386  20.222  40.881  11.397
57856W        W19387  16.647  31.979   1.230
57857W        W19388  33.062  17.170  12.053
57858W        W19389  34.049   1.381  13.836
57859W        W19390  40.429  25.025   1.718
57860W        W19391   6.686  31.474  12.992
57861W        W19392  34.925  21.678   3.870
57862W        W19393  32.416   5.914   3.151
57863W        W19394  29.556  38.436   0.849
57864W        W19395  13.673  40.052   1.733
57865W        W19396  33.916  38.390   4.639
57866W        W19397  31.550   9.768  11.399
57867W        W19398   2.816   2.735   4.206
57868W        W19399  11.207  31.085  13.007
57869W        W19400  11.310  23.674  11.033
57870W        W19401  25.083  29.011  14.855
57871W        W19402  11.329  33.406   2.714
57872W        W19403  22.009  43.963   4.762
57873W        W19404   2.390  30.590   3.307
57874W        W19405   1.919  17.681  11.013
57875W        W19406   0.853  28.156   5.210
57876W        W19407  41.505  16.587  11.013
57877W        W19408  10.303   4.309   0.413
57878W        W19409   6.733   2.945   0.290
57879W        W19410  35.888  33.433   1.395
57880W        W19411  28.622  35.933  13.836
57881W        W19412  20.164  27.948   1.934
57882W        W19413  31.595  27.099   2.404
57883W        W19414  31.428  36.417   4.622
57884W        W19415  31.529   2.396  13.520
57885W        W19416  15.275  43.822   4.299
57886W        W19417  13.246  28.471  13.804
57887W        W19418  33.418   8.745   4.610
57888W        W19419   1.929  35.477  10.913
57889W        W19420  41.933   0.808   4.116
57890W        W19421  36.944  20.245   0.468
57891W        W19422  36.523  12.196  11.947
57892W        W19423  11.305   9.274  14.309
57893W        W19424  21.585  26.465   0.483
57894W        W19425  35.434   9.843  11.957
57895W        W19426   8.251   6.246  11.023
57896W        W19427  12.162  19.081   4.760
57897W        W19428  13.610  17.210  14.815
57898W        W19429  44.784  13.610   2.225
57899W        W19430   5.838   7.822   0.471
57900W        W19431  30.524  22.517   3.187
57901W        W19432  40.940  13.797  14.493
57902W        W19433  42.496  37.914   2.352
57903W        W19434   3.867  25.564  11.975
57904W        W19435  19.556  29.616   3.280
57905W        W19436  30.467  18.581   3.643
57906W        W19437  39.813  22.671  14.281
57907W        W19438  13.735  11.825  11.010
57908W        W19439  29.635  44.853  12.385
57909W        W19440  27.633  17.652  11.565
57910W        W19441  35.457  40.404   3.631
57911W        W19442  17.145  31.623   1.404
57912W        W19443   9.276   9.658   4.722
57913W        W19444  18.259  33.972  13.338
57914W        W19445  16.738   6.716  11.042
57915W        W19446   1.429   7.744   0.906
57916W        W19447  16.304  13.220   0.326
57917W        W19448   9.848  27.030   3.696
57918W        W19449   4.906  21.105   4.765
57919W        W19450  38.891  27.102   3.729
57920W        W19451  12.214  19.120   1.751
57921W        W19452  12.717   8.678   2.241
57922W        W19453   9.678  32.525  10.465
57923W        W19454  38.896   8.255   4.157
57924W        W19455   1.816  31.539  13.421
57925W        W19456  24.552  36.855  12.413
57926W        W19457  31.483  11.804  13.871
57927W        W19458  32.905  37.082   1.804
57928W        W19459   7.282   1.385   1.435
57929W        W19460  11.312  43.412  11.375
57930W        W19461  13.797  37.080   1.291
57931W        W19462   2.357  37.337   2.184
57932W        W19463   3.423   2.737  12.988
57933W        W19464   8.293  26.140  12.433
57934W        W19465  12.648  28.047   1.429
57935W        W19466   2.745  17.230   3.303
57936W        W19467   6.828  27.027  10.572
57937W        W19468   3.378   3.776  10.625
57938W        W19469   8.847  36.506   2.234
57939W        W19470  19.048  10.653   0.938
57940W        W19471  30.651   4.428   1.831
57941W        W19472   3.856  40.435  11.384
57942W        W19473  22.247  14.282  11.889
57943W        W19474  39.817   2.240   4.193
57944W        W19475  39.061  34.386   1.934
57945W        W19476   6.284  32.091  10.899
57946W        W19477  10.814  32.089  13.397
57947W        W19478   8.749  21.729  13.486
57948W        W19479  39.828  30.540  10.532
57949W        W19480   3.881  16.659   1.394
57950W        W19481  36.874  30.515  12.017
57951W        W19482  16.230  30.465  11.122
57952W        W19483  33.405  36.026   2.749
57953W        W19484  36.591  24.623   3.833
57954W        W19485  40.369  26.586   3.280
57955W        W19486  43.824  13.708   4.824
57956W        W19487   0.435  36.495   2.804
57957W        W19488  21.655  29.060   0.434
57958W        W19489   4.845  29.097  12.019
57959W        W19490   3.329  18.733   2.188
57960W        W19491  20.188  21.598   0.823
57961W        W19492  28.015  17.769   0.431
57962W        W19493  37.047   1.465   3.352
57963W        W19494  20.609   8.366  13.921
57964W        W19495  43.010   6.879  12.366
57965W        W19496  11.247  32.050   9.523
57966W        W19497   8.406   6.721  10.542
57967W        W19498  18.732  33.998   0.255
57968W        W19499   0.448   8.875  12.887
57969W        W19500  29.618  14.094   2.212
57970W        W19501   1.401   3.755  14.279
57971W        W19502   8.193  11.187   2.285
57972W        W19503  10.380  40.476  10.911
57973W        W19504  17.662  32.484   3.670
57974W        W19505  43.452  25.198   0.762
57975W        W19506   5.423  24.072   2.188
57976W        W19507  43.781  31.470  12.966
57977W        W19508  21.673  10.226  11.421
57978W        W19509  15.671  34.096   3.848
57979W        W19510   8.770  14.781   1.403
57980W        W19511  29.131   3.765   4.605
57981W        W19512  25.004   5.249   3.846
57982W        W19513  30.104  24.149   1.815
57983W        W19514  30.441  23.235  10.977
57984W        W19515  21.513  21.213   1.827
57985W        W19516  25.486  43.477  11.044
57986W        W19517  40.385  21.547  12.439
57987W        W19518   4.401  24.975   3.863
57988W        W19519  42.312  11.270  10.910
57989W        W19520   1.408  34.884   4.143
57990W        W19521   9.172  42.813  12.027
57991W        W19522  35.864  44.262   3.797
57992W        W19523  43.833  29.946  11.415
57993W        W19524  39.041  29.121  14.466
57994W        W19525   9.744  15.168  14.473
57995W        W19526  30.005   5.706  11.031
57996W        W19527  32.503   5.219  14.779
57997W        W19528  42.377  31.619  10.895
57998W        W19529   1.842  27.175   2.229
57999W        W19530  36.380  43.862   3.277
58000W        W19531  36.448  21.580   1.709
58001W        W19532  40.003  36.067  11.916
58002W        W19533  22.669  17.608  11.501
58003W        W19534  28.991  14.806   1.379
58004W        W19535  36.027  38.912   0.404
58005W        W19536  44.497  16.173  14.912
58006W        W19537  20.151  11.315  14.310
58007W        W19538  11.779  20.156   1.864
58008W        W19539  22.683  16.597  11.497
58009W        W19540  18.619  28.109  11.004
58010W        W19541  35.866  15.128   1.767
58011W        W19542  25.624  34.028   0.884
58012W        W19543  19.268   7.264  11.402
58013W        W19544  15.655   4.417  14.507
58014W        W19545  34.563   9.212   0.933
58015W        W19546  29.070  32.978  14.884
58016W        W19547  23.504   3.276   3.217
58017W        W19548  15.240  44.756   2.369
58018W        W19549  28.488  40.846  12.375
58019W        W19550   8.712   9.664  13.355
58020W        W19551  44.813  29.174  10.469
58021W        W19552  44.909  26.201   2.822
58022W        W19553   3.731  26.564   0.403
58023W        W19554  43.865   3.910  13.958
58024W        W19555   1.479  32.111  11.956
58025W        W19556  15.169   8.885   4.187
58026W        W19557  11.350   8.217  12.391
58027W        W19558  17.120  30.987  11.067
58028W        W19559  35.891  39.854   0.850
58029W        W19560   6.384  32.994   3.195
58030W        W19561  33.482   2.819   0.778
58031W        W19562  10.292  13.829  10.409
58032W        W19563  25.993  11.819  13.820
58033W        W19564  39.390  13.833   1.922
58034W        W19565  22.246   6.803  10.486
58035W        W19566  38.963  16.745  14.314
58036W        W19567  30.919  36.349   4.650
58037W        W19568  33.984   4.857  10.931
58038W        W19569  21.699   1.910   4.708
58039W        W19570  29.946  33.113  12.929
58040W        W19571  22.580   5.334  10.495
58041W        W19572  23.031   2.895  14.381
58042W        W19573  21.031  12.326   3.205
58043W        W19574  42.936  19.632   3.290
58044W        W19575  22.630   2.240   0.276
58045W        W19576  19.699  25.033   1.309
58046W        W19577  20.150  19.705  14.806
58047W        W19578   3.877  39.389  12.859
58048W        W19579  39.370  35.477  14.818
58049W        W19580  17.687  35.558  14.897
58050W        W19581  17.560  24.618  11.956
58051W        W19582  28.518  23.682   2.211
58052W        W19583  34.503  18.142   2.680
58053W        W19584  29.057  20.256   1.898
58054W        W19585  22.140  27.550   1.240
58055W        W19586   8.824  19.541  10.952
58056W        W19587  36.053  17.208  12.046
58057W        W19588  13.310   4.417  13.516
58058W        W19589  17.769  32.120  10.427
58059W        W19590  42.368   9.684   4.720
58060W        W19591  27.003  28.022   2.768
58061W        W19592  29.496   2.888  14.363
58062W        W19593  24.669  40.867  12.381
58063W        W19594  38.511  44.906   0.468
58064W        W19595  26.970  34.883  10.935
58065W        W19596  43.508  32.549   0.354
58066W        W19597  10.256  19.697  12.552
58067W        W19598   7.693  14.299  11.871
58068W        W19599  24.067   3.223  13.516
58069W        W19600  36.082  36.572   2.841
58070W        W19601   1.242  32.449  14.809
58071W        W19602  22.999  27.475  11.976
58072W        W19603  32.939   1.802  12.339
58073W        W19604   3.243   9.284  12.475
58074W        W19605  27.607  34.996   0.829
58075W        W19606  14.756  11.647  12.489
58076W        W19607  36.906  44.391  12.436
58077W        W19608   8.328  33.616  12.943
58078W        W19609  32.905  43.501   4.151
58079W        W19610  32.982  13.245  11.423
58080W        W19611  24.015  30.003   0.251
58081W        W19612  10.740  10.647  14.936
58082W        W19613  21.247  30.915  10.579
58083W        W19614  38.931  11.230  14.437
58084W        W19615  17.293  39.065  10.906
58085W        W19616  39.424  32.510  11.002
58086W        W19617   3.910   2.876  10.601
58087W        W19618  43.917   1.803  11.447
58088W        W19619  35.038  27.174  10.642
58089W        W19620  28.932   2.805  13.507
58090W        W19621  29.440  29.607   5.196
58091W        W19622  19.213  24.992  12.424
58092W        W19623  37.960  42.938   1.797
58093W        W19624  35.422   0.415   1.891
58094W        W19625   0.352  38.980  11.404
58095W        W19626  23.536  24.587   2.385
58096W        W19627   1.874  41.014  12.096
58097W        W19628  33.006  13.128  11.979
58098W        W19629  35.390  33.973  14.328
58099W        W19630   9.779   3.952   0.898
58100W        W19631   4.245  31.645   2.276
58101W        W19632   3.275  40.505   3.260
58102W        W19633  43.453  20.171   0.465
58103W        W19634  14.296  21.172  11.515
58104W        W19635  44.944  10.819   0.332
58105W        W19636  30.477  25.996  12.919
58106W        W19637  36.464  39.889  10.494
58107W        W19638  13.337  18.742   3.186
58108W        W19639   8.840   6.415   0.854
58109W        W19640   1.969  15.139   4.651
58110W        W19641  28.940  41.967   2.252
58111W        W19642  39.321  44.900   4.198
58112W        W19643   6.252   4.398   0.757
58113W        W19644  25.169  41.464  10.633
58114W        W19645   2.365   6.790  11.475
58115W        W19646  29.007  10.686   4.761
58116W        W19647   3.339  18.733  12.845
58117W        W19648  36.586  23.489   0.730
58118W        W19649  37.482  15.744   5.274
58119W        W19650  15.211  31.448   2.752
58120W        W19651  10.683  40.489   4.248
58121W        W19652   3.908   6.694  11.089
58122W        W19653  19.133  30.564  12.342
58123W        W19654  30.563   8.262  14.031
58124W        W19655  43.445  30.550  10.428
58125W        W19656  24.047   2.280   4.159
58126W        W19657  32.014  15.225   1.870
58127W        W19658  28.047  16.300  14.355
58128W        W19659  35.522   4.270  14.999
58129W        W19660  14.785  26.188   1.325
58130W        W19661  21.255  34.067   5.298
58131W        W19662  11.302  31.928  14.472
58132W        W19663  36.382  10.180  11.469
58133W        W19664   5.195  16.765   3.852
58134W        W19665  37.449  37.509   3.766
58135W        W19666  25.192  29.064  11.471
58136W        W19667  37.071  16.741  11.925
58137W        W19668  30.157   8.309   3.272
58138W        W19669  12.216   9.755   1.837
58139W        W19670  11.658   6.387  13.484
58140W        W19671   0.965  26.050  14.022
58141W        W19672   2.753   5.321  14.472
58142W        W19673  36.871   9.879   2.271
58143W        W19674  35.508  36.540  12.987
58144W        W19675  18.234  25.005  13.536
58145W        W19676   3.330   4.937   0.316
58146W        W19677  31.646  39.327  10.933
58147W        W19678  33.532  43.920  10.966
58148W        W19679  33.626  21.694   3.221
58149W        W19680  40.309  41.862  14.820
58150W        W19681  31.150   6.286  10.533
58151W        W19682   0.348  26.163   2.669
58152W        W19683   5.933   4.884  12.398
58153W        W19684  19.635  36.075  11.932
58154W        W19685  16.277  18.155  12.973
58155W        W19686  33.089  25.074  14.276
58156W        W19687   6.774   5.810  11.590
58157W        W19688  12.147  43.975  12.967
58158W        W19689   6.798  21.572   1.884
58159W        W19690   7.701  40.856   1.440
58160W        W19691  44.398  32.082   5.306
58161W        W19692  12.129   4.299  13.940
58162W        W19693  15.312  40.915  10.958
58163W        W19694  10.706  31.570  11.974
58164W        W19695  26.575  40.891   3.813
58165W        W19696  32.901  23.026  12.988
58166W        W19697  17.718   1.339  14.390
58167W        W19698  16.711  24.586   3.188
58168W        W19699  26.130  11.694  12.958
58169W        W19700  42.514   0.855  14.838
58170W        W19701  43.869  24.995  14.294
58171W        W19702   6.292  39.963  13.412
58172W        W19703  34.099  30.034  12.852
58173W        W19704  40.346  33.487   2.363
58174W        W19705  32.015  10.856   1.917
58175W        W19706   2.959  28.030   3.723
58176W        W19707  27.182  32.477   3.740
58177W        W19708  26.170  41.988   0.859
58178W        W19709   0.269   7.754  10.589
58179W        W19710  41.907  10.717  10.900
58180W        W19711  16.283  42.349   0.340
58181W        W19712  31.575   4.803   0.777
58182W        W19713  34.605  32.067  12.938
58183W        W19714  34.871  18.055  11.888
58184W        W19715   4.819  18.269  10.091
58185W        W19716  30.949  16.283  12.854
58186W        W19717  44.807  40.963  13.332
58187W        W19718  41.492  24.498  11.891
58188W        W19719  27.021  31.088  14.514
58189W        W19720  31.942  29.961  14.999
58190W        W19721   0.444  29.572   3.222
58191W        W19722  21.180  25.178  10.966
58192W        W19723  38.841  13.839   0.759
58193W        W19724   7.281  17.167  11.549
58194W        W19725   5.285   8.697  13.800
58195W        W19726  36.953  38.440   3.805
58196W        W19727  14.152  36.544  14.880
58197W        W19728  19.222   5.800   0.326
58198W        W19729  18.081  18.198   1.716
58199W        W19730   0.743  39.808   1.405
58200W        W19731   3.253  40.346   5.165
58201W        W19732  24.106  25.171   4.797
58202W        W19733  29.585  24.076  14.895
58203W        W19734  23.203  30.922   5.221
58204W        W19735  22.678  12.135   3.680
58205W        W19736  23.491   7.859  10.621
58206W        W19737  17.079  19.644   2.396
58207W        W19738  30.993  16.250  11.551
58208W        W19739  39.479  19.189  13.365
58209W        W19740   3.301  40.887  12.086
58210W        W19741  41.389  10.261   1.886
58211W        W19742  28.523   6.906   4.282
58212W        W19743  12.819  22.585   0.965
58213W        W19744  12.229  29.460  14.453
58214W        W19745  28.088  36.567   0.854
58215W        W19746   4.208  20.745   3.323
58216W        W19747  15.141  38.360  11.004
58217W        W19748  44.442   8.897   4.289
58218W        W19749  34.866  34.550  14.015
58219W        W19750  29.436  12.775  10.075
58220W        W19751   5.846  38.554  14.893
58221W        W19752  37.532  31.552  14.372
58222W        W19753  34.530  37.973  13.824
58223W        W19754  37.944  33.437  10.966
58224W        W19755  18.243  11.865  13.808
58225W        W19756  40.488  19.707  10.137
58226W        W19757  11.735  34.505  10.569
58227W        W19758   6.403  39.049   5.303
58228W        W19759  12.632  43.426   4.824
58229W        W19760   5.248  15.320  14.360
58230W        W19761  44.401  17.651   2.724
58231W        W19762   3.356  30.016  14.308
58232W        W19763  19.597  34.035  10.423
58233W        W19764  31.109  27.627  11.096
58234W        W19765   8.755  31.433   3.845
58235W        W19766  14.696  11.242   4.675
58236W        W19767  21.176  35.879   1.222
58237W        W19768   5.723  20.624  13.536
58238W        W19769  37.849  21.724   4.620
58239W        W19770  38.329  44.934  13.448
58240W        W19771  35.475  17.105  11.966
58241W        W19772  11.369  16.203  10.927
58242W        W19773   7.351  23.570   1.779
58243W        W19774  35.448  17.589   0.318
58244W        W19775  39.992  19.678   1.724
58245W        W19776  14.224   7.273  14.499
58246W        W19777   8.368  16.221  13.843
58247W        W19778  43.442  14.335   0.399
58248W        W19779  11.687  35.867  12.036
58249W        W19780  36.026  44.442   0.383
58250W        W19781  19.698  13.321  14.312
58251W        W19782  39.968  25.628  10.962
58252W        W19783  16.604  38.844  11.011
58253W        W19784  13.292  37.394   3.856
58254W        W19785  31.967  32.501  12.915
58255W        W19786  41.406  27.513   1.709
58256W        W19787   8.160   1.249   1.426
58257W        W19788  20.135  36.542  12.496
58258W        W19789  12.173  14.606   2.216
58259W        W19790  32.924  30.481  12.842
58260W        W19791  17.613  29.506   1.886
58261W        W19792  20.267  10.188   0.870
58262W        W19793  41.791  19.275   1.780
58263W        W19794  35.555  20.266   2.234
58264W        W19795  32.978  32.907  13.820
58265W        W19796   3.758  44.388   2.280
58266W        W19797  44.473  43.774   3.867
58267W        W19798  23.005   4.702   4.113
58268W        W19799   8.186  24.196  14.384
58269W        W19800  42.462   9.690  12.089
58270W        W19801   3.860  26.520   9.541
58271W        W19802  17.577  21.115   0.466
58272W        W19803  31.429   0.761  12.824
58273W        W19804   7.832  34.448  13.895
58274W        W19805   0.271  15.624  10.957
58275W        W19806  19.534  39.363   1.287
58276W        W19807  19.762  31.410  13.031
58277W        W19808  31.437  36.875   1.788
58278W        W19809  20.759  31.032   1.249
58279W        W19810   5.739  12.667  11.496
58280W        W19811  12.253  14.757   4.661
58281W        W19812  23.713  42.518   0.887
58282W        W19813  19.180  34.056   0.294
58283W        W19814   9.746  11.199   1.227
58284W        W19815   6.343  11.739  12.904
58285W        W19816  33.487  15.809  14.865
58286W        W19817  30.967  16.576  13.873
58287W        W19818  41.837  21.262   2.705
58288W        W19819  20.637   7.396   1.706
58289W        W19820   5.821   2.721  10.499
58290W        W19821  44.851   9.873   1.438
58291W        W19822  31.511  26.575  11.001
58292W        W19823  21.261  33.067  14.368
58293W        W19824  15.223  36.008  14.804
58294W        W19825  35.519  19.152  12.997
58295W        W19826   0.259  30.997   0.397
58296W        W19827  15.806  38.332   4.640
58297W        W19828   9.748  21.686   0.837
58298W        W19829  23.130  30.608  11.988
58299W        W19830   2.456  26.508   3.739
58300W        W19831   4.324   4.384   1.340
58301W        W19832  30.089  39.504  11.570
58302W        W19833  33.085  24.568   4.838
58303W        W19834  11.366  28.962  11.957
58304W        W19835  32.630  19.698  14.926
58305W        W19836  15.773  29.497  14.414
58306W        W19837  43.861  10.859   4.797
58307W        W19838  34.977  10.661   1.268
58308W        W19839  32.548  34.586   3.830
58309W        W19840  36.451   2.750   1.865
58310W        W19841  22.160  27.074  13.521
58311W        W19842  27.651  25.015   2.187
58312W        W19843  32.890  40.334   0.728
58313W        W19844   0.289   0.962   3.162
58314W        W19845  12.702  29.041  14.495
58315W        W19846  21.232  28.562   4.776
58316W        W19847  16.162  12.232  12.966
58317W        W19848  24.697  40.047  10.561
58318W        W19849  25.635  18.136   4.655
58319W        W19850  41.990  22.644  13.856
58320W        W19851  39.047  40.377   1.297
58321W        W19852  13.654   8.688  13.814
58322W        W19853  34.903  20.532  14.987
58323W        W19854   3.815  42.484  11.059
58324W        W19855  19.687  21.262   1.748
58325W        W19856  11.637   5.699   0.917
58326W        W19857  38.501  16.631  10.937
58327W        W19858  24.214   2.240   2.322
58328W        W19859  26.670  26.540   3.642
58329W        W19860  42.902  27.455   9.978
58330W        W19861  12.770   5.214  11.581
58331W        W19862   2.921  10.786   4.326
58332W        W19863  27.114   7.715  14.783
58333W        W19864  31.630  44.787  13.822
58334W        W19865  29.597  36.058  13.520
58335W        W19866   5.891  34.878  12.502
58336W        W19867  13.166   3.231   0.925
58337W        W19868   7.742  26.140  14.780
58338W        W19869  32.463   4.366   0.955
58339W        W19870   2.827   1.331  10.478
58340W        W19871  11.659  12.147   3.863
58341W        W19872   8.688  17.763  12.825
58342W        W19873  13.282  40.971   2.778
58343W        W19874  32.888   0.485   3.151
58344W        W19875  31.508   4.429   2.378
58345W        W19876  31.108  35.442  10.412
58346W        W19877  26.144   1.864  11.412
58347W        W19878  12.848  38.936  11.590
58348W        W19879  24.058  31.956   1.421
58349W        W19880   0.975  24.056  14.995
58350W        W19881   7.842  42.516   3.232
58351W        W19882  17.205   0.442  14.995
58352W        W19883  40.803   0.480  12.535
58353W        W19884  22.169   1.446   2.814
58354W        W19885  21.709  41.401  10.898
58355W        W19886   8.682  24.102   5.288
58356W        W19887   9.315  32.040   0.265
58357W        W19888   7.768  34.032  14.879
58358W        W19889  24.002  23.050   3.864
58359W        W19890   0.376   9.338  13.871
58360W        W19891  44.880   9.303   0.965
58361W        W19892  15.725  32.468   0.786
58362W        W19893  39.928  16.803  10.607
58363W        W19894   6.769  43.845  11.912
58364W        W19895  28.178  29.146  13.945
58365W        W19896  31.619  21.106   3.689
58366W        W19897   6.209  22.101   2.273
58367W        W19898  31.075  39.025   1.893
58368W        W19899  27.062  14.140   5.135
58369W        W19900  39.919  38.534   1.713
58370W        W19901  40.312  15.293   4.277
58371W        W19902  23.593  10.339  12.407
58372W        W19903   3.831  26.506  11.014
58373W        W19904  18.091   4.765  12.019
58374W        W19905   3.458  27.009  10.519
58375W        W19906  34.569  34.873   4.318
58376W        W19907  17.289  34.546  12.488
58377W        W19908  38.547  44.976  12.396
58378W        W19909  10.739  25.584   0.904
58379W        W19910  14.241   3.749   1.725
58380W        W19911  21.209  37.352   0.319
58381W        W19912  38.940  38.488  10.102
58382W        W19913  13.301  11.817  12.484
58383W        W19914  25.644  26.991   4.709
58384W        W19915  13.632  43.971  11.598
58385W        W19916  43.766  32.432  14.028
58386W        W19917   7.274  16.584   2.896
58387W        W19918  33.004   0.305   3.642
58388W        W19919  25.126  38.984  11.895
58389W        W19920   8.277  39.036   4.738
58390W        W19921  33.120  29.166   3.701
58391W        W19922  40.327  20.260   0.457
58392W        W19923  17.144   7.737   0.727
58393W        W19924  43.831  43.873   2.893
58394W        W19925  36.935  11.144   0.920
58395W        W19926  39.871   6.895   2.662
58396W        W19927  37.386  42.314  12.436
58397W        W19928   9.718  37.985  13.387
58398W        W19929  39.448   8.394   2.674
58399W        W19930  40.540  40.922  14.887
58400W        W19931  18.620  24.660  13.987
58401W        W19932  20.205   3.298   2.349
58402W        W19933  12.667   1.911  14.359
58403W        W19934  24.627  31.902  13.488
58404W        W19935   4.937  29.925  13.839
58405W        W19936  34.922  11.748  11.019
58406W        W19937  23.542  12.830   3.150
58407W        W19938  35.935  12.726   2.684
58408W        W19939   1.910  11.642   1.356
58409W        W19940  31.457  11.696  14.409
58410W        W19941   9.707  18.223  14.477
58411W        W19942  43.426  25.550  10.529
58412W        W19943   1.738   6.728   1.877
58413W        W19944  39.401  27.667   0.419
58414W        W19945  32.117  12.210   4.150
58415W        W19946  22.191  20.214   3.635
58416W        W19947   2.327  40.346   1.292
58417W        W19948   3.267  10.818  13.458
58418W        W19949  30.638  31.050   0.948
58419W        W19950  42.504   3.378   4.658
58420W        W19951  28.019  31.543   0.371
58421W        W19952  41.003  34.099   0.338
58422W        W19953  36.978  18.680  11.589
58423W        W19954  33.566   0.463   2.739
58424W        W19955  26.619  20.690  14.431
58425W        W19956  27.455  10.206  13.862
58426W        W19957   4.336  43.894  10.964
58427W        W19958  43.945  28.670  10.930
58428W        W19959  40.003  43.007   4.604
58429W        W19960  17.667  39.425  13.309
58430W        W19961  44.897  26.555   5.250
58431W        W19962  36.996  22.675   4.746
58432W        W19963  20.190  25.066   3.764
58433W        W19964  36.575  19.603   2.228
58434W        W19965  18.789   0.788  12.858
58435W        W19966   6.765  23.987   0.334
58436W        W19967  23.623  38.027   2.299
58437W        W19968  37.065  35.480   1.767
58438W        W19969  35.889   6.380   3.268
58439W        W19970  39.471   4.233  12.977
58440W        W19971  42.324  26.988  12.074
58441W        W19972  22.161   6.775  12.486
58442W        W19973  18.743  23.681   2.348
58443W        W19974  19.081  43.839   1.317
58444W        W19975  44.299  38.452  12.368
58445W        W19976  30.949  15.209   3.326
58446W        W19977  20.141   8.736  10.587
58447W        W19978  15.263   1.976  11.961
58448W        W19979  24.158   3.394  14.284
58449W        W19980  44.967  10.855  14.953
58450W        W19981  41.376   0.464   0.374
58451W        W19982  22.682  36.056   5.110
58452W        W19983  17.706   4.798  12.010
58453W        W19984   2.879  40.513   4.263
58454W        W19985   7.218  39.324   3.271
58455W        W19986  17.214  31.570  10.960
58456W        W19987  17.644   6.850   2.373
58457W        W19988  13.621  12.620  10.511
58458W        W19989  22.084   3.732   2.861
58459W        W19990  30.635  29.599  10.918
58460W        W19991   6.346  23.669  14.991
58461W        W19992  25.207  37.864  11.877
58462W        W19993  25.689   6.294  11.870
58463W        W19994  18.289  21.094   1.435
58464W        W19995  25.019  35.467  12.565
58465W        W19996  12.775  10.790  13.319
58466W        W19997  24.993   3.840   5.259
58467W        W19998  14.296   7.198  11.929
58468W        W19999  13.221   0.316   1.347
58469W        W20000  22.636  19.206  10.437
58470W        W20001   0.831  42.828  10.952
58471W        W20002   0.901  14.111  11.497
58472W        W20003  25.178  28.492   1.255
58473W        W20004  29.132  23.601  11.954
58474W        W20005  29.156   1.874  13.487
58475W        W20006  42.454  12.645   2.287
58476W        W20007  15.240   3.735  14.869
58477W        W20008  19.634  35.974   0.428
58478W        W20009  43.814  38.443   0.769
58479W        W20010  16.580  34.546  11.577
58480W        W20011  44.429   1.291   2.286
58481W        W20012  35.604  30.005  11.110
58482W        W20013  36.922  31.425   4.782
58483W        W20014  21.151  12.158   1.431
58484W        W20015  44.468   3.415  14.275
58485W        W20016  10.254  40.497   1.882
58486W        W20017  17.259  24.527  11.926
58487W        W20018  37.484  20.251   2.254
58488W        W20019  34.058  29.957   4.814
58489W        W20020  28.560  39.062  10.097
58490W        W20021  31.978  34.551  12.066
58491W        W20022  21.036  44.881   1.366
58492W        W20023  27.447   0.261   1.859
58493W        W20024  18.703   4.901  12.028
58494W        W20025  35.442  38.518  12.846
58495W        W20026   1.258   7.386  14.514
58496W        W20027  37.948  22.609  12.094
58497W        W20028  33.407  19.175   0.344
58498W        W20029  30.417   6.784  12.339
58499W        W20030  14.625  43.426   1.741
58500W        W20031  40.005  12.199  12.574
58501W        W20032  11.197  22.136   2.362
58502W        W20033  39.048  12.156  12.966
58503W        W20034  21.522  43.868  12.511
58504W        W20035  44.768  25.526  10.413
58505W        W20036  18.632  41.858  14.020
58506W        W20037  31.565  10.197   1.364
58507W        W20038  16.602   8.656   0.383
58508W        W20039  29.157  41.871   4.187
58509W        W20040   2.887  37.446  13.994
58510W        W20041  23.656  18.723   1.223
58511W        W20042  27.056  23.111   3.732
58512W        W20043   1.796   6.755   2.375
58513W        W20044  24.099  30.440  11.976
58514W        W20045  23.007  44.360  11.875
58515W        W20046   1.403   5.353   2.338
58516W        W20047  14.743  33.570  14.850
58517W        W20048  44.292  34.989   1.765
58518W        W20049   5.289  36.913   4.254
58519W        W20050  24.164  23.508   2.734
58520W        W20051  26.207  11.191   3.761
58521W        W20052  13.218  28.482  11.405
58522W        W20053   5.352  21.542   3.779
58523W        W20054  37.540  43.849  11.865
58524W        W20055  15.818  28.143   1.815
58525W        W20056  36.427  31.599  11.973
58526W        W20057   3.848   2.759  11.893
58527W        W20058  35.390  12.673  13.931
58528W        W20059   7.772  35.936   5.083
58529W        W20060  23.600  28.606   2.792
58530W        W20061  12.152  11.168   4.669
58531W        W20062  44.353  14.292   5.181
58532W        W20063  38.867  42.810  11.376
58533W        W20064  13.773   7.837   2.842
58534W        W20065  11.182  43.507  12.978
58535W        W20066  36.944  19.197  11.103
58536W        W20067  34.893  34.478  11.969
58537W        W20068  15.607   5.197   0.936
58538W        W20069   9.701  44.942   1.211
58539W        W20070  10.813   6.898  14.770
58540W        W20071  13.177  10.142  13.359
58541W        W20072  12.730  39.533  14.408
58542W        W20073   6.745  32.014   3.835
58543W        W20074  24.984  23.221   0.286
58544W        W20075  39.519  14.652   3.267
58545W        W20076  24.634  31.406  10.460
58546W        W20077  37.923  16.304  12.994
58547W        W20078   6.427  30.023   3.261
58548W        W20079  29.619  30.623  14.868
58549W        W20080  18.687  23.125  10.140
58550W        W20081  30.104   9.157  14.326
58551W        W20082  17.251  36.062   2.853
58552W        W20083  32.967  26.012   1.888
58553W        W20084  35.935  13.617  11.892
58554W        W20085  15.632   9.362  12.023
58555W        W20086  43.821  27.546   3.163
58556W        W20087  23.070  38.340   2.676
58557W        W20088   1.296   1.355  14.468
58558W        W20089  26.473  36.010  11.531
58559W        W20090  12.141   0.989  14.489
58560W        W20091  15.622  21.542   4.801
58561W        W20092  17.645  28.153   3.244
58562W        W20093  41.999  38.391   4.720
58563W        W20094  40.815  30.005   2.392
58564W        W20095  44.941  17.065   1.276
58565W        W20096  23.555  43.964   2.757
58566W        W20097  33.582  34.601  10.042
58567W        W20098  10.835   5.365   4.184
58568W        W20099   0.879  14.681  13.448
58569W        W20100  23.070  44.430  13.950
58570W        W20101  43.846  13.307   2.882
58571W        W20102  18.288  27.041   0.475
58572W        W20103  28.970   2.316  14.792
58573W        W20104  15.228  22.032   3.846
58574W        W20105  24.657   5.289  12.842
58575W        W20106  31.528  44.396  10.454
58576W        W20107  25.476   2.283  14.934
58577W        W20108  40.951  44.789  14.342
58578W        W20109  19.160  10.861   1.794
58579W        W20110  20.697  24.076  14.864
58580W        W20111  42.011  23.724   2.224
58581W        W20112  34.871   8.351  12.575
58582W        W20113   1.332  29.064   2.325
58583W        W20114  15.620  37.861  10.470
58584W        W20115   0.986   2.941  14.369
58585W        W20116  40.519  23.708  10.120
58586W        W20117  31.057  22.547  11.868
58587W        W20118  23.575   1.247   3.842
58588W        W20119   2.328  27.565  12.906
58589W        W20120  24.187  38.561  12.368
58590W        W20121  30.623  37.947   1.326
58591W        W20122  22.073  38.040   1.254
58592W        W20123  18.627   0.299   0.940
58593W        W20124  10.773  18.581   3.266
58594W        W20125   9.674  14.233  10.618
58595W        W20126  17.635  14.640  10.416
58596W        W20127  14.229  22.549   0.259
58597W        W20128  21.035   5.874   3.180
58598W        W20129  13.843  28.635  10.951
58599W        W20130  36.041  18.644   1.898
58600W        W20131  33.974  19.272   0.409
58601W        W20132   2.338  21.534   0.733
58602W        W20133  35.966  18.647   2.749
58603W        W20134  33.061  17.683   3.722
58604W        W20135  33.420  19.246  13.339
58605W        W20136  34.410  11.161   9.496
58606W        W20137   5.921  22.611  11.053
58607W        W20138  12.262  40.008   4.622
58608W        W20139  14.705   1.386   4.248
58609W        W20140  25.472  37.914   2.684
58610W        W20141   4.732  20.164   0.314
58611W        W20142  20.162  26.162  11.561
58612W        W20143  41.526   8.728  13.470
58613W        W20144  19.101   4.706   3.692
58614W        W20145   0.293  27.003  13.950
58615W        W20146  29.004  34.610  14.834
58616W        W20147  12.842  34.920   2.190
58617W        W20148   1.439  35.366   1.376
58618W        W20149  41.028  25.991   2.272
58619W        W20150  37.859   0.801  11.870
58620W        W20151  29.601   8.820   3.185
58621W        W20152  22.665  41.470   1.696
58622W        W20153   8.283   1.742  14.887
58623W        W20154  39.990  18.162  14.847
58624W        W20155  42.457   1.970   1.715
58625W        W20156  41.024  25.049  13.414
58626W        W20157  37.413  16.767   2.194
58627W        W20158  21.513  38.863  12.936
58628W        W20159   9.301  15.193  11.372
58629W        W20160  14.285  44.408   0.267
58630W        W20161  38.942  24.512  11.602
58631W        W20162  44.932  41.934  13.870
58632W        W20163  41.346   4.804  14.481
58633W        W20164  26.470   1.887   1.824
58634W        W20165  39.964   7.193   4.623
58635W        W20166  22.114  29.620  13.912
58636W        W20167  37.380  32.590   2.269
58637W        W20168  18.631  16.639  14.920
58638W        W20169  13.747  14.132   1.850
58639W        W20170  17.190  23.032   3.190
58640W        W20171  33.385  14.202  11.403
58641W        W20172  28.561  28.548   4.794
58642W        W20173  20.224  22.219  12.076
58643W        W20174  37.505  29.067   1.878
58644W        W20175   3.720   0.795  13.826
58645W        W20176  42.339  20.716  13.544
58646W        W20177  21.066  20.564   0.459
58647W        W20178  14.668  24.134  14.299
58648W        W20179   3.733  25.989  11.915
58649W        W20180  20.556  40.541  13.908
58650W        W20181   5.272  28.946   3.764
58651W        W20182  17.609  28.623  14.870
58652W        W20183  34.379  41.387  11.909
58653W        W20184  28.642  15.172  12.358
58654W        W20185  32.582   2.804   3.699
58655W        W20186   5.839  32.961  12.999
58656W        W20187  37.901  37.878  14.289
58657W        W20188   4.902   7.288  13.384
58658W        W20189  11.225  26.002   0.963
58659W        W20190  25.693  42.848  13.799
58660W        W20191   5.830  28.079  10.566
58661W        W20192  21.653  12.818   4.743
58662W        W20193   9.292  32.517  12.017
58663W        W20194  11.173  14.122   2.674
58664W        W20195  43.415  16.741   0.815
58665W        W20196  14.642   2.250   0.287
58666W        W20197  17.568  37.065  13.987
58667W        W20198  33.902  44.318  13.523
58668W        W20199  24.083  31.129  13.897
58669W        W20200  31.402  20.145   2.731
58670W        W20201  33.442  43.899   2.800
58671W        W20202  33.501   7.193   0.393
58672W        W20203  28.181  28.450   1.832
58673W        W20204  32.455   9.789  11.436
58674W        W20205   6.359   7.356  14.388
58675W        W20206  30.600  15.128  10.969
58676W        W20207  25.644   6.296   1.437
58677W        W20208  38.325  42.780  11.527
58678W        W20209  27.012  17.721  12.350
58679W        W20210   5.337   5.193  13.338
58680W        W20211   6.813  11.308  11.418
58681W        W20212   6.722  28.967   4.237
58682W        W20213  17.728  17.240   3.218
58683W        W20214   2.795   7.898   2.862
58684W        W20215  16.273  25.004   0.759
58685W        W20216   2.242  10.852  11.459
58686W        W20217   0.279   9.871  13.958
58687W        W20218  38.987  19.702   2.299
58688W        W20219  29.060   0.280  14.783
58689W        W20220  23.508  40.969  14.774
58690W        W20221   0.835   6.286   2.322
58691W        W20222  39.480  19.558  12.397
58692W        W20223  26.023  44.389   1.913
58693W        W20224  28.597   9.149  14.377
58694W        W20225  36.520  44.320   0.353
58695W        W20226  26.026   4.939  13.944
58696W        W20227  31.592  10.236   2.821
58697W        W20228  30.529  19.130  11.908
58698W        W20229  39.975   3.951   2.296
58699W        W20230   1.444  21.017   4.604
58700W        W20231   1.948  30.034   0.791
58701W        W20232  12.219  27.964  12.835
58702W        W20233  33.448  26.681  12.489
58703W        W20234  11.339  12.135  12.922
58704W        W20235  32.960   4.209  11.606
58705W        W20236   4.787  19.757   9.963
58706W        W20237  21.513   7.781   2.743
58707W        W20238  24.617  30.071   0.837
58708W        W20239  40.307   1.743   2.820
58709W        W20240  15.292   3.403   0.334
58710W        W20241  26.130  11.627   9.989
58711W        W20242  40.443  16.794  11.377
58712W        W20243  44.819  29.426   1.850
58713W        W20244   9.260  44.794   9.920
58714W        W20245   4.223  11.829  14.508
58715W        W20246   7.403  38.036  13.888
58716W        W20247  21.513  30.487   1.347
58717W        W20248   0.836  18.606   1.885
58718W        W20249  35.012  37.395  12.036
58719W        W20250  29.070  21.633   1.218
58720W        W20251  18.778  43.370  10.956
58721W        W20252  33.923  14.168  11.612
58722W        W20253  43.960  35.943  13.349
58723W        W20254   8.878  21.634  10.637
58724W        W20255  10.712  10.252  11.883
58725W        W20256   6.885  36.873   4.145
58726W        W20257   6.278  29.655   4.343
58727W        W20258  35.043  31.105   1.309
58728W        W20259   8.180  39.884   1.226
58729W        W20260  32.988  38.865   0.968
58730W        W20261  12.182  43.319  10.627
58731W        W20262  29.112   7.401  12.971
58732W        W20263  38.503  26.095   2.682
58733W        W20264  38.018  27.015  11.410
58734W        W20265   0.256   7.841  13.951
58735W        W20266  43.323  10.167  12.831
58736W        W20267  33.078  40.047  13.427
58737W        W20268  23.527  36.980   4.660
58738W        W20269  20.765  29.536   1.790
58739W        W20270  41.938  29.591  14.418
58740W        W20271  12.653  19.778  11.420
58741W        W20272  31.607  17.201   0.245
58742W        W20273  38.863   8.706  12.980
58743W        W20274  13.814  20.653   4.332
58744W        W20275  35.989  17.800   0.268
58745W        W20276   7.860  36.501   3.324
58746W        W20277  18.222  41.955  12.490
58747W        W20278  14.267  10.812  11.613
58748W        W20279  27.037  44.479   1.450
58749W        W20280  16.779  18.730   4.188
58750W        W20281  20.085  30.103  14.959
58751W        W20282  15.225   4.774  11.543
58752W        W20283  21.599  15.673   2.317
58753W        W20284  19.696   8.270  13.954
58754W        W20285  35.406  21.571  12.069
58755W        W20286   5.873  15.670   1.755
58756W        W20287  41.940  14.696  11.526
58757W        W20288  36.369   8.772   1.312
58758W        W20289  26.957  27.031  12.985
58759W        W20290  10.144  32.621   3.284
58760W        W20291  36.092  40.432   3.162
58761W        W20292  24.221   5.767   3.240
58762W        W20293  41.944  19.589   3.187
58763W        W20294  28.930  25.051   0.941
58764W        W20295  17.224  16.097   1.407
58765W        W20296   9.757   7.774  14.306
58766W        W20297  28.160   2.838   0.411
58767W        W20298  21.055  31.633   1.414
58768W        W20299  44.479  25.155   4.749
58769W        W20300   3.281   2.297  12.401
58770W        W20301  30.444  15.280  10.105
58771W        W20302   9.330  22.612   3.834
58772W        W20303  32.025  41.043  10.406
58773W        W20304  28.472   9.227  11.419
58774W        W20305  13.612  35.463   0.947
58775W        W20306   0.838   5.882  14.883
58776W        W20307  39.342  22.537  12.094
58777W        W20308  12.251  20.736   2.229
58778W        W20309  17.262   9.746  14.815
58779W        W20310  38.925  34.518   0.837
58780W        W20311  14.230   8.251  10.891
58781W        W20312  20.615  39.511  14.987
58782W        W20313  31.591  35.920   2.305
58783W        W20314  18.589  25.517  12.539
58784W        W20315   5.362  13.818   0.287
58785W        W20316   1.409  26.617   3.640
58786W        W20317  17.244  14.637   2.778
58787W        W20318  17.155  12.803  11.947
58788W        W20319  18.704  43.312  12.836
58789W        W20320   5.918  33.049   1.786
58790W        W20321  26.556   7.305   4.194
58791W        W20322  17.745  24.219  13.385
58792W        W20323  38.378  33.475  11.970
58793W        W20324  20.545  43.870   2.844
58794W        W20325   3.375  37.377   2.179
58795W        W20326  16.289  11.164  13.905
58796W        W20327  10.338  39.955  14.913
58797W        W20328  23.509  42.940   0.243
58798W        W20329  15.128  21.603  11.993
58799W        W20330  40.343  15.804  14.789
58800W        W20331   8.379  17.204  12.534
58801W        W20332  18.267   7.349   2.188
58802W        W20333   7.196   3.450  12.852
58803W        W20334  23.689  43.009  14.837
58804W        W20335  41.888   9.765   3.176
58805W        W20336  39.469  28.584   1.929
58806W        W20337  37.023  21.622  13.479
58807W        W20338  13.736  20.557   2.877
58808W        W20339  31.144  19.071   4.309
58809W        W20340   7.760  22.505   4.237
58810W        W20341  43.800  39.331   0.398
58811W        W20342   3.430  16.699   4.784
58812W        W20343  44.467  15.094  14.768
58813W        W20344   1.437  25.706   0.759
58814W        W20345  17.207  31.449  13.355
58815W        W20346  40.303  25.551   2.762
58816W        W20347   2.724   9.384  13.044
58817W        W20348  26.652  33.443  10.574
58818W        W20349  26.489  24.146   4.743
58819W        W20350  43.998  27.475  14.846
58820W        W20351  36.531   0.361  12.882
58821W        W20352  16.259  20.600   4.220
58822W        W20353   3.910   8.352   0.884
58823W        W20354  15.141  21.714  12.423
58824W        W20355  33.474  25.562  13.959
58825W        W20356  25.093  27.558   1.898
58826W        W20357  43.477  15.778   4.655
58827W        W20358  12.270  42.875  11.483
58828W        W20359   0.386   5.710   4.293
58829W        W20360  40.352  23.501  11.399
58830W        W20361  10.789  14.107  13.369
58831W        W20362   0.360  28.046  13.886
58832W        W20363  21.676  29.626  14.910
58833W        W20364  10.865  41.037   1.843
58834W        W20365   0.256  27.013  10.045
58835W        W20366  43.489  29.587   0.939
58836W        W20367  17.221  29.488   1.907
58837W        W20368  14.102   6.680  12.967
58838W        W20369   9.763  41.920   2.257
58839W        W20370  41.373  39.406   4.785
58840W        W20371   4.321  25.206  11.559
58841W        W20372   9.366  22.192  12.044
58842W        W20373  23.179  19.219   1.401
58843W        W20374  44.795  24.577  11.428
58844W        W20375  15.283   4.895   0.333
58845W        W20376   9.828  27.669   1.756
58846W        W20377  21.177  43.351   0.248
58847W        W20378  16.645   6.882   2.814
58848W        W20379  37.559  17.306   2.694
58849W        W20380   7.858   0.464   2.381
58850W        W20381  34.882   9.208   4.778
58851W        W20382  15.266   4.214  12.923
58852W        W20383   3.828  34.973   3.277
58853W        W20384   8.333  31.981   4.763
58854W        W20385  36.407   1.337  10.551
58855W        W20386  32.582  40.967   3.771
58856W        W20387   0.471   2.889   3.747
58857W        W20388  36.055  40.510  10.023
58858W        W20389  27.108  34.487  10.546
58859W        W20390   2.937  33.454   4.703
58860W        W20391  35.975  32.962   4.755
58861W        W20392  16.309  41.421  14.396
58862W        W20393  31.106  35.388  13.898
58863W        W20394  25.109  32.984  11.102
58864W        W20395  41.367  19.695   0.752
58865W        W20396   6.750  24.550   2.321
58866W        W20397  24.088  39.317   5.307
58867W        W20398  19.180  28.177   1.263
58868W        W20399  11.835  42.305   4.136
58869W        W20400   6.897  18.071  10.968
58870W        W20401  44.941  32.021   0.766
58871W        W20402  13.820  44.385  12.387
58872W        W20403   7.337  12.810   4.270
58873W        W20404   1.269   8.233  13.462
58874W        W20405  17.723  21.516  10.953
58875W        W20406  22.095  31.646  14.490
58876W        W20407  30.948  27.534  14.293
58877W        W20408  22.642   8.882  14.924
58878W        W20409  35.399  35.970   0.912
58879W        W20410   6.317   9.853  14.018
58880W        W20411   5.421  32.133  12.536
58881W        W20412  19.744   6.692  14.876
58882W        W20413  32.061  10.804   3.708
58883W        W20414  19.594  44.783   3.176
58884W        W20415  23.548  42.295  11.934
58885W        W20416  28.547  26.987  11.485
58886W        W20417   0.945  26.662   3.196
58887W        W20418  39.414  17.800   3.845
58888W        W20419  40.833  43.456   3.345
58889W        W20420  17.231  29.616   1.339
58890W        W20421   5.203   0.250  12.360
58891W        W20422  36.561  12.625   0.864
58892W        W20423   9.697  34.612   3.732
58893W        W20424  12.757  13.753  14.420
58894W        W20425  38.378  30.941  12.476
58895W        W20426   0.358  18.167  11.078
58896W        W20427  22.228  32.939  13.003
58897W        W20428   1.796   3.248   4.199
58898W        W20429   1.303   1.947  14.939
58899W        W20430  16.232   2.358   4.645
58900W        W20431  15.704  35.886   9.987
58901W        W20432  26.109  26.953   1.788
58902W        W20433  18.259  19.756  10.888
58903W        W20434   9.736   7.277   4.194
58904W        W20435  30.520  14.612  13.375
58905W        W20436  21.681  17.679  11.399
58906W        W20437  11.839  20.665  13.490
58907W        W20438   1.375   1.978  10.554
58908W        W20439  35.476   8.698  10.931
58909W        W20440  19.776  25.160  10.974
58910W        W20441  18.196   0.433   2.778
58911W        W20442   2.811   2.768   1.747
58912W        W20443  37.444  40.522  10.455
58913W        W20444  16.280  15.137  12.850
58914W        W20445  15.274   8.337   0.835
58915W        W20446  12.118   2.801   5.278
58916W        W20447  29.111  11.338  10.606
58917W        W20448  34.415  23.112   1.413
58918W        W20449  36.564  29.648  10.890
58919W        W20450  38.373  36.939   2.785
58920W        W20451  15.168  26.069  10.556
58921W        W20452  40.356  14.145   3.330
58922W        W20453  22.741  10.341  12.361
58923W        W20454  30.418  41.919  14.509
58924W        W20455  42.474  27.638   1.704
58925W        W20456   0.912  13.812   3.381
58926W        W20457   0.465  36.921  10.505
58927W        W20458  17.123  16.768   3.794
58928W        W20459  31.443  28.122  12.090
58929W        W20460  35.090   6.352   3.377
58930W        W20461  39.465  33.043   1.409
58931W        W20462  43.310  24.146   2.902
58932W        W20463  19.710  44.979   2.227
58933W        W20464   3.888  30.131  11.006
58934W        W20465  25.541   0.895   4.304
58935W        W20466   4.438  27.633  12.479
58936W        W20467  35.531  36.882   5.311
58937W        W20468  21.182  30.090  11.010
58938W        W20469  15.160  21.065  14.815
58939W        W20470  23.177  10.761  14.499
58940W        W20471  19.173  44.319  11.479
58941W        W20472  44.862  29.136  13.811
58942W        W20473  30.997  33.620   4.256
58943W        W20474  40.308  36.498  13.886
58944W        W20475  24.520  26.097  13.874
58945W        W20476  13.738  14.272  12.383
58946W        W20477  23.516  22.530   3.827
58947W        W20478   0.418  36.363  13.950
58948W        W20479   9.855  17.671   1.709
58949W        W20480  27.034   4.205   1.414
58950W        W20481  33.535   3.280   5.118
58951W        W20482   0.802   2.295  11.597
58952W        W20483  30.595  26.646  12.830
58953W        W20484  25.018  16.707   2.764
58954W        W20485  21.085  43.281   2.242
58955W        W20486   8.233   2.860  11.047
58956W        W20487  40.984  27.174  11.883
58957W        W20488  38.855  21.059   3.337
58958W        W20489  24.219  41.918   5.201
58959W        W20490  39.060   9.173   2.208
58960W        W20491  22.637  37.396  13.848
58961W        W20492  12.814  38.424   4.598
58962W        W20493  37.015  40.524  12.905
58963W        W20494  21.598   5.306   3.658
58964W        W20495  28.479   8.715   3.149
58965W        W20496  38.560  30.952   3.682
58966W        W20497  10.144  39.558  10.505
58967W        W20498  40.373  40.920   4.823
58968W        W20499   2.265  39.387  14.430
58969W        W20500  22.243  32.934   3.253
58970W        W20501  30.937  14.279   0.449
58971W        W20502  18.730  32.425   4.701
58972W        W20503   1.815  12.298   3.175
58973W        W20504  10.769   1.433   1.391
58974W        W20505   8.752  25.084   0.385
58975W        W20506  32.442  41.379  11.450
58976W        W20507  21.757  41.324   2.698
58977W        W20508   6.220  19.273  14.017
58978W        W20509   6.350  26.516  12.002
58979W        W20510  27.557  16.222   0.399
58980W        W20511   7.841  26.562   5.286
58981W        W20512   6.281  31.502   2.667
58982W        W20513  24.032  42.843   4.798
58983W        W20514  32.490  33.510   1.934
58984W        W20515  30.625  23.071  14.401
58985W        W20516  22.041  29.071  13.974
58986W        W20517  16.122  16.166   1.860
58987W        W20518  33.547   8.716   3.770
58988W        W20519   6.399  20.733  14.809
58989W        W20520   7.216  35.077  13.844
58990W        W20521   2.953  23.725   2.316
58991W        W20522  39.528   6.253   2.376
58992W        W20523  39.935  20.527   2.678
58993W        W20524  22.111  16.567   0.478
58994W        W20525  38.556  18.223  14.786
58995W        W20526  18.552   2.228   0.374
58996W        W20527   8.365  44.963   1.254
58997W        W20528   0.885  33.427  13.049
58998W        W20529   1.896  40.813  14.800
58999W        W20530   9.270  40.806   1.718
59000W        W20531  20.702  44.498   1.887
59001W        W20532  11.298  24.033   3.263
59002W        W20533  40.805   0.366  11.456
59003W        W20534  20.206  39.905   9.970
59004W        W20535  14.694  22.240  12.031
59005W        W20536   9.660   8.283   2.390
59006W        W20537  16.671  19.271   4.714
59007W        W20538  43.964  10.253  12.030
59008W        W20539  29.056  14.790   1.740
59009W        W20540  34.523  29.964  11.878
59010W        W20541  34.928   1.792  11.106
59011W        W20542  32.457   3.845  11.449
59012W        W20543  41.466  41.347  11.578
59013W        W20544   2.404   0.378   4.836
59014W        W20545  39.547  27.170  14.999
59015W        W20546  15.671  36.392   4.130
59016W        W20547  42.030  34.866   0.757
59017W        W20548  36.349   9.291  14.474
59018W        W20549  11.262  22.651  13.466
59019W        W20550  23.120  20.573  11.444
59020W        W20551  33.408  42.897   0.900
59021W        W20552  29.943  12.160  13.349
59022W        W20553  34.942  41.526  10.626
59023W        W20554  10.343  13.202   1.428
59024W        W20555  41.978  23.092  12.850
59025W        W20556  35.893  14.763   3.635
59026W        W20557  22.168  29.573  11.542
59027W        W20558   4.933  40.361  10.408
59028W        W20559  25.003  41.335   1.215
59029W        W20560  43.317  27.478  12.839
59030W        W20561  19.099   9.687  13.798
59031W        W20562  28.576   8.737   1.437
59032W        W20563  31.951  37.966  10.536
59033W        W20564  40.422   9.392  13.492
59034W        W20565   5.316  17.264   1.289
59035W        W20566   4.425  37.378   0.481
59036W        W20567  35.381  21.750  11.459
59037W        W20568   7.176   3.738   4.353
59038W        W20569  20.560  24.560   0.789
59039W        W20570  23.506   7.373  13.908
59040W        W20571  36.589  11.753  11.072
59041W        W20572  28.464   2.309  10.465
59042W        W20573  34.014   2.379   1.263
59043W        W20574  16.711  38.403  12.432
59044W        W20575  20.051   7.307  11.430
59045W        W20576  35.380   3.887  14.387
59046W        W20577  30.135  37.539  13.951
59047W        W20578  40.035  32.427  12.058
59048W        W20579  22.526  31.574  12.871
59049W        W20580   0.410  38.018   4.621
59050W        W20581  18.607  17.233   4.231
59051W        W20582  26.672   5.257  13.420
59052W        W20583  41.991  40.519   1.310
59053W        W20584  10.681  33.969  12.417
59054W        W20585  10.633   9.824  11.071
59055W        W20586  23.067   3.250   0.945
59056W        W20587  43.416  39.426   4.253
59057W        W20588  40.487  13.742   3.224
59058W        W20589  28.569  18.736   1.773
59059W        W20590  27.084  10.651   1.767
59060W        W20591  13.608   2.393  12.483
59061W        W20592  24.100  17.799   2.409
59062W        W20593  40.968  12.296  14.490
59063W        W20594  13.199  25.966  12.443
59064W        W20595   5.231  22.616   5.308
59065W        W20596  16.123  39.836   4.833
59066W        W20597   0.351  29.114  13.022
59067W        W20598   6.259  25.705  13.546
59068W        W20599  18.105  16.805  14.836
59069W        W20600   4.818  28.144  14.821
59070W        W20601   5.245  38.387   4.770
59071W        W20602  22.051   3.892  10.606
59072W        W20603   3.929  42.294  14.307
59073W        W20604   3.747  27.690   0.385
59074W        W20605  37.979  35.565  14.339
59075W        W20606  20.618   8.898   3.686
59076W        W20607  29.047   8.246   0.933
59077W        W20608  41.525  39.491  12.080
59078W        W20609  31.411  19.538   3.310
59079W        W20610  11.757   1.292  14.977
59080W        W20611  44.008  40.799   0.267
59081W        W20612  10.825  26.627   0.939
59082W        W20613   2.856  30.494  13.820
59083W        W20614  37.912  10.382  12.902
59084W        W20615  35.532  39.401   0.350
59085W        W20616  25.632  24.655  14.762
59086W        W20617  26.668  18.633   1.391
59087W        W20618  40.386   3.948   1.380
59088W        W20619  42.850  10.204   3.846
59089W        W20620  28.606   7.242  14.795
59090W        W20621   5.760  29.615   4.614
59091W        W20622  30.563   7.679   4.621
59092W        W20623  39.009  36.350  10.445
59093W        W20624  42.378  23.504   1.226
59094W        W20625  20.630  20.709   3.194
59095W        W20626  12.809  12.740   4.723
59096W        W20627  35.528  32.603  12.452
59097W        W20628  32.047  21.679   4.184
59098W        W20629  36.952  32.057  13.356
59099W        W20630  25.654  35.937   4.669
59100W        W20631  15.109   5.758   1.393
59101W        W20632   0.744  23.062   0.958
59102W        W20633  35.477  20.604   2.207
59103W        W20634  36.894  31.463  10.962
59104W        W20635  34.453   1.239  13.398
59105W        W20636  25.020  21.736   3.781
59106W        W20637  16.302  31.902   1.229
59107W        W20638   8.680   6.744   4.663
59108W        W20639  34.095   4.925  13.927
59109W        W20640  34.080  14.805  11.517
59110W        W20641  21.202  21.751  12.561
59111W        W20642   3.713  19.586   1.400
59112W        W20643  12.194  24.064   3.779
59113W        W20644  15.736   3.955   2.405
59114W        W20645  13.285  20.650  12.059
59115W        W20646  31.085  40.881  14.956
59116W        W20647  40.394   3.765  11.892
59117W        W20648  26.116   4.431  13.841
59118W        W20649  38.558   8.172  14.290
59119W        W20650   2.816   4.768   4.176
59120W        W20651  38.030   4.361   3.293
59121W        W20652  27.689  11.720  13.918
59122W        W20653  33.498  12.682   5.185
59123W        W20654   2.395  34.084  10.637
59124W        W20655  34.038   4.869   3.170
59125W        W20656  18.227  43.820   2.390
59126W        W20657  40.508  28.564  10.446
59127W        W20658   3.276  33.506   0.373
59128W        W20659  27.661  30.429  13.966
59129W        W20660  26.178  29.457   0.247
59130W        W20661   1.442  33.989   2.288
59131W        W20662   4.444   4.850  13.943
59132W        W20663  30.542  24.513  11.503
59133W        W20664  11.170  10.363   2.827
59134W        W20665   3.731  10.704  12.553
59135W        W20666  26.112  35.015  14.799
59136W        W20667  27.086  42.313   2.361
59137W        W20668  18.148  25.584  11.495
59138W        W20669  23.032  26.142   4.290
59139W        W20670  43.509  34.103  11.050
59140W        W20671   8.309  28.596   4.696
59141W        W20672  31.037   3.247  13.369
59142W        W20673  35.403   9.177  11.374
59143W        W20674   9.660  21.722   1.278
59144W        W20675  27.032   7.754   0.283
59145W        W20676   5.348   8.347   1.818
59146W        W20677  26.480  31.453   1.915
59147W        W20678  37.079  27.060  11.887
59148W        W20679  28.102  12.654   4.237
59149W        W20680  11.148  23.097   2.848
59150W        W20681  18.169  25.109   2.411
59151W        W20682  41.317  21.740   0.783
59152W        W20683  19.538  39.436   9.645
59153W        W20684  37.959  31.003   3.166
59154W        W20685   2.374   8.899   4.683
59155W        W20686  32.462  16.655  14.506
59156W        W20687   4.829  15.679   0.389
59157W        W20688  17.763  39.929  12.900
59158W        W20689  38.446  19.533  11.036
59159W        W20690  43.364  13.693   2.785
59160W        W20691  38.327  32.455  12.958
59161W        W20692  40.390  44.966   0.792
59162W        W20693   7.906  21.707  12.504
59163W        W20694  15.083  27.100   3.774
59164W        W20695  44.786  32.931   0.849
59165W        W20696  18.157  41.988   1.246
59166W        W20697   8.239   3.796  11.964
59167W        W20698  15.301  26.013   1.235
59168W        W20699  27.654  37.476   4.790
59169W        W20700  27.635   2.891  14.936
59170W        W20701  31.552  22.650  11.573
59171W        W20702  19.250  28.481  12.551
59172W        W20703  25.496  13.213  11.871
59173W        W20704  28.100  18.220   4.696
59174W        W20705  20.745  32.599  12.992
59175W        W20706  22.068  29.933  11.593
59176W        W20707  42.785  34.881   2.290
59177W        W20708  36.921  16.200   1.839
59178W        W20709  32.022  43.466   4.249
59179W        W20710  36.510  37.858   1.734
59180W        W20711  26.516  20.589   0.272
59181W        W20712  21.048  30.078   4.199
59182W        W20713  36.473  31.153  11.106
59183W        W20714  15.112   7.305   3.252
59184W        W20715  38.347  25.688  13.977
59185W        W20716  27.591  12.125   0.476
59186W        W20717  31.551  18.133   1.770
59187W        W20718  19.046  38.492  14.826
59188W        W20719  10.788  39.064  13.950
59189W        W20720   8.656  26.492   1.721
59190W        W20721   8.811  37.572   1.848
59191W        W20722  31.624  37.499  14.907
59192W        W20723   4.937  40.923   2.674
59193W        W20724  21.734   4.736   2.787
59194W        W20725  30.026  23.217   4.261
59195W        W20726  27.659   3.720  13.999
59196W        W20727  23.627  24.009  11.993
59197W        W20728  27.477  30.129  12.375
59198W        W20729   9.309   6.320  10.067
59199W        W20730  32.481  14.755   2.373
59200W        W20731  31.631  28.951   0.780
59201W        W20732  13.346  12.618   3.699
59202W        W20733  27.452  31.091  11.930
59203W        W20734  43.313   3.746  10.580
59204W        W20735  30.515  20.158  10.546
59205W        W20736   7.175  22.080   3.226
59206W        W20737  40.458  19.696   3.356
59207W        W20738   5.415   2.267   0.455
59208W        W20739   9.277  21.703  14.769
59209W        W20740   4.858  39.865   2.245
59210W        W20741  12.764  10.355  14.811
59211W        W20742   6.362  19.667  10.938
59212W        W20743  23.494  14.213   2.802
59213W        W20744  12.118   0.397  13.903
59214W        W20745  10.862  32.901   0.337
59215W        W20746   5.933   5.205   0.914
59216W        W20747   4.915   1.739  15.000
59217W        W20748   9.778  34.411   4.760
59218W        W20749  37.923   7.666  14.027
59219W        W20750  20.041  40.963  14.972
59220W        W20751  21.690   6.829   4.215
59221W        W20752  10.237  14.158  10.158
59222W        W20753  24.543  35.434   4.253
59223W        W20754  27.189  36.035  13.820
59224W        W20755  40.310  25.563  12.392
59225W        W20756   7.679   9.880   1.726
59226W        W20757  18.772  29.587  12.881
59227W        W20758   9.167  18.145   5.115
59228W        W20759   5.744  14.338   3.853
59229W        W20760  31.127  18.612  13.829
59230W        W20761   1.861   7.217  13.520
59231W        W20762  26.108  16.255  12.391
59232W        W20763  27.447  23.627  13.391
59233W        W20764  33.413  35.897  14.936
59234W        W20765   9.355  11.865  13.351
59235W        W20766  41.037  42.980  10.600
59236W        W20767   0.987  24.093   9.551
59237W        W20768  15.279   8.164  11.915
59238W        W20769  40.911  42.965   3.318
59239W        W20770  38.945  24.026   5.305
59240W        W20771  43.456   8.172  11.932
59241W        W20772  36.912  12.306  11.463
59242W        W20773  22.717  44.350   3.290
59243W        W20774   0.332   7.259  14.868
59244W        W20775  17.566  34.864   1.444
59245W        W20776  26.138  23.032  12.560
59246W        W20777  31.042  20.245   4.319
59247W        W20778  11.699  24.487   2.729
59248W        W20779  37.035  28.654  12.522
59249W        W20780  20.747  29.081   2.291
59250W        W20781   5.284  36.544  12.374
59251W        W20782   6.742   1.455   4.181
59252W        W20783  43.766  24.136  12.369
59253W        W20784   6.803  23.000  11.912
59254W        W20785  19.268  39.544   0.439
59255W        W20786  11.779  41.847  12.448
59256W        W20787  10.637  36.977  14.810
59257W        W20788  20.238  20.601   3.829
59258W        W20789  19.045  41.809  12.361
59259W        W20790   0.878  25.013  12.071
59260W        W20791   5.285   1.380  12.934
59261W        W20792  19.188   0.753   0.790
59262W        W20793  29.988  41.837  14.491
59263W        W20794  28.497  28.113  14.346
59264W        W20795  40.504  13.697   0.262
59265W        W20796  33.986  44.344   3.296
59266W        W20797  21.597  28.065  11.432
59267W        W20798  19.583  12.734   2.709
59268W        W20799  35.899  14.275  14.305
59269W        W20800  38.396  18.621   2.696
59270W        W20801  20.736  44.893   3.841
59271W        W20802  23.008  11.306  14.001
59272W        W20803  42.307  30.539  14.324
59273W        W20804  32.925  13.724  14.365
59274W        W20805  44.923  15.707   1.337
59275W        W20806  43.342  41.879   1.450
59276W        W20807  17.306   9.728  11.945
59277W        W20808  16.625  38.479  12.858
59278W        W20809   1.376  23.604  11.438
59279W        W20810   1.419  43.862  11.475
59280W        W20811  13.142  36.407  14.503
59281W        W20812  30.567  42.894   1.417
59282W        W20813  24.006  44.455   2.363
59283W        W20814  10.803  15.658   2.295
59284W        W20815  10.149  16.318  12.495
59285W        W20816  39.006  13.736   2.344
59286W        W20817  36.418   5.338   3.257
59287W        W20818  28.463  17.791  11.008
59288W        W20819  17.235  30.637   2.325
59289W        W20820   8.789   9.369  13.495
59290W        W20821  40.897   6.226  14.993
59291W        W20822  17.285  26.123   9.986
59292W        W20823   5.892  42.331  12.920
59293W        W20824  14.156   8.309   4.654
59294W        W20825  13.668  37.911   0.817
59295W        W20826   5.931  36.965   3.814
59296W        W20827  10.666  10.818  13.014
59297W        W20828  34.420   5.357   4.261
59298W        W20829  22.035   7.698   4.723
59299W        W20830   2.326  20.123   4.178
59300W        W20831  10.802  28.150  14.422
59301W        W20832  20.036   0.407   0.318
59302W        W20833  30.927  27.557   4.659
59303W        W20834   8.189  39.560  11.906
59304W        W20835  40.414  31.026   3.832
59305W        W20836   3.840   4.393  14.002
59306W        W20837   3.949  38.835  13.526
59307W        W20838  37.397  32.527  12.518
59308W        W20839  29.043   6.297   0.386
59309W        W20840  22.560  18.570  11.476
59310W        W20841  32.406  11.758   0.856
59311W        W20842  18.236  35.861   4.725
59312W        W20843   8.862   9.177  12.037
59313W        W20844   3.260  11.677  12.014
59314W        W20845   6.728  32.117  13.963
59315W        W20846  37.896  15.297  13.028
59316W        W20847   8.767  16.136   3.714
59317W        W20848  36.875  37.922   0.893
59318W        W20849   9.741  28.441  10.917
59319W        W20850   5.804  44.900  11.435
59320W        W20851  41.418  24.068  12.074
59321W        W20852   1.939  35.055   0.392
59322W        W20853  25.548  23.047   4.290
59323W        W20854  14.217   1.846  10.151
59324W        W20855  14.193  34.525  12.392
59325W        W20856   0.827  32.526  10.960
59326W        W20857   0.890   7.700  14.385
59327W        W20858   5.375   7.236  11.537
59328W        W20859  14.797  42.285  12.942
59329W        W20860  38.970  37.412   4.650
59330W        W20861   3.340   8.895  12.893
59331W        W20862  14.110  25.010   9.989
59332W        W20863  19.112  39.482   3.328
59333W        W20864   8.725  10.687  12.941
59334W        W20865  30.081  14.154   4.689
59335W        W20866  17.625   1.424  11.123
59336W        W20867   3.772  43.008  12.540
59337W        W20868  25.007  13.759   3.782
59338W        W20869  11.186   4.366  13.920
59339W        W20870   4.778  12.679   1.750
59340W        W20871   5.284  41.027  13.826
59341W        W20872  11.768  28.464  13.307
59342W        W20873  14.288  11.261  11.542
59343W        W20874  11.822  35.386   4.275
59344W        W20875   3.887  31.472  12.565
59345W        W20876  14.177  17.770  12.857
59346W        W20877  43.966  20.060  12.987
59347W        W20878   0.802  32.059   3.235
59348W        W20879  32.137  18.611   2.261
59349W        W20880  16.214  44.825   0.827
59350W        W20881  11.810  19.244   0.295
59351W        W20882  35.511  24.526   3.237
59352W        W20883  23.999  44.503  12.827
59353W        W20884   6.689  25.086  12.932
59354W        W20885  29.518  25.472   3.634
59355W        W20886   1.372  13.830   4.120
59356W        W20887  10.317  42.463   4.762
59357W        W20888   4.278   9.777  14.967
59358W        W20889  40.870  33.879  12.570
59359W        W20890  25.043   1.765  11.063
59360W        W20891  27.620  23.049   0.803
59361W        W20892   8.840   0.855   1.307
59362W        W20893  32.454   0.768   2.276
59363W        W20894  16.780  23.684   3.371
59364W        W20895  13.188  37.550  11.122
59365W        W20896  33.549  17.674   2.727
59366W        W20897  30.088  17.222  14.382
59367W        W20898  21.110  22.709   4.205
59368W        W20899  36.845  21.677   2.789
59369W        W20900  25.210  42.281  11.600
59370W        W20901  10.800  33.880  11.474
59371W        W20902  14.713   2.259  13.012
59372W        W20903   2.310  31.108   2.222
59373W        W20904  28.585  12.244  11.026
59374W        W20905  43.402  32.417  13.468
59375W        W20906  25.621  26.049   0.954
59376W        W20907  40.976  17.793   4.124
59377W        W20908  18.711  29.619   3.771
59378W        W20909  32.457  21.227  10.018
59379W        W20910  40.400  26.470  12.537
59380W        W20911  34.425  39.861   2.882
59381W        W20912  32.130  32.482  14.881
59382W        W20913  22.739  14.310   0.403
59383W        W20914  41.433  19.716  11.877
59384W        W20915  14.206  15.807  11.932
59385W        W20916  39.977  21.564   2.353
59386W        W20917  40.982  42.433  14.454
59387W        W20918  36.580  35.569   4.600
59388W        W20919   9.340  19.644   2.878
59389W        W20920  19.656  41.027  11.907
59390W        W20921  20.041   8.278   0.832
59391W        W20922  41.294  14.147   3.386
59392W        W20923  18.620  29.463   5.322
59393W        W20924  16.685   8.799   1.837
59394W        W20925  30.415  35.992  14.882
59395W        W20926  18.107  28.593   2.858
59396W        W20927  31.624   5.202  14.462
59397W        W20928  13.618  20.250  12.094
59398W        W20929  24.659  20.632  11.407
59399W        W20930   5.772  10.339  12.466
59400W        W20931  34.048  20.217   2.395
59401W        W20932  23.725  37.908  13.412
59402W        W20933  17.733   9.201   4.609
59403W        W20934  24.154  26.635   4.324
59404W        W20935  33.489   5.733   3.820
59405W        W20936  34.059  27.055  12.938
59406W        W20937  21.678  23.628  13.850
59407W        W20938  12.785   7.706  10.601
59408W        W20939  39.492  13.142   0.741
59409W        W20940  21.214   3.388  13.952
59410W        W20941  31.903  19.180   3.720
59411W        W20942  28.518  43.014   4.669
59412W        W20943  14.723  22.115  12.417
59413W        W20944  14.815  36.531  14.512
59414W        W20945  43.965   7.173   4.702
59415W        W20946  44.816  26.111  12.977
59416W        W20947  34.487  33.031  12.081
59417W        W20948   5.893  34.477  13.901
59418W        W20949  30.577  38.908   1.889
59419W        W20950  43.859  20.628  11.902
59420W        W20951  10.248  16.101   1.877
59421W        W20952   1.348   6.303  12.972
59422W        W20953   8.368  36.366  12.398
59423W        W20954  10.284   7.733  12.836
59424W        W20955   6.318  30.440  10.559
59425W        W20956  36.520  40.449   9.470
59426W        W20957  19.273  43.912   0.786
59427W        W20958   9.735  14.191  10.926
59428W        W20959   5.253  15.637  11.889
59429W        W20960  35.503  27.123   3.174
59430W        W20961  28.576  26.498   5.266
59431W        W20962   0.896  27.007   4.252
59432W        W20963  15.729  43.349   5.121
59433W        W20964  19.643  21.111   3.362
59434W        W20965  43.797  31.943  11.534
59435W        W20966  13.245  39.506   0.443
59436W        W20967  34.897  20.138   4.146
59437W        W20968  17.083  20.630  10.043
59438W        W20969  38.362   8.280   4.704
59439W        W20970   8.175  10.862   2.367
59440W        W20971  21.553  36.886   2.850
59441W        W20972   6.680  15.600   0.421
59442W        W20973  25.186  19.205   4.736
59443W        W20974  16.595  34.971   4.255
59444W        W20975   5.722  14.741   0.390
59445W        W20976   5.820   4.775  10.503
59446W        W20977  11.184  13.761   3.789
59447W        W20978  18.214  40.960   2.257
59448W        W20979  44.278  24.139   1.721
59449W        W20980  16.655  24.992  13.818
59450W        W20981   8.269   8.238  13.520
59451W        W20982  12.661  15.748   0.364
59452W        W20983  33.951  15.747   1.879
59453W        W20984  32.074   5.866  14.887
59454W        W20985  21.715   2.925   0.730
59455W        W20986   9.728   8.805  14.389
59456W        W20987   7.755  28.962   2.763
59457W        W20988   7.392  15.703   4.814
59458W        W20989  24.099  15.110   4.762
59459W        W20990  31.008  28.478   0.874
59460W        W20991   2.339   8.188   2.670
59461W        W20992  23.022  28.571   3.175
59462W        W20993  23.113   3.338  11.004
59463W        W20994  30.446   5.689   2.683
59464W        W20995   8.671  24.018   3.760
59465W        W20996   3.850  43.989   1.917
59466W        W20997   3.932   8.285  14.913
59467W        W20998  33.025  38.856  10.608
59468W        W20999  43.940  22.544  11.568
59469W        W21000   6.203   8.733   1.823
59470W        W21001  23.002   7.705   1.246
59471W        W21002  33.433  14.601   1.393
59472W        W21003  11.700   8.875  12.964
59473W        W21004  22.539  17.581   3.660
59474W        W21005  24.479  20.657   1.730
59475W        W21006  34.899  42.906  13.468
59476W        W21007  18.787   7.363   4.333
59477W        W21008  15.643  24.567   1.347
59478W        W21009  13.670  28.099   3.242
59479W        W21010  18.184  21.708  12.427
59480W        W21011  11.137  17.173  11.909
59481W        W21012  17.779   7.691   2.254
59482W        W21013   1.340  41.392  11.517
59483W        W21014  12.123  43.843   3.729
59484W        W21015  21.048  21.603   2.333
59485W        W21016   5.882  11.284   0.744
59486W        W21017  11.267   3.903   2.301
59487W        W21018  36.051  36.929  10.923
59488W        W21019  31.487   9.266   0.414
59489W        W21020  19.609  33.607  11.544
59490W        W21021  38.054  20.129   1.734
59491W        W21022  10.354  24.630  14.435
59492W        W21023   6.225  37.411  11.964
59493W        W21024   0.780  32.483  12.931
59494W        W21025  42.802   5.303   0.385
59495W        W21026  20.030  17.178   3.789
59496W        W21027  16.702  30.997  13.012
59497W        W21028  35.575   9.204   4.812
59498W        W21029   4.719   8.262  13.344
59499W        W21030  15.669  11.178  10.161
59500W        W21031   8.712  33.950   2.392
59501W        W21032  42.934  20.582   1.862
59502W        W21033  15.645  19.152   3.658
59503W        W21034  30.487  39.938  11.017
59504W        W21035  10.256  18.642  13.520
59505W        W21036   3.426  41.342   2.860
59506W        W21037  21.751  25.024  12.939
59507W        W21038  34.107  26.536   4.608
59508W        W21039  36.444  23.672   4.306
59509W        W21040  19.714   0.468   2.351
59510W        W21041  31.989   7.267   9.924
59511W        W21042  31.141   7.187   2.752
59512W        W21043   0.774  42.005   4.618
59513W        W21044  15.267  38.017   1.227
59514W        W21045  29.489  28.600  14.351
59515W        W21046  40.949  22.093  13.339
59516W        W21047  28.146  21.643  12.006
59517W        W21048  12.212  37.479   4.155
59518W        W21049   3.361  22.742  13.412
59519W        W21050  39.829  26.459  11.992
59520W        W21051  43.308  25.661  11.427
59521W        W21052   4.918  19.704  14.350
59522W        W21053  41.519  13.628   1.374
59523W        W21054  37.080   6.233  11.105
59524W        W21055   1.275  33.430   1.857
59525W        W21056  11.624  29.063  14.390
59526W        W21057  34.402  43.010  11.003
59527W        W21058  37.963  22.721  10.454
59528W        W21059   4.417  13.210  10.979
59529W        W21060   7.870  28.085  10.414
59530W        W21061  28.558   6.866  14.378
59531W        W21062  11.843  18.681  13.409
59532W        W21063  21.234  29.655   3.866
59533W        W21064  33.464  25.678   3.740
59534W        W21065  19.260  25.651  14.346
59535W        W21066   5.742  19.713  14.018
59536W        W21067  18.186  22.559   1.818
59537W        W21068  28.654  41.353   4.751
59538W        W21069  28.020   6.398   0.439
59539W        W21070  26.158   6.354  14.347
59540W        W21071  31.469  23.700  14.921
59541W        W21072  10.875  42.834  14.926
59542W        W21073  34.926   1.389   4.601
59543W        W21074  44.969  21.680  14.877
59544W        W21075   3.890  31.423   0.759
59545W        W21076  36.021  23.114  13.379
59546W        W21077   1.282  36.077   0.400
59547W        W21078  11.749  15.303  13.008
59548W        W21079   3.939  31.573   3.221
59549W        W21080  24.118  35.525  14.359
59550W        W21081  10.260  37.885   4.168
59551W        W21082  22.238   5.247  12.860
59552W        W21083  26.959   5.888  14.374
59553W        W21084  31.066  12.685   5.227
59554W        W21085  16.638  27.667  11.613
59555W        W21086   1.735  33.121  14.008
59556W        W21087   6.182  18.205   4.778
59557W        W21088  20.754  36.375  12.979
59558W        W21089   1.239  21.518   3.671
59559W        W21090   9.790   3.309   4.245
59560W        W21091  24.481  38.861   1.344
59561W        W21092  13.332  35.594   0.836
59562W        W21093  24.186  17.276   1.930
59563W        W21094  20.687  19.684   1.255
59564W        W21095  34.494  21.590  14.963
59565W        W21096  42.305  29.633   3.217
59566W        W21097  33.923  39.489   4.813
59567W        W21098  28.943  41.297   1.730
59568W        W21099   2.421   0.444   1.264
59569W        W21100   3.413  33.096   3.231
59570W        W21101   8.767  14.609  13.518
59571W        W21102  17.192  42.943  12.864
59572W        W21103   4.242  15.657  13.928
59573W        W21104  17.693   1.956  14.394
59574W        W21105  44.475  13.655  10.455
59575W        W21106  21.191  29.949  13.916
59576W        W21107  14.805  37.526   3.209
59577W        W21108  42.884  11.192   0.770
59578W        W21109  31.456   7.864  14.388
59579W        W21110  42.389   8.339  11.921
59580W        W21111  40.943  39.970   4.772
59581W        W21112   7.373   6.343  11.411
59582W        W21113  36.020  21.697   3.850
59583W        W21114  43.901  26.056   3.345
59584W        W21115  23.691  30.065   3.782
59585W        W21116  22.654  17.174   1.793
59586W        W21117  38.397  33.619  14.960
59587W        W21118  19.258  42.507  13.813
59588W        W21119   4.217  32.500  13.018
59589W        W21120  30.031  11.667  11.517
59590W        W21121  16.094  41.991   1.434
59591W        W21122  18.789  38.041  10.073
59592W        W21123  31.532  11.249   0.295
59593W        W21124  27.012  29.048   2.674
59594W        W21125   2.284  38.978   0.366
59595W        W21126  28.509   9.795  10.105
59596W        W21127  29.964  41.371  12.446
59597W        W21128  42.873  40.362  12.535
59598W        W21129  21.099   9.386  11.922
59599W        W21130   1.877   0.276   3.812
59600W        W21131  32.142  25.018   1.260
59601W        W21132  25.566  14.121   3.330
59602W        W21133  33.537  10.170  12.028
59603W        W21134   4.726  33.478  11.959
59604W        W21135  24.981  14.643  12.499
59605W        W21136  24.526  29.120  14.003
59606W        W21137  13.277   9.752  14.955
59607W        W21138  19.060  37.960  13.379
59608W        W21139  26.056  23.996   0.880
59609W        W21140  21.523  17.210   3.254
59610W        W21141  24.035   5.376  13.455
59611W        W21142  42.836  33.415   0.803
59612W        W21143  37.949   1.386  13.355
59613W        W21144  22.162   1.970   3.342
59614W        W21145  19.206  20.194  14.361
59615W        W21146  38.968  35.392   1.881
59616W        W21147   7.835   3.242  14.941
59617W        W21148  19.256  29.072  14.378
59618W        W21149  39.048  16.122   2.374
59619W        W21150   4.329  41.425  10.908
59620W        W21151  43.474  20.564   1.732
59621W        W21152  33.605   5.218  13.957
59622W        W21153   8.311   8.785  14.340
59623W        W21154  30.066  32.415  12.520
59624W        W21155   2.441  36.581   0.248
59625W        W21156  41.434   6.768  10.495
59626W        W21157   7.693  44.787  13.818
59627W        W21158  29.976   2.248  14.883
59628W        W21159  13.306  27.968  12.826
59629W        W21160  44.858  25.177   4.670
59630W        W21161  35.543   0.774  11.520
59631W        W21162  21.092  33.489  13.498
59632W        W21163   9.832  23.490  10.967
59633W        W21164  36.989   5.273  11.491
59634W        W21165  39.869  10.325  13.484
59635W        W21166  32.058  37.959   1.222
59636W        W21167   1.390  13.157   4.199
59637W        W21168  12.838   1.479   5.258
59638W        W21169  22.104   3.353  11.452
59639W        W21170  31.638   9.266   5.245
59640W        W21171  10.735  20.109  11.523
59641W        W21172  10.693  33.522  11.422
59642W        W21173   4.778   8.314  11.939
59643W        W21174  25.541  32.628  12.857
59644W        W21175   6.804  39.455  12.855
59645W        W21176   9.308  28.170   4.770
59646W        W21177  11.161  19.744   1.424
59647W        W21178  25.700  26.493  13.524
59648W        W21179  13.763  28.108   1.931
59649W        W21180  25.113   3.294  10.969
59650W        W21181  25.690  42.867  11.553
59651W        W21182  26.459  25.192  10.480
59652W        W21183  26.169  30.913  14.999
59653W        W21184  43.777  44.899  12.426
59654W        W21185   9.678  33.387  13.847
59655W        W21186  31.477  32.100   1.398
59656W        W21187  35.487  26.955  12.869
59657W        W21188  28.662  13.267   4.305
59658W        W21189  43.434   2.735  13.808
59659W        W21190   6.689   1.403   3.786
59660W        W21191  16.715  19.712   1.358
59661W        W21192   3.903  13.715   0.916
59662W        W21193  27.156   1.261   0.837
59663W        W21194  31.059  16.718   2.733
59664W        W21195   4.772  31.404   3.727
59665W        W21196   4.703  37.078  14.442
59666W        W21197   1.450  33.946   3.871
59667W        W21198  43.986  31.505   0.433
59668W        W21199   3.401   8.894   4.732
59669W        W21200  15.279  42.894   3.175
59670W        W21201  14.299  27.046  14.370
59671W        W21202  14.162   8.386  12.974
59672W        W21203  21.151   5.247  13.930
59673W        W21204   1.289  38.462   1.777
59674W        W21205   6.391  40.973   2.321
59675W        W21206  39.987  38.829  10.581
59676W        W21207  12.240  28.620  10.544
59677W        W21208   1.840  38.490   0.797
59678W        W21209   1.377  28.174  11.402
59679W        W21210  30.921  19.770   3.859
59680W        W21211  19.170  15.797   3.212
59681W        W21212  20.691  19.087  13.393
59682W        W21213  21.679  15.248  13.436
59683W        W21214  17.572  38.569  13.417
59684W        W21215  26.539   6.739   1.345
59685W        W21216  20.550   4.899  14.274
59686W        W21217  44.417  41.304  13.904
59687W        W21218  24.118   8.883  14.805
59688W        W21219   7.252  42.402   1.239
59689W        W21220  38.430   3.226   2.262
59690W        W21221  38.064  25.624  13.922
59691W        W21222  41.491   8.359   3.660
59692W        W21223   7.252   9.745  12.832
59693W        W21224  28.100  10.317  14.771
59694W        W21225  38.990  37.846   1.211
59695W        W21226  35.072  25.639   1.916
59696W        W21227   0.448  35.899  14.297
59697W        W21228  22.562  39.320  11.469
59698W        W21229  38.558  14.114  14.356
59699W        W21230  13.750  29.003  12.866
59700W        W21231  14.603  21.675  11.124
59701W        W21232  33.534  14.787   5.243
59702W        W21233  17.243   0.800  10.511
59703W        W21234  27.659  29.447   0.283
59704W        W21235   1.757  14.224  10.631
59705W        W21236  34.988  13.245  10.890
59706W        W21237   9.867  23.503   1.740
59707W        W21238  15.622  12.148  11.397
59708W        W21239  41.309   6.188  13.958
59709W        W21240   0.436   2.739   4.272
59710W        W21241   2.230  15.123  14.871
59711W        W21242   5.283   8.865   5.293
59712W        W21243  34.548  18.199  10.059
59713W        W21244  37.352   8.244  11.418
59714W        W21245  35.368  34.419   5.128
59715W        W21246  36.095  37.894  14.356
59716W        W21247  38.364   3.902  10.890
59717W        W21248  13.750  42.967  12.384
59718W        W21249  43.949  20.128  13.978
59719W        W21250  11.363  37.567  13.976
59720W        W21251  38.987   7.227   4.774
59721W        W21252  12.338  35.037  13.916
59722W        W21253  13.709  29.037   0.402
59723W        W21254  18.250   4.868  11.543
59724W        W21255  11.845   0.814   0.864
59725W        W21256  31.567  25.527  14.349
59726W        W21257  24.637  40.045  11.531
59727W        W21258   8.210  41.796  11.542
59728W        W21259  18.204  14.723   1.710
59729W        W21260  32.888   9.369   2.202
59730W        W21261  30.967  38.869   0.312
59731W        W21262  13.166  38.408   4.692
59732W        W21263  14.308   5.250  14.797
59733W        W21264   1.270  40.011   1.369
59734W        W21265   0.748   4.427   3.315
59735W        W21266   7.695  44.454   4.732
59736W        W21267  43.963  10.251  13.390
59737W        W21268  32.471  11.828   3.382
59738W        W21269  12.125  39.842   2.898
59739W        W21270  17.287  12.735  14.990
59740W        W21271  19.045  30.617  11.060
59741W        W21272  33.984  27.049  14.962
59742W        W21273  19.058   6.756   0.409
59743W        W21274  31.417  10.245   4.151
59744W        W21275  42.442  33.926   4.809
59745W        W21276  16.248  29.647   3.301
59746W        W21277  36.976  25.581  14.445
59747W        W21278  29.559  18.220   2.787
59748W        W21279  42.979  41.907   4.213
59749W        W21280  31.010  35.021  13.445
59750W        W21281  21.580  27.498   3.717
59751W        W21282  19.619  33.008  10.542
59752W        W21283   9.868  40.463   4.603
59753W        W21284  25.689  17.742  12.018
59754W        W21285  43.950  11.690   4.317
59755W        W21286   8.714  16.732  11.077
59756W        W21287  17.635   9.646  12.449
59757W        W21288  44.926  34.467  14.426
59758W        W21289   6.218  41.953  13.950
59759W        W21290  24.131  41.941   4.334
59760W        W21291  10.244  24.658   4.738
59761W        W21292  24.096  20.031  12.984
59762W        W21293  43.414  10.325   2.292
59763W        W21294  10.190   6.840  12.922
59764W        W21295  36.856   2.306   0.414
59765W        W21296  29.542  13.776   0.343
59766W        W21297  11.761  20.153  12.520
59767W        W21298   5.366  17.290   4.216
59768W        W21299  10.762  12.188   4.242
59769W        W21300  42.888   7.811   3.338
59770W        W21301   8.755  42.891  11.101
59771W        W21302  18.582  31.528  13.894
59772W        W21303   3.844  33.431   1.746
59773W        W21304  10.209  15.632  14.812
59774W        W21305  41.855   8.769  12.444
59775W        W21306   1.358  10.241  11.601
59776W        W21307  16.779  33.422   2.364
59777W        W21308  12.738  32.543  13.813
59778W        W21309  43.003  25.469   0.482
59779W        W21310   5.275  36.930   0.274
59780W        W21311  22.158  37.967  14.405
59781W        W21312   1.400  29.134  10.484
59782W        W21313  26.036  20.731  12.089
59783W        W21314   2.377  34.041  14.990
59784W        W21315  36.915  10.314  11.534
59785W        W21316  36.929  25.607  14.913
59786W        W21317  17.152  11.156  13.434
59787W        W21318  36.486  20.522  14.284
59788W        W21319  41.886   8.256  14.028
59789W        W21320  25.554  25.005   0.954
59790W        W21321  25.014   4.339   0.930
59791W        W21322  34.597  44.891   1.869
59792W        W21323   7.869  25.206  12.423
59793W        W21324  23.608   5.697  12.955
59794W        W21325  26.574  43.010   9.982
59795W        W21326  44.385   6.916  13.440
59796W        W21327  37.932  35.955   5.264
59797W        W21328  41.905  28.514   0.412
59798W        W21329  25.666   6.245   0.371
59799W        W21330  23.571  37.536  11.501
59800W        W21331  20.129  36.353  14.441
59801W        W21332  44.762  15.146   4.713
59802W        W21333  15.115   8.277  13.381
59803W        W21334  16.604   1.826  14.494
59804W        W21335  11.834  30.553   0.956
59805W        W21336  34.905  32.505   2.382
59806W        W21337  24.621  25.010   3.677
59807W        W21338  15.608  36.584  11.993
59808W        W21339  23.539  30.528  12.871
59809W        W21340  31.577  27.661   3.370
59810W        W21341  10.663  19.612  13.818
59811W        W21342  27.517  36.387  11.387
59812W        W21343  42.991   7.847   5.202
59813W        W21344  16.179  13.706   3.358
59814W        W21345   9.801  39.478   2.267
59815W        W21346  39.005  26.144  13.496
59816W        W21347  16.118  11.781  13.508
59817W        W21348   6.839  36.093   1.760
59818W        W21349  33.904  12.284   1.258
59819W        W21350  35.556  12.254   2.699
59820W        W21351  29.509  20.244  11.597
59821W        W21352   7.892  18.769  12.877
59822W        W21353   2.724  25.968  10.608
59823W        W21354  25.054  23.523  13.884
59824W        W21355  38.518  43.463  12.985
59825W        W21356  24.702   9.676  13.523
59826W        W21357  24.648  31.106   3.770
59827W        W21358  39.843  14.326  11.954
59828W        W21359   6.291   1.811  12.347
59829W        W21360  39.326   0.845   1.387
59830W        W21361  28.442  39.055   2.829
59831W        W21362  37.345  43.298   1.304
59832W        W21363  28.976  37.881  11.413
59833W        W21364  30.003  38.976  13.057
59834W        W21365  10.210  10.706   1.236
59835W        W21366  32.397  33.576   2.789
59836W        W21367  26.155   4.390  12.830
59837W        W21368  22.213   3.914  11.020
59838W        W21369  42.893  15.706   2.824
59839W        W21370  13.214  10.732   2.339
59840W        W21371  12.820  32.504  11.855
59841W        W21372   6.404  29.446  12.847
59842W        W21373   1.957  36.568  12.444
59843W        W21374  38.506  43.826   2.308
59844W        W21375  15.758  23.996  12.398
59845W        W21376   7.789  40.458   5.230
59846W        W21377  30.434  16.102   3.165
59847W        W21378  41.835  34.480   3.251
59848W        W21379  13.816  29.093   2.728
59849W        W21380  15.765  35.106  10.056
59850W        W21381   5.919  33.577  14.342
59851W        W21382   3.439   2.721  11.586
59852W        W21383  10.185  32.125   2.316
59853W        W21384  23.005  28.559  10.972
59854W        W21385  42.010  31.581   1.423
59855W        W21386  35.970  21.647  10.888
59856W        W21387  12.735  22.504   1.335
59857W        W21388   3.796  20.130   4.832
59858W        W21389   9.648  27.966  14.771
59859W        W21390  30.049   6.344  12.536
59860W        W21391  19.671  36.410   1.268
59861W        W21392  25.619  39.941   4.270
59862W        W21393  25.097  27.539  11.457
59863W        W21394   7.789  31.412   1.771
59864W        W21395  12.637  44.820  11.471
59865W        W21396  43.883  11.791   2.419
59866W        W21397   5.832   5.437   4.281
59867W        W21398  16.665  19.535  13.037
59868W        W21399  33.969   7.316  14.964
59869W        W21400  39.415  32.445  14.867
59870W        W21401  11.204  21.612   0.840
59871W        W21402  23.174  26.146   2.899
59872W        W21403  22.669  23.090   4.689
59873W        W21404  37.535   5.418   2.328
59874W        W21405  38.919  36.497   2.701
59875W        W21406   5.421  16.268  10.575
59876W        W21407  26.013   4.308   4.266
59877W        W21408  42.374  12.269  10.566
59878W        W21409  30.459  28.581   3.253
59879W        W21410  18.724  15.610   3.734
59880W        W21411  43.956  13.322   4.757
59881W        W21412  31.112   2.236   1.900
59882W        W21413  17.579  18.160   3.847
59883W        W21414  18.068  36.456  10.996
59884W        W21415  30.441  25.009  14.289
59885W        W21416  41.833  10.858  12.350
59886W        W21417  34.027  15.100  11.371
59887W        W21418  12.203  31.106   0.807
59888W        W21419   2.769  23.032   9.493
59889W        W21420  40.947  18.270   3.655
59890W        W21421  37.055  22.714  14.006
59891W        W21422   9.269  43.796  11.108
59892W        W21423  39.371   7.778   1.713
59893W        W21424  11.342   4.360  13.399
59894W        W21425   6.794   7.239   2.778
59895W        W21426  22.079  25.629   1.720
59896W        W21427   1.332  21.638   2.735
59897W        W21428  38.519  42.946   0.771
59898W        W21429  42.866  44.372   4.272
59899W        W21430  32.507  24.138   0.948
59900W        W21431  28.499  11.228   2.681
59901W        W21432  38.836  12.179   4.614
59902W        W21433  20.741   9.889   1.371
59903W        W21434   3.451   5.299   4.627
59904W        W21435   3.771  40.893   2.269
59905W        W21436  38.549  36.525  14.292
59906W        W21437  19.279  19.164   0.880
59907W        W21438  26.990  24.478  14.454
59908W        W21439  12.814  16.300   4.731
59909W        W21440   3.225  13.307   4.646
59910W        W21441  36.057  32.904   4.353
59911W        W21442  16.315  30.541  12.964
59912W        W21443   4.307  24.649   3.149
59913W        W21444  16.105  25.568  13.006
59914W        W21445  26.560  18.123   3.324
59915W        W21446  28.516   1.406  10.436
59916W        W21447  14.157  44.310   3.381
59917W        W21448   1.916   0.342   2.721
59918W        W21449  12.718  27.019  14.876
59919W        W21450  29.624   9.875   2.406
59920W        W21451  11.289  10.341  10.449
59921W        W21452  36.885  40.335  12.048
59922W        W21453  27.470  12.309   3.154
59923W        W21454  26.195  26.703  10.621
59924W        W21455  44.324   9.168   0.399
59925W        W21456  38.481  27.989  10.424
59926W        W21457  15.660  16.208  10.638
59927W        W21458  43.286  21.163   2.393
59928W        W21459  10.181   3.926  14.806
59929W        W21460   4.840  18.133  10.437
59930W        W21461   7.351   3.457  14.831
59931W        W21462  36.414  21.244  11.609
59932W        W21463  10.382   9.310   0.326
59933W        W21464  33.123  43.475  14.000
59934W        W21465  10.245  18.647   5.130
59935W        W21466  18.239   9.769   0.374
59936W        W21467  42.460  37.913   4.718
59937W        W21468  27.573  32.000   4.647
59938W        W21469   0.832  32.069   4.813
59939W        W21470  15.266  12.155   0.398
59940W        W21471  43.984  30.971   1.274
59941W        W21472   4.446  43.775   1.875
59942W        W21473  43.473  34.501  12.467
59943W        W21474  38.876  36.912  13.871
59944W        W21475  31.592  35.930  12.928
59945W        W21476  37.498  31.417   1.844
59946W        W21477  15.612  21.743  10.917
59947W        W21478  15.752  31.025  14.844
59948W        W21479  33.107  41.955  13.848
59949W        W21480  26.016  42.521   2.244
59950W        W21481  33.128  10.665   0.814
59951W        W21482  22.207   2.899   1.839
59952W        W21483  42.818  36.967  13.500
59953W        W21484  35.551  15.245  11.460
59954W        W21485   4.708  31.970   4.165
59955W        W21486   0.310  27.168  13.372
59956W        W21487  31.422   6.427   3.642
59957W        W21488  16.201  41.818  15.000
59958W        W21489  17.768  22.108  12.578
59959W        W21490  43.006   5.263   0.860
59960W        W21491  29.653  23.494   1.371
59961W        W21492  29.160  37.388  11.515
59962W        W21493  22.019   2.837   2.188
59963W        W21494   5.897  40.377  14.810
59964W        W21495  12.748  20.265  11.108
59965W        W21496  14.338  19.620  11.515
59966W        W21497  27.673  20.248  12.580
59967W        W21498  32.886   8.746   4.736
59968W        W21499  19.229   0.459  10.562
59969W        W21500   8.228   1.458   5.589
59970W        W21501  17.090  22.197   5.254
59971W        W21502  42.510  41.399  12.520
59972W        W21503  41.921  15.735  14.413
59973W        W21504  28.437  42.363  11.377
59974W        W21505  41.808  30.450   2.205
59975W        W21506   7.753   0.798   4.622
59976W        W21507  11.668  43.484  12.340
59977W        W21508  16.292  30.941  12.417
59978W        W21509  22.210   4.274  14.416
59979W        W21510  27.616  35.958  11.479
59980W        W21511  20.705  14.096   3.771
59981W        W21512   6.793  30.062  12.839
59982W        W21513   7.757  38.834  14.486
59983W        W21514  17.570  22.504   3.788
59984W        W21515   4.219  34.371   1.256
59985W        W21516   6.914  28.599   3.147
59986W        W21517  15.132   3.813   3.146
59987W        W21518  42.319  35.949  13.357
59988W        W21519   3.909   1.322  11.470
59989W        W21520   5.733  30.053  13.983
59990W        W21521  15.720  40.042  11.055
59991W        W21522  42.396   3.334   3.343
59992W        W21523  17.614  43.424   4.634
59993W        W21524   6.324  42.030  14.816
59994W        W21525  11.318   3.889  10.619
59995W        W21526  11.285   7.222   0.764
59996W        W21527  41.478  18.634  10.956
59997W        W21528  18.167  26.971  10.550
59998W        W21529  21.654   6.850   4.796
59999W        W21530  34.424  31.151  14.388
60000W        W21531  33.910  23.117   1.361
60001W        W21532   2.429   8.338  14.318
60002W        W21533  10.833   2.366   2.278
60003W        W21534  30.629  13.201  10.618
60004W        W21535   8.790   4.935  12.898
60005W        W21536  18.726  26.966   3.804
60006W        W21537  10.225  43.872  14.282
60007W        W21538   2.958   4.907  11.444
60008W        W21539   8.669  33.091   2.782
60009W        W21540  37.887   3.418  11.519
60010W        W21541  20.732  19.172  12.896
60011W        W21542  25.071  37.390  11.070
60012W        W21543  19.552  31.001   0.763
60013W        W21544  19.647  36.482   2.870
60014W        W21545  42.920  27.126   4.238
60015W        W21546  34.566   2.389  13.959
60016W        W21547  40.892  20.664   1.366
60017W        W21548  33.118   4.809  10.971
60018W        W21549   3.435  41.815   1.884
60019W        W21550  13.171   4.912   2.265
60020W        W21551  18.721  40.496  10.135
60021W        W21552  25.649  19.605   2.667
60022W        W21553  10.794  10.170  12.570
60023W        W21554  43.977  12.740  11.991
60024W        W21555  11.200  16.247   4.829
60025W        W21556  30.993  25.090  13.475
60026W        W21557  41.303  16.278  11.060
60027W        W21558  18.679  27.124   1.278
60028W        W21559   8.249  19.587   3.352
60029W        W21560  26.046  11.850   0.249
60030W        W21561  44.003  13.261  14.455
60031W        W21562  36.453  13.319   0.851
60032W        W21563  23.683  39.968   2.308
60033W        W21564  34.041  25.619  11.953
60034W        W21565  31.018  37.492   1.412
60035W        W21566   6.885  19.087  12.852
60036W        W21567  32.447  37.979   4.793
60037W        W21568   9.352  44.474   0.802
60038W        W21569  23.650   7.731   3.304
60039W        W21570   1.430  31.489  12.974
60040W        W21571   7.702  14.201   5.310
60041W        W21572  17.267  39.528   4.222
60042W        W21573   1.966   0.488  12.017
60043W        W21574  37.514   7.261   4.684
60044W        W21575  30.909  10.788  12.996
60045W        W21576   0.286  18.108  13.326
60046W        W21577  10.172  11.854  14.362
60047W        W21578   7.708   8.887   0.449
60048W        W21579  11.275   4.324   1.427
60049W        W21580  29.149   6.804   0.352
60050W        W21581  12.305  37.560  11.911
60051W        W21582  35.363  39.516   5.587
60052W        W21583   4.268  21.665  13.987
60053W        W21584  19.684  25.018   2.665
60054W        W21585  18.051  41.474  12.481
60055W        W21586   3.353  13.610   0.925
60056W        W21587  42.944  31.930   1.802
60057W        W21588  35.570  30.132  13.543
60058W        W21589  44.888  20.754  11.421
60059W        W21590   8.195  38.873  11.899
60060W        W21591   0.799  10.313   0.473
60061W        W21592  14.816  20.069  10.990
60062W        W21593  13.784  36.924  11.498
60063W        W21594  39.039  29.146   1.256
60064W        W21595  32.068  32.526   1.824
60065W        W21596  35.953  17.660  11.108
60066W        W21597  27.019  31.101   4.754
60067W        W21598  15.724  41.879  13.432
60068W        W21599  42.501  24.039  10.501
60069W        W21600  28.449  20.250  13.895
60070W        W21601  24.642  36.988   3.661
60071W        W21602  44.972  30.572   3.296
60072W        W21603  43.019   7.749  10.515
60073W        W21604  40.896  10.797  12.442
60074W        W21605  37.472   8.706  10.624
60075W        W21606   9.343  29.071  12.872
60076W        W21607  37.058  40.849  12.969
60077W        W21608  29.517  15.762   2.715
60078W        W21609  35.887   4.396   3.158
60079W        W21610   0.266  32.007   0.728
60080W        W21611  41.997  40.321  13.913
60081W        W21612  41.852   4.445   0.399
60082W        W21613  43.935  26.110  11.078
60083W        W21614  39.376  11.851   4.672
60084W        W21615  11.192  22.048  13.023
60085W        W21616  13.648  30.083  10.417
60086W        W21617   0.421  20.649  14.026
60087W        W21618  29.428  24.520  12.397
60088W        W21619  13.296  25.638   4.284
60089W        W21620  15.179   4.332   3.836
60090W        W21621   7.770  24.684  14.394
60091W        W21622  36.904   9.372  14.004
60092W        W21623  35.426   1.455  11.961
60093W        W21624  36.953  43.785   2.683
60094W        W21625  27.971   5.827   3.303
60095W        W21626  41.417  17.714   3.170
60096W        W21627  41.385  29.041   2.806
60097W        W21628  15.677  39.961   2.189
60098W        W21629  21.120   2.856  12.830
60099W        W21630   4.754  29.921   2.895
60100W        W21631  24.576  27.526   4.721
60101W        W21632  36.968  43.318  12.039
60102W        W21633  16.115  25.574  12.045
60103W        W21634  32.138  43.986   1.444
60104W        W21635  22.050  32.906   0.269
60105W        W21636  23.019  11.691   2.890
60106W        W21637  26.540   9.307   2.405
60107W        W21638  32.622  14.644  14.428
60108W        W21639  38.820   7.839  13.995
60109W        W21640  31.562   5.891   3.699
60110W        W21641  13.841  20.258  11.572
60111W        W21642  39.935  10.712   1.725
60112W        W21643   4.741  28.149   0.943
60113W        W21644  36.054  18.698  10.410
60114W        W21645  29.929  23.011   1.291
60115W        W21646   8.291  12.314   3.760
60116W        W21647  27.516  16.688  14.813
60117W        W21648  42.898  43.444  12.962
60118W        W21649  12.217  42.346  14.995
60119W        W21650  16.167  23.052  13.487
60120W        W21651   8.665  21.590   0.327
60121W        W21652   5.912  10.286  13.961
60122W        W21653  28.079  44.461   1.819
60123W        W21654  17.075  34.045  10.936
60124W        W21655  10.200  21.200  12.380
60125W        W21656  35.407  32.479   1.849
60126W        W21657   1.955   1.421   0.341
60127W        W21658  11.716  27.462   3.828
60128W        W21659  12.335  21.640  11.960
60129W        W21660  17.722  42.016   4.684
60130W        W21661  11.642  20.614  11.491
60131W        W21662  31.544   4.730   1.846
60132W        W21663  16.301  11.271  12.456
60133W        W21664  15.102  44.858   0.830
60134W        W21665  39.897  11.852   1.427
60135W        W21666  36.411  19.653   4.794
60136W        W21667  40.546  32.964   3.364
60137W        W21668   0.421  37.559  11.575
60138W        W21669  32.395  20.066   2.863
60139W        W21670  14.307  27.128  10.499
60140W        W21671  32.557  33.416  10.028
60141W        W21672  44.429  25.964  13.535
60142W        W21673  15.259  12.807   4.776
60143W        W21674   9.809  31.924   2.360
60144W        W21675   5.206  14.634  11.485
60145W        W21676  23.120  13.742   3.711
60146W        W21677  26.061  31.095   3.749
60147W        W21678  25.995  44.396   4.340
60148W        W21679  42.820   7.702  13.825
60149W        W21680   5.905  26.613  13.802
60150W        W21681  32.087   8.397   0.962
60151W        W21682   4.922  28.025  12.946
60152W        W21683  42.507  26.497   2.366
60153W        W21684   9.198   5.868  11.958
60154W        W21685  18.782   2.313   3.868
60155W        W21686  27.131  33.389   5.288
60156W        W21687  38.331  19.638  13.881
60157W        W21688  38.365  21.531   0.820
60158W        W21689  14.711  44.481  11.018
60159W        W21690  29.479  40.359   1.731
60160W        W21691  17.166   0.836   2.833
60161W        W21692  26.160   7.258  10.604
60162W        W21693  13.702  22.241  14.880
60163W        W21694  25.547  21.102  14.899
60164W        W21695  11.182   6.918  14.866
60165W        W21696  24.134  30.951   0.770
60166W        W21697  28.568  41.514   3.705
60167W        W21698  41.368  12.762   0.887
60168W        W21699  40.544  35.910  11.972
60169W        W21700  41.832  43.356   0.804
60170W        W21701  29.980  39.866  13.544
60171W        W21702  31.898   9.738  14.369
60172W        W21703   0.897  22.607   0.434
60173W        W21704  15.683  39.036   3.284
60174W        W21705  44.273  14.185   1.383
60175W        W21706   8.673  23.131   3.752
60176W        W21707  41.886  37.017  10.907
60177W        W21708  22.196  42.397  13.908
60178W        W21709  35.958  16.220  13.816
60179W        W21710  34.547  34.583   2.270
60180W        W21711  24.097   2.299   2.866
60181W        W21712   7.299  30.587   1.438
60182W        W21713  21.240  35.602   1.366
60183W        W21714  39.947  22.541  13.385
60184W        W21715  38.559  15.320   4.798
60185W        W21716  38.468  39.358  10.103
60186W        W21717   2.941  41.800   4.753
60187W        W21718   9.184  31.567  14.279
60188W        W21719  33.610  14.829   1.776
60189W        W21720  23.035  16.171   2.796
60190W        W21721  42.961  13.166  12.369
60191W        W21722  36.930  44.330  13.440
60192W        W21723  15.253  27.190   0.324
60193W        W21724   1.960  39.902  11.115
60194W        W21725  29.162  40.816   1.793
60195W        W21726   1.936  31.897  13.409
60196W        W21727  26.620  28.591   1.892
60197W        W21728  41.821   1.869   4.162
60198W        W21729  37.388  36.024  14.832
60199W        W21730   5.203   6.398   3.644
60200W        W21731   9.737  32.528   2.773
60201W        W21732   1.420  12.276   2.821
60202W        W21733  43.803  11.713  13.857
60203W        W21734  27.582  10.335  10.979
60204W        W21735  32.060   9.750  11.514
60205W        W21736  23.993  12.166   0.343
60206W        W21737  20.648  23.557   0.449
60207W        W21738  23.509  14.796   3.206
60208W        W21739  13.155  30.978   2.896
60209W        W21740  24.011  19.625   3.756
60210W        W21741   8.891  12.700  11.064
60211W        W21742  16.252  30.572  14.340
60212W        W21743   9.833  22.189   0.317
60213W        W21744  17.631  34.984   0.965
60214W        W21745  25.584  33.543  13.353
60215W        W21746  21.752   9.202  13.470
60216W        W21747  21.693  22.517   0.815
60217W        W21748  16.705   4.887   3.236
60218W        W21749   0.480  13.146   1.320
60219W        W21750  20.129  44.944   2.757
60220W        W21751  27.189  42.300   2.846
60221W        W21752  29.124  22.583  13.476
60222W        W21753  21.598   2.837  12.486
60223W        W21754  11.685  34.373  12.560
60224W        W21755  43.823  12.225  12.512
60225W        W21756   3.845  36.385   0.343
60226W        W21757  29.432   5.330   4.166
60227W        W21758  22.186  38.955  12.442
60228W        W21759  37.043  16.240  13.477
60229W        W21760  30.559   7.344  12.963
60230W        W21761  34.551  42.494  13.960
60231W        W21762  13.815  33.446  12.884
60232W        W21763   8.718  40.361   0.292
60233W        W21764   2.369  31.576  12.831
60234W        W21765  19.579  28.487   0.837
60235W        W21766   6.856   2.417   4.163
60236W        W21767   2.380  22.230  14.446
60237W        W21768  23.994   1.433   3.272
60238W        W21769  24.035  36.011  14.325
60239W        W21770  36.862  33.519   0.881
60240W        W21771  11.771   7.820  14.016
60241W        W21772  15.751  20.638  11.511
60242W        W21773  13.126  22.189   0.479
60243W        W21774  41.407  34.511  14.917
60244W        W21775   8.313  20.690   0.359
60245W        W21776  13.760  42.475  11.063
60246W        W21777  42.842  13.666   0.903
60247W        W21778  26.113  17.169  11.411
60248W        W21779  17.208  35.896   1.308
60249W        W21780   8.364  44.329   4.703
60250W        W21781  11.177   4.215   4.200
60251W        W21782  29.143   7.687   4.128
60252W        W21783  13.318  14.613  13.889
60253W        W21784   9.787  10.298  11.064
60254W        W21785  35.877  28.438  13.329
60255W        W21786   4.293  44.902  14.926
60256W        W21787  16.659  33.548   3.722
60257W        W21788  42.383   7.187  13.417
60258W        W21789  31.136   8.330   2.674
60259W        W21790  33.898   5.870   2.902
60260W        W21791  20.236  35.495   2.290
60261W        W21792  27.625  30.447   1.803
60262W        W21793  31.096  21.594   1.367
60263W        W21794   1.978   4.287  14.005
60264W        W21795  42.458  31.090   1.306
60265W        W21796  19.073   9.297  13.966
60266W        W21797  10.862   9.157   0.934
60267W        W21798  20.060  32.394   2.739
60268W        W21799  43.270  37.416  12.565
60269W        W21800  14.695  15.288   2.408
60270W        W21801   7.361  26.513  11.111
60271W        W21802  39.369  12.284   4.641
60272W        W21803  22.658  28.123  10.974
60273W        W21804  34.878  32.550  13.825
60274W        W21805  37.834  22.047  12.983
60275W        W21806  18.213  41.795   0.436
60276W        W21807  41.337  30.100  13.524
60277W        W21808   1.860   2.299   3.845
60278W        W21809  30.603  22.720   1.335
60279W        W21810  20.626  19.780  13.439
60280W        W21811  28.152  35.516  11.967
60281W        W21812   9.837  19.205   0.814
60282W        W21813   9.795  23.566  13.980
60283W        W21814  40.005  30.909  12.904
60284W        W21815  42.461  39.358   2.309
60285W        W21816  29.947  23.506   0.265
60286W        W21817   5.433  11.790   0.428
60287W        W21818  10.374  38.530   0.416
60288W        W21819  24.602   2.450   3.866
60289W        W21820  32.978  20.042  12.872
60290W        W21821  14.783  17.763  12.515
60291W        W21822  31.516  20.562  10.452
60292W        W21823  37.856  16.226  10.643
60293W        W21824  39.015  21.122   5.247
60294W        W21825  39.888  23.658  10.951
60295W        W21826   2.769  12.153   1.290
60296W        W21827  34.881  19.221  11.528
60297W        W21828   7.678  36.911   4.283
60298W        W21829   9.363  33.477  11.409
60299W        W21830  16.567  26.079   4.317
60300W        W21831  43.850   5.834  13.904
60301W        W21832   3.738  11.206  12.962
60302W        W21833  14.237  35.411   0.277
60303W        W21834  31.451  26.542  14.487
60304W        W21835  29.148  19.041  11.608
60305W        W21836  42.979  44.341  11.460
60306W        W21837   0.754   8.812  14.343
60307W        W21838  33.978  39.459   1.731
60308W        W21839   6.764  32.981  12.447
60309W        W21840  44.921  40.814  11.887
60310W        W21841  40.339  11.680  11.384
60311W        W21842  43.811  23.191   1.785
60312W        W21843  17.275  32.901  10.435
60313W        W21844  43.368  27.620  12.567
60314W        W21845  36.534   3.892  12.076
60315W        W21846   6.259   2.314  12.388
60316W        W21847   5.333  14.201   4.752
60317W        W21848  30.524   8.661  13.887
60318W        W21849  42.362   1.387   4.632
60319W        W21850  37.872  14.751   4.198
60320W        W21851  40.005   5.896   2.198
60321W        W21852  39.849  29.581  13.017
60322W        W21853  34.088  40.023   1.346
60323W        W21854  24.674  37.885  12.465
60324W        W21855  19.253   5.381   3.338
60325W        W21856   4.736  23.202  14.834
60326W        W21857  20.178  20.523  11.550
60327W        W21858  36.496  15.626  14.809
60328W        W21859  38.874  20.538   1.250
60329W        W21860  39.367  25.611   1.363
60330W        W21861  21.238  35.904  13.868
60331W        W21862  20.705  22.094   4.351
60332W        W21863  19.165  18.196  10.956
60333W        W21864  42.999   6.428   4.221
60334W        W21865   3.414  13.611  11.866
60335W        W21866  28.043  36.537  11.569
60336W        W21867   0.789  43.963   2.369
60337W        W21868  21.573  19.584   5.320
60338W        W21869  34.106  32.624  11.979
60339W        W21870  35.392  25.650  14.288
60340W        W21871  30.018  36.407  10.587
60341W        W21872  25.696  44.318  14.310
60342W        W21873  21.700  19.620   0.889
60343W        W21874  39.913  10.341   1.351
60344W        W21875  44.432  42.420  10.940
60345W        W21876   7.302  31.423   2.716
60346W        W21877  11.169  14.122  14.778
60347W        W21878  41.796  32.004  12.986
60348W        W21879  17.610  17.066   4.780
60349W        W21880  34.569   5.231   2.192
60350W        W21881  41.021  20.105   2.754
60351W        W21882  15.751  21.701  12.416
60352W        W21883  32.457  42.973   4.736
60353W        W21884   9.808  26.973  12.480
60354W        W21885  22.026  37.400  10.406
60355W        W21886  19.552  17.723  14.812
60356W        W21887  12.826  31.118   3.349
60357W        W21888  17.709  26.053   2.813
60358W        W21889  21.682  30.961  12.547
60359W        W21890   3.868  44.984  14.336
60360W        W21891  27.038  34.875  14.997
60361W        W21892  40.912  24.223  10.917
60362W        W21893  39.035  23.191   1.899
60363W        W21894  25.070  38.947  12.837
60364W        W21895  22.525   2.269  12.529
60365W        W21896  14.687  19.754  12.075
60366W        W21897  30.013   1.440  14.997
60367W        W21898  44.872  18.636  14.028
60368W        W21899  19.204  31.526   3.328
60369W        W21900   7.410  15.195   2.772
60370W        W21901   6.804   8.279  11.890
60371W        W21902  36.523  43.421  13.998
60372W        W21903  33.439  44.334   3.341
60373W        W21904  38.353  14.213  10.597
60374W        W21905  20.587  22.111   1.442
60375W        W21906   6.768   2.781  14.008
60376W        W21907   3.903  16.263   3.778
60377W        W21908  19.178  15.687  12.094
60378W        W21909  17.597  40.463  14.026
60379W        W21910  23.155  18.289   2.816
60380W        W21911  36.022  17.105   2.369
60381W        W21912   2.857  38.566  11.554
60382W        W21913   6.300  13.119   4.777
60383W        W21914  10.139  23.145   0.298
60384W        W21915  15.616  43.810  11.035
60385W        W21916   0.445  21.240  11.455
60386W        W21917  17.692  38.964  14.829
60387W        W21918  32.051  26.201  14.327
60388W        W21919  19.146   8.890  13.007
60389W        W21920  42.842  30.471   2.276
60390W        W21921  38.000  36.890  13.462
60391W        W21922  21.200   0.944   2.725
60392W        W21923  36.036  27.576   4.194
60393W        W21924   7.818   7.698   3.154
60394W        W21925   9.247  40.540   2.257
60395W        W21926  25.665  15.751  13.372
60396W        W21927  37.920  22.142  13.396
60397W        W21928  14.648  41.406  13.918
60398W        W21929  16.085   0.445   3.221
60399W        W21930   8.169  21.101  11.524
60400W        W21931  13.140  19.049  14.913
60401W        W21932   1.952  24.192  11.972
60402W        W21933   3.360   9.795  11.605
60403W        W21934  25.153   0.915   5.179
60404W        W21935  32.936   9.320   1.312
60405W        W21936  16.164   7.177  12.562
60406W        W21937   0.981  33.402   0.797
60407W        W21938  26.034  19.621  12.408
60408W        W21939  36.843  17.197   9.657
60409W        W21940  31.950   6.732  10.545
60410W        W21941  33.597   2.236  13.500
60411W        W21942  37.520  35.584   2.882
60412W        W21943  17.268  23.664  14.943
60413W        W21944  44.933  42.024  12.542
60414W        W21945   5.764  42.296  13.532
60415W        W21946  11.684  26.566  10.061
60416W        W21947  28.050  17.293  13.512
60417W        W21948  27.089  38.863   0.729
60418W        W21949   4.903  27.160   0.472
60419W        W21950  38.950  31.620   4.790
60420W        W21951  42.395   5.266   0.930
60421W        W21952  24.217  37.566  12.956
60422W        W21953  10.148  16.750  14.509
60423W        W21954   9.877  14.222   1.807
60424W        W21955  17.655  23.089   1.276
60425W        W21956  40.050  42.919  13.926
60426W        W21957   5.218  20.736   0.380
60427W        W21958   4.265   1.732  11.861
60428W        W21959   8.868  17.131   3.839
60429W        W21960   2.847  29.951   2.813
60430W        W21961  31.610  18.118  14.795
60431W        W21962  23.663  12.346  10.439
60432W        W21963  37.538  29.619  14.433
60433W        W21964  14.164  21.707   1.297
60434W        W21965   8.343  10.776   3.749
60435W        W21966  13.785  23.584   1.769
60436W        W21967  31.062  29.083  11.907
60437W        W21968   7.234   9.381  13.470
60438W        W21969  30.456  10.359   4.225
60439W        W21970  40.517  15.757   2.797
60440W        W21971  10.171  44.762  11.050
60441W        W21972  27.597   7.825  12.382
60442W        W21973  43.020  19.602  11.962
60443W        W21974   6.726  18.551  10.536
60444W        W21975  21.736  17.580  10.462
60445W        W21976   3.936   2.860   4.216
60446W        W21977   2.726  33.102  11.070
60447W        W21978  43.498  38.072   0.343
60448W        W21979   4.328  34.067   4.623
60449W        W21980  29.659  26.666  13.957
60450W        W21981  28.552  19.130   2.730
60451W        W21982  27.556  29.972   3.655
60452W        W21983   1.430  37.997  14.475
60453W        W21984   9.741  41.505   3.318
60454W        W21985  13.216  44.372   4.649
60455W        W21986  38.397  39.510   0.387
60456W        W21987  42.416  14.288  13.353
60457W        W21988  24.089  16.668   4.639
60458W        W21989  23.524  23.677  12.361
60459W        W21990  15.671   2.445   3.667
60460W        W21991   1.293   1.271  11.976
60461W        W21992   3.331  13.753  13.930
60462W        W21993  40.909  33.499  11.415
60463W        W21994  36.851  29.143  10.589
60464W        W21995  41.825  22.674   2.307
60465W        W21996   1.380  37.447   1.706
60466W        W21997   4.814  44.766   3.855
60467W        W21998  12.286   3.852  12.919
60468W        W21999  40.525  11.240   3.239
60469W        W22000  16.590  42.335  13.525
60470W        W22001  38.892  28.009   1.300
60471W        W22002   4.376  32.021   3.749
60472W        W22003  39.422   9.188  14.505
60473W        W22004  35.500  11.239  11.876
60474W        W22005   0.402  16.789  12.079
60475W        W22006  27.517  26.564   2.687
60476W        W22007  13.201   4.758   1.217
60477W        W22008   8.836  20.735   4.759
60478W        W22009  24.144   3.279   2.834
60479W        W22010  13.720  28.475   9.664
60480W        W22011   0.410  21.186   2.851
60481W        W22012  36.944  15.171  11.948
60482W        W22013  27.032  18.277   2.185
60483W        W22014  19.628  27.665  11.576
60484W        W22015  19.144  43.417   2.671
60485W        W22016  32.552   4.920  13.478
60486W        W22017  17.794   4.823  10.919
60487W        W22018  32.130  22.532  11.420
60488W        W22019  12.326  39.043  12.416
60489W        W22020  34.114  11.749   4.794
60490W        W22021  30.090   8.183   2.786
60491W        W22022  21.032  15.784  10.017
60492W        W22023   7.832  40.398  10.989
60493W        W22024  35.931  39.860   2.375
60494W        W22025  18.710  40.505  10.469
60495W        W22026  41.857  35.941  14.955
60496W        W22027  21.086  12.187  14.478
60497W        W22028  25.638  18.155  14.015
60498W        W22029  41.804   3.721  14.907
60499W        W22030  30.947  13.177   2.352
60500W        W22031  18.169  18.621  10.905
60501W        W22032  12.322  41.321   1.381
60502W        W22033  43.359  27.684   2.899
60503W        W22034  29.554  18.289   3.289
60504W        W22035  24.085  22.512   0.466
60505W        W22036  14.693   0.765   1.374
60506W        W22037  29.531  44.496  12.078
60507W        W22038   5.775  32.572   1.698
60508W        W22039  36.031  42.909  11.409
60509W        W22040  25.199   2.729  10.484
60510W        W22041   0.900  31.099   3.738
60511W        W22042   8.390  10.242  14.413
60512W        W22043  18.568  37.408  14.343
60513W        W22044  19.081  24.706   4.162
60514W        W22045  29.519  16.162  11.884
60515W        W22046  42.827  26.171   0.461
60516W        W22047  23.703  29.584  13.445
60517W        W22048  15.642  44.776  14.301
60518W        W22049  16.749  27.194   3.381
60519W        W22050  17.798   4.284   4.189
60520W        W22051  27.616  29.919   1.359
60521W        W22052  23.598  19.633  13.473
60522W        W22053   9.251  35.901  13.042
60523W        W22054  38.545   1.368  13.536
60524W        W22055  44.995  32.895   4.664
60525W        W22056  28.508  26.461   4.176
60526W        W22057  36.905  41.799   4.296
60527W        W22058  21.254  26.478  10.406
60528W        W22059  32.405  41.484   3.260
60529W        W22060  19.568  36.013   2.888
60530W        W22061  33.547  13.650  11.052
60531W        W22062  15.656   8.254  13.328
60532W        W22063   6.895  30.462  14.442
60533W        W22064   0.823  20.719   1.760
60534W        W22065  18.225  20.192  11.579
60535W        W22066  38.359   3.836   0.927
60536W        W22067  12.681  18.671  12.945
60537W        W22068   1.807   8.827  14.866
60538W        W22069  20.684  12.696   2.229
60539W        W22070   8.196  17.245  14.435
60540W        W22071  26.100  26.519   0.965
60541W        W22072  30.576   0.941   0.824
60542W        W22073  33.951   3.711  10.451
60543W        W22074  28.027  43.465   3.273
60544W        W22075  24.650  12.333   3.772
60545W        W22076   0.356   2.386  11.477
60546W        W22077  15.789  25.973  12.878
60547W        W22078  27.056  26.534   3.841
60548W        W22079  14.210   7.348  13.451
60549W        W22080   7.721  43.356  10.486
60550W        W22081   3.866  12.850  13.454
60551W        W22082  34.884  39.384  10.919
60552W        W22083   2.348  33.437   3.827
60553W        W22084  17.120  11.656   4.648
60554W        W22085  40.811  28.994   0.850
60555W        W22086   6.399   7.185  11.094
60556W        W22087  27.669  35.554  11.925
60557W        W22088  36.963  30.540   3.298
60558W        W22089  15.305   5.353   4.747
60559W        W22090   5.758   0.874   2.780
60560W        W22091  33.976  24.543  12.356
60561W        W22092  26.668  10.240   4.246
60562W        W22093   8.747  19.587  13.909
60563W        W22094  41.931  44.955   4.790
60564W        W22095  15.322  25.171   3.852
60565W        W22096  31.624  12.758  12.399
60566W        W22097  39.050  33.594   4.294
60567W        W22098  12.338   0.914   2.894
60568W        W22099  14.275  42.376   1.222
60569W        W22100  11.332   2.821  13.421
60570W        W22101  41.882  15.676   3.361
60571W        W22102   8.350   3.715  13.526
60572W        W22103  31.005   5.285   4.701
60573W        W22104  14.719  31.119   3.194
60574W        W22105  10.215  15.218   4.205
60575W        W22106  28.117   8.888  13.359
60576W        W22107   1.479   5.910   3.805
60577W        W22108  43.284  36.373  13.972
60578W        W22109  11.650  16.625   1.324
60579W        W22110  26.524  19.106   0.314
60580W        W22111  38.560   2.358  10.556
60581W        W22112  10.659  30.545  14.393
60582W        W22113   3.341  38.994   3.366
60583W        W22114  29.149   8.682   3.848
60584W        W22115  13.297   0.842  12.987
60585W        W22116  36.069  32.101  10.609
60586W        W22117  23.070  42.831   2.805
60587W        W22118  22.559  42.826  12.901
60588W        W22119  33.611  31.017  13.351
60589W        W22120  42.776  36.401  10.524
60590W        W22121   7.289  10.163   4.657
60591W        W22122  39.552  12.163  11.094
60592W        W22123  19.566  38.339   2.696
60593W        W22124  28.119  28.134  10.583
60594W        W22125  12.701  42.460  12.057
60595W        W22126  15.298  15.614   1.399
60596W        W22127  20.044  18.101   3.260
60597W        W22128  19.649  12.827  14.800
60598W        W22129  18.296  33.121  14.855
60599W        W22130  14.269  38.899  13.508
60600W        W22131   5.799  34.611  12.455
60601W        W22132  22.114  34.422   2.842
60602W        W22133  36.519  44.917  12.519
60603W        W22134   8.275  38.396  11.037
60604W        W22135  26.586  33.596  14.027
60605W        W22136  15.716   6.728   2.713
60606W        W22137  22.155  12.279  12.340
60607W        W22138  18.639   6.339   4.788
60608W        W22139  19.575  10.837   0.909
60609W        W22140   2.792  19.248   1.251
60610W        W22141   4.232  36.555  11.051
60611W        W22142   3.784  19.078  12.997
60612W        W22143   3.889  32.561   1.703
60613W        W22144  29.523  15.678   1.229
60614W        W22145  31.069  42.964   4.749
60615W        W22146  44.273  20.575  10.980
60616W        W22147  33.510   4.725  13.387
60617W        W22148   8.751  37.051   0.461
60618W        W22149   0.347  34.083  14.762
60619W        W22150  17.253  33.397  13.493
60620W        W22151  18.776  21.053  10.616
60621W        W22152  36.938  26.102   0.762
60622W        W22153  31.580   6.882  13.898
60623W        W22154   6.740   6.882   1.223
60624W        W22155  15.752  27.631  10.059
60625W        W22156   0.356  24.149   9.640
60626W        W22157  26.996  39.501  10.472
60627W        W22158   3.913  25.514   0.424
60628W        W22159  22.653  30.001   3.645
60629W        W22160  13.350  43.962  11.956
60630W        W22161  17.751  28.128  12.887
60631W        W22162  15.800  27.122  14.325
60632W        W22163   2.873   4.381   2.693
60633W        W22164  24.180  32.968   2.779
60634W        W22165  28.974  18.640  13.913
60635W        W22166   8.885  22.621   2.229
60636W        W22167  38.952   6.316  13.398
60637W        W22168  43.980  38.422   3.215
60638W        W22169  21.546  42.880  10.626
60639W        W22170  18.195   4.828   2.712
60640W        W22171  18.780   1.471   3.233
60641W        W22172   0.468   9.846  10.489
60642W        W22173  36.429  31.039  11.404
60643W        W22174  38.950  22.073  11.379
60644W        W22175  42.979  34.467  10.531
60645W        W22176  30.110  39.812  14.288
60646W        W22177   3.771  37.468   1.786
60647W        W22178  38.414   1.901  11.390
60648W        W22179  11.808   8.304   0.261
60649W        W22180  39.844  39.424  14.429
60650W        W22181   0.339  32.998   3.203
60651W        W22182   2.259   7.299   4.232
60652W        W22183  44.392   5.702  12.913
60653W        W22184  16.584  43.943   2.387
60654W        W22185  25.084  29.670  11.520
60655W        W22186  30.929   3.749   3.792
60656W        W22187  41.448  18.280   1.893
60657W        W22188   0.782  41.300   0.386
60658W        W22189  28.103  33.933  14.804
60659W        W22190   8.722   2.811  12.911
60660W        W22191  39.345  44.262  12.891
60661W        W22192  36.366  26.065  11.009
60662W        W22193  21.184   4.780   2.415
60663W        W22194  16.599  12.251   1.761
60664W        W22195  16.681   3.921   3.340
60665W        W22196  30.129  32.107   0.729
60666W        W22197  25.184  12.348   3.225
60667W        W22198  12.320  40.356  14.003
60668W        W22199  18.705  40.004   1.281
60669W        W22200  22.131  10.729  13.336
60670W        W22201   9.849  41.327   4.289
60671W        W22202  40.926  33.593   3.208
60672W        W22203  33.972  20.082  14.344
60673W        W22204   6.248  17.605  10.954
60674W        W22205   4.760  44.792   2.209
60675W        W22206  42.523  38.384   2.861
60676W        W22207  13.215  14.685   0.304
60677W        W22208  44.454  40.477  12.063
60678W        W22209  40.049  44.259   2.336
60679W        W22210  34.073   1.369  10.911
60680W        W22211   2.436   9.177   0.269
60681W        W22212  37.337  39.956   2.750
60682W        W22213  24.604  16.661   4.607
60683W        W22214  26.045  27.028   3.709
60684W        W22215  30.635  13.278   1.934
60685W        W22216  21.700  21.159  11.066
60686W        W22217   8.669  19.572  11.962
60687W        W22218  35.959   6.199  14.448
60688W        W22219   7.746  26.980   3.771
60689W        W22220   5.781   4.354  13.901
60690W        W22221   4.795  33.457   1.251
60691W        W22222  36.036  26.472  14.816
60692W        W22223  33.485  28.931  12.377
60693W        W22224  14.136  19.554   2.835
60694W        W22225  14.309  42.800  13.373
60695W        W22226   5.398  18.231  12.546
60696W        W22227  12.206  32.637   3.368
60697W        W22228  41.854  31.560  14.336
60698W        W22229  35.958  14.663   0.840
60699W        W22230  19.234  39.977   5.160
60700W        W22231  19.084  39.535  12.435
60701W        W22232   3.788  28.599   0.890
60702W        W22233  33.392  27.946  11.373
60703W        W22234  38.457  20.127   1.924
60704W        W22235  34.057  29.961   0.918
60705W        W22236  43.929  29.639  13.475
60706W        W22237  39.355  35.592   3.869
60707W        W22238  38.923   5.267  12.906
60708W        W22239  40.858  18.573  11.078
60709W        W22240  25.118  11.242  10.440
60710W        W22241  39.546  26.063   3.702
60711W        W22242  12.221  17.692   0.264
60712W        W22243  20.237  44.308  11.395
60713W        W22244  25.124  42.906  14.792
60714W        W22245  35.501  32.916  13.840
60715W        W22246  14.133  10.671  13.322
60716W        W22247  26.116  29.980   0.901
60717W        W22248  39.554  20.223  13.534
60718W        W22249  28.065  41.505  11.559
60719W        W22250  32.946  12.682  10.570
60720W        W22251  13.830   0.406  14.879
60721W        W22252  24.129  40.931   3.218
60722W        W22253  26.996  11.671   9.926
60723W        W22254  26.989  13.134   0.846
60724W        W22255  28.003   1.455  12.014
60725W        W22256  23.066  21.227  14.800
60726W        W22257   3.829  33.403   5.128
60727W        W22258  36.914  41.957   3.740
60728W        W22259   7.252  44.927  10.989
60729W        W22260  25.063  34.434   3.710
60730W        W22261  18.193  34.949  11.558
60731W        W22262  44.261   0.393   4.343
60732W        W22263  28.632  33.900  11.074
60733W        W22264  44.443   6.862  14.879
60734W        W22265  32.024  25.071  11.577
60735W        W22266   3.389  21.108  11.467
60736W        W22267  20.625   6.281  10.933
60737W        W22268  43.400  42.840  11.012
60738W        W22269  15.087  17.287   3.310
60739W        W22270  25.651   6.264  10.160
60740W        W22271  16.083   3.409   5.256
60741W        W22272   5.814   0.958   3.851
60742W        W22273  29.148  16.633   0.259
60743W        W22274   3.288  42.004   3.343
60744W        W22275   0.883   4.791  10.080
60745W        W22276  10.222  44.776   1.224
60746W        W22277  16.682  16.295   1.287
60747W        W22278  20.716   3.782  14.877
60748W        W22279  30.440  37.906   3.261
60749W        W22280  10.775  43.383   4.680
60750W        W22281   3.882  40.808  10.610
60751W        W22282   8.693  28.550  10.508
60752W        W22283   2.259  31.050   0.867
60753W        W22284  15.707   8.672   3.368
60754W        W22285  33.877   3.348   2.722
60755W        W22286  42.929  26.664  14.898
60756W        W22287  14.308  39.854  11.048
60757W        W22288  31.091  36.472   4.227
60758W        W22289  29.051  30.570   4.271
60759W        W22290  10.763  20.690  14.000
60760W        W22291   9.772  43.371  14.450
60761W        W22292  25.489   4.938  13.013
60762W        W22293  11.353  22.248   0.348
60763W        W22294  15.160   7.355  10.960
60764W        W22295  40.801  26.459  13.840
60765W        W22296  34.535  21.513   0.258
60766W        W22297   0.311  12.321   2.850
60767W        W22298   0.975   7.676   0.918
60768W        W22299  12.813  12.647  13.342
60769W        W22300  35.015  40.388  13.903
60770W        W22301  42.990  18.227  11.102
60771W        W22302  38.470  25.608   2.391
60772W        W22303  37.957  23.209  14.278
60773W        W22304  11.802  25.132   2.814
60774W        W22305  10.382  27.655  13.424
60775W        W22306  42.473   6.690   4.665
60776W        W22307  21.748   5.721   4.252
60777W        W22308   7.782  32.562  10.907
60778W        W22309   6.902   0.846  13.977
60779W        W22310  20.620   1.240   4.127
60780W        W22311  29.977  33.587  11.986
60781W        W22312  16.762  19.101  14.301
60782W        W22313  27.460  40.476   2.724
60783W        W22314  20.555  40.815  11.454
60784W        W22315  33.922   5.339  11.435
60785W        W22316  32.579  23.156  11.908
60786W        W22317  19.101  35.511  12.859
60787W        W22318   0.260  34.891   3.357
60788W        W22319   7.374  25.011   0.440
60789W        W22320  15.766   4.889  12.860
60790W        W22321  38.846  22.065  12.997
60791W        W22322   6.335  39.352   2.858
60792W        W22323  35.480  30.077   3.794
60793W        W22324  27.684  15.745   2.201
60794W        W22325  27.551  27.679   0.467
60795W        W22326  11.702  28.972   0.374
60796W        W22327  43.398  10.734  10.939
60797W        W22328   2.372  17.798  11.559
60798W        W22329  27.462  41.334  10.565
60799W        W22330  23.066   9.360   3.181
60800W        W22331   2.767  24.168   0.263
60801W        W22332  19.141  28.546  11.966
60802W        W22333  18.663   7.896  14.791
60803W        W22334  34.948  15.640   3.755
60804W        W22335  44.892  12.790   1.790
60805W        W22336  36.972  28.659   0.353
60806W        W22337  14.778   1.752   2.897
60807W        W22338  33.956  38.820   1.442
60808W        W22339  24.482   3.876   2.355
60809W        W22340   6.682  18.693  12.062
60810W        W22341   9.692  33.874   3.242
60811W        W22342   6.346  28.512  11.611
60812W        W22343  36.098  15.676   3.850
60813W        W22344   2.842  24.117   0.761
60814W        W22345  18.171  37.400  10.413
60815W        W22346  42.847  20.541   4.711
60816W        W22347  42.420  34.937  14.898
60817W        W22348   7.735   9.825  10.474
60818W        W22349  40.896  28.487   2.799
60819W        W22350  37.387  21.696  11.577
60820W        W22351  33.545  20.100   4.248
60821W        W22352  18.790  21.135   5.156
60822W        W22353  39.038  37.912  13.351
60823W        W22354  13.825  33.968   0.782
60824W        W22355  28.939  43.488  12.533
60825W        W22356  42.005  12.852   2.256
60826W        W22357  17.610  39.864  14.433
60827W        W22358  29.593  28.009   4.156
60828W        W22359  28.603  34.918   2.348
60829W        W22360  20.636  11.821  12.501
60830W        W22361  40.542   6.725  10.450
60831W        W22362  37.860  13.689  14.304
60832W        W22363  42.402  23.649   1.886
60833W        W22364  41.927  11.637  14.767
60834W        W22365  30.105  35.998   2.188
60835W        W22366  43.817  16.604  13.867
60836W        W22367   7.678  24.161  11.971
60837W        W22368   5.404   1.304  14.911
60838W        W22369  34.504   3.739   0.372
60839W        W22370  16.140  31.917  11.012
60840W        W22371  27.455  44.977  13.507
60841W        W22372  25.652  36.870   4.134
60842W        W22373   7.249  16.220  14.969
60843W        W22374  16.216  21.578   4.203
60844W        W22375   7.779  27.075  14.472
60845W        W22376  14.827  43.964   1.407
60846W        W22377  11.241  26.995   4.727
60847W        W22378  39.924  11.711  11.901
60848W        W22379   3.421  38.492   4.665
60849W        W22380  15.762  30.078   3.340
60850W        W22381  42.503   0.846  12.919
60851W        W22382  35.008  42.799   4.794
60852W        W22383  40.447  39.353   0.794
60853W        W22384   3.437  27.577  13.500
60854W        W22385  43.767  18.628  12.534
60855W        W22386  40.964  28.458  12.377
60856W        W22387   2.830  22.086  11.879
60857W        W22388  33.124   6.743  11.041
60858W        W22389   2.317  27.510  13.372
60859W        W22390   4.888   3.255   4.342
60860W        W22391  31.017  28.933  11.109
60861W        W22392  28.500   4.806  11.537
60862W        W22393  34.443   0.888   2.343
60863W        W22394   2.839  32.110   4.614
60864W        W22395  37.559  41.984  12.568
60865W        W22396  41.367   0.260  12.456
60866W        W22397  18.060  44.322   3.278
60867W        W22398  41.877   5.820  10.436
60868W        W22399  19.685   8.235  12.540
60869W        W22400  27.632  37.528  13.045
60870W        W22401  17.255  39.492   1.444
60871W        W22402   7.179  19.586   2.878
60872W        W22403  27.570  44.349  13.409
60873W        W22404  21.226   3.352  11.033
60874W        W22405  25.587  39.360   4.756
60875W        W22406  28.473  30.655  14.388
60876W        W22407  36.402  13.602   2.287
60877W        W22408   1.266   1.831   0.805
60878W        W22409  43.835   3.253   1.274
60879W        W22410  43.344  34.553  13.312
60880W        W22411  33.992  13.263  11.422
60881W        W22412  18.114  25.162   3.230
60882W        W22413  38.076  31.591  11.415
60883W        W22414  43.394   2.863   0.315
60884W        W22415  14.264  33.428  11.600
60885W        W22416  40.884  15.591   4.144
60886W        W22417  27.537  34.530  12.959
60887W        W22418  37.518  12.808  12.406
60888W        W22419  31.543  19.636   0.921
60889W        W22420  29.174   3.388   4.209
60890W        W22421   6.723  30.956   4.729
60891W        W22422  13.184  41.342  13.454
60892W        W22423  11.734  27.941  10.061
60893W        W22424  22.079  18.681   2.728
60894W        W22425  33.886  34.022  13.912
60895W        W22426  35.462  17.704  13.798
60896W        W22427  42.814  23.095  10.417
60897W        W22428  44.979   9.282  14.285
60898W        W22429  17.744   5.349   0.815
60899W        W22430  34.466   2.783  11.568
60900W        W22431  28.023  36.842   0.857
60901W        W22432  36.517   4.706  10.937
60902W        W22433   6.725  19.237  13.411
60903W        W22434  10.673  23.060  14.818
60904W        W22435  23.699  13.668  10.633
60905W        W22436  22.663  14.705   0.283
60906W        W22437  33.476  35.539  10.568
60907W        W22438  37.383  30.637   3.707
60908W        W22439  13.229  36.451   0.922
60909W        W22440  36.592  20.728  11.957
60910W        W22441  17.736   4.428   0.743
60911W        W22442   6.813  37.900  11.509
60912W        W22443  24.041  10.241  10.586
60913W        W22444  44.472  13.316   1.427
60914W        W22445  25.576  20.127  11.951
60915W        W22446   2.318  25.156   3.753
60916W        W22447   9.721  10.338  14.935
60917W        W22448  20.138  19.253  12.036
60918W        W22449  24.058  14.641  11.917
60919W        W22450  35.039  10.216  14.899
60920W        W22451  42.296  32.436   3.374
60921W        W22452   2.242  42.473  13.480
60922W        W22453  21.542  28.493   1.226
60923W        W22454  22.553   7.822  11.394
60924W        W22455  17.167  26.057   0.463
60925W        W22456   3.222  18.143   0.929
60926W        W22457  14.284  36.412  11.544
60927W        W22458  15.803  34.977  13.833
60928W        W22459  10.681   4.736   1.733
60929W        W22460  34.552  11.792  14.000
60930W        W22461   1.822  42.936  11.102
60931W        W22462  12.166  40.525  14.959
60932W        W22463  25.973   0.456  12.057
60933W        W22464  20.556   3.931  12.344
60934W        W22465  14.269  21.698   3.777
60935W        W22466  11.155  18.634  14.928
60936W        W22467   2.346  23.162  14.026
60937W        W22468   5.694   4.783   2.814
60938W        W22469  26.575  13.314  13.890
60939W        W22470  11.307  38.392  12.481
60940W        W22471  37.459  21.176   4.289
60941W        W22472   1.746  33.103  11.491
60942W        W22473   7.188  11.855  10.593
60943W        W22474  37.510  34.093  12.395
60944W        W22475  25.694  39.994   1.892
60945W        W22476  38.536  17.162   4.294
60946W        W22477  43.984  26.068  12.371
60947W        W22478  15.168   5.725  11.396
60948W        W22479   6.241  14.144   3.839
60949W        W22480  21.066  14.825  13.795
60950W        W22481   2.416  19.739   0.729
60951W        W22482  21.639   6.191  10.421
60952W        W22483  13.799   0.395   1.392
60953W        W22484   1.935  43.846   3.665
60954W        W22485  12.340  13.120  10.622
60955W        W22486  18.239  41.419   1.435
60956W        W22487  25.120  17.141   2.745
60957W        W22488  14.187  36.381  12.394
60958W        W22489  42.499  41.386  11.873
60959W        W22490  19.264  29.599  13.444
60960W        W22491  44.284  44.857   4.756
60961W        W22492  36.484   6.396   0.731
60962W        W22493  34.565   2.888   1.421
60963W        W22494   9.765  24.489  10.922
60964W        W22495  22.719   8.796  11.579
60965W        W22496   1.469  44.945   4.660
60966W        W22497   8.899   7.309   4.170
60967W        W22498   6.333  15.105   2.711
60968W        W22499   2.833   2.379  14.012
60969W        W22500  20.586   2.742  13.513
60970W        W22501  32.607  14.266   2.807
60971W        W22502  43.363  34.528  13.855
60972W        W22503   7.400  35.473   1.856
60973W        W22504  19.593  44.807  11.465
60974W        W22505  27.158  24.013   1.706
60975W        W22506  23.728   2.391  12.415
60976W        W22507  28.504  22.070   3.720
60977W        W22508   8.761  43.940  13.007
60978W        W22509  24.211  39.465  13.440
60979W        W22510  13.815   6.886  12.885
60980W        W22511  40.425   5.354   2.767
60981W        W22512   4.353  33.599  13.993
60982W        W22513  29.472  19.615  14.848
60983W        W22514  16.155  16.739   3.754
60984W        W22515   5.891  12.222  11.022
60985W        W22516  10.330  33.095  11.505
60986W        W22517   6.199  29.451  11.061
60987W        W22518  10.651  40.858  13.474
60988W        W22519  20.730  32.886  12.445
60989W        W22520  34.516   1.360  13.021
60990W        W22521  25.669  24.524  13.418
60991W        W22522   1.831   0.388  14.916
60992W        W22523  24.627  21.238   2.879
60993W        W22524   2.723   3.407  13.817
60994W        W22525  24.190  10.325  12.462
60995W        W22526  44.782  28.139   1.275
60996W        W22527  16.807   7.274  13.324
60997W        W22528  20.699  41.425   0.750
60998W        W22529  27.528   2.902   4.681
60999W        W22530  42.512  37.382  14.445
61000W        W22531   4.302  13.119  13.998
61001W        W22532   3.216  29.432  10.890
61002W        W22533  16.609   0.312   3.729
61003W        W22534  40.042  24.690  10.448
61004W        W22535  41.383  17.699   2.853
61005W        W22536  36.924  32.990   1.413
61006W        W22537  43.293  35.439   2.182
61007W        W22538   9.211  43.834   3.335
61008W        W22539  33.954   7.171  12.477
61009W        W22540  36.050  34.909  14.840
61010W        W22541  26.998  28.477  12.976
61011W        W22542   4.287  31.006  11.978
61012W        W22543  11.712  10.209  10.945
61013W        W22544  36.428  12.194   1.387
61014W        W22545  37.513  13.141  14.847
61015W        W22546  11.240  24.230  14.331
61016W        W22547  28.602  28.488  10.502
61017W        W22548  14.277  27.031   3.176
61018W        W22549  21.067  15.801   1.741
61019W        W22550  39.960  28.447   1.399
61020W        W22551  19.235  23.642   5.104
61021W        W22552   5.405  37.413   3.750
61022W        W22553  26.607  26.952  11.486
61023W        W22554   5.871  24.612  12.044
61024W        W22555   9.161  10.718  14.984
61025W        W22556   4.274  20.145  10.901
61026W        W22557   4.204  25.013  12.006
61027W        W22558  30.432  25.697   0.419
61028W        W22559  22.205  22.527  13.977
61029W        W22560  19.640  31.925   0.401
61030W        W22561  28.481  13.812  13.015
61031W        W22562  25.558   0.360  12.082
61032W        W22563  43.876  33.979  12.061
61033W        W22564  16.767  16.108  13.922
61034W        W22565  26.203  18.659   3.317
61035W        W22566  18.593  31.472  11.435
61036W        W22567  12.793  42.286  14.279
61037W        W22568  32.025  24.033   3.373
61038W        W22569  13.697  31.599  13.886
61039W        W22570  43.372  16.700  11.476
61040W        W22571  14.306   0.917  12.096
61041W        W22572  36.571  12.668   1.740
61042W        W22573   9.884  41.334   0.315
61043W        W22574  34.557  10.141  14.380
61044W        W22575  25.075  34.113  12.421
61045W        W22576  10.329   2.318   2.884
61046W        W22577  29.456  10.344  14.870
61047W        W22578  35.378   2.796  12.484
61048W        W22579  22.561  43.445   0.843
61049W        W22580  18.703  27.950   0.888
61050W        W22581  23.618  42.888   4.304
61051W        W22582  42.955   3.455  10.516
61052W        W22583  26.135  26.150  12.830
61053W        W22584  14.601  32.491  12.552
61054W        W22585  41.972  27.120  14.796
61055W        W22586  44.911  32.125  13.912
61056W        W22587   0.395  10.171  10.972
61057W        W22588   5.783  34.561  11.546
61058W        W22589  28.990  30.427  13.464
61059W        W22590  37.848  21.173   3.700
61060W        W22591  26.959  40.395  11.474
61061W        W22592  21.230  10.216   1.385
61062W        W22593   4.385   7.398   0.834
61063W        W22594   8.708   5.436   2.803
61064W        W22595  26.115   2.879  12.539
61065W        W22596  43.884  34.378  11.528
61066W        W22597  29.173  16.789   1.930
61067W        W22598  19.743  32.590  12.530
61068W        W22599  11.728  19.536  12.397
61069W        W22600  44.772  40.323   4.622
61070W        W22601  19.722  34.950  13.429
61071W        W22602  20.198  30.566  14.945
61072W        W22603  14.096  20.723  14.386
61073W        W22604   0.364  29.045  11.880
61074W        W22605  20.658  37.065   9.993
61075W        W22606  24.123  38.948   1.372
61076W        W22607  35.439  14.248  14.896
61077W        W22608  38.431  41.465   1.213
61078W        W22609   6.922  25.144   3.730
61079W        W22610   7.850  14.214  10.521
61080W        W22611   9.360   7.324  13.030
61081W        W22612  33.014   6.353  10.610
61082W        W22613   3.781  33.500   2.203
61083W        W22614  25.051  13.640   1.239
61084W        W22615  31.506  20.118  14.907
61085W        W22616  26.016  22.578  12.368
61086W        W22617  22.518   0.877   1.239
61087W        W22618  27.188  26.523  14.944
61088W        W22619  26.974   7.193  13.988
61089W        W22620  29.952  10.826  13.348
61090W        W22621  38.406   3.853  12.967
61091W        W22622   8.874  39.440  14.383
61092W        W22623  23.511   1.821   1.839
61093W        W22624  21.227  40.021  10.136
61094W        W22625  26.003  38.426  14.380
61095W        W22626  29.454  29.971   4.657
61096W        W22627  41.880  33.072  10.894
61097W        W22628  42.829  25.705   1.327
61098W        W22629  31.901  35.099   2.209
61099W        W22630  44.356  18.614   5.210
61100W        W22631  44.958   1.375  13.406
61101W        W22632   7.823  10.313  11.407
61102W        W22633  14.326  21.658   3.242
61103W        W22634   6.742   5.388   1.748
61104W        W22635   8.797  10.723  11.468
61105W        W22636  29.472  10.751  13.811
61106W        W22637  38.822  24.094  11.420
61107W        W22638   3.893  18.288  13.503
61108W        W22639   1.337  37.881  11.511
61109W        W22640   2.350   8.817   1.754
61110W        W22641   2.313  33.525  14.934
61111W        W22642  11.701   6.685  14.804
61112W        W22643  11.715   7.742   3.811
61113W        W22644  37.472  14.329   0.415
61114W        W22645   3.232  34.938  12.486
61115W        W22646  35.102  34.411  14.368
61116W        W22647  40.341  38.972   2.782
61117W        W22648  23.697  39.833   0.481
61118W        W22649  31.436  20.666  13.532
61119W        W22650  13.125  30.653   1.851
61120W        W22651   4.707  38.540   4.226
61121W        W22652  15.240  24.561  11.103
61122W        W22653  42.489  39.018  10.973
61123W        W22654  13.677   9.746  13.813
61124W        W22655  20.252   3.301  10.903
61125W        W22656   0.791   7.899  13.455
61126W        W22657  24.193  12.752   3.696
61127W        W22658   2.355  32.628  12.040
61128W        W22659  19.282  37.001   2.806
61129W        W22660  37.502  33.448   1.835
61130W        W22661  21.234  34.380   0.958
61131W        W22662  35.024  22.100  10.582
61132W        W22663  36.053   9.824   1.704
61133W        W22664  35.951   4.883  14.415
61134W        W22665   3.947  18.690  12.835
61135W        W22666  11.140  15.609  11.123
61136W        W22667  39.440  13.212   2.687
61137W        W22668  42.480   3.249  11.507
61138W        W22669  10.749  29.627   3.704
61139W        W22670  38.548  23.650  14.933
61140W        W22671   6.368   0.423   2.663
61141W        W22672   5.299  17.780   1.336
61142W        W22673  18.612  18.155   2.205
61143W        W22674  42.484  16.277   2.317
61144W        W22675  43.986  15.689   4.789
61145W        W22676   0.838  34.077  13.991
61146W        W22677   5.749  30.632   3.360
61147W        W22678  18.184  12.131  11.411
61148W        W22679  38.556  29.942   1.848
61149W        W22680   3.783   2.233   0.244
61150W        W22681   9.200  38.334  10.630
61151W        W22682  28.100  19.759   3.174
61152W        W22683  42.357  13.775   3.775
61153W        W22684  27.983   4.308   2.399
61154W        W22685  29.538  42.922   1.380
61155W        W22686  44.954  20.171   0.310
61156W        W22687  18.248  43.014   2.663
61157W        W22688  33.534  42.285   3.706
61158W        W22689  22.243   3.266   0.904
61159W        W22690  23.191  19.694   4.733
61160W        W22691  21.106  20.208   2.284
61161W        W22692  10.343  43.345   2.872
61162W        W22693  36.846  27.450   2.306
61163W        W22694   2.274  16.581  11.439
61164W        W22695  34.108  29.029  12.891
61165W        W22696  42.810  38.041   4.784
61166W        W22697  18.720  26.018   3.823
61167W        W22698  44.381  23.594   4.153
61168W        W22699  24.994  38.937   4.233
61169W        W22700  31.645  14.612  14.308
61170W        W22701  39.495   2.286  14.469
61171W        W22702  17.662  15.092   2.749
61172W        W22703  30.995  17.152  13.063
61173W        W22704  22.107  25.642  14.821
61174W        W22705  36.874  30.541  14.441
61175W        W22706   7.698  11.732  11.446
61176W        W22707  32.911  38.344   0.748
61177W        W22708  19.100  19.217   2.356
61178W        W22709  21.517  26.080   2.806
61179W        W22710  38.437   1.945   2.791
61180W        W22711  19.131  23.139   4.247
61181W        W22712   2.782  28.582  12.854
61182W        W22713  14.099  38.420   2.282
61183W        W22714  23.652   2.922  13.886
61184W        W22715  12.720  41.965   3.260
61185W        W22716  11.848  37.536  11.499
61186W        W22717  21.217  11.861  13.825
61187W        W22718  33.524  14.809  14.763
61188W        W22719  41.995  15.211  12.826
61189W        W22720  13.620  38.971  14.926
61190W        W22721  44.905   1.876   3.337
61191W        W22722   0.386  22.023   3.647
61192W        W22723   1.380  39.882   4.176
61193W        W22724  35.911  29.919  11.866
61194W        W22725  32.548   5.735  14.814
61195W        W22726  13.322  25.605   2.378
61196W        W22727   8.241  19.662   5.263
61197W        W22728   3.390  30.026  11.448
61198W        W22729  12.127  15.767   1.787
61199W        W22730   9.647  35.370   2.180
61200W        W22731  32.012   4.432  13.447
61201W        W22732   3.854  39.011   0.744
61202W        W22733  28.448  30.412  13.026
61203W        W22734  37.899   8.888   0.863
61204W        W22735   6.354  44.951   3.729
61205W        W22736  17.236  26.027   1.238
61206W        W22737  28.543  41.921  11.392
61207W        W22738  13.253  25.034  12.010
61208W        W22739  41.394  15.796   1.314
61209W        W22740  13.310  41.524   5.214
61210W        W22741  43.356  39.403  14.990
61211W        W22742  30.413  31.988  12.408
61212W        W22743  44.460  21.219   1.355
61213W        W22744  22.647  28.439  10.453
61214W        W22745  42.485  34.475   1.294
61215W        W22746  14.770  33.498   0.908
61216W        W22747   5.252  11.713   1.323
61217W        W22748   2.421  11.145  11.981
61218W        W22749  42.959  14.138  10.079
61219W        W22750  26.996  12.790  11.404
61220W        W22751   0.273  42.407   1.299
61221W        W22752  41.829  22.697  10.527
61222W        W22753  39.437  38.393   4.805
61223W        W22754  27.670   3.294   1.420
61224W        W22755   4.920   9.715   1.892
61225W        W22756   5.907  32.394  11.074
61226W        W22757  32.006  42.986   4.225
61227W        W22758  41.812  23.121  11.031
61228W        W22759  19.646  10.749  11.900
61229W        W22760  42.951  29.090  12.485
61230W        W22761  23.158  43.468  12.080
61231W        W22762   0.889  12.335  13.845
61232W        W22763  25.512  38.440   3.316
61233W        W22764  13.328  37.400   0.427
61234W        W22765  30.980  28.134  10.988
61235W        W22766  34.432  16.190  14.963
61236W        W22767  19.566  11.144   0.304
61237W        W22768   7.694  15.679  10.511
61238W        W22769  22.163  13.792   2.832
61239W        W22770  32.567  22.176   4.613
61240W        W22771  23.578  38.896   0.938
61241W        W22772  24.526  17.138   3.246
61242W        W22773  16.149  24.616   1.921
61243W        W22774  18.711  41.323   0.957
61244W        W22775  29.541  34.934   4.677
61245W        W22776  41.481   1.935  14.974
61246W        W22777  12.770  37.347   0.368
61247W        W22778  15.720   2.918   0.809
61248W        W22779  39.893  17.185   3.762
61249W        W22780  13.231   5.723  10.598
61250W        W22781  22.165  27.683  11.562
61251W        W22782   0.265  18.582   4.730
61252W        W22783   8.260  27.453  11.860
61253W        W22784   7.884  36.912   3.274
61254W        W22785  40.422  25.211   4.777
61255W        W22786   7.408  34.099  13.944
61256W        W22787  17.163   6.264  14.885
61257W        W22788  32.437  19.245  11.942
61258W        W22789   9.211  40.964  11.388
61259W        W22790   6.901   4.359   1.220
61260W        W22791  34.032  29.004  10.451
61261W        W22792  30.938  30.451   4.351
61262W        W22793  42.987  20.581   2.218
61263W        W22794  15.776  34.522  13.465
61264W        W22795  20.090  25.116  11.892
61265W        W22796  20.259  37.426   0.457
61266W        W22797  24.064  38.475   5.323
61267W        W22798  41.951  29.019  10.080
61268W        W22799  39.470  24.723  13.821
61269W        W22800  18.688  29.931   1.902
61270W        W22801  41.338  43.424   1.275
61271W        W22802  13.599  36.959   3.153
61272W        W22803  26.146   2.256  13.875
61273W        W22804  29.979  17.178   3.362
61274W        W22805  30.562  44.929   0.428
61275W        W22806   4.732   6.194  12.424
61276W        W22807   3.935   7.397  12.349
61277W        W22808  36.951  12.124  14.828
61278W        W22809   5.358  40.467  12.428
61279W        W22810  37.915  22.555   0.888
61280W        W22811  19.053  37.456  10.496
61281W        W22812  40.474   0.832  10.438
61282W        W22813  26.634  16.808   2.211
61283W        W22814  24.058  31.077   0.347
61284W        W22815  13.758   4.242   2.835
61285W        W22816  39.954  42.305  13.504
61286W        W22817   1.767  16.317   4.301
61287W        W22818  41.409   2.229  10.920
61288W        W22819   2.930  36.012   2.416
61289W        W22820  28.106  34.535   2.192
61290W        W22821  19.611   9.870  11.399
61291W        W22822   3.225  14.825   0.942
61292W        W22823  17.579  31.557   2.253
61293W        W22824  25.990  30.651  14.819
61294W        W22825  43.905   2.317   4.809
61295W        W22826  10.731  15.111   1.809
61296W        W22827  14.305  36.036   2.377
61297W        W22828   9.754  26.980   2.707
61298W        W22829  25.145  37.397   3.293
61299W        W22830  24.600  28.006   0.268
61300W        W22831  24.176   1.442  12.567
61301W        W22832   0.810  41.936  13.994
61302W        W22833  21.670  39.938   5.308
61303W        W22834  39.882   0.265  13.051
61304W        W22835  44.795   9.774  10.967
61305W        W22836  21.202  43.010   3.375
61306W        W22837  28.112  40.394   1.322
61307W        W22838   0.254  37.362  10.888
61308W        W22839   2.340  37.385   2.699
61309W        W22840  26.625  17.701  13.413
61310W        W22841  22.742  27.639  14.768
61311W        W22842  33.932  13.177   1.332
61312W        W22843  11.232   3.892   3.727
61313W        W22844  39.529  23.522  12.544
61314W        W22845  24.678  30.518   0.779
61315W        W22846  42.809  40.425   1.365
61316W        W22847  42.829  27.155  14.278
61317W        W22848  37.472  12.220  12.077
61318W        W22849  41.965  35.009   2.683
61319W        W22850   6.284   9.387   1.847
61320W        W22851   1.258   7.792   3.242
61321W        W22852  12.313  31.076  11.470
61322W        W22853  20.208   4.918  10.995
61323W        W22854  21.708  31.614  13.028
61324W        W22855  19.128  13.117   1.217
61325W        W22856  16.176   9.379  10.982
61326W        W22857  38.454  41.857  11.993
61327W        W22858   8.288  19.245   2.822
61328W        W22859  35.011   2.823   1.388
61329W        W22860  33.431  31.467  12.509
61330W        W22861  22.737  26.998   1.438
61331W        W22862   9.161  14.763  11.527
61332W        W22863  31.012  18.646   3.716
61333W        W22864  33.973  25.189   3.321
61334W        W22865   4.360   4.442   3.313
61335W        W22866  33.497   3.451  11.875
61336W        W22867  42.462  11.292   3.238
61337W        W22868  22.517  11.256   4.695
61338W        W22869  26.183  10.869  12.580
61339W        W22870  43.805  44.870   1.731
61340W        W22871  10.190  25.624  14.017
61341W        W22872  38.868  20.530  13.843
61342W        W22873  39.032  28.148   3.312
61343W        W22874  24.496  32.014  10.159
61344W        W22875   6.375  17.737   2.184
61345W        W22876  19.086  11.225   4.266
61346W        W22877   3.770  43.903   2.200
61347W        W22878   9.255  35.856   1.923
61348W        W22879   8.796  27.120   0.751
61349W        W22880  19.191  34.087  10.571
61350W        W22881  17.736  43.994  10.889
61351W        W22882  43.980  30.948  12.402
61352W        W22883   4.766  18.551   4.707
61353W        W22884  11.715  43.818   4.708
61354W        W22885   9.825  28.052  12.933
61355W        W22886  32.007  10.819  13.970
61356W        W22887  33.961  38.861   2.784
61357W        W22888  13.286   7.373  14.277
61358W        W22889  42.929  35.944  10.923
61359W        W22890  22.657  25.020   0.916
61360W        W22891  26.580  15.208  10.889
61361W        W22892  38.820   6.721   3.843
61362W        W22893  26.968  37.533   4.830
61363W        W22894  10.302  38.967   3.725
61364W        W22895  15.289   7.251   0.255
61365W        W22896  34.530  18.645  13.451
61366W        W22897  40.535  22.056  11.061
61367W        W22898  11.775   2.881   1.724
61368W        W22899   3.776  12.754  14.910
61369W        W22900  23.735   3.304   0.926
61370W        W22901  41.938   0.396   0.355
61371W        W22902   5.274  20.077   3.769
61372W        W22903  12.301  20.131   4.694
61373W        W22904  41.943  19.104  13.371
61374W        W22905   6.860  22.620   3.861
61375W        W22906  26.977  18.551  10.476
61376W        W22907  19.640  25.109  11.920
61377W        W22908  31.579  37.870   4.160
61378W        W22909  35.385   7.744   4.758
61379W        W22910  25.531  38.403  13.412
61380W        W22911   3.405  20.214   4.644
61381W        W22912  16.706  15.718   4.136
61382W        W22913  37.942  33.529   3.862
61383W        W22914  16.163  21.047   1.284
61384W        W22915  31.631  43.012  12.942
61385W        W22916  30.057  30.538   1.353
61386W        W22917  25.056   7.841   1.710
61387W        W22918  17.081  17.240   4.650
61388W        W22919   9.349  36.395   0.347
61389W        W22920   8.679  14.244   3.711
61390W        W22921  28.169  44.882   3.302
61391W        W22922  12.226  12.259   1.316
61392W        W22923  42.389   2.938   3.804
61393W        W22924   0.870  28.497  11.959
61394W        W22925   2.435  20.069  14.030
61395W        W22926  17.619  16.258   0.739
61396W        W22927  11.370   0.313  14.452
61397W        W22928  30.959  42.929  11.058
61398W        W22929  18.237  38.077  10.060
61399W        W22930   0.434  32.616  11.423
61400W        W22931  26.033  27.058  12.985
61401W        W22932  20.580  38.035   2.816
61402W        W22933  13.704  10.193   0.370
61403W        W22934  27.535  24.186   4.798
61404W        W22935   7.850  42.390  11.371
61405W        W22936  23.501  43.428   4.270
61406W        W22937  36.375  38.974  12.552
61407W        W22938  17.135  23.005  12.504
61408W        W22939  26.486  22.629   3.154
61409W        W22940   1.478  17.171  14.353
61410W        W22941  20.543  18.239  14.378
61411W        W22942  41.830  15.766   4.300
61412W        W22943  41.812  26.460  12.483
61413W        W22944  18.636  18.597  14.782
61414W        W22945  12.221  22.147  10.523
61415W        W22946  33.572   7.732  12.852
61416W        W22947  24.515  36.982   0.813
61417W        W22948  37.904  19.280  11.001
61418W        W22949  41.018  16.170  11.077
61419W        W22950  23.094  30.526   3.150
61420W        W22951  14.227  44.776  11.086
61421W        W22952  28.582  30.471   5.170
61422W        W22953  25.154  37.898   1.927
61423W        W22954   3.423   5.924  12.380
61424W        W22955  44.479   4.343  10.460
61425W        W22956  12.124  33.594  12.040
61426W        W22957  17.580   6.700  11.943
61427W        W22958  39.476  15.741   2.299
61428W        W22959  25.635  41.019  13.527
61429W        W22960  18.603  25.511  14.024
61430W        W22961  25.165  43.778   1.302
61431W        W22962  43.865  28.022  10.610
61432W        W22963  44.308  19.191   2.181
61433W        W22964  18.696  28.047   2.208
61434W        W22965   2.821  12.755  13.330
61435W        W22966  23.087   3.275  14.957
61436W        W22967  30.942  14.120   1.407
61437W        W22968  36.064  22.008   4.253
61438W        W22969  25.989  13.732   1.258
61439W        W22970  35.000   2.836   0.880
61440W        W22971  23.574  44.340   3.749
61441W        W22972   6.242   8.888   0.774
61442W        W22973  34.580  19.146   2.811
61443W        W22974  38.865  25.021   1.259
61444W        W22975  32.108  15.178   3.231
61445W        W22976  39.904  12.708  14.895
61446W        W22977  10.843   0.427  14.303
61447W        W22978  25.645  20.731   0.920
61448W        W22979  19.218  35.557   4.269
61449W        W22980  43.346  19.744   1.902
61450W        W22981  36.436  42.513  14.896
61451W        W22982  24.657  26.697   3.703
61452W        W22983  16.081   7.246   1.711
61453W        W22984   4.287  27.680   3.731
61454W        W22985  34.462  13.129   4.140
61455W        W22986  18.553  39.836   5.244
61456W        W22987   2.841   9.341  12.452
61457W        W22988  39.838  26.067  12.052
61458W        W22989   4.440  24.200   0.739
61459W        W22990   9.329   7.291  11.116
61460W        W22991  10.817   5.362  11.060
61461W        W22992  13.839  38.979   1.775
61462W        W22993  34.877   0.289   2.867
61463W        W22994  37.549   0.840   0.844
61464W        W22995  35.944   1.929  12.977
61465W        W22996   0.927  43.966  14.374
61466W        W22997   9.682  15.719  11.995
61467W        W22998  19.655  22.140  14.388
61468W        W22999  30.006   9.682   3.227
61469W        W23000  28.016  10.849   3.194
61470W        W23001  23.116  40.394   4.667
61471W        W23002  33.997  31.441  14.327
61472W        W23003   5.840  16.747   2.807
61473W        W23004  31.061   2.392  14.294
61474W        W23005  40.829   0.440  11.124
61475W        W23006  27.481  44.815   2.708
61476W        W23007  14.173  17.628   1.269
61477W        W23008  37.899  17.655  12.899
61478W        W23009   0.786  35.523  14.292
61479W        W23010  11.854   0.934  14.274
61480W        W23011   1.244   3.746  14.880
61481W        W23012  40.888   0.823  10.887
61482W        W23013  27.116  30.145  14.025
61483W        W23014  34.566  28.952   1.738
61484W        W23015  12.687  33.449   2.324
61485W        W23016   5.803  41.382  11.905
61486W        W23017  18.094  26.081  10.404
61487W        W23018  27.637   1.239  12.881
61488W        W23019  40.981  39.050   3.297
61489W        W23020  35.071  44.491   5.205
61490W        W23021  19.075  43.428   0.927
61491W        W23022  42.369  40.427   2.384
61492W        W23023   3.792   2.775   3.836
61493W        W23024   0.369  37.052   4.178
61494W        W23025  41.528  25.504  11.024
61495W        W23026  40.003   3.768   3.302
61496W        W23027  38.562  25.566   0.263
61497W        W23028  12.838  35.919  12.458
61498W        W23029  22.209  10.306  14.330
61499W        W23030  30.156  12.274   9.484
61500W        W23031  13.231  34.970  11.887
61501W        W23032  10.307   7.864   4.192
61502W        W23033  15.595  10.248   4.758
61503W        W23034  22.577  21.613   0.837
61504W        W23035  28.131   2.750   3.263
61505W        W23036  28.039  42.331   3.253
61506W        W23037   2.437   8.844   2.323
61507W        W23038  26.669  41.787  12.431
61508W        W23039  11.860  19.175   0.829
61509W        W23040  27.155  15.736  12.841
61510W        W23041  15.740  19.223  11.897
61511W        W23042  26.972  17.720   4.606
61512W        W23043  23.718   2.352   3.361
61513W        W23044   6.337  26.532  11.441
61514W        W23045  20.582  21.186   1.913
61515W        W23046   5.769  27.048  14.767
61516W        W23047  14.798  41.917  13.388
61517W        W23048  43.421  12.242   4.818
61518W        W23049  33.395  23.599   0.739
61519W        W23050  13.131  19.193   4.236
61520W        W23051  44.433  43.279   4.629
61521W        W23052  32.620  41.352   1.764
61522W        W23053   0.343  23.536   1.730
61523W        W23054   3.816   9.645   2.245
61524W        W23055  32.890  41.887   1.736
61525W        W23056  42.857  30.120   3.669
61526W        W23057  36.566  20.535   1.251
61527W        W23058   8.789   1.242  14.478
61528W        W23059  33.592  26.512  10.960
61529W        W23060  41.810  27.990   2.382
61530W        W23061   4.211  22.085   3.366
61531W        W23062  28.948   7.415   0.877
61532W        W23063   7.764  24.480  13.386
61533W        W23064  38.878   4.426   4.246
61534W        W23065  20.205  22.675  12.941
61535W        W23066   4.421   4.778   4.171
61536W        W23067   4.283  27.561  13.025
61537W        W23068   5.713  15.238   4.188
61538W        W23069  15.687  13.718  11.054
61539W        W23070  44.836  10.141  10.952
61540W        W23071  40.531   5.716   4.328
61541W        W23072  32.485  17.164   1.719
61542W        W23073   6.270   0.322   2.213
61543W        W23074  25.533  20.189   2.713
61544W        W23075  27.648  24.140   2.244
61545W        W23076   4.308  35.955   4.743
61546W        W23077   7.853  30.030  11.589
61547W        W23078  19.098   7.354  13.972
61548W        W23079  20.063   1.433   0.845
61549W        W23080  39.429   8.328   4.777
61550W        W23081  15.135  40.309  12.995
61551W        W23082  20.033  30.138   1.851
61552W        W23083  12.261   7.882   3.338
61553W        W23084   0.364  10.382  13.351
61554W        W23085  40.464  42.027  12.439
61555W        W23086  25.002   2.353  13.846
61556W        W23087  28.176  15.586   5.105
61557W        W23088  10.175  17.701   0.870
61558W        W23089  19.624  44.352   0.402
61559W        W23090  22.094   3.368   3.240
61560W        W23091  39.986  37.441  12.955
61561W        W23092   7.858  33.922  13.506
61562W        W23093  44.826  21.700   1.359
61563W        W23094  33.600   6.897  13.404
61564W        W23095   2.283  43.467  11.931
61565W        W23096  11.202  11.690  14.964
61566W        W23097  39.951  36.355   4.328
61567W        W23098   7.791  23.578   4.656
61568W        W23099  21.667  29.115   2.840
61569W        W23100  22.113  12.795  13.472
61570W        W23101  37.834  34.051  12.062
61571W        W23102  35.005  42.919   2.338
61572W        W23103  24.562   8.727  10.966
61573W        W23104  18.641  31.143  14.339
61574W        W23105  41.512   8.173  10.567
61575W        W23106  21.526  11.817  10.158
61576W        W23107  24.010  18.732   1.410
61577W        W23108  18.571  39.330  14.896
61578W        W23109  22.033  22.014  10.520
61579W        W23110  41.036  41.879   4.658
61580W        W23111  23.559  31.913  10.491
61581W        W23112  11.235  28.623  12.836
61582W        W23113  13.196  37.547  11.608
61583W        W23114   3.445  42.452   3.718
61584W        W23115   5.361  13.602  11.945
61585W        W23116  13.196  42.344  14.321
61586W        W23117  26.495  10.319   0.323
61587W        W23118   2.807  10.687   3.831
61588W        W23119  41.030   7.791  14.781
61589W        W23120  31.970  37.942   3.198
61590W        W23121   7.852   0.325  13.837
61591W        W23122  32.110  10.775   2.411
61592W        W23123  42.315  39.869   0.833
61593W        W23124  26.534   1.257   0.255
61594W        W23125  23.721  37.358  13.332
61595W        W23126   8.279  10.671  12.556
61596W        W23127  30.960  35.858  11.101
61597W        W23128  11.128  28.592   2.199
61598W        W23129  10.160  38.002  14.860
61599W        W23130  39.501  17.614   0.450
61600W        W23131  24.035  24.707   0.380
61601W        W23132  10.862   0.400   4.211
61602W        W23133   1.390  32.551  11.411
61603W        W23134  42.360  44.280   2.291
61604W        W23135  33.919  14.259  11.974
61605W        W23136  41.874  37.060   2.223
61606W        W23137  29.636  22.135   1.225
61607W        W23138  20.178  33.109   3.742
61608W        W23139  15.286  30.638   0.424
61609W        W23140  16.193  20.186  11.050
61610W        W23141   8.867  42.830   4.752
61611W        W23142  18.767  28.464   2.290
61612W        W23143  22.620   3.246   2.345
61613W        W23144  15.727  41.454   4.820
61614W        W23145  38.954  31.081  13.983
61615W        W23146  23.173  24.178   4.633
61616W        W23147  13.768  36.397  12.522
61617W        W23148  17.766   2.472  14.378
61618W        W23149  40.888  43.955  14.448
61619W        W23150  26.016  43.829   3.654
61620W        W23151  15.713  17.722   4.785
61621W        W23152  25.672   9.826   0.442
61622W        W23153   7.174   5.789  11.059
61623W        W23154   8.223  12.648  11.430
61624W        W23155  18.763  35.498  14.424
61625W        W23156  38.467   3.866  12.343
61626W        W23157  26.051  10.776   0.254
61627W        W23158  24.701  14.218   4.665
61628W        W23159  13.250  29.074  10.525
61629W        W23160   5.717   0.354  12.976
61630W        W23161  13.801  19.721   1.818
61631W        W23162  36.043  23.712  14.371
61632W        W23163   0.816  34.898  13.021
61633W        W23164  22.508   1.407   2.817
61634W        W23165  17.748   7.315   2.888
61635W        W23166  10.234  32.089  14.350
61636W        W23167  16.611   4.430   4.733
61637W        W23168  35.067  44.759   2.188
61638W        W23169  32.606  14.636   0.828
61639W        W23170  30.042   3.922  14.022
61640W        W23171   6.808   5.417   4.160
61641W        W23172   2.807   0.914   2.419
61642W        W23173  28.551   4.447   3.208
61643W        W23174  43.460  19.577   4.612
61644W        W23175  40.325  14.106  13.461
61645W        W23176  27.152  27.984  14.981
61646W        W23177  24.495  15.620   0.346
61647W        W23178  31.115  32.617   0.261
61648W        W23179   4.764  12.851   0.877
61649W        W23180   2.451  40.017  12.370
61650W        W23181   4.939   1.940  11.430
61651W        W23182  19.713  18.550   3.668
61652W        W23183  26.473  28.618   0.334
61653W        W23184  23.686  34.527  11.411
61654W        W23185  38.450  40.018  13.446
61655W        W23186  40.521  24.545   1.908
61656W        W23187  41.508  22.036  14.782
61657W        W23188   2.816  17.712   0.793
61658W        W23189   7.230  30.053   1.316
61659W        W23190  38.919  10.184   0.773
61660W        W23191   9.700  23.534   3.197
61661W        W23192  41.945  35.411   2.203
61662W        W23193   3.896  40.378   2.844
61663W        W23194  28.500  25.174  10.505
61664W        W23195   4.737  43.836   3.280
61665W        W23196   3.282  20.100   1.408
61666W        W23197  27.023   9.302  13.383
61667W        W23198  25.010  11.301   0.252
61668W        W23199  36.407  34.373  13.001
61669W        W23200  29.162  44.932   4.326
61670W        W23201  24.716  32.112   4.286
61671W        W23202  30.030  32.133  11.522
61672W        W23203  15.747  13.144   4.189
61673W        W23204  22.046  28.126   3.702
61674W        W23205  38.459  42.025  10.965
61675W        W23206  42.386  36.045   2.394
61676W        W23207  35.980  18.278  13.028
61677W        W23208  35.383  12.270  13.989
61678W        W23209  30.642  44.358  11.585
61679W        W23210  14.765   3.717  11.506
61680W        W23211  20.126  21.126   4.130
61681W        W23212  20.531  17.788   0.426
61682W        W23213   7.320  37.349  12.523
61683W        W23214   7.249  11.637   3.849
61684W        W23215  32.130  17.194   3.700
61685W        W23216  33.099  41.372  11.964
61686W        W23217  36.846  34.546   4.623
61687W        W23218  22.643  10.710   4.638
61688W        W23219  24.096  41.012   0.260
61689W        W23220   6.184  40.910   2.689
61690W        W23221  24.531  39.436  11.014
61691W        W23222  13.792   3.762   0.400
61692W        W23223  21.752  20.743   1.737
61693W        W23224  34.029  29.922   2.823
61694W        W23225  22.515  34.582  11.561
61695W        W23226   2.412  38.835   4.634
61696W        W23227  10.693   8.842   3.748
61697W        W23228  13.238  19.550  12.512
61698W        W23229   6.740  29.050   4.667
61699W        W23230  40.373  20.157   1.721
61700W        W23231   0.451  35.012   0.359
61701W        W23232  16.134  42.407   3.737
61702W        W23233  27.077  42.973  10.906
61703W        W23234   0.827  11.675  10.946
61704W        W23235   5.793  33.402   2.270
61705W        W23236  11.188  39.855  14.825
61706W        W23237  13.766  30.042  14.025
61707W        W23238  37.994   3.819   1.923
61708W        W23239  35.903  19.121   3.702
61709W        W23240   7.288  19.183   1.879
61710W        W23241  24.702  39.880  13.405
61711W        W23242  42.866  38.478   0.274
61712W        W23243  26.191  28.945   4.661
61713W        W23244  10.672  34.485  13.991
61714W        W23245  34.584  43.005   3.769
61715W        W23246   5.818  34.554   1.902
61716W        W23247  32.057  20.256   3.777
61717W        W23248   6.918  20.075  10.487
61718W        W23249  30.439  37.416  14.013
61719W        W23250  13.283  37.549   1.395
61720W        W23251  29.064  41.898   4.612
61721W        W23252  22.579  18.730  12.087
61722W        W23253   0.300  21.053  14.802
61723W        W23254  44.409  17.209   0.467
61724W        W23255  36.971   4.896  13.363
61725W        W23256  20.205  31.958   2.885
61726W        W23257  38.475  31.051   3.188
61727W        W23258  29.544  32.118  14.794
61728W        W23259  16.254   3.932  12.045
61729W        W23260  28.935  44.348   1.723
61730W        W23261  26.011   1.773  11.867
61731W        W23262  12.736  19.162  14.948
61732W        W23263  36.466  20.587  12.840
61733W        W23264   5.259  11.859  12.034
61734W        W23265   1.948  42.346   1.428
61735W        W23266  11.352  23.045  13.308
61736W        W23267  32.427  28.052   2.811
61737W        W23268   9.226  21.554  11.990
61738W        W23269  24.535  23.034  13.380
61739W        W23270   5.432  28.993   2.728
61740W        W23271  39.502  32.095  11.001
61741W        W23272  16.667   1.370   2.268
61742W        W23273  26.164  19.569  11.577
61743W        W23274  21.062  23.729   1.363
61744W        W23275  25.119   4.424   3.785
61745W        W23276   7.894  35.920  11.063
61746W        W23277  34.399  41.940  11.450
61747W        W23278  18.579  16.772  12.035
61748W        W23279  33.557  25.621  12.992
61749W        W23280  36.964  33.021   4.767
61750W        W23281  32.017   4.292  12.350
61751W        W23282  35.057  41.942   2.896
61752W        W23283  28.628  40.363  13.359
61753W        W23284  44.002  44.997   2.695
61754W        W23285  12.125  42.780   4.744
61755W        W23286  42.803  30.927  12.966
61756W        W23287  40.952   6.226   0.249
61757W        W23288  22.232  21.627  11.123
61758W        W23289  38.903   5.861  12.451
61759W        W23290  17.101  25.600   1.296
61760W        W23291  20.580  29.986  11.080
61761W        W23292  28.512  26.613  10.619
61762W        W23293  15.224  43.853   2.299
61763W        W23294  13.203   9.712  13.483
61764W        W23295   8.193  35.374   0.340
61765W        W23296  32.941  40.469  12.959
61766W        W23297   8.877  44.304   1.808
61767W        W23298  30.611   2.869  11.043
61768W        W23299  23.229  43.010   1.896
61769W        W23300  13.312   8.197  12.002
61770W        W23301   1.254  26.466   2.303
61771W        W23302  27.679  31.570  14.495
61772W        W23303  27.532  14.714  12.850
61773W        W23304  33.088  21.685   1.822
61774W        W23305   2.448  18.116  13.503
61775W        W23306  41.510   7.687  10.454
61776W        W23307   1.302   7.275   3.299
61777W        W23308  24.503  38.487  11.999
61778W        W23309   6.746  19.637   4.167
61779W        W23310  36.472  16.157  12.088
61780W        W23311  43.428  22.697  14.390
61781W        W23312  18.069  27.033  11.881
61782W        W23313  15.736  14.666  10.067
61783W        W23314  25.617  11.178  11.892
61784W        W23315  21.148  26.669  14.012
61785W        W23316  35.484  19.075  10.460
61786W        W23317   7.795  38.551   3.274
61787W        W23318  40.823   7.411   0.478
61788W        W23319  11.217  31.409  11.563
61789W        W23320   7.270  23.725  14.997
61790W        W23321  33.522  13.262   4.742
61791W        W23322  38.822  40.001  14.296
61792W        W23323   6.276  40.023  11.509
61793W        W23324   2.438  10.804   2.351
61794W        W23325   8.327  27.096   2.746
61795W        W23326  25.677  39.864   2.200
61796W        W23327  24.586  33.912  12.073
61797W        W23328  35.859  23.591  11.069
61798W        W23329  31.455  12.249   1.799
61799W        W23330  10.308  20.033  14.794
61800W        W23331  34.468  18.197  11.009
61801W        W23332  30.915   3.275   4.244
61802W        W23333   9.233   2.845   0.816
61803W        W23334  32.561  43.891   2.357
61804W        W23335  19.135  19.752   4.182
61805W        W23336  35.514  28.493  10.526
61806W        W23337  14.822  12.116   0.335
61807W        W23338   4.259  40.451  10.907
61808W        W23339  12.736   0.850   0.845
61809W        W23340  36.354  20.628   4.257
61810W        W23341  11.312   1.777   3.225
61811W        W23342  25.645  11.133  14.293
61812W        W23343  16.212   7.902   1.779
61813W        W23344   3.892  14.172   0.757
61814W        W23345   4.720  32.096  12.901
61815W        W23346   9.746  20.245   0.865
61816W        W23347   6.920  21.718  11.456
61817W        W23348  44.410  34.440  10.042
61818W        W23349  43.388  42.909  13.439
61819W        W23350  18.660  42.322   4.166
61820W        W23351   0.831  20.100  10.905
61821W        W23352  29.591  41.880   3.767
61822W        W23353   4.700  25.037  12.547
61823W        W23354  32.989   2.384  12.052
61824W        W23355  42.448  42.977  13.053
61825W        W23356  18.625   9.338   2.720
61826W        W23357  34.383  11.803   2.300
61827W        W23358  17.585  20.074   2.735
61828W        W23359   0.870  34.946   3.200
61829W        W23360  11.257  26.007   0.460
61830W        W23361  42.940  26.195  14.904
61831W        W23362  34.063  27.978  13.036
61832W        W23363  14.282  17.259   3.171
61833W        W23364  22.036   4.208   1.857
61834W        W23365  44.366  25.962  11.440
61835W        W23366  40.375  12.739  12.468
61836W        W23367  27.628  28.943  13.929
61837W        W23368  27.525  42.385   1.318
61838W        W23369  42.843  24.081  11.536
61839W        W23370   6.314  17.226  10.497
61840W        W23371  12.204  43.005  13.821
61841W        W23372  44.766   4.890   2.848
61842W        W23373  24.166  36.574   4.306
61843W        W23374  34.978  14.333   4.237
61844W        W23375  37.875  23.589  11.589
61845W        W23376  39.458  28.525   4.298
61846W        W23377  26.151  29.650  12.568
61847W        W23378  32.472  12.163   1.404
61848W        W23379  30.428   2.902   4.213
61849W        W23380  26.529  44.776   0.794
61850W        W23381  30.157   3.796  13.029
61851W        W23382   1.948  35.442  12.545
61852W        W23383  25.128  26.050  14.761
61853W        W23384  36.859  13.236   4.293
61854W        W23385  25.679  33.418   4.330
61855W        W23386  19.731   1.880   1.732
61856W        W23387   0.432  28.098   3.640
61857W        W23388  33.595  17.140   0.305
61858W        W23389  13.610  36.395  14.024
61859W        W23390   8.397  13.117   4.641
61860W        W23391  44.338  12.293  10.519
61861W        W23392  37.407  16.778   2.781
61862W        W23393  34.925  36.353   4.271
61863W        W23394   8.259  29.120   1.421
61864W        W23395  28.514   2.926  10.898
61865W        W23396   9.889  21.156   2.822
61866W        W23397  12.623  16.756  12.033
61867W        W23398  10.856  26.990  14.907
61868W        W23399  31.951  24.504  14.290
61869W        W23400  28.146  35.548  11.477
61870W        W23401  42.021  32.969   3.303
61871W        W23402  11.674   6.882  12.841
61872W        W23403  23.189   9.672  13.445
61873W        W23404  19.611  43.285   0.886
61874W        W23405   7.754  33.595   2.888
61875W        W23406  32.503  24.512  10.436
61876W        W23407  42.000  16.646  11.544
61877W        W23408   8.841  18.739   3.300
61878W        W23409  24.182   1.930   3.221
61879W        W23410  11.295  43.774   2.738
61880W        W23411  11.162   5.698  10.985
61881W        W23412  34.477  40.506   4.332
61882W        W23413   9.325  18.063   4.771
61883W        W23414  25.120   5.784  11.989
61884W        W23415  26.692  43.808  13.969
61885W        W23416  18.738  11.242   1.722
61886W        W23417  41.469  15.634  11.045
61887W        W23418   1.854  43.275   2.665
61888W        W23419  25.209  41.946  10.632
61889W        W23420   0.369  36.520   4.215
61890W        W23421  14.733  37.547   4.696
61891W        W23422   5.257  18.143   0.315
61892W        W23423  18.084  20.527  10.626
61893W        W23424  32.572  19.135  10.412
61894W        W23425   4.776   1.419   3.720
61895W        W23426  33.524  40.976  14.854
61896W        W23427  31.534  19.284   4.119
61897W        W23428  12.808   4.821   1.367
61898W        W23429  16.216  19.164   2.724
61899W        W23430  10.176  41.361   4.666
61900W        W23431  29.568  13.216  14.776
61901W        W23432  25.202  38.942   0.880
61902W        W23433  16.653  40.020  13.433
61903W        W23434  21.191  37.391   0.851
61904W        W23435   9.756  44.821   5.691
61905W        W23436  12.822  29.976   0.853
61906W        W23437   1.953  15.328  13.403
61907W        W23438  35.952  44.318  14.466
61908W        W23439  17.569  35.853  14.870
61909W        W23440  23.138  39.060  12.916
61910W        W23441  36.954   1.480  12.911
61911W        W23442  43.359  24.181  13.396
61912W        W23443  18.137  44.503   4.320
61913W        W23444  31.055  26.156   2.775
61914W        W23445  27.666  33.081  12.372
61915W        W23446  42.467  33.128   2.357
61916W        W23447  41.967  39.890  13.325
61917W        W23448   7.849   5.923   1.804
61918W        W23449  23.727  44.294   0.296
61919W        W23450  44.447  20.609   2.345
61920W        W23451  37.933  44.850   1.721
61921W        W23452  22.198  17.084  11.894
61922W        W23453  11.175  31.945  12.850
61923W        W23454   1.399  18.121  13.925
61924W        W23455  30.007  16.579   1.369
61925W        W23456  18.206  12.808   1.363
61926W        W23457  32.065  36.076   0.463
61927W        W23458   3.347   6.188   3.236
61928W        W23459  13.163  21.728  13.855
61929W        W23460  23.192  39.488   3.784
61930W        W23461   6.295  44.922   0.953
61931W        W23462  14.282  12.127  10.429
61932W        W23463   1.404  40.840   1.447
61933W        W23464  27.079   7.790   4.778
61934W        W23465  44.866  16.720  11.603
61935W        W23466   2.770   0.350   0.409
61936W        W23467  30.066   4.712  11.126
61937W        W23468  35.903   8.263  13.857
61938W        W23469   3.219  41.894  13.057
61939W        W23470  10.330  43.456  14.880
61940W        W23471  39.416  38.984  11.974
61941W        W23472  32.951  21.514  13.434
61942W        W23473  26.683  38.539   0.254
61943W        W23474   8.349  29.936  11.981
61944W        W23475  30.070  21.678  13.382
61945W        W23476   9.288  22.577  13.512
61946W        W23477  22.745  26.468   2.676
61947W        W23478   9.816  38.874   3.166
61948W        W23479  39.496  26.200  14.831
61949W        W23480  39.941  39.343  11.521
61950W        W23481  39.002  21.669  13.358
61951W        W23482   9.196  17.683   0.821
61952W        W23483  30.978  20.562   2.358
61953W        W23484  11.734  26.192   4.342
61954W        W23485  41.489   7.228   1.310
61955W        W23486  30.117  11.270  10.512
61956W        W23487  16.777  14.620   0.263
61957W        W23488  20.203  37.530   3.830
61958W        W23489  16.640  39.010  11.440
61959W        W23490  18.209   8.901   4.354
61960W        W23491  40.935  19.196   4.718
61961W        W23492   9.835  30.978  13.524
61962W        W23493   2.893   5.761   4.780
61963W        W23494  37.509  40.485  11.427
61964W        W23495  19.617  29.459   4.773
61965W        W23496  41.011   3.310   3.359
61966W        W23497  36.980  35.069  11.596
61967W        W23498  38.050  41.897   3.295
61968W        W23499   0.864  37.832  14.956
61969W        W23500  10.351  32.918  14.822
61970W        W23501  24.022  36.419  14.842
61971W        W23502  19.564  40.882   0.343
61972W        W23503  19.236  22.571  11.924
61973W        W23504  21.664  16.154  13.893
61974W        W23505  41.481   9.868   3.167
61975W        W23506  29.434  31.942  12.410
61976W        W23507  35.400   6.244  11.371
61977W        W23508  20.133  21.745  12.938
61978W        W23509   2.228  40.006  10.516
61979W        W23510   8.783   0.745  14.789
61980W        W23511  43.765  34.567  12.089
61981W        W23512  33.506  29.656   9.990
61982W        W23513  34.595  20.564   4.318
61983W        W23514  10.273  28.579  10.917
61984W        W23515  12.251  10.163   0.882
61985W        W23516  34.474  15.586  14.779
61986W        W23517  25.062   4.395   4.325
61987W        W23518  22.242  11.753  12.893
61988W        W23519   4.904  43.506  13.849
61989W        W23520  42.008   8.393  14.869
61990W        W23521  32.132   5.894   0.452
61991W        W23522  30.550   7.278   0.321
61992W        W23523  13.188  40.009  13.013
61993W        W23524  34.067  26.122  12.505
61994W        W23525   5.920   2.932  14.883
61995W        W23526  34.453   8.863   4.269
61996W        W23527  38.377  37.523   1.765
61997W        W23528  10.204  10.270   0.731
61998W        W23529   5.742   4.251  12.528
61999W        W23530  44.395  24.213  10.602
62000W        W23531  13.820  43.862  11.041
62001W        W23532   9.329  26.501  12.921
62002W        W23533  16.689  10.663   4.763
62003W        W23534  30.475  36.407   3.312
62004W        W23535  29.967  35.100  12.868
62005W        W23536  34.946  16.598   3.834
62006W        W23537  16.590  44.295  14.974
62007W        W23538  42.323   7.829   4.661
62008W        W23539  23.646  43.301   4.609
62009W        W23540  25.152   2.228   4.120
62010W        W23541  23.669  28.439   1.255
62011W        W23542  31.026  13.198   2.860
62012W        W23543  36.072  17.075  14.343
62013W        W23544   1.762  16.707   1.210
62014W        W23545  32.924   8.337   0.865
62015W        W23546  16.185   5.924  12.824
62016W        W23547   3.879  30.478   2.287
62017W        W23548  44.273  41.917   0.743
62018W        W23549  42.362   8.231   4.252
62019W        W23550  40.455   7.873   0.737
62020W        W23551  37.366  14.824   2.705
62021W        W23552  28.103  32.586  13.949
62022W        W23553  33.477  29.965  12.566
62023W        W23554  20.232  23.572   4.654
62024W        W23555  40.359  15.090  14.493
62025W        W23556  44.959  30.599   0.398
62026W        W23557  22.147  12.797   4.724
62027W        W23558  11.160  28.122  11.540
62028W        W23559  16.195   7.804  14.933
62029W        W23560  35.413   5.222   4.346
62030W        W23561  13.727  15.207   2.351
62031W        W23562  22.646  37.514   0.967
62032W        W23563  27.975   7.330  14.366
62033W        W23564  37.003  13.120   3.351
62034W        W23565  37.065   0.289  13.980
62035W        W23566  30.452  40.430  14.308
62036W        W23567  16.739  35.029   0.411
62037W        W23568  37.458  43.426  11.970
62038W        W23569   6.229  29.978  14.465
62039W        W23570  19.633  36.951   2.397
62040W        W23571   9.366   2.424  13.030
62041W        W23572  21.558  34.603   4.638
62042W        W23573  43.938  36.965  14.465
62043W        W23574  44.320  44.865   3.744
62044W        W23575  29.527  24.983   4.692
62045W        W23576  26.684  19.193  10.475
62046W        W23577   9.718  36.069  13.527
62047W        W23578  28.124  19.716   5.233
62048W        W23579   3.802  14.164   4.619
62049W        W23580  37.557  32.930  14.369
62050W        W23581  15.218  14.151  12.072
62051W        W23582  29.999  19.242   4.645
62052W        W23583  26.518  22.184   4.185
62053W        W23584   0.249  11.680   3.820
62054W        W23585  34.519  12.690  12.892
62055W        W23586   4.709  12.729   3.734
62056W        W23587  27.686  19.199  11.008
62057W        W23588  34.916  12.666   4.350
62058W        W23589   9.382  10.174  13.888
62059W        W23590  23.213  20.659   0.464
62060W        W23591  22.526   2.311   1.709
62061W        W23592  41.316  17.182   0.383
62062W        W23593   8.832  30.492   0.291
62063W        W23594  26.671   8.887   2.311
62064W        W23595  25.194  27.618  10.529
62065W        W23596  34.886  36.089   3.383
62066W        W23597  13.309   1.379   3.183
62067W        W23598  38.044  33.004   0.448
62068W        W23599  39.378  21.214  10.467
62069W        W23600  33.059  42.005  14.355
62070W        W23601  28.098   6.251   1.710
62071W        W23602  11.662  29.142   3.735
62072W        W23603  16.223  40.414  10.593
62073W        W23604   2.808   2.941  11.403
62074W        W23605  30.030   5.194   3.278
62075W        W23606  37.413  12.704   2.267
62076W        W23607  12.635   3.283  12.526
62077W        W23608  22.724  17.584   3.357
62078W        W23609  24.026  25.133   2.812
62079W        W23610   8.843  16.730   4.811
62080W        W23611   5.375  13.837   3.384
62081W        W23612  20.525  29.486  14.501
62082W        W23613  25.101  21.585  11.003
62083W        W23614  21.240  28.016  10.528
62084W        W23615  25.687  35.862   0.335
62085W        W23616  11.346  43.364   3.688
62086W        W23617   7.175  30.048  13.983
62087W        W23618  35.492  10.382  13.808
62088W        W23619  12.206  11.150   0.729
62089W        W23620  43.435  27.167  10.596
62090W        W23621  41.532  40.808   3.799
62091W        W23622  21.245   5.376  10.446
62092W        W23623  30.517  15.823   3.724
62093W        W23624   5.896  31.951   2.882
62094W        W23625   0.356  13.347  14.377
62095W        W23626  41.377  10.155   5.108
62096W        W23627  26.589  17.078   0.414
62097W        W23628   6.750  26.469   2.338
62098W        W23629  33.066  12.335  13.815
62099W        W23630  21.132   9.703  10.628
62100W        W23631  41.476  41.434  13.419
62101W        W23632  40.920  40.876  10.478
62102W        W23633  24.052  20.749   3.161
62103W        W23634   3.774  43.472  11.552
62104W        W23635  42.967  33.579  13.841
62105W        W23636  44.417   6.797  11.125
62106W        W23637  14.828  42.894   1.704
62107W        W23638  39.953   9.673   3.648
62108W        W23639  36.585  44.350   4.318
62109W        W23640  40.468  37.497  14.774
62110W        W23641  29.039  30.083  14.350
62111W        W23642   1.764  29.437   1.421
62112W        W23643   6.312  23.014  10.990
62113W        W23644  37.519   7.865   4.346
62114W        W23645  11.268  24.058  11.992
62115W        W23646  40.914  13.723   2.855
62116W        W23647  39.440   9.193  13.479
62117W        W23648  24.123   7.363   3.349
62118W        W23649  17.091  11.768   4.297
62119W        W23650  38.337  16.189   2.705
62120W        W23651  13.742  15.321   1.421
62121W        W23652  38.454  10.383  12.532
62122W        W23653  33.469  11.817   2.755
62123W        W23654  24.171   0.815  14.904
62124W        W23655  26.535  10.643   2.886
62125W        W23656  27.991  23.171  11.912
62126W        W23657  35.879  34.427  13.338
62127W        W23658  17.062  23.235   9.477
62128W        W23659   2.917  23.167  13.907
62129W        W23660  23.677  33.577   3.268
62130W        W23661  30.105  39.351  10.451
62131W        W23662  29.670  41.923  10.633
62132W        W23663  26.202  27.944  10.978
62133W        W23664  33.928  36.003   3.220
62134W        W23665   5.202  16.804   3.235
62135W        W23666  31.119   3.791  14.921
62136W        W23667  30.984  38.538  12.455
62137W        W23668   7.359  11.791  13.399
62138W        W23669  29.130  43.967  14.921
62139W        W23670  28.020  15.227   4.230
62140W        W23671  24.191  16.182   1.711
62141W        W23672  41.360   8.768  13.011
62142W        W23673   9.815   1.467  13.329
62143W        W23674  27.650  31.619   4.286
62144W        W23675  16.137  18.212  12.493
62145W        W23676  36.065   3.328   3.671
62146W        W23677  26.629  10.721  12.069
62147W        W23678   4.268  29.044   2.702
62148W        W23679  10.714  44.488  11.379
62149W        W23680  21.208  15.088  13.995
62150W        W23681  31.931   0.412  14.472
62151W        W23682  39.395  22.117  14.986
62152W        W23683   9.259  29.078   4.237
62153W        W23684  28.933  44.317  11.561
62154W        W23685  22.548  32.920  10.555
62155W        W23686  31.922  20.528   1.252
62156W        W23687  44.821   1.284   2.190
62157W        W23688  43.492   9.294   3.270
62158W        W23689  29.997   4.916   0.445
62159W        W23690   4.910  39.889  11.384
62160W        W23691   6.823  14.329   2.837
62161W        W23692  13.773  42.972  13.370
62162W        W23693  32.550  10.730  10.020
62163W        W23694  31.929   4.701   3.730
62164W        W23695  31.078   6.837   0.275
62165W        W23696  22.681  31.433   0.834
62166W        W23697  37.011  10.677  14.791
62167W        W23698   5.931  20.044   4.350
62168W        W23699   9.286   8.323  13.010
62169W        W23700  44.001  14.315   2.765
62170W        W23701  25.603   9.733   5.282
62171W        W23702  42.026  10.212  13.851
62172W        W23703   2.758  36.062   4.737
62173W        W23704   4.213  11.350  13.497
62174W        W23705   1.441  29.667   3.357
62175W        W23706   4.418  26.997   1.310
62176W        W23707  20.681  29.508   2.886
62177W        W23708  32.130  19.072   2.858
62178W        W23709  21.688   0.372   4.203
62179W        W23710  38.511  39.381  13.515
62180W        W23711  24.676  19.057   1.867
62181W        W23712  32.990  27.000  12.398
62182W        W23713   9.278  27.063   0.345
62183W        W23714  31.538  19.537   1.718
62184W        W23715   9.769  44.914  13.415
62185W        W23716  38.906  44.805  10.547
62186W        W23717  22.568  44.403  14.504
62187W        W23718  30.018   1.917  12.348
62188W        W23719  22.668   4.232   1.733
62189W        W23720  26.043   5.315  13.801
62190W        W23721  10.824  27.575  11.384
62191W        W23722  26.106  25.062  13.429
62192W        W23723  11.225  11.260   2.793
62193W        W23724  32.599  14.165   4.243
62194W        W23725  12.751  20.164  10.430
62195W        W23726  23.634   6.322  14.995
62196W        W23727  14.119  28.663  13.813
62197W        W23728  26.178  31.588   2.217
62198W        W23729   5.909   5.801   2.267
62199W        W23730  19.239  23.139   2.775
62200W        W23731  27.539  38.855   0.281
62201W        W23732  20.717  34.062   3.384
62202W        W23733   1.252  38.070   0.826
62203W        W23734  38.538   8.695  12.003
62204W        W23735  19.677   8.312   4.176
62205W        W23736   1.305  14.658   4.700
62206W        W23737  18.084  23.721  11.504
62207W        W23738   3.407  21.557  10.129
62208W        W23739  19.182  37.044   0.831
62209W        W23740   6.780  14.746  12.950
62210W        W23741  16.614  19.585  11.908
62211W        W23742   8.170  22.595   0.384
62212W        W23743  39.905  34.575   2.373
62213W        W23744  42.524   5.823  11.128
62214W        W23745  30.040  22.040   3.305
62215W        W23746  33.984   6.679  12.955
62216W        W23747  31.938  23.049  13.037
62217W        W23748  23.049  28.064   3.335
62218W        W23749  19.140  18.610  14.850
62219W        W23750  42.900  15.755   3.819
62220W        W23751  31.569  41.293  13.366
62221W        W23752  39.944  14.114   1.731
62222W        W23753  34.582  40.913   1.409
62223W        W23754  37.571  34.478   1.696
62224W        W23755   6.774  36.968  14.020
62225W        W23756  41.024  36.066   2.674
62226W        W23757  13.609  18.268  14.937
62227W        W23758   9.864   7.202   0.743
62228W        W23759  31.974  22.010  11.905
62229W        W23760  38.029   4.793   3.852
62230W        W23761  44.454  15.622  11.932
62231W        W23762  26.159  20.166  11.053
62232W        W23763  36.438  38.327   3.293
62233W        W23764  42.283  44.011   0.310
62234W        W23765  29.477   7.316   5.089
62235W        W23766  40.969  44.406  12.878
62236W        W23767   5.288  35.480  14.775
62237W        W23768  27.043  10.879   2.351
62238W        W23769  42.832  30.097   0.328
62239W        W23770   9.740  38.918   1.730
62240W        W23771   2.462  44.364  10.506
62241W        W23772  42.349  43.827  11.611
62242W        W23773   0.896  34.418  12.017
62243W        W23774  27.517  11.302   1.339
62244W        W23775  24.153  24.524  14.995
62245W        W23776  18.264  39.023  13.045
62246W        W23777  14.706  34.422  12.491
62247W        W23778  41.529  28.658   4.659
62248W        W23779  22.169  33.479   3.777
62249W        W23780   4.788  35.537  10.035
62250W        W23781  34.105  30.636  10.434
62251W        W23782  34.586  34.515   3.792
62252W        W23783  31.630  26.570   2.379
62253W        W23784  21.710  23.713  12.843
62254W        W23785  37.355  27.125   2.748
62255W        W23786  33.415   0.763  11.522
62256W        W23787  27.508  32.982   3.649
62257W        W23788   7.855  26.197  11.412
62258W        W23789  41.326  31.640  11.926
62259W        W23790  24.490  16.598  14.487
62260W        W23791   9.682  10.280  14.310
62261W        W23792  13.706  25.661  12.886
62262W        W23793  24.675  13.632  13.053
62263W        W23794  41.792   1.893   1.718
62264W        W23795  12.790   6.184  14.902
62265W        W23796  13.199  29.489  14.026
62266W        W23797  14.755  18.722  10.597
62267W        W23798  18.787  20.689   3.772
62268W        W23799   0.272  12.716   4.818
62269W        W23800  17.664  21.090  13.006
62270W        W23801  38.443  26.203   3.646
62271W        W23802  14.171   5.719  13.314
62272W        W23803  24.153   1.965  11.997
62273W        W23804  18.072  24.141   3.234
62274W        W23805  11.748   6.814  11.541
62275W        W23806  35.487   5.711  13.488
62276W        W23807  40.830   4.822   3.794
62277W        W23808  17.254  32.961   2.372
62278W        W23809  25.111  36.577   2.358
62279W        W23810  16.754  14.811   3.193
62280W        W23811  25.105  42.955   0.446
62281W        W23812  42.790  24.655  14.013
62282W        W23813  17.208  37.358   0.746
62283W        W23814  26.701  12.659   1.398
62284W        W23815  29.967  27.635  10.445
62285W        W23816  17.117  27.547  10.158
62286W        W23817  29.565  21.237  14.770
62287W        W23818  24.131  36.523   1.867
62288W        W23819  38.371  27.975   2.329
62289W        W23820  24.718  10.182   0.826
62290W        W23821  14.212  25.148   0.472
62291W        W23822  11.681   7.272  13.505
62292W        W23823  15.727  35.098  14.462
62293W        W23824  44.341   2.326  11.124
62294W        W23825  41.299  35.461  11.863
62295W        W23826  36.515  44.365   0.920
62296W        W23827  41.381  34.427  10.431
62297W        W23828  27.627   8.662   1.337
62298W        W23829  13.295  26.673  10.096
62299W        W23830  27.092   1.778   3.774
62300W        W23831  36.528   4.810  10.149
62301W        W23832   0.402  29.628   2.717
62302W        W23833  14.260  43.293  12.090
62303W        W23834  13.206   0.788  10.409
62304W        W23835  10.276   5.704  13.331
62305W        W23836  32.138  22.567   0.733
62306W        W23837  40.462  17.791  10.907
62307W        W23838   7.299  44.413  12.414
62308W        W23839  41.414   4.740   2.883
62309W        W23840  39.837  20.226  14.918
62310W        W23841  16.292   1.877  14.871
62311W        W23842  11.760  41.331  14.371
62312W        W23843  32.072  17.180   2.355
62313W        W23844  42.473  11.717  12.855
62314W        W23845  38.562  30.577  13.477
62315W        W23846  16.218  23.688  11.965
62316W        W23847  17.198  32.422  14.760
62317W        W23848  13.239  41.531   2.381
62318W        W23849  27.455  22.716  11.589
62319W        W23850  28.172  24.587  11.568
62320W        W23851  16.210  14.298  13.427
62321W        W23852   0.441  20.067  14.342
62322W        W23853  20.674   3.840  14.304
62323W        W23854  23.728   5.312   4.124
62324W        W23855  26.679   5.801   2.308
62325W        W23856  44.924  22.146   4.783
62326W        W23857  31.512  36.019   1.276
62327W        W23858  14.773   7.296  11.856
62328W        W23859  24.521  19.201  10.463
62329W        W23860  28.540  41.361  12.510
62330W        W23861   4.235  22.729  13.440
62331W        W23862  25.169  18.264   4.184
62332W        W23863  38.059  30.101  10.897
62333W        W23864   8.838  24.033  11.978
62334W        W23865  32.039  11.779   1.438
62335W        W23866  18.637   0.480  10.631
62336W        W23867  18.759  11.771   2.757
62337W        W23868  31.902   6.378  14.822
62338W        W23869  16.275  27.055  14.760
62339W        W23870  29.011  24.012   1.815
62340W        W23871  41.028  22.623   1.392
62341W        W23872   3.722  17.649   4.710
62342W        W23873  31.141  43.496   0.445
62343W        W23874  15.259  14.150  10.890
62344W        W23875  23.226  24.990   1.787
62345W        W23876  42.813  43.369   1.396
62346W        W23877  30.011  34.924   2.318
62347W        W23878   6.308  30.045   1.226
62348W        W23879  10.306  23.069  10.419
62349W        W23880  31.140  18.652  11.414
62350W        W23881  41.514  19.084  12.930
62351W        W23882  40.442   7.338  14.769
62352W        W23883   9.803  37.864  14.880
62353W        W23884  14.792  37.073  13.835
62354W        W23885   1.270  28.158   2.857
62355W        W23886  28.092   6.327  11.957
62356W        W23887  28.520  27.135  10.501
62357W        W23888  25.499  15.758   1.863
62358W        W23889  17.682   8.787  13.973
62359W        W23890  32.394  27.476  14.341
62360W        W23891  20.211  32.460  14.941
62361W        W23892  40.472  12.271   0.385
62362W        W23893  28.511  31.988   5.141
62363W        W23894  30.079  18.067  11.611
62364W        W23895  17.585  11.156  12.082
62365W        W23896   7.712  34.437   3.730
62366W        W23897  28.491  44.352  10.095
62367W        W23898   8.897  26.548  11.597
62368W        W23899   5.437  11.757   0.942
62369W        W23900  16.149  37.491   3.776
62370W        W23901  26.609  37.516   4.206
62371W        W23902   6.408  13.152   3.802
62372W        W23903  15.140  36.442  13.053
62373W        W23904   6.753   5.839   4.309
62374W        W23905   6.249  26.188   0.843
62375W        W23906  28.547  22.085  12.560
62376W        W23907  15.732  41.313  14.394
62377W        W23908  35.973  27.145   3.201
62378W        W23909  41.377   9.695  12.068
62379W        W23910  22.576   5.764  12.414
62380W        W23911  11.758  30.982   3.765
62381W        W23912  20.247  16.616   3.818
62382W        W23913   2.919  21.038   0.786
62383W        W23914   5.396   1.743   1.239
62384W        W23915  30.124  42.013  11.590
62385W        W23916  30.417  31.469  14.983
62386W        W23917  17.152   3.870   4.122
62387W        W23918  10.691  21.175   2.708
62388W        W23919  36.945  34.592  14.992
62389W        W23920  10.280  42.300  13.988
62390W        W23921  12.731   6.915   4.308
62391W        W23922   3.720   1.327   4.154
62392W        W23923  36.947  19.078  12.513
62393W        W23924  31.463   7.342   2.225
62394W        W23925  33.459  30.552  13.828
62395W        W23926  31.016  34.031   2.207
62396W        W23927   3.327  35.097  14.970
62397W        W23928  18.140  37.489  13.040
62398W        W23929  42.507  34.374   4.301
62399W        W23930  41.025  42.472  10.999
62400W        W23931  29.150  13.198  11.443
62401W        W23932   5.755  16.629   1.276
62402W        W23933  33.468  35.890  11.529
62403W        W23934  18.159  39.971   0.831
62404W        W23935  34.072  27.473  14.815
62405W        W23936   6.911  22.517  11.939
62406W        W23937  39.351  20.523  14.784
62407W        W23938   8.802  26.114   2.308
62408W        W23939  42.944  14.617  10.436
62409W        W23940  16.810   7.737  13.017
62410W        W23941  30.043  36.450  11.959
62411W        W23942  28.171   9.201  13.002
62412W        W23943  35.580  19.681   4.818
62413W        W23944  30.012  14.253  11.437
62414W        W23945  44.854   7.879   1.221
62415W        W23946  38.519  23.120  14.026
62416W        W23947  24.163  31.926  14.461
62417W        W23948  41.980  24.704   0.341
62418W        W23949  40.317  15.207  13.518
62419W        W23950  25.472  36.360  12.377
62420W        W23951  11.843  22.169   3.352
62421W        W23952   6.733   1.936   2.694
62422W        W23953  30.057  31.406   2.724
62423W        W23954  16.229  44.272  13.909
62424W        W23955  32.037  15.250   1.266
62425W        W23956  41.472  29.499   1.265
62426W        W23957  23.641  13.639  13.804
62427W        W23958  38.834  38.364   1.835
62428W        W23959  12.287   6.743  13.357
62429W        W23960  43.352  30.086  10.505
62430W        W23961   4.315  14.157  11.396
62431W        W23962  40.982  34.597  10.948
62432W        W23963   8.387  21.620   4.744
62433W        W23964  34.468  44.269   2.701
62434W        W23965  10.311  42.821  14.780
62435W        W23966  33.591  27.588  11.526
62436W        W23967  12.361  43.477   1.212
62437W        W23968  29.533  33.548   4.186
62438W        W23969  32.609  13.139   4.140
62439W        W23970  30.457  43.870   3.221
62440W        W23971  28.436  40.951  11.533
62441W        W23972  35.483   1.439  14.317
62442W        W23973  40.053  27.138  10.941
62443W        W23974   6.260  24.648   0.951
62444W        W23975  29.996  30.136  10.444
62445W        W23976  35.496   9.743  12.839
62446W        W23977  11.310  21.693   0.429
62447W        W23978  20.105  31.999  11.372
62448W        W23979  34.589   3.719   2.345
62449W        W23980  19.780  32.526  11.496
62450W        W23981  36.968   1.843  12.829
62451W        W23982  26.657   1.393   2.360
62452W        W23983  44.376  34.459   3.339
62453W        W23984  32.890  12.343  11.994
62454W        W23985  29.525  12.361  10.461
62455W        W23986  43.021  24.521   0.428
62456W        W23987  16.617  13.781  12.371
62457W        W23988  21.710   9.711  11.044
62458W        W23989  14.623   1.848  13.523
62459W        W23990  16.172   0.271   2.419
62460W        W23991  32.027  41.510  12.005
62461W        W23992   8.381  10.697   3.311
62462W        W23993  42.916  10.821   3.328
62463W        W23994   2.889  14.826   1.831
62464W        W23995  29.469  43.805  10.508
62465W        W23996  36.527  34.057  14.509
62466W        W23997  31.027  16.270   2.734
62467W        W23998  34.104  27.647   3.213
62468W        W23999  42.890   4.426   0.273
62469W        W24000   3.954  30.481  13.043
62470W        W24001  16.296  19.779   2.317
62471W        W24002  37.522  28.492   3.299
62472W        W24003  44.269  39.523   3.760
62473W        W24004  19.135   6.224   2.781
62474W        W24005  15.108  25.001  10.500
62475W        W24006  28.489  12.692  11.110
62476W        W24007   6.317   0.912  10.909
62477W        W24008  27.554  10.307  14.313
62478W        W24009  31.451   1.283  10.407
62479W        W24010   6.772  37.015  11.498
62480W        W24011   6.770  34.908  12.370
62481W        W24012  41.891  20.169   4.689
62482W        W24013  22.213  35.395  14.866
62483W        W24014   0.949   9.654  12.050
62484W        W24015  34.989  14.607  13.975
62485W        W24016  39.057  22.602  10.590
62486W        W24017  28.174  44.342   9.983
62487W        W24018  42.386   8.211  10.426
62488W        W24019  36.988   7.734  11.068
62489W        W24020   3.898   3.936  14.878
62490W        W24021   3.444  24.171  14.470
62491W        W24022  29.928   1.358  10.957
62492W        W24023  19.689  39.489   3.158
62493W        W24024  38.376  33.535   0.403
62494W        W24025  29.446   3.843  13.821
62495W        W24026  25.608  18.752  12.093
62496W        W24027  37.880  30.441   2.850
62497W        W24028   5.364   4.783   1.715
62498W        W24029  12.311  29.162  11.454
62499W        W24030  17.780  22.012  13.985
62500W        W24031  41.466  13.219   3.634
62501W        W24032   3.404  21.221   4.263
62502W        W24033   6.390  18.562   2.695
62503W        W24034  35.000   7.792  14.807
62504W        W24035  31.965   5.320  14.401
62505W        W24036   7.371  37.075  11.461
62506W        W24037  37.347  33.430  12.914
62507W        W24038   7.850  43.476  13.335
62508W        W24039  25.673  37.541   3.807
62509W        W24040  33.525  39.060  14.288
62510W        W24041   7.753  36.025   2.879
62511W        W24042  21.099  18.269  11.028
62512W        W24043  10.759   4.746   2.218
62513W        W24044   4.877  15.710   2.191
62514W        W24045  43.334  28.995  13.054
62515W        W24046  10.191  36.862   3.299
62516W        W24047  23.012  14.605   2.809
62517W        W24048   0.286  42.970  11.035
62518W        W24049  43.849  21.108   1.779
62519W        W24050  42.906  29.610  12.345
62520W        W24051  27.191  42.340  11.067
62521W        W24052   3.863  28.160   1.708
62522W        W24053  17.152  30.133  12.895
62523W        W24054   9.819  15.189  13.468
62524W        W24055  39.451  28.553  14.897
62525W        W24056  39.955  16.211  10.547
62526W        W24057  17.708  28.458   3.777
62527W        W24058   1.427  12.168  10.423
62528W        W24059  21.170  38.857  14.927
62529W        W24060  29.005   4.361  13.984
62530W        W24061  30.017  27.191   0.939
62531W        W24062  27.955  15.693  11.915
62532W        W24063   4.445  22.644   4.247
62533W        W24064  21.667  11.831  14.024
62534W        W24065  14.650   1.866  12.500
62535W        W24066  19.750  40.358  12.057
62536W        W24067  26.540   1.450  10.954
62537W        W24068  13.283  25.506   0.736
62538W        W24069  15.326   8.368   1.321
62539W        W24070  25.192  34.061   3.697
62540W        W24071  13.122  17.068   0.283
62541W        W24072   1.758  12.857   2.764
62542W        W24073   4.402  42.386   4.170
62543W        W24074  32.902  16.122  13.895
62544W        W24075  18.071   5.221  12.097
62545W        W24076  30.004   7.797   3.164
62546W        W24077  41.948  32.624   1.776
62547W        W24078  31.104  36.447  14.011
62548W        W24079  31.042  37.902   1.745
62549W        W24080  18.213   5.734   2.871
62550W        W24081  20.669  42.490   0.451
62551W        W24082   9.294  27.114   4.275
62552W        W24083  12.749   9.392  14.505
62553W        W24084  30.100  31.645   4.777
62554W        W24085   0.414  44.295   1.364
62555W        W24086  41.835   5.345   1.741
62556W        W24087  40.449  17.173   0.894
62557W        W24088  25.690  24.066   1.759
62558W        W24089  25.201  31.140  11.895
62559W        W24090  12.645   9.730  13.525
62560W        W24091  24.714  42.361   3.152
62561W        W24092  20.662  10.676  13.453
62562W        W24093   5.411   6.678   1.265
62563W        W24094   9.344   7.866  11.570
62564W        W24095  16.178  16.231   0.260
62565W        W24096  21.734  28.118  14.888
62566W        W24097  34.489  34.440   1.311
62567W        W24098   6.909  24.501   4.353
62568W        W24099  31.407   8.778   0.260
62569W        W24100  13.247   1.972  11.048
62570W        W24101  17.192  18.085  10.413
62571W        W24102  18.607   5.755  11.881
62572W        W24103  11.318  19.055   0.367
62573W        W24104   7.845  12.321   1.270
62574W        W24105   1.975  33.903   1.264
62575W        W24106  38.828  17.658   2.377
62576W        W24107   3.887  37.567  11.413
62577W        W24108  26.632  36.885   2.229
62578W        W24109  18.284  32.060  12.443
62579W        W24110  15.591   7.326   0.959
62580W        W24111  11.674   9.364  14.333
62581W        W24112   1.831  15.104  11.969
62582W        W24113   2.924  38.924   1.789
62583W        W24114  38.969  32.945  13.005
62584W        W24115  41.817   0.279  13.545
62585W        W24116   0.760  10.288  14.274
62586W        W24117  24.586  31.051  12.526
62587W        W24118  44.761  20.669   3.663
62588W        W24119  28.471  44.298   0.916
62589W        W24120  21.659   7.689  14.797
62590W        W24121  18.685   7.707  13.530
62591W        W24122  40.521  12.712   1.366
62592W        W24123  13.638  12.213  12.888
62593W        W24124  31.551  40.980  12.053
62594W        W24125   0.777  10.695  14.332
62595W        W24126  34.542   6.855   4.339
62596W        W24127  12.326  32.467   5.157
62597W        W24128  33.102   9.319   0.343
62598W        W24129  39.875  32.605  13.312
62599W        W24130  37.944  12.804   3.822
62600W        W24131  26.115  15.158  15.000
62601W        W24132  11.629  13.765   2.679
62602W        W24133  31.028  39.001  13.406
62603W        W24134  17.093  31.128  12.957
62604W        W24135  18.560  27.138   3.160
62605W        W24136  24.126  32.128  13.812
62606W        W24137  41.948  35.567  10.609
62607W        W24138   9.841  30.077  12.069
62608W        W24139  10.172  33.087  10.145
62609W        W24140  40.941  38.022   4.603
62610W        W24141   9.173  28.935  10.450
62611W        W24142  28.025  21.212  10.616
62612W        W24143  21.748  36.431   3.747
62613W        W24144   1.316  34.991   0.953
62614W        W24145   1.831   4.218   1.922
62615W        W24146  19.248  37.396   0.839
62616W        W24147   2.721   9.283   4.275
62617W        W24148  38.442  40.898  13.824
62618W        W24149   8.815  28.952  13.446
62619W        W24150   6.187  11.842   4.236
62620W        W24151  29.166  30.994  11.402
62621W        W24152  24.230   2.808   0.771
62622W        W24153  20.546  10.842   3.678
62623W        W24154  13.107   5.706   4.766
62624W        W24155  30.417  36.500  12.444
62625W        W24156  19.653  30.481  11.458
62626W        W24157  41.437  10.758   1.359
62627W        W24158   9.355  20.113  10.916
62628W        W24159   9.769  43.901   0.878
62629W        W24160  23.118  44.455   1.812
62630W        W24161   5.724  27.171   4.826
62631W        W24162  11.794  37.977  13.853
62632W        W24163  13.607  32.433  12.405
62633W        W24164  31.983  35.467   1.694
62634W        W24165  37.920  32.088   2.852
62635W        W24166  22.589  22.021  14.856
62636W        W24167  31.620  37.907  12.360
62637W        W24168  36.841   4.395  10.489
62638W        W24169  28.448  17.300  13.526
62639W        W24170  12.312  27.634   4.640
62640W        W24171  19.622  12.319  13.940
62641W        W24172  36.061  15.131   4.342
62642W        W24173  12.344  15.600   2.759
62643W        W24174   7.203  23.492   2.710
62644W        W24175  43.306  25.546  12.828
62645W        W24176   2.792  27.464   3.650
62646W        W24177  10.683  35.544   0.281
62647W        W24178  31.986  43.481   0.350
62648W        W24179  24.024  12.723  12.929
62649W        W24180  36.590  10.342   0.772
62650W        W24181  11.866  31.634   1.265
62651W        W24182  16.649  12.197  12.465
62652W        W24183  32.057  44.409   4.712
62653W        W24184  12.236   3.870   1.327
62654W        W24185   1.293  22.737   1.352
62655W        W24186  25.983  29.558   5.658
62656W        W24187  41.806  12.724   3.688
62657W        W24188  21.743  12.271   4.652
62658W        W24189  26.593  13.628  12.519
62659W        W24190  15.215   8.782  14.382
62660W        W24191  29.645  44.341   5.183
62661W        W24192   7.299  22.701   0.474
62662W        W24193  14.716  16.075  12.964
62663W        W24194  39.318  44.993  11.488
62664W        W24195  41.901   8.214   0.356
62665W        W24196  17.777  34.465  13.044
62666W        W24197  29.543  31.474  10.958
62667W        W24198  20.251  20.606   2.889
62668W        W24199  28.479  28.933  11.451
62669W        W24200  43.382   8.868   4.808
62670W        W24201   6.860  14.596  14.939
62671W        W24202  33.499  21.227  10.499
62672W        W24203   0.793  17.765   0.435
62673W        W24204   4.224  14.106  12.575
62674W        W24205  40.414  35.545  11.425
62675W        W24206  44.807  40.812  10.951
62676W        W24207  34.441  21.684  12.480
62677W        W24208  29.070  10.375  12.966
62678W        W24209  19.042  42.027  14.994
62679W        W24210   1.877   1.806   4.134
62680W        W24211  16.182   8.836   3.837
62681W        W24212  38.845  31.552   1.341
62682W        W24213  35.391   8.880  11.918
62683W        W24214   8.336  14.210  12.476
62684W        W24215  34.986  37.431  11.021
62685W        W24216  35.994   7.713   3.824
62686W        W24217  44.807  32.551  12.353
62687W        W24218  20.274  17.705  10.483
62688W        W24219   9.343  10.363   0.823
62689W        W24220  33.991  31.469   4.256
62690W        W24221  26.972  44.307  12.400
62691W        W24222  13.818  17.632  14.912
62692W        W24223  23.016  27.115   2.717
62693W        W24224  11.300  33.521   3.288
62694W        W24225  28.985  27.648  11.533
62695W        W24226  23.157   8.179   3.758
62696W        W24227  34.519   8.742  12.495
62697W        W24228  21.713  27.120   2.214
62698W        W24229  11.749  12.161  12.830
62699W        W24230  18.759  14.752   2.883
62700W        W24231  11.146  15.770  14.867
62701W        W24232   8.178   7.711   1.752
62702W        W24233  24.039   9.250   1.236
62703W        W24234  39.330  20.203   1.709
62704W        W24235   7.327   5.217  12.378
62705W        W24236   1.348  20.658   2.370
62706W        W24237   8.748  34.564   0.831
62707W        W24238  31.053  31.619   0.306
62708W        W24239  23.653  41.889   0.315
62709W        W24240  32.086  40.873   1.269
62710W        W24241  28.568  17.731  12.062
62711W        W24242  10.669  42.972  14.425
62712W        W24243   9.246  14.340   0.759
62713W        W24244  39.869  37.357  14.880
62714W        W24245  15.762  17.300   0.883
62715W        W24246   0.403  30.950   4.730
62716W        W24247   5.755   5.853   4.659
62717W        W24248   7.712  10.649   4.247
62718W        W24249  27.616  13.151   2.233
62719W        W24250  34.023  32.903  14.333
62720W        W24251  34.478  33.380   1.242
62721W        W24252  27.080  24.706  13.402
62722W        W24253  32.520  29.608   4.614
62723W        W24254  37.521  30.966   2.725
62724W        W24255  22.569  11.715   0.936
62725W        W24256  44.427   4.321   2.184
62726W        W24257   5.343  38.413   3.778
62727W        W24258  14.676  31.041   1.851
62728W        W24259  43.445  42.468   1.399
62729W        W24260  21.548   2.768  11.973
62730W        W24261   3.942  30.962   3.649
62731W        W24262  15.633  10.275   4.233
62732W        W24263  31.084  40.492   2.407
62733W        W24264  12.123  25.057   1.380
62734W        W24265  18.297  17.178   3.289
62735W        W24266   3.293  37.569  13.044
62736W        W24267   7.351   7.229   3.681
62737W        W24268   0.947  24.620   2.337
62738W        W24269  35.464  37.377   2.318
62739W        W24270   2.892   0.784  14.349
62740W        W24271  23.224  28.496   4.741
62741W        W24272  26.663   1.846  13.418
62742W        W24273   6.386   2.901  11.897
62743W        W24274  21.061  34.563   4.613
62744W        W24275  26.995   3.949   4.332
62745W        W24276  18.205  10.864  14.890
62746W        W24277  26.174  31.082   2.316
62747W        W24278  21.624  11.227   4.295
62748W        W24279  30.522  30.944   3.838
62749W        W24280  43.315   7.901  11.948
62750W        W24281  15.641  11.800  12.465
62751W        W24282  40.408  42.932   4.795
62752W        W24283  10.156  26.698   2.377
62753W        W24284  17.081  11.681  14.470
62754W        W24285  10.650  25.639   2.218
62755W        W24286  15.609  30.912  13.499
62756W        W24287  36.051  35.877  14.030
62757W        W24288  17.786  29.953  10.524
62758W        W24289  28.000   5.889   1.932
62759W        W24290  37.397  34.482  11.420
62760W        W24291  14.196  33.992   1.236
62761W        W24292  12.147  39.418  13.521
62762W        W24293  44.412  33.900  12.870
62763W        W24294   0.328   1.368   0.952
62764W        W24295  18.763  37.904   0.395
62765W        W24296  36.505  38.966  11.411
62766W        W24297  30.480  43.847   1.305
62767W        W24298  44.009   0.965   3.326
62768W        W24299  11.784  12.323   1.911
62769W        W24300  22.018  14.134   2.862
62770W        W24301  42.870  11.349  14.910
62771W        W24302  18.199  38.561  14.483
62772W        W24303   5.878   1.470   3.237
62773W        W24304   6.252  37.526   3.732
62774W        W24305   4.927  43.879  13.899
62775W        W24306  10.637  36.516   0.461
62776W        W24307  37.019  40.850   3.277
62777W        W24308  31.440  37.576   1.342
62778W        W24309  38.001  28.576  11.387
62779W        W24310   2.914  30.092   4.341
62780W        W24311  26.952   4.219   1.904
62781W        W24312  41.341   2.782  13.355
62782W        W24313  25.109  44.294   3.701
62783W        W24314   3.853  18.646   3.699
62784W        W24315   1.755  27.967  13.968
62785W        W24316  16.705  30.023  14.903
62786W        W24317  13.779  38.937  13.368
62787W        W24318  32.068   1.257  14.803
62788W        W24319  16.658  33.080  10.891
62789W        W24320  41.419  38.416  14.825
62790W        W24321  27.023  18.142   0.287
62791W        W24322  42.488  10.377  14.280
62792W        W24323  32.536   6.377  10.139
62793W        W24324  21.586  30.587   3.367
62794W        W24325  22.083  28.142  11.951
62795W        W24326  42.366   0.478   2.233
62796W        W24327   8.669  38.361  11.860
62797W        W24328   7.199   8.896   2.720
62798W        W24329  44.367  19.187  14.765
62799W        W24330   8.708  37.899  11.587
62800W        W24331  13.739  43.498   4.827
62801W        W24332   6.719  35.025   0.940
62802W        W24333  29.477   6.842   1.737
62803W        W24334   6.754  39.969   2.833
62804W        W24335   5.211  15.289  12.016
62805W        W24336  19.762  26.208  11.572
62806W        W24337  37.982  31.536  13.924
62807W        W24338   2.456  39.990   0.890
62808W        W24339   3.444   8.813  13.506
62809W        W24340  17.271  36.886   1.771
62810W        W24341  18.081  12.652   4.252
62811W        W24342  13.756   2.366  14.349
62812W        W24343   3.894  30.589  11.407
62813W        W24344  14.271  12.785  13.927
62814W        W24345  23.562  39.538   5.575
62815W        W24346  42.405  29.968   2.201
62816W        W24347   0.297  31.111   1.854
62817W        W24348  26.006  35.956  13.064
62818W        W24349  43.340   6.260  11.937
62819W        W24350  30.979   3.283   0.405
62820W        W24351  37.348  35.869  12.370
62821W        W24352  10.805   8.899  14.954
62822W        W24353  29.001  30.073  11.455
62823W        W24354  22.633  44.824  12.364
62824W        W24355  30.958  15.618   1.812
62825W        W24356  26.596   8.895  11.391
62826W        W24357   5.263   9.867   0.380
62827W        W24358   5.269  25.018   3.216
62828W        W24359  44.950   0.773  10.410
62829W        W24360  21.602  10.724  12.092
62830W        W24361  44.005   1.889   0.276
62831W        W24362  32.557  31.497   2.256
62832W        W24363   5.301  28.150  10.469
62833W        W24364  19.143   4.728  10.527
62834W        W24365  26.046  15.601   2.381
62835W        W24366  41.472  33.386   4.812
62836W        W24367  11.629  44.271   0.450
62837W        W24368  15.249   1.367   3.146
62838W        W24369  43.514  20.189  11.885
62839W        W24370   4.729  37.444  11.605
62840W        W24371  40.394  32.951  11.550
62841W        W24372  35.062  15.235   1.306
62842W        W24373  15.183  44.475  11.518
62843W        W24374  40.361  32.395  14.773
62844W        W24375  43.943  31.470  14.920
62845W        W24376   1.274  21.703   4.681
62846W        W24377  30.558   9.822  13.472
62847W        W24378  34.552  26.699   1.420
62848W        W24379  19.083  20.656   1.913
62849W        W24380   3.805  15.760   9.987
62850W        W24381  35.411   9.250  14.309
62851W        W24382  17.306  25.530   2.833
62852W        W24383  36.968  28.113  14.401
62853W        W24384  34.104  26.530   9.920
62854W        W24385  27.597  33.610  12.989
62855W        W24386  38.850  30.113   2.813
62856W        W24387  20.608  11.165   2.397
62857W        W24388  41.436  27.948  13.937
62858W        W24389   3.809   5.851   2.205
62859W        W24390  17.280  35.396  14.353
62860W        W24391  23.113  27.546   1.905
62861W        W24392   3.340   0.380  14.489
62862W        W24393  13.599  38.984   0.785
62863W        W24394   5.210  44.932   3.701
62864W        W24395  10.155  19.596   1.271
62865W        W24396  22.509  22.162   4.300
62866W        W24397   0.365  32.449   4.150
62867W        W24398  42.995  26.188  10.645
62868W        W24399   0.870  34.492  11.486
62869W        W24400   7.734  44.879   4.186
62870W        W24401  18.223  11.143   2.896
62871W        W24402  12.174  22.194  14.341
62872W        W24403  13.757   8.700   4.211
62873W        W24404  21.637  12.132  11.519
62874W        W24405  43.009   5.931   2.299
62875W        W24406   6.866  30.618   2.392
62876W        W24407  23.097  27.025   3.221
62877W        W24408  42.894  25.527  11.535
62878W        W24409   7.783  31.561   1.315
62879W        W24410  30.433  16.126  10.478
62880W        W24411  24.593  41.008   4.753
62881W        W24412  11.289  25.172  12.892
62882W        W24413  37.383   1.334  11.440
62883W        W24414  34.946  19.688  14.490
62884W        W24415  27.982  10.765  10.404
62885W        W24416  11.172  31.457   0.417
62886W        W24417  16.786  11.159   1.839
62887W        W24418  21.060  11.844  12.527
62888W        W24419  34.054  40.962  11.381
62889W        W24420  37.872  13.301  12.097
62890W        W24421  41.025  43.495  10.415
62891W        W24422  14.685  28.512  11.486
62892W        W24423  40.885  23.084   4.658
62893W        W24424  31.504  29.933  14.994
62894W        W24425  43.967  44.429   3.844
62895W        W24426  40.925   0.407   4.720
62896W        W24427  20.601  44.870  13.034
62897W        W24428  36.497   4.875  12.363
62898W        W24429  31.570  30.057   0.760
62899W        W24430   4.374  28.656  14.351
62900W        W24431  24.699   8.223  14.874
62901W        W24432   5.821  39.361   3.839
62902W        W24433  24.653  31.628  11.596
62903W        W24434  26.507   2.962   3.177
62904W        W24435  23.138   7.692   4.771
62905W        W24436  29.488  29.053   0.760
62906W        W24437  35.946   6.787   3.667
62907W        W24438   1.796  36.032  14.390
62908W        W24439  15.141   9.374  14.424
62909W        W24440   7.814   3.257  14.307
62910W        W24441  34.924   3.886  11.553
62911W        W24442   6.803  21.219  10.578
62912W        W24443  18.581  31.552  12.929
62913W        W24444   7.309   4.699  13.537
62914W        W24445  31.110  39.492  13.842
62915W        W24446  22.619  22.082   2.810
62916W        W24447   8.284   6.741  11.975
62917W        W24448  22.583  11.151   3.695
62918W        W24449  15.230  28.005  13.997
62919W        W24450  44.912  20.547  13.382
62920W        W24451  14.741  24.001  13.445
62921W        W24452  20.098  23.565   2.840
62922W        W24453   8.713  42.964  12.570
62923W        W24454  12.771  21.154   2.230
62924W        W24455   6.249  12.723  14.514
62925W        W24456  39.554  33.125  14.767
62926W        W24457   3.734   0.303   1.717
62927W        W24458  34.960  11.666  11.533
62928W        W24459  17.282   2.814  13.367
62929W        W24460  40.998   5.269   0.757
62930W        W24461  34.896  34.465   1.236
62931W        W24462  18.192   5.757   0.279
62932W        W24463  39.031   4.390   2.801
62933W        W24464  35.381   2.826  12.980
62934W        W24465  19.048  17.173   4.239
62935W        W24466  37.453  30.545   4.785
62936W        W24467  43.925  33.890   2.709
62937W        W24468  15.666   5.871  12.042
62938W        W24469  21.058   6.415   2.812
62939W        W24470  30.527  43.876   2.297
62940W        W24471  12.814  10.836  14.432
62941W        W24472  23.725  11.689  14.790
62942W        W24473  31.032  39.980  10.433
62943W        W24474  18.605   4.286   3.364
62944W        W24475  25.055  31.086   1.276
62945W        W24476  17.075  17.666  11.972
62946W        W24477  37.461  15.163  13.332
62947W        W24478   3.430  24.220   1.868
62948W        W24479  31.460   1.242  13.918
62949W        W24480   0.487  22.252   4.781
62950W        W24481   3.372   6.918  10.546
62951W        W24482  20.092  25.210  12.485
62952W        W24483  22.998   4.868   0.337
62953W        W24484  25.480  22.203   4.758
62954W        W24485  34.432  19.056  13.034
62955W        W24486  12.271  27.129  13.403
62956W        W24487  23.109  42.911  12.543
62957W        W24488  15.250  43.467  10.618
62958W        W24489  37.572  31.644  13.464
62959W        W24490  17.766  22.519   9.964
62960W        W24491   7.229   7.259   2.416
62961W        W24492  16.303  26.987  12.362
62962W        W24493   6.797  10.189   2.858
62963W        W24494   2.883   0.355  10.946
62964W        W24495  30.069  26.070  11.918
62965W        W24496  41.035  29.949  14.864
62966W        W24497  31.069  28.940  11.599
62967W        W24498  42.415  41.873  12.972
62968W        W24499  42.320  20.268   3.206
62969W        W24500   0.313  18.607  13.992
62970W        W24501  38.998  21.220  12.495
62971W        W24502  12.330  13.252   3.281
62972W        W24503  28.146  20.160  12.520
62973W        W24504  34.027  11.780  10.059
62974W        W24505  43.303  43.373   1.872
62975W        W24506  41.960  14.806   0.811
62976W        W24507  40.836  24.109  11.587
62977W        W24508  36.424  19.635  14.424
62978W        W24509  34.869   3.398   3.656
62979W        W24510  27.069   1.468   2.901
62980W        W24511   9.271  26.522  13.534
62981W        W24512  30.646  35.481  11.919
62982W        W24513  31.618   6.761  12.851
62983W        W24514   0.834   3.262  11.524
62984W        W24515  19.167  26.612  11.102
62985W        W24516  36.428  34.944   4.242
62986W        W24517  29.434   5.753   1.744
62987W        W24518  33.029  31.619  12.851
62988W        W24519  11.716  21.687  11.447
62989W        W24520  25.556   4.896   3.269
62990W        W24521  27.020   7.816   5.230
62991W        W24522  21.613   8.356  10.893
62992W        W24523   1.746  44.857  14.995
62993W        W24524  34.469   5.717  13.363
62994W        W24525  18.052  25.613  12.530
62995W        W24526  44.905   5.361   0.751
62996W        W24527  43.998   8.805   4.742
62997W        W24528  24.551  41.808   0.346
62998W        W24529  23.173  41.816  13.039
62999W        W24530  27.638  30.933   2.753
63000W        W24531  13.737  40.043  13.858
63001W        W24532  22.647  24.610   3.792
63002W        W24533  40.027   9.691   0.430
63003W        W24534  23.999   4.918  11.915
63004W        W24535   3.750  42.779  13.011
63005W        W24536  29.983  24.187  14.848
63006W        W24537   6.363   2.726  11.610
63007W        W24538  19.607  26.677   1.839
63008W        W24539   4.940  28.492   0.805
63009W        W24540  16.213  35.986  12.556
63010W        W24541  30.566   2.231  13.386
63011W        W24542   7.703  42.936   4.273
63012W        W24543  41.987  31.643   0.876
63013W        W24544  36.083  43.281   1.716
63014W        W24545   1.947  11.750  12.552
63015W        W24546  43.897  19.051  14.508
63016W        W24547  27.083  13.154   2.899
63017W        W24548  36.968  11.355   1.872
63018W        W24549  44.967  13.285  14.454
63019W        W24550  19.148  34.406   2.243
63020W        W24551   5.315  25.470   1.837
63021W        W24552   9.393  25.595   3.204
63022W        W24553  39.895  18.207  11.469
63023W        W24554   7.204  36.544  12.065
63024W        W24555  41.863  26.606   3.648
63025W        W24556   2.753   4.896   1.921
63026W        W24557  44.463  40.808  14.433
63027W        W24558  38.905  19.279   1.275
63028W        W24559  16.208  32.037  14.916
63029W        W24560  12.269   0.766   1.290
63030W        W24561  39.495   7.768   0.248
63031W        W24562   5.727   9.856  14.419
63032W        W24563  16.261  44.426  13.391
63033W        W24564  38.012  19.109   3.294
63034W        W24565   7.882  26.144   1.726
63035W        W24566  36.479  26.646  11.982
63036W        W24567  44.319   4.784   4.828
63037W        W24568  31.002   4.871   2.843
63038W        W24569  13.607  30.523   0.905
63039W        W24570   8.864  17.642   0.913
63040W        W24571   7.218  44.429  10.447
63041W        W24572   6.184  35.364   2.687
63042W        W24573  39.336   8.351   0.376
63043W        W24574  29.071   0.336   0.811
63044W        W24575   9.870  35.880   1.239
63045W        W24576  27.500   1.856  14.988
63046W        W24577  33.983  35.860  14.438
63047W        W24578  40.391  11.766   4.600
63048W        W24579  36.973   4.309  10.954
63049W        W24580  20.087  16.573  14.307
63050W        W24581  12.613   2.381  11.083
63051W        W24582  11.807  10.674  14.370
63052W        W24583  14.674  30.085   0.370
63053W        W24584  41.351  34.453  11.374
63054W        W24585  18.633  35.910   0.759
63055W        W24586   0.773   7.262   4.124
63056W        W24587   2.460  15.238   2.285
63057W        W24588  16.185   8.846  13.926
63058W        W24589  33.507  16.622   9.474
63059W        W24590  27.639  10.802   3.817
63060W        W24591  42.900  22.685  12.000
63061W        W24592  43.355  23.611  14.310
63062W        W24593  42.340  39.037  11.573
63063W        W24594  34.904  43.794  13.797
63064W        W24595  36.081  11.843  12.940
63065W        W24596  31.092  44.320   1.729
63066W        W24597  36.481  33.497  13.443
63067W        W24598  32.920  21.576  14.455
63068W        W24599  31.969  44.844   1.339
63069W        W24600  24.722   0.817   2.366
63070W        W24601  28.077  29.469  14.982
63071W        W24602  31.119  28.153   2.710
63072W        W24603  12.239  40.343  11.969
63073W        W24604  16.255  38.557  14.960
63074W        W24605  21.182  24.606  10.404
63075W        W24606   3.280   4.247   0.833
63076W        W24607  18.152  42.993   0.829
63077W        W24608  37.371  26.698   0.919
63078W        W24609  42.978  29.647   3.773
63079W        W24610  44.909   8.874  10.900
63080W        W24611  28.074  21.243   1.368
63081W        W24612  12.210  17.646   2.768
63082W        W24613  12.355  41.041   3.826
63083W        W24614  34.585  44.333   0.391
63084W        W24615   2.742  27.083  11.530
63085W        W24616   9.747  11.191   3.217
63086W        W24617  14.747  25.665   3.719
63087W        W24618  15.715  29.500  12.364
63088W        W24619  20.193  17.729  14.348
63089W        W24620  23.084  31.415  12.830
63090W        W24621  11.710   7.865   1.730
63091W        W24622  17.627  35.063  11.457
63092W        W24623  42.399  24.132  14.993
63093W        W24624  27.629   8.900   3.197
63094W        W24625   8.289   6.824  12.380
63095W        W24626  11.677   6.896   3.338
63096W        W24627   2.274  28.181   0.905
63097W        W24628   0.489   8.275   4.196
63098W        W24629  29.562   7.347   2.864
63099W        W24630   9.308  14.122   2.899
63100W        W24631  31.606  39.316  10.415
63101W        W24632  24.194  16.731  13.361
63102W        W24633  26.691  32.420   2.377
63103W        W24634  30.511  15.241   0.879
63104W        W24635  25.570   2.245  11.094
63105W        W24636  29.175  17.190   2.335
63106W        W24637  15.801  41.457  13.889
63107W        W24638  34.066  23.713  14.783
63108W        W24639  36.357  42.012  14.785
63109W        W24640  14.247   8.784   0.387
63110W        W24641   3.319  14.190   0.877
63111W        W24642  40.007   5.755  11.116
63112W        W24643  28.166  33.513  10.575
63113W        W24644  13.167   9.380   3.385
63114W        W24645  41.426  43.795   4.615
63115W        W24646  16.810  42.513   1.342
63116W        W24647  23.235  12.200  12.879
63117W        W24648  44.970  29.173   3.708
63118W        W24649  14.673  39.531   3.249
63119W        W24650  27.576  14.785  14.413
63120W        W24651  12.677  31.507   3.820
63121W        W24652  14.315  41.458  13.811
63122W        W24653  14.326  13.129  14.285
63123W        W24654  40.889  23.044   3.780
63124W        W24655   6.237  15.185   0.379
63125W        W24656   1.822  11.147   0.436
63126W        W24657   4.699  22.238  10.643
63127W        W24658  39.408  25.609  11.941
63128W        W24659   2.453  10.700  11.883
63129W        W24660  41.380  44.357  14.330
63130W        W24661  15.121   1.831   0.317
63131W        W24662  20.678  43.856  10.405
63132W        W24663   2.766  24.988  11.112
63133W        W24664  11.158  20.124   2.381
63134W        W24665  11.680   0.904  13.358
63135W        W24666  27.143  36.945   2.403
63136W        W24667  24.544  29.085  11.525
63137W        W24668  10.856  18.681  14.771
63138W        W24669  10.763  40.896   0.823
63139W        W24670  11.773   7.329  10.584
63140W        W24671   8.234  27.150  13.336
63141W        W24672  24.533  33.121  12.378
63142W        W24673  44.410  36.412  14.759
63143W        W24674  40.934   6.894   0.269
63144W        W24675  10.766   4.901   3.237
63145W        W24676   1.838  19.281  11.557
63146W        W24677  43.777  19.723  10.482
63147W        W24678   4.759  42.326   4.797
63148W        W24679  21.250  36.407   5.124
63149W        W24680   6.820   5.391  12.571
63150W        W24681  43.781   7.322  12.511
63151W        W24682  32.079  40.451   3.797
63152W        W24683  10.235  40.840  12.842
63153W        W24684  25.147   1.812   3.198
63154W        W24685  40.339   1.370   4.150
63155W        W24686  44.782   0.401   4.235
63156W        W24687  36.556  25.505   1.700
63157W        W24688  21.619  40.515  12.090
63158W        W24689  41.465  33.552  10.990
63159W        W24690  19.168   6.237   2.406
63160W        W24691   4.803   2.234  10.902
63161W        W24692   6.211   4.793   0.283
63162W        W24693   0.892  12.259   2.268
63163W        W24694  35.564  40.304   3.320
63164W        W24695   1.744  29.099  13.456
63165W        W24696  34.417  42.481   1.818
63166W        W24697  23.146  13.811  11.020
63167W        W24698  36.436  34.049  11.504
63168W        W24699   6.874  13.717   3.247
63169W        W24700  27.174  35.375  14.002
63170W        W24701  32.400  35.478  11.128
63171W        W24702   9.207   8.881   2.884
63172W        W24703  33.400  24.189  11.543
63173W        W24704   0.829  44.271  12.340
63174W        W24705  16.733  21.669   0.836
63175W        W24706  14.815  35.865   4.726
63176W        W24707  11.776   7.311   0.309
63177W        W24708  24.198  34.419   2.694
63178W        W24709   9.258  24.675  10.975
63179W        W24710  21.201  24.601   3.846
63180W        W24711  43.992   4.268  13.876
63181W        W24712  37.845  37.555   5.236
63182W        W24713  28.975  38.002   2.841
63183W        W24714   5.383  38.905  14.385
63184W        W24715  30.507   4.279   3.186
63185W        W24716  22.501  43.885   0.384
63186W        W24717   0.298   9.346   0.389
63187W        W24718  25.077  36.964   3.377
63188W        W24719   4.885  28.679  14.422
63189W        W24720  36.487  42.972   1.411
63190W        W24721  40.036  32.898   0.413
63191W        W24722  16.232   9.240   2.753
63192W        W24723  12.189   9.394  11.924
63193W        W24724  24.625   4.902   1.924
63194W        W24725  37.538  19.094   4.296
63195W        W24726  43.275  26.473   4.296
63196W        W24727  16.601  43.475  12.979
63197W        W24728   3.281  14.787   3.352
63198W        W24729  24.188  28.940   1.218
63199W        W24730  31.454  17.765   0.402
63200W        W24731  14.828  10.297   2.262
63201W        W24732   8.229  12.258   0.335
63202W        W24733  26.109   4.748  13.515
63203W        W24734  39.447  32.017   0.267
63204W        W24735  38.517  17.673  14.393
63205W        W24736   8.845  30.971   2.673
63206W        W24737  27.124  20.079  11.491
63207W        W24738  40.378  37.455   3.708
63208W        W24739  42.292  38.470  14.004
63209W        W24740   6.724   4.204   4.137
63210W        W24741  41.401   3.804  11.050
63211W        W24742  14.149  26.979   4.827
63212W        W24743  32.029   8.762  12.351
63213W        W24744  13.351  42.291  12.472
63214W        W24745  29.016   0.859   2.894
63215W        W24746  14.721  14.779  11.128
63216W        W24747  27.076   5.259  14.821
63217W        W24748  13.647  44.999   0.455
63218W        W24749  37.425  23.500   9.957
63219W        W24750  39.970  41.897  13.404
63220W        W24751   1.281  37.944  12.918
63221W        W24752   1.923  23.235  10.946
63222W        W24753  32.023  16.789  13.878
63223W        W24754  32.105   3.804   3.708
63224W        W24755  23.647  16.245  13.492
63225W        W24756   5.905  19.106  10.940
63226W        W24757  27.146  14.300  14.875
63227W        W24758  13.323  33.993  14.384
63228W        W24759  23.581  24.110   4.190
63229W        W24760  40.815  17.142  10.422
63230W        W24761  14.737  28.438  12.568
63231W        W24762  39.019  37.355   1.892
63232W        W24763  17.663  39.041  14.511
63233W        W24764  22.519  27.160  10.504
63234W        W24765  36.033  28.542  11.114
63235W        W24766   1.812  22.604   0.349
63236W        W24767  22.024  31.549   3.690
63237W        W24768  44.266   8.785  13.348
63238W        W24769  44.438  30.135   2.900
63239W        W24770   0.426  13.132  11.477
63240W        W24771  44.902   0.301   2.318
63241W        W24772  25.477  18.788   2.785
63242W        W24773  21.027  31.487  14.897
63243W        W24774  15.120  25.976  12.906
63244W        W24775  33.934  39.531   0.936
63245W        W24776  14.609  23.697   1.733
63246W        W24777  22.608  25.468  13.864
63247W        W24778  30.479   2.850  14.866
63248W        W24779  34.901  37.060  14.970
63249W        W24780  14.181  38.355   3.633
63250W        W24781  23.166  15.215  13.038
63251W        W24782   2.252  11.827  11.999
63252W        W24783   2.875   7.786  11.387
63253W        W24784   8.343  25.206   1.432
63254W        W24785  44.456  11.298  13.862
63255W        W24786   3.249   4.940  13.059
63256W        W24787  11.672   4.240   1.843
63257W        W24788  12.678  38.012   4.786
63258W        W24789  13.323  27.686   4.735
63259W        W24790  22.183  14.268   1.880
63260W        W24791  22.013  15.271  12.863
63261W        W24792  28.146  37.444  12.973
63262W        W24793  16.314   4.351   0.871
63263W        W24794  37.900  30.419  14.769
63264W        W24795  32.991  15.124  12.444
63265W        W24796  35.472  33.906   0.287
63266W        W24797  36.489   7.333  12.571
63267W        W24798  22.200  23.194  11.065
63268W        W24799  31.647  29.443  13.491
63269W        W24800  35.538  41.022  12.023
63270W        W24801  36.974  21.089   1.777
63271W        W24802  22.691   1.333   1.276
63272W        W24803  12.762  14.672   0.438
63273W        W24804  13.108  11.165  12.510
63274W        W24805  12.670  33.089  14.327
63275W        W24806  36.557   3.384   2.287
63276W        W24807  16.130  11.807  10.908
63277W        W24808  16.108  27.626   1.450
63278W        W24809   1.478  22.154  14.454
63279W        W24810   2.421  40.505   1.845
63280W        W24811  27.618  15.291   4.603
63281W        W24812  41.795   4.914  11.450
63282W        W24813  20.567  29.116  12.461
63283W        W24814  12.159  35.528   4.743
63284W        W24815  19.201  29.013  11.607
63285W        W24816   6.828   6.851  11.389
63286W        W24817  42.496   0.772   2.868
63287W        W24818  36.459  31.067   4.752
63288W        W24819  14.228   3.274   0.434
63289W        W24820  18.612  16.119  14.810
63290W        W24821   2.792  42.331   2.415
63291W        W24822  17.754  15.305  14.297
63292W        W24823   8.807  39.556  13.906
63293W        W24824  13.192   3.748   0.332
63294W        W24825  19.619  37.050  14.435
63295W        W24826   2.895  27.498  10.924
63296W        W24827  44.783  17.188  10.589
63297W        W24828  18.060  37.975  13.315
63298W        W24829  44.310  20.183  11.926
63299W        W24830   1.911  25.151  13.903
63300W        W24831  43.279  13.208   0.813
63301W        W24832  26.596  31.017   0.760
63302W        W24833  38.923   8.897  14.322
63303W        W24834  23.175  25.518  12.839
63304W        W24835  43.850  37.012   1.736
63305W        W24836  10.867  27.066  14.292
63306W        W24837  32.488  36.979   0.943
63307W        W24838  38.941  31.427   3.300
63308W        W24839  10.196  25.154   2.388
63309W        W24840  18.774  15.689  11.375
63310W        W24841  23.092  42.980  13.485
63311W        W24842  14.793  18.187   9.969
63312W        W24843  40.903  20.545   3.641
63313W        W24844  33.481  38.432  12.425
63314W        W24845  15.620  25.684  13.458
63315W        W24846  33.032   3.293   3.187
63316W        W24847  31.907  19.604  10.634
63317W        W24848  31.049  21.098   5.164
63318W        W24849  41.806   9.772   2.774
63319W        W24850  13.106  32.089  12.544
63320W        W24851   6.786  16.630   0.839
63321W        W24852  34.068  23.240  14.804
63322W        W24853  16.664  15.755  11.976
63323W        W24854  19.240  25.017   1.305
63324W        W24855  15.257  23.664   5.633
63325W        W24856  41.039   6.353   2.290
63326W        W24857  24.195  10.363  12.025
63327W        W24858  21.130  20.532   9.990
63328W        W24859  17.721  20.527  12.390
63329W        W24860  29.519  19.187   1.794
63330W        W24861  40.535  35.901   3.148
63331W        W24862  23.667  42.897   2.671
63332W        W24863  13.615  31.495   1.726
63333W        W24864  12.291   5.750  14.503
63334W        W24865  14.609  39.918   1.244
63335W        W24866  41.508   9.862  14.891
63336W        W24867  12.654   8.671   1.700
63337W        W24868  15.285   6.900   0.249
63338W        W24869   5.690  16.107   0.343
63339W        W24870  38.022  17.089   4.233
63340W        W24871  44.845  37.882   2.794
63341W        W24872  13.727  21.048   3.756
63342W        W24873  18.251  13.314  13.062
63343W        W24874   7.178  35.024  14.906
63344W        W24875   0.954  24.119   2.377
63345W        W24876   2.876  22.240   4.625
63346W        W24877  41.885   7.284  12.938
63347W        W24878  20.113  14.270  10.505
63348W        W24879   3.770  11.144   3.798
63349W        W24880  21.139  42.853   1.708
63350W        W24881  36.996  24.059   0.760
63351W        W24882  22.080  28.060  10.449
63352W        W24883  26.521   6.883   4.715
63353W        W24884  43.917  14.710  10.954
63354W        W24885  23.555   4.216  13.435
63355W        W24886  16.277  34.950   3.308
63356W        W24887  16.234  13.205  11.856
63357W        W24888   1.916  32.138  12.505
63358W        W24889  22.083  13.132   2.358
63359W        W24890  26.053  21.190   4.175
63360W        W24891   0.481   9.677  11.573
63361W        W24892  28.463  26.542  12.913
63362W        W24893   7.802  44.281   0.360
63363W        W24894  20.575   1.881   0.368
63364W        W24895  37.830  40.364  14.298
63365W        W24896   6.792  17.720   4.813
63366W        W24897  23.215  36.958  13.328
63367W        W24898   9.715  22.638   0.412
63368W        W24899  43.772  28.529   4.218
63369W        W24900  16.674  14.125  11.072
63370W        W24901  29.018  32.527   0.276
63371W        W24902   3.406   6.793   1.923
63372W        W24903  32.946  10.152   4.258
63373W        W24904   6.312   4.762   3.855
63374W        W24905  11.649  24.557  10.460
63375W        W24906   9.163  36.991  12.358
63376W        W24907  32.066   1.819  10.611
63377W        W24908  44.340  26.153   4.599
63378W        W24909  24.220  34.451   5.167
63379W        W24910  32.989  20.741   2.768
63380W        W24911  13.790   8.384   0.429
63381W        W24912   0.780  43.318   4.129
63382W        W24913   4.785  13.113   1.801
63383W        W24914  21.241  37.496   3.250
63384W        W24915  42.923  39.384   1.808
63385W        W24916  38.034  30.458   2.274
63386W        W24917   5.236  30.153  11.897
63387W        W24918   1.799  10.203   0.268
63388W        W24919  13.680  18.625  12.484
63389W        W24920  15.175  35.509  12.959
63390W        W24921   9.851  38.823   4.216
63391W        W24922  43.974  17.596   2.684
63392W        W24923  18.728   6.377  13.445
63393W        W24924  42.489  15.135   2.784
63394W        W24925  32.434  29.527   0.325
63395W        W24926  44.388  17.590   4.122
63396W        W24927  29.478  33.586   0.846
63397W        W24928   1.276  38.539  14.761
63398W        W24929  13.620   5.864  10.616
63399W        W24930  29.492  44.311  13.371
63400W        W24931  20.699  23.528  10.945
63401W        W24932  24.111  43.334   2.879
63402W        W24933  15.788   4.880   3.649
63403W        W24934   7.674  13.660   2.351
63404W        W24935  44.950  42.524   0.442
63405W        W24936  20.522  26.600  14.830
63406W        W24937  33.982   4.777   4.789
63407W        W24938  27.091  27.001   1.428
63408W        W24939  27.172  10.362  11.585
63409W        W24940  11.342   3.340   4.715
63410W        W24941  17.093   4.393  11.545
63411W        W24942   8.791   5.749  10.598
63412W        W24943  34.950  37.856  14.827
63413W        W24944  22.236  17.705   2.253
63414W        W24945  19.593   7.883   0.803
63415W        W24946  41.357   2.853  14.019
63416W        W24947  31.492   6.253  11.560
63417W        W24948  25.472  15.233  11.548
63418W        W24949   2.958  44.410  13.846
63419W        W24950  23.239   7.885  14.934
63420W        W24951  21.656  44.341   4.632
63421W        W24952  10.296  14.098   4.234
63422W        W24953  15.657  41.336  14.952
63423W        W24954  33.100   9.231   3.274
63424W        W24955  19.049  33.003  11.015
63425W        W24956  14.280  16.301  14.801
63426W        W24957   0.976   3.332   5.297
63427W        W24958  43.802  44.479  12.505
63428W        W24959  18.291  14.663  14.482
63429W        W24960  38.838  10.341   1.370
63430W        W24961   1.276  36.008   3.233
63431W        W24962  18.666   5.827   2.693
63432W        W24963  30.557  38.351  10.524
63433W        W24964   4.771   0.875  11.017
63434W        W24965   8.354  34.004   4.148
63435W        W24966  14.634  23.502   2.268
63436W        W24967  19.749  11.806  11.603
63437W        W24968  37.928  41.958   0.424
63438W        W24969  40.840  30.926  12.438
63439W        W24970  16.237  23.096   0.933
63440W        W24971  44.400  23.091   2.415
63441W        W24972   0.850  43.795  11.861
63442W        W24973  29.096  41.040   4.605
63443W        W24974  19.063   8.219   0.243
63444W        W24975  42.814  11.228  12.000
63445W        W24976  15.171   4.323  12.407
63446W        W24977   3.226  32.099  13.795
63447W        W24978  28.669  27.473  13.434
63448W        W24979  30.086  39.510  11.051
63449W        W24980   0.390  35.953   3.736
63450W        W24981  11.356  28.517  12.033
63451W        W24982  33.984   0.969  12.357
63452W        W24983  44.269  17.578   4.828
63453W        W24984  15.258  12.779  12.460
63454W        W24985  37.939   8.362  11.999
63455W        W24986  36.873   3.429   1.703
63456W        W24987  16.726  10.697  14.008
63457W        W24988  15.675  18.754   0.737
63458W        W24989   4.369  30.441   3.146
63459W        W24990   5.805  41.338   1.336
63460W        W24991  28.118   0.443   9.980
63461W        W24992  29.141   4.889  12.422
63462W        W24993  34.435  14.339  11.031
63463W        W24994  42.322  33.511   3.234
63464W        W24995  37.579  13.658   1.278
63465W        W24996   1.903  14.728   0.816
63466W        W24997  26.668  39.960  12.961
63467W        W24998  36.405  32.910   0.345
63468W        W24999  38.842   2.446   2.685
63469W        W25000  22.604  25.019  11.411
63470W        W25001  24.499  26.481   4.347
63471W        W25002  33.092  28.499   4.168
63472W        W25003   0.272  32.080  10.447
63473W        W25004  16.722   3.758  14.292
63474W        W25005  10.174  27.011  13.931
63475W        W25006  15.601  42.484  11.588
63476W        W25007   5.310  32.571   3.789
63477W        W25008  22.743  10.222  11.054
63478W        W25009  11.800   4.929   3.290
63479W        W25010  19.272  44.861   2.366
63480W        W25011   9.753  38.552  13.429
63481W        W25012   0.819  23.568  12.350
63482W        W25013  26.027   6.334  12.490
63483W        W25014  24.100  22.063   3.856
63484W        W25015  13.154   4.929  14.994
63485W        W25016  10.230   3.322   4.254
63486W        W25017  29.447  42.918  11.891
63487W        W25018   3.868  33.038  11.892
63488W        W25019   8.662  28.649  12.394
63489W        W25020  21.104  41.538  10.967
63490W        W25021  30.471   1.792  12.353
63491W        W25022   5.890  16.254   2.243
63492W        W25023  13.319   2.257   3.866
63493W        W25024  38.064  25.685  10.445
63494W        W25025   3.937   2.273  14.394
63495W        W25026   2.264  36.066  14.275
63496W        W25027  43.285  40.986   0.884
63497W        W25028  34.003   3.950   3.657
63498W        W25029   5.729  38.452   2.352
63499W        W25030   4.808  15.791  14.404
63500W        W25031  27.495  43.841  14.431
63501W        W25032  34.394  19.647   5.254
63502W        W25033  17.613  25.196   4.658
63503W        W25034  28.613  19.228   4.647
63504W        W25035  15.588  39.906  14.895
63505W        W25036   4.729  32.129  12.569
63506W        W25037  18.663  31.410  14.978
63507W        W25038  37.954  32.501   2.858
63508W        W25039  40.009  37.057  12.353
63509W        W25040  27.626   3.267  11.570
63510W        W25041  25.600  12.347   3.796
63511W        W25042   4.891  17.683   2.788
63512W        W25043  41.003  19.583   1.220
63513W        W25044  40.448  40.016  10.437
63514W        W25045  21.559   9.865  14.768
63515W        W25046  11.322  16.183  12.381
63516W        W25047  27.496  21.545   4.193
63517W        W25048   1.851  15.707   0.904
63518W        W25049  41.478  10.210   2.807
63519W        W25050  19.644  30.641   1.318
63520W        W25051  31.534  32.041   3.784
63521W        W25052  16.661  23.194  12.827
63522W        W25053  39.031  42.837   1.807
63523W        W25054  13.165  32.971  13.004
63524W        W25055  41.897  32.472  14.827
63525W        W25056  21.567  34.945  13.929
63526W        W25057  44.500   1.264   2.821
63527W        W25058  39.384  41.312   0.809
63528W        W25059  23.611  42.877   1.826
63529W        W25060  30.580  14.239   3.289
63530W        W25061  35.604   1.840   1.899
63531W        W25062  34.095  19.597  12.938
63532W        W25063   7.790  27.150  10.989
63533W        W25064   9.222  21.675  11.030
63534W        W25065  32.005  43.302  11.567
63535W        W25066  28.128  43.864  13.964
63536W        W25067   1.261  18.563  13.032
63537W        W25068   7.221  36.997   0.368
63538W        W25069   7.331   9.884   4.265
63539W        W25070  25.066  23.497   4.255
63540W        W25071  35.391  39.376   3.835
63541W        W25072  10.852  26.668  14.818
63542W        W25073  21.056  35.079   1.805
63543W        W25074  43.312  25.679   2.239
63544W        W25075  36.975  35.376   1.385
63545W        W25076  32.435   8.209   5.704
63546W        W25077  32.575   6.268  10.974
63547W        W25078  25.593  28.974  14.010
63548W        W25079   1.907  18.597   1.369
63549W        W25080  23.040  19.205  10.982
63550W        W25081  23.025  11.342  11.873
63551W        W25082  27.460  23.547  14.399
63552W        W25083  32.621  20.623  12.083
63553W        W25084   3.382  41.389   1.823
63554W        W25085  17.088  16.800   3.292
63555W        W25086  42.517   2.920  12.013
63556W        W25087  11.277   7.833   2.286
63557W        W25088  17.213  33.467  12.346
63558W        W25089  35.369  32.935   0.874
63559W        W25090   4.855  21.742   4.818
63560W        W25091  44.269   6.262   5.102
63561W        W25092  10.372  35.076   0.482
63562W        W25093  40.801  42.915   5.175
63563W        W25094  40.396  38.877  14.780
63564W        W25095  28.089  43.368  10.481
63565W        W25096  24.144  10.346   1.717
63566W        W25097   5.231  40.817  13.537
63567W        W25098   9.368  31.104  11.063
63568W        W25099   0.833   3.444  13.798
63569W        W25100  25.053  43.399   5.107
63570W        W25101  13.341  40.453   2.260
63571W        W25102  30.975  39.916  13.049
63572W        W25103  25.001  11.628   4.240
63573W        W25104  24.517  27.087   2.806
63574W        W25105  15.706  12.676   0.435
63575W        W25106   7.325   1.867  14.967
63576W        W25107  34.028  13.222  14.855
63577W        W25108  18.190  36.011   2.362
63578W        W25109  13.302   5.363   1.287
63579W        W25110  29.947   7.378  11.910
63580W        W25111  20.076  18.051   3.849
63581W        W25112  31.981  13.223  13.405
63582W        W25113  28.987  30.068   0.428
63583W        W25114  39.982  22.061   2.344
63584W        W25115  19.592  40.414  11.113
63585W        W25116  30.936  35.474   1.379
63586W        W25117  28.642  37.980   0.290
63587W        W25118   4.944  37.427  14.391
63588W        W25119   2.289  26.160  14.787
63589W        W25120   6.287   8.743   2.239
63590W        W25121  31.421  25.133  10.923
63591W        W25122  36.381  22.055   0.944
63592W        W25123  37.577   2.247  12.910
63593W        W25124  41.327  25.492   3.323
63594W        W25125   4.944  17.674   2.231
63595W        W25126   0.300  42.776  12.846
63596W        W25127   8.304  14.775   2.701
63597W        W25128  19.764  18.637  10.407
63598W        W25129  11.799  11.863  10.626
63599W        W25130  13.199  14.677   1.227
63600W        W25131  13.817  29.055   4.151
63601W        W25132   6.820   7.417  14.981
63602W        W25133  12.202  29.056   2.213
63603W        W25134  31.965  32.087   0.388
63604W        W25135  28.973  11.137  13.387
63605W        W25136  14.729  24.180   3.714
63606W        W25137  44.446  33.997  11.884
63607W        W25138  42.393  38.468   0.798
63608W        W25139  12.241  14.127   4.648
63609W        W25140  20.049  24.524   5.791
63610W        W25141   6.805  19.115  14.905
63611W        W25142  26.668  19.245   5.218
63612W        W25143  37.833  37.884   4.779
63613W        W25144  26.597  34.605  12.879
63614W        W25145  10.282  23.164  11.875
63615W        W25146  25.165  32.409  10.569
63616W        W25147   7.888  39.011   4.230
63617W        W25148  24.528  30.940   0.372
63618W        W25149  43.402   0.913   3.705
63619W        W25150  30.012  25.210  11.387
63620W        W25151  13.775  24.630  12.915
63621W        W25152  10.378   9.862   5.290
63622W        W25153  10.667   0.458   4.609
63623W        W25154   8.714  17.577  10.419
63624W        W25155  12.622  13.675  13.845
63625W        W25156  17.611  37.012  11.024
63626W        W25157  33.541   2.401  10.152
63627W        W25158   9.679  44.416   3.810
63628W        W25159  44.839  35.965  12.442
63629W        W25160  14.136  13.211  10.608
63630W        W25161   0.379  21.721   1.312
63631W        W25162  40.922  39.514   4.210
63632W        W25163  16.716  40.546  12.532
63633W        W25164  21.587   9.203   3.747
63634W        W25165  31.994   5.897  13.997
63635W        W25166  22.554  31.071  12.392
63636W        W25167   1.440  37.486   5.285
63637W        W25168  23.706  42.414  11.004
63638W        W25169  22.191  39.504   1.737
63639W        W25170  29.460  41.014  14.371
63640W        W25171  36.561  14.249  11.016
63641W        W25172  20.642  33.577  11.919
63642W        W25173  44.466  32.024  14.874
63643W        W25174  42.916  24.595  11.110
63644W        W25175  25.105  38.953   0.483
63645W        W25176  31.978  22.592  13.357
63646W        W25177  16.133  38.897   1.406
63647W        W25178  26.693  31.513   3.278
63648W        W25179  33.077  24.070  10.950
63649W        W25180   6.819  15.816   2.311
63650W        W25181  13.704   7.364  12.014
63651W        W25182  22.235  15.730  11.021
63652W        W25183  39.361  16.256  11.922
63653W        W25184  34.554  24.675   3.643
63654W        W25185   5.414   2.454  12.562
63655W        W25186  15.678  19.185   2.259
63656W        W25187   6.277  15.323  11.513
63657W        W25188  16.573   4.299  12.900
63658W        W25189  14.668  25.220  13.308
63659W        W25190  17.162  32.945   4.251
63660W        W25191  37.840   9.233  12.875
63661W        W25192  44.833   3.357  14.851
63662W        W25193  14.803  16.766   4.805
63663W        W25194   3.383  40.966   3.182
63664W        W25195  23.555  33.009   1.230
63665W        W25196  36.975  30.451   2.895
63666W        W25197   9.750  42.475  12.856
63667W        W25198  12.248  43.807   3.355
63668W        W25199   0.328  27.019  11.044
63669W        W25200  41.927   1.799  12.370
63670W        W25201   1.833  22.511   4.159
63671W        W25202  16.786  21.205   1.226
63672W        W25203  15.235  34.601  13.308
63673W        W25204  32.628  44.007   3.637
63674W        W25205  32.618  41.943   3.828
63675W        W25206  27.683   9.358   3.743
63676W        W25207  23.083   0.351   0.455
63677W        W25208   2.419  32.934  12.523
63678W        W25209  17.087  19.758  11.515
63679W        W25210   6.313  35.591   0.319
63680W        W25211  38.842   4.795  14.959
63681W        W25212  31.071  42.475  13.855
63682W        W25213  37.868  13.741   4.740
63683W        W25214   9.216  19.667   3.346
63684W        W25215  10.239  17.592   3.232
63685W        W25216  27.174  25.091   2.853
63686W        W25217   7.251  23.593  10.967
63687W        W25218  18.135   6.730  10.904
63688W        W25219  11.281   6.866  12.977
63689W        W25220  37.932  43.774  14.867
63690W        W25221  23.158  16.656  14.920
63691W        W25222  29.038   6.245  12.931
63692W        W25223   0.786  26.556  14.390
63693W        W25224  19.673  16.238  13.375
63694W        W25225  33.947  24.614  11.447
63695W        W25226  30.997   8.321   4.196
63696W        W25227  20.198  35.051   1.850
63697W        W25228  43.799  21.646   1.401
63698W        W25229   0.262  22.657  10.998
63699W        W25230  29.076   7.705   3.832
63700W        W25231  42.353   1.959  10.627
63701W        W25232   3.215  31.149   2.317
63702W        W25233  19.252  32.544  12.580
63703W        W25234  21.698   6.904  12.369
63704W        W25235  14.182  13.229   0.858
63705W        W25236  42.832  20.603   0.833
63706W        W25237  29.580  21.689  13.351
63707W        W25238  17.723  17.271  12.430
63708W        W25239  16.733  35.915  14.820
63709W        W25240  13.647   8.374  13.431
63710W        W25241  44.470   6.345  12.035
63711W        W25242  20.094  40.310  13.926
63712W        W25243  43.014  22.509   0.358
63713W        W25244  31.635  27.634  14.918
63714W        W25245  14.703  26.039  12.001
63715W        W25246   5.698  10.722  10.588
63716W        W25247  40.000  18.581  12.454
63717W        W25248  35.868  29.965   0.738
63718W        W25249  35.530  30.467   1.708
63719W        W25250  26.489  30.578   1.904
63720W        W25251  22.140  36.864  12.944
63721W        W25252  27.982   4.783  13.413
63722W        W25253   2.948   8.655   3.234
63723W        W25254  20.604  26.007   2.836
63724W        W25255  44.933  26.685  13.480
63725W        W25256  11.684  28.093  14.479
63726W        W25257   9.750  34.488   0.400
63727W        W25258  20.651  43.501  11.480
63728W        W25259  24.517  14.754   4.353
63729W        W25260  41.508   1.261  10.630
63730W        W25261  28.116  44.403  10.977
63731W        W25262  29.664  31.987  13.448
63732W        W25263  20.657  14.179  11.861
63733W        W25264   6.333  11.215   3.256
63734W        W25265  25.471   6.912   3.240
63735W        W25266  17.775   7.831  11.590
63736W        W25267  16.725   7.863   2.691
63737W        W25268   5.243  36.911   2.317
63738W        W25269  17.649  19.258  14.794
63739W        W25270  30.626  28.449  12.387
63740W        W25271  14.146   9.250  14.414
63741W        W25272  43.876  20.121   3.861
63742W        W25273   4.803  32.966   3.843
63743W        W25274  27.172  17.212   0.961
63744W        W25275  30.535   7.300   4.667
63745W        W25276   0.400  35.941   2.851
63746W        W25277   1.376  34.571   1.417
63747W        W25278  28.988  28.601   0.267
63748W        W25279  30.564   1.916   3.723
63749W        W25280  14.767  15.159   3.269
63750W        W25281   6.853  26.543   0.764
63751W        W25282  12.140  17.190  14.478
63752W        W25283  30.579  17.589   1.823
63753W        W25284  38.859  18.559  12.904
63754W        W25285  15.192   0.393   4.288
63755W        W25286   6.689  17.072   4.233
63756W        W25287  18.687  29.041  13.345
63757W        W25288  36.486   8.283   1.339
63758W        W25289  34.422  11.843   0.335
63759W        W25290  24.718  25.552   1.299
63760W        W25291  23.603  16.749  12.433
63761W        W25292  29.653  19.633  11.063
63762W        W25293   3.786   1.793   4.819
63763W        W25294  21.574  43.780   0.396
63764W        W25295   0.835   8.690  13.941
63765W        W25296  24.188  34.028   3.381
63766W        W25297  29.527   0.885   4.277
63767W        W25298  12.355  28.153  13.493
63768W        W25299  23.565  14.160   3.711
63769W        W25300   0.834  15.678  12.014
63770W        W25301  18.218  11.724   1.873
63771W        W25302  32.963  19.566  12.526
63772W        W25303  41.965  31.477  10.517
63773W        W25304  38.389  23.219  14.789
63774W        W25305  15.818   3.756  11.077
63775W        W25306  13.216   6.769  11.469
63776W        W25307  35.445  23.145   2.748
63777W        W25308   8.340   8.805   0.795
63778W        W25309  14.796  24.630   0.422
63779W        W25310  42.335  15.674  14.850
63780W        W25311  40.926  37.419  14.386
63781W        W25312  17.150  15.207  10.505
63782W        W25313  21.108  22.118  14.814
63783W        W25314  29.440   9.366   0.902
63784W        W25315  19.713  36.538   1.802
63785W        W25316  29.038  21.184  14.819
63786W        W25317   1.964  19.205  11.094
63787W        W25318  39.876  26.567  13.877
63788W        W25319  24.038  40.316   2.193
63789W        W25320  42.009  11.644   3.369
63790W        W25321  41.906  44.981   1.787
63791W        W25322  20.617  25.607   1.706
63792W        W25323  39.382  12.657  11.398
63793W        W25324   7.724  37.941  13.514
63794W        W25325   2.946  25.680   9.993
63795W        W25326  37.915  33.516   4.766
63796W        W25327  33.537   5.912  13.525
63797W        W25328  40.933   9.360  10.515
63798W        W25329  16.266   4.866   4.226
63799W        W25330  40.893  32.614  13.016
63800W        W25331  30.044  41.796   2.275
63801W        W25332  36.418   4.411  11.104
63802W        W25333  22.736   4.235   0.380
63803W        W25334  14.676  17.161  12.349
63804W        W25335  16.172  16.215  10.472
63805W        W25336  43.363  37.846   3.288
63806W        W25337  40.938  17.642   3.242
63807W        W25338  20.072  42.488   2.285
63808W        W25339   6.242  15.665   2.215
63809W        W25340  17.100  20.703  12.441
63810W        W25341  41.477   4.317  12.427
63811W        W25342  11.703   5.763   4.289
63812W        W25343   0.415  32.448  13.842
63813W        W25344   1.820  19.249   0.765
63814W        W25345  35.460  37.478   3.691
63815W        W25346  41.453  30.501  10.639
63816W        W25347  36.441  14.611   1.273
63817W        W25348  40.913  16.083   4.211
63818W        W25349   7.380  32.082   3.757
63819W        W25350  37.406  14.200   5.257
63820W        W25351  14.824  36.564   2.686
63821W        W25352  26.053  15.136   1.341
63822W        W25353  37.479  37.531  11.869
63823W        W25354  40.512  27.560  10.414
63824W        W25355  26.695  33.513   2.843
63825W        W25356  31.130   4.729  11.005
63826W        W25357  17.073  42.381  13.994
63827W        W25358  18.227  13.112  11.392
63828W        W25359   3.758  34.964  14.413
63829W        W25360   9.791  30.104   1.815
63830W        W25361  13.763   1.732  10.492
63831W        W25362  43.401  43.812  12.886
63832W        W25363  21.173   0.752  13.927
63833W        W25364   1.305   2.781  12.084
63834W        W25365  26.107  28.479   4.197
63835W        W25366  34.075  32.450  10.936
63836W        W25367  43.393   7.851   2.363
63837W        W25368   9.648  10.265   3.847
63838W        W25369  29.152  35.963   3.318
63839W        W25370   1.242  40.332  13.925
63840W        W25371  16.168  26.060   0.841
63841W        W25372   8.690  17.692  12.365
63842W        W25373  42.963  41.379  12.360
63843W        W25374   1.872   3.258  11.563
63844W        W25375   7.202  23.047   0.750
63845W        W25376  29.525  14.340   5.172
63846W        W25377  26.143  10.181  14.871
63847W        W25378  19.612  38.335  10.926
63848W        W25379  18.605  33.601   1.418
63849W        W25380  44.461  37.572  13.508
63850W        W25381  17.636  11.621  14.984
63851W        W25382  41.910  35.424  14.427
63852W        W25383  23.086   4.837   2.369
63853W        W25384  16.307   6.313   1.320
63854W        W25385  17.299  21.249   0.820
63855W        W25386   6.685   2.424   3.321
63856W        W25387   6.215   8.881  10.011
63857W        W25388  16.737  23.531  11.876
63858W        W25389  14.115  19.168  12.528
63859W        W25390  33.510  42.844   1.289
63860W        W25391  39.530  12.610   4.119
63861W        W25392  11.657  24.097  13.465
63862W        W25393  29.019  38.066  12.863
63863W        W25394  19.534   5.861   4.128
63864W        W25395   4.942  33.611  11.393
63865W        W25396   4.263   4.333   4.226
63866W        W25397  15.184   7.291  12.868
63867W        W25398  28.588   5.875  12.514
63868W        W25399   2.235  42.403   0.827
63869W        W25400  32.587  12.618   3.254
63870W        W25401  16.800  15.171   3.804
63871W        W25402  39.445   4.321   0.378
63872W        W25403  17.280   2.343   3.643
63873W        W25404  13.607   0.460  11.431
63874W        W25405  32.065  29.595   2.374
63875W        W25406  15.779  44.362  14.899
63876W        W25407  13.313  19.104   0.465
63877W        W25408  24.151  40.890   1.215
63878W        W25409   8.329  41.493  10.893
63879W        W25410  14.600  24.660   4.314
63880W        W25411  30.553  17.227  11.918
63881W        W25412  24.987   4.896   3.308
63882W        W25413  41.824  44.959  14.483
63883W        W25414   9.651  19.748  10.614
63884W        W25415  29.141   5.886  14.461
63885W        W25416  44.884  16.651  11.041
63886W        W25417  39.317  35.868   2.796
63887W        W25418  41.816  16.225   1.439
63888W        W25419   2.233  24.495  14.350
63889W        W25420  34.080  12.152   0.293
63890W        W25421  30.039  35.486   3.340
63891W        W25422  25.712  19.603  12.865
63892W        W25423  11.810   1.964   2.404
63893W        W25424  33.095  25.073   0.291
63894W        W25425  14.228  41.295  12.571
63895W        W25426  23.203  15.221  10.604
63896W        W25427  14.164  22.589  11.484
63897W        W25428  22.161  28.095   3.305
63898W        W25429   7.817  18.679  10.602
63899W        W25430  43.958   5.336   3.217
63900W        W25431  37.470  30.562   3.324
63901W        W25432   0.783  21.048   4.242
63902W        W25433  23.688  16.663   4.597
63903W        W25434   9.888  27.039   0.289
63904W        W25435  43.501  30.451  11.022
63905W        W25436  34.974  28.636  14.928
63906W        W25437  42.346   5.759  11.584
63907W        W25438  30.607  32.983  14.773
63908W        W25439  14.305  31.128  13.038
63909W        W25440  33.971  15.692   0.965
63910W        W25441  19.588  32.521   2.784
63911W        W25442  29.130   4.292   4.743
63912W        W25443  23.598  19.076  10.994
63913W        W25444  29.569  34.971   1.350
63914W        W25445   8.211  30.966   3.663
63915W        W25446  18.276  26.065   3.856
63916W        W25447  27.961   6.803   0.421
63917W        W25448  42.464  15.208   0.853
63918W        W25449  40.539  19.746  12.576
63919W        W25450   2.348   7.689   2.314
63920W        W25451  12.161  35.972   3.211
63921W        W25452  43.384   9.319  13.844
63922W        W25453  36.517  34.088   3.235
63923W        W25454   6.237  41.496   2.707
63924W        W25455   6.408  24.707   1.254
63925W        W25456  16.182  26.027  12.518
63926W        W25457  31.415  26.616  10.528
63927W        W25458  42.855  30.164  11.938
63928W        W25459  36.032  34.099  13.064
63929W        W25460   7.173  24.564  10.431
63930W        W25461  28.106   3.755  14.996
63931W        W25462   8.838  25.216  11.445
63932W        W25463  15.235   8.398   1.803
63933W        W25464  20.737  41.293   3.654
63934W        W25465  44.983  15.293   1.766
63935W        W25466  12.856  30.416   2.861
63936W        W25467  42.505  20.263   1.803
63937W        W25468   8.778  22.643   1.220
63938W        W25469   8.231  22.614  11.599
63939W        W25470  16.799   1.843   0.739
63940W        W25471   3.841   1.765  10.416
63941W        W25472  35.521  16.134   1.800
63942W        W25473  15.791  11.701  10.955
63943W        W25474   1.743  36.397   4.264
63944W        W25475  35.084  39.549   5.180
63945W        W25476  11.686   8.345   3.278
63946W        W25477   7.690  19.058   2.692
63947W        W25478  12.664   2.280  14.500
63948W        W25479  33.405  44.946   4.624
63949W        W25480  17.162  13.682  11.439
63950W        W25481  37.582  36.444   2.306
63951W        W25482  25.558  17.252   1.771
63952W        W25483   8.169   9.729   1.226
63953W        W25484  42.420  20.143  14.990
63954W        W25485  19.699  20.621  14.881
63955W        W25486  17.073  37.069  14.396
63956W        W25487   3.753  19.562  10.065
63957W        W25488  10.367  12.638  11.419
63958W        W25489   1.273   4.849  13.316
63959W        W25490  34.374  24.068   0.825
63960W        W25491  21.134   8.284   3.255
63961W        W25492  23.651  17.675  11.880
63962W        W25493  44.930  26.604  11.006
63963W        W25494  17.166  43.842  13.496
63964W        W25495  18.295  21.735   2.840
63965W        W25496  23.178  21.651  14.861
63966W        W25497  38.941  27.946  11.937
63967W        W25498  25.664  25.016   4.805
63968W        W25499   9.192  24.623  13.862
63969W        W25500   3.929   3.379   4.692
63970W        W25501  14.592  21.676   2.339
63971W        W25502   1.892  23.624   4.321
63972W        W25503  15.687  25.474   3.332
63973W        W25504   8.898   5.276   0.298
63974W        W25505  29.161  42.783   0.794
63975W        W25506  23.625   0.975   3.342
63976W        W25507  20.122  30.026   2.256
63977W        W25508   1.946   0.322  12.413
63978W        W25509   1.967  40.518   1.745
63979W        W25510  37.427   3.388  12.540
63980W        W25511  36.443   4.416  14.380
63981W        W25512   3.947  40.956   1.764
63982W        W25513  12.703   0.355   3.755
63983W        W25514  17.654   7.775   2.730
63984W        W25515  19.268  35.409   0.416
63985W        W25516  43.340   9.353  12.077
63986W        W25517  42.475   6.805  12.473
63987W        W25518   8.711   1.872  14.950
63988W        W25519  41.974  20.247  10.542
63989W        W25520  15.095   4.823  12.531
63990W        W25521  10.750  35.924  13.407
63991W        W25522   9.711  37.855  12.966
63992W        W25523  13.166  21.086   5.150
63993W        W25524  21.124  14.288   2.702
63994W        W25525   3.887  12.657   1.307
63995W        W25526   3.719  43.765   2.850
63996W        W25527  17.638  20.212  13.480
63997W        W25528  17.579  43.436  11.378
63998W        W25529  35.601  14.601  13.908
63999W        W25530  43.370   6.757   1.831
64000W        W25531  13.236  21.517   3.706
64001W        W25532  34.078  37.928   0.762
64002W        W25533  29.004   3.884  12.870
64003W        W25534  14.821  38.365   0.410
64004W        W25535  11.695  42.368   2.780
64005W        W25536   3.911  40.489  14.348
64006W        W25537   7.407  33.565   3.292
64007W        W25538  24.511   8.685  14.978
64008W        W25539  19.131  24.506   2.413
64009W        W25540  25.966  41.941   0.309
64010W        W25541   5.320   3.763   4.242
64011W        W25542  22.027  35.030  13.517
64012W        W25543  37.974  41.348  12.475
64013W        W25544  22.540  42.828  11.561
64014W        W25545  43.944  19.187  11.411
64015W        W25546  37.052   4.835   0.935
64016W        W25547  39.036   4.244  13.443
64017W        W25548  39.466  18.577  11.097
64018W        W25549  41.498  29.044   1.294
64019W        W25550  17.570  43.501  13.536
64020W        W25551  30.987  26.464   9.995
64021W        W25552  31.429  38.455  12.933
64022W        W25553   9.363  41.897   1.344
64023W        W25554  26.518   7.880  14.829
64024W        W25555  24.039  28.983   0.930
64025W        W25556   9.299  17.636  10.623
64026W        W25557  13.156  40.831   1.246
64027W        W25558  25.120  38.410  13.010
64028W        W25559   6.310  30.559   1.837
64029W        W25560   9.884  31.545   4.180
64030W        W25561   6.728  33.526   4.748
64031W        W25562  25.974  36.586  13.389
64032W        W25563  24.152  13.618   1.283
64033W        W25564  29.534  26.043  13.361
64034W        W25565   6.915   2.782   0.904
64035W        W25566  29.562  33.920  12.414
64036W        W25567  29.021  40.867  13.837
64037W        W25568  27.681  30.598   4.621
64038W        W25569   4.781  12.279  14.367
64039W        W25570   9.306  25.575   0.314
64040W        W25571  31.052  25.502   4.227
64041W        W25572  38.530  34.399  10.949
64042W        W25573  18.566   3.323  14.807
64043W        W25574  30.485  30.573  14.469
64044W        W25575  40.441  38.949   1.863
64045W        W25576   4.333   8.781  14.900
64046W        W25577  18.256  13.138   3.815
64047W        W25578  27.004  44.878  13.369
64048W        W25579  29.624   4.434  10.462
64049W        W25580   4.701  12.217  10.945
64050W        W25581  27.682  22.726   1.899
64051W        W25582  22.146  41.985   5.312
64052W        W25583  13.200  33.025  13.958
64053W        W25584  30.024  11.163  11.108
64054W        W25585  25.650  16.649  12.024
64055W        W25586  33.005  16.675   1.296
64056W        W25587  36.475   7.871  11.437
64057W        W25588  17.256  19.052   4.708
64058W        W25589  43.451  20.725  12.554
64059W        W25590  41.010  10.645   5.241
64060W        W25591  10.184  37.884  11.406
64061W        W25592  16.216   2.862  12.927
64062W        W25593  25.188  19.678   0.381
64063W        W25594  34.060  27.467   4.155
64064W        W25595  10.756  38.993   2.863
64065W        W25596  42.826  37.517   2.724
64066W        W25597  18.213  33.899  12.989
64067W        W25598  35.495  12.295  10.453
64068W        W25599  20.689   8.729  13.027
64069W        W25600   6.761   9.755  12.551
64070W        W25601   9.316  41.897  13.806
64071W        W25602  35.405  41.985  12.378
64072W        W25603  19.757  35.587  11.383
64073W        W25604  10.844  33.978   2.225
64074W        W25605  33.012  42.948  13.939
64075W        W25606  17.100  40.540   9.931
64076W        W25607  33.091  35.993  11.419
64077W        W25608  29.975  21.018  14.795
64078W        W25609   7.231  39.370   4.255
64079W        W25610  25.171  21.076   0.957
64080W        W25611  25.612  40.044   3.232
64081W        W25612  16.766  43.458  14.514
64082W        W25613  38.556   3.348  11.989
64083W        W25614  43.925  14.721  14.005
64084W        W25615  36.429  17.089   4.605
64085W        W25616  37.039   3.750  11.441
64086W        W25617  44.983   7.825  11.524
64087W        W25618  39.837  35.420   0.819
64088W        W25619  11.266  28.963   2.853
64089W        W25620  43.443  34.950   4.671
64090W        W25621  16.072  28.630   0.324
64091W        W25622   5.708  21.109  11.098
64092W        W25623  23.585  40.401   3.778
64093W        W25624  40.936  42.849  11.041
64094W        W25625  21.535  41.339   4.156
64095W        W25626  23.086  19.617  11.577
64096W        W25627   8.292  38.384   4.142
64097W        W25628   1.738  34.504  14.824
64098W        W25629  11.816  35.914  13.989
64099W        W25630  26.480  31.646   4.233
64100W        W25631  29.995  22.712   0.321
64101W        W25632   0.958  12.775   4.246
64102W        W25633   3.864  42.300   0.295
64103W        W25634  12.717  43.875  14.809
64104W        W25635   1.368  19.539   0.262
64105W        W25636  13.698  18.777  10.584
64106W        W25637  34.097  44.320   1.227
64107W        W25638   2.289  38.951   2.682
64108W        W25639  42.031  15.131   3.786
64109W        W25640   6.811  16.657  14.323
64110W        W25641   0.779  44.812   3.341
64111W        W25642  12.234   8.345  12.855
64112W        W25643  12.260  44.789  13.337
64113W        W25644   2.369  19.767  13.513
64114W        W25645  16.167  16.689  14.484
64115W        W25646  33.419  13.600  14.486
64116W        W25647  44.269  21.615   4.680
64117W        W25648  29.426  35.037   3.386
64118W        W25649  32.120  20.145  13.318
64119W        W25650  31.112  16.677   0.921
64120W        W25651  31.068   0.845   0.291
64121W        W25652   5.770  25.177  12.017
64122W        W25653  21.192  34.899   5.142
64123W        W25654  32.920   8.847   1.847
64124W        W25655  33.379  41.815  11.941
64125W        W25656  36.939   1.367   1.390
64126W        W25657   1.829  32.914   0.750
64127W        W25658  37.854  40.413  12.981
64128W        W25659  44.909  26.585  14.495
64129W        W25660  26.035  14.676   1.392
64130W        W25661  44.895  14.701   1.709
64131W        W25662  20.628  24.160   0.396
64132W        W25663   1.865   1.250   4.319
64133W        W25664  13.299  24.661   0.728
64134W        W25665  43.307   2.441   3.744
64135W        W25666  10.298   3.954  11.543
64136W        W25667   0.921   4.804  14.469
64137W        W25668  36.506   0.292   0.922
64138W        W25669  21.620  39.405  10.017
64139W        W25670   2.359  29.981  14.401
64140W        W25671  13.157  13.659   1.790
64141W        W25672   2.964  15.249   4.752
64142W        W25673   1.899  42.812   5.180
64143W        W25674  25.187  24.721   0.762
64144W        W25675  18.089  36.537  10.597
64145W        W25676  23.016   7.174   0.836
64146W        W25677  43.342  31.595  11.418
64147W        W25678  25.477  22.208  10.537
64148W        W25679  28.163  37.554   3.286
64149W        W25680   5.857  27.478   4.714
64150W        W25681  42.329  43.884   4.648
64151W        W25682  15.209   6.691   1.872
64152W        W25683   7.380  23.166  13.343
64153W        W25684  27.984  23.042   3.799
64154W        W25685  36.900   8.721   2.787
64155W        W25686   4.893  14.792   3.256
64156W        W25687  20.639   6.268  12.848
64157W        W25688  40.509  10.379  14.401
64158W        W25689  15.146  34.396   0.369
64159W        W25690  27.599  42.006  13.431
64160W        W25691  37.044  17.125  11.491
64161W        W25692  26.005  32.573  12.973
64162W        W25693  10.277   4.842  11.886
64163W        W25694   7.186  16.141   1.376
64164W        W25695  43.339  18.192  12.404
64165W        W25696  18.182  26.520  13.496
64166W        W25697  31.422  22.135   4.760
64167W        W25698  12.199   7.406   2.816
64168W        W25699   9.886  28.648   1.343
64169W        W25700  27.982  40.475   0.451
64170W        W25701  11.366  16.567  12.991
64171W        W25702  24.510  30.996   1.819
64172W        W25703  15.275   7.215  14.925
64173W        W25704  38.896  41.418   2.729
64174W        W25705  33.087   4.334   3.284
64175W        W25706   8.663  37.075   4.281
64176W        W25707   7.343   7.370  12.532
64177W        W25708  39.918  39.325   2.191
64178W        W25709  30.632  11.625   3.316
64179W        W25710   1.779  34.515  10.440
64180W        W25711  23.075  11.369  11.536
64181W        W25712  42.928  12.339   0.757
64182W        W25713  28.171  20.678   0.880
64183W        W25714   1.877   2.874  11.102
64184W        W25715  31.043  41.492  11.491
64185W        W25716  35.544   6.261  10.945
64186W        W25717   2.401   7.365  14.833
64187W        W25718  20.643  40.386   1.352
64188W        W25719   6.418   3.419   1.824
64189W        W25720  32.985  44.000   1.837
64190W        W25721  13.772  21.176  11.381
64191W        W25722  21.038   5.222   2.707
64192W        W25723   7.722  29.141  14.337
64193W        W25724  29.630  37.086  12.999
64194W        W25725  29.468  33.902   0.727
64195W        W25726   7.898  30.012  14.354
64196W        W25727   2.413  26.961   0.827
64197W        W25728  28.589  28.604   1.751
64198W        W25729  12.648  20.118   1.789
64199W        W25730  20.193  20.176   4.659
64200W        W25731  31.526  13.322  12.051
64201W        W25732  40.030  40.460   2.182
64202W        W25733  40.017  32.971  11.859
64203W        W25734  33.423  38.523   0.478
64204W        W25735  24.032  26.143  12.030
64205W        W25736  17.146  28.068  13.886
64206W        W25737  36.095  33.592  11.916
64207W        W25738  29.620  17.663   3.366
64208W        W25739  27.047  12.145   3.837
64209W        W25740  39.810  36.042   4.234
64210W        W25741   5.714  15.800  12.890
64211W        W25742  16.235  30.062   2.288
64212W        W25743  41.838  24.083   2.677
64213W        W25744  23.032   0.812   4.214
64214W        W25745  27.025  38.402  13.800
64215W        W25746  28.098  21.115   4.339
64216W        W25747  28.941  32.013  13.964
64217W        W25748  32.913  43.962  12.462
64218W        W25749  42.317  22.052  10.601
64219W        W25750  11.308  15.797   4.770
64220W        W25751  31.633  20.163   0.331
64221W        W25752  27.053  30.568   5.244
64222W        W25753   6.902  28.049  11.928
64223W        W25754  31.612  28.175  14.429
64224W        W25755   6.369  26.037   1.315
64225W        W25756  39.388   9.663   0.355
64226W        W25757  32.094  23.514   4.233
64227W        W25758   4.813  43.455  10.434
64228W        W25759  17.629  34.932  13.800
64229W        W25760  12.333  38.472   4.297
64230W        W25761   7.759  14.719   3.172
64231W        W25762  13.169  36.438  13.018
64232W        W25763  43.513  19.180  10.473
64233W        W25764  13.774  34.926  13.913
64234W        W25765   9.810  23.221  12.997
64235W        W25766  34.493  12.830   1.904
64236W        W25767  15.131  39.853  14.367
64237W        W25768   5.867  42.339  12.545
64238W        W25769  11.800  18.249   1.917
64239W        W25770   4.338  16.085  13.891
64240W        W25771  35.044  14.262   2.285
64241W        W25772  13.338  20.623   2.772
64242W        W25773   5.368  34.477   2.368
64243W        W25774  11.284   9.179  11.916
64244W        W25775   7.737  18.078   5.274
64245W        W25776   9.658   9.252   4.272
64246W        W25777  25.023  25.678   2.325
64247W        W25778  43.873  12.210   0.727
64248W        W25779  41.797  39.517   1.232
64249W        W25780  43.482  23.120  10.600
64250W        W25781  42.379  28.632   1.220
64251W        W25782  23.091  12.776  13.965
64252W        W25783  12.326  12.832  13.352
64253W        W25784  30.044  14.232   4.276
64254W        W25785   9.824   8.886   2.358
64255W        W25786  12.824  14.169   3.767
64256W        W25787  36.091  43.453  13.840
64257W        W25788  25.602  34.014  12.933
64258W        W25789  25.622  21.165   0.804
64259W        W25790  36.580  35.070  14.323
64260W        W25791  29.485  24.083  11.568
64261W        W25792  20.658  13.746   1.846
64262W        W25793  32.611   7.247   3.369
64263W        W25794  23.725   4.942   2.817
64264W        W25795  15.756  13.613  11.929
64265W        W25796  22.218   2.938  13.796
64266W        W25797   3.843  40.408   3.183
64267W        W25798  38.833   6.339  13.897
64268W        W25799  23.045  20.760  13.495
64269W        W25800  17.663  35.491   1.749
64270W        W25801   8.776  13.645   3.746
64271W        W25802  16.688  15.253   1.280
64272W        W25803  30.494  15.171   0.405
64273W        W25804   0.857  20.669  13.409
64274W        W25805  29.977  17.649  12.073
64275W        W25806  12.214  26.527   3.848
64276W        W25807  31.516  12.680   1.254
64277W        W25808  32.417  16.691  10.116
64278W        W25809  29.496  33.986   0.305
64279W        W25810  31.422  39.913   0.843
64280W        W25811  28.970  25.994  10.645
64281W        W25812  34.116  15.732   3.343
64282W        W25813  11.625  42.995  13.520
64283W        W25814   8.747  31.453  10.933
64284W        W25815  15.797  39.488   4.796
64285W        W25816   4.792  23.085  11.952
64286W        W25817  19.539  23.096   2.381
64287W        W25818  26.477  38.873   0.411
64288W        W25819   8.666   9.806   1.929
64289W        W25820  37.908   3.221  12.517
64290W        W25821  20.563  24.608   4.668
64291W        W25822   7.794   3.390  10.897
64292W        W25823   5.860  28.953  14.411
64293W        W25824   0.784  42.818   2.198
64294W        W25825  33.399  12.720   2.726
64295W        W25826  28.040  17.072   5.242
64296W        W25827  33.602  42.501   4.166
64297W        W25828  37.005  15.091   4.311
64298W        W25829  34.052  24.175  14.895
64299W        W25830  17.649  25.571  13.060
64300W        W25831  30.572   0.321  13.013
64301W        W25832  42.938   1.892  10.625
64302W        W25833  39.849  27.639  12.980
64303W        W25834  24.005  12.640   4.660
64304W        W25835   8.177  35.918  12.383
64305W        W25836  22.730  24.080  14.873
64306W        W25837  20.526  10.376  14.330
64307W        W25838  19.541  15.301   2.824
64308W        W25839  37.964   8.768  13.432
64309W        W25840  12.152  18.726  13.979
64310W        W25841   6.921  16.075  14.914
64311W        W25842  35.604  19.256   3.207
64312W        W25843  26.966   5.392  11.924
64313W        W25844  18.074   8.224   3.244
64314W        W25845  15.254  36.004   4.686
64315W        W25846  37.482  30.956  11.455
64316W        W25847  12.771   3.809  13.972
64317W        W25848   6.369  11.732   0.802
64318W        W25849  17.771   5.244   0.465
64319W        W25850  19.064  33.128  12.026
64320W        W25851  27.649  18.564  11.454
64321W        W25852  32.451  44.791   4.695
64322W        W25853  41.973  30.940   2.763
64323W        W25854   6.701   9.378  13.380
64324W        W25855  24.604  23.041  14.320
64325W        W25856  37.991  31.104   4.311
64326W        W25857  37.919  39.003  10.433
64327W        W25858  40.330  36.570   1.417
64328W        W25859  22.572  15.726  10.990
64329W        W25860  18.095  42.945  11.961
64330W        W25861  43.489  24.569   0.391
64331W        W25862  11.291  40.001  13.029
64332W        W25863   2.451  13.335  13.811
64333W        W25864  28.496  26.092  10.593
64334W        W25865  39.896  22.520  11.104
64335W        W25866   2.739  15.140   4.126
64336W        W25867  20.136  18.714   3.225
64337W        W25868  18.742  43.916  12.001
64338W        W25869  23.092  34.521  12.878
64339W        W25870  27.611  40.968   2.736
64340W        W25871  23.098  10.779   1.857
64341W        W25872   3.315  38.473  11.007
64342W        W25873  42.937  37.851  10.993
64343W        W25874  39.497  43.440  10.438
64344W        W25875  16.664  25.548   0.762
64345W        W25876  24.655  12.201   3.172
64346W        W25877  37.850  30.011   4.811
64347W        W25878  43.961  30.466   1.729
64348W        W25879  27.027  19.619  14.821
64349W        W25880  27.625  42.784   2.745
64350W        W25881  41.982  36.096   1.889
64351W        W25882  41.482  15.655  13.022
64352W        W25883  34.085  33.976   0.329
64353W        W25884  22.119  10.169   4.677
64354W        W25885  41.818  34.872  11.415
64355W        W25886  33.014  30.535  12.352
64356W        W25887  11.832  44.277  11.027
64357W        W25888   1.290  17.685   0.842
64358W        W25889  24.153  11.810   0.854
64359W        W25890  25.506  28.494   3.629
64360W        W25891  21.094  16.724   1.390
64361W        W25892  33.108  19.718  11.994
64362W        W25893  17.077  36.454   0.282
64363W        W25894   8.365  36.939   1.896
64364W        W25895  11.133  33.592   1.419
64365W        W25896  34.918  32.614   2.666
64366W        W25897  32.516   1.876  11.407
64367W        W25898  40.928  20.633  10.638
64368W        W25899  38.536   4.771   4.721
64369W        W25900  27.144   7.352   4.677
64370W        W25901  19.145  35.564   4.645
64371W        W25902  12.727  40.894  10.943
64372W        W25903  19.732   6.787   4.800
64373W        W25904  16.700  31.027  10.122
64374W        W25905  42.291  28.043   1.781
64375W        W25906  32.083  36.567  11.951
64376W        W25907   9.154  38.355   0.273
64377W        W25908  26.598   3.791   2.255
64378W        W25909  10.721  43.811   3.229
64379W        W25910  39.553  26.082  12.439
64380W        W25911  37.030  41.314  12.975
64381W        W25912  39.962  34.432  12.448
64382W        W25913  21.526  10.320   2.733
64383W        W25914  32.997   2.228   3.646
64384W        W25915   7.880  23.545  12.090
64385W        W25916  17.644   8.247   2.282
64386W        W25917  10.311   0.358  11.920
64387W        W25918   0.301  36.016   0.740
64388W        W25919  43.914  14.624   0.258
64389W        W25920  22.132  31.628  11.031
64390W        W25921   4.402  17.740  10.593
64391W        W25922   3.294  23.056   2.877
64392W        W25923  21.518   1.878   0.865
64393W        W25924  40.451  24.048  12.500
64394W        W25925  42.357  28.129  11.602
64395W        W25926  40.017  24.530   2.708
64396W        W25927  44.756  30.089  14.877
64397W        W25928   3.215  26.522   2.368
64398W        W25929   6.873   2.733  13.357
64399W        W25930  37.418   7.171   0.460
64400W        W25931  15.635  18.123  12.090
64401W        W25932  42.918  32.489  12.089
64402W        W25933  16.194  18.239   0.810
64403W        W25934   1.791  22.080  11.494
64404W        W25935  25.104   3.800  13.519
64405W        W25936  19.128  23.211  12.485
64406W        W25937  22.656  39.383  13.821
64407W        W25938  37.084  12.752  11.020
64408W        W25939  12.262  37.461   2.374
64409W        W25940  40.810  34.117  14.459
64410W        W25941  21.571  23.215  14.800
64411W        W25942  24.566  23.188  12.549
64412W        W25943  17.075   2.921   2.851
64413W        W25944  35.598  27.583   4.345
64414W        W25945  12.675   2.894   2.730
64415W        W25946  18.545  29.084  10.908
64416W        W25947   4.402   8.363   3.647
64417W        W25948   4.925  13.663  13.313
64418W        W25949  22.164  22.683  14.430
64419W        W25950  37.974  25.972   2.278
64420W        W25951  18.640  34.550   9.950
64421W        W25952  12.241  32.516   2.187
64422W        W25953  40.479  37.891   0.334
64423W        W25954  24.219  33.607  11.568
64424W        W25955   3.298  24.042  12.515
64425W        W25956  11.822  12.717  10.067
64426W        W25957  20.211  41.509   2.371
64427W        W25958  44.854  31.144   3.635
64428W        W25959  35.480   2.346   0.749
64429W        W25960  36.087  14.210  10.956
64430W        W25961   1.357  27.003  11.568
64431W        W25962  27.550  35.594   4.205
64432W        W25963  17.779   9.180  12.892
64433W        W25964  27.124  24.583   2.901
64434W        W25965  41.801  14.709  13.922
64435W        W25966  23.618  17.632   0.762
64436W        W25967  44.815  12.706  14.346
64437W        W25968   2.827  26.678  11.046
64438W        W25969  34.443  30.989   3.838
64439W        W25970  40.435   3.459   4.750
64440W        W25971  14.116   5.364   3.212
64441W        W25972  20.576  18.224  11.941
64442W        W25973   5.416  11.783   4.247
64443W        W25974  27.052  29.664  11.091
64444W        W25975  25.473  22.183   2.808
64445W        W25976  30.061  41.817   3.803
64446W        W25977   3.426  37.076   1.353
64447W        W25978  35.097  12.301   4.330
64448W        W25979  19.123  12.204  11.482
64449W        W25980  37.044  16.732   0.386
64450W        W25981  14.105   7.777  14.280
64451W        W25982   5.813  28.541  11.525
64452W        W25983   5.365  15.751   4.788
64453W        W25984  30.584  19.197  10.447
64454W        W25985  38.407  35.884   9.999
64455W        W25986  19.120  21.177  11.067
64456W        W25987  26.997  14.287  13.926
64457W        W25988   3.720  35.015  13.036
64458W        W25989  13.719   6.872   4.193
64459W        W25990  43.002  17.663  12.045
64460W        W25991  40.494  25.982   0.419
64461W        W25992  29.570  37.891  12.919
64462W        W25993  25.492  34.096   2.380
64463W        W25994  19.654  17.298   4.175
64464W        W25995   8.821  40.330   4.205
64465W        W25996  26.488  26.473   4.206
64466W        W25997  25.580  37.952  10.436
64467W        W25998  42.402  28.505  13.918
64468W        W25999  27.456  30.455  12.580
64469W        W26000   9.303   7.393   3.217
64470W        W26001  34.072  15.713  12.930
64471W        W26002  38.339   3.834   3.805
64472W        W26003  20.133  24.585  10.484
64473W        W26004  37.928   3.945   4.729
64474W        W26005  32.467   6.824   4.616
64475W        W26006   5.369  36.385  11.896
64476W        W26007  39.855  40.857   4.287
64477W        W26008  15.139  31.935  10.095
64478W        W26009  28.968  12.289  12.016
64479W        W26010   7.673   0.798  11.994
64480W        W26011  39.811   8.683  13.835
64481W        W26012  32.015   0.418   4.211
64482W        W26013  27.528  37.406   4.124
64483W        W26014  30.485  36.011   1.695
64484W        W26015   5.391  39.903   3.342
64485W        W26016   7.170  39.877  12.898
64486W        W26017  39.893  34.978   3.269
64487W        W26018  39.456  12.116   1.792
64488W        W26019  31.635  15.739  13.411
64489W        W26020  36.468   5.290  14.301
64490W        W26021   4.816  28.133   3.260
64491W        W26022  35.913  35.878  10.955
64492W        W26023  33.100  30.080  13.038
64493W        W26024  22.036   0.411   2.777
64494W        W26025  30.598  30.154   3.218
64495W        W26026   6.745  12.229  13.928
64496W        W26027   0.288  16.768  14.794
64497W        W26028   6.258  39.495  11.992
64498W        W26029  32.586  25.548  13.330
64499W        W26030   5.327  25.990  11.913
64500W        W26031  26.494   2.725   1.444
64501W        W26032  18.648  26.462  10.566
64502W        W26033   3.893  30.099  12.030
64503W        W26034   5.923  43.482  10.530
64504W        W26035  30.048  24.594   1.745
64505W        W26036  33.922  24.219  13.389
64506W        W26037  10.220   6.265   4.222
64507W        W26038  26.072  23.668  11.033
64508W        W26039  37.893  15.655   3.362
64509W        W26040  20.185  32.095   4.149
64510W        W26041  30.031   9.840  13.326
64511W        W26042  15.599   4.406   3.348
64512W        W26043  25.677  32.076   2.797
64513W        W26044  36.591  44.280  13.040
64514W        W26045  35.060  26.472  10.082
64515W        W26046  14.124  27.468   2.307
64516W        W26047  17.689  12.676  14.770
64517W        W26048  13.343  39.440  11.412
64518W        W26049  12.177  35.096   4.757
64519W        W26050  32.615  21.203  13.450
64520W        W26051  33.526   9.234   4.812
64521W        W26052  15.730   5.725  13.975
64522W        W26053   5.747  35.952  13.316
64523W        W26054  11.299  10.248  13.923
64524W        W26055  18.717   0.345  11.124
64525W        W26056   4.745  27.602  14.761
64526W        W26057  28.152  15.191   2.364
64527W        W26058  39.411   5.414   1.760
64528W        W26059  28.095   3.347   2.780
64529W        W26060  43.929   9.879   2.390
64530W        W26061  44.867  14.702   4.179
64531W        W26062  30.652  16.788   1.243
64532W        W26063  43.832  39.052  10.616
64533W        W26064  24.588  32.949  11.889
64534W        W26065  25.135   7.871   2.880
64535W        W26066   1.379  36.974   4.666
64536W        W26067  43.369  31.431   1.775
64537W        W26068  21.113  32.066  10.498
64538W        W26069  16.218  25.101   9.999
64539W        W26070  21.666  23.672  10.528
64540W        W26071  15.230  13.829   4.646
64541W        W26072  26.498   7.725  13.819
64542W        W26073   1.832  22.536  14.331
64543W        W26074   7.238  18.650   3.870
64544W        W26075   9.187  37.937  13.917
64545W        W26076  31.978  10.377  14.018
64546W        W26077   2.946   7.259   3.292
64547W        W26078  36.926  26.007   1.388
64548W        W26079   3.856   0.860   3.844
64549W        W26080   3.287   0.760   4.696
64550W        W26081  18.786  35.107  11.453
64551W        W26082  27.025  21.590  10.482
64552W        W26083  30.164  44.259   2.292
64553W        W26084   9.266   4.423   4.158
64554W        W26085  14.693  11.809  13.483
64555W        W26086  37.975  32.058  11.385
64556W        W26087  22.180  24.031  10.967
64557W        W26088  18.548  24.134   0.776
64558W        W26089  15.787  23.077   3.793
64559W        W26090  33.945  32.561  14.956
64560W        W26091  22.519  26.979  14.341
64561W        W26092  17.623   3.934  11.065
64562W        W26093  13.230  14.594   4.718
64563W        W26094   3.304  43.802   1.245
64564W        W26095  12.230   1.473  10.962
64565W        W26096  32.905   6.372  14.278
64566W        W26097  11.769  18.054  13.031
64567W        W26098  17.221  33.497  10.428
64568W        W26099   6.235  23.585   3.238
64569W        W26100  39.993   5.844   0.883
64570W        W26101  24.045  25.970  14.784
64571W        W26102  38.061  26.964   0.942
64572W        W26103   8.805  42.441   0.890
64573W        W26104  29.496  14.290   0.289
64574W        W26105  14.197  40.053  11.911
64575W        W26106  26.590  20.259  12.512
64576W        W26107  25.641  40.963   2.723
64577W        W26108  37.925   0.453   0.891
64578W        W26109  34.445  37.574   1.733
64579W        W26110  14.664  32.098   3.730
64580W        W26111   5.378   8.247  13.510
64581W        W26112  36.994  23.614  11.879
64582W        W26113  24.119  14.672  13.439
64583W        W26114   0.391   4.836  13.321
64584W        W26115  33.460  22.088   4.643
64585W        W26116  24.503  22.612   4.282
64586W        W26117  18.257  13.277  11.068
64587W        W26118   0.903  34.066   3.166
64588W        W26119   6.704  41.866  14.873
64589W        W26120  37.058  26.640  14.515
64590W        W26121  41.356  44.789   2.695
64591W        W26122   8.394  30.509   0.307
64592W        W26123  35.984  29.972  13.980
64593W        W26124   4.810  17.700  14.898
64594W        W26125   3.250  34.987  14.341
64595W        W26126  10.789  40.944  11.544
64596W        W26127  44.427  21.087  14.512
64597W        W26128  17.115  20.590  11.518
64598W        W26129  28.495  24.112  14.385
64599W        W26130   9.196   5.407   0.863
64600W        W26131  40.840  36.440  10.581
64601W        W26132  41.428  12.718  12.065
64602W        W26133  33.896  41.936  11.027
64603W        W26134  23.048  14.322  11.580
64604W        W26135   9.246  36.920   3.149
64605W        W26136   3.363  18.083  12.902
64606W        W26137  30.555  39.955  13.341
64607W        W26138  43.976  14.727   3.178
64608W        W26139  21.623  44.401  12.087
64609W        W26140  41.348  29.115  12.961
64610W        W26141  37.387  32.058  10.938
64611W        W26142  36.348  10.813  14.882
64612W        W26143  34.390  27.503  11.088
64613W        W26144  27.628  18.205   4.615
64614W        W26145  43.276  23.619   4.123
64615W        W26146   9.776  23.235   3.371
64616W        W26147  24.713  37.576  13.384
64617W        W26148  32.406   5.337   2.320
64618W        W26149  13.794  40.464  11.539
64619W        W26150   1.778  35.524   3.349
64620W        W26151   6.195  25.697  14.787
64621W        W26152  24.150  20.230  10.509
64622W        W26153   0.851  27.151   1.837
64623W        W26154  11.636  43.962  10.567
64624W        W26155  30.023  28.941  11.974
64625W        W26156  44.290   6.742  14.343
64626W        W26157  42.839  28.026  11.583
64627W        W26158  22.054  10.675   2.903
64628W        W26159  41.446  22.086   1.216
64629W        W26160  25.985   6.850   1.447
64630W        W26161  41.958  10.863  14.332
64631W        W26162  41.501  14.774  13.480
64632W        W26163  27.463   8.713  12.384
64633W        W26164  17.580  26.992   3.236
64634W        W26165   2.962  42.489  12.050
64635W        W26166  41.495  20.649   2.381
64636W        W26167  38.462  25.068  12.373
64637W        W26168  28.154   1.314  12.953
64638W        W26169  23.027  26.638  12.342
64639W        W26170  35.361  33.957  11.379
64640W        W26171  30.019  19.041  10.621
64641W        W26172  34.412  21.152  12.029
64642W        W26173   0.404  42.439   1.694
64643W        W26174  20.694  16.091   2.882
64644W        W26175  17.284  21.628   5.128
64645W        W26176  43.503   6.241   0.737
64646W        W26177  19.201  13.310   3.233
64647W        W26178  37.046  23.015   3.375
64648W        W26179   9.251   4.449  11.464
64649W        W26180   3.328   7.213   3.370
64650W        W26181  38.918  30.959   0.832
64651W        W26182   9.394  23.698  10.143
64652W        W26183  20.553  40.375   3.386
64653W        W26184  36.025  40.493  12.477
64654W        W26185  12.717  31.566  14.418
64655W        W26186  20.753  39.337  13.017
64656W        W26187   9.672  43.919   1.294
64657W        W26188  25.557  20.213  13.483
64658W        W26189   3.795   9.670   1.434
64659W        W26190  38.849   8.249  10.103
64660W        W26191   7.878  38.462  10.968
64661W        W26192   9.689  22.610   3.728
64662W        W26193   5.434   4.771   4.798
64663W        W26194  42.829   0.291  14.280
64664W        W26195  36.029  23.720   3.657
64665W        W26196  28.968  34.402   4.118
64666W        W26197  19.196  38.932   2.723
64667W        W26198  40.525  19.721  11.518
64668W        W26199  26.975  29.022   3.382
64669W        W26200  37.366  34.015   2.704
64670W        W26201  30.523  30.133  11.527
64671W        W26202  36.085  43.942   3.849
64672W        W26203  12.842  43.271  11.515
64673W        W26204  19.657   4.322   3.824
64674W        W26205  39.856   6.678  12.889
64675W        W26206  11.668  14.634   2.797
64676W        W26207  19.207  21.075  12.403
64677W        W26208   1.410   9.851  13.847
64678W        W26209   6.792  43.894   2.747
64679W        W26210  31.112  44.834   0.745
64680W        W26211  13.675  33.878   0.383
64681W        W26212  27.020  36.463   2.859
64682W        W26213  22.153  29.548   1.737
64683W        W26214  31.618   2.840   3.186
64684W        W26215  12.360  21.035  10.552
64685W        W26216  22.188   6.200   2.246
64686W        W26217  23.567   3.280  10.939
64687W        W26218  33.064  12.842   3.824
64688W        W26219   0.883  23.045  12.404
64689W        W26220  32.966  24.193   0.752
64690W        W26221  34.549  29.597   4.259
64691W        W26222   1.877  15.321   3.791
64692W        W26223  37.478  39.883  10.481
64693W        W26224  29.992  19.762   1.255
64694W        W26225  13.212  40.972  11.060
64695W        W26226  32.058  42.930  11.518
64696W        W26227  13.243  27.057   4.819
64697W        W26228  39.510  35.864  14.293
64698W        W26229  30.488  38.022  12.523
64699W        W26230  14.305  11.651  13.380
64700W        W26231  14.744  37.477   0.844
64701W        W26232  12.137  10.708   2.738
64702W        W26233  35.426  34.090  12.434
64703W        W26234  22.036  29.459   4.635
64704W        W26235  22.682  44.859  11.560
64705W        W26236  12.305   2.356   5.704
64706W        W26237  26.563   1.976   3.759
64707W        W26238  39.343  19.212  12.575
64708W        W26239  36.993  10.354  12.015
64709W        W26240  36.907   2.242   1.803
64710W        W26241  37.957  43.300   4.193
64711W        W26242  19.047   5.746   4.153
64712W        W26243  26.701   1.835   5.169
64713W        W26244  24.188   3.249  13.961
64714W        W26245  42.327  24.157  12.360
64715W        W26246  34.039  23.999  13.829
64716W        W26247   1.834   1.750  14.405
64717W        W26248  31.563  43.304  12.524
64718W        W26249  22.110   9.661   3.776
64719W        W26250   2.903  27.178   4.343
64720W        W26251  19.732  17.577   4.725
64721W        W26252  32.070  39.318  12.551
64722W        W26253  11.729   7.213   2.325
64723W        W26254  10.878  32.887  14.805
64724W        W26255  26.983  24.157  11.994
64725W        W26256   1.797  27.970   3.701
64726W        W26257  10.736   3.737  10.910
64727W        W26258   2.943  28.522   3.188
64728W        W26259  26.196  25.613   3.330
64729W        W26260  31.971  30.106  11.044
64730W        W26261  11.640  16.630  14.828
64731W        W26262  31.436   3.262  10.501
64732W        W26263   5.395  44.967  14.333
64733W        W26264  20.260   1.455   1.713
64734W        W26265  23.096  20.065   4.122
64735W        W26266  33.487   3.349   1.426
64736W        W26267  21.191  22.533   2.377
64737W        W26268  43.453   1.372  14.774
64738W        W26269   4.823  37.947  14.358
64739W        W26270  31.518  40.966   3.843
64740W        W26271  24.033  12.217   1.332
64741W        W26272  30.511  25.708  13.856
64742W        W26273  43.279  42.882   2.715
64743W        W26274  34.433  13.714  11.533
64744W        W26275  17.251   6.199   3.351
64745W        W26276  42.790  28.147   4.742
64746W        W26277  19.617  37.845   1.783
64747W        W26278  19.711  29.937   0.877
64748W        W26279  24.123  26.125   0.840
64749W        W26280  42.794  11.725   5.268
64750W        W26281  42.506  34.483   3.771
64751W        W26282  34.101  18.251   1.439
64752W        W26283  35.951   1.965  11.377
64753W        W26284   6.811  23.177   0.412
64754W        W26285  30.433  39.399  14.362
64755W        W26286  32.031  25.112  14.350
64756W        W26287  38.454   2.873   2.705
64757W        W26288  12.805   3.896   2.722
64758W        W26289   6.239   5.747  10.507
64759W        W26290  37.410  37.859  14.373
64760W        W26291  17.101  43.870  14.830
64761W        W26292  17.071   6.736   2.292
64762W        W26293   4.214  40.003  12.570
64763W        W26294  37.930  17.759   4.286
64764W        W26295  15.272  10.837  13.309
64765W        W26296  29.626  15.246  13.883
64766W        W26297   9.281  32.570   4.637
64767W        W26298  41.937  42.943   0.861
64768W        W26299  29.081  10.219  14.420
64769W        W26300  23.721   2.387  10.644
64770W        W26301  26.594   6.310   4.832
64771W        W26302  26.569   4.871  13.819
64772W        W26303  44.368  42.369  12.026
64773W        W26304   2.934  14.763  13.887
64774W        W26305  29.978  39.373   3.744
64775W        W26306  13.288  36.358  11.396
64776W        W26307  29.166  33.469  13.512
64777W        W26308  15.317  24.002  14.348
64778W        W26309  35.969   6.238   3.780
64779W        W26310  34.371  21.716  13.427
64780W        W26311  35.410  21.024  13.881
64781W        W26312  10.244   3.398  13.521
64782W        W26313  38.960  19.104  12.430
64783W        W26314  34.456  33.928   0.472
64784W        W26315  32.967  20.089  13.977
64785W        W26316  30.010   8.254   3.780
64786W        W26317  44.948  13.606   3.261
64787W        W26318  19.177  33.539  14.883
64788W        W26319  12.154   8.681  12.838
64789W        W26320   2.820  26.493  12.890
64790W        W26321  35.587   2.437   4.602
64791W        W26322   9.299  28.143  13.855
64792W        W26323  43.296   6.387   4.821
64793W        W26324   9.757  37.951   0.787
64794W        W26325   9.178  36.440  13.415
64795W        W26326  21.515  18.687   2.278
64796W        W26327  24.715  22.073   3.765
64797W        W26328  43.972  39.850  12.579
64798W        W26329  10.737  43.920   4.234
64799W        W26330  24.128  12.814  12.529
64800W        W26331  19.650  22.502   0.906
64801W        W26332   7.298  15.608  14.813
64802W        W26333   6.275  33.621  14.868
64803W        W26334   1.922   8.862  12.947
64804W        W26335  28.993  44.408  11.081
64805W        W26336  34.389  44.504  11.908
64806W        W26337   6.864  32.979   1.718
64807W        W26338  27.987  44.286  13.546
64808W        W26339   0.862  24.591   3.847
64809W        W26340  41.427  39.947   0.879
64810W        W26341  28.476  35.532  13.917
64811W        W26342   3.787   1.735  10.064
64812W        W26343  19.710  14.218   2.717
64813W        W26344   4.816  27.677   3.716
64814W        W26345  43.345  21.706  10.558
64815W        W26346  18.716  35.376  13.834
64816W        W26347   5.872  30.137   1.303
64817W        W26348   2.924   6.860   3.334
64818W        W26349   0.831  20.163  14.382
64819W        W26350  17.166  27.539  14.764
64820W        W26351  26.622  36.447   3.382
64821W        W26352  35.918  43.418   3.734
64822W        W26353  13.197  37.838   1.852
64823W        W26354  15.164   8.809   0.454
64824W        W26355  28.612  31.077  13.409
64825W        W26356   4.744   5.209  11.448
64826W        W26357  11.657  17.251   0.806
64827W        W26358  21.721  17.700   4.294
64828W        W26359   9.773  17.234   1.865
64829W        W26360  25.161   6.256  11.957
64830W        W26361  35.426  23.003   2.387
64831W        W26362   8.354   2.458  12.034
64832W        W26363  41.318  42.288   3.151
64833W        W26364  13.805   9.864  13.019
64834W        W26365   5.411   9.883   2.262
64835W        W26366  23.510   0.295   3.665
64836W        W26367   2.283   1.914  14.937
64837W        W26368   0.309   5.838   1.379
64838W        W26369  33.402  34.993   0.882
64839W        W26370  29.458   1.787   2.198
64840W        W26371  44.796   5.779  10.543
64841W        W26372  32.551  10.348   9.974
64842W        W26373  35.938  37.395  13.892
64843W        W26374  23.733   8.189   3.343
64844W        W26375  32.482  20.172  13.847
64845W        W26376  39.904   7.372  13.402
64846W        W26377  42.932  18.694  14.933
64847W        W26378   2.356  40.887   2.253
64848W        W26379  17.244  22.551  10.050
64849W        W26380  26.158  27.665   2.717
64850W        W26381   0.822   0.956  14.942
64851W        W26382  37.536   6.688   1.846
64852W        W26383   5.270  12.645  13.839
64853W        W26384  30.587   4.254  10.475
64854W        W26385  40.445  38.428   0.291
64855W        W26386  41.816  14.280   4.337
64856W        W26387  29.918   5.828   1.901
64857W        W26388  27.470  19.742   2.688
64858W        W26389  15.188   3.756   3.668
64859W        W26390  21.601   9.182   1.830
64860W        W26391  20.165  31.942   0.870
64861W        W26392  38.502  31.932   4.177
64862W        W26393   5.293  44.931   1.424
64863W        W26394  34.979  17.678  14.927
64864W        W26395  29.435  41.895  13.842
64865W        W26396   7.308  42.788   4.151
64866W        W26397  20.596  44.821   0.334
64867W        W26398  29.050  31.051   4.605
64868W        W26399  29.579  22.598   3.775
64869W        W26400   9.359  24.982   2.255
64870W        W26401   5.390  26.496  13.829
64871W        W26402  40.397   2.321   4.732
64872W        W26403   1.785  12.271  11.949
64873W        W26404  31.585   1.849  14.021
64874W        W26405  18.059  42.008  10.026
64875W        W26406  12.702  41.853   3.754
64876W        W26407  12.626  16.628   3.741
64877W        W26408  22.201   1.239   3.655
64878W        W26409  33.578   5.405  12.888
64879W        W26410  28.966  29.139   0.795
64880W        W26411  33.076   5.193  13.450
64881W        W26412  17.705  28.604  12.953
64882W        W26413  13.610  24.664  13.399
64883W        W26414  21.091  44.911  10.989
64884W        W26415   5.810   5.868   1.890
64885W        W26416  18.183  17.752   4.720
64886W        W26417  26.154  40.010  14.010
64887W        W26418  15.789  41.972  14.928
64888W        W26419  10.698  15.606   4.227
64889W        W26420  26.027  35.858  13.448
64890W        W26421   7.861  31.041  14.790
64891W        W26422   0.420  29.431  14.427
64892W        W26423  17.723  13.316  14.468
64893W        W26424  24.056  31.641   1.449
64894W        W26425  32.408  25.686  12.022
64895W        W26426  13.193  34.023   1.430
64896W        W26427  19.761  26.523  12.935
64897W        W26428  18.260  13.687   1.342
64898W        W26429   0.435   8.745   2.220
64899W        W26430  15.682  30.984   1.217
64900W        W26431  41.025  38.828   1.934
64901W        W26432  12.257  21.023   3.712
64902W        W26433  28.507  42.521  13.358
64903W        W26434  17.105  40.383   5.214
64904W        W26435  27.141  31.416  11.976
64905W        W26436   1.295  15.678  14.352
64906W        W26437  40.403  25.053   2.691
64907W        W26438  39.829   4.433   3.364
64908W        W26439   2.281  21.193   2.413
64909W        W26440  31.431  41.291   4.258
64910W        W26441  36.437  38.491   1.763
64911W        W26442  12.754  43.489   0.832
64912W        W26443  22.557  39.370  14.983
64913W        W26444  21.220  24.146   5.175
64914W        W26445  31.913   1.290   4.113
64915W        W26446  23.089   4.941   3.674
64916W        W26447  13.746  15.138  11.860
64917W        W26448   1.291  38.953   2.180
64918W        W26449  42.362  21.036   1.929
64919W        W26450  24.136  34.549  11.404
64920W        W26451  19.736  25.027  13.945
64921W        W26452  41.332  34.508   3.742
64922W        W26453  28.516  43.467  12.945
64923W        W26454  33.948  35.056   3.662
64924W        W26455  34.017  17.209   1.792
64925W        W26456  32.497  44.404   2.807
64926W        W26457  10.237  30.419   3.216
64927W        W26458  18.243   3.315   0.765
64928W        W26459  40.511   9.281  14.962
64929W        W26460   5.327  13.283  13.805
64930W        W26461  14.111  28.015  12.047
64931W        W26462   7.766   7.337  13.478
64932W        W26463   2.890  16.719   4.608
64933W        W26464  35.466  37.993   9.930
64934W        W26465   2.466  20.663  11.045
64935W        W26466   4.303  33.419  11.502
64936W        W26467  19.772  38.338   1.775
64937W        W26468   6.900  24.132   4.315
64938W        W26469   8.884  19.043   3.814
64939W        W26470  12.707  26.174   1.898
64940W        W26471  40.818   6.871   3.375
64941W        W26472  23.199   3.239   0.352
64942W        W26473  11.137   1.919  11.982
64943W        W26474   7.209  30.083   3.249
64944W        W26475  18.070  29.497  10.488
64945W        W26476  28.084   2.382   2.301
64946W        W26477  24.669  15.205   3.221
64947W        W26478   2.764  31.622   0.277
64948W        W26479  26.013  42.314   2.740
64949W        W26480   0.969   9.867  14.394
64950W        W26481  35.414  10.782   1.332
64951W        W26482   3.941  17.611   4.255
64952W        W26483  42.412   9.325   0.340
64953W        W26484  19.689  44.443   3.217
64954W        W26485   5.777  24.177   2.681
64955W        W26486  10.713  31.569  10.928
64956W        W26487   6.338   9.850  11.958
64957W        W26488  44.369   7.195  12.951
64958W        W26489  34.397  15.676  12.828
64959W        W26490   8.224   4.309   1.240
64960W        W26491  24.548  29.061   5.797
64961W        W26492  39.373  30.537   1.399
64962W        W26493  10.842  37.953  11.079
64963W        W26494  40.482   9.721  14.441
64964W        W26495  19.182  19.630  11.482
64965W        W26496  16.191  28.560   2.254
64966W        W26497  21.611  34.378   3.312
64967W        W26498   2.405  22.697  14.397
64968W        W26499  20.057  34.989  12.425
64969W        W26500  38.895  40.017  10.608
64970W        W26501  36.592  42.398  13.953
64971W        W26502   2.429  39.472   0.380
64972W        W26503  31.129   0.425   0.266
64973W        W26504  33.470   3.439   3.358
64974W        W26505  15.578  38.027   3.809
64975W        W26506  10.207  25.570   0.369
64976W        W26507  12.327  31.430  13.048
64977W        W26508   6.210   4.226  14.436
64978W        W26509  23.194  32.078  11.466
64979W        W26510  10.812  20.734  11.862
64980W        W26511   0.899   3.746  12.979
64981W        W26512  41.498  23.730  12.535
64982W        W26513  22.021  29.971  13.528
64983W        W26514  25.635  25.076  10.517
64984W        W26515  23.639  37.870   4.729
64985W        W26516  28.637  16.601   2.267
64986W        W26517   6.871   6.724  13.048
64987W        W26518   4.880   6.283   1.780
64988W        W26519   2.431   2.389  11.065
64989W        W26520  22.704   1.476   3.322
64990W        W26521  24.505  35.942  14.440
64991W        W26522   2.267  40.960  11.959
64992W        W26523  21.593   1.272   3.190
64993W        W26524  33.453   2.791   1.296
64994W        W26525  21.713   9.192  12.508
64995W        W26526  41.927  39.483   3.847
64996W        W26527  10.747  33.569  11.910
64997W        W26528   6.386  36.421  12.064
64998W        W26529  18.151  29.609   1.239
64999W        W26530  24.987  16.684  13.479
65000W        W26531  11.351  41.455  14.838
65001W        W26532  18.641  13.797  11.982
65002W        W26533  39.540  37.838  10.504
65003W        W26534   6.911  35.380   3.186
65004W        W26535  19.763  24.189  13.530
65005W        W26536  16.124   4.358  11.017
65006W        W26537   2.389  21.132  11.864
65007W        W26538  34.462  44.292  13.378
65008W        W26539  20.678  11.320  11.922
65009W        W26540   8.335  36.499   1.325
65010W        W26541  11.352  21.256   3.363
65011W        W26542   5.227  24.485  13.350
65012W        W26543  27.599  44.976   4.834
65013W        W26544  26.663  15.280  12.033
65014W        W26545  12.291  28.514  12.041
65015W        W26546   0.912  27.691   4.115
65016W        W26547  24.175  41.375  12.540
65017W        W26548  25.533  14.127   5.208
65018W        W26549  39.969  32.966  10.628
65019W        W26550   9.152  37.905   0.464
65020W        W26551  42.928  16.672  12.344
65021W        W26552   7.833  10.264  12.410
65022W        W26553  38.367   9.221  14.961
65023W        W26554  22.567  11.751   0.363
65024W        W26555   8.749  41.902   1.822
65025W        W26556  40.962  35.566  11.486
65026W        W26557  16.200  13.742  13.343
65027W        W26558  14.684  34.051   3.236
65028W        W26559   5.399  19.733   1.409
65029W        W26560  34.938  17.795  11.397
65030W        W26561  35.899  26.688   2.333
65031W        W26562  31.987  35.877   1.715
65032W        W26563   2.239  36.479  11.085
65033W        W26564   9.733  44.406  13.847
65034W        W26565  11.257  26.050  12.371
65035W        W26566  43.372  25.118   0.351
65036W        W26567  11.765  28.488   2.749
65037W        W26568  23.494  23.689  14.814
65038W        W26569   6.892   5.382  12.960
65039W        W26570   6.404  15.193  10.937
65040W        W26571  11.161  42.887   0.845
65041W        W26572  22.109   9.210  10.552
65042W        W26573  44.826   3.313  12.542
65043W        W26574  36.966  21.053   5.285
65044W        W26575  19.043   4.302   2.665
65045W        W26576  11.288  12.631  14.959
65046W        W26577  42.848  27.587   0.825
65047W        W26578   6.783   8.366   2.884
65048W        W26579   0.903  24.027   4.792
65049W        W26580  22.574  44.948   1.383
65050W        W26581  25.030  23.683  14.775
65051W        W26582  37.428  19.681   0.852
65052W        W26583   3.926  29.072  10.090
65053W        W26584   4.732   1.278  14.027
65054W        W26585  12.129  25.035   0.744
65055W        W26586  41.473  28.943   1.919
65056W        W26587  44.981  34.591  14.768
65057W        W26588  24.710  36.012   4.248
65058W        W26589  16.670  20.032  13.903
65059W        W26590  41.341  44.466  14.965
65060W        W26591  18.238   6.224  12.001
65061W        W26592  22.079  20.573  13.043
65062W        W26593  41.977  27.580  11.962
65063W        W26594  10.823   0.315   5.117
65064W        W26595   3.452  12.754   1.341
65065W        W26596  18.161  17.279   3.806
65066W        W26597   1.436  22.636  14.343
65067W        W26598  24.591  17.270   0.888
65068W        W26599   5.377  31.066  11.986
65069W        W26600  38.002  35.558   3.321
65070W        W26601  29.029  42.782   1.924
65071W        W26602   6.793  22.688  11.568
65072W        W26603   8.396  12.123   1.275
65073W        W26604  21.172  17.152  13.857
65074W        W26605   5.424  18.691  10.955
65075W        W26606  39.861  10.298  13.791
65076W        W26607  21.231  27.053   1.284
65077W        W26608  15.775  22.717   1.255
65078W        W26609  18.624  44.894  12.367
65079W        W26610   5.818  18.740   4.811
65080W        W26611  36.921   5.380  14.280
65081W        W26612  11.841  21.030   3.729
65082W        W26613   2.873  38.554  12.907
65083W        W26614  20.050  32.527  13.407
65084W        W26615   5.877  36.587   1.802
65085W        W26616  38.511  41.304  10.573
65086W        W26617  18.250  15.676   2.885
65087W        W26618   9.669  18.113  14.783
65088W        W26619  34.961   3.333  14.294
65089W        W26620  27.046  31.939  12.466
65090W        W26621   4.214  11.823  11.510
65091W        W26622  35.980  35.861   0.349
65092W        W26623  34.460  36.519  13.480
65093W        W26624  12.815  30.577   1.831
65094W        W26625   8.394  12.733   3.803
65095W        W26626  26.505  42.360  13.922
65096W        W26627   2.902   3.954   2.792
65097W        W26628  22.081  30.999  12.372
65098W        W26629  18.199   8.323   2.887
65099W        W26630  37.850  36.061  10.960
65100W        W26631   2.339   6.820  12.926
65101W        W26632   0.375  35.393   0.785
65102W        W26633  24.563  44.408  14.408
65103W        W26634  28.051   8.812   2.733
65104W        W26635  24.536   1.926   2.847
65105W        W26636  14.333   3.950  10.510
65106W        W26637   1.317  38.516   2.342
65107W        W26638  24.688  43.992  12.551
65108W        W26639  21.562  24.528   1.859
65109W        W26640  40.901  27.152   2.376
65110W        W26641  23.072   4.747   0.731
65111W        W26642  18.289  33.068  10.933
65112W        W26643  39.414   7.850  13.530
65113W        W26644  42.306  21.754  10.950
65114W        W26645   5.899  14.830  12.076
65115W        W26646  21.683  18.279   4.769
65116W        W26647  40.822  10.152   2.265
65117W        W26648  12.653  36.579   0.395
65118W        W26649  36.057   4.924   3.781
65119W        W26650   3.873  37.463   0.880
65120W        W26651  26.549  34.908   0.455
65121W        W26652  29.584   5.708  10.497
65122W        W26653  16.718  13.282   2.709
65123W        W26654  24.721   4.418   2.863
65124W        W26655  23.127  24.228   0.466
65125W        W26656  17.269  15.593  13.532
65126W        W26657  31.454  38.415   1.851
65127W        W26658  44.385  11.137   1.234
65128W        W26659  27.162  27.687  11.094
65129W        W26660  11.246  10.752   3.187
65130W        W26661   2.263  19.545   4.296
65131W        W26662  28.940  42.006  10.431
65132W        W26663  24.689  28.121  13.910
65133W        W26664  35.438   1.317   1.701
65134W        W26665  24.195  12.355   2.819
65135W        W26666   2.349  29.009   2.772
65136W        W26667  38.377  19.065   1.245
65137W        W26668   9.727  25.106  13.351
65138W        W26669  10.720   9.384  13.451
65139W        W26670  32.021  13.819  12.826
65140W        W26671  30.156  34.057   0.766
65141W        W26672  44.317  42.334  10.586
65142W        W26673  28.463  33.060   0.443
65143W        W26674  14.166   0.358  14.456
65144W        W26675  33.503  35.569  14.399
65145W        W26676  23.080  29.006   0.907
65146W        W26677  32.052   8.774   1.366
65147W        W26678   7.279  19.628  13.794
65148W        W26679  32.458  22.644   2.213
65149W        W26680  34.038  28.559   0.753
65150W        W26681   9.735   6.398   0.291
65151W        W26682  17.640  13.213  12.966
65152W        W26683  23.121  24.613   2.299
65153W        W26684  17.577  42.461   4.290
65154W        W26685  24.150   4.389   1.239
65155W        W26686  20.213   0.451  14.005
65156W        W26687  40.512  35.530  11.048
65157W        W26688  17.638  18.053   1.277
65158W        W26689  20.213  38.908  11.611
65159W        W26690  43.921  38.517   2.213
65160W        W26691  42.979  14.660   1.438
65161W        W26692  44.960  23.556   2.374
65162W        W26693  29.048  33.408   1.891
65163W        W26694  32.936   5.385   4.131
65164W        W26695  12.672  18.117   2.834
65165W        W26696  19.237  21.595  12.486
65166W        W26697  40.869  37.877  12.467
65167W        W26698   7.728   4.314  10.968
65168W        W26699  20.081  42.895   3.785
65169W        W26700  14.690  12.847  12.037
65170W        W26701  17.650  32.967   0.966
65171W        W26702   3.794  29.482   3.765
65172W        W26703  14.640  41.968   4.765
65173W        W26704   0.834  18.100   1.782
65174W        W26705  34.058  23.990   2.280
65175W        W26706   6.276   2.409   3.237
65176W        W26707  40.956   5.856  10.906
65177W        W26708  20.054  19.272  10.604
65178W        W26709   8.880  30.919  13.798
65179W        W26710  25.201  10.142   2.319
65180W        W26711   4.419  11.333   0.943
65181W        W26712  31.972   5.330  13.440
65182W        W26713  29.152  44.977   0.853
65183W        W26714  38.056  16.785   0.369
65184W        W26715   8.870  14.663  14.929
65185W        W26716  24.681  25.686  11.102
65186W        W26717  35.994   6.810  12.444
65187W        W26718  18.640   3.931  11.090
65188W        W26719  23.049  33.412  10.160
65189W        W26720  10.639  13.288  11.071
65190W        W26721  34.094   6.849   4.634
65191W        W26722  32.425   6.800   0.359
65192W        W26723   3.249  16.080  14.285
65193W        W26724  43.459  31.422   0.740
65194W        W26725  41.796  32.493   4.599
65195W        W26726  11.668  28.486  14.987
65196W        W26727   8.870  23.707  14.818
65197W        W26728  18.640   5.341  13.894
65198W        W26729  43.907  20.074   2.782
65199W        W26730  27.652  15.797   4.286
65200W        W26731  20.556  12.662   1.779
65201W        W26732  43.454  22.169  13.410
65202W        W26733  25.985   5.363  14.936
65203W        W26734  42.508   9.211   2.274
65204W        W26735   1.832  33.558   2.389
65205W        W26736  19.089  21.651   4.817
65206W        W26737  41.416  23.695   0.472
65207W        W26738  41.293  11.262   9.549
65208W        W26739  35.390  22.574   3.189
65209W        W26740  16.624  44.831  12.940
65210W        W26741   5.369   4.242   2.208
65211W        W26742   0.318   3.247  12.028
65212W        W26743  22.247  21.068   0.301
65213W        W26744  25.994   6.856  10.980
65214W        W26745  30.644   2.824   4.602
65215W        W26746   3.793  29.522  14.974
65216W        W26747   7.861  27.101   1.447
65217W        W26748  13.175  11.803   5.131
65218W        W26749   0.759   6.363   1.833
65219W        W26750  17.240  26.066   1.706
65220W        W26751  12.238  40.978   2.310
65221W        W26752   9.857  29.041   1.348
65222W        W26753  18.773  41.431   3.260
65223W        W26754  42.786  37.991  12.343
65224W        W26755  38.404   0.788   2.803
65225W        W26756  22.667  36.059   0.743
65226W        W26757  35.003  34.933   1.383
65227W        W26758  30.156  22.039   3.837
65228W        W26759  14.117  44.270  13.846
65229W        W26760  12.131  22.603   4.827
65230W        W26761   2.830   9.671   4.620
65231W        W26762   7.744  41.464   1.830
65232W        W26763  27.991  26.208  10.997
65233W        W26764   4.351  23.162  14.349
65234W        W26765  33.554  10.768   0.930
65235W        W26766  34.389   6.809  14.763
65236W        W26767  42.785   6.321  11.088
65237W        W26768  38.467  38.940   3.712
65238W        W26769  40.526   8.180   3.641
65239W        W26770   4.917  33.022  11.992
65240W        W26771  35.457  19.700  14.276
65241W        W26772  22.531  42.368  10.901
65242W        W26773  27.476  34.873  13.859
65243W        W26774  15.706  29.090  13.048
65244W        W26775  12.838  26.187  10.989
65245W        W26776   6.218  32.992  13.438
65246W        W26777  18.651  37.898  12.521
65247W        W26778   2.408  24.567   1.878
65248W        W26779  25.137   6.872   2.208
65249W        W26780  14.213  21.058  13.531
65250W        W26781   0.972  15.123   1.236
65251W        W26782   0.775  36.966  13.917
65252W        W26783  42.425  21.180   2.297
65253W        W26784   4.773  38.075   0.964
65254W        W26785  28.484  28.641   0.911
65255W        W26786  29.634  13.181   2.832
65256W        W26787  42.912  19.178   2.877
65257W        W26788  37.508  32.044   2.893
65258W        W26789  37.057  29.444   1.709
65259W        W26790   2.333   2.453   3.267
65260W        W26791  16.227   9.855   1.799
65261W        W26792  27.077  30.098  14.444
65262W        W26793  17.201  17.720   4.213
65263W        W26794  43.510  20.261  10.929
65264W        W26795   2.293  17.661   3.358
65265W        W26796  14.132  15.178   2.241
65266W        W26797  11.248  33.417   3.669
65267W        W26798  30.543   4.362  12.536
65268W        W26799  30.463  37.514   1.777
65269W        W26800  22.714  13.599   3.146
65270W        W26801  10.282  31.583  10.561
65271W        W26802  20.118   9.741   4.128
65272W        W26803   0.828  11.679   0.865
65273W        W26804  24.158  44.790   0.805
65274W        W26805  14.334  12.349   2.330
65275W        W26806   3.949  44.970  10.542
65276W        W26807   0.888   4.328  13.536
65277W        W26808   3.808  39.809  14.970
65278W        W26809  28.487   7.728   0.775
65279W        W26810  22.641  15.679  12.071
65280W        W26811  25.648   9.684   4.701
65281W        W26812  24.663  44.006  14.789
65282W        W26813  12.647  15.213  12.369
65283W        W26814  23.615  28.620  13.910
65284W        W26815   3.251  12.344  10.997
65285W        W26816  21.134  27.009  10.523
65286W        W26817  23.690  37.484   2.223
65287W        W26818  36.999  43.918  13.391
65288W        W26819  28.156  16.663   2.235
65289W        W26820  26.205  19.545   4.615
65290W        W26821  14.131  20.111   0.848
65291W        W26822  36.002   8.200  10.951
65292W        W26823  11.782  14.299   4.198
65293W        W26824  33.458   1.402   4.300
65294W        W26825  10.161   1.947   1.697
65295W        W26826  13.106  35.441   1.280
65296W        W26827  25.086  24.007   4.245
65297W        W26828  41.844   9.322   1.782
65298W        W26829  24.710   5.884   2.833
65299W        W26830  36.441  11.714  11.563
65300W        W26831  20.716  35.939   1.402
65301W        W26832   8.343  30.447   4.178
65302W        W26833  28.950  32.057   4.169
65303W        W26834  32.902  21.735  11.921
65304W        W26835  16.092  12.159   3.675
65305W        W26836   2.339   1.740  13.538
65306W        W26837  21.221  19.653   1.721
65307W        W26838  15.771  16.206  11.077
65308W        W26839  30.007  17.117   2.903
65309W        W26840  26.146  44.897   4.261
65310W        W26841  18.126  41.967  14.805
65311W        W26842  43.460  22.508   1.357
65312W        W26843  13.196  21.118   2.355
65313W        W26844  26.505   2.963   1.789
65314W        W26845  26.141  20.543  11.512
65315W        W26846  10.288  34.951  13.321
65316W        W26847  26.012   9.679   4.163
65317W        W26848  27.599  33.026   4.675
65318W        W26849  33.110  38.481  12.994
65319W        W26850  16.237  38.370  13.351
65320W        W26851  21.749  44.324  11.552
65321W        W26852   1.762  24.580   3.351
65322W        W26853  16.727  29.655  12.448
65323W        W26854  11.224   9.659  11.085
65324W        W26855  17.096  30.436  12.905
65325W        W26856  24.519  23.066  11.918
65326W        W26857   7.176   2.389   2.392
65327W        W26858  37.063   8.303  11.548
65328W        W26859  38.852  19.676   0.388
65329W        W26860   3.933  17.717  11.477
65330W        W26861  28.651  23.217  11.904
65331W        W26862  31.552  19.084  12.566
65332W        W26863  14.799  36.852  12.983
65333W        W26864  36.571  36.061  13.411
65334W        W26865   5.203   6.347   0.781
65335W        W26866  31.514  22.044  11.105
65336W        W26867  26.693   4.223  11.080
65337W        W26868  31.136   9.186  10.063
65338W        W26869  41.007   7.244  10.430
65339W        W26870  30.488  35.064   3.809
65340W        W26871  40.536  30.963  11.405
65341W        W26872  35.923  13.207   3.711
65342W        W26873   9.253   3.284   1.417
65343W        W26874  20.087  31.623   4.278
65344W        W26875  27.952  20.659  10.085
65345W        W26876   1.392  12.784  10.560
65346W        W26877  43.274  31.152   3.842
65347W        W26878   0.417  34.013   1.806
65348W        W26879   8.802   0.265   4.220
65349W        W26880  12.833  38.917  10.134
65350W        W26881  19.565  34.910  14.279
65351W        W26882  17.715   1.261   4.625
65352W        W26883  26.600  12.144   2.818
65353W        W26884  12.150  21.652   3.682
65354W        W26885  25.526  36.491   1.751
65355W        W26886   5.699  22.094   2.369
65356W        W26887  31.941  37.552   0.901
65357W        W26888  14.649   3.808   2.892
65358W        W26889  22.180  13.681   1.779
65359W        W26890  24.067  10.181   1.236
65360W        W26891  19.275  37.921   1.733
65361W        W26892  29.988  13.673  10.465
65362W        W26893  30.574  20.611   2.300
65363W        W26894   6.908  29.610   3.632
65364W        W26895  44.260  44.412   1.853
65365W        W26896  18.663  14.181  12.063
65366W        W26897  44.983  40.304   0.793
65367W        W26898  20.588  24.501  10.938
65368W        W26899   0.982  28.087   0.406
65369W        W26900  17.219  13.240   1.402
65370W        W26901  13.629  10.203  12.833
65371W        W26902  16.763  10.334   3.730
65372W        W26903  14.735  38.431  10.893
65373W        W26904  17.208   7.288  13.319
65374W        W26905   2.961  43.810   3.385
65375W        W26906  34.099  17.616  13.365
65376W        W26907   4.218  22.604   2.291
65377W        W26908  18.639  43.842   4.782
65378W        W26909  22.651   1.736  12.934
65379W        W26910  15.671  44.448  12.543
65380W        W26911   3.327  18.246  12.080
65381W        W26912  37.961  38.474  14.846
65382W        W26913  29.149  42.354  10.630
65383W        W26914  35.035  29.495  11.583
65384W        W26915  24.989  14.636   1.429
65385W        W26916  27.067  14.304  13.461
65386W        W26917  31.574   0.904   2.689
65387W        W26918  23.520  33.542   2.364
65388W        W26919   8.799   2.893  11.482
65389W        W26920   1.954  30.496  14.410
65390W        W26921  24.210  11.631  13.840
65391W        W26922  19.226  40.930  12.060
65392W        W26923  34.526  29.599  14.813
65393W        W26924   9.306  12.137  14.812
65394W        W26925  35.022  31.154  11.441
65395W        W26926  15.110  32.936   1.343
65396W        W26927  44.957  38.452   0.313
65397W        W26928   1.815  38.039   3.169
65398W        W26929   3.817  39.040  10.486
65399W        W26930  35.504  34.092   1.306
65400W        W26931  17.098  10.346   0.757
65401W        W26932  13.226   2.468  12.355
65402W        W26933   7.862  12.163  12.486
65403W        W26934   2.910  20.201  12.853
65404W        W26935  11.308  11.319  13.901
65405W        W26936  10.803  38.393  13.795
65406W        W26937   3.275  28.056   2.179
65407W        W26938   6.851  24.485  13.930
65408W        W26939  12.703  21.262  12.518
65409W        W26940  38.490  34.538   2.878
65410W        W26941  35.445  29.499   0.762
65411W        W26942  18.289  14.114  13.352
65412W        W26943  42.473  11.839   4.312
65413W        W26944  19.263  13.346  10.999
65414W        W26945   2.775   5.421   4.676
65415W        W26946  33.100  12.735   2.759
65416W        W26947   5.379  18.209  11.414
65417W        W26948  39.835  38.556  13.510
65418W        W26949  22.710   9.281  10.149
65419W        W26950  19.066  38.029   4.315
65420W        W26951  19.224  33.099   2.282
65421W        W26952  15.579  27.178  12.528
65422W        W26953  18.279  33.949  10.614
65423W        W26954  38.360  22.048   2.413
65424W        W26955  24.524  27.563  13.323
65425W        W26956  36.908  10.164   3.195
65426W        W26957   8.390  18.671  11.988
65427W        W26958  14.199  30.000   0.264
65428W        W26959  38.461  30.535  14.984
65429W        W26960   4.778  32.970  12.849
65430W        W26961  19.187  36.039  13.051
65431W        W26962  15.718  16.103   0.814
65432W        W26963   7.875  41.330  10.533
65433W        W26964   9.846   5.349  12.850
65434W        W26965  29.603  26.538   3.775
65435W        W26966   2.958   7.826   3.768
65436W        W26967  31.138  32.110  11.931
65437W        W26968   9.372  33.119   3.654
65438W        W26969  15.142  12.347  13.825
65439W        W26970  39.832  44.999  13.032
65440W        W26971  18.174  19.600   0.883
65441W        W26972  10.675  31.617  14.992
65442W        W26973  16.809  38.008   3.798
65443W        W26974  36.913  24.174   4.613
65444W        W26975  37.844   4.781   4.632
65445W        W26976  25.690  26.072  13.348
65446W        W26977  32.110   4.430   4.141
65447W        W26978   0.826  12.238   1.273
65448W        W26979  35.478  38.935  14.355
65449W        W26980  17.730  19.577  10.468
65450W        W26981  38.871   7.883  10.911
65451W        W26982  39.005  43.001  14.482
65452W        W26983  29.937  11.828   1.749
65453W        W26984  37.066  25.164  12.396
65454W        W26985   2.470  11.286   2.316
65455W        W26986  11.704   0.356   1.903
65456W        W26987  32.912   1.936   0.332
65457W        W26988   4.832  34.441   0.480
65458W        W26989  33.065  28.068  14.457
65459W        W26990  27.999  22.113   1.756
65460W        W26991  16.752  28.662  10.645
65461W        W26992  17.651   4.407   0.450
65462W        W26993   0.260   8.331   3.848
65463W        W26994   0.935  38.436  10.563
65464W        W26995  43.908   2.351  12.056
65465W        W26996   7.246  25.976   1.746
65466W        W26997  31.023  21.102  11.604
65467W        W26998  28.569  37.053  11.027
65468W        W26999  26.502  11.220   3.851
65469W        W27000  31.963  16.658  14.501
65470W        W27001  11.174  11.663  13.356
65471W        W27002   8.268  17.197   3.188
65472W        W27003  22.693  17.622   2.671
65473W        W27004  29.144  12.131   1.738
65474W        W27005  16.216  13.842  12.995
65475W        W27006  13.687  14.729   1.834
65476W        W27007  17.169  33.037  11.954
65477W        W27008  36.003  12.821   5.176
65478W        W27009  43.484  40.357  11.083
65479W        W27010  25.103  36.589   2.777
65480W        W27011  42.514   7.212   4.298
65481W        W27012   0.310  21.111  11.959
65482W        W27013   7.711  41.388  13.793
65483W        W27014  29.641   2.350  14.866
65484W        W27015  21.613  25.603  11.403
65485W        W27016   7.328  44.774   0.931
65486W        W27017  20.602  38.977   2.696
65487W        W27018  22.675   9.745  11.407
65488W        W27019  16.258  28.485  13.953
65489W        W27020  23.113   9.391  11.394
65490W        W27021  16.252  17.179  12.912
65491W        W27022  42.867  17.704   3.344
65492W        W27023  35.441   2.922  13.535
65493W        W27024  31.106   5.833   2.206
65494W        W27025  27.577  38.552  12.402
65495W        W27026  39.427   6.890   1.845
65496W        W27027   3.270  34.120  13.412
65497W        W27028  27.561  40.037  11.064
65498W        W27029  38.861  22.658  14.816
65499W        W27030  10.724  17.106  12.066
65500W        W27031  12.168  30.461  12.505
65501W        W27032  32.515   3.306  12.423
65502W        W27033  41.460  37.370   0.424
65503W        W27034  23.010  29.998  12.989
65504W        W27035   8.695  33.433   2.826
65505W        W27036  24.498  28.117   4.304
65506W        W27037  31.915   9.683   3.827
65507W        W27038  11.784   0.786  12.442
65508W        W27039  18.721  29.455  10.012
65509W        W27040  34.867  31.911   3.844
65510W        W27041  21.555   0.824   0.929
65511W        W27042  42.335   0.387   3.158
65512W        W27043  31.036   2.774  12.530
65513W        W27044  28.185  15.704  12.434
65514W        W27045   1.864   6.726   0.809
65515W        W27046  41.876  15.673   5.084
65516W        W27047  11.813   3.277  12.469
65517W        W27048  38.488  26.697   2.714
65518W        W27049   6.371  36.854  12.889
65519W        W27050   2.870   5.725   2.823
65520W        W27051  14.778   0.931  13.502
65521W        W27052   3.777  30.052   0.393
65522W        W27053   6.692   4.230   0.800
65523W        W27054   7.692  17.653   4.717
65524W        W27055  33.952   1.800  14.340
65525W        W27056   5.706  12.632  10.506
65526W        W27057  32.529   1.456  12.835
65527W        W27058  44.366  13.835   3.766
65528W        W27059   3.249  29.454  13.441
65529W        W27060  25.612   8.227   5.602
65530W        W27061  30.531  26.048  13.505
65531W        W27062  23.039   6.914   4.706
65532W        W27063  11.317  30.164  12.045
65533W        W27064  21.522  30.955  11.541
65534W        W27065   8.804   3.445   2.807
65535W        W27066   4.923  11.349  11.882
65536W        W27067   4.769  14.795   1.415
65537W        W27068  28.112   5.326   2.254
65538W        W27069  21.629   4.314   0.358
65539W        W27070   5.224   8.184   3.817
65540W        W27071  20.765   5.862  13.839
65541W        W27072  35.572  25.043  11.023
65542W        W27073  15.236  27.946   2.865
65543W        W27074  23.724  11.192   0.879
65544W        W27075  38.506   4.836   0.433
65545W        W27076  34.894   3.751   0.841
65546W        W27077  22.087  27.172  10.439
65547W        W27078  14.278  13.769  11.105
65548W        W27079   7.415  26.005  10.456
65549W        W27080  37.065  42.316  13.395
65550W        W27081  21.609   8.687   0.903
65551W        W27082  13.232  10.229  12.552
65552W        W27083  10.352  21.741  13.005
65553W        W27084   4.815  33.037   0.294
65554W        W27085  18.068  25.505   4.313
65555W        W27086   4.399  17.095  13.904
65556W        W27087  31.930  38.409   0.895
65557W        W27088  26.639   6.826  14.981
65558W        W27089  19.708  44.770  14.278
65559W        W27090  43.796  33.106   0.832
65560W        W27091  12.268   4.819   2.402
65561W        W27092   5.703  23.059  11.955
65562W        W27093  39.035   2.955   3.761
65563W        W27094  40.408  25.185  13.416
65564W        W27095  12.653  29.169   1.906
65565W        W27096  29.618   0.847   2.749
65566W        W27097  24.586  42.466  13.343
65567W        W27098   8.815  11.829  14.303
65568W        W27099  32.518  41.833  14.908
65569W        W27100   9.802   9.173   0.742
65570W        W27101  29.042  10.212   2.901
65571W        W27102   6.283  21.626  12.430
65572W        W27103  10.838  22.548  11.907
65573W        W27104  33.953  21.562  12.367
65574W        W27105   6.315  37.386  10.565
65575W        W27106  30.578  32.990  11.935
65576W        W27107  11.775  26.561  14.395
65577W        W27108  31.108   5.316  11.092
65578W        W27109   3.254  33.889  12.512
65579W        W27110  20.560  33.549  11.499
65580W        W27111  40.512   7.409  12.891
65581W        W27112  33.508  43.881  13.856
65582W        W27113  23.986  29.124  13.428
65583W        W27114  17.787  26.004   5.661
65584W        W27115  30.620  36.432  14.482
65585W        W27116  44.484  27.640   4.255
65586W        W27117   3.423  24.510   0.799
65587W        W27118  28.558  10.795   0.394
65588W        W27119  33.023  29.572   1.283
65589W        W27120  43.907  35.958  11.375
65590W        W27121  26.467  38.538   4.259
65591W        W27122   1.397  23.090   1.378
65592W        W27123  19.585  14.296  14.288
65593W        W27124  12.807  28.097  10.908
65594W        W27125  16.679  20.102  14.803
65595W        W27126  11.211  24.130  13.823
65596W        W27127  31.126  31.141   2.367
65597W        W27128  29.554  19.735  13.821
65598W        W27129   9.317  39.400   2.687
65599W        W27130  22.675  29.114  14.291
65600W        W27131  36.495  29.131  13.519
65601W        W27132  15.287   9.688  11.034
65602W        W27133  43.892  42.948   0.866
65603W        W27134  28.442  27.553  12.477
65604W        W27135  19.271  44.484   4.725
65605W        W27136  16.604  38.521   3.868
65606W        W27137  10.646  13.302  11.417
65607W        W27138  27.996  27.625  14.927
65608W        W27139   7.910  17.272   1.833
65609W        W27140  38.855  38.016   3.822
65610W        W27141  41.403  21.622  10.569
65611W        W27142   8.232  42.496   3.675
65612W        W27143  13.609  25.005  11.567
65613W        W27144  34.569   2.349  12.368
65614W        W27145   6.216  24.619  11.024
65615W        W27146  44.291  16.120   5.289
65616W        W27147  33.003  23.680   4.647
65617W        W27148  42.928  27.982   2.782
65618W        W27149  28.638  21.071  13.498
65619W        W27150   9.390  14.827  11.009
65620W        W27151  43.771  16.178  10.478
65621W        W27152  41.895  10.266   2.273
65622W        W27153   0.432  13.339   2.367
65623W        W27154  35.480   3.783   2.417
65624W        W27155  17.586  27.530  13.790
65625W        W27156   4.855   8.345   2.665
65626W        W27157   3.405  17.168   4.732
65627W        W27158  29.995  40.916  10.956
65628W        W27159   7.325  18.679   4.322
65629W        W27160  13.146  17.743  10.408
65630W        W27161  22.062  36.875   3.824
65631W        W27162  22.597  22.525   1.891
65632W        W27163  12.615   0.327  11.064
65633W        W27164  13.685   4.283  10.641
65634W        W27165  40.920   4.369   2.268
65635W        W27166  12.692  32.483   1.212
65636W        W27167  28.605  10.795  10.594
65637W        W27168  26.033  40.924   4.651
65638W        W27169  38.501  28.135   0.791
65639W        W27170  27.113   6.861   0.449
65640W        W27171   9.829  27.998  13.478
65641W        W27172  31.522   3.332  10.914
65642W        W27173   5.365  40.003  11.976
65643W        W27174  43.313  44.975  11.973
65644W        W27175  43.353  33.400   3.343
65645W        W27176  12.747  11.132  11.098
65646W        W27177  23.620  10.226   4.194
65647W        W27178  19.064  28.065   3.820
65648W        W27179  30.443  32.603  11.532
65649W        W27180   2.390  44.402   2.401
65650W        W27181  14.681  35.993   9.927
65651W        W27182  44.866  31.497  11.937
65652W        W27183   4.766  16.579   0.918
65653W        W27184  23.033  27.655  10.468
65654W        W27185   6.913  37.010   3.217
65655W        W27186  30.144  15.287  14.505
65656W        W27187  17.800   9.168  11.869
65657W        W27188  19.186  40.335   3.381
65658W        W27189  22.090   4.781   2.416
65659W        W27190  38.929   6.218   1.230
65660W        W27191  29.574  24.490  14.375
65661W        W27192  14.704   4.216  11.535
65662W        W27193   5.399  12.118  13.401
65663W        W27194  28.940  11.235  10.045
65664W        W27195  33.394  23.049  14.953
65665W        W27196  19.158  12.355   1.856
65666W        W27197  30.001  31.596  13.032
65667W        W27198  13.617   2.316   2.351
65668W        W27199   1.825   2.295  11.515
65669W        W27200  16.677  20.763   2.405
65670W        W27201  20.238  22.507   3.632
65671W        W27202  39.900  44.419  12.895
65672W        W27203  19.563  39.427  12.471
65673W        W27204  44.981  37.875   0.733
65674W        W27205  43.803   9.218  14.766
65675W        W27206  33.932   5.831  10.946
65676W        W27207  37.493  40.454   2.279
65677W        W27208  37.910  18.053   4.813
65678W        W27209  25.203  13.159  10.474
65679W        W27210   9.834  23.234   1.722
65680W        W27211  12.120  11.300  11.998
65681W        W27212  42.395  38.400  13.016
65682W        W27213  26.177  43.797   1.391
65683W        W27214   3.799  13.766   2.178
65684W        W27215  12.205  24.660  12.515
65685W        W27216  20.737  28.050  11.118
65686W        W27217  27.547  34.379   3.350
65687W        W27218   6.869  15.684  12.834
65688W        W27219  28.635   4.836  10.447
65689W        W27220  40.010   2.443   1.323
65690W        W27221  39.547  35.463  13.960
65691W        W27222   0.389   2.918   4.725
65692W        W27223   9.703  17.707   0.292
65693W        W27224  24.626  11.150   2.229
65694W        W27225   6.327  19.586   4.659
65695W        W27226  34.905   5.703   2.280
65696W        W27227  18.694  44.431   5.103
65697W        W27228  35.070   4.329  12.523
65698W        W27229   0.878  28.481   2.385
65699W        W27230  20.113  17.639   2.845
65700W        W27231  32.014   0.887  12.059
65701W        W27232   2.296  27.994  13.814
65702W        W27233  42.010  42.951   1.813
65703W        W27234  40.391  41.464  14.983
65704W        W27235  24.064  16.714   0.745
65705W        W27236  21.728  44.378   0.382
65706W        W27237   8.205  40.865  12.028
65707W        W27238  27.051  43.386   4.632
65708W        W27239  10.277  38.045  12.399
65709W        W27240  43.921  25.482  12.091
65710W        W27241  35.868  28.045  10.972
65711W        W27242  19.175  34.119  14.834
65712W        W27243   5.856  35.460  11.552
65713W        W27244  13.649  21.029   3.284
65714W        W27245  36.979  38.049   1.376
65715W        W27246  39.528  28.666  13.375
65716W        W27247  27.599  28.517  10.471
65717W        W27248   0.357  25.132   3.705
65718W        W27249  28.505  37.010   2.191
65719W        W27250  43.437  24.999  12.561
65720W        W27251  34.398  15.208  14.958
65721W        W27252  17.663  41.523   0.382
65722W        W27253  20.542  10.186   0.932
65723W        W27254  37.916  22.135   1.898
65724W        W27255  37.850  38.561  14.503
65725W        W27256  38.377  30.029   4.331
65726W        W27257   9.836  27.127  11.886
65727W        W27258   7.886   1.409   1.747
65728W        W27259  18.609  43.328   2.227
65729W        W27260  29.581  28.136   5.208
65730W        W27261   2.838  30.000   0.919
65731W        W27262  43.282   2.236  13.835
65732W        W27263  22.250  10.218   3.242
65733W        W27264   3.778  34.100  10.559
65734W        W27265  29.623  14.648   4.173
65735W        W27266  25.635   9.177   1.308
65736W        W27267   8.698   3.454   0.474
65737W        W27268  10.800  13.308  12.413
65738W        W27269  39.416  31.076  10.459
65739W        W27270  28.068   3.372   4.180
65740W        W27271  38.540  28.630   1.331
65741W        W27272  24.100  34.419  12.565
65742W        W27273  29.003  13.673  13.329
65743W        W27274  43.883  14.293   0.250
65744W        W27275  29.505   0.332   3.332
65745W        W27276  22.127   7.719   1.862
65746W        W27277   5.287   4.758  10.532
65747W        W27278  40.843  16.663  14.030
65748W        W27279  24.547  25.086  11.470
65749W        W27280  22.058  34.452   4.275
65750W        W27281  10.191  25.044  13.049
65751W        W27282  25.022  16.711  13.012
65752W        W27283  20.522   5.813  11.547
65753W        W27284  21.708  43.906  11.910
65754W        W27285  13.812  28.999   4.665
65755W        W27286  39.031  24.977   5.099
65756W        W27287   2.913  33.516  11.053
65757W        W27288  43.803   7.765   4.774
65758W        W27289   6.208   8.357   1.386
65759W        W27290  22.142  12.791  12.993
65760W        W27291   6.713  19.156  11.117
65761W        W27292  30.500  34.943  11.541
65762W        W27293  20.146  43.305  13.811
65763W        W27294   8.822   2.227  12.371
65764W        W27295  14.832  24.680  12.440
65765W        W27296   8.746  13.713  14.003
65766W        W27297  10.817  25.648  13.479
65767W        W27298  25.573  17.594   0.376
65768W        W27299  16.775   8.189   0.925
65769W        W27300   9.263  32.095  10.562
65770W        W27301  17.213  36.354  11.378
65771W        W27302  42.373  37.002   0.450
65772W        W27303  36.991   5.688  11.938
65773W        W27304  24.003  10.153  12.898
65774W        W27305  17.565  30.934  10.592
65775W        W27306  15.111  43.284   1.362
65776W        W27307  25.519  43.817  12.060
65777W        W27308  25.692  33.453   0.839
65778W        W27309  37.570  29.637  14.965
65779W        W27310  37.848  12.222  10.469
65780W        W27311   0.806   3.304   0.895
65781W        W27312  15.134  25.604   1.897
65782W        W27313   0.301  20.193  14.889
65783W        W27314  39.064  42.351  14.293
65784W        W27315  26.520   8.301  10.630
65785W        W27316  16.745  17.128   0.822
65786W        W27317  33.023  20.681   2.268
65787W        W27318  39.437  28.097   0.455
65788W        W27319  44.370  37.533  10.086
65789W        W27320  42.784  32.464  14.410
65790W        W27321   6.214  17.251  12.527
65791W        W27322  15.292  31.486  12.538
65792W        W27323   1.860  18.694   3.752
65793W        W27324  18.122  22.120  10.591
65794W        W27325   3.749   7.289  13.473
65795W        W27326  26.113  10.369  10.536
65796W        W27327  30.453  39.866  12.407
65797W        W27328  31.635  25.141  13.428
65798W        W27329  32.931  11.703  11.041
65799W        W27330  38.838  39.434   1.866
65800W        W27331   0.863  14.830   3.675
65801W        W27332  11.218   2.257  13.797
65802W        W27333   8.395  27.491   0.330
65803W        W27334  12.802  44.973  14.808
65804W        W27335  43.376  28.064  11.536
65805W        W27336  43.978  16.584  13.430
65806W        W27337  15.814  35.481  13.398
65807W        W27338  15.165  19.704   2.846
65808W        W27339  33.584  36.927   2.829
65809W        W27340  12.815  29.634   0.251
65810W        W27341   2.908   8.734  14.003
65811W        W27342  28.985  27.144  11.534
65812W        W27343  17.254  22.137   3.651
65813W        W27344  20.692  15.751  10.478
65814W        W27345  20.541  14.281   1.801
65815W        W27346  13.278  13.839  14.780
65816W        W27347   2.865  29.440   3.282
65817W        W27348  12.217  18.556   3.717
65818W        W27349  12.820  35.009   3.245
65819W        W27350  43.945  34.956  10.899
65820W        W27351  43.857  36.052  12.845
65821W        W27352  16.293   9.701  14.965
65822W        W27353  34.032  22.709  12.864
65823W        W27354  38.457   6.744   1.933
65824W        W27355  19.533  14.664   2.359
65825W        W27356  20.535  40.432   0.912
65826W        W27357  30.003  15.809  12.091
65827W        W27358  43.940   2.908  12.959
65828W        W27359  24.994   4.747  13.974
65829W        W27360   6.226  27.675   4.267
65830W        W27361  43.849  27.589   1.764
65831W        W27362  42.294  35.916   3.788
65832W        W27363  17.801  31.598  11.944
65833W        W27364   4.236   1.458   2.326
65834W        W27365  31.060  31.457  14.992
65835W        W27366  21.021  12.677   3.306
65836W        W27367  38.919  24.489  11.013
65837W        W27368   1.961  35.550   4.777
65838W        W27369  34.571  10.172  12.894
65839W        W27370  19.087  33.074  11.566
65840W        W27371  10.802   7.177  12.019
65841W        W27372  34.028  11.303   0.965
65842W        W27373  31.036  39.510  11.866
65843W        W27374  26.178  11.272  11.579
65844W        W27375  37.546   8.695  14.879
65845W        W27376  12.786  14.751   1.845
65846W        W27377  31.922   5.914  13.353
65847W        W27378   3.446   3.774   3.692
65848W        W27379  38.446   9.843   3.774
65849W        W27380   7.217   1.883   0.934
65850W        W27381   6.732  11.208   2.679
65851W        W27382  44.830  30.508  13.443
65852W        W27383   1.835  21.153  14.415
65853W        W27384   4.260   4.709   0.377
65854W        W27385   3.936  13.769   1.845
65855W        W27386  34.881  31.985   4.647
65856W        W27387  13.772  29.661  11.993
65857W        W27388  31.041  43.338   2.736
65858W        W27389  27.660  21.718  11.602
65859W        W27390  39.037  39.875   2.742
65860W        W27391  32.128  44.410   4.301
65861W        W27392  21.688   8.205   2.402
65862W        W27393  23.546  22.061  12.382
65863W        W27394   7.734   6.423  11.433
65864W        W27395  19.040   0.844  14.911
65865W        W27396   3.347   4.745   2.706
65866W        W27397  12.302  28.069  14.966
65867W        W27398   5.295  10.369   2.410
65868W        W27399  20.679  32.619  13.515
65869W        W27400  26.049  37.877   0.779
65870W        W27401   4.850  25.510  13.429
65871W        W27402  39.934  44.880   1.402
65872W        W27403  21.260  14.276   0.306
65873W        W27404  24.012  17.586  11.959
65874W        W27405  32.445  39.516  11.941
65875W        W27406   0.916  22.516  12.898
65876W        W27407  10.332  29.609   1.429
65877W        W27408  25.699   4.834   1.752
65878W        W27409  23.985   0.890  10.095
65879W        W27410  17.768  19.743  11.940
65880W        W27411  26.035   3.385  14.023
65881W        W27412  10.242  33.472   9.980
65882W        W27413  11.132   9.257  13.417
65883W        W27414  35.407  38.944  13.882
65884W        W27415   2.726  20.585  14.448
65885W        W27416  23.561  19.204   0.309
65886W        W27417  34.553  19.726   2.867
65887W        W27418  38.995  17.745   0.824
65888W        W27419   3.278   3.805   4.144
65889W        W27420  44.999  28.096   1.739
65890W        W27421  30.995  43.848  13.519
65891W        W27422  32.047  15.264   2.866
65892W        W27423  33.541  40.308  14.002
65893W        W27424  43.276  13.777   1.924
65894W        W27425  29.017  30.460  10.575
65895W        W27426  42.282  27.150  11.493
65896W        W27427  34.104  31.532  11.517
65897W        W27428  21.708  21.536  11.428
65898W        W27429   9.272  13.193   1.324
65899W        W27430  16.105  30.484   0.480
65900W        W27431  27.968  35.489   0.362
65901W        W27432  10.876  15.255  13.500
65902W        W27433   7.386  23.683  11.542
65903W        W27434  41.445  36.879   3.172
65904W        W27435  44.821   2.434   2.349
65905W        W27436  20.607  30.608   1.397
65906W        W27437   0.857   9.345   1.838
65907W        W27438  24.547  12.166   0.243
65908W        W27439  41.879  27.167  12.024
65909W        W27440  13.750   1.386  10.465
65910W        W27441   3.887  22.706   2.350
65911W        W27442   7.894  34.460   0.251
65912W        W27443  33.529  37.501  12.558
65913W        W27444  25.064  42.003  10.965
65914W        W27445  41.943  44.332   0.753
65915W        W27446  35.885  31.492  11.033
65916W        W27447  31.074  15.582  13.387
65917W        W27448  35.491  30.953   4.192
65918W        W27449   8.163   1.325  11.987
65919W        W27450   0.913  43.334   4.647
65920W        W27451  28.948  44.812  14.364
65921W        W27452  35.871  14.251   4.599
65922W        W27453  14.680  15.606   1.759
65923W        W27454   6.427   7.408  11.915
65924W        W27455  22.189  12.804   1.808
65925W        W27456  34.101  30.592  14.946
65926W        W27457  33.962  36.481  11.052
65927W        W27458   9.232  32.985   4.834
65928W        W27459  11.211   9.733   3.649
65929W        W27460   7.177  40.513  10.446
65930W        W27461  37.470  26.579   2.181
65931W        W27462   1.308  33.886  14.472
65932W        W27463  42.855  34.889   0.262
65933W        W27464  27.962   5.288  12.947
65934W        W27465  36.021  44.286  12.370
65935W        W27466  41.348   8.250   2.205
65936W        W27467  43.006  38.886   5.235
65937W        W27468  43.492  33.585  11.450
65938W        W27469  31.644   6.380  13.973
65939W        W27470  36.872  11.862  12.019
65940W        W27471  40.907  25.075   0.405
65941W        W27472  37.017  34.074  11.053
65942W        W27473  15.153  36.857   3.722
65943W        W27474  27.653  19.138  12.484
65944W        W27475  43.325  35.581   0.947
65945W        W27476  44.462  32.399  12.528
65946W        W27477  34.043  18.271  12.919
65947W        W27478   1.287  13.623  13.354
65948W        W27479  41.325  35.900   0.430
65949W        W27480   6.720  20.163  10.994
65950W        W27481  15.594  27.000  13.880
65951W        W27482   0.981  13.188  11.526
65952W        W27483  29.534   6.416   2.827
65953W        W27484  28.104   3.229  10.442
65954W        W27485  10.705   2.321  10.120
65955W        W27486  32.915  29.113  13.511
65956W        W27487   2.908   3.726  10.406
65957W        W27488  22.247  42.906  11.872
65958W        W27489  32.948  12.140  10.475
65959W        W27490  18.590  41.463  11.956
65960W        W27491  12.622  10.269   1.739
65961W        W27492  31.417  36.058   3.805
65962W        W27493  14.795   3.774   3.758
65963W        W27494  25.079  36.592   4.708
65964W        W27495   6.755  15.106  14.834
65965W        W27496   0.985  26.558   2.295
65966W        W27497  27.048  16.696  12.096
65967W        W27498  10.221   3.744   0.267
65968W        W27499  41.854  41.397  10.945
65969W        W27500  35.056  21.144   1.819
65970W        W27501  40.806  24.996   3.287
65971W        W27502  32.056  37.498  11.124
65972W        W27503  19.086   8.745   5.183
65973W        W27504  31.989  11.639   0.379
65974W        W27505  13.235  24.978   3.798
65975W        W27506   1.452   2.379   0.863
65976W        W27507  30.132  27.123  12.412
65977W        W27508  29.612  28.987   2.381
65978W        W27509  42.341  15.309  14.013
65979W        W27510   8.187  30.487   3.344
65980W        W27511   3.938   1.743   0.745
65981W        W27512  15.754  26.507  13.060
65982W        W27513   8.366  14.143  11.083
65983W        W27514  10.349   6.324   3.749
65984W        W27515  32.610  41.395  12.380
65985W        W27516  39.826  19.708   2.194
65986W        W27517  23.086  17.209  13.945
65987W        W27518  42.869  34.383  11.041
65988W        W27519  32.573  24.516  11.863
65989W        W27520  16.664  42.459  13.015
65990W        W27521   8.698   3.322  11.557
65991W        W27522   8.263  43.359   1.341
65992W        W27523  34.391  26.136  14.799
65993W        W27524   9.708  11.727  11.501
65994W        W27525  19.230  28.075   1.913
65995W        W27526  43.299  44.348   3.322
65996W        W27527  18.172  23.703   0.401
65997W        W27528  14.258  17.144  11.947
65998W        W27529  17.733   8.265   3.758
65999W        W27530  33.954  44.797   2.863
66000W        W27531   3.932  36.575   0.892
66001W        W27532  15.151   2.815  11.970
66002W        W27533  33.397  14.663   4.801
66003W        W27534  19.244   1.976   1.275
66004W        W27535  44.883   2.265  13.325
66005W        W27536  11.274  17.079  14.287
66006W        W27537  37.065  15.813  10.414
66007W        W27538  20.262  20.194  12.832
66008W        W27539  34.099  18.074  11.466
66009W        W27540   8.838  21.185   0.279
66010W        W27541  14.629  25.076  12.342
66011W        W27542  34.984  21.641  11.442
66012W        W27543   0.449  27.525  12.354
66013W        W27544  34.466  12.638  13.849
66014W        W27545  33.058   1.944  11.444
66015W        W27546  24.618  13.820   1.906
66016W        W27547   2.886  23.114  10.029
66017W        W27548  42.323   9.880   0.947
66018W        W27549  41.942   3.376  14.377
66019W        W27550  11.675   3.310   0.347
66020W        W27551  31.011  23.031  14.979
66021W        W27552  34.103  41.804  13.013
66022W        W27553  26.055  28.004   1.858
66023W        W27554  39.064  14.216   5.216
66024W        W27555  43.794  22.168   3.362
66025W        W27556   0.374  32.412  14.454
66026W        W27557  21.523  18.095   1.763
66027W        W27558  16.254  22.212   1.887
66028W        W27559  41.337  11.346  14.007
66029W        W27560  40.055  19.190  11.946
66030W        W27561   7.363  29.514  12.371
66031W        W27562   6.353   8.716  14.370
66032W        W27563  29.603  33.048  11.046
66033W        W27564  35.893  37.526  12.524
66034W        W27565  17.149   4.766  10.518
66035W        W27566  33.616  16.605   4.240
66036W        W27567  20.706  28.983   1.815
66037W        W27568  21.160  11.675   0.776
66038W        W27569  13.685   0.766  12.383
66039W        W27570  37.423  41.905   0.835
66040W        W27571   2.396  43.835   1.306
66041W        W27572  18.109  35.362   2.319
66042W        W27573  34.105  33.430   3.701
66043W        W27574   5.777  21.526  13.363
66044W        W27575  27.490   6.745  10.547
66045W        W27576  14.819   7.872   2.672
66046W        W27577  18.645  28.503  13.497
66047W        W27578  43.808  24.073   4.812
66048W        W27579  17.609   7.293  13.423
66049W        W27580   7.189  43.406   0.423
66050W        W27581  16.601  20.216   0.274
66051W        W27582  32.072  38.480  12.918
66052W        W27583  22.722   6.332   4.335
66053W        W27584   3.427  20.242  12.896
66054W        W27585  38.851  44.808  13.060
66055W        W27586  38.839  44.935   2.356
66056W        W27587  27.589  12.264   1.899
66057W        W27588   4.263   3.429   2.845
66058W        W27589  10.790  41.521   1.746
66059W        W27590  23.072   8.813  14.424
66060W        W27591   6.300  20.652  13.435
66061W        W27592  21.677  23.666   0.767
66062W        W27593  11.749  14.662   4.659
66063W        W27594  19.632  14.742   0.918
66064W        W27595  44.928   5.279   3.867
66065W        W27596  41.382  34.569   2.340
66066W        W27597  29.025  19.203   3.712
66067W        W27598  12.282  25.159  13.017
66068W        W27599  31.444  29.169  14.881
66069W        W27600   1.891   0.816  11.942
66070W        W27601  34.375  43.487   0.466
66071W        W27602  36.540  33.415   5.216
66072W        W27603  30.927  38.941   1.223
66073W        W27604  18.132  41.457   3.764
66074W        W27605   7.185  26.057  12.362
66075W        W27606   5.878  22.705  11.411
66076W        W27607  19.661  40.031  13.875
66077W        W27608  20.108  23.018  11.859
66078W        W27609  40.480  33.417  11.858
66079W        W27610   9.281  43.417  13.340
66080W        W27611   3.218  38.834  11.381
66081W        W27612  27.195   6.420  14.766
66082W        W27613  32.532   1.460  12.361
66083W        W27614  20.543   8.723  10.888
66084W        W27615  36.001  43.998  14.350
66085W        W27616   5.889  12.742   2.849
66086W        W27617  33.459   8.885  12.845
66087W        W27618  40.990  31.922   3.837
66088W        W27619   8.751  11.264  13.407
66089W        W27620   3.953  31.102  11.927
66090W        W27621   7.878   6.271   2.202
66091W        W27622   4.387  39.525   2.245
66092W        W27623   0.375  31.631   2.735
66093W        W27624  13.150   1.418   0.950
66094W        W27625  30.961  26.631   3.842
66095W        W27626  23.550  36.031  11.109
66096W        W27627  14.193  12.194   3.196
66097W        W27628  26.616  24.623  13.036
66098W        W27629  43.314  43.956  14.017
66099W        W27630   7.839  39.011  12.451
66100W        W27631  40.525  10.353   3.312
66101W        W27632  16.728  36.988   3.669
66102W        W27633   4.298   9.848   1.834
66103W        W27634  42.393  22.687   2.220
66104W        W27635  12.856   5.851   4.170
66105W        W27636   1.843  38.889  10.440
66106W        W27637  22.167  10.224  10.534
66107W        W27638   7.285  31.011   3.212
66108W        W27639  40.445  29.094  11.536
66109W        W27640  31.597   1.943   3.378
66110W        W27641  19.115   7.723   1.301
66111W        W27642  25.659  19.284  14.338
66112W        W27643  44.001  31.006   3.204
66113W        W27644  44.363  41.852   2.677
66114W        W27645  39.909   8.316   2.326
66115W        W27646  24.056  10.334   3.241
66116W        W27647   7.724  43.940   3.644
66117W        W27648  16.723  19.556  14.960
66118W        W27649  29.656   6.268   2.355
66119W        W27650  37.452  43.486   2.187
66120W        W27651  28.930  28.966   3.297
66121W        W27652   0.870  28.015  11.883
66122W        W27653  26.154  44.010  12.995
66123W        W27654  39.420  26.495   3.214
66124W        W27655  38.524   1.286   2.817
66125W        W27656  14.235  19.041   3.722
66126W        W27657   4.238   6.342   3.256
66127W        W27658  24.066  35.436  14.013
66128W        W27659  40.963  43.476   0.242
66129W        W27660  26.142  39.476  14.411
66130W        W27661   9.878  25.144  13.934
66131W        W27662   4.310  12.764  14.455
66132W        W27663  34.463  14.643   2.801
66133W        W27664  21.163  44.986   4.601
66134W        W27665  35.910   9.363   3.713
66135W        W27666  32.622   3.955  11.055
66136W        W27667   8.183  27.002   2.352
66137W        W27668  17.640  38.406  10.995
66138W        W27669  30.536  43.333   2.222
66139W        W27670  15.238  43.487  12.067
66140W        W27671  12.191   8.236  10.901
66141W        W27672  22.217  36.383  11.394
66142W        W27673  10.256  32.475   2.764
66143W        W27674  23.098  21.033   4.816
66144W        W27675  35.466   0.764  10.438
66145W        W27676   8.252  22.173  14.866
66146W        W27677  18.167   8.837   1.785
66147W        W27678  38.548  43.382  11.382
66148W        W27679  34.047  40.377  13.489
66149W        W27680  17.217   4.895   4.320
66150W        W27681   8.184  37.911  14.289
66151W        W27682   8.275  42.291   1.928
66152W        W27683  41.930   3.367  12.870
66153W        W27684  16.240  20.576   0.903
66154W        W27685   8.164   1.749   2.379
66155W        W27686  23.605  38.467   4.731
66156W        W27687   0.398  44.763   3.828
66157W        W27688  29.014   2.290   2.207
66158W        W27689  20.570  17.655  11.574
66159W        W27690   2.799   8.318   2.201
66160W        W27691   3.423  14.235   2.342
66161W        W27692  31.463  22.160   3.720
66162W        W27693  23.020  17.121  11.567
66163W        W27694   3.343  30.956   0.810
66164W        W27695  31.464  40.479  12.425
66165W        W27696  29.554  38.837  10.067
66166W        W27697  37.475  20.632   4.821
66167W        W27698  43.508  13.256  10.925
66168W        W27699  43.989  27.565   4.311
66169W        W27700  17.601  28.151   3.837
66170W        W27701  32.897   2.396   1.765
66171W        W27702  29.043  26.685   3.712
66172W        W27703  37.493  41.396  14.001
66173W        W27704   3.292  14.141  12.074
66174W        W27705  17.163  39.904   3.240
66175W        W27706  20.062  12.649  14.764
66176W        W27707   3.919  20.074   0.750
66177W        W27708  31.607  43.342  13.472
66178W        W27709  36.857  16.693  14.893
66179W        W27710   1.458  44.439  12.381
66180W        W27711  11.810  13.244  11.539
66181W        W27712  19.732   9.733   0.918
66182W        W27713  39.024  23.552  11.575
66183W        W27714  33.621   9.756   0.376
66184W        W27715  42.938  16.741  10.603
66185W        W27716  31.539  23.597   4.274
66186W        W27717  19.709  36.016  14.919
66187W        W27718   3.235  14.305  14.776
66188W        W27719  31.443  39.030   2.347
66189W        W27720  34.865  35.084  14.487
66190W        W27721   0.373   2.433   4.794
66191W        W27722  15.822  30.129  11.880
66192W        W27723  39.339   6.307  11.995
66193W        W27724  31.946  30.130  11.585
66194W        W27725  32.018   0.487  13.437
66195W        W27726   7.340   1.754  13.482
66196W        W27727  14.669  30.577   1.359
66197W        W27728  38.972  18.674   0.926
66198W        W27729  19.127  38.052  12.515
66199W        W27730  31.952  31.010   4.318
66200W        W27731  19.089  44.001  10.903
66201W        W27732  42.508  26.966   2.755
66202W        W27733  11.339   9.820   4.321
66203W        W27734  34.590  31.897  13.443
66204W        W27735   3.817  31.549  13.975
66205W        W27736  35.918  17.638   3.867
66206W        W27737  27.654   8.165   2.356
66207W        W27738  36.517  23.611   3.635
66208W        W27739  30.415  16.602  14.912
66209W        W27740  44.757  20.260   4.724
66210W        W27741  29.097  30.999  10.999
66211W        W27742  29.604  44.982   4.202
66212W        W27743  32.922  42.828  14.846
66213W        W27744   1.872  25.666  14.997
66214W        W27745  23.631  40.306  11.066
66215W        W27746  43.471  44.851  12.521
66216W        W27747  17.262   7.735   4.241
66217W        W27748   6.860   5.738  13.032
66218W        W27749  27.578  22.020  14.026
66219W        W27750   4.284  23.075   4.216
66220W        W27751  43.005  23.698   4.135
66221W        W27752  29.110  35.901   4.347
66222W        W27753  40.540   4.943   4.760
66223W        W27754  35.402  37.911   2.777
66224W        W27755   7.726  38.372   1.703
66225W        W27756  20.617  27.188  10.632
66226W        W27757  14.338  30.975   0.921
66227W        W27758  32.915  23.216  13.948
66228W        W27759   0.770  29.996  11.965
66229W        W27760  35.039  21.150  12.510
66230W        W27761  16.772  17.576   4.299
66231W        W27762  33.941  18.198  12.057
66232W        W27763  25.152  40.026  14.492
66233W        W27764   3.924  34.609  14.989
66234W        W27765   7.740  25.711   3.838
66235W        W27766  26.051  26.552  14.438
66236W        W27767  42.477  35.382   3.233
66237W        W27768  37.016  32.615  14.498
66238W        W27769   6.721  30.129   0.764
66239W        W27770  24.030  19.617  11.611
66240W        W27771   7.762  29.579   2.770
66241W        W27772  40.936   1.962   0.265
66242W        W27773  32.525  37.055  10.481
66243W        W27774  35.590  13.803   3.206
66244W        W27775  35.019  34.537  10.489
66245W        W27776  37.937  32.088   1.895
66246W        W27777   4.769  21.070  12.940
66247W        W27778  29.100  14.695  11.062
66248W        W27779   0.825  26.975  13.901
66249W        W27780  40.489  28.514  14.794
66250W        W27781  35.909   2.415   1.364
66251W        W27782   6.225  27.062   3.830
66252W        W27783  28.956  23.070  11.448
66253W        W27784   8.276  15.628   0.935
66254W        W27785   6.763   2.821   3.218
66255W        W27786  21.128   4.375  10.644
66256W        W27787  41.885   4.246  12.436
66257W        W27788   6.258  24.688  11.525
66258W        W27789  42.368   6.256  11.898
66259W        W27790  25.061  14.702  11.386
66260W        W27791  15.739  23.240  13.833
66261W        W27792  22.138   3.350   0.365
66262W        W27793  19.689  12.856  11.436
66263W        W27794  43.433  11.833  12.967
66264W        W27795  31.425  26.585  12.571
66265W        W27796  32.599  38.521   2.224
66266W        W27797  43.936  30.954   1.923
66267W        W27798  36.976  24.542  12.396
66268W        W27799  40.468  29.651   3.158
66269W        W27800  26.075  27.187  11.558
66270W        W27801  35.461  22.125  14.275
66271W        W27802   0.841  31.961  10.091
66272W        W27803  32.008  26.471   4.827
66273W        W27804   7.738  39.445  11.532
66274W        W27805   8.682  14.607   0.742
66275W        W27806  36.487  35.363  12.433
66276W        W27807  17.169  21.212   2.203
66277W        W27808   7.689  15.190  10.993
66278W        W27809  25.016   3.945  11.527
66279W        W27810  19.113  24.525   3.326
66280W        W27811  13.646  16.300   2.196
66281W        W27812  25.051   2.831  14.874
66282W        W27813  36.375  14.195  12.973
66283W        W27814  35.884  24.135  10.918
66284W        W27815   7.340  23.591  12.488
66285W        W27816   5.899   5.793   4.308
66286W        W27817  37.838  40.525  10.074
66287W        W27818  30.976  25.482   2.837
66288W        W27819  21.592  22.252  10.907
66289W        W27820  28.014  19.648  14.396
66290W        W27821   6.270  30.473   1.222
66291W        W27822   6.790  19.726   3.791
66292W        W27823  40.488  10.694  10.917
66293W        W27824   4.228  12.622  13.060
66294W        W27825   8.322  41.448   3.243
66295W        W27826  37.088  32.130  12.018
66296W        W27827  33.609  40.833   0.460
66297W        W27828  25.132  11.864  13.925
66298W        W27829  11.650  30.008   0.406
66299W        W27830  35.507   2.371   0.254
66300W        W27831  39.474  24.181   2.767
66301W        W27832  37.506  23.610  12.032
66302W        W27833  32.530  31.416   0.871
66303W        W27834  28.140  19.619   4.822
66304W        W27835   5.373   1.739  10.954
66305W        W27836   0.430   5.341   0.873
66306W        W27837  17.729  11.133  14.379
66307W        W27838  10.207   3.873  10.438
66308W        W27839   4.443  31.471  14.291
66309W        W27840   4.766  19.778   5.297
66310W        W27841  22.180  41.357   3.239
66311W        W27842  12.682  40.405   5.160
66312W        W27843  34.886  29.973  13.904
66313W        W27844  20.766   4.931  14.906
66314W        W27845   6.735  32.919  14.328
66315W        W27846   3.899  23.504  11.517
66316W        W27847  17.595  38.890   0.453
66317W        W27848  18.701   1.430   1.810
66318W        W27849   3.240  40.853   0.366
66319W        W27850  33.001  33.037   1.713
66320W        W27851  32.399   7.894  11.088
66321W        W27852  30.051   7.276   3.327
66322W        W27853  26.618  25.666  13.930
66323W        W27854  17.628  43.500   0.819
66324W        W27855   5.876  30.103  12.965
66325W        W27856  17.796  38.836  10.448
66326W        W27857  21.057  40.921   2.254
66327W        W27858  24.535  12.819  13.512
66328W        W27859   9.862  36.893  12.570
66329W        W27860  25.625  23.045  14.844
66330W        W27861  20.560  38.940   3.347
66331W        W27862   1.289  22.210  11.866
66332W        W27863  13.680   5.348  11.027
66333W        W27864  15.158  43.820   3.176
66334W        W27865  23.995  28.171  14.786
66335W        W27866  43.772  15.770   3.844
66336W        W27867   6.906  18.695  14.913
66337W        W27868  20.756  35.069   3.794
66338W        W27869   1.758  18.709  10.618
66339W        W27870   0.742  18.235  13.861
66340W        W27871  21.550  27.956  10.981
66341W        W27872   1.401  25.568   2.260
66342W        W27873  29.971  43.382   1.229
66343W        W27874  30.420  16.585  11.882
66344W        W27875  38.915  26.701  13.938
66345W        W27876  19.212  10.189   2.816
66346W        W27877  16.257  36.461   4.651
66347W        W27878  28.106  38.853   0.901
66348W        W27879  13.751  30.539  14.285
66349W        W27880   2.466  15.153   3.830
66350W        W27881  21.557   2.947  10.504
66351W        W27882   0.907  22.189  12.855
66352W        W27883  13.116  34.581   3.743
66353W        W27884  14.296   0.929  11.076
66354W        W27885  44.324  25.017   3.666
66355W        W27886  32.980  34.506  14.513
66356W        W27887  43.874  28.950  13.882
66357W        W27888   7.301  34.895  12.937
66358W        W27889   9.394   9.345  12.459
66359W        W27890  18.273  14.316   3.257
66360W        W27891  27.000  20.601   4.165
66361W        W27892  14.826   5.863  14.456
66362W        W27893  10.671  37.398  12.384
66363W        W27894  44.370  29.565   1.752
66364W        W27895  43.814  43.487   0.390
66365W        W27896   2.431  13.637   0.764
66366W        W27897  27.994  25.127  12.080
66367W        W27898  43.941  11.248   4.653
66368W        W27899   1.364  13.658   1.903
66369W        W27900  22.049  35.568   0.367
66370W        W27901  17.111   3.424   9.950
66371W        W27902  38.001  23.504   4.831
66372W        W27903  41.911   2.755   1.779
66373W        W27904  29.930  16.613   2.342
66374W        W27905  24.716  12.694  14.409
66375W        W27906  13.245  10.856  13.429
66376W        W27907   1.355   0.264   4.251
66377W        W27908  40.962  44.801   4.318
66378W        W27909  30.917  15.789   4.621
66379W        W27910  11.326  31.901  12.019
66380W        W27911  12.689   8.748   4.808
66381W        W27912   9.885  36.937  13.522
66382W        W27913  34.007   0.327  12.921
66383W        W27914  35.438  43.846   1.747
66384W        W27915  23.699   4.390   1.914
66385W        W27916  19.549  24.126   0.396
66386W        W27917  24.986  34.370  12.371
66387W        W27918  13.707  32.008  12.979
66388W        W27919   9.360  17.179   3.629
66389W        W27920  12.188  22.532   0.359
66390W        W27921  18.233  23.721   0.784
66391W        W27922   0.437   2.773   1.756
66392W        W27923  24.024  17.230  13.894
66393W        W27924  29.948  30.433   0.879
66394W        W27925  14.615  38.474  10.426
66395W        W27926   4.412   3.721  14.344
66396W        W27927  20.755  34.534  13.048
66397W        W27928  21.608  44.319   3.698
66398W        W27929  10.878  14.752   4.742
66399W        W27930  29.577   4.415   0.327
66400W        W27931   5.851  19.584  14.977
66401W        W27932  15.644   4.262  11.928
66402W        W27933  33.117   7.772   4.828
66403W        W27934  30.419   7.267  11.974
66404W        W27935   4.268   1.463   1.845
66405W        W27936  30.931  30.418   1.837
66406W        W27937   9.793  19.152   4.120
66407W        W27938   7.392   7.665   4.346
66408W        W27939  29.553  25.491   1.893
66409W        W27940  39.376  17.064  13.411
66410W        W27941  15.270   0.407  14.984
66411W        W27942  18.274   7.807  13.028
66412W        W27943  16.742  18.692   1.295
66413W        W27944  17.777  29.471   3.340
66414W        W27945   4.915   4.339  13.920
66415W        W27946  39.967  39.544  10.893
66416W        W27947  10.249  40.000  10.495
66417W        W27948   9.645  33.502   2.786
66418W        W27949  39.885  39.474  13.809
66419W        W27950  40.950   4.426  13.450
66420W        W27951   5.378  40.545  10.899
66421W        W27952  41.985  19.562  14.987
66422W        W27953   5.281  14.187  11.482
66423W        W27954  29.934  40.488  14.914
66424W        W27955  37.914  14.757   1.749
66425W        W27956  26.188   7.333  13.051
66426W        W27957   4.705  25.712   2.800
66427W        W27958  21.025  44.500  13.864
66428W        W27959  29.496  23.054   3.371
66429W        W27960  24.527   2.843   3.750
66430W        W27961  21.106  26.193   5.183
66431W        W27962   9.241  27.182  11.489
66432W        W27963  26.571   3.729   1.829
66433W        W27964  43.376  11.216   2.717
66434W        W27965  25.064  42.308   4.255
66435W        W27966  26.632  27.962   3.359
66436W        W27967  20.272  31.109   1.330
66437W        W27968  20.564  30.068  12.029
66438W        W27969  22.620  42.350   1.925
66439W        W27970  40.500  23.626   1.408
66440W        W27971  15.618  36.553  10.432
66441W        W27972  24.573   0.939  11.408
66442W        W27973  35.576   6.324  14.506
66443W        W27974  22.018   9.861   1.841
66444W        W27975  29.104  36.989  14.911
66445W        W27976   6.729   1.845   1.712
66446W        W27977  13.668   6.819  12.057
66447W        W27978  28.631   7.761  11.923
66448W        W27979  10.364  12.638   4.741
66449W        W27980  27.453  25.045   3.643
66450W        W27981  43.474  25.171  12.895
66451W        W27982  17.287  40.852   2.318
66452W        W27983  38.412   1.893   2.408
66453W        W27984   9.273   5.884  12.478
66454W        W27985  11.136  31.484   1.418
66455W        W27986  42.021  19.637   1.746
66456W        W27987  28.460  24.013   1.768
66457W        W27988  30.622   3.425  10.621
66458W        W27989  14.804  40.941   4.255
66459W        W27990  14.312  26.489   4.781
66460W        W27991  37.370  39.445   4.728
66461W        W27992  15.593  38.349   9.957
66462W        W27993   6.773  24.146  13.820
66463W        W27994  38.352  17.645  11.441
66464W        W27995   4.408  31.437   3.211
66465W        W27996  32.136  18.748  14.007
66466W        W27997  14.195  10.660  12.408
66467W        W27998   7.840   7.356   2.275
66468W        W27999  36.878  32.635  12.916
66469W        W28000  14.233  13.780  14.334
66470W        W28001  27.979  23.563   4.618
66471W        W28002  21.694  10.332  12.941
66472W        W28003  38.868  29.085   2.308
66473W        W28004  23.060  43.281   4.150
66474W        W28005  29.598  32.972   2.791
66475W        W28006  39.862  22.119  12.399
66476W        W28007  11.666  21.085  12.462
66477W        W28008  16.581  37.483  12.850
66478W        W28009  43.285   6.772   0.442
66479W        W28010  22.737   0.372  11.974
66480W        W28011  39.454  13.204   4.635
66481W        W28012  22.999  24.211  12.518
66482W        W28013  34.926  20.231   2.181
66483W        W28014  39.368  30.483  12.828
66484W        W28015  21.239  10.226  11.949
66485W        W28016  39.843   2.785  14.458
66486W        W28017  35.499   7.839   1.369
66487W        W28018  17.166   4.219  14.852
66488W        W28019   1.866  18.193  14.329
66489W        W28020  31.511  33.994  11.027
66490W        W28021   5.418  11.355   0.792
66491W        W28022   3.369   5.377  12.047
66492W        W28023   1.905  17.683  12.409
66493W        W28024  39.515   1.320  14.512
66494W        W28025  39.994  39.367   0.922
66495W        W28026  35.890  29.053  11.954
66496W        W28027  10.831  16.637   4.609
66497W        W28028  44.858  23.042  14.303
66498W        W28029   0.821  25.664   4.208
66499W        W28030   7.736  29.453   0.422
66500W        W28031  31.557   5.728   0.791
66501W        W28032  12.672  28.604   1.391
66502W        W28033  24.482   6.780   3.862
66503W        W28034  40.961  37.902  14.417
66504W        W28035  12.143  18.699   1.328
66505W        W28036  22.682  18.723  13.522
66506W        W28037  42.838  13.195  13.926
66507W        W28038  34.382  11.661   2.771
66508W        W28039  18.638  19.727  10.925
66509W        W28040  44.969  40.517   9.952
66510W        W28041  19.127  10.665   0.332
66511W        W28042   4.892  35.476   1.321
66512W        W28043  25.184  38.014   2.881
66513W        W28044  22.682  30.582  12.487
66514W        W28045  41.987   6.836   1.844
66515W        W28046  34.031   1.761  10.507
66516W        W28047  28.140  18.751  13.520
66517W        W28048   4.813  34.458  11.025
66518W        W28049   5.919  26.516  11.505
66519W        W28050  11.853   8.276   2.247
66520W        W28051  14.753  34.044   2.798
66521W        W28052   7.246  25.165  10.437
66522W        W28053   3.409   5.391   1.783
66523W        W28054  23.606  36.559   2.201
66524W        W28055  28.436  21.186   4.199
66525W        W28056   3.753   6.913  13.846
66526W        W28057  33.951  29.122   1.734
66527W        W28058  31.910  19.102  14.842
66528W        W28059  41.469  42.298  12.514
66529W        W28060  11.152  32.982   3.233
66530W        W28061  31.473  25.029   3.785
66531W        W28062  16.085  22.229  11.948
66532W        W28063  36.019   4.716  13.443
66533W        W28064  38.984  23.725  12.439
66534W        W28065  21.124  12.206  13.382
66535W        W28066  37.399  21.026  11.528
66536W        W28067   5.704  36.936  10.454
66537W        W28068  12.158   3.935   2.342
66538W        W28069  12.704  11.652  12.485
66539W        W28070  21.625  28.110  12.891
66540W        W28071  28.113  16.682   3.333
66541W        W28072  22.503  34.911  14.299
66542W        W28073  19.708  32.615   0.445
66543W        W28074  30.074  13.695   4.255
66544W        W28075  18.200  25.197   1.391
66545W        W28076  15.673  39.889   2.819
66546W        W28077  37.017   6.410   1.262
66547W        W28078  30.121  12.338   0.410
66548W        W28079  19.236   5.759  12.507
66549W        W28080  34.872  39.364  14.859
66550W        W28081  28.991  14.642  14.953
66551W        W28082  19.734  16.755   0.819
66552W        W28083  21.755  25.698  13.880
66553W        W28084  26.981  32.596  13.039
66554W        W28085  24.081   7.362   1.860
66555W        W28086   0.387  42.798  11.401
66556W        W28087  43.798   6.189  11.388
66557W        W28088  29.971  44.951  14.996
66558W        W28089  26.084  42.299   4.341
66559W        W28090  17.640  25.651   0.729
66560W        W28091   8.288  42.828  11.015
66561W        W28092  34.475   6.259   3.829
66562W        W28093  16.264   7.255   2.723
66563W        W28094   4.820  43.500   2.760
66564W        W28095   2.459   0.805  10.461
66565W        W28096  34.864  34.373   5.772
66566W        W28097  22.211  30.101   9.985
66567W        W28098  22.627  27.979   2.356
66568W        W28099  37.571   7.403   3.826
66569W        W28100  13.719  14.168  11.100
66570W        W28101  29.580  20.094   4.772
66571W        W28102  25.480  20.218  14.803
66572W        W28103  41.322  34.446   1.724
66573W        W28104   8.823  32.027   1.307
66574W        W28105   8.767  22.016  11.007
66575W        W28106  23.093  24.565   0.838
66576W        W28107  39.463   8.374  11.979
66577W        W28108  41.852  14.687   1.705
66578W        W28109  25.493  20.658  11.865
66579W        W28110   4.791  30.526   1.739
66580W        W28111  30.128  17.070  13.881
66581W        W28112  37.381  14.795  10.522
66582W        W28113   9.289  41.360   0.465
66583W        W28114   8.329  16.589   2.801
66584W        W28115  38.951   9.662  13.807
66585W        W28116  39.948  38.076   4.791
66586W        W28117  22.599  37.400  11.383
66587W        W28118  39.478   2.747  11.462
66588W        W28119   8.256  16.250   2.774
66589W        W28120   1.912  43.434  13.543
66590W        W28121  24.973  23.044  14.919
66591W        W28122  22.022  36.884   1.701
66592W        W28123  22.131  35.453   4.117
66593W        W28124  27.482  33.513  13.407
66594W        W28125  35.381   2.274  14.027
66595W        W28126  11.210  34.968  14.455
66596W        W28127  20.639   3.235  11.879
66597W        W28128  16.114  31.529  13.358
66598W        W28129   8.339  32.412   3.795
66599W        W28130  21.100  42.014  11.893
66600W        W28131   3.458  22.503   5.195
66601W        W28132  36.849   6.322   1.746
66602W        W28133  19.173  15.240   4.806
66603W        W28134  31.489   1.316  14.316
66604W        W28135  10.172  22.733   0.765
66605W        W28136  26.623   2.296  12.834
66606W        W28137   4.324   8.869   3.738
66607W        W28138  39.826  38.418   3.797
66608W        W28139  30.469  20.687   0.960
66609W        W28140  39.008  22.740   1.411
66610W        W28141  31.060  18.756  10.055
66611W        W28142  24.092  42.368   0.310
66612W        W28143  19.149  20.529  11.515
66613W        W28144  22.059  18.100   3.262
66614W        W28145   0.798  13.625   1.925
66615W        W28146   2.276  26.462   1.878
66616W        W28147  21.027  31.608   3.760
66617W        W28148  22.232  32.022  11.391
66618W        W28149  12.705  18.608   1.235
66619W        W28150  32.111  43.908   0.871
66620W        W28151  24.671  39.430   0.369
66621W        W28152  21.623   9.761   3.260
66622W        W28153   8.794  13.679   3.162
66623W        W28154  28.006  30.065  12.009
66624W        W28155  12.710  17.575  12.562
66625W        W28156  14.653   4.826   5.082
66626W        W28157  13.175  29.954  13.395
66627W        W28158  18.210  10.654  12.377
66628W        W28159  38.921   5.312   2.372
66629W        W28160  37.520  24.099  12.860
66630W        W28161  23.231  44.869   1.261
66631W        W28162  28.602   2.870  14.451
66632W        W28163  42.991  32.894  13.507
66633W        W28164   8.744  28.063  10.410
66634W        W28165  27.494  25.188   4.829
66635W        W28166  32.988  19.630   1.427
66636W        W28167  13.774   3.805   1.257
66637W        W28168  41.928  27.603  14.454
66638W        W28169  44.345   6.401   4.637
66639W        W28170  10.168   0.881   1.403
66640W        W28171  30.481  18.199  11.591
66641W        W28172  15.809   7.820   3.829
66642W        W28173   0.764  10.224  11.994
66643W        W28174  20.561   3.944   2.788
66644W        W28175  12.679  36.854   1.252
66645W        W28176   9.358  13.248   4.716
66646W        W28177   4.826   4.280   2.755
66647W        W28178  32.520  29.924  10.602
66648W        W28179  31.962  38.028   4.232
66649W        W28180  40.495   7.355   2.664
66650W        W28181  44.963  37.977   3.244
66651W        W28182  13.181  25.612  10.626
66652W        W28183  26.987  27.032  14.301
66653W        W28184  35.388  31.936  12.496
66654W        W28185   7.782  11.634  14.501
66655W        W28186   6.358  32.620   4.755
66656W        W28187  25.977  10.174   4.249
66657W        W28188  38.443  41.525   3.358
66658W        W28189  16.651   9.375  10.421
66659W        W28190  39.857  16.112  11.446
66660W        W28191   7.840   4.841   2.871
66661W        W28192  23.605  29.549  12.420
66662W        W28193  42.295  19.684   4.208
66663W        W28194  38.075  12.719  14.995
66664W        W28195  29.114  31.482   1.921
66665W        W28196  17.183  18.215  10.117
66666W        W28197   0.792  10.713   4.824
66667W        W28198  26.998  31.606   2.782
66668W        W28199  31.120  30.070  14.346
66669W        W28200  37.976  30.509  12.069
66670W        W28201  33.989  31.530  11.018
66671W        W28202   4.911   6.410   0.416
66672W        W28203  12.313  27.623   1.239
66673W        W28204   1.958  35.936   4.191
66674W        W28205  31.069  42.796   3.173
66675W        W28206  27.957  15.817   3.808
66676W        W28207  20.727  28.461   3.634
66677W        W28208  26.629  16.167  13.508
66678W        W28209  27.565  34.426   0.729
66679W        W28210  29.606  31.099   2.230
66680W        W28211   6.278  38.997  14.032
66681W        W28212  28.134  11.643   4.619
66682W        W28213  34.405  19.751  13.464
66683W        W28214  42.880   4.374  11.441
66684W        W28215   4.426  25.476  11.501
66685W        W28216  41.913  24.988  13.822
66686W        W28217  34.086  39.375   3.173
66687W        W28218  31.150  10.376  13.426
66688W        W28219   6.688  19.662  12.364
66689W        W28220  41.490  12.199   1.734
66690W        W28221  18.634   4.728  14.785
66691W        W28222  13.694  21.689   1.859
66692W        W28223  13.236  36.847   1.233
66693W        W28224   9.741  42.283  11.005
66694W        W28225  27.567  16.224   0.943
66695W        W28226  27.629   3.265   2.797
66696W        W28227   4.227  23.725  10.972
66697W        W28228  37.456   1.298   0.299
66698W        W28229  14.238   2.310  13.901
66699W        W28230  36.481  36.926  10.583
66700W        W28231  43.960  24.499   4.598
66701W        W28232  29.439  33.938   2.414
66702W        W28233  20.545   6.700   2.227
66703W        W28234  37.842  31.612  10.425
66704W        W28235  44.009  11.245   1.727
66705W        W28236  24.156  43.016  12.385
66706W        W28237  28.959  23.039  14.924
66707W        W28238  17.630  30.103  14.921
66708W        W28239  31.998  34.422   2.374
66709W        W28240  32.058  42.468  14.776
66710W        W28241   3.812  15.580   0.819
66711W        W28242  41.390  26.664  13.031
66712W        W28243  12.149   0.333  12.898
66713W        W28244  44.310  14.721   4.649
66714W        W28245  17.125  23.010   4.788
66715W        W28246  33.930  31.937   4.814
66716W        W28247  36.583  28.036   1.398
66717W        W28248  19.545  27.991  11.086
66718W        W28249  25.564  38.831   0.418
66719W        W28250  31.639  38.029   2.770
66720W        W28251  34.108  35.483  12.461
66721W        W28252   1.339  39.844  10.519
66722W        W28253  34.414  34.435   5.573
66723W        W28254  10.683  29.619   0.483
66724W        W28255  26.010  21.625  12.391
66725W        W28256   8.319   1.823  14.379
66726W        W28257   2.397  37.536  11.971
66727W        W28258   1.417  36.493  12.479
66728W        W28259  20.640   1.887  13.343
66729W        W28260  38.407  24.040  14.413
66730W        W28261   3.890   7.754  13.062
66731W        W28262  41.938  24.656  14.346
66732W        W28263  37.558  25.181  10.604
66733W        W28264  17.149   3.398  13.905
66734W        W28265   7.309  23.133   4.617
66735W        W28266   7.266  16.162  13.816
66736W        W28267  22.698  42.905   5.111
66737W        W28268  43.394  30.464   0.918
66738W        W28269  10.664  21.211  13.847
66739W        W28270  28.472  11.835   2.250
66740W        W28271  31.038  14.669   4.669
66741W        W28272  16.141  40.549   0.406
66742W        W28273  29.435  10.234   1.230
66743W        W28274  33.524   5.428   0.899
66744W        W28275  23.629   9.747   3.697
66745W        W28276  39.934  18.641   1.308
66746W        W28277  17.187   7.355  10.968
66747W        W28278  20.169   5.355  12.983
66748W        W28279   9.679  20.106  13.357
66749W        W28280  27.082   4.431  12.472
66750W        W28281  30.657  24.546   3.782
66751W        W28282   9.765  41.819  11.966
66752W        W28283   7.723  35.453   0.778
66753W        W28284  38.006  15.780  14.858
66754W        W28285   5.354  14.754   2.218
66755W        W28286  20.061   8.243   1.242
66756W        W28287  21.225  21.235   3.725
66757W        W28288   6.262   5.248   4.145
66758W        W28289  28.536  27.484   0.449
66759W        W28290  32.495  40.983   1.451
66760W        W28291  35.949  23.021   4.805
66761W        W28292  28.138   1.974  10.035
66762W        W28293  29.041  32.480   1.438
66763W        W28294  29.976  33.461   2.200
66764W        W28295   2.944  22.603   0.346
66765W        W28296  26.087   1.895   3.862
66766W        W28297   9.779  44.960   5.307
66767W        W28298   3.954  17.295  10.593
66768W        W28299  30.004  13.340   4.730
66769W        W28300  30.018  39.879  10.639
66770W        W28301   8.722  18.244  14.355
66771W        W28302  12.186  33.008  13.351
66772W        W28303  44.947  41.475   4.739
66773W        W28304   7.754   0.965  14.489
66774W        W28305   6.293  27.124  12.976
66775W        W28306  31.955  28.971  12.859
66776W        W28307  16.247  37.065   1.315
66777W        W28308   8.670  39.952   1.761
66778W        W28309  18.050   6.795  11.919
66779W        W28310  31.069  35.489  11.106
66780W        W28311  20.723  28.568   3.331
66781W        W28312  43.495  41.401   2.375
66782W        W28313  39.389  20.200   3.268
66783W        W28314  42.382  16.240  11.065
66784W        W28315  44.907  38.059  12.009
66785W        W28316  40.348  24.597   2.254
66786W        W28317  16.250  40.982  13.002
66787W        W28318  16.318  16.172  11.518
66788W        W28319  40.031  11.673   2.678
66789W        W28320   1.924  28.519   0.740
66790W        W28321  41.031  24.220  11.893
66791W        W28322   4.882  17.121  14.971
66792W        W28323  24.696  22.190  11.976
66793W        W28324  44.501  42.017   0.289
66794W        W28325  23.100  24.170  14.843
66795W        W28326  34.023   5.846  11.969
66796W        W28327   6.401  10.284   3.289
66797W        W28328  30.914  27.512   0.848
66798W        W28329  12.786  36.460   4.791
66799W        W28330   9.149   5.435  14.501
66800W        W28331  24.022  38.383   1.288
66801W        W28332  36.453   5.314  11.966
66802W        W28333  16.582   5.252  13.445
66803W        W28334  19.241  31.470  12.439
66804W        W28335  37.884   6.851  13.477
66805W        W28336   7.197   2.817   4.287
66806W        W28337  10.359  28.076  11.993
66807W        W28338  21.109  35.950   3.778
66808W        W28339  39.875  36.504  13.413
66809W        W28340  40.478   9.868   9.933
66810W        W28341   6.355  26.563   1.225
66811W        W28342  18.776   4.426  14.314
66812W        W28343  22.650   5.855  11.486
66813W        W28344   7.299   4.391  13.951
66814W        W28345  41.327  32.628  11.080
66815W        W28346  25.211  37.965   0.798
66816W        W28347  15.105  44.815  12.840
66817W        W28348   1.836  31.091   2.227
66818W        W28349  20.588  10.227  12.399
66819W        W28350   0.434  14.679   2.723
66820W        W28351  40.041  12.746   0.345
66821W        W28352  42.436   0.465   4.170
66822W        W28353  30.967   5.371  13.060
66823W        W28354  36.506  31.109   4.352
66824W        W28355  31.403  24.710   2.381
66825W        W28356  37.832   7.325  11.891
66826W        W28357   6.300   5.412  10.070
66827W        W28358  18.165  44.783  12.014
66828W        W28359  23.731  12.841   1.363
66829W        W28360  14.247  21.260   1.271
66830W        W28361   5.725  13.699   4.134
66831W        W28362  40.469  20.589  11.384
66832W        W28363   4.938  40.892  13.995
66833W        W28364  40.431  22.128  13.535
66834W        W28365  39.884  20.702   2.265
66835W        W28366  23.608  27.587  12.420
66836W        W28367  20.189   8.691   5.087
66837W        W28368   6.267  19.153  14.497
66838W        W28369  17.767  14.717   3.304
66839W        W28370  27.971  33.543  14.346
66840W        W28371  28.170  30.066  13.537
66841W        W28372  16.596  34.549   0.450
66842W        W28373  27.495  26.987  14.323
66843W        W28374  31.458  30.432  14.360
66844W        W28375  25.568  25.133  13.798
66845W        W28376  40.490  31.038   4.656
66846W        W28377   8.328  11.730  11.907
66847W        W28378   7.798   9.210  14.309
66848W        W28379  39.866  42.339  11.382
66849W        W28380  32.456  38.876   2.406
66850W        W28381  36.929  29.060  13.454
66851W        W28382  20.545  26.066   2.331
66852W        W28383  44.854  25.061   1.893
66853W        W28384  24.141  30.058   2.721
66854W        W28385  40.406  37.896   1.272
66855W        W28386  13.797   1.888  11.864
66856W        W28387  26.055   8.707   2.838
66857W        W28388   7.730  18.573  13.336
66858W        W28389  13.274   3.824  11.538
66859W        W28390  23.097  27.590  11.452
66860W        W28391  21.159  40.319  11.438
66861W        W28392   3.394  31.546   1.740
66862W        W28393  35.448  25.527  13.311
66863W        W28394   8.251   6.785   0.470
66864W        W28395  37.532  29.485   2.221
66865W        W28396  22.509   9.387   4.308
66866W        W28397  21.061   0.400  11.902
66867W        W28398   6.846   7.254  10.547
66868W        W28399   8.170  26.465  11.551
66869W        W28400  34.921  26.184   2.264
66870W        W28401   2.754  41.337   2.763
66871W        W28402  20.559  11.816   4.825
66872W        W28403  34.474  39.010   9.923
66873W        W28404  11.740  23.656   4.688
66874W        W28405  22.199  41.396   9.568
66875W        W28406  15.768  36.367  12.844
66876W        W28407   2.739  22.204   1.416
66877W        W28408  34.531  24.118   3.745
66878W        W28409  18.724  19.723  10.508
66879W        W28410  32.429   8.295   4.233
66880W        W28411   7.725   0.922  13.540
66881W        W28412  41.891  23.005  12.340
66882W        W28413  11.656  11.731  11.486
66883W        W28414  40.037  24.166   0.273
66884W        W28415   4.415  25.119  12.373
66885W        W28416   1.297  31.052  11.977
66886W        W28417  38.070  23.159   2.676
66887W        W28418  11.257   1.897   3.732
66888W        W28419   7.245  16.195  10.552
66889W        W28420  44.822  33.018  14.864
66890W        W28421  10.340   0.344  12.875
66891W        W28422  42.441  15.304   3.316
66892W        W28423  15.214   2.729  14.783
66893W        W28424  23.099  26.078  11.990
66894W        W28425  27.002  18.721   1.331
66895W        W28426  34.972  22.680   3.749
66896W        W28427  33.500  33.618  10.503
66897W        W28428  14.799  39.446   3.830
66898W        W28429  22.708  26.134  14.904
66899W        W28430  37.898  32.624  11.987
66900W        W28431  33.530  20.745   1.909
66901W        W28432  16.189  16.289   2.297
66902W        W28433  33.106  44.336   1.765
66903W        W28434  14.190  27.014   2.662
66904W        W28435   4.316  29.491  10.920
66905W        W28436  41.390   1.736   2.750
66906W        W28437   4.256  13.113   4.753
66907W        W28438  27.603  42.327  10.542
66908W        W28439  20.675   9.668   1.905
66909W        W28440   2.346  37.894   1.423
66910W        W28441  12.830   3.869  14.374
66911W        W28442  37.399  41.420  10.039
66912W        W28443  29.447  30.121  11.992
66913W        W28444  28.157   9.790  10.150
66914W        W28445  12.684  43.473  11.905
66915W        W28446  22.206   4.768   1.416
66916W        W28447   4.250   1.817   4.346
66917W        W28448   5.320  38.836   0.436
66918W        W28449  41.431  34.449   4.316
66919W        W28450   7.405   6.379  14.860
66920W        W28451  22.692  25.508   1.726
66921W        W28452  13.230  36.479  13.792
66922W        W28453   5.910  26.174   2.317
66923W        W28454  39.933  29.112   0.933
66924W        W28455  13.135   3.339   3.681
66925W        W28456  36.070   3.287   4.764
66926W        W28457  15.803  42.338   1.239
66927W        W28458  18.223   4.849   0.448
66928W        W28459  39.378  36.515   1.277
66929W        W28460  32.979  33.575  13.539
66930W        W28461  19.543  23.702   9.491
66931W        W28462  37.404  21.670   2.708
66932W        W28463  32.436  43.416  12.365
66933W        W28464  30.029  32.419   1.436
66934W        W28465  44.421  39.454   9.946
66935W        W28466  25.172  10.666  10.407
66936W        W28467  23.002  36.374   1.812
66937W        W28468  11.735  30.557   3.795
66938W        W28469  26.975  42.814  13.431
66939W        W28470   8.173  16.113   4.728
66940W        W28471  41.462  38.467   2.875
66941W        W28472   1.882  18.117   4.703
66942W        W28473  33.480  32.981   4.235
66943W        W28474  21.707   3.277  13.034
66944W        W28475  36.409  41.042   2.730
66945W        W28476   7.354  24.598  13.520
66946W        W28477  32.892  20.756  13.930
66947W        W28478   2.818   0.965   4.250
66948W        W28479  43.278  41.494  13.866
66949W        W28480  14.730  19.731   4.704
66950W        W28481  31.627   7.904  14.902
66951W        W28482  44.294  38.458   0.278
66952W        W28483  31.015  29.554  14.860
66953W        W28484  38.325  26.198   3.367
66954W        W28485  23.517  33.622   0.788
66955W        W28486  23.177  44.844  11.592
66956W        W28487   6.910  31.473   3.696
66957W        W28488   8.680   9.329   2.262
66958W        W28489  20.232  21.113   0.740
66959W        W28490  25.602   5.927   1.294
66960W        W28491  35.563  38.536  11.497
66961W        W28492  16.185  34.464  14.448
66962W        W28493  27.469  18.149   4.323
66963W        W28494  34.010  12.182  11.904
66964W        W28495  28.579  42.324  10.462
66965W        W28496   0.826  11.132   1.758
66966W        W28497  12.626  14.196   4.223
66967W        W28498  23.584  33.468  13.506
66968W        W28499  25.157   8.199  13.403
66969W        W28500  19.252  40.839   3.244
66970W        W28501   9.380  23.169   3.157
66971W        W28502  20.573  14.616   1.786
66972W        W28503  22.248   2.775  12.547
66973W        W28504   3.305  12.671   2.895
66974W        W28505  42.511  37.831  13.799
66975W        W28506  24.479  30.967   1.361
66976W        W28507  25.668  19.660  14.302
66977W        W28508  33.569  35.896   1.877
66978W        W28509   8.745  37.449  10.443
66979W        W28510  14.648   7.345  14.892
66980W        W28511  26.608  20.119  13.449
66981W        W28512  31.602  36.462  10.558
66982W        W28513  28.114  17.581  10.900
66983W        W28514  40.821  24.073  14.829
66984W        W28515  11.354  25.980   2.681
66985W        W28516  26.952  28.094  13.888
66986W        W28517  36.483   2.887  14.866
66987W        W28518  17.775   9.294  13.797
66988W        W28519  13.799  13.159   4.336
66989W        W28520  42.880  40.361   3.772
66990W        W28521  11.759   2.268  13.035
66991W        W28522  23.987  23.045  13.816
66992W        W28523  13.351   9.787   4.745
66993W        W28524   6.389   4.784   2.238
66994W        W28525  24.107  42.867  13.449
66995W        W28526  17.692  29.020   2.718
66996W        W28527  40.342  30.163   4.213
66997W        W28528  17.274  37.495   5.277
66998W        W28529  18.583  22.655   3.236
66999W        W28530   5.235  24.512  14.799
67000W        W28531  29.439  42.441   0.463
67001W        W28532  23.228  29.435  14.820
67002W        W28533  26.649  10.825  14.304
67003W        W28534  34.939  38.506   3.357
67004W        W28535   0.928   9.744   1.429
67005W        W28536  25.581  33.058   2.236
67006W        W28537  21.617  40.999  11.988
67007W        W28538  39.509  11.740   0.959
67008W        W28539  13.805  44.306   3.331
67009W        W28540  41.818  12.637   3.361
67010W        W28541   8.194  38.562   0.852
67011W        W28542  36.038   8.818   1.806
67012W        W28543   0.411  26.650   0.450
67013W        W28544  10.690  44.461  13.971
67014W        W28545  22.249   2.949   2.883
67015W        W28546  20.048  24.180  14.789
67016W        W28547  24.512  30.457   4.663
67017W        W28548   2.782   0.398   3.149
67018W        W28549   3.714   8.160   3.667
67019W        W28550  11.315   8.840  13.308
67020W        W28551  39.048  31.119   0.482
67021W        W28552  19.545  38.520   3.172
67022W        W28553  28.573   0.262  12.992
67023W        W28554  32.572  18.757   0.470
67024W        W28555  37.512  37.003  10.935
67025W        W28556  23.114   7.357   4.116
67026W        W28557  23.097  27.619  14.952
67027W        W28558  24.534   1.767  13.351
67028W        W28559  26.472  22.730   3.835
67029W        W28560   9.796  30.658   4.765
67030W        W28561  13.786  15.197  11.456
67031W        W28562  23.049  35.016   3.318
67032W        W28563  33.592  10.171  10.516
67033W        W28564  10.700   2.430  11.033
67034W        W28565   4.205  23.233  14.821
67035W        W28566  44.854  31.416  11.500
67036W        W28567   0.262  23.666  14.910
67037W        W28568  24.109  43.943  14.938
67038W        W28569   5.259   6.301  13.323
67039W        W28570  29.497  15.630  11.559
67040W        W28571  44.763  30.987  14.824
67041W        W28572  16.790  14.213  11.589
67042W        W28573  25.115   4.762   2.723
67043W        W28574  33.512  14.777   3.677
67044W        W28575   7.367  19.616  11.439
67045W        W28576  10.675  42.921  11.497
67046W        W28577  21.690  27.004  14.990
67047W        W28578  14.231  28.952  12.871
67048W        W28579  28.511  22.998  13.483
67049W        W28580  23.520  11.153  13.537
67050W        W28581   2.461  39.971  14.924
67051W        W28582  39.850  10.834   0.807
67052W        W28583   5.738  41.515  13.310
67053W        W28584   2.350  19.617   2.189
67054W        W28585   0.926   8.662   4.208
67055W        W28586   9.288  34.014  13.329
67056W        W28587  13.192   7.720   3.777
67057W        W28588  24.498  11.867   0.376
67058W        W28589  16.612  35.924   3.219
67059W        W28590  21.558  15.721   4.173
67060W        W28591  13.245  41.859   4.189
67061W        W28592   7.276   9.179  10.507
67062W        W28593   2.358  36.446   1.932
67063W        W28594  28.066  32.945  13.020
67064W        W28595  29.542  40.385  12.061
67065W        W28596  32.397  40.872   2.256
67066W        W28597  19.538  37.526   1.404
67067W        W28598  31.627  43.016  13.836
67068W        W28599  42.803  36.875  12.388
67069W        W28600  11.247  27.673   2.294
67070W        W28601  33.902  26.094   4.166
67071W        W28602   4.854  35.385  10.992
67072W        W28603  24.227  27.470   5.178
67073W        W28604   1.328  43.348  12.032
67074W        W28605  41.954  40.003   4.114
67075W        W28606  11.214  29.064  12.905
67076W        W28607   6.738  31.573   0.839
67077W        W28608  41.386  25.631   2.677
67078W        W28609  22.624  37.483  11.043
67079W        W28610   5.869  41.862  13.980
67080W        W28611  24.628  30.940   2.347
67081W        W28612  29.051  43.492   1.320
67082W        W28613  38.343  43.359  13.854
67083W        W28614  20.752   4.944   2.209
67084W        W28615  23.168   7.737   0.922
67085W        W28616   1.791   8.169  13.004
67086W        W28617  21.739  34.373   0.364
67087W        W28618  29.000  19.753  11.559
67088W        W28619  35.406  28.559  12.547
67089W        W28620  32.059  24.099  10.990
67090W        W28621   0.443   4.837  12.936
67091W        W28622  15.669  29.539   2.873
67092W        W28623  22.705  43.410  13.042
67093W        W28624   4.229  16.216   1.231
67094W        W28625   3.783  20.699   4.611
67095W        W28626   6.824  35.080   3.346
67096W        W28627  16.255   9.370   0.744
67097W        W28628  22.575  42.331  10.624
67098W        W28629  20.240  32.974  14.316
67099W        W28630   2.780  12.147  13.797
67100W        W28631  12.345  34.021  13.320
67101W        W28632  28.619  19.603  10.598
67102W        W28633  39.875  15.772   1.308
67103W        W28634  37.401  15.701  12.374
67104W        W28635  28.596  30.940  14.994
67105W        W28636   0.878  13.800  12.023
67106W        W28637   4.205  10.699  12.515
67107W        W28638  15.631  44.825   3.329
67108W        W28639  15.204  22.055   5.122
67109W        W28640  37.856  13.684   5.282
67110W        W28641  36.094  26.703  12.567
67111W        W28642  16.592  28.678   1.775
67112W        W28643   2.234  40.040   4.179
67113W        W28644  19.039  20.736   4.182
67114W        W28645  39.458   0.260  11.007
67115W        W28646  34.921   7.719  13.533
67116W        W28647  12.300  17.231   4.174
67117W        W28648  13.767  40.823  11.496
67118W        W28649  15.212  44.325  10.480
67119W        W28650  43.286  19.181  12.515
67120W        W28651  20.070  16.800  12.856
67121W        W28652  17.231  43.938   4.738
67122W        W28653  26.618   1.290  11.967
67123W        W28654  36.950  25.973   1.768
67124W        W28655   1.335   7.752  14.937
67125W        W28656   2.935  12.751  13.028
67126W        W28657   6.383  37.087   1.894
67127W        W28658  20.741   3.730  12.833
67128W        W28659  35.558  29.489   4.608
67129W        W28660  10.868  35.003   3.207
67130W        W28661   6.737   4.285   1.747
67131W        W28662   9.884  11.764   3.379
67132W        W28663  23.524  33.551  10.408
67133W        W28664  23.027  10.809  11.110
67134W        W28665   4.325  32.468  13.924
67135W        W28666  33.962  35.428   1.353
67136W        W28667  22.549  37.868   0.313
67137W        W28668  35.529  28.666   3.193
67138W        W28669   5.782  19.577  10.899
67139W        W28670  41.391  37.555   2.747
67140W        W28671  27.953   0.859   2.886
67141W        W28672  35.376  40.852  11.511
67142W        W28673  34.549  26.674  11.087
67143W        W28674  36.041   6.691   1.416
67144W        W28675  25.147  16.257  14.406
67145W        W28676  30.956  15.597   0.739
67146W        W28677  34.569  34.613   9.976
67147W        W28678   4.428  16.229  13.018
67148W        W28679  14.097  27.060  14.769
67149W        W28680   5.397  41.035   1.361
67150W        W28681  29.086   5.289   2.881
67151W        W28682  29.084  34.414   1.396
67152W        W28683   4.343  14.719  13.411
67153W        W28684  24.069  19.232  11.487
67154W        W28685   4.255  10.214   2.763
67155W        W28686  18.775  35.950   9.978
67156W        W28687  44.455  23.002  11.601
67157W        W28688  18.274   3.367   3.219
67158W        W28689  26.189  41.976   3.270
67159W        W28690  44.781  19.284   1.914
67160W        W28691   9.170   9.245  10.941
67161W        W28692  32.969  15.664   0.468
67162W        W28693  30.935  23.212  13.321
67163W        W28694   7.375  35.037   0.869
67164W        W28695  44.799   6.681  11.518
67165W        W28696  38.453  43.409   3.735
67166W        W28697  13.174  14.305   1.747
67167W        W28698  39.877  39.464   4.122
67168W        W28699  36.900   0.486   0.298
67169W        W28700   6.914  31.500  11.577
67170W        W28701  24.691  13.290   0.839
67171W        W28702   5.219  12.323  13.020
67172W        W28703   5.393  31.925   0.850
67173W        W28704  30.928   4.327   4.668
67174W        W28705  41.331  20.111  11.436
67175W        W28706  27.953  42.363  10.609
67176W        W28707  11.710  16.274  10.975
67177W        W28708  27.487  31.904   3.860
67178W        W28709  16.579  34.612   2.323
67179W        W28710  16.723  42.968   3.738
67180W        W28711  27.152  40.923   0.899
67181W        W28712  16.797   9.849  11.393
67182W        W28713  44.383  14.276  12.848
67183W        W28714  30.048  26.113  12.850
67184W        W28715  23.510   7.338   0.881
67185W        W28716  17.064   5.874  11.581
67186W        W28717  42.023  10.330   4.149
67187W        W28718   6.268  20.148  14.495
67188W        W28719   6.812  23.234  14.356
67189W        W28720  32.391  21.126  10.926
67190W        W28721   6.332  18.104  13.967
67191W        W28722   3.756  19.244  11.445
67192W        W28723  26.588  28.143   1.810
67193W        W28724  16.280  24.686  13.431
67194W        W28725   3.786  20.644  12.041
67195W        W28726  32.617  30.096   2.247
67196W        W28727  17.610   0.452  12.923
67197W        W28728  42.287  43.299   3.812
67198W        W28729  21.205  38.550  14.950
67199W        W28730  26.462  23.039   4.762
67200W        W28731  24.021  17.170  10.404
67201W        W28732  22.226   3.349   2.842
67202W        W28733  14.598   9.174  14.029
67203W        W28734  25.206  25.204  12.069
67204W        W28735   7.360  11.641  14.880
67205W        W28736  39.854  34.082  12.034
67206W        W28737  23.194   5.745   0.346
67207W        W28738  19.722  14.685   2.746
67208W        W28739  26.096  22.729  14.825
67209W        W28740   8.887  44.759  14.002
67210W        W28741  26.569  19.173   3.753
67211W        W28742  38.019   5.875  14.303
67212W        W28743  41.971   4.830  14.326
67213W        W28744  24.536  13.184   1.413
67214W        W28745   4.783  34.533   3.203
67215W        W28746   0.315  10.229   1.369
67216W        W28747  39.365   8.768   1.817
67217W        W28748  37.915  14.326   5.264
67218W        W28749  21.240  39.916  14.282
67219W        W28750  42.881  12.833   4.278
67220W        W28751  23.160  18.553  10.442
67221W        W28752  31.954  20.559  11.997
67222W        W28753  10.315   9.834  11.875
67223W        W28754  25.678  13.653   4.602
67224W        W28755  13.751  13.250  10.633
67225W        W28756  36.525  39.023   0.950
67226W        W28757  12.668   2.402  13.817
67227W        W28758  18.277   5.380  12.350
67228W        W28759  38.356  22.701   2.419
67229W        W28760   0.466   0.972   4.632
67230W        W28761  11.775  25.629   3.286
67231W        W28762  31.993  41.879   4.830
67232W        W28763   5.381  24.152   1.333
67233W        W28764  22.103  42.355  11.079
67234W        W28765   3.932  11.865  12.407
67235W        W28766  24.055  22.114  10.551
67236W        W28767  19.774  19.626  11.965
67237W        W28768   4.731  20.096  13.796
67238W        W28769  29.922   6.360   1.791
67239W        W28770  38.929  37.920   1.912
67240W        W28771   8.670  19.223   3.199
67241W        W28772  21.132  37.353  10.047
67242W        W28773  27.490  28.930   2.268
67243W        W28774  30.485   7.748   0.257
67244W        W28775   2.260  38.052   4.813
67245W        W28776   1.352   7.668   2.879
67246W        W28777  33.001  32.396   1.251
67247W        W28778  30.153  33.085   4.187
67248W        W28779  43.332  10.341  10.559
67249W        W28780  33.497  44.308   2.311
67250W        W28781  26.605  40.455  13.476
67251W        W28782  38.064  35.025  12.993
67252W        W28783  43.858  23.554  12.962
67253W        W28784  34.954  35.402   4.715
67254W        W28785  10.366   5.372   3.752
67255W        W28786  26.518   5.386  11.049
67256W        W28787  16.212  26.172   3.675
67257W        W28788  11.299  23.083  12.826
67258W        W28789  31.926  14.131  14.922
67259W        W28790  44.976  25.031   3.318
67260W        W28791  36.385  11.358   4.155
67261W        W28792  16.239  38.824   3.344
67262W        W28793  10.211  34.547  12.460
67263W        W28794  20.057  11.251  11.878
67264W        W28795  20.571   5.353  14.281
67265W        W28796   3.444   2.470  12.989
67266W        W28797   1.758  35.373  13.478
67267W        W28798  18.701  28.539  14.446
67268W        W28799  33.585  17.208  11.485
67269W        W28800  32.429  23.143   2.276
67270W        W28801  28.549  11.350   4.124
67271W        W28802  28.122  37.436   3.666
67272W        W28803   9.885  20.081  12.896
67273W        W28804  42.791  18.106   2.827
67274W        W28805  22.221   5.753   1.743
67275W        W28806  35.098  24.982  10.905
67276W        W28807  28.510  32.421  13.060
67277W        W28808  35.464  33.599  12.410
67278W        W28809   2.306  18.096  10.072
67279W        W28810  24.160  27.162  14.392
67280W        W28811  13.828  25.000   2.824
67281W        W28812  41.876  12.341   2.270
67282W        W28813  38.031  16.749   2.238
67283W        W28814  17.582  14.656   4.631
67284W        W28815  32.526  20.641   1.337
67285W        W28816  23.161   8.833   0.772
67286W        W28817  26.475   7.740   0.939
67287W        W28818  10.820   5.846   4.245
67288W        W28819   8.731   6.857  11.911
67289W        W28820  44.484   2.833   0.462
67290W        W28821  32.948  12.825  14.331
67291W        W28822   0.297  29.439   0.923
67292W        W28823  26.645  41.949   5.253
67293W        W28824   3.751  25.987   1.778
67294W        W28825  19.691  24.175  13.970
67295W        W28826  37.961  18.204   1.765
67296W        W28827  39.885  20.582  11.610
67297W        W28828   5.337   5.730   0.828
67298W        W28829  44.904  21.059   0.817
67299W        W28830   5.892  27.087   4.330
67300W        W28831  19.690  17.286  14.323
67301W        W28832  19.575  37.468  12.898
67302W        W28833  37.497  30.092   1.893
67303W        W28834  33.914  12.350   0.955
67304W        W28835   8.388  23.629  12.414
67305W        W28836  38.060  23.531   1.827
67306W        W28837  18.135   4.247  13.898
67307W        W28838  29.152   7.680  13.063
67308W        W28839  27.971  22.502  12.088
67309W        W28840  43.422  34.880  12.886
67310W        W28841   3.943   7.373   0.843
67311W        W28842  42.361  19.224  14.436
67312W        W28843  40.329  40.402   2.395
67313W        W28844  16.182  43.912  13.995
67314W        W28845  23.532  19.673   1.878
67315W        W28846   0.439  27.609   3.166
67316W        W28847  24.073  18.734  10.458
67317W        W28848  17.659  37.022   3.746
67318W        W28849  12.179  24.088  13.986
67319W        W28850  21.667   4.390  12.488
67320W        W28851  29.171   3.817  11.532
67321W        W28852  28.094  12.146  10.060
67322W        W28853  28.477  14.182  12.458
67323W        W28854  40.003  12.266  14.901
67324W        W28855  44.339   4.714  14.297
67325W        W28856  17.131  34.385  11.376
67326W        W28857   4.377  23.218   0.459
67327W        W28858  25.705   8.850   0.403
67328W        W28859  22.080  19.209   0.794
67329W        W28860  26.031  34.464  11.101
67330W        W28861   2.461  33.604  10.893
67331W        W28862   9.644  26.500   4.227
67332W        W28863  30.584  23.145  12.066
67333W        W28864  25.010  40.402   2.839
67334W        W28865  27.987  22.145   2.375
67335W        W28866   4.756  14.201  14.352
67336W        W28867  23.150  39.920   2.675
67337W        W28868  10.306   2.299  11.553
67338W        W28869  42.860   8.898  13.507
67339W        W28870  12.704  42.861   2.307
67340W        W28871  29.495  32.570   4.827
67341W        W28872  29.510  31.633  10.621
67342W        W28873  33.985  31.440  11.872
67343W        W28874  22.119  11.732  14.783
67344W        W28875  14.181   3.266   5.248
67345W        W28876  17.714  43.335  11.979
67346W        W28877  34.582   2.764  14.338
67347W        W28878  14.765   9.255   0.349
67348W        W28879  42.497  33.395  13.402
67349W        W28880  11.727  24.596  13.982
67350W        W28881   3.875  13.668   3.738
67351W        W28882  39.318  34.080  13.396
67352W        W28883   0.879  40.472   1.215
67353W        W28884  13.638  31.501   2.308
67354W        W28885  26.975  12.309  14.327
67355W        W28886   6.378  29.066   2.709
67356W        W28887  44.479  33.045   0.803
67357W        W28888  26.548  11.789   1.871
67358W        W28889  44.867  31.470   3.794
67359W        W28890  28.634  28.533  13.347
67360W        W28891   0.455  24.609   1.728
67361W        W28892  19.773   6.699   1.238
67362W        W28893  36.920  33.969   1.826
67363W        W28894  19.121   2.962  12.566
67364W        W28895  33.502  23.119   4.723
67365W        W28896  35.598  17.190   1.923
67366W        W28897   6.735   1.255  10.635
67367W        W28898  35.420  16.592   2.222
67368W        W28899  29.106  23.222  13.307
67369W        W28900  23.113  30.590  14.463
67370W        W28901  30.580  17.139   1.273
67371W        W28902  33.906  14.215   4.634
67372W        W28903   3.327  34.592  13.868
67373W        W28904  31.007   1.749   4.749
67374W        W28905   8.171  39.462  13.384
67375W        W28906  31.598  22.198   0.301
67376W        W28907  16.242  30.115  12.897
67377W        W28908  39.455  12.625  14.005
67378W        W28909   2.290  22.553   3.294
67379W        W28910  26.478   6.379   3.253
67380W        W28911  44.757  43.307  13.889
67381W        W28912  34.387  33.881  13.966
67382W        W28913   0.794   0.324  10.579
67383W        W28914  43.002   6.741   2.251
67384W        W28915  36.508  21.579   4.732
67385W        W28916  24.046  35.047  13.311
67386W        W28917  42.475   8.782   3.660
67387W        W28918  43.402  27.160   4.674
67388W        W28919  40.940   3.732   3.310
67389W        W28920  24.105  25.556   2.665
67390W        W28921  24.711  10.877   0.786
67391W        W28922  42.510  41.040   1.917
67392W        W28923   1.452  28.570  12.484
67393W        W28924  40.029  42.430   4.247
67394W        W28925   5.710  32.030   0.899
67395W        W28926  11.812  17.608   1.862
67396W        W28927  41.363   5.788   1.776
67397W        W28928  20.246   5.931   3.844
67398W        W28929   6.855  15.707   4.642
67399W        W28930  29.098  31.143  12.032
67400W        W28931  24.134  33.997  10.545
67401W        W28932  39.341  43.470  14.951
67402W        W28933  17.699  41.899   0.375
67403W        W28934  29.101   5.922   3.696
67404W        W28935  30.131  31.901   1.315
67405W        W28936   9.861  43.328  13.377
67406W        W28937   8.160  10.794  11.078
67407W        W28938  15.152  33.911   3.783
67408W        W28939  26.623  27.144   4.743
67409W        W28940   8.701   5.861   1.239
67410W        W28941  38.979  22.099   0.755
67411W        W28942   8.774  18.577   2.418
67412W        W28943  20.270  26.637  12.958
67413W        W28944  44.354  36.885  13.439
67414W        W28945   2.373  41.862   3.841
67415W        W28946   1.339  41.846  10.908
67416W        W28947  10.185  40.969   3.746
67417W        W28948  15.136   2.747   0.353
67418W        W28949  37.408  28.564  11.468
67419W        W28950  39.983  26.994   1.385
67420W        W28951  30.080  35.932   4.761
67421W        W28952  14.107   4.311  12.845
67422W        W28953  23.681  32.422   3.861
67423W        W28954  34.484   8.290   4.714
67424W        W28955  11.202  37.040  11.044
67425W        W28956  40.973  22.094  12.487
67426W        W28957  26.539  10.671  12.455
67427W        W28958   8.405  29.936  13.873
67428W        W28959  39.372  13.180   4.170
67429W        W28960  39.370  39.002   0.407
67430W        W28961  12.836  39.974  12.060
67431W        W28962   2.774   2.967  14.866
67432W        W28963  13.295  24.529  10.986
67433W        W28964  23.024  38.393  14.987
67434W        W28965  42.961  10.742  11.906
67435W        W28966  20.109   5.720  12.439
67436W        W28967  11.705  18.159   4.246
67437W        W28968  34.088  37.861  14.958
67438W        W28969  26.608  21.604   2.264
67439W        W28970  31.482   3.306   2.246
67440W        W28971  18.657   1.418   4.783
67441W        W28972  27.513  30.093   2.662
67442W        W28973  38.825  14.616   5.127
67443W        W28974  20.098  24.216  10.970
67444W        W28975  16.695  37.948  11.447
67445W        W28976  15.259  20.576   2.879
67446W        W28977  19.606  36.547  12.864
67447W        W28978  15.297  15.638   9.981
67448W        W28979  44.389  42.830  12.032
67449W        W28980  16.073  20.649  12.569
67450W        W28981  36.864  42.889  11.549
67451W        W28982  22.247   6.288  14.943
67452W        W28983  34.575  13.184  13.016
67453W        W28984   3.770   2.294  14.945
67454W        W28985  22.508   6.267  14.344
67455W        W28986   2.728  33.026  13.907
67456W        W28987  20.738  28.543   4.663
67457W        W28988  12.761  25.057   3.850
67458W        W28989  40.860  44.473  12.359
67459W        W28990  19.624  29.440  14.771
67460W        W28991  37.888  39.324  10.453
67461W        W28992  40.532  44.779   1.843
67462W        W28993  19.043   6.886   1.361
67463W        W28994  34.458  44.856   4.653
67464W        W28995  36.089  36.580   1.342
67465W        W28996  13.221  38.949  14.979
67466W        W28997  44.466  20.684  14.024
67467W        W28998  32.484  18.744  13.490
67468W        W28999   3.819  13.644   3.209
67469W        W29000  23.592  34.988   1.891
67470W        W29001  18.076  25.990  13.361
67471W        W29002  26.986  35.038  14.477
67472W        W29003   6.305  28.527  13.470
67473W        W29004  26.979  43.282   4.282
67474W        W29005  27.637  41.016  13.492
67475W        W29006  42.925  44.909  12.928
67476W        W29007  18.679   6.748  11.902
67477W        W29008  15.772  35.041  12.547
67478W        W29009  27.634  41.830   2.823
67479W        W29010  15.117  26.614  14.939
67480W        W29011   4.248  36.071  12.083
67481W        W29012  11.666  32.437   0.827
67482W        W29013  34.527  37.083  11.949
67483W        W29014   3.332  13.812   2.285
67484W        W29015   3.398  22.996   3.655
67485W        W29016   5.396  42.865  12.003
67486W        W29017  25.576  44.826  10.951
67487W        W29018  37.910  41.789  12.032
67488W        W29019  40.352  24.119   4.618
67489W        W29020   3.438  38.990   2.816
67490W        W29021  38.332  27.153   3.671
67491W        W29022  14.629   5.270  13.902
67492W        W29023   3.308  21.628   4.297
67493W        W29024  36.938  13.346   1.720
67494W        W29025  14.669  33.596  13.955
67495W        W29026  39.929  22.602   1.408
67496W        W29027  23.024   0.872  11.391
67497W        W29028  21.536  34.921  10.929
67498W        W29029  44.395   2.824  10.057
67499W        W29030  39.850   4.844  14.378
67500W        W29031  41.026  31.020   3.376
67501W        W29032  23.026  15.240   3.840
67502W        W29033  19.675  13.313  10.928
67503W        W29034   6.715  42.856  14.289
67504W        W29035  37.024  23.695  13.813
67505W        W29036  27.578  22.697  11.883
67506W        W29037  14.642  11.726  10.002
67507W        W29038   3.886  36.911  13.024
67508W        W29039  32.943  30.537  11.399
67509W        W29040  28.534  44.985  12.848
67510W        W29041  16.212   3.273  14.774
67511W        W29042  16.232  39.450  11.097
67512W        W29043  44.418  23.109  12.968
67513W        W29044  23.132  26.997   2.264
67514W        W29045  21.116  27.524   0.849
67515W        W29046   9.693  18.191  12.030
67516W        W29047  12.829   3.951  12.001
67517W        W29048   1.766  11.352   3.670
67518W        W29049  32.108   4.891   4.768
67519W        W29050  42.474  32.425   0.270
67520W        W29051  17.570  36.492   1.775
67521W        W29052  27.195  43.273  13.513
67522W        W29053   1.469  36.017  14.914
67523W        W29054  23.027   5.689  10.989
67524W        W29055  43.980   6.329  14.813
67525W        W29056  37.529  14.781   4.347
67526W        W29057  32.135  37.551   4.682
67527W        W29058   1.759  10.762   1.402
67528W        W29059  40.050   6.685  13.524
67529W        W29060  20.748  44.833  10.921
67530W        W29061  15.315  12.730  11.509
67531W        W29062  10.280   9.298  13.547
67532W        W29063  37.578  30.463   0.872
67533W        W29064  15.723  30.655   4.185
67534W        W29065  21.534   9.767  11.457
67535W        W29066   3.454   0.753   0.848
67536W        W29067  15.211  43.287  13.013
67537W        W29068   8.790  16.127   1.213
67538W        W29069  15.255  39.969   1.430
67539W        W29070  16.802  44.339   0.343
67540W        W29071  25.657  44.848   0.331
67541W        W29072  29.047   9.843  14.903
67542W        W29073  14.754  31.097   1.316
67543W        W29074  13.725  33.886   4.764
67544W        W29075  19.264  10.166   1.842
67545W        W29076  27.151   7.853  14.335
67546W        W29077  43.475  28.146  14.786
67547W        W29078  43.400  40.957   1.882
67548W        W29079  27.188  10.291   2.711
67549W        W29080  23.623  34.087   3.250
67550W        W29081  42.449  40.371   2.695
67551W        W29082   2.903  27.143   9.979
67552W        W29083  35.408  20.237   4.778
67553W        W29084  31.406  20.594  13.018
67554W        W29085  24.689  27.645  13.894
67555W        W29086  14.230  10.854  14.999
67556W        W29087  29.148  33.405   1.215
67557W        W29088  11.209   3.331   1.766
67558W        W29089  24.123  16.219  12.968
67559W        W29090   9.270  34.405  10.047
67560W        W29091   1.958   6.352  13.440
67561W        W29092  41.817   4.899   5.276
67562W        W29093   6.267  34.556  11.566
67563W        W29094   9.223   9.331   3.179
67564W        W29095  38.364  10.383   4.318
67565W        W29096  41.483   8.206  13.843
67566W        W29097   9.664   6.335   3.377
67567W        W29098  23.647  29.054  13.804
67568W        W29099  27.083  37.842  11.940
67569W        W29100   2.372  14.617   1.357
67570W        W29101   8.172  25.516  13.403
67571W        W29102  31.059   5.210  13.363
67572W        W29103   0.782  28.471   4.125
67573W        W29104  42.383  17.220  10.893
67574W        W29105  25.212  40.399   0.882
67575W        W29106  32.953   1.889   4.149
67576W        W29107  43.985  44.859  11.003
67577W        W29108  38.395  24.688   3.758
67578W        W29109  16.667   6.718   1.282
67579W        W29110  40.514  29.656   4.344
67580W        W29111  29.086  28.543  14.893
67581W        W29112  36.047  34.424  12.498
67582W        W29113  42.953   4.417   3.347
67583W        W29114  30.446  34.983   4.151
67584W        W29115  36.528   7.758   2.853
67585W        W29116  16.803  11.847  13.840
67586W        W29117  36.368  21.022   4.764
67587W        W29118   0.939  36.524  13.422
67588W        W29119  37.399  12.130   1.772
67589W        W29120  30.430  11.307  13.510
67590W        W29121  40.920  21.669   0.454
67591W        W29122   8.742  14.742   0.447
67592W        W29123  12.664  31.973   3.793
67593W        W29124  30.987  29.629   5.091
67594W        W29125  24.067  28.995  14.828
67595W        W29126   0.392  41.308  12.889
67596W        W29127  42.320   6.764   2.858
67597W        W29128   5.870  21.049   4.707
67598W        W29129  16.786  32.983   4.727
67599W        W29130  34.945  34.112   0.359
67600W        W29131  33.589  15.577   4.802
67601W        W29132   0.494  38.494   1.440
67602W        W29133  14.597  33.994  12.926
67603W        W29134  25.042  23.578  11.948
67604W        W29135  12.668   5.924   2.855
67605W        W29136  11.295  12.832  14.320
67606W        W29137   8.257  42.450  11.880
67607W        W29138  43.014  41.450  10.433
67608W        W29139  18.198  15.238  14.288
67609W        W29140  39.358  34.542  12.532
67610W        W29141  25.072   4.764  10.122
67611W        W29142  36.513  40.958  14.468
67612W        W29143  24.541  17.104  13.448
67613W        W29144  19.589   6.407  14.965
67614W        W29145   1.837  44.000  13.791
67615W        W29146  26.533  28.058  14.006
67616W        W29147  16.801  12.268   3.175
67617W        W29148   2.854  21.045   2.370
67618W        W29149   0.909  16.118  14.478
67619W        W29150  41.821  10.145  10.561
67620W        W29151   7.728  15.179   1.423
67621W        W29152  44.899  32.508  14.006
67622W        W29153  35.869  22.544   4.196
67623W        W29154   6.801  28.608  10.431
67624W        W29155  29.020  25.962   0.375
67625W        W29156   1.289   4.398   0.459
67626W        W29157  37.393  10.695   0.272
67627W        W29158   4.328  12.349  13.320
67628W        W29159   1.843   3.854  11.468
67629W        W29160  24.091   4.929  14.359
67630W        W29161  33.476   7.693  14.907
67631W        W29162   4.873  30.432   1.285
67632W        W29163  35.372   0.766  14.863
67633W        W29164  23.015  41.505  11.879
67634W        W29165  29.103  38.521   1.271
67635W        W29166  44.898  28.109  11.088
67636W        W29167  41.470  17.260   1.291
67637W        W29168  10.660  35.046   1.818
67638W        W29169  41.939  15.739   9.965
67639W        W29170   5.841  39.944  13.864
67640W        W29171  21.186  40.502   1.321
67641W        W29172   3.797  31.904   1.425
67642W        W29173   5.894   7.335  14.850
67643W        W29174  36.454  16.072  13.866
67644W        W29175  34.490   1.248   1.273
67645W        W29176   5.769  36.572  10.597
67646W        W29177   1.366  33.945   1.349
67647W        W29178  22.180  43.374   3.167
67648W        W29179   5.416   3.459   0.793
67649W        W29180  40.885   9.644  12.047
67650W        W29181  36.875   0.870   3.175
67651W        W29182   4.871  40.359  11.011
67652W        W29183  25.536  22.175   0.247
67653W        W29184  26.139  25.200   3.379
67654W        W29185  40.431  33.096  11.068
67655W        W29186  14.630  11.324   0.729
67656W        W29187   5.304   3.798   0.322
67657W        W29188  31.134  33.464  10.922
67658W        W29189  37.861   0.955   1.247
67659W        W29190  27.969  15.588  12.979
67660W        W29191  27.107   5.830   3.366
67661W        W29192   7.208  27.163   1.373
67662W        W29193   1.914  10.383   4.268
67663W        W29194  42.345  17.801  14.002
67664W        W29195  21.075   2.934  11.951
67665W        W29196   7.182   2.279   9.449
67666W        W29197   4.280  25.519   0.847
67667W        W29198  23.506  40.039  13.524
67668W        W29199  32.118  17.110  12.946
67669W        W29200  10.284  33.473  12.886
67670W        W29201  26.662   2.319   1.794
67671W        W29202  32.558   7.306  11.387
67672W        W29203  18.683  32.536  10.953
67673W        W29204  42.861  43.337   3.708
67674W        W29205  11.845  37.557  13.323
67675W        W29206  13.340  15.693   0.813
67676W        W29207  18.171  18.178   1.266
67677W        W29208  34.045   6.238  14.484
67678W        W29209  40.971  24.157   4.740
67679W        W29210  43.471  24.624  14.483
67680W        W29211   2.392   1.407   4.329
67681W        W29212  30.553  27.997   2.837
67682W        W29213  22.010  26.653  12.373
67683W        W29214  10.743  43.965  11.052
67684W        W29215  13.260  14.253  11.999
67685W        W29216  44.345  33.563   4.194
67686W        W29217  44.358  31.615   4.244
67687W        W29218  43.270  21.512   4.829
67688W        W29219  41.503  30.469   4.663
67689W        W29220   9.201  39.556   1.250
67690W        W29221  34.001   6.277   2.199
67691W        W29222  25.583  38.862  12.003
67692W        W29223  16.752   1.909   4.129
67693W        W29224   5.230  14.222  13.495
67694W        W29225  37.508  36.096   0.761
67695W        W29226   4.239   2.425  10.460
67696W        W29227  26.071   1.452  14.851
67697W        W29228   4.357  37.981   2.354
67698W        W29229  27.523  35.514  11.469
67699W        W29230   8.875  28.001  11.925
67700W        W29231   5.212  28.634  12.059
67701W        W29232  35.075  11.365  11.509
67702W        W29233  38.368  44.450  12.093
67703W        W29234  30.465  19.259   0.297
67704W        W29235  34.014  42.523   1.292
67705W        W29236  44.284  17.702  14.895
67706W        W29237  13.601   4.244   0.269
67707W        W29238  26.032  41.303   2.724
67708W        W29239  21.652  36.879   3.294
67709W        W29240  14.178  11.337  14.028
67710W        W29241  30.487  39.423  12.413
67711W        W29242  38.938  43.834  12.353
67712W        W29243  12.731  39.932  12.532
67713W        W29244   9.749  36.363  11.431
67714W        W29245  38.432  44.863   3.667
67715W        W29246  38.493  12.792   3.785
67716W        W29247  13.711  17.725  12.547
67717W        W29248   7.840   1.798  11.102
67718W        W29249  29.618   5.705   4.320
67719W        W29250  35.103  29.645  14.480
67720W        W29251  26.200  15.149   3.781
67721W        W29252   7.845  41.328  12.893
67722W        W29253  14.122  33.091   1.218
67723W        W29254  24.026  13.713   0.763
67724W        W29255  36.859  24.609   3.281
67725W        W29256  36.943  39.992  14.298
67726W        W29257   5.372  13.155   1.410
67727W        W29258  16.202   3.302  14.283
67728W        W29259  15.116   6.720  13.454
67729W        W29260  15.721   8.757  14.282
67730W        W29261  44.880  38.507  14.003
67731W        W29262  23.587  24.498  13.465
67732W        W29263   8.741  10.684   0.939
67733W        W29264  28.089  32.602   1.363
67734W        W29265  15.088  19.132   0.829
67735W        W29266  32.473  18.751  14.424
67736W        W29267  23.001   1.270  11.385
67737W        W29268  14.140   9.349  10.622
67738W        W29269  26.468   4.815  13.310
67739W        W29270  39.454  29.982  14.849
67740W        W29271   4.276  15.653   0.780
67741W        W29272   9.793  42.429   4.314
67742W        W29273  44.950  33.420   1.842
67743W        W29274  21.590  10.202  12.565
67744W        W29275  16.709  17.559  13.404
67745W        W29276  27.043  23.995  13.831
67746W        W29277   9.674   6.198  13.804
67747W        W29278  11.203   0.758  12.836
67748W        W29279  18.268  34.915   4.740
67749W        W29280   9.751  33.121   3.702
67750W        W29281  32.550  37.438   1.766
67751W        W29282  38.345  39.511  14.791
67752W        W29283  13.187   5.228   0.405
67753W        W29284  22.997  39.950  13.912
67754W        W29285  35.471   7.293   0.915
67755W        W29286  26.509  44.806   4.252
67756W        W29287  41.325  16.708  10.583
67757W        W29288  29.012   6.796   9.650
67758W        W29289   2.934  24.103   2.317
67759W        W29290   6.740  34.596   2.864
67760W        W29291  25.187  29.000  13.056
67761W        W29292  21.594  12.690  12.074
67762W        W29293   6.292  35.014  14.363
67763W        W29294  40.889   9.187  13.329
67764W        W29295  31.441   3.733   1.782
67765W        W29296  23.219  42.287  13.465
67766W        W29297   7.897  33.043  14.489
67767W        W29298  40.485  11.198  14.949
67768W        W29299  33.904  19.148  14.966
67769W        W29300  34.538  31.134  12.432
67770W        W29301  18.166   0.796  13.307
67771W        W29302  26.561  11.316   0.759
67772W        W29303  16.807  26.025  13.845
67773W        W29304  37.359  17.303  11.385
67774W        W29305   3.832  32.434   3.684
67775W        W29306  29.948  32.911  11.510
67776W        W29307  22.535   9.844   4.169
67777W        W29308  43.508  33.545   4.273
67778W        W29309  38.976  41.330   0.818
67779W        W29310  37.862  11.786  11.877
67780W        W29311  25.157  19.206  13.881
67781W        W29312  15.281   9.846   3.808
67782W        W29313   3.347   3.858  13.412
67783W        W29314  15.118   3.729   0.809
67784W        W29315  43.400  32.109   2.688
67785W        W29316  18.733  11.641   3.160
67786W        W29317   0.322  33.888  10.970
67787W        W29318  22.104  37.414   4.620
67788W        W29319  11.309  37.396   4.272
67789W        W29320  28.129  20.249  10.160
67790W        W29321  29.472  34.080  12.870
67791W        W29322   2.410  39.546  11.417
67792W        W29323  34.111  31.095  14.515
67793W        W29324   3.289  23.006  11.606
67794W        W29325  43.901  40.931  12.930
67795W        W29326  17.740   8.190  10.951
67796W        W29327  39.421  15.679  11.065
67797W        W29328  36.870  34.372  12.924
67798W        W29329  15.278  24.097   4.125
67799W        W29330  28.172   3.415  11.928
67800W        W29331  39.328  13.807  14.375
67801W        W29332   3.887  16.266   4.799
67802W        W29333  31.018  31.576   4.703
67803W        W29334  39.000  41.493   3.728
67804W        W29335  13.150  35.925   4.794
67805W        W29336  28.129  44.480   3.188
67806W        W29337   4.746  17.129   4.164
67807W        W29338  21.019  10.273  12.900
67808W        W29339   7.363   1.827  10.031
67809W        W29340  30.521  22.197   0.350
67810W        W29341  31.997  41.995   1.337
67811W        W29342  34.970  30.954  10.890
67812W        W29343  44.505   0.913   0.775
67813W        W29344   0.391  30.470   1.748
67814W        W29345  12.853  16.180   4.218
67815W        W29346  29.620  16.314  12.379
67816W        W29347   2.466  30.454   9.967
67817W        W29348  11.170  33.105   3.694
67818W        W29349   0.432  13.663   1.876
67819W        W29350  15.329  26.067  13.898
67820W        W29351  31.506  40.940  11.442
67821W        W29352   9.334  35.035  12.371
67822W        W29353   0.906  35.088   1.744
67823W        W29354   3.893   6.292  14.898
67824W        W29355   8.337  37.440  14.490
67825W        W29356  21.229   6.200  11.031
67826W        W29357  37.970  23.697  11.088
67827W        W29358  14.620   2.358  12.416
67828W        W29359  13.811  14.621  14.405
67829W        W29360  38.438  36.029  13.361
67830W        W29361  31.127  11.738  13.546
67831W        W29362  39.445  36.913  14.760
67832W        W29363  30.537  36.425  11.574
67833W        W29364   2.852  38.411  14.409
67834W        W29365   3.889  38.332  13.006
67835W        W29366  10.783  29.555   2.380
67836W        W29367  11.255  11.132   1.358
67837W        W29368  22.568  39.334   1.400
67838W        W29369  40.363  30.113   2.404
67839W        W29370   4.760   4.901   0.463
67840W        W29371  27.979  26.531   0.965
67841W        W29372  31.916  10.824  13.439
67842W        W29373  42.389  25.087  10.497
67843W        W29374   0.860  30.423  12.506
67844W        W29375  17.753  16.639  12.037
67845W        W29376  10.803  36.941  13.027
67846W        W29377  27.503   0.322  12.996
67847W        W29378  30.043   4.775   2.295
67848W        W29379  25.187  39.851   3.652
67849W        W29380  43.897   6.699  12.388
67850W        W29381  14.667  18.157   3.858
67851W        W29382  17.138  31.464   2.249
67852W        W29383  42.496  26.195   4.272
67853W        W29384  12.155  20.235   4.130
67854W        W29385  32.509   8.321  14.783
67855W        W29386  16.801  21.609   1.861
67856W        W29387  25.120  38.384  14.877
67857W        W29388  29.097  32.965  14.288
67858W        W29389   9.839  10.838  14.958
67859W        W29390  41.840  21.079  11.933
67860W        W29391  35.437  25.107   4.638
67861W        W29392  41.329  14.274   3.767
67862W        W29393   5.817  36.085   2.265
67863W        W29394  25.998  24.188  12.911
67864W        W29395  36.535  19.219  12.994
67865W        W29396   6.227  43.349  13.488
67866W        W29397  24.072  10.686   2.845
67867W        W29398  17.703  40.303  12.826
67868W        W29399  19.616  26.965   2.866
67869W        W29400  26.552  24.977  14.328
67870W        W29401   7.373  36.468  13.829
67871W        W29402   8.351   6.263  12.884
67872W        W29403  28.573  19.107  12.018
67873W        W29404   5.331  38.038  13.994
67874W        W29405  23.153  12.650   4.643
67875W        W29406  13.234  22.528   0.956
67876W        W29407   7.714   7.719   0.849
67877W        W29408   0.248  25.656   3.177
67878W        W29409  42.313  39.814  11.541
67879W        W29410  13.275  38.350   4.180
67880W        W29411  18.239  10.237   0.309
67881W        W29412  23.056  11.315   1.908
67882W        W29413  17.280  41.445   0.415
67883W        W29414  34.444  37.446  14.407
67884W        W29415  22.634  25.186  12.994
67885W        W29416  38.469  13.640  10.061
67886W        W29417   1.428   3.232  10.988
67887W        W29418  43.508  32.557  11.975
67888W        W29419  23.222  15.621  11.873
67889W        W29420  12.617  32.952  12.867
67890W        W29421  22.208  29.945   1.901
67891W        W29422  33.599  18.679   2.766
67892W        W29423  30.082  14.608   1.828
67893W        W29424  39.534  14.663   2.691
67894W        W29425   1.797  25.080   3.304
67895W        W29426  16.130   6.746  13.047
67896W        W29427  28.481  17.156   2.240
67897W        W29428  21.094  21.118   3.330
67898W        W29429  18.147  23.228  13.541
67899W        W29430  13.815   5.756   3.146
67900W        W29431   6.844  35.963   3.257
67901W        W29432  42.380  35.044   4.271
67902W        W29433  12.361  25.558  13.039
67903W        W29434   1.475  28.526   4.249
67904W        W29435  28.655  18.053  12.040
67905W        W29436  29.118   4.866   2.369
67906W        W29437  15.099   3.349   0.855
67907W        W29438   2.429  36.576   4.789
67908W        W29439  15.132  35.522   3.184
67909W        W29440  18.777  35.381   0.364
67910W        W29441   7.254  38.338  12.565
67911W        W29442   2.469  10.246   0.426
67912W        W29443  12.211   3.859  13.840
67913W        W29444   0.301  44.374   3.185
67914W        W29445  14.743  22.101  10.934
67915W        W29446  12.780  26.480  13.535
67916W        W29447  19.729   8.392  13.363
67917W        W29448  18.738  13.197   2.346
67918W        W29449  29.029  10.870   2.680
67919W        W29450  16.581  25.475   1.765
67920W        W29451  29.971  16.718  14.006
67921W        W29452  25.027  31.974   1.211
67922W        W29453  44.503   5.921  13.515
67923W        W29454  37.549   6.370  11.380
67924W        W29455  34.402  17.597  10.978
67925W        W29456  28.992   9.236   4.679
67926W        W29457   3.384  19.771   1.427
67927W        W29458  36.397  25.603   3.792
67928W        W29459  38.858  34.369  14.468
67929W        W29460  42.976   4.317   4.199
67930W        W29461  26.495  42.378   0.752
67931W        W29462  42.831  41.507  14.387
67932W        W29463   4.857   8.765  13.942
67933W        W29464  15.107  13.639   0.286
67934W        W29465  43.975  13.756  10.996
67935W        W29466  22.599  29.931  13.338
67936W        W29467   2.333  33.602   3.316
67937W        W29468  36.370   1.367   3.652
67938W        W29469  24.159  31.074  14.779
67939W        W29470  28.461  31.942  11.014
67940W        W29471  10.382   3.716   5.249
67941W        W29472  43.804  28.681  12.887
67942W        W29473  43.514   9.825   1.257
67943W        W29474  40.951   8.732  13.434
67944W        W29475   0.469   5.832  11.608
67945W        W29476  12.706  11.721  10.417
67946W        W29477  13.170  25.569  11.483
67947W        W29478   3.284  10.210   3.327
67948W        W29479  32.975  23.063   2.181
67949W        W29480  39.002  12.726  13.323
67950W        W29481  42.421  35.936  14.811
67951W        W29482   7.745  44.988  10.441
67952W        W29483  26.029  38.843   4.355
67953W        W29484  19.103   9.356   4.336
67954W        W29485  31.914  18.690   3.182
67955W        W29486  40.008  10.300   3.778
67956W        W29487  10.307   8.705   1.696
67957W        W29488  21.671   6.304   4.312
67958W        W29489  26.145  27.998   2.193
67959W        W29490  16.712   3.866   0.731
67960W        W29491  37.048  17.655   4.335
67961W        W29492  13.802  24.100   0.290
67962W        W29493  35.448  41.889   3.285
67963W        W29494  28.642  16.729   3.669
67964W        W29495  44.937   6.780  14.891
67965W        W29496  26.516  38.851   5.097
67966W        W29497  24.062  42.832   0.371
67967W        W29498  38.892  25.567   1.883
67968W        W29499  12.212   8.868   1.748
67969W        W29500   0.256  26.640   1.384
67970W        W29501  18.063  37.483  11.012
67971W        W29502   2.308  29.630   1.880
67972W        W29503  14.804   8.809   3.306
67973W        W29504  25.537   3.426  10.082
67974W        W29505  43.500   6.911   2.252
67975W        W29506  32.436  20.103   0.470
67976W        W29507   5.774   9.679   3.786
67977W        W29508  16.084  21.176  14.826
67978W        W29509  39.936   8.839  10.996
67979W        W29510  15.110  20.559   4.263
67980W        W29511  18.611  12.289   4.212
67981W        W29512  12.738  30.556  13.799
67982W        W29513  17.578  34.378   1.796
67983W        W29514  27.111  22.072   0.416
67984W        W29515  13.797  44.813  12.078
67985W        W29516  18.786  15.310   3.643
67986W        W29517   3.858  31.576  12.928
67987W        W29518  35.016  30.445  10.412
67988W        W29519  13.783  34.890   0.273
67989W        W29520  36.015  32.590   0.953
67990W        W29521  43.825  18.282   2.726
67991W        W29522  14.604  11.311   4.352
67992W        W29523  34.926  32.089  12.947
67993W        W29524  23.019  30.127  11.499
67994W        W29525   0.324  14.679   4.688
67995W        W29526  10.776   0.857   2.703
67996W        W29527  32.433  38.379  12.966
67997W        W29528  11.629  35.463   1.377
67998W        W29529  44.499  29.608   9.944
67999W        W29530   8.334  15.783   4.700
68000W        W29531  33.601  30.160   3.857
68001W        W29532  39.546  11.852  12.915
68002W        W29533   1.237  22.163   1.871
68003W        W29534  25.129  16.309  14.969
68004W        W29535  29.973  40.857   0.901
68005W        W29536  41.538  10.351  13.013
68006W        W29537  28.633   7.347  13.860
68007W        W29538  15.207  25.636   1.331
68008W        W29539  34.420  41.924  10.933
68009W        W29540  33.082  21.248  11.975
68010W        W29541  14.809  14.202  10.995
68011W        W29542  21.052  21.260  14.378
68012W        W29543  42.792  37.923   3.244
68013W        W29544  32.927  19.201  13.455
68014W        W29545   0.945   9.377   3.379
68015W        W29546  24.979  27.944  14.392
68016W        W29547  17.292  30.587   2.808
68017W        W29548  36.545   3.874  10.917
68018W        W29549   7.876  27.552   2.384
68019W        W29550  31.627  16.257  14.879
68020W        W29551  43.489  37.928   2.282
68021W        W29552  29.509   9.250   3.161
68022W        W29553   4.879  25.087   2.413
68023W        W29554  11.357   8.813  12.960
68024W        W29555   3.459  14.654   1.291
68025W        W29556   0.947  31.518   0.948
68026W        W29557  42.465  26.687  12.948
68027W        W29558  22.725   6.415  13.391
68028W        W29559  33.544  18.612  13.863
68029W        W29560  43.433  34.002   3.768
68030W        W29561  15.676  22.730  14.292
68031W        W29562  19.740   8.190   1.864
68032W        W29563   8.190  21.262  10.106
68033W        W29564  28.090  14.789   0.337
68034W        W29565  11.657   6.899   1.770
68035W        W29566  35.982  23.019  14.914
68036W        W29567   2.364  33.404  13.929
68037W        W29568  37.856  27.060  14.879
68038W        W29569  14.652  20.704  14.790
68039W        W29570  25.476  38.369  14.406
68040W        W29571  28.043  38.469  10.888
68041W        W29572  15.687  41.799   3.356
68042W        W29573  14.598   8.382  14.400
68043W        W29574  18.663  12.682   5.084
68044W        W29575  32.036  34.002   2.880
68045W        W29576   1.920  17.611  14.379
68046W        W29577  27.671  16.153   3.836
68047W        W29578  43.424  17.691  13.971
68048W        W29579  10.296  30.114   0.727
68049W        W29580   4.872   7.272  10.923
68050W        W29581  15.222  42.975  13.054
68051W        W29582   1.835  40.340   3.836
68052W        W29583   7.736  10.168   2.684
68053W        W29584  14.756  43.822  13.433
68054W        W29585  35.468  31.574   3.734
68055W        W29586  26.097  12.751  11.387
68056W        W29587  10.810  23.545  14.768
68057W        W29588  14.628  10.246  12.936
68058W        W29589   4.818  39.526   4.196
68059W        W29590   3.754   3.272  12.388
68060W        W29591  10.303  44.813  13.870
68061W        W29592  18.631   7.864   4.814
68062W        W29593  40.906  14.309   0.347
68063W        W29594  43.455   6.190   4.119
68064W        W29595  36.452  19.142  12.506
68065W        W29596  14.211  40.970   0.963
68066W        W29597  41.454  44.353  11.021
68067W        W29598   1.751  23.716  11.917
68068W        W29599  19.261   6.284  13.444
68069W        W29600   1.436  29.928  14.930
68070W        W29601  17.690  25.086  13.993
68071W        W29602  32.921   5.368  13.865
68072W        W29603   4.860  44.984   3.293
68073W        W29604  36.951  42.917  13.546
68074W        W29605  20.631   3.838   0.403
68075W        W29606   5.755   1.923  14.310
68076W        W29607   4.706  11.145  10.524
68077W        W29608  40.830  30.570  14.885
68078W        W29609  16.207  35.509   0.919
68079W        W29610   7.211  29.573   4.726
68080W        W29611  40.460  33.943  14.869
68081W        W29612  43.474  26.162  13.987
68082W        W29613  15.599  26.611  11.031
68083W        W29614  31.095  26.620  13.947
68084W        W29615  29.536  30.142   3.200
68085W        W29616   5.918  18.740  10.450
68086W        W29617  38.843  30.963   2.225
68087W        W29618  32.498  32.586   2.788
68088W        W29619  31.644   5.214  13.383
68089W        W29620  35.417  40.472  11.543
68090W        W29621  16.218  31.131  13.944
68091W        W29622  36.843  18.203  11.590
68092W        W29623   2.292  32.417  12.561
68093W        W29624  26.047  21.088   3.794
68094W        W29625  18.608  13.323   3.811
68095W        W29626  11.628  12.703   2.364
68096W        W29627  21.146  18.144   1.774
68097W        W29628  43.330  33.067   4.729
68098W        W29629  11.857   6.860   0.925
68099W        W29630  17.770   9.653   4.836
68100W        W29631  40.939  10.857  12.840
68101W        W29632  39.000  34.442   4.679
68102W        W29633  25.087  17.298   1.761
68103W        W29634  35.460  18.747   2.391
68104W        W29635  25.664  37.366   2.724
68105W        W29636  34.894   7.896   0.904
68106W        W29637  37.067   1.385  11.516
68107W        W29638  11.185  27.147  10.643
68108W        W29639  38.863  28.667  12.549
68109W        W29640  39.911  10.862  13.527
68110W        W29641  25.008   4.848  12.344
68111W        W29642  14.772  25.598  11.500
68112W        W29643   0.454  31.040   2.395
68113W        W29644  30.455  14.303   0.419
68114W        W29645  22.638  15.615   0.812
68115W        W29646  31.458  31.596   4.208
68116W        W29647  11.647  29.620  11.951
68117W        W29648  19.224  23.522  14.969
68118W        W29649  28.999   6.277  14.370
68119W        W29650  16.076  35.093  12.448
68120W        W29651  33.470  20.134  10.602
68121W        W29652  14.614  40.914  11.541
68122W        W29653   5.717  34.109   0.368
68123W        W29654  38.346   7.360  12.046
68124W        W29655  15.086  29.508   1.367
68125W        W29656   9.176  32.029   4.300
68126W        W29657  37.420  18.064   2.764
68127W        W29658  41.842  14.215  12.454
68128W        W29659   2.360  33.955  12.453
68129W        W29660   1.923  29.965   2.880
68130W        W29661  11.161  16.110  13.812
68131W        W29662  14.194  10.333   3.794
68132W        W29663  39.370   5.313   1.339
68133W        W29664   9.682  24.134   3.739
68134W        W29665  25.198  30.956   3.718
68135W        W29666  40.366  43.905  14.453
68136W        W29667  34.882  19.692   4.264
68137W        W29668  34.506   3.409  11.024
68138W        W29669  17.687  29.606  11.978
68139W        W29670   3.373   5.257   0.476
68140W        W29671  12.211  33.447  10.491
68141W        W29672  28.138   2.920  11.503
68142W        W29673   6.193  10.315  12.483
68143W        W29674  23.027  13.131   4.273
68144W        W29675  36.883  18.089  13.412
68145W        W29676  20.272  14.723   2.274
68146W        W29677  35.098   0.298  12.954
68147W        W29678  37.460  19.645  10.613
68148W        W29679  11.214  35.891  10.641
68149W        W29680   2.753  40.396  11.980
68150W        W29681   7.797   6.786  13.960
68151W        W29682  14.637  12.179  11.520
68152W        W29683  25.145  42.904   0.954
68153W        W29684  21.644  27.027  12.493
68154W        W29685  33.465  27.070   2.845
68155W        W29686  42.919  36.884   3.305
68156W        W29687   1.295  16.724  13.902
68157W        W29688  31.039  30.416  12.939
68158W        W29689   6.782  18.628  10.941
68159W        W29690  29.604  13.784   0.791
68160W        W29691  41.371  33.514  10.615
68161W        W29692   7.809   6.191   1.432
68162W        W29693  24.020  11.835   2.190
68163W        W29694  40.935  43.769  14.988
68164W        W29695  21.035  32.941  13.794
68165W        W29696   5.303   5.829   1.785
68166W        W29697  43.860   5.813   1.437
68167W        W29698  16.774  44.919   0.842
68168W        W29699  35.932   4.725   3.329
68169W        W29700  42.987  42.968  12.898
68170W        W29701  28.172   1.745  14.455
68171W        W29702   6.199   4.814  11.594
68172W        W29703  10.702  23.196   3.850
68173W        W29704  41.960  17.275  13.384
68174W        W29705  24.162  27.123   2.729
68175W        W29706  30.514  27.014   1.873
68176W        W29707  33.075  28.512   4.714
68177W        W29708  13.299  14.685  13.324
68178W        W29709  26.101  31.115   2.751
68179W        W29710  32.594  27.551  14.998
68180W        W29711  21.207  26.656  14.946
68181W        W29712  27.116   4.810   1.737
68182W        W29713  23.690  37.533   3.696
68183W        W29714  43.375   5.207  12.964
68184W        W29715   0.320  31.493   1.809
68185W        W29716  14.229  30.439  13.886
68186W        W29717  37.042  32.629   2.389
68187W        W29718  12.349  11.766   3.207
68188W        W29719  40.486  14.635  14.372
68189W        W29720   3.748  15.634   1.904
68190W        W29721  34.979  38.840  14.892
68191W        W29722  44.942  20.589   0.871
68192W        W29723   5.919  43.509   1.330
68193W        W29724   3.710  18.254  14.936
68194W        W29725   0.444  26.091   1.406
68195W        W29726   0.255  11.184   4.186
68196W        W29727  36.350  37.399  12.925
68197W        W29728  42.435  19.175  12.837
68198W        W29729   0.855  19.043   4.786
68199W        W29730  31.068   8.244   5.802
68200W        W29731  32.907  19.169  10.953
68201W        W29732  19.693  42.354   2.901
68202W        W29733  11.699  22.229  13.015
68203W        W29734  34.054  43.826   3.793
68204W        W29735  37.896  39.962  11.931
68205W        W29736  42.493  26.055  12.456
68206W        W29737   4.903   8.359   0.376
68207W        W29738  20.205  26.635  14.315
68208W        W29739  39.336  18.658  12.523
68209W        W29740  30.001  35.989   3.313
68210W        W29741  34.497  41.447  14.999
68211W        W29742  10.790  26.537  12.506
68212W        W29743   0.795   1.396   1.293
68213W        W29744  39.517   5.283  12.516
68214W        W29745  33.443  39.942   2.815
68215W        W29746  15.594  44.768   4.324
68216W        W29747  20.661  35.395  10.449
68217W        W29748  28.072  33.473  12.548
68218W        W29749  25.991  10.845   2.265
68219W        W29750  24.481  28.612  13.940
68220W        W29751  19.170  28.601  10.454
68221W        W29752   7.276  26.982   2.663
68222W        W29753  29.000  36.076  10.526
68223W        W29754   5.717  25.036  11.100
68224W        W29755   7.315  24.488   0.732
68225W        W29756  40.338  21.213  12.035
68226W        W29757   2.878   1.248   3.224
68227W        W29758  15.606  19.631  10.890
68228W        W29759  37.869  10.818   2.795
68229W        W29760  10.657  26.189   3.337
68230W        W29761  25.021  18.253   1.401
68231W        W29762  11.301  25.610  10.607
68232W        W29763  40.503  28.087   9.982
68233W        W29764  14.710  38.421  12.530
68234W        W29765  26.173  36.903  13.012
68235W        W29766  34.107   3.728  12.871
68236W        W29767  37.483   5.352  14.344
68237W        W29768  30.975  11.260  14.846
68238W        W29769   8.339  22.720   2.182
68239W        W29770  35.468  27.141  11.569
68240W        W29771  34.871  20.243  10.891
68241W        W29772  24.135  34.971   3.839
68242W        W29773   8.293   4.859  12.927
68243W        W29774  22.239  28.469  13.322
68244W        W29775  28.930  41.493   4.655
68245W        W29776  43.912  44.497   4.679
68246W        W29777  32.028  28.184  11.439
68247W        W29778  25.108  16.722  10.005
68248W        W29779  27.090  33.972   2.759
68249W        W29780  20.105  20.585  14.933
68250W        W29781  30.043  35.390  10.983
68251W        W29782   2.965  16.808  11.500
68252W        W29783   2.774  44.464   1.404
68253W        W29784  20.198  32.563   0.934
68254W        W29785  16.102   0.751  13.454
68255W        W29786  43.281   5.736  13.439
68256W        W29787  37.417  26.650   2.858
68257W        W29788  30.537  20.624  14.956
68258W        W29789  36.564  29.490  12.377
68259W        W29790  21.149  36.385  12.374
68260W        W29791  18.055  39.367   2.194
68261W        W29792  23.730  37.051   3.857
68262W        W29793  32.621   3.357   4.135
68263W        W29794  15.806  42.348   2.295
68264W        W29795  35.379  20.261  10.499
68265W        W29796  39.518  39.857  13.929
68266W        W29797  36.509  38.896  13.427
68267W        W29798  26.149  38.008   3.734
68268W        W29799   1.852   5.267  11.014
68269W        W29800  44.770   1.842  13.955
68270W        W29801  18.569  10.692   0.791
68271W        W29802  35.368  20.053  11.910
68272W        W29803  39.009  27.621  13.969
68273W        W29804  35.939   7.180  13.456
68274W        W29805  25.657  11.131  14.887
68275W        W29806   4.882   8.266  11.049
68276W        W29807  17.598   0.256  11.992
68277W        W29808  16.223  41.847  10.468
68278W        W29809  39.327   4.746   3.370
68279W        W29810  19.622  40.308   0.859
68280W        W29811  44.777   5.417  12.918
68281W        W29812  24.193   5.292  14.909
68282W        W29813  41.918  42.779   0.452
68283W        W29814  10.337  24.041  12.887
68284W        W29815   0.953  43.403  11.501
68285W        W29816  26.017  20.716   4.163
68286W        W29817  21.627  11.149  13.871
68287W        W29818  40.336  44.851  14.457
68288W        W29819  14.692  38.935   2.372
68289W        W29820  34.563  40.413  11.410
68290W        W29821  10.657  22.669  14.361
68291W        W29822  33.922  44.842   4.243
68292W        W29823  18.269  15.236   2.881
68293W        W29824  43.771  34.549   0.254
68294W        W29825  20.258  33.891  14.511
68295W        W29826  25.694   9.289   2.314
68296W        W29827   2.729  26.606  10.005
68297W        W29828  25.647  34.530  13.981
68298W        W29829  27.993  18.605  11.951
68299W        W29830   9.794  30.110  10.546
68300W        W29831  28.984   5.319  14.501
68301W        W29832  35.584  41.035   0.735
68302W        W29833  21.694   0.346   3.662
68303W        W29834  27.667   8.333  13.307
68304W        W29835  23.527   4.838   2.342
68305W        W29836   3.941  30.565  14.923
68306W        W29837   3.709  11.315  13.977
68307W        W29838   5.419  27.491  11.901
68308W        W29839  16.592  27.092   2.724
68309W        W29840  26.481  30.518   2.232
68310W        W29841   6.195  12.321   3.187
68311W        W29842   0.864  37.845  12.542
68312W        W29843   7.178  26.119  11.560
68313W        W29844  13.133  41.496  11.116
68314W        W29845  18.769  40.311  12.046
68315W        W29846  38.871  27.085   0.351
68316W        W29847  25.213  42.354  13.856
68317W        W29848  20.196  38.355   0.926
68318W        W29849  34.470  39.960  13.483
68319W        W29850  36.846  11.152  14.769
68320W        W29851  16.228  13.133   2.264
68321W        W29852  43.271  41.457   5.209
68322W        W29853  19.065  27.540  13.396
68323W        W29854  25.675  16.642  12.579
68324W        W29855   8.800  31.124  14.504
68325W        W29856   6.905  18.272   1.872
68326W        W29857  23.702  20.211   2.234
68327W        W29858   0.754  43.287  14.457
68328W        W29859  33.478  22.247   2.277
68329W        W29860  34.387  32.008  12.378
68330W        W29861  10.194   5.805   2.366
68331W        W29862  12.181  10.718  13.866
68332W        W29863   3.333  13.646  13.547
68333W        W29864  21.151   1.815  10.603
68334W        W29865  42.999  44.354  14.920
68335W        W29866  37.083  19.063   0.458
68336W        W29867  41.806   6.288  11.544
68337W        W29868  33.903  20.171  12.823
68338W        W29869  35.426   9.695   2.746
68339W        W29870  10.369  19.551  13.852
68340W        W29871   4.744  17.615   0.409
68341W        W29872  34.481  10.759   1.238
68342W        W29873  44.391  10.749   2.900
68343W        W29874  26.158  44.832  13.350
68344W        W29875   1.290  42.957   3.251
68345W        W29876  25.515   9.355   4.790
68346W        W29877  22.201  42.821   2.786
68347W        W29878   4.305  38.360   4.601
68348W        W29879  19.099   5.270   0.439
68349W        W29880   9.333  41.333   2.194
68350W        W29881   5.311  22.127  14.359
68351W        W29882  37.086  29.043   4.820
68352W        W29883  27.086   9.881  13.512
68353W        W29884   7.413  41.881   2.188
68354W        W29885  25.166   2.804   4.124
68355W        W29886  13.322  22.207   2.387
68356W        W29887  18.153  25.058  11.521
68357W        W29888  37.990  17.090   2.410
68358W        W29889   2.314   0.814  11.523
68359W        W29890  34.416  24.667   0.961
68360W        W29891   9.253  21.524  12.470
68361W        W29892  39.414  42.499   4.123
68362W        W29893  17.114   1.425  10.507
68363W        W29894   2.339  29.973   3.163
68364W        W29895  21.713   4.887   4.755
68365W        W29896  44.420  41.343   1.698
68366W        W29897  34.871  38.375   2.216
68367W        W29898   1.280  29.644   2.234
68368W        W29899  27.134  23.034  13.344
68369W        W29900  11.623  37.519   4.143
68370W        W29901  11.742   3.758  13.471
68371W        W29902  25.009  28.032   0.418
68372W        W29903   9.302  16.206  13.878
68373W        W29904  25.573  14.769  11.921
68374W        W29905  34.071  32.607  14.458
68375W        W29906  11.189  21.206   2.399
68376W        W29907  42.783  21.188  10.603
68377W        W29908  14.180  41.368  12.891
68378W        W29909  42.332  12.274   3.325
68379W        W29910  44.259  35.003   3.220
68380W        W29911  18.575   9.771   1.763
68381W        W29912   5.868  31.147  11.422
68382W        W29913  35.029  10.144   4.214
68383W        W29914  31.508  31.095   1.700
68384W        W29915   9.714   9.356  11.454
68385W        W29916   6.236  31.007   2.725
68386W        W29917  19.188   1.958  12.432
68387W        W29918   7.265  28.971   4.304
68388W        W29919   0.363  35.908  12.576
68389W        W29920  17.614   1.849  13.960
68390W        W29921  19.172  36.377  14.327
68391W        W29922  23.686   8.324  14.015
68392W        W29923   0.409  28.548   3.745
68393W        W29924  42.293  29.133   1.441
68394W        W29925  16.581  29.943   4.676
68395W        W29926  11.762  36.587   0.430
68396W        W29927  20.091  35.015  13.943
68397W        W29928  40.028  41.467   2.351
68398W        W29929  38.057  21.151   1.923
68399W        W29930  23.036  39.347   9.637
68400W        W29931  11.161  25.564   2.260
68401W        W29932   7.194   2.763  12.364
68402W        W29933   1.381  23.712  12.016
68403W        W29934  35.909   1.466  14.412
68404W        W29935  20.272  30.580   3.802
68405W        W29936  20.233  28.582   0.478
68406W        W29937  37.575  30.033  10.488
68407W        W29938  43.397  39.505  10.624
68408W        W29939  17.752  41.788  10.498
68409W        W29940  18.237  27.597   4.838
68410W        W29941  29.944  34.984  14.426
68411W        W29942   1.413  33.037   2.779
68412W        W29943  10.210  23.549  13.465
68413W        W29944  30.575  44.754  11.396
68414W        W29945  21.241  24.677  13.545
68415W        W29946  29.001  12.644   4.687
68416W        W29947   8.679  12.321  11.608
68417W        W29948  16.632  24.203  12.469
68418W        W29949  10.310   7.270  14.897
68419W        W29950  30.123  17.133  12.420
68420W        W29951  13.269  11.272   1.410
68421W        W29952  37.361   8.840   0.797
68422W        W29953  42.311   6.372  14.393
68423W        W29954  28.038  41.422   3.222
68424W        W29955   0.819  24.146   9.956
68425W        W29956  43.475  39.481   1.851
68426W        W29957  39.379  24.104  10.964
68427W        W29958   1.878  29.049   4.781
68428W        W29959   6.915  22.527   0.349
68429W        W29960  10.213  25.174  14.923
68430W        W29961   3.443  36.992   4.344
68431W        W29962  39.937  22.682  14.975
68432W        W29963  12.330  26.502   2.736
68433W        W29964  26.580  34.928  14.457
68434W        W29965  31.057  17.101   3.312
68435W        W29966   5.269   0.902  12.540
68436W        W29967  24.230  31.153  12.870
68437W        W29968  30.011   3.242   3.782
68438W        W29969  35.516  38.413  10.631
68439W        W29970  29.961  24.151  13.928
68440W        W29971  12.792  28.953   2.767
68441W        W29972   1.295  24.548   1.417
68442W        W29973  38.560  36.081  10.965
68443W        W29974  20.173  12.124  12.422
68444W        W29975  27.082  19.713   4.284
68445W        W29976  25.018  30.599   1.253
68446W        W29977  30.915  16.199   2.262
68447W        W29978  13.174  35.424   4.261
68448W        W29979   7.864   6.341  10.890
68449W        W29980   3.340   0.359  13.980
68450W        W29981  35.563  10.675   4.602
68451W        W29982  20.191  43.844   3.661
68452W        W29983   3.331  11.221   2.725
68453W        W29984   5.901  30.555  12.427
68454W        W29985   3.371  26.611   3.209
68455W        W29986  28.004  34.931   0.404
68456W        W29987  28.014  31.546  11.083
68457W        W29988  16.198  32.634   0.321
68458W        W29989   0.438  19.664  13.046
68459W        W29990  30.592   8.361   3.836
68460W        W29991  40.394  16.214   1.446
68461W        W29992  33.960  18.159   9.933
68462W        W29993  26.056   3.724  13.423
68463W        W29994  40.318  30.957   2.374
68464W        W29995  44.497  16.600  14.932
68465W        W29996  18.610  17.150   3.179
68466W        W29997  34.457  21.758  10.557
68467W        W29998  18.164  29.990  12.897
68468W        W29999  14.692  29.925  12.019
68469W        W30000   0.769  11.758  10.447
68470W        W30001  32.921  20.621   1.900
68471W        W30002  40.435  29.496   4.774
68472W        W30003  33.567  37.423   2.663
68473W        W30004  44.916  39.532   4.189
68474W        W30005  33.478   0.351  10.079
68475W        W30006   3.858  20.625  14.785
68476W        W30007  14.824  20.746  11.595
68477W        W30008  23.053   3.811   3.290
68478W        W30009   7.898  14.646   0.824
68479W        W30010  33.532  15.289   5.154
68480W        W30011  21.635  14.762   3.170
68481W        W30012  44.799  11.743   1.381
68482W        W30013  33.424  21.260  10.059
68483W        W30014  12.229  34.982   2.669
68484W        W30015   2.436  22.074   3.258
68485W        W30016  29.466   8.401   0.758
68486W        W30017  13.122  20.686  14.380
68487W        W30018   3.216   3.729  12.920
68488W        W30019  28.450  12.288   5.259
68489W        W30020  40.979  31.929  12.513
68490W        W30021   4.426  32.090  12.033
68491W        W30022  20.593  24.675   1.243
68492W        W30023   4.838  26.525  10.458
68493W        W30024  17.088  32.519  14.486
68494W        W30025  37.946   9.663   3.806
68495W        W30026  25.667  26.669  12.914
68496W        W30027  14.154  28.096   1.424
68497W        W30028   7.808  43.414  13.010
68498W        W30029  38.875  41.403   3.315
68499W        W30030  35.905   5.731   3.149
68500W        W30031   6.877  26.615  12.884
68501W        W30032   4.302  38.898   4.207
68502W        W30033  20.756   9.875  11.084
68503W        W30034  36.936  28.541  14.819
68504W        W30035  38.500  36.857  10.058
68505W        W30036   2.947  23.049   5.088
68506W        W30037  44.949   9.355   1.370
68507W        W30038  35.503  28.054  12.496
68508W        W30039  23.591  37.831  14.430
68509W        W30040  40.048   4.933   1.846
68510W        W30041  36.928  37.993  13.539
68511W        W30042  13.838  15.105   3.302
68512W        W30043  16.581   4.915  10.896
68513W        W30044  23.632  34.038   0.960
68514W        W30045  40.473   8.252  13.880
68515W        W30046  31.951  37.845   5.143
68516W        W30047  25.631  41.893   1.442
68517W        W30048  24.515  24.671   0.269
68518W        W30049  32.575   2.921  12.856
68519W        W30050  28.978  19.678  13.532
68520W        W30051  21.100  34.567  13.799
68521W        W30052  25.131   2.768   3.275
68522W        W30053   1.741  12.334  14.468
68523W        W30054  35.582   4.345   1.918
68524W        W30055  38.458  31.437  14.276
68525W        W30056  26.027  25.488   4.166
68526W        W30057  25.012  15.614  13.945
68527W        W30058  19.131  22.529  14.426
68528W        W30059  29.067   9.841  10.475
68529W        W30060  35.867   2.766  12.056
68530W        W30061  29.940  40.468  12.487
68531W        W30062  11.298  18.789  12.347
68532W        W30063  33.921  34.910   4.274
68533W        W30064   6.229  41.525  11.403
68534W        W30065  14.108  16.722  13.952
68535W        W30066  38.883  41.809   3.317
68536W        W30067  31.563  37.051   0.305
68537W        W30068  31.641  29.595  14.485
68538W        W30069  30.999  41.342  14.026
68539W        W30070  24.542   3.739   2.703
68540W        W30071  39.456  37.563  14.493
68541W        W30072  36.003  37.084   3.316
68542W        W30073  34.938   3.732   4.674
68543W        W30074  39.022  24.130   4.778
68544W        W30075  24.988  12.349   2.219
68545W        W30076  10.747  37.444   2.806
68546W        W30077  15.288  32.005  14.028
68547W        W30078  12.216  35.055  11.991
68548W        W30079  41.925  43.412  13.906
68549W        W30080  30.493  20.726   3.158
68550W        W30081   0.404  44.286  13.364
68551W        W30082  26.027  21.209   4.763
68552W        W30083   3.759  15.745  10.445
68553W        W30084  15.603  31.906  12.445
68554W        W30085  12.319  15.709  10.074
68555W        W30086  11.814  44.267  14.371
68556W        W30087   5.200  41.041   2.238
68557W        W30088  23.624   4.780   4.613
68558W        W30089   9.247  27.168   1.405
68559W        W30090  10.841  11.722  11.921
68560W        W30091  39.552  10.239   3.731
68561W        W30092  29.604  16.182  11.450
68562W        W30093   3.832  23.503   2.205
68563W        W30094  27.996  37.387  14.791
68564W        W30095  15.732  33.003  13.956
68565W        W30096   6.833  24.997   1.265
68566W        W30097  38.505   5.853   0.815
68567W        W30098   1.473  35.866   1.714
68568W        W30099  34.470   8.724  11.507
68569W        W30100  30.456  18.681  13.878
68570W        W30101  41.493  12.122  12.038
68571W        W30102  15.725  18.051   2.791
68572W        W30103  22.008  23.129  11.855
68573W        W30104  15.790  25.500   3.762
68574W        W30105  11.254  25.182   3.658
68575W        W30106  25.494  39.061  13.806
68576W        W30107   7.805  12.726   0.371
68577W        W30108  12.180  27.480   1.716
68578W        W30109  12.712  11.331   2.880
68579W        W30110  22.636  33.011  12.532
68580W        W30111  12.618  26.611  14.985
68581W        W30112  32.405  27.550   1.908
68582W        W30113   5.925  26.629  11.968
68583W        W30114   0.986  15.236   2.333
68584W        W30115  28.051  13.760  12.951
68585W        W30116  19.704  34.549  11.448
68586W        W30117   4.291  16.589   4.647
68587W        W30118  18.071   1.918   3.312
68588W        W30119   3.895  26.475   1.773
68589W        W30120  12.675  22.205   2.784
68590W        W30121   5.885  36.955   0.784
68591W        W30122  41.894  10.190  11.592
68592W        W30123   4.285  22.728  11.468
68593W        W30124  42.862  36.891   4.716
68594W        W30125  20.659   4.396  13.050
68595W        W30126  41.824  36.409   3.744
68596W        W30127  32.584  19.746  14.022
68597W        W30128  17.206  33.448   4.163
68598W        W30129  21.735   2.876  11.542
68599W        W30130  23.181  29.927   0.875
68600W        W30131  40.892   0.779   1.873
68601W        W30132  31.639  38.836  11.476
68602W        W30133  23.719  22.209   1.779
68603W        W30134  43.365  10.747  12.448
68604W        W30135  35.487  27.592  11.903
68605W        W30136  28.050   3.231   3.159
68606W        W30137  41.950  13.348  11.041
68607W        W30138  39.327  42.012  10.442
68608W        W30139   1.304   9.372  13.465
68609W        W30140  24.030  12.179  11.075
68610W        W30141  38.863  35.049   4.292
68611W        W30142  19.235  15.702  12.885
68612W        W30143  40.976   7.823   2.771
68613W        W30144   2.331  41.933   4.152
68614W        W30145  13.182   0.802   4.149
68615W        W30146  38.023   9.848   0.869
68616W        W30147  43.418  11.824   4.166
68617W        W30148  33.505  33.891   2.868
68618W        W30149  10.230  17.234   2.784
68619W        W30150  12.694   7.200   2.399
68620W        W30151  41.513  17.666  14.399
68621W        W30152  24.723  14.611   1.255
68622W        W30153  38.938  24.515   1.403
68623W        W30154  33.626   4.861   1.761
68624W        W30155   4.292  41.333   4.732
68625W        W30156  10.204  32.539   0.901
68626W        W30157  31.472  41.955  13.422
68627W        W30158  13.661  24.195   3.382
68628W        W30159  34.918  10.266   0.853
68629W        W30160  27.499  32.102  11.579
68630W        W30161  19.617   9.839   4.732
68631W        W30162   7.253  42.357   4.600
68632W        W30163  20.523  17.703   2.253
68633W        W30164  30.535   5.822  11.855
68634W        W30165  29.593  34.399  12.051
68635W        W30166  14.221  16.304   1.388
68636W        W30167  28.627  21.256   4.789
68637W        W30168  14.755   9.688  12.575
68638W        W30169  35.059  34.935  10.998
68639W        W30170   5.197  21.661  10.636
68640W        W30171  36.003   1.365  14.003
68641W        W30172  43.373  43.860   0.861
68642W        W30173   4.711  10.304   5.198
68643W        W30174  35.041  14.696  14.350
68644W        W30175  35.378   6.287   3.270
68645W        W30176   0.791   8.159   1.332
68646W        W30177  15.691   3.398  11.124
68647W        W30178  34.907   6.327  11.084
68648W        W30179  37.867   0.826  11.583
68649W        W30180  14.799  35.556   3.216
68650W        W30181  37.950  20.236   4.350
68651W        W30182  41.984  30.010  14.903
68652W        W30183  41.902  23.691  13.921
68653W        W30184  18.246  12.713   0.333
68654W        W30185  10.147  16.799   4.752
68655W        W30186  34.443  32.935  12.412
68656W        W30187  16.269  12.632  13.006
68657W        W30188  23.687  27.116   1.223
68658W        W30189  21.070  12.281   0.894
68659W        W30190  10.817  27.522  13.378
68660W        W30191  19.228  17.653  11.983
68661W        W30192  35.361  30.103  11.498
68662W        W30193  26.007   4.404   0.429
68663W        W30194  44.918  33.899   2.227
68664W        W30195  13.608  40.939  12.376
68665W        W30196  39.538   9.287   3.225
68666W        W30197  37.060  43.329   2.813
68667W        W30198  44.348  38.408  11.019
68668W        W30199  11.733  24.638  14.331
68669W        W30200   4.875  40.532   1.845
68670W        W30201  13.731  31.562   2.726
68671W        W30202  18.234  12.312  12.834
68672W        W30203   6.226  17.274  13.829
68673W        W30204   9.149  33.039   4.230
68674W        W30205  40.443  16.191   3.384
68675W        W30206   1.280  28.540  11.082
68676W        W30207  29.508  30.073  13.042
68677W        W30208  14.238   8.343  11.436
68678W        W30209   9.763  22.168   1.751
68679W        W30210  36.865  32.894   2.419
68680W        W30211  16.572  28.958  11.453
68681W        W30212  38.845   8.391  12.536
68682W        W30213  44.464   7.693  13.329
68683W        W30214  37.982  34.384  10.978
68684W        W30215  43.831  19.222  10.471
68685W        W30216  31.581   3.926  14.516
68686W        W30217  40.859  33.940   2.898
68687W        W30218  30.538  39.498  13.528
68688W        W30219   7.287  16.229   0.792
68689W        W30220  35.594  27.102  11.117
68690W        W30221  38.367  43.008   3.323
68691W        W30222  31.972  40.817   4.352
68692W        W30223  28.493   9.378  14.788
68693W        W30224  33.412  10.658   4.748
68694W        W30225  13.269  12.804  11.041
68695W        W30226  33.430  24.636   1.722
68696W        W30227  23.587   8.748   3.306
68697W        W30228  24.059  32.502   0.888
68698W        W30229  43.774  33.481  12.491
68699W        W30230  22.169   2.760  10.641
68700W        W30231  29.525   6.853  13.048
68701W        W30232   6.739  42.484   2.662
68702W        W30233  40.010  29.633   2.358
68703W        W30234  26.528  33.948   2.404
68704W        W30235  34.434  37.902   2.678
68705W        W30236  10.741   4.893   0.381
68706W        W30237  11.811   9.369  10.592
68707W        W30238  37.510  23.649   4.316
68708W        W30239  15.163  13.778   1.271
68709W        W30240  39.042  37.554  10.990
68710W        W30241  40.020  35.927  14.371
68711W        W30242  38.937  10.229  12.000
68712W        W30243  33.468  41.909  10.590
68713W        W30244  40.350  24.059   0.769
68714W        W30245  21.124  14.340   3.725
68715W        W30246  23.697  41.878  14.366
68716W        W30247  21.171  21.133   1.858
68717W        W30248  44.473  20.697  13.524
68718W        W30249  31.951  34.503   3.631
68719W        W30250  19.581  20.598  13.882
68720W        W30251  32.599  18.569  13.858
68721W        W30252  26.636  44.351   0.483
68722W        W30253  24.672  14.669   1.855
68723W        W30254  43.872  21.150  10.645
68724W        W30255  36.862  16.773   3.735
68725W        W30256  14.136   8.738   4.740
68726W        W30257  43.874  31.643   1.314
68727W        W30258  43.309  11.698  12.479
68728W        W30259  10.262  21.571  11.082
68729W        W30260  33.004  41.008  14.912
68730W        W30261   8.899  18.134  11.428
68731W        W30262  36.514  32.120  10.053
68732W        W30263  25.711  31.933   1.258
68733W        W30264  31.557  44.814  13.037
68734W        W30265   5.374   2.427   2.303
68735W        W30266  36.968  26.119   2.362
68736W        W30267  37.380   3.263   3.747
68737W        W30268  21.185  37.927   5.119
68738W        W30269  24.115   4.804   2.273
68739W        W30270   5.804  11.660   2.271
68740W        W30271   6.726   0.305  12.893
68741W        W30272  14.607  39.553   2.815
68742W        W30273  19.266   0.381  11.396
68743W        W30274  22.552   8.206   0.798
68744W        W30275  34.452   3.261  13.848
68745W        W30276   6.906  25.008  14.781
68746W        W30277  35.436  19.267   2.759
68747W        W30278   9.766  21.596   4.203
68748W        W30279  32.620  44.827  14.844
68749W        W30280  27.448  40.905   3.816
68750W        W30281  31.561   1.791   0.843
68751W        W30282  39.065  13.725  14.006
68752W        W30283   8.857  24.674  14.291
68753W        W30284  35.488  17.777   4.315
68754W        W30285  35.006  39.467   1.724
68755W        W30286   1.474  22.627   0.400
68756W        W30287   2.833  27.528   1.871
68757W        W30288  43.963  37.086  12.999
68758W        W30289  14.806   9.154   1.790
68759W        W30290  23.574  30.114   3.185
68760W        W30291   4.331  42.426   1.212
68761W        W30292  39.423  30.929  14.961
68762W        W30293  43.933   5.719   1.708
68763W        W30294   3.292  10.363   5.310
68764W        W30295  36.372  37.494   2.715
68765W        W30296  12.156  27.976   1.327
68766W        W30297  20.095  38.400  12.912
68767W        W30298   2.777  17.616  12.349
68768W        W30299   9.762  43.481   2.255
68769W        W30300  43.866  43.934  13.379
68770W        W30301  34.401  15.625  14.508
68771W        W30302   1.443   7.727   2.215
68772W        W30303  40.502  35.447  13.447
68773W        W30304  24.681   5.344   3.249
68774W        W30305  26.555  15.225  11.571
68775W        W30306  33.510  20.546  13.504
68776W        W30307  15.172  14.800  11.097
68777W        W30308  31.540  32.425   4.618
68778W        W30309  10.683   6.182  12.011
68779W        W30310  24.042   2.809  12.902
68780W        W30311  19.764   1.915  13.483
68781W        W30312  39.437  10.680   3.636
68782W        W30313   4.753  40.868   0.425
68783W        W30314   3.816  24.152   3.279
68784W        W30315  40.323  36.858   1.833
68785W        W30316  36.484  21.608  11.079
68786W        W30317   1.279   9.791   1.803
68787W        W30318   4.250  44.755   4.818
68788W        W30319  37.902  25.993  10.937
68789W        W30320  11.782  18.144  12.354
68790W        W30321  19.048  39.555  11.115
68791W        W30322  30.076  20.109   1.773
68792W        W30323  29.524   7.178  13.831
68793W        W30324  25.702  25.169   0.301
68794W        W30325  19.582  23.168   3.759
68795W        W30326  20.118  35.864   5.220
68796W        W30327  33.014  27.454   3.857
68797W        W30328   1.445  17.778  10.518
68798W        W30329  22.162  36.898  11.984
68799W        W30330  26.606  23.726  13.033
68800W        W30331  19.241  43.455   3.794
68801W        W30332   2.367  36.983  11.103
68802W        W30333   8.168  20.116  11.919
68803W        W30334  12.354  39.914  12.919
68804W        W30335  17.063  24.518   3.363
68805W        W30336  43.433  24.105   0.965
68806W        W30337  34.428  28.606  12.904
68807W        W30338  39.915  33.894  14.502
68808W        W30339  15.314  35.533  14.319
68809W        W30340  42.441  15.799   2.813
68810W        W30341  32.986   3.298  11.121
68811W        W30342  23.231  23.149   2.822
68812W        W30343  11.361  25.472   0.356
68813W        W30344  13.185  34.603   4.259
68814W        W30345  28.967  32.432   4.761
68815W        W30346  23.669  14.320   0.334
68816W        W30347   7.384  10.383  13.027
68817W        W30348   9.679  12.274  13.319
68818W        W30349  18.245  32.405   2.727
68819W        W30350   3.443   7.372  14.010
68820W        W30351  18.670  12.296  12.019
68821W        W30352  36.430  36.423  12.568
68822W        W30353   2.308  40.527  10.958
68823W        W30354  38.379   8.236   0.832
68824W        W30355  14.684   5.356  10.422
68825W        W30356   6.797  12.146   4.657
68826W        W30357  16.266  11.175  12.967
68827W        W30358  14.321   7.769   4.285
68828W        W30359  20.611   0.249   1.399
68829W        W30360  33.560  30.142   4.136
68830W        W30361   6.683  27.640   3.293
68831W        W30362  14.790  24.053   2.777
68832W        W30363  18.066  36.922  11.456
68833W        W30364   5.344   2.860  14.322
68834W        W30365  33.054  31.962  10.618
68835W        W30366  18.675  30.979   4.828
68836W        W30367  36.472  37.903  11.591
68837W        W30368  40.876  24.691   1.441
68838W        W30369   0.253   0.285   4.118
68839W        W30370  24.975  11.699  11.948
68840W        W30371   6.819  37.949  11.112
68841W        W30372  11.633  24.708  12.045
68842W        W30373   4.402   5.346   4.201
68843W        W30374  43.002  39.848   2.769
68844W        W30375  18.152  30.939   4.177
68845W        W30376   2.906  42.939   3.678
68846W        W30377  25.011  11.197  13.886
68847W        W30378   5.333  35.552   2.318
68848W        W30379  12.820  42.790  14.386
68849W        W30380  37.943  42.982   1.226
68850W        W30381   0.461  25.093   1.875
68851W        W30382  18.574   2.910  11.540
68852W        W30383  20.207  20.111  14.296
68853W        W30384  21.155  44.351  12.038
68854W        W30385  37.087  19.649   2.181
68855W        W30386  38.390  29.065   3.736
68856W        W30387  27.020  40.394   2.304
68857W        W30388  17.604  33.978  10.897
68858W        W30389  29.979   6.187   3.376
68859W        W30390  33.998  14.291   5.304
68860W        W30391  23.126   7.205   1.845
68861W        W30392  23.171  25.626   4.754
68862W        W30393  40.499   6.302  10.475
68863W        W30394  20.721  22.719   3.256
68864W        W30395  33.517  25.649   3.182
68865W        W30396  42.894  42.775   1.714
68866W        W30397  28.471  15.124   3.752
68867W        W30398  42.305  35.383  11.408
68868W        W30399  35.984  13.298   0.258
68869W        W30400  40.833  30.465  11.035
68870W        W30401  35.362  13.633  14.990
68871W        W30402   1.382  37.525   2.774
68872W        W30403  41.037  42.380   4.703
68873W        W30404  32.034  33.580  14.788
68874W        W30405  15.630  33.398   0.441
68875W        W30406  28.976  10.758  14.763
68876W        W30407  44.910  40.050  14.760
68877W        W30408   9.365  21.192   0.931
68878W        W30409  41.896  25.124   5.176
68879W        W30410  10.184  10.251   4.831
68880W        W30411  17.787  39.352  14.368
68881W        W30412  26.648  38.458   0.862
68882W        W30413   4.812  18.587  12.933
68883W        W30414  38.487   1.848  13.837
68884W        W30415  44.466  17.561  12.942
68885W        W30416   5.257  26.045   2.210
68886W        W30417  41.013   2.255  11.038
68887W        W30418  27.572   6.757  11.593
68888W        W30419  35.891   9.296  11.008
68889W        W30420  33.586  20.596   2.761
68890W        W30421  16.683  26.119  10.502
68891W        W30422  24.218  29.446   2.338
68892W        W30423  28.035  14.189   0.850
68893W        W30424  42.343  26.993  14.995
68894W        W30425  34.939  29.174   0.346
68895W        W30426  18.601  10.271  10.583
68896W        W30427  15.089   9.346   3.178
68897W        W30428  25.124  26.482  14.879
68898W        W30429  36.537  20.752  13.794
68899W        W30430  43.902  22.112  12.521
68900W        W30431   4.364  27.091   3.246
68901W        W30432  43.491  22.088   0.952
68902W        W30433  20.753  34.470   2.756
68903W        W30434  33.875  43.503  14.974
68904W        W30435  22.540  29.665   1.733
68905W        W30436  20.180  27.624   3.327
68906W        W30437   6.275  21.552  13.981
68907W        W30438  12.820   8.287  13.487
68908W        W30439  31.923   8.210  11.982
68909W        W30440  43.309  14.614   2.201
68910W        W30441   4.319  16.216   2.885
68911W        W30442  40.981   4.943  11.602
68912W        W30443  18.645   7.763  14.021
68913W        W30444  25.081  38.474  13.378
68914W        W30445   5.799  25.030   1.421
68915W        W30446   8.182  11.148   2.699
68916W        W30447  32.421   7.718  13.434
68917W        W30448   4.225   3.730   4.236
68918W        W30449   2.834  30.564   0.348
68919W        W30450  27.174  37.449   0.450
68920W        W30451  33.051  15.276  13.928
68921W        W30452  12.276   1.420   5.272
68922W        W30453  41.032  12.655   0.894
68923W        W30454  26.191  14.647   0.816
68924W        W30455  17.298  36.896  11.440
68925W        W30456   8.274  36.487  13.506
68926W        W30457  43.487  26.957   0.735
68927W        W30458  36.537  15.115  14.997
68928W        W30459  22.512  23.552  14.425
68929W        W30460   1.362  28.020  11.862
68930W        W30461  15.192  24.179  11.568
68931W        W30462  17.232  26.458  12.480
68932W        W30463   2.442  27.573   1.768
68933W        W30464  20.106  34.866  10.949
68934W        W30465  43.852  32.008   2.771
68935W        W30466   2.722  17.632   2.736
68936W        W30467  27.450  28.079  11.086
68937W        W30468  35.495  27.064  14.839
68938W        W30469  40.367  26.486  11.947
68939W        W30470  14.196  27.001  12.874
68940W        W30471  30.596   3.837   4.721
68941W        W30472   2.414  11.729   1.818
68942W        W30473   3.350  32.977  13.992
68943W        W30474  42.823  30.458  13.462
68944W        W30475  16.258  11.130  11.491
68945W        W30476  10.704  23.100  13.432
68946W        W30477   6.679  44.436  12.468
68947W        W30478  40.926  29.078   3.251
68948W        W30479   2.898   9.871  12.985
68949W        W30480  17.787  19.578  12.355
68950W        W30481   1.478   5.747  11.541
68951W        W30482  36.912  17.670   3.762
68952W        W30483   5.829  37.481   2.757
68953W        W30484  39.505  41.356   3.741
68954W        W30485   4.275  30.431  12.350
68955W        W30486  10.183  16.232  14.031
68956W        W30487  33.997  28.550  13.327
68957W        W30488  30.657  36.546   1.762
68958W        W30489  37.372  27.192  12.530
68959W        W30490  31.634  26.481   0.438
68960W        W30491  24.120  12.763   9.981
68961W        W30492  44.997  21.747   2.273
68962W        W30493  36.389   4.371   2.669
68963W        W30494  43.931  38.066  12.487
68964W        W30495  36.900  34.865   0.300
68965W        W30496  23.727  25.994  13.358
68966W        W30497  10.738  42.858   4.214
68967W        W30498  31.609  18.153  11.025
68968W        W30499  35.897  11.164   4.642
68969W        W30500  41.959  27.094   2.235
68970W        W30501  32.991   1.271   0.893
68971W        W30502  21.636  26.075  13.398
68972W        W30503  37.034  23.580  10.611
68973W        W30504  23.619   3.260  14.311
68974W        W30505  24.509  23.566  12.447
68975W        W30506  27.141  24.091  13.542
68976W        W30507  44.294  38.932  11.990
68977W        W30508   5.289  36.346  13.384
68978W        W30509  17.753  15.696  10.932
68979W        W30510  20.224  30.602  13.933
68980W        W30511  21.695  44.804   3.169
68981W        W30512  28.548   5.818  10.942
68982W        W30513  31.503   4.295   4.232
68983W        W30514  40.491  39.491  14.480
68984W        W30515  22.612  36.001  12.575
68985W        W30516  24.090  19.747  12.835
68986W        W30517   4.209   2.317  11.920
68987W        W30518   2.330   7.381   9.932
68988W        W30519  36.565  18.584  10.961
68989W        W30520   8.779  11.231  14.888
68990W        W30521  11.739   1.467   1.355
68991W        W30522  35.889  19.161   4.244
68992W        W30523  39.482  37.845   1.357
68993W        W30524  20.076  13.660   3.265
68994W        W30525  19.701  33.089   4.273
68995W        W30526   8.255   5.723  12.893
68996W        W30527  40.845  16.760  13.455
68997W        W30528   1.372  16.092  14.013
68998W        W30529  18.276  14.794   2.208
68999W        W30530   5.296  43.300   0.480
69000W        W30531  22.146   1.425  14.288
69001W        W30532  13.139  16.134   1.717
69002W        W30533  31.560  26.966   1.723
69003W        W30534  39.024  28.452  14.450
69004W        W30535  20.053  38.025  12.571
69005W        W30536  39.913  39.417   1.321
69006W        W30537  26.571  10.677  13.897
69007W        W30538  31.448   3.732   3.334
69008W        W30539  32.580  34.557  14.370
69009W        W30540  35.507  31.039  12.381
69010W        W30541   6.187  39.541   0.452
69011W        W30542  18.701  32.943  11.419
69012W        W30543  44.990   7.728  11.031
69013W        W30544   3.401   9.646  10.462
69014W        W30545  33.412   0.798   4.645
69015W        W30546  28.644  24.596   0.287
69016W        W30547  11.704   2.464   3.195
69017W        W30548  26.954  28.493   0.437
69018W        W30549  11.804  41.509   1.448
69019W        W30550  13.339  17.590   2.725
69020W        W30551  28.942  27.139   2.712
69021W        W30552  25.216  18.760   4.223
69022W        W30553  16.184  43.368  10.592
69023W        W30554  17.221  21.159   4.736
69024W        W30555  22.509  34.932  12.565
69025W        W30556  13.223  35.024   2.836
69026W        W30557  17.260  16.243  12.529
69027W        W30558  32.945  36.443  10.908
69028W        W30559  30.151  40.536  12.985
69029W        W30560  23.729  16.734   3.312
69030W        W30561  44.262  35.457  13.017
69031W        W30562   9.723  34.986   2.737
69032W        W30563  35.432  30.503  10.893
69033W        W30564   4.276  41.894  13.945
69034W        W30565  28.022   3.800  10.463
69035W        W30566  11.728   1.351   4.155
69036W        W30567  25.484  27.080   2.899
69037W        W30568  19.698  11.731  12.058
69038W        W30569  39.030   2.248   3.730
69039W        W30570  19.737  38.455  13.935
69040W        W30571  31.551   4.758  14.367
69041W        W30572   6.271  14.699   1.406
69042W        W30573  14.724  26.200  11.383
69043W        W30574  26.518  37.908  10.932
69044W        W30575  14.261  20.170  10.974
69045W        W30576  25.069  35.381  11.926
69046W        W30577  28.148  39.063   5.199
69047W        W30578  24.032  41.348  14.357
69048W        W30579   8.779  20.586   2.724
69049W        W30580  40.316  16.592  10.424
69050W        W30581  10.754   7.375  10.542
69051W        W30582  12.741   4.339   1.421
69052W        W30583   6.208  39.985   4.156
69053W        W30584  20.072  13.766  14.907
69054W        W30585  33.944  24.666   1.362
69055W        W30586  29.593  14.829  12.831
69056W        W30587  36.416   1.807  10.906
69057W        W30588  36.363  22.200  11.888
69058W        W30589   5.210  16.100   2.817
69059W        W30590   3.217  14.681   2.795
69060W        W30591   2.817   2.463  12.052
69061W        W30592  13.198  34.585   4.620
69062W        W30593   8.304   6.684  13.536
69063W        W30594   4.910  38.960   2.767
69064W        W30595  18.256  10.657  10.600
69065W        W30596   0.437   2.246   1.361
69066W        W30597  14.779  14.673   3.235
69067W        W30598  35.109  32.957  12.863
69068W        W30599  33.003  13.319  14.995
69069W        W30600  39.972  16.644  14.994
69070W        W30601  35.920  27.534  11.559
69071W        W30602  42.033  25.189  11.900
69072W        W30603  20.717   9.766  13.354
69073W        W30604   6.387   2.451   4.150
69074W        W30605  25.641  20.238   2.205
69075W        W30606   4.713  31.630   0.440
69076W        W30607  37.483  18.749  12.404
69077W        W30608  36.463  11.858   2.714
69078W        W30609  24.609  15.790  13.971
69079W        W30610  17.712  43.504   4.126
69080W        W30611  30.632   9.832   5.156
69081W        W30612  35.547  21.245   3.741
69082W        W30613  31.989  34.419   3.281
69083W        W30614  24.179  37.440  10.903
69084W        W30615  34.043   0.816   3.308
69085W        W30616  39.549   3.867   3.711
69086W        W30617  20.583  24.004   5.306
69087W        W30618  43.407  26.601   0.303
69088W        W30619  12.343   7.770   4.625
69089W        W30620  41.449  25.075   4.322
69090W        W30621  20.698   4.418  13.942
69091W        W30622  41.799  26.169  10.520
69092W        W30623  37.959  41.793   0.835
69093W        W30624   4.404   3.430   5.146
69094W        W30625  26.993  20.247   3.215
69095W        W30626   0.816  26.976  14.971
69096W        W30627   7.716  43.807   0.780
69097W        W30628  32.557  30.107  13.023
69098W        W30629  10.653  41.393  11.400
69099W        W30630   8.230  20.651  11.584
69100W        W30631  44.912  25.653  13.412
69101W        W30632  38.978  35.078   4.765
69102W        W30633  11.822  10.732   0.836
69103W        W30634  12.852  25.985  12.345
69104W        W30635  33.089  42.289   2.851
69105W        W30636   6.313  23.099   3.231
69106W        W30637  40.327   5.339  10.899
69107W        W30638  31.901  14.727   0.439
69108W        W30639  19.577  37.895   2.865
69109W        W30640  43.801  39.364   1.813
69110W        W30641   4.717  20.077   0.748
69111W        W30642  36.986  22.135  13.315
69112W        W30643   3.243   0.336   3.206
69113W        W30644  33.603  24.993   4.275
69114W        W30645  42.353  14.795  14.291
69115W        W30646  38.565  34.909  14.450
69116W        W30647  13.720  18.175   0.373
69117W        W30648   9.746  15.247   3.336
69118W        W30649  21.154  37.006   5.593
69119W        W30650  18.160  26.500  12.456
69120W        W30651  41.476  42.959   0.934
69121W        W30652  20.653  43.388   2.183
69122W        W30653  18.134  12.217  14.384
69123W        W30654  17.781   2.282  14.868
69124W        W30655  32.894   6.733   1.717
69125W        W30656   0.317  13.117   3.697
69126W        W30657   4.443  12.834   2.751
69127W        W30658  17.243   7.250  11.464
69128W        W30659  20.579  21.540   3.337
69129W        W30660  31.627  33.408  13.794
69130W        W30661  10.855  10.206   0.902
69131W        W30662  10.172  41.392   9.961
69132W        W30663  10.237  29.918  12.833
69133W        W30664  44.454  17.800  14.458
69134W        W30665   1.456  20.034  14.969
69135W        W30666  39.441   7.410  13.349
69136W        W30667  20.600  29.529  10.468
69137W        W30668  19.552  37.041   4.323
69138W        W30669  17.690  27.173   1.934
69139W        W30670   5.261  34.384  14.480
69140W        W30671  36.540  10.776   0.845
69141W        W30672  17.802   0.892  12.874
69142W        W30673  18.693  32.604   2.262
69143W        W30674  14.158  32.959   2.270
69144W        W30675  23.223  40.933   4.134
69145W        W30676   4.812  21.552   2.265
69146W        W30677  12.303  35.881   2.324
69147W        W30678  28.501  23.658   1.909
69148W        W30679  36.044  18.768   3.773
69149W        W30680   5.802   9.807  13.417
69150W        W30681  39.391   1.841  13.994
69151W        W30682  21.021  34.518  14.841
69152W        W30683   1.737  26.542  11.032
69153W        W30684   8.783  26.965   2.721
69154W        W30685  40.461   1.467   2.281
69155W        W30686   5.436  41.456  14.449
69156W        W30687  30.613  20.717  14.004
69157W        W30688  29.530  41.462  11.460
69158W        W30689  37.335   2.932   2.406
69159W        W30690   5.359  37.841   2.418
69160W        W30691   6.814  12.264  10.476
69161W        W30692  23.569  16.217   2.303
69162W        W30693  32.114  17.095  12.376
69163W        W30694  30.614  22.137  12.388
69164W        W30695  36.982   8.718  11.425
69165W        W30696  32.436  17.268  12.888
69166W        W30697  28.474  37.910  13.001
69167W        W30698   3.267  30.088  12.957
69168W        W30699  24.048  17.682   1.341
69169W        W30700  26.985  26.980  11.456
69170W        W30701  30.034  30.109  12.922
69171W        W30702  26.702   9.335   0.436
69172W        W30703   6.425  39.827  10.461
69173W        W30704   4.824  42.289   2.822
69174W        W30705  31.536  41.485   1.863
69175W        W30706  15.617  11.675  14.355
69176W        W30707   2.432  27.650   0.377
69177W        W30708  26.696  34.989  10.903
69178W        W30709  17.675   1.831  13.528
69179W        W30710  27.535   4.285   3.273
69180W        W30711  33.574  34.907   4.783
69181W        W30712  43.867  24.596  14.492
69182W        W30713  24.711   4.746  14.366
69183W        W30714   7.196  31.601   3.690
69184W        W30715  35.045  42.333   4.768
69185W        W30716   0.927  18.561  13.861
69186W        W30717   4.234  25.475  11.968
69187W        W30718  27.036  20.751  12.896
69188W        W30719  12.260  39.436   4.330
69189W        W30720   8.788  35.480  12.477
69190W        W30721  35.854  36.393   0.322
69191W        W30722  40.391  30.036  10.570
69192W        W30723  30.950  40.998   3.299
69193W        W30724  15.179  28.654   2.385
69194W        W30725   1.886  23.670   2.282
69195W        W30726   2.752   9.285  14.797
69196W        W30727  37.474  16.169   3.739
69197W        W30728  30.426  35.359  13.519
69198W        W30729   8.852  15.802   4.640
69199W        W30730   2.745   1.893   3.667
69200W        W30731   3.349  32.498   3.156
69201W        W30732  42.507  11.302   4.667
69202W        W30733   5.338  26.541   3.781
69203W        W30734  20.765  34.888  14.771
69204W        W30735  39.503  40.937   4.756
69205W        W30736  41.799   2.860   1.440
69206W        W30737   6.908   4.318  12.071
69207W        W30738  13.789  39.457  11.445
69208W        W30739  16.288  32.408  12.039
69209W        W30740   1.392  29.462  13.349
69210W        W30741  41.449  32.516   0.823
69211W        W30742  31.946  32.894   0.730
69212W        W30743  19.563  20.558  14.341
69213W        W30744  38.936  39.855  13.035
69214W        W30745  33.458  18.275   1.696
69215W        W30746  38.860  34.534   4.142
69216W        W30747   4.864  28.951   0.438
69217W        W30748  43.498  42.952   0.470
69218W        W30749   9.669  39.976   2.245
69219W        W30750   0.260  26.608  13.407
69220W        W30751  27.066  17.134   4.305
69221W        W30752  23.242  38.960   2.340
69222W        W30753  14.288  41.526   2.796
69223W        W30754  14.162  23.146   9.936
69224W        W30755  13.836  37.469   1.892
69225W        W30756  20.599   4.718   0.838
69226W        W30757  37.435  43.993  14.855
69227W        W30758  34.551  29.173  11.867
69228W        W30759  17.133   8.259  11.048
69229W        W30760  27.095  36.076   1.369
69230W        W30761  20.601   3.354   0.754
69231W        W30762   5.233  11.309  12.377
69232W        W30763  36.051  15.322   0.440
69233W        W30764  30.115  37.421   4.264
69234W        W30765  39.431  21.603   2.234
69235W        W30766  38.488  28.569   0.888
69236W        W30767  40.428   4.938   3.251
69237W        W30768  34.369  18.607  13.873
69238W        W30769  32.636  30.116   4.645
69239W        W30770   7.406  42.486  13.456
69240W        W30771  21.683  26.517   2.854
69241W        W30772   8.383  31.041  11.388
69242W        W30773  35.099  17.254   2.849
69243W        W30774   6.799   2.348   0.746
69244W        W30775   5.226  16.576   1.389
69245W        W30776  24.024   1.393  11.059
69246W        W30777   2.258  13.245  11.464
69247W        W30778  40.028  12.240  13.451
69248W        W30779   5.247  40.902   3.246
69249W        W30780  21.748  28.157  14.507
69250W        W30781  30.917  21.238   4.212
69251W        W30782  22.122  28.997   1.356
69252W        W30783  14.768  41.516   0.364
69253W        W30784  27.644  43.832   4.650
69254W        W30785  19.101  35.879   0.858
69255W        W30786  31.049  11.695  11.492
69256W        W30787  30.054  40.320   4.744
69257W        W30788  19.757  27.531   2.683
69258W        W30789   1.342   6.817   1.765
69259W        W30790  42.287  32.030   1.802
69260W        W30791  23.029  34.962  14.927
69261W        W30792  26.619  31.425   5.105
69262W        W30793  13.346   1.375   5.621
69263W        W30794   1.889  29.465  10.637
69264W        W30795  27.490  38.951  12.031
69265W        W30796  20.123  34.601   2.281
69266W        W30797   5.196   2.378   4.294
69267W        W30798  38.357  12.195  12.087
69268W        W30799  41.342  38.326   1.763
69269W        W30800   3.919  28.168  13.966
69270W        W30801   8.161  41.794   0.951
69271W        W30802  36.036  36.480   0.915
69272W        W30803  31.062   0.892  11.866
69273W        W30804   6.370   6.711   0.425
69274W        W30805  16.144  23.151  13.959
69275W        W30806   5.786  15.327   4.607
69276W        W30807  12.700  13.748   2.767
69277W        W30808  13.765  35.033   2.688
69278W        W30809  24.086  25.141   3.636
69279W        W30810  44.274  19.754   5.251
69280W        W30811   6.789  14.125  12.572
69281W        W30812  26.526  40.984  11.453
69282W        W30813  43.823  17.638  14.427
69283W        W30814  41.428   9.875  10.898
69284W        W30815  24.149  23.040   2.677
69285W        W30816  17.669  12.320   3.298
69286W        W30817  11.680  35.500   4.819
69287W        W30818  29.444  19.577   2.887
69288W        W30819  32.130  25.682  12.016
69289W        W30820   1.792  15.577   3.174
69290W        W30821  25.987   0.967  14.776
69291W        W30822   3.272  29.654  14.281
69292W        W30823  33.880  41.297  10.513
69293W        W30824  34.556  31.988   2.344
69294W        W30825  39.344  38.480  11.606
69295W        W30826   0.458  38.065   0.891
69296W        W30827   0.442  19.205  14.457
69297W        W30828  26.555   1.281   4.785
69298W        W30829   3.848  25.133  12.548
69299W        W30830  31.631  28.451   0.878
69300W        W30831  27.077  41.013   4.697
69301W        W30832  36.365  33.415   1.383
69302W        W30833  28.061  27.459  10.543
69303W        W30834  32.091  34.579  14.896
69304W        W30835   7.776  24.618  13.051
69305W        W30836  18.650  26.974   2.280
69306W        W30837  29.110  11.255  13.852
69307W        W30838  30.061  35.947  12.040
69308W        W30839  24.082  14.126  12.022
69309W        W30840  15.598  31.008   2.671
69310W        W30841   3.733  18.240  10.942
69311W        W30842  20.701  32.965   4.795
69312W        W30843  17.757   0.979   4.197
69313W        W30844  26.064  39.832   2.687
69314W        W30845  21.523  36.061   3.765
69315W        W30846  20.578   5.886   2.835
69316W        W30847  24.203   9.802  13.876
69317W        W30848   1.807  44.845  10.557
69318W        W30849  33.541  25.092  11.993
69319W        W30850  22.010  11.162  11.912
69320W        W30851  37.520  13.599  10.945
69321W        W30852  31.912  16.701   1.436
69322W        W30853   0.481  23.167  10.971
69323W        W30854  28.592  42.384   2.193
69324W        W30855  10.267  27.640   2.347
69325W        W30856  40.397  27.567   2.735
69326W        W30857  24.667  19.212   4.685
69327W        W30858  26.600  39.372   0.957
69328W        W30859   9.823  10.789  12.525
69329W        W30860  42.433   6.403  11.541
69330W        W30861  11.252  42.999   2.777
69331W        W30862   8.755   5.901  10.948
69332W        W30863   4.304  17.157  14.450
69333W        W30864  31.931  39.959  12.870
69334W        W30865  21.568  17.603   3.324
69335W        W30866  15.317   1.277  13.526
69336W        W30867  22.734  20.219   3.855
69337W        W30868  44.831  36.587   4.314
69338W        W30869  25.591  33.131   0.905
69339W        W30870  39.336  26.508  14.939
69340W        W30871   0.273   0.396   0.884
69341W        W30872  42.430  27.490   3.689
69342W        W30873  42.879  10.319  12.424
69343W        W30874  23.584  30.999  10.059
69344W        W30875  22.680   0.383  11.433
69345W        W30876  25.016   8.678   4.307
69346W        W30877  30.518  25.563   4.288
69347W        W30878  16.105  29.509   4.822
69348W        W30879   2.746  44.496  12.959
69349W        W30880   5.773  13.606  14.875
69350W        W30881  30.034   7.408  12.975
69351W        W30882  21.626  21.182   2.411
69352W        W30883  22.594  25.986  11.521
69353W        W30884  29.521  34.523   0.320
69354W        W30885  44.924   4.227   2.733
69355W        W30886  26.570  38.524   3.744
69356W        W30887  17.272  33.975   1.744
69357W        W30888  37.555  30.421  14.407
69358W        W30889  27.976  30.078  14.797
69359W        W30890  25.541   7.288   5.147
69360W        W30891  32.628   4.780   3.312
69361W        W30892  23.058  44.367  14.290
69362W        W30893   9.877  17.641  13.880
69363W        W30894  28.615  29.125  13.057
69364W        W30895   2.295  20.584  13.511
69365W        W30896  35.419  23.102   3.661
69366W        W30897  30.911  15.192  10.570
69367W        W30898   4.416  41.964   4.248
69368W        W30899  22.064  25.173  12.835
69369W        W30900  37.389  28.556  13.941
69370W        W30901  12.720  12.288  13.813
69371W        W30902  16.087  10.177   2.335
69372W        W30903   6.682  10.856  14.413
69373W        W30904  33.039   1.941   2.880
69374W        W30905  18.244  43.805  14.902
69375W        W30906  19.162  36.952  11.594
69376W        W30907   2.445   1.927   9.995
69377W        W30908  20.769   9.375   3.754
69378W        W30909   4.398   5.740   2.845
69379W        W30910   6.901  25.535  10.072
69380W        W30911   0.847   7.868   1.880
69381W        W30912  30.522   4.222   2.236
69382W        W30913  19.113   0.967   0.481
69383W        W30914  43.922  38.463  11.378
69384W        W30915   3.219  14.781   4.827
69385W        W30916  13.236  33.994   5.306
69386W        W30917  20.037  14.613  10.625
69387W        W30918  42.985  13.146  10.507
69388W        W30919   2.793  33.475   4.264
69389W        W30920  15.604  34.582   2.683
69390W        W30921  33.525  17.627   9.443
69391W        W30922  43.309   9.157   1.218
69392W        W30923  38.862   9.728  14.366
69393W        W30924  17.205  22.049  10.533
69394W        W30925  44.011   0.776   3.724
69395W        W30926  14.661  21.531  11.607
69396W        W30927  42.003  25.004   1.899
69397W        W30928  32.945  18.709   3.301
69398W        W30929  44.824   7.379   2.694
69399W        W30930  33.121  30.643  11.089
69400W        W30931   4.769  27.577  14.324
69401W        W30932  43.903   9.372   0.875
69402W        W30933  41.962  18.687  13.312
69403W        W30934   5.812  16.670   2.408
69404W        W30935  39.060  10.231   0.420
69405W        W30936  23.574  24.540  12.567
69406W        W30937  27.588  25.176  12.470
69407W        W30938  31.135  29.174  13.018
69408W        W30939  34.605   0.954   1.843
69409W        W30940  15.799  35.565  14.842
69410W        W30941   4.816   0.432   2.334
69411W        W30942  18.170  30.006  10.530
69412W        W30943  13.771  25.978  14.920
69413W        W30944   4.385  29.657  10.642
69414W        W30945  32.981   4.765  14.904
69415W        W30946  32.596  20.212   3.222
69416W        W30947  43.841   5.773  12.528
69417W        W30948  44.311  15.116  10.146
69418W        W30949  10.214  43.320  13.799
69419W        W30950  27.959   8.251  14.437
69420W        W30951  19.565  25.507  14.408
69421W        W30952  23.073  41.469  14.891
69422W        W30953  34.404  26.472  13.353
69423W        W30954  27.117  32.125  11.085
69424W        W30955  14.798  32.933   0.889
69425W        W30956  22.513   0.490   4.736
69426W        W30957  22.121  24.719  10.998
69427W        W30958  23.100  13.745  12.909
69428W        W30959  15.599  41.339   2.663
69429W        W30960  16.746   5.267   2.792
69430W        W30961  15.325  37.850   1.908
69431W        W30962   6.243  11.236   1.362
69432W        W30963  42.970  44.923  12.063
69433W        W30964  15.614  21.244   5.265
69434W        W30965  16.180  43.439  11.492
69435W        W30966  38.453  27.546   0.765
69436W        W30967   9.760   8.726  13.989
69437W        W30968  15.142  27.467  12.003
69438W        W30969  16.575  31.916  11.595
69439W        W30970  32.491  24.625   2.233
69440W        W30971   1.312  32.926  12.084
69441W        W30972   0.923  18.741  10.894
69442W        W30973  17.585  14.717   2.213
69443W        W30974   0.934  35.956   4.650
69444W        W30975  23.608  33.528  14.495
69445W        W30976   7.174  23.561   2.331
69446W        W30977  29.570  43.008  11.537
69447W        W30978  29.087  10.746  10.489
69448W        W30979  30.981  32.047   4.697
69449W        W30980  36.973  27.579   0.264
69450W        W30981   1.275  42.886   1.719
69451W        W30982  38.563   3.858   3.328
69452W        W30983  17.081  10.702   0.786
69453W        W30984  13.628  43.470  12.095
69454W        W30985  10.676   7.408  14.963
69455W        W30986  44.395  28.582   4.210
69456W        W30987  31.487   4.388  14.406
69457W        W30988  41.344   2.256   2.684
69458W        W30989  14.660   3.309   4.670
69459W        W30990  42.480  29.571   1.786
69460W        W30991  17.080  29.136   0.733
69461W        W30992  10.659  24.565  12.950
69462W        W30993  26.182  30.423   3.246
69463W        W30994  16.604  32.440  11.516
69464W        W30995  24.693  22.557   1.225
69465W        W30996  33.091  35.970  11.095
69466W        W30997  10.222  28.114   2.398
69467W        W30998  28.988  25.003  11.406
69468W        W30999  35.901  17.090  11.043
69469W        W31000  35.060   3.864   3.685
69470W        W31001  21.563  40.416   3.169
69471W        W31002  13.117  10.205  12.977
69472W        W31003   2.929  31.517  14.277
69473W        W31004  18.270   6.684  14.781
69474W        W31005  31.020  43.425   1.806
69475W        W31006  30.959  19.612   1.747
69476W        W31007  12.850  22.099   3.298
69477W        W31008  17.779  21.659  10.486
69478W        W31009  30.568  32.137   3.768
69479W        W31010  27.117  40.045   2.758
69480W        W31011  13.241  13.684  13.798
69481W        W31012  16.116  10.792   0.449
69482W        W31013   3.928  36.908  13.983
69483W        W31014  14.155  43.407  12.836
69484W        W31015  40.434  35.378   3.680
69485W        W31016   8.188   5.745  14.922
69486W        W31017  43.877  27.578  11.994
69487W        W31018  33.562   0.937  10.916
69488W        W31019   8.363  20.100   3.224
69489W        W31020  17.168  18.780   3.838
69490W        W31021  29.502  29.473  11.957
69491W        W31022  13.730  23.162   0.267
69492W        W31023   6.254  40.476   4.180
69493W        W31024   5.355  24.975  12.474
69494W        W31025  10.714   8.775   4.161
69495W        W31026  31.034  37.926   1.219
69496W        W31027  29.156  33.017  12.387
69497W        W31028   6.353  31.624   3.763
69498W        W31029  28.029  43.934  14.434
69499W        W31030  27.689  37.968  14.310
69500W        W31031   4.362  38.489  13.316
69501W        W31032  34.994   5.259   4.730
69502W        W31033  34.972   1.784  13.510
69503W        W31034  27.067  33.877   4.642
69504W        W31035  15.629   5.300  14.861
69505W        W31036   5.435   8.781  10.451
69506W        W31037   9.305  10.346  13.032
69507W        W31038   8.337  27.961  11.466
69508W        W31039   1.386  15.817   2.718
69509W        W31040  12.848  31.898  12.045
69510W        W31041  16.142  26.680   3.828
69511W        W31042   8.669  14.337   0.935
69512W        W31043  41.330   3.348  14.856
69513W        W31044  20.085  14.185   0.294
69514W        W31045  18.708  32.014  14.411
69515W        W31046  23.155  38.489   9.638
69516W        W31047   4.355  22.065  11.379
69517W        W31048  29.105  17.250  11.489
69518W        W31049   4.874  15.181   3.181
69519W        W31050  44.837  11.842   4.746
69520W        W31051  41.998  29.992  11.928
69521W        W31052  14.326  11.752   4.655
69522W        W31053  21.091  15.696   0.315
69523W        W31054  17.584   6.894  13.509
69524W        W31055  36.503   4.863   3.755
69525W        W31056  23.723  11.245   2.771
69526W        W31057  35.026  16.078  11.409
69527W        W31058  25.074  14.300  13.429
69528W        W31059  42.392  14.135  14.467
69529W        W31060   9.800  22.108   3.796
69530W        W31061  18.062  23.084   3.749
69531W        W31062  16.780   9.239   1.256
69532W        W31063   6.218  33.106   4.296
69533W        W31064  44.997  21.671  12.025
69534W        W31065  39.938  28.986  12.411
69535W        W31066  37.900  33.497  10.020
69536W        W31067  29.013  43.833  11.039
69537W        W31068   4.783  21.668   3.370
69538W        W31069  21.107  33.521   0.735
69539W        W31070   9.651   1.432   4.196
69540W        W31071  44.497  36.964   0.362
69541W        W31072   3.366  27.587   2.803
69542W        W31073  40.401   6.819   0.469
69543W        W31074  27.066  21.109  11.991
69544W        W31075  42.822  30.125  11.587
69545W        W31076  34.058  33.545  11.043
69546W        W31077   1.304  44.354  14.857
69547W        W31078  33.879  19.743   2.256
69548W        W31079  39.548  13.215   0.372
69549W        W31080  38.534  16.259  13.537
69550W        W31081  14.707  17.068  11.079
69551W        W31082  29.919   9.719   2.227
69552W        W31083  15.277   5.730   3.748
69553W        W31084  18.205   0.945   3.243
69554W        W31085  14.217  16.143  10.514
69555W        W31086  30.453  26.554  13.890
69556W        W31087  20.101  35.403  12.873
69557W        W31088  40.455   9.252  11.109
69558W        W31089  42.776  14.820   1.836
69559W        W31090  22.744   2.380   4.170
69560W        W31091  41.999   7.385   0.287
69561W        W31092   7.768  31.486   4.185
69562W        W31093   2.807  18.612   3.633
69563W        W31094   5.858  20.066   2.777
69564W        W31095   8.354   9.679   2.772
69565W        W31096   5.279  22.080   1.924
69566W        W31097  30.617  10.199   0.471
69567W        W31098  33.962  36.983   2.261
69568W        W31099  14.147   1.968  13.053
69569W        W31100  29.522  13.613  11.073
69570W        W31101  29.548  22.070  12.504
69571W        W31102   9.664  24.986  14.770
69572W        W31103  22.672  37.078  11.437
69573W        W31104   2.239  27.067   2.861
69574W        W31105  42.299   3.392   0.479
69575W        W31106  42.465  16.097  14.442
69576W        W31107  33.617  23.179   1.347
69577W        W31108  23.135  12.308   4.696
69578W        W31109  28.473  41.001   1.256
69579W        W31110  17.284  35.572  12.015
69580W        W31111  43.806  28.174  12.934
69581W        W31112  21.686  32.615  11.976
69582W        W31113   0.957   7.214  10.993
69583W        W31114  31.976  35.068  11.579
69584W        W31115  39.902  34.995  11.431
69585W        W31116  17.215  20.591  13.857
69586W        W31117  29.621  18.220  12.573
69587W        W31118  30.650  44.352  13.047
69588W        W31119  36.927  11.136  13.427
69589W        W31120  12.755   4.914   3.155
69590W        W31121  36.894  23.044   1.750
69591W        W31122  15.628   7.386  13.852
69592W        W31123  22.218  38.914   0.474
69593W        W31124  38.885  25.549  13.896
69594W        W31125  35.861  43.406   4.637
69595W        W31126  23.586   1.382  10.600
69596W        W31127  27.673  28.120   0.327
69597W        W31128  29.156  32.918   3.180
69598W        W31129  26.624  18.614  10.440
69599W        W31130   6.798  29.988  13.436
69600W        W31131  31.556   7.307   0.349
69601W        W31132  44.382   3.402   2.205
69602W        W31133  15.691   2.762  11.606
69603W        W31134  37.528  43.986  11.033
69604W        W31135  13.834  10.180  14.775
69605W        W31136  17.276  19.130  13.470
69606W        W31137  40.969  31.989   3.282
69607W        W31138  30.461   6.342  11.011
69608W        W31139  12.727  40.519  14.972
69609W        W31140  20.133   7.769   1.267
69610W        W31141   3.422  18.107  14.010
69611W        W31142  42.434   6.704  10.429
69612W        W31143   5.910  11.730   0.786
69613W        W31144  37.518  24.106   3.161
69614W        W31145  11.261  37.495  13.522
69615W        W31146   3.728   1.282  14.910
69616W        W31147  35.445  39.898   1.825
69617W        W31148   9.819   0.773   5.256
69618W        W31149  28.573  18.691  11.547
69619W        W31150  40.536  13.277   2.711
69620W        W31151   0.934  21.075   5.237
69621W        W31152  19.227  19.039   3.638
69622W        W31153   7.191   3.714   1.829
69623W        W31154  20.111  29.123  11.067
69624W        W31155  36.071  24.978   4.239
69625W        W31156  38.395   4.221   1.232
69626W        W31157  44.320  42.473   0.784
69627W        W31158  33.531  19.542   4.336
69628W        W31159  31.604  32.500  14.015
69629W        W31160   1.438  36.428   0.802
69630W        W31161  37.839  26.590  14.309
69631W        W31162   0.436  41.888   3.214
69632W        W31163  39.399  10.811   3.282
69633W        W31164  14.713  17.115  12.012
69634W        W31165  15.816  17.271  10.490
69635W        W31166  39.991  37.878  11.929
69636W        W31167   0.270  28.537   1.879
69637W        W31168  44.855   9.814  12.519
69638W        W31169  12.315  14.336   3.807
69639W        W31170  20.559   0.313  12.056
69640W        W31171  33.051  14.668   1.710
69641W        W31172   9.306  16.085  14.317
69642W        W31173  30.119  34.543   2.869
69643W        W31174  18.576  33.561   4.219
69644W        W31175  10.360   0.966   3.672
69645W        W31176  13.275  18.587   2.731
69646W        W31177  20.765  16.748  12.986
69647W        W31178  33.560  44.473   4.205
69648W        W31179  34.393  23.551   3.201
69649W        W31180  20.745  42.415   1.360
69650W        W31181  23.088  36.372   3.258
69651W        W31182   2.329  19.240  12.886
69652W        W31183  14.168  17.777  10.644
69653W        W31184  30.915  31.403   2.204
69654W        W31185  11.154  23.072   1.400
69655W        W31186  24.533  37.438  10.601
69656W        W31187   4.357   2.322   2.381
69657W        W31188  16.634  26.179   2.408
69658W        W31189  16.707  28.466   0.343
69659W        W31190  33.047  28.044  10.966
69660W        W31191  26.104  42.837   1.445
69661W        W31192  10.382   7.743  14.388
69662W        W31193  26.700   3.340  14.435
69663W        W31194  44.958  23.606   4.276
69664W        W31195  23.054   9.843   4.788
69665W        W31196  19.534  19.756  11.127
69666W        W31197  35.970  41.387  14.445
69667W        W31198  22.548  22.564   2.208
69668W        W31199  43.806  18.244  10.621
69669W        W31200  25.591  18.082   3.213
69670W        W31201   1.331  27.578   1.272
69671W        W31202  18.054  21.189   3.193
69672W        W31203  39.487   7.236  11.474
69673W        W31204  18.676  12.123   2.784
69674W        W31205   7.373  39.414  11.610
69675W        W31206  27.475  27.614  14.925
69676W        W31207   7.721  17.123   4.315
69677W        W31208  29.082  25.572   2.775
69678W        W31209  31.914   1.286  14.378
69679W        W31210   5.759  21.736  14.323
69680W        W31211  22.516  24.222   3.347
69681W        W31212  19.206  43.795  12.987
69682W        W31213  18.180  23.624  12.837
69683W        W31214  13.272  31.617  10.019
69684W        W31215  18.210   3.745   4.163
69685W        W31216  12.172   5.273  11.505
69686W        W31217  11.810  15.730  13.355
69687W        W31218  39.417  35.370   4.621
69688W        W31219  40.985  25.155  11.390
69689W        W31220  20.744   7.241  13.815
69690W        W31221  16.693   7.791  13.308
69691W        W31222   6.814  10.720   4.777
69692W        W31223  37.855   9.886   1.701
69693W        W31224  17.672  41.318  14.462
69694W        W31225  27.094  26.009  11.491
69695W        W31226   9.202  24.596   0.778
69696W        W31227  18.295  27.624  11.908
69697W        W31228  20.595   5.879  14.311
69698W        W31229  21.144  42.991  14.849
69699W        W31230  27.008   8.223   1.859
69700W        W31231  32.478  39.910  11.378
69701W        W31232   9.822   6.861   0.905
69702W        W31233  30.140  27.686  12.423
69703W        W31234  27.603  28.603  12.510
69704W        W31235  31.541  23.507   3.772
69705W        W31236  18.549  26.093  14.486
69706W        W31237   4.371  16.676   0.344
69707W        W31238  28.160  19.238   3.244
69708W        W31239   2.751  26.033   0.822
69709W        W31240  12.722  38.484   0.864
69710W        W31241  30.468  32.631   3.715
69711W        W31242  26.546  17.612   0.430
69712W        W31243  44.871   3.283  10.559
69713W        W31244  37.055  41.418   3.286
69714W        W31245  43.965  20.242   2.199
69715W        W31246  11.316  24.995  10.607
69716W        W31247   6.286  38.960   4.765
69717W        W31248   2.912   8.843  14.957
69718W        W31249  17.292  32.127   4.639
69719W        W31250  24.543  42.425   1.230
69720W        W31251  42.891  15.156  13.955
69721W        W31252  40.397   2.388   0.904
69722W        W31253  13.113   1.337  13.332
69723W        W31254   8.239  19.707  10.997
69724W        W31255   8.264   2.813   1.834
69725W        W31256  12.301  17.172   1.374
69726W        W31257  44.367  17.200  13.819
69727W        W31258   2.812  13.202  10.947
69728W        W31259  42.935  33.398  12.065
69729W        W31260  22.566  29.132  14.796
69730W        W31261  21.048   7.843  12.441
69731W        W31262  13.313   7.800   4.312
69732W        W31263  16.769  28.605   0.813
69733W        W31264  15.800  34.494   1.926
69734W        W31265  30.575  39.344   2.752
69735W        W31266  19.714  41.034   2.284
69736W        W31267   4.405   8.785  14.030
69737W        W31268  18.267   1.393  12.552
69738W        W31269  34.469  19.580   2.281
69739W        W31270  44.949   8.326   3.331
69740W        W31271  27.969  11.300   0.465
69741W        W31272  32.390  38.560   2.854
69742W        W31273  16.613  26.984  12.386
69743W        W31274  24.589   7.843   2.221
69744W        W31275   1.414  34.496  10.939
69745W        W31276  44.488  19.612   2.896
69746W        W31277  32.504  33.535   0.856
69747W        W31278  14.231  40.960   1.721
69748W        W31279  21.574  41.883  14.897
69749W        W31280  17.180  41.021   3.822
69750W        W31281   0.884  24.229  10.976
69751W        W31282  21.260  42.520  12.380
69752W        W31283   1.816   7.819  12.506
69753W        W31284  11.626  31.017  14.304
69754W        W31285   0.313  44.922  12.970
69755W        W31286  16.165  21.634   2.876
69756W        W31287   2.317  26.107  12.895
69757W        W31288  44.922  33.598   3.705
69758W        W31289  20.260  44.467  12.909
69759W        W31290  16.217  44.468   4.328
69760W        W31291   4.820  19.212   1.820
69761W        W31292  19.715  30.100   3.361
69762W        W31293  18.703  33.491  13.314
69763W        W31294   4.803  26.150   3.171
69764W        W31295  40.051  26.198   3.823
69765W        W31296  28.476   5.739   3.340
69766W        W31297  40.331  41.836   0.912
69767W        W31298  12.217  44.770   1.804
69768W        W31299   7.387  25.504   3.309
69769W        W31300  23.114   4.263  14.280
69770W        W31301   1.379  32.398  11.860
69771W        W31302  14.731  31.046   3.855
69772W        W31303  13.634  33.434   5.153
69773W        W31304   2.863  23.125   1.821
69774W        W31305  31.538   1.464   0.463
69775W        W31306  12.741  28.451   5.247
69776W        W31307   1.301  31.591   1.244
69777W        W31308   7.871  22.999  11.521
69778W        W31309   9.282  15.619  12.366
69779W        W31310  41.501  19.628  14.515
69780W        W31311  41.395  15.718  10.571
69781W        W31312  30.622   2.803   1.806
69782W        W31313  36.509  25.121   2.393
69783W        W31314  20.745  38.851  14.027
69784W        W31315  17.101   9.781   2.738
69785W        W31316  37.065  13.646   0.892
69786W        W31317   8.215   7.737  12.479
69787W        W31318  17.700  35.009   4.801
69788W        W31319  34.611  40.893   4.723
69789W        W31320  26.011   0.836  12.907
69790W        W31321   8.332  26.647   0.382
69791W        W31322  19.718   0.294   4.714
69792W        W31323  24.036  28.572   4.775
69793W        W31324  26.062  17.282  13.824
69794W        W31325   0.406   1.859  10.536
69795W        W31326  23.518  41.516  10.619
69796W        W31327  17.780  18.677  13.391
69797W        W31328  17.635  35.392   0.835
69798W        W31329  11.231  11.762  13.912
69799W        W31330  17.269  17.285  10.617
69800W        W31331  19.102   9.689   1.757
69801W        W31332   2.452  35.514   2.301
69802W        W31333  34.905   7.696   2.318
69803W        W31334   8.870  39.049   0.290
69804W        W31335  43.308  35.516  11.488
69805W        W31336   5.700  16.112  11.525
69806W        W31337  32.473   2.361   1.782
69807W        W31338  29.008  26.003  11.565
69808W        W31339  41.975  35.430   3.357
69809W        W31340   4.764   3.367  13.423
69810W        W31341  29.052  19.725  12.994
69811W        W31342   2.410   7.844   0.794
69812W        W31343  35.386   2.872  11.431
69813W        W31344   8.270  43.457  10.511
69814W        W31345  19.634   2.298  12.353
69815W        W31346  40.976  33.417  13.920
69816W        W31347  34.113   3.936   3.308
69817W        W31348  21.747  30.453  14.776
69818W        W31349  34.521  15.682   3.691
69819W        W31350  32.407  34.957  13.473
69820W        W31351  11.279  37.946  10.615
69821W        W31352  33.510  10.726  13.962
69822W        W31353  42.956  33.932   3.687
69823W        W31354  19.556  13.122  14.943
69824W        W31355  10.732  29.556   4.325
69825W        W31356   5.703  13.816   0.332
69826W        W31357  30.149  13.114  13.017
69827W        W31358  37.006   6.872   4.254
69828W        W31359  26.088  21.124  11.883
69829W        W31360   9.789  32.625   0.359
69830W        W31361  32.929  17.151   4.738
69831W        W31362  40.809  35.540   1.234
69832W        W31363   3.949  30.051  10.451
69833W        W31364  21.668   6.878   1.932
69834W        W31365  17.136  22.603  11.483
69835W        W31366  30.008  10.343   2.806
69836W        W31367  38.345   1.394  14.444
69837W        W31368  20.683  12.696   4.763
69838W        W31369   7.898  17.280  11.028
69839W        W31370  32.945   2.911  14.919
69840W        W31371  11.862  15.256  13.936
69841W        W31372  44.961  23.210  13.811
69842W        W31373   5.286  24.626   3.151
69843W        W31374  22.540  28.054  13.386
69844W        W31375   9.278  43.804  10.612
69845W        W31376   7.226  33.522   1.932
69846W        W31377  21.623  30.030  14.792
69847W        W31378   7.244  34.614  11.490
69848W        W31379  41.790   5.326   1.378
69849W        W31380  37.008  15.148  13.881
69850W        W31381   7.745  22.115   2.662
69851W        W31382  12.147   9.187   4.766
69852W        W31383  41.507  10.662  11.878
69853W        W31384   9.704  33.098  13.404
69854W        W31385  38.894  26.059  11.435
69855W        W31386  21.676  43.375  10.598
69856W        W31387  22.197  18.066  10.429
69857W        W31388  28.681  43.805  10.890
69858W        W31389   9.259  12.155   3.158
69859W        W31390  26.122  22.551   3.360
69860W        W31391  44.412  21.168   3.771
69861W        W31392  11.370  38.557   2.345
69862W        W31393  30.539  41.306  11.975
69863W        W31394  30.428  22.544   0.867
69864W        W31395  36.075  17.241   4.140
69865W        W31396  23.178  17.224  14.284
69866W        W31397  27.680  19.039   1.213
69867W        W31398  39.353  18.589   4.146
69868W        W31399  15.621  10.632  12.398
69869W        W31400  36.981   1.385  10.889
69870W        W31401  26.989  22.128   1.307
69871W        W31402  14.314  34.006  12.874
69872W        W31403  13.769  23.585  10.444
69873W        W31404  28.599  22.997  14.956
69874W        W31405  25.618  17.669  14.418
69875W        W31406   6.879  20.044   3.704
69876W        W31407   1.787  39.885  10.455
69877W        W31408  22.063  20.759  13.875
69878W        W31409   7.298  23.998   3.736
69879W        W31410  29.428  20.701  12.051
69880W        W31411  10.668  20.167   4.837
69881W        W31412  33.099  40.474   2.334
69882W        W31413  41.314  19.567  14.833
69883W        W31414   6.266  14.610  13.016
69884W        W31415  29.452  19.647   1.386
69885W        W31416  44.940  42.419  12.570
69886W        W31417  25.687  21.619  12.354
69887W        W31418  24.003  36.937   2.353
69888W        W31419  15.162  16.611  14.938
69889W        W31420   0.412  17.656   0.258
69890W        W31421  15.259  17.210  14.995
69891W        W31422  26.201  38.076   1.282
69892W        W31423  17.663   2.309  11.045
69893W        W31424   8.706  23.162  14.359
69894W        W31425   2.751  22.630   3.716
69895W        W31426  31.439  11.257   4.176
69896W        W31427   7.835   5.815   1.314
69897W        W31428  33.540  19.109  10.952
69898W        W31429  21.586  14.190  14.462
69899W        W31430  38.395  39.498  10.404
69900W        W31431  44.987  39.366   1.392
69901W        W31432  35.067   7.328   4.202
69902W        W31433  17.093  15.778  10.546
69903W        W31434   5.349  22.061  14.885
69904W        W31435   0.955   5.388  14.825
69905W        W31436  32.487  32.100  12.516
69906W        W31437   3.739  37.077   3.770
69907W        W31438  33.073   8.295  10.489
69908W        W31439   5.335  29.115   4.737
69909W        W31440   5.349  14.645  14.936
69910W        W31441  28.454  24.722   4.233
69911W        W31442  27.047  40.528  11.040
69912W        W31443  34.011  18.213  14.032
69913W        W31444  37.379  35.520   1.920
69914W        W31445  27.653  24.613   0.852
69915W        W31446  39.941  30.112  12.378
69916W        W31447  12.681  30.583   1.403
69917W        W31448  25.964  38.364  11.055
69918W        W31449  11.148  18.191   3.292
69919W        W31450  31.927  18.624  10.039
69920W        W31451   5.823  40.017  11.128
69921W        W31452  43.864  44.324   0.453
69922W        W31453  36.413  15.277  13.806
69923W        W31454  34.403   2.877  14.781
69924W        W31455  30.569  32.615   2.348
69925W        W31456  12.124  10.244   0.437
69926W        W31457  36.586  15.092  13.474
69927W        W31458  18.152  13.632  13.883
69928W        W31459  16.579  35.508  11.941
69929W        W31460   0.926  25.065   3.859
69930W        W31461  19.195  13.109  14.340
69931W        W31462  37.445   1.240  14.365
69932W        W31463  35.561  10.833  12.379
69933W        W31464  28.936  26.027   0.954
69934W        W31465  20.046  42.302  10.610
69935W        W31466  18.111  41.462   4.335
69936W        W31467  32.552  31.975   0.302
69937W        W31468   3.414  44.425   1.840
69938W        W31469  23.555  15.677  13.046
69939W        W31470  44.427  29.626   4.193
69940W        W31471   4.786  39.937  13.411
69941W        W31472  39.823  39.046   1.451
69942W        W31473   6.769   4.233  14.811
69943W        W31474  14.788  20.542  11.917
69944W        W31475  21.076   4.778  12.868
69945W        W31476  44.005  30.439   2.394
69946W        W31477  30.074  20.554  14.911
69947W        W31478  27.514  40.312  12.394
69948W        W31479   0.768  30.108   4.764
69949W        W31480  20.186  35.582  10.521
69950W        W31481  10.270  36.000   3.385
69951W        W31482  24.543  31.435  12.983
69952W        W31483  14.706  32.899   1.698
69953W        W31484   4.381  32.547  12.403
69954W        W31485  23.560  10.193   4.761
69955W        W31486  42.334  25.541   0.458
69956W        W31487   8.874  18.746   0.258
69957W        W31488  14.240   7.248  10.953
69958W        W31489  14.202  12.166  14.312
69959W        W31490  33.492  15.315   4.336
69960W        W31491  41.797  32.485  11.012
69961W        W31492  25.967   7.737   2.362
69962W        W31493  13.845   8.812  11.033
69963W        W31494  16.592  40.961  12.930
69964W        W31495   0.381  23.680  10.082
69965W        W31496  37.539   2.346   2.897
69966W        W31497   3.224  23.145   9.480
69967W        W31498   8.201   5.720   2.295
69968W        W31499  27.180   4.875  11.944
69969W        W31500  34.421  29.516  13.331
69970W        W31501  25.113  13.692  14.765
69971W        W31502  28.993  11.710   0.788
69972W        W31503   3.369  36.555  14.949
69973W        W31504   5.841  43.372  14.330
69974W        W31505   5.366  18.238  14.313
69975W        W31506  37.059  14.257  13.400
69976W        W31507  26.595  19.757   0.871
69977W        W31508  41.987  14.292   3.236
69978W        W31509  27.571  40.426  11.868
69979W        W31510   3.807  31.041  10.958
69980W        W31511  42.942  28.036  13.040
69981W        W31512  29.096  39.383   3.280
69982W        W31513  11.171  34.504  12.023
69983W        W31514   9.345  11.728   0.453
69984W        W31515  42.367  10.200  13.883
69985W        W31516  37.000   6.803  11.886
69986W        W31517  35.087  42.335  12.057
69987W        W31518  38.507  22.702   3.744
69988W        W31519   8.723  36.899  12.473
69989W        W31520  21.205  30.124   1.388
69990W        W31521  32.577  36.377   1.733
69991W        W31522  12.152  41.932  13.882
69992W        W31523   3.448  23.633   2.202
69993W        W31524  15.713  27.686   1.707
69994W        W31525   5.433  34.887   4.316
69995W        W31526  10.788  19.052  13.906
69996W        W31527  42.326  40.925  12.833
69997W        W31528   2.420  37.956  13.051
69998W        W31529   5.737  13.336  11.571
69999W        W31530  17.782  41.870  14.503
70000W        W31531  38.824  23.093  12.892
70001W        W31532  39.858  31.515  13.394
70002W        W31533  10.361  30.080  14.378
70003W        W31534  39.948  44.933   3.256
70004W        W31535  44.455  35.598   2.733
70005W        W31536  16.276  16.619  10.514
70006W        W31537  22.590  12.191   4.677
70007W        W31538  12.688  10.255  13.865
70008W        W31539  44.395  34.926   2.257
70009W        W31540  32.016  24.034   0.944
70010W        W31541  25.713   8.180  13.881
70011W        W31542  38.479  40.492  14.884
70012W        W31543   9.698  23.662  12.423
70013W        W31544  20.069  37.390  10.425
70014W        W31545  26.189   5.909   2.754
70015W        W31546  10.685  21.665  14.002
70016W        W31547  40.505  23.574  13.446
70017W        W31548  15.211  17.580   2.295
70018W        W31549  43.907  10.307  11.039
70019W        W31550  23.639  29.932  12.493
70020W        W31551  39.540   8.847  10.440
70021W        W31552  41.925   0.877  13.030
70022W        W31553  23.989  43.453  12.984
70023W        W31554  33.499  39.559  13.525
70024W        W31555  17.725  31.474  10.967
70025W        W31556  32.621   0.785   3.842
70026W        W31557  20.219  28.524  12.959
70027W        W31558  42.355   4.219  13.445
70028W        W31559   5.375  42.857  13.983
70029W        W31560  25.532  20.653  14.384
70030W        W31561   4.873  29.576   4.773
70031W        W31562  21.562  39.996   3.254
70032W        W31563  11.158  40.490   0.762
70033W        W31564  39.375  12.250  13.908
70034W        W31565   4.765  32.517  14.006
70035W        W31566  33.574  41.527  12.431
70036W        W31567  16.156  36.869   3.325
70037W        W31568   0.393  19.753   4.608
70038W        W31569   0.784  32.924  11.913
70039W        W31570  30.913  28.552   3.729
70040W        W31571   8.759  14.281   4.746
70041W        W31572  31.995  27.122   0.731
70042W        W31573  38.436   9.278  13.440
70043W        W31574   0.860  28.498   1.776
70044W        W31575  13.646   2.935   5.139
70045W        W31576   9.869  40.987   1.405
70046W        W31577  16.752  21.192  12.949
70047W        W31578  16.215  40.380  14.341
70048W        W31579  20.656  38.351  12.374
70049W        W31580  38.536  23.576   4.127
70050W        W31581  33.536  28.590  14.326
70051W        W31582  18.256  24.017   2.228
70052W        W31583  22.177  12.696   3.863
70053W        W31584   9.768  14.276   0.779
70054W        W31585  39.525  29.584  11.082
70055W        W31586  13.253  37.975  14.801
70056W        W31587  20.756  40.332  12.419
70057W        W31588   8.230  32.994   3.811
70058W        W31589  42.981  14.594   4.113
70059W        W31590  15.640  31.908   1.774
70060W        W31591  38.418  44.424   4.142
70061W        W31592  23.705  16.097  10.578
70062W        W31593  10.828  18.585   1.326
70063W        W31594  39.327  33.965   4.228
70064W        W31595  27.166  19.229   0.962
70065W        W31596  24.175  15.810   4.185
70066W        W31597  31.599   7.708   4.790
70067W        W31598  40.379   7.397  12.035
70068W        W31599  43.414  42.516  14.905
70069W        W31600  36.367  35.424   4.308
70070W        W31601  32.458   1.389  13.914
70071W        W31602  32.080  37.372   3.837
70072W        W31603   0.888  21.039  10.973
70073W        W31604  19.555  42.884  12.487
70074W        W31605  16.200  15.132  14.000
70075W        W31606  12.278  40.507  12.884
70076W        W31607  41.910  33.585  12.408
70077W        W31608  26.958  32.988  14.819
70078W        W31609  43.880  42.512  12.472
70079W        W31610  21.208  22.117   1.749
70080W        W31611  14.170  22.235  10.420
70081W        W31612  11.319  10.698  14.479
70082W        W31613  14.757   5.742  12.370
70083W        W31614  18.261  29.626   0.368
70084W        W31615  28.095  30.446   0.785
70085W        W31616   6.766  30.623  13.335
70086W        W31617  32.539  13.289  13.366
70087W        W31618   4.239  13.702   2.799
70088W        W31619  40.359   6.417   0.254
70089W        W31620  44.296  44.444   0.476
70090W        W31621  34.058  42.840   3.716
70091W        W31622  44.951  27.631   0.257
70092W        W31623   0.769  38.433  13.000
70093W        W31624  19.627  39.883   4.293
70094W        W31625   5.358  22.501   4.139
70095W        W31626   3.908  44.957  13.966
70096W        W31627   8.889   2.901  12.021
70097W        W31628  15.152  38.856   3.207
70098W        W31629   0.808   9.742   4.236
70099W        W31630  21.254  16.254   0.924
70100W        W31631   2.796   3.335   2.242
70101W        W31632   9.270  21.208   1.281
70102W        W31633  29.646   0.386  11.459
70103W        W31634  14.653  10.347   1.211
70104W        W31635   4.429   6.194  14.444
70105W        W31636   4.409  39.508   1.323
70106W        W31637   8.183  24.229  11.409
70107W        W31638  19.111  18.104   4.642
70108W        W31639  21.089  20.570   4.307
70109W        W31640  34.450   3.829   2.732
70110W        W31641  44.438   9.309  10.629
70111W        W31642  16.678  31.079   9.540
70112W        W31643   5.737  22.094  11.971
70113W        W31644  28.483  39.871  13.369
70114W        W31645  41.805  43.871  14.436
70115W        W31646   1.363   5.245  10.462
70116W        W31647  21.227   2.412  10.495
70117W        W31648   2.235  18.095  11.603
70118W        W31649  38.468  21.607  11.374
70119W        W31650  35.450  44.481  13.857
70120W        W31651   6.699   0.394   4.278
70121W        W31652  23.531  11.838   4.757
70122W        W31653  27.657  16.679   2.746
70123W        W31654  29.114  44.963  14.997
70124W        W31655  16.196  23.667   3.236
70125W        W31656  10.831  17.063   0.351
70126W        W31657  41.386  39.943  13.963
70127W        W31658  30.116  26.182   2.870
70128W        W31659  39.560  42.902   1.748
70129W        W31660  21.021  34.468   3.855
70130W        W31661   0.349  42.967  10.497
70131W        W31662   5.692  27.083   1.733
70132W        W31663  22.688  36.074  14.973
70133W        W31664  44.935  41.824  14.460
70134W        W31665  32.050   0.902   2.207
70135W        W31666   1.886   9.318   1.727
70136W        W31667  16.120  32.994  12.096
70137W        W31668  39.866   7.206  14.496
70138W        W31669  29.003   4.429   0.731
70139W        W31670  29.941  10.307  11.596
70140W        W31671  37.488  24.069  13.497
70141W        W31672  36.853  17.789   0.438
70142W        W31673  39.848   5.427  12.503
70143W        W31674  21.179  38.047   4.791
70144W        W31675  43.908  29.435  14.275
70145W        W31676  39.993   3.279   2.384
70146W        W31677   6.742  19.158   0.361
70147W        W31678  43.481  13.608  13.918
70148W        W31679  16.082  24.124   2.376
70149W        W31680  41.368  14.712  14.874
70150W        W31681  17.095  26.999   2.819
70151W        W31682  39.440  13.640  12.895
70152W        W31683  24.126  20.680  11.482
70153W        W31684  26.118   0.408  13.890
70154W        W31685  39.380  11.371  13.335
70155W        W31686   2.245  26.084   1.816
70156W        W31687  39.347  22.022  14.337
70157W        W31688  42.821  25.193  10.983
70158W        W31689   5.394  28.500   0.812
70159W        W31690   3.422  38.396  13.460
70160W        W31691   1.976  26.988   1.735
70161W        W31692  31.053   9.320  14.770
70162W        W31693   1.781  23.040   1.241
70163W        W31694  40.543  13.337  10.611
70164W        W31695   9.870  16.298   1.289
70165W        W31696  27.568  12.149  11.002
70166W        W31697  29.090  15.268  13.808
70167W        W31698  18.749  33.912   2.860
70168W        W31699   5.919  31.539   3.274
70169W        W31700  20.746  25.479  12.519
70170W        W31701  42.995  27.118   3.147
70171W        W31702  28.162   3.296   3.633
70172W        W31703   1.328  15.177   2.343
70173W        W31704   5.239  25.114  11.981
70174W        W31705  15.781  10.321  13.027
70175W        W31706  20.274  36.975   3.681
70176W        W31707  14.339  21.645   4.115
70177W        W31708  18.689  26.468   1.255
70178W        W31709  36.551  27.502   1.448
70179W        W31710  27.031   7.786  12.955
70180W        W31711  22.506  36.043  13.419
70181W        W31712  20.747  25.554  14.835
70182W        W31713  24.507  23.170  10.918
70183W        W31714  33.439  14.270   2.894
70184W        W31715  18.560  38.432   3.327
70185W        W31716  16.631  42.842  13.052
70186W        W31717   3.721  10.139  11.103
70187W        W31718   4.296  32.509   0.902
70188W        W31719  21.582  25.117   4.311
70189W        W31720  38.980   8.296  14.791
70190W        W31721  42.399   0.454  14.983
70191W        W31722   1.412  38.923   2.807
70192W        W31723  31.419   3.845  13.909
70193W        W31724   3.945  33.423   2.807
70194W        W31725  34.449  11.246  11.517
70195W        W31726  38.410  22.013   0.805
70196W        W31727  31.900   5.847   0.791
70197W        W31728  20.066  30.082   1.238
70198W        W31729  25.052  26.482   0.878
70199W        W31730  20.241  38.042   1.840
70200W        W31731  16.759  35.597  14.511
70201W        W31732  16.264  31.564  11.597
70202W        W31733  12.306  24.196  10.593
70203W        W31734  42.444  28.071  11.860
70204W        W31735  33.026  39.899  10.575
70205W        W31736  24.102  15.633   5.086
70206W        W31737  30.517   1.861   2.779
70207W        W31738  42.440  25.157  12.900
70208W        W31739  39.550  32.526   3.227
70209W        W31740   5.714  34.108   1.329
70210W        W31741  14.181   4.925  10.891
70211W        W31742  25.151   0.382  12.010
70212W        W31743  12.173   2.325   0.887
70213W        W31744  29.018  15.682   3.319
70214W        W31745  28.576   3.287  13.002
70215W        W31746  14.775   3.842   1.334
70216W        W31747  31.955  24.545   4.235
70217W        W31748  25.509   8.242  10.096
70218W        W31749  35.421  16.799   4.712
70219W        W31750   4.285  33.592   1.841
70220W        W31751   3.288  20.639  12.538
70221W        W31752  10.833  19.052   3.384
70222W        W31753  27.106  34.600  11.921
70223W        W31754  19.557  44.394  10.992
70224W        W31755  22.053  21.591   2.755
70225W        W31756  21.584  22.734   3.213
70226W        W31757   6.812  29.503  12.864
70227W        W31758  17.711  44.792  11.558
70228W        W31759  24.699   5.375   3.840
70229W        W31760   2.265  21.050  14.835
70230W        W31761  24.603  33.060  12.975
70231W        W31762  26.104  13.842   1.696
70232W        W31763  23.735   6.868  14.018
70233W        W31764  19.656  18.078  12.519
70234W        W31765  24.019  36.906   1.935
70235W        W31766  17.276  22.587  10.961
70236W        W31767  39.477  13.661   2.412
70237W        W31768  24.034  39.890   3.657
70238W        W31769  20.595  12.820  11.942
70239W        W31770   6.787  18.129  10.527
70240W        W31771   0.759   1.974   2.893
70241W        W31772  33.949  34.514  11.397
70242W        W31773   6.200   7.771   1.408
70243W        W31774  29.431  43.824  11.095
70244W        W31775  14.630   0.911   2.351
70245W        W31776  31.018  43.414   3.763
70246W        W31777  16.800   0.470   4.165
70247W        W31778  29.167  40.913   3.760
70248W        W31779  19.603  26.644  13.540
70249W        W31780  15.253  36.047   1.816
70250W        W31781  20.063   9.313   2.392
70251W        W31782  16.744   6.387  11.603
70252W        W31783   3.259  21.194  11.930
70253W        W31784  44.426  29.969  13.418
70254W        W31785  34.043   7.371  10.600
70255W        W31786  43.384  26.088  13.474
70256W        W31787  27.663   9.350  14.516
70257W        W31788  17.132  26.015  12.023
70258W        W31789  23.030  35.511  13.856
70259W        W31790  38.934  31.081  11.558
70260W        W31791  38.999   7.408  12.401
70261W        W31792  34.008   3.346  12.443
70262W        W31793   0.320  18.605  11.935
70263W        W31794   2.472  37.503   5.163
70264W        W31795   1.294  15.220  12.836
70265W        W31796  19.675   6.783  11.539
70266W        W31797   9.375   6.279   2.782
70267W        W31798  37.998   8.864   5.724
70268W        W31799  11.238  37.899  11.065
70269W        W31800   3.773  43.385   0.399
70270W        W31801  13.330   4.427   3.156
70271W        W31802   5.240  43.976  14.343
70272W        W31803  15.663  23.155   0.937
70273W        W31804  15.114   4.801   3.701
70274W        W31805  18.280  26.533   2.223
70275W        W31806  44.990  17.248   1.854
70276W        W31807   3.770  14.804  12.926
70277W        W31808  34.038   5.432  12.558
70278W        W31809  34.885   2.809   4.706
70279W        W31810  11.303  43.485  11.899
70280W        W31811  26.205  26.114   4.354
70281W        W31812  42.453   7.244  12.512
70282W        W31813  26.604   3.406  12.951
70283W        W31814  22.589  20.249   3.323
70284W        W31815  32.622  22.610  10.161
70285W        W31816  44.356  44.818   3.191
70286W        W31817  24.099  19.622  10.042
70287W        W31818   8.377  24.022   1.446
70288W        W31819  17.212   7.219   3.767
70289W        W31820   7.685  38.541   2.185
70290W        W31821  41.955  19.592  10.897
70291W        W31822  27.599  24.149  10.540
70292W        W31823  38.386  39.352  12.845
70293W        W31824  42.485  44.861   2.188
70294W        W31825   5.933  32.091   0.401
70295W        W31826  41.810   9.244  11.900
70296W        W31827  37.560  23.159   4.304
70297W        W31828  26.058  20.096  12.547
70298W        W31829   7.358  31.596   0.249
70299W        W31830  44.493  37.503  13.859
70300W        W31831   7.290   9.834  14.493
70301W        W31832   5.836   6.386  12.953
70302W        W31833  36.555  23.097  14.905
70303W        W31834  42.984  18.185   1.361
70304W        W31835  28.639  36.524  14.027
70305W        W31836  42.453  10.785  11.964
70306W        W31837   1.431   2.881   2.196
70307W        W31838  20.539  42.877   3.629
70308W        W31839  14.684   7.809  11.866
70309W        W31840  27.016  24.182  12.879
70310W        W31841  31.933  13.726  12.476
70311W        W31842  16.253   0.368   1.316
70312W        W31843  41.945  30.424   1.352
70313W        W31844   5.344  30.502   0.358
70314W        W31845  39.901  37.072   3.697
70315W        W31846  29.143   3.310  13.987
70316W        W31847  10.383  38.556   0.851
70317W        W31848  34.443  12.326   1.795
70318W        W31849  39.501  16.218   4.159
70319W        W31850   2.791  40.926  14.328
70320W        W31851   4.295  23.647  13.440
70321W        W31852  23.005   0.393   2.663
70322W        W31853  16.270   3.714   3.822
70323W        W31854  11.261  34.399  14.508
70324W        W31855  20.213  37.980   9.977
70325W        W31856  17.783   1.802   4.615
70326W        W31857  13.165  14.614   1.898
70327W        W31858  27.158  25.714   0.418
70328W        W31859  13.696  22.239   3.367
70329W        W31860  18.218  33.115   4.654
70330W        W31861   4.879  27.616  11.064
70331W        W31862  25.568  32.973  12.092
70332W        W31863  23.713  18.629  11.075
70333W        W31864   7.884  31.985   1.278
70334W        W31865  23.015  26.466   1.342
70335W        W31866  14.677  23.672  11.470
70336W        W31867  21.074   4.208  13.018
70337W        W31868   9.181  24.179  10.541
70338W        W31869  33.126  35.920  14.432
70339W        W31870  11.648  25.013  11.461
70340W        W31871  18.149  16.588  14.334
70341W        W31872  20.106  35.056  12.055
70342W        W31873  42.949  30.552  13.875
70343W        W31874  29.494  42.335  11.894
70344W        W31875  33.535  42.894   5.214
70345W        W31876  30.946  36.992   1.736
70346W        W31877   8.688   1.827   3.173
70347W        W31878  33.456  19.159   5.298
70348W        W31879  37.978  37.947  13.500
70349W        W31880  19.235  23.667   4.316
70350W        W31881  34.520  27.516   3.764
70351W        W31882  11.836  39.382  13.989
70352W        W31883   8.250  34.381   4.310
70353W        W31884  32.997  12.631  14.818
70354W        W31885  28.929  15.734   2.400
70355W        W31886  18.545  43.996  14.773
70356W        W31887   4.841   6.817   3.293
70357W        W31888  18.731  11.768   0.362
70358W        W31889   6.786  11.814  11.546
70359W        W31890  26.045  16.258  14.889
70360W        W31891  31.602  42.443  13.961
70361W        W31892  27.176  19.655   0.746
70362W        W31893  27.008  28.032  12.826
70363W        W31894  39.351  42.889   4.789
70364W        W31895  22.588  12.685  12.396
70365W        W31896  38.006  42.294   0.355
70366W        W31897   5.349  39.032  13.471
70367W        W31898  30.521   3.787  13.527
70368W        W31899  36.488  19.074   3.201
70369W        W31900   0.818  39.895  13.354
70370W        W31901   4.260   5.696   3.763
70371W        W31902  31.588   8.746  13.876
70372W        W31903  38.469   2.286  12.451
70373W        W31904  44.859   0.805  14.852
70374W        W31905  28.548  20.267   0.801
70375W        W31906  20.242   0.324   2.196
70376W        W31907  22.557  24.064   4.837
70377W        W31908  41.480  27.944  14.853
70378W        W31909  27.501  19.136   1.731
70379W        W31910  15.319   6.388  12.011
70380W        W31911   0.781   8.273  13.506
70381W        W31912   4.319  20.190  10.447
70382W        W31913  42.958  29.041   0.928
70383W        W31914  34.473  30.911   0.939
70384W        W31915  31.572   0.301  10.480
70385W        W31916  19.638  40.427  12.339
70386W        W31917  26.557  31.586  12.891
70387W        W31918  14.304  30.928   3.367
70388W        W31919  11.369  36.075  13.497
70389W        W31920   7.878  31.972  13.389
70390W        W31921  10.371  24.612   5.263
70391W        W31922  44.899  16.106   0.348
70392W        W31923  15.281  41.513   1.339
70393W        W31924  23.065  21.535   1.930
70394W        W31925  43.779  42.936   1.759
70395W        W31926  26.081  36.488  12.402
70396W        W31927  35.418  26.207  11.890
70397W        W31928  29.970  38.481  11.865
70398W        W31929  15.284   0.951   0.794
70399W        W31930   4.255  32.952  14.832
70400W        W31931  32.606  42.788   5.252
70401W        W31932  33.587   9.170   3.740
70402W        W31933  35.358  39.893  14.812
70403W        W31934  25.475  15.180   1.774
70404W        W31935  14.184   1.435  11.510
70405W        W31936   9.307  39.396   4.154
70406W        W31937   5.379  37.031  12.367
70407W        W31938  37.516  24.688  11.983
70408W        W31939   9.221  10.678  13.796
70409W        W31940  31.126  43.937   3.238
70410W        W31941  24.718  44.003  11.983
70411W        W31942  10.685  16.171  13.321
70412W        W31943   6.362  11.639   3.792
70413W        W31944  28.471  40.376  12.416
70414W        W31945  18.647  32.593  12.364
70415W        W31946  43.407   0.901  14.337
70416W        W31947  19.219  22.183   0.434
70417W        W31948  14.249   1.304  11.083
70418W        W31949  11.791  39.972   0.386
70419W        W31950  29.062  16.714   4.639
70420W        W31951   2.395  16.700  12.417
70421W        W31952  19.074  36.497  13.309
70422W        W31953  28.130  25.470  14.468
70423W        W31954   8.383  29.658   4.276
70424W        W31955  26.171  42.412  12.537
70425W        W31956  40.858  29.972   2.767
70426W        W31957  22.124  15.155  13.372
70427W        W31958   7.251   2.954   0.952
70428W        W31959  40.497  23.121   0.898
70429W        W31960  23.557  34.928   1.330
70430W        W31961  15.611  29.071  12.401
70431W        W31962  35.103  16.581   1.860
70432W        W31963   3.269  27.567   3.838
70433W        W31964   0.770  14.178  14.277
70434W        W31965   8.853  35.571  13.854
70435W        W31966  32.948  15.286   2.276
70436W        W31967  23.657  21.133   2.382
70437W        W31968  28.056   6.249   2.192
70438W        W31969  36.074  29.147   4.766
70439W        W31970  44.007  24.006  11.423
70440W        W31971  36.556   0.908   4.204
70441W        W31972  33.926  32.532  12.493
70442W        W31973  34.085   0.744  14.854
70443W        W31974  41.340   2.409   1.845
70444W        W31975  38.546  40.458   1.370
70445W        W31976   3.339  25.570   1.437
70446W        W31977  17.074  29.437   0.814
70447W        W31978  24.680  23.719  11.015
70448W        W31979  14.655  39.389  13.038
70449W        W31980  43.950  26.549  12.000
70450W        W31981  24.676   0.462   4.623
70451W        W31982  17.654  14.262   1.920
70452W        W31983  44.399   9.668  10.980
70453W        W31984  38.547  22.235   1.848
70454W        W31985  30.096  23.640   1.914
70455W        W31986  33.462  37.916   0.800
70456W        W31987  44.381  36.901  10.044
70457W        W31988  41.914   7.224   2.277
70458W        W31989  36.935  34.010   3.829
70459W        W31990  21.038  20.042  11.563
70460W        W31991  15.738  34.885   3.764
70461W        W31992  36.449  11.340   3.235
70462W        W31993  25.157  26.458   3.378
70463W        W31994   0.759  40.515  13.403
70464W        W31995  26.087  44.336  14.302
70465W        W31996  18.613  17.747  11.879
70466W        W31997  38.347  30.133  14.405
70467W        W31998   5.279  41.357  13.043
70468W        W31999  33.948  23.679   2.217
70469W        W32000  26.978  36.932   1.406
70470W        W32001  38.847  15.106   3.695
70471W        W32002  24.098  16.731   2.881
70472W        W32003   8.334  17.271  13.856
70473W        W32004   7.772  41.812   1.766
70474W        W32005  17.303  19.240   1.894
70475W        W32006  15.186   1.433   4.832
70476W        W32007  26.043   6.358   2.232
70477W        W32008   0.805  43.404  11.099
70478W        W32009  43.401   9.656  10.558
70479W        W32010  39.932   1.312   1.327
70480W        W32011  26.685   8.171  11.600
70481W        W32012  11.687  40.912  11.495
70482W        W32013  36.365  10.367  14.310
70483W        W32014  15.138   9.255  13.984
70484W        W32015  37.934   3.804   1.405
70485W        W32016  22.008  28.100  13.932
70486W        W32017  11.629  40.430   1.273
70487W        W32018  30.143  26.127   0.455
70488W        W32019  10.379  13.291  13.492
70489W        W32020   7.702  29.519  11.493
70490W        W32021  25.175  15.262  11.888
70491W        W32022  15.299  38.423  11.517
70492W        W32023  37.863   4.450  11.424
70493W        W32024  10.766   4.787   2.772
70494W        W32025  24.572  23.687   3.772
70495W        W32026  20.238  20.053   0.926
70496W        W32027  23.235  28.000   2.209
70497W        W32028  14.753  11.361  11.860
70498W        W32029   7.892  17.222   0.917
70499W        W32030  12.767  36.981  13.930
70500W        W32031  23.075   2.966   3.643
70501W        W32032  39.557  27.176  12.097
70502W        W32033  31.406   7.861  12.491
70503W        W32034  14.207  21.023  12.455
70504W        W32035  23.609  31.969  14.299
70505W        W32036   6.345  32.419  13.861
70506W        W32037  29.586  25.653  11.533
70507W        W32038  36.867  33.591  13.495
70508W        W32039  12.626   1.367   2.266
70509W        W32040  27.598  16.710  13.968
70510W        W32041  12.769  24.129  11.062
70511W        W32042  38.855  26.154  11.002
70512W        W32043  18.778   7.208  10.454
70513W        W32044   8.871  42.457  14.376
70514W        W32045  21.056  18.264   1.376
70515W        W32046   3.850  27.961   0.910
70516W        W32047   1.779   5.846  14.845
70517W        W32048   3.820   8.808   4.249
70518W        W32049  30.427   7.815   3.151
70519W        W32050  15.303  23.029  14.376
70520W        W32051  27.133   9.679   1.229
70521W        W32052  17.665  20.203   4.786
70522W        W32053   9.333  23.093   2.772
70523W        W32054  28.678   6.340   1.254
70524W        W32055  26.074   2.949   1.734
70525W        W32056  19.730  30.574   0.394
70526W        W32057  42.817  16.600  10.926
70527W        W32058  11.261  40.426  11.914
70528W        W32059  35.366  39.890   3.645
70529W        W32060  13.770  20.619  14.404
70530W        W32061  25.599  28.089  10.152
70531W        W32062   9.230  41.463   3.641
70532W        W32063   6.198   0.892  12.004
70533W        W32064  18.627   9.800  12.021
70534W        W32065  41.983  32.050   3.642
70535W        W32066   3.443   2.855   2.871
70536W        W32067   7.227  42.833   2.219
70537W        W32068  25.214  41.344  13.316
70538W        W32069  21.736  17.246  14.028
70539W        W32070  19.589   5.827  12.889
70540W        W32071   1.777  31.579  13.991
70541W        W32072  25.659  11.711  10.929
70542W        W32073  12.625  35.398   2.671
70543W        W32074  16.733  12.773   4.153
70544W        W32075   6.781  29.067   0.274
70545W        W32076  35.930  37.891  13.390
70546W        W32077  43.784  44.911   0.915
70547W        W32078  10.226   8.783   4.194
70548W        W32079  38.963  35.030   0.461
70549W        W32080  37.338  22.507  12.926
70550W        W32081  37.357  33.542  14.017
70551W        W32082  30.646  21.081   1.415
70552W        W32083  25.622  15.207   4.629
70553W        W32084  34.951   0.763   4.155
70554W        W32085  10.639   9.645  14.901
70555W        W32086  37.370  11.236   3.150
70556W        W32087   3.258  23.688   9.598
70557W        W32088  28.950   3.933  13.964
70558W        W32089  30.950   3.903   0.749
70559W        W32090  29.932  32.076   4.254
70560W        W32091   3.403  10.794   1.332
70561W        W32092  13.765  34.551   5.291
70562W        W32093  23.642  26.587   1.261
70563W        W32094   1.240  28.602  11.964
70564W        W32095  18.581  16.094   2.328
70565W        W32096  29.005  37.359  14.942
70566W        W32097  13.792   7.814   1.734
70567W        W32098  30.555  40.466   3.729
70568W        W32099  23.146  23.183   4.204
70569W        W32100   6.704  39.035   3.777
70570W        W32101   9.257   0.372  14.968
70571W        W32102  22.218  35.529  13.427
70572W        W32103  39.933   6.872   3.313
70573W        W32104  40.050  11.209   5.298
70574W        W32105  26.104  20.587   3.233
70575W        W32106  26.564  43.483  11.010
70576W        W32107  40.857  26.078   4.757
70577W        W32108   5.334  14.677  13.915
70578W        W32109   7.810  39.379  13.364
70579W        W32110  30.440  33.904  12.347
70580W        W32111  30.125  38.438  10.613
70581W        W32112   4.274  16.586  12.841
70582W        W32113   4.344  17.802  12.545
70583W        W32114  23.105   0.905  11.098
70584W        W32115  21.135  21.749  14.302
70585W        W32116  40.516  33.416   1.896
70586W        W32117  44.490  41.308   0.282
70587W        W32118  33.036   3.806   0.942
70588W        W32119   3.929  20.132  13.417
70589W        W32120   7.885   4.287   3.261
70590W        W32121  31.535  40.494  10.960
70591W        W32122  32.416  19.198   0.814
70592W        W32123  10.792  38.543  12.555
70593W        W32124   9.652   3.391  10.116
70594W        W32125  21.645  31.152  11.005
70595W        W32126  38.880  39.003   3.327
70596W        W32127  23.240  11.167   2.837
70597W        W32128  44.502  27.553   2.287
70598W        W32129  41.421  25.524  10.572
70599W        W32130  19.542  22.171   2.846
70600W        W32131  44.361  30.909   4.835
70601W        W32132  19.267  21.043   1.834
70602W        W32133   3.239  13.626  14.845
70603W        W32134   2.962  25.160  11.485
70604W        W32135  26.075   0.316   1.759
70605W        W32136  18.573  39.054  14.451
70606W        W32137  44.783  23.169  12.518
70607W        W32138   9.316  21.618   3.688
70608W        W32139   9.820  19.150  12.390
70609W        W32140  28.064  38.519   2.737
70610W        W32141  29.534  26.102   1.789
70611W        W32142  16.085  31.558   2.715
70612W        W32143  16.276  42.904   3.862
70613W        W32144   0.309   6.386   3.826
70614W        W32145  12.620  21.648  14.977
70615W        W32146  16.734  21.624   5.735
70616W        W32147   3.746  40.383  10.630
70617W        W32148  21.577  15.656   1.357
70618W        W32149  27.190  20.709  14.275
70619W        W32150  34.398  20.236  11.501
70620W        W32151   0.303  11.848   1.439
70621W        W32152   2.788  16.222   4.140
70622W        W32153  31.443  16.278   1.769
70623W        W32154  11.679  44.419  10.544
70624W        W32155  36.897   7.297  13.850
70625W        W32156  15.654  36.398   0.804
70626W        W32157  11.821   6.212  11.861
70627W        W32158  10.292  26.562  12.917
70628W        W32159  10.269  12.821   0.846
70629W        W32160  43.852  38.444   2.688
70630W        W32161   8.789  16.573   0.353
70631W        W32162   1.796  12.742  11.578
70632W        W32163  30.047  42.523   3.184
70633W        W32164  15.263  10.678   4.682
70634W        W32165  12.172   2.792   3.835
70635W        W32166  21.094  36.845   2.712
70636W        W32167  43.953  30.446  11.928
70637W        W32168  19.595  27.577   4.605
70638W        W32169  25.497  26.169  11.564
70639W        W32170   7.745  32.026  14.895
70640W        W32171  29.009  22.050   3.632
70641W        W32172  21.607  35.518  12.918
70642W        W32173  15.743   2.231   4.288
70643W        W32174   5.420  33.489   0.327
70644W        W32175  40.964  44.874  12.884
70645W        W32176  28.558  25.563   3.867
70646W        W32177  40.943  26.975  11.520
70647W        W32178  42.880  39.849   4.690
70648W        W32179  31.983  11.810  13.315
70649W        W32180   8.736  30.915  10.440
70650W        W32181  44.305   1.404   0.396
70651W        W32182  12.308  33.090   3.342
70652W        W32183  43.513  44.936   0.344
70653W        W32184  23.570  28.178  12.835
70654W        W32185  20.684  22.130   0.850
70655W        W32186   0.432  30.003   0.876
70656W        W32187   0.434  22.043   1.906
70657W        W32188  37.432   6.796   0.938
70658W        W32189  31.071  36.988   4.712
70659W        W32190  37.551  15.624   1.268
70660W        W32191  28.004   7.356   5.236
70661W        W32192  42.994   3.926   4.164
70662W        W32193   5.769  26.550   1.888
70663W        W32194  35.036  21.677   0.281
70664W        W32195  36.559   0.830  14.927
70665W        W32196  37.068  23.031   3.839
70666W        W32197  16.793  38.984  11.933
70667W        W32198  13.219  18.148  13.893
70668W        W32199  32.412  40.455  14.363
70669W        W32200  37.035  36.092  11.510
70670W        W32201  22.013  30.021   4.165
70671W        W32202  23.550  20.161  14.920
70672W        W32203  42.905   3.931  11.098
70673W        W32204  30.479  40.018   0.283
70674W        W32205  32.427  23.615   4.225
70675W        W32206  11.712  28.561  12.885
70676W        W32207  17.719  32.136  13.018
70677W        W32208   1.308  15.245   3.207
70678W        W32209  33.991   9.812   3.817
70679W        W32210  35.084  36.969  10.134
70680W        W32211   2.337   6.300  13.898
70681W        W32212  43.959  25.184  13.518
70682W        W32213  19.720  26.604  11.869
70683W        W32214   1.375  17.275  14.776
70684W        W32215  32.460  17.760   4.162
70685W        W32216   2.452  30.473   5.133
70686W        W32217  10.744  31.913   4.184
70687W        W32218  26.606  35.027  12.483
70688W        W32219  37.499  18.067  12.829
70689W        W32220   0.849  39.313  13.027
70690W        W32221  23.022  15.127   2.689
70691W        W32222  40.856  11.137  14.844
70692W        W32223  44.383  39.524  14.814
70693W        W32224  10.705  25.561  10.609
70694W        W32225  14.111  15.273  13.383
70695W        W32226  40.050   7.784   0.891
70696W        W32227  14.155  12.830  10.625
70697W        W32228  11.225  10.716  11.945
70698W        W32229  29.047  13.306   0.891
70699W        W32230  41.509  26.584  14.987
70700W        W32231  17.714   9.857   3.697
70701W        W32232  13.733  28.450  10.468
70702W        W32233   5.329  20.678   0.907
70703W        W32234  32.449  41.817  13.462
70704W        W32235  29.581  41.948  11.857
70705W        W32236   4.935  41.352  11.533
70706W        W32237  30.560   6.839   0.357
70707W        W32238   6.765  30.115  11.382
70708W        W32239  33.532   1.300   1.293
70709W        W32240   1.976  32.981  13.387
70710W        W32241  20.752  11.174  13.042
70711W        W32242   7.371   7.736  12.857
70712W        W32243  16.619  20.715  12.050
70713W        W32244  38.822  23.098   2.314
70714W        W32245   0.471   3.383   1.926
70715W        W32246  22.176   5.295   0.831
70716W        W32247  43.278  17.284   1.925
70717W        W32248  17.212  28.011   0.462
70718W        W32249  30.955   3.218  14.856
70719W        W32250   2.731  13.711  14.282
70720W        W32251   0.418  24.977  12.364
70721W        W32252   2.462   3.910  13.048
70722W        W32253  15.608  33.022  11.878
70723W        W32254  24.675  10.738   4.118
70724W        W32255   8.338  35.037  10.891
70725W        W32256   8.676  41.918  13.508
70726W        W32257   9.376  35.885   2.351
70727W        W32258   3.335  30.502  12.000
70728W        W32259  44.983  38.526   3.293
70729W        W32260  34.497   4.290  12.972
70730W        W32261  41.425  41.921  13.990
70731W        W32262  11.722  35.471   2.817
70732W        W32263  18.683  11.214   3.730
70733W        W32264   4.353  39.468   3.636
70734W        W32265  12.648   0.441   0.406
70735W        W32266  11.282  12.258  14.843
70736W        W32267  34.901   8.387  14.416
70737W        W32268  21.514  35.945  13.949
70738W        W32269   6.238  12.249  10.922
70739W        W32270  42.501  11.180   1.372
70740W        W32271  39.547  36.544  14.938
70741W        W32272  18.681  28.675   3.751
70742W        W32273  22.612  14.636  14.802
70743W        W32274   7.238   6.311  14.321
70744W        W32275  35.999  15.781   0.959
70745W        W32276   0.919  16.591  14.985
70746W        W32277   5.923   4.896  13.878
70747W        W32278  25.705  20.646   2.224
70748W        W32279  42.024  33.403   3.264
70749W        W32280  22.616   2.772  13.840
70750W        W32281  44.942  29.620  10.605
70751W        W32282  19.766  16.201   2.326
70752W        W32283  39.063  12.195  12.062
70753W        W32284  10.332  42.809  10.409
70754W        W32285  24.020  35.952  11.913
70755W        W32286  13.320  33.021  11.399
70756W        W32287  14.282  11.340   4.778
70757W        W32288  17.653  15.265  12.033
70758W        W32289  44.422  35.444  11.909
70759W        W32290  24.062  16.265   3.840
70760W        W32291  38.866   0.756  10.106
70761W        W32292  41.968  33.090   2.269
70762W        W32293  42.957  27.072  11.114
70763W        W32294  39.813  24.053   3.802
70764W        W32295  26.984  32.460  13.503
70765W        W32296  32.537  39.363   0.395
70766W        W32297  29.113   0.910  11.009
70767W        W32298   9.812  28.548   3.235
70768W        W32299  24.569  17.562   4.632
70769W        W32300  22.041  41.468  13.342
70770W        W32301  33.437  43.901   2.404
70771W        W32302  25.210  23.556   1.429
70772W        W32303   6.201  10.791  12.495
70773W        W32304   9.333  30.937  14.822
70774W        W32305   1.865  27.630  14.356
70775W        W32306  14.171   3.279  10.912
70776W        W32307  34.893   5.241  13.956
70777W        W32308  39.528  30.948  11.404
70778W        W32309  10.692  43.811  12.896
70779W        W32310  32.537   7.300  14.378
70780W        W32311  38.329  32.885   1.351
70781W        W32312  11.306  28.108   0.931
70782W        W32313   4.815   8.790   3.719
70783W        W32314  12.123  21.672   2.248
70784W        W32315  12.340  12.853   0.917
70785W        W32316  16.103  22.671   1.698
70786W        W32317  43.502   2.388  12.845
70787W        W32318  14.301  13.822  13.844
70788W        W32319  18.775  26.007  11.519
70789W        W32320  19.226   6.228  12.511
70790W        W32321  17.105  24.042   1.439
70791W        W32322  21.675  10.172  14.320
70792W        W32323  39.389   1.272  11.111
70793W        W32324   5.233   3.335  14.891
70794W        W32325  19.118  36.916   4.802
70795W        W32326  36.092  21.106  12.961
70796W        W32327  15.174  37.522  10.967
70797W        W32328   1.376  18.549  12.406
70798W        W32329  40.360   0.298   3.163
70799W        W32330   5.240  22.070   3.821
70800W        W32331  44.296  35.964   4.153
70801W        W32332  27.046  31.497   0.803
70802W        W32333  30.963   1.908   2.203
70803W        W32334  24.591  34.479  14.020
70804W        W32335   7.812  27.185   0.826
70805W        W32336   8.406  11.671  10.585
70806W        W32337  44.409  21.186   2.371
70807W        W32338  22.216  21.598   2.238
70808W        W32339  28.520  36.352   2.341
70809W        W32340  29.005   0.858   0.271
70810W        W32341   2.811  28.671   4.191
70811W        W32342  24.558  24.098  12.399
70812W        W32343   2.272  42.822   5.217
70813W        W32344  36.384  21.047   5.203
70814W        W32345   3.766  30.561   5.161
70815W        W32346  36.062  22.632  11.032
70816W        W32347   1.902  30.582  13.902
70817W        W32348  37.532  11.734  11.435
70818W        W32349  30.107  29.530  10.498
70819W        W32350   9.377  28.602  10.462
70820W        W32351  29.600  22.709   1.310
70821W        W32352  27.945  19.771  13.396
70822W        W32353  13.309  25.066  12.464
70823W        W32354  17.646  43.888  11.457
70824W        W32355  30.010  36.573   3.176
70825W        W32356  24.090  35.919   1.870
70826W        W32357  32.580   2.816  14.450
70827W        W32358   7.870  10.248   2.181
70828W        W32359  13.835   7.267   0.251
70829W        W32360  31.644  22.189   1.370
70830W        W32361  16.125   6.196  10.934
70831W        W32362   0.355  10.256  14.027
70832W        W32363  22.163  16.178   4.233
70833W        W32364  24.181   2.820  11.972
70834W        W32365  42.514  33.417   0.870
70835W        W32366   2.314   9.860   1.317
70836W        W32367  28.177  23.505  14.768
70837W        W32368   0.459  41.292   3.208
70838W        W32369  32.445  34.948   0.936
70839W        W32370  14.337  31.047  12.573
70840W        W32371  30.520  37.498   1.336
70841W        W32372  24.107  15.669  10.064
70842W        W32373  25.003  37.882   4.822
70843W        W32374  38.029  12.803   1.720
70844W        W32375  22.744  29.920  14.505
70845W        W32376  20.751   0.835   4.335
70846W        W32377  29.964   2.286   2.183
70847W        W32378   5.783  13.603   2.233
70848W        W32379  38.332  25.024   2.847
70849W        W32380   7.357  27.458   3.206
70850W        W32381   4.423  20.592   0.873
70851W        W32382  42.905  28.665   3.308
70852W        W32383  18.765  32.472   1.804
70853W        W32384  44.289   9.676  11.938
70854W        W32385  27.035   6.310   0.939
70855W        W32386   9.713  11.737   3.714
70856W        W32387  44.840  21.650   0.940
70857W        W32388  12.300   8.284  13.320
70858W        W32389  34.962  24.074   4.301
70859W        W32390  42.776  33.997   1.382
70860W        W32391  43.785  39.348   4.733
70861W        W32392  34.476   9.832   3.805
70862W        W32393  12.638   9.395   2.679
70863W        W32394   6.298  10.875  10.533
70864W        W32395  28.131   2.781   3.815
70865W        W32396  15.610  32.104  10.465
70866W        W32397  21.222  32.041   2.781
70867W        W32398  10.262  29.524   2.238
70868W        W32399  39.908  43.978   3.767
70869W        W32400  33.389   1.792   2.662
70870W        W32401  42.972  30.603  14.406
70871W        W32402  29.120  29.126   4.297
70872W        W32403  16.075  36.029  13.892
70873W        W32404  40.920  10.167  13.516
70874W        W32405  23.012  27.078  14.488
70875W        W32406   5.221  38.538  11.442
70876W        W32407  16.655  22.740   2.824
70877W        W32408  39.453   9.688   2.245
70878W        W32409  20.147  44.370   3.811
70879W        W32410   4.945  16.119  11.031
70880W        W32411   9.732  17.625   2.363
70881W        W32412   0.402  15.288   4.293
70882W        W32413  30.061  25.180   4.334
70883W        W32414  20.235  27.971  11.503
70884W        W32415   5.707  30.626   1.243
70885W        W32416  34.016  11.274   4.135
70886W        W32417  43.796   8.744   3.680
70887W        W32418   1.466  18.272   2.865
70888W        W32419   3.948  22.557   1.393
70889W        W32420  39.972  20.226   3.759
70890W        W32421  17.213   1.743  14.504
70891W        W32422  11.358  34.974  10.534
70892W        W32423  11.838  41.397  10.070
70893W        W32424   5.371  19.684  10.441
70894W        W32425   7.300  36.982   0.929
70895W        W32426  29.514  20.146   2.769
70896W        W32427  30.067  39.501  11.901
70897W        W32428  25.635  36.952   2.400
70898W        W32429   7.365  41.392   2.334
70899W        W32430  21.542   6.371   4.734
70900W        W32431  27.561  13.160   0.445
70901W        W32432  34.054  18.599   3.379
70902W        W32433  27.097   6.316  10.417
70903W        W32434   9.276   3.308  14.416
70904W        W32435  15.766   1.827   5.125
70905W        W32436  33.002  23.991  11.396
70906W        W32437  28.937   5.278  10.591
70907W        W32438  24.642  35.576   2.729
70908W        W32439   3.242  35.996   1.266
70909W        W32440   3.336  43.494   0.415
70910W        W32441   9.875  22.044   1.313
70911W        W32442  21.159   7.198  13.937
70912W        W32443  22.090   1.333  14.841
70913W        W32444   1.405  35.928   2.416
70914W        W32445   4.263  19.227  14.829
70915W        W32446  21.203  10.840  10.542
70916W        W32447  33.432  30.554  11.959
70917W        W32448  11.319  31.481   9.474
70918W        W32449  36.550  34.921   0.945
70919W        W32450   5.323  16.582   4.323
70920W        W32451  30.414  30.068  14.845
70921W        W32452  28.632   4.897   0.396
70922W        W32453  41.381  29.583   1.902
70923W        W32454  19.134  12.769   3.330
70924W        W32455  22.180  22.726   1.777
70925W        W32456  34.970  13.286   3.331
70926W        W32457   7.780  16.281   0.880
70927W        W32458  29.051  40.514   3.766
70928W        W32459  14.202  37.474  11.939
70929W        W32460  44.302  37.862  11.561
70930W        W32461  30.454  44.930   3.826
70931W        W32462  38.544  39.055   1.833
70932W        W32463  10.666  19.177   1.839
70933W        W32464  21.077  21.527  10.418
70934W        W32465  38.890   6.915  14.355
70935W        W32466  41.407  12.269  12.902
70936W        W32467  17.569  40.421  11.059
70937W        W32468  42.775  21.681   3.729
70938W        W32469  28.455   2.891  12.433
70939W        W32470  31.094  25.558   0.944
70940W        W32471  19.047  42.901  12.543
70941W        W32472  32.624  44.296  10.912
70942W        W32473  39.883  27.635  13.815
70943W        W32474  32.064  41.477  13.486
70944W        W32475  34.507  41.471   1.790
70945W        W32476  36.044   4.364  11.964
70946W        W32477  40.464  30.958   4.224
70947W        W32478   2.437  23.580   5.603
70948W        W32479  40.985  34.999  13.063
70949W        W32480  16.217   7.833   2.297
70950W        W32481  14.790  27.528   0.938
70951W        W32482  18.611   8.198   2.241
70952W        W32483  20.717   6.199   1.271
70953W        W32484  18.551  15.318   4.236
70954W        W32485  26.508   0.968  12.486
70955W        W32486  16.595  21.593   5.297
70956W        W32487   0.829  42.883   4.827
70957W        W32488  23.663  17.782   1.269
70958W        W32489  40.048  38.527   2.803
70959W        W32490   1.966   9.878   3.830
70960W        W32491   6.400  34.405  10.563
70961W        W32492  42.978  32.607   2.402
70962W        W32493  44.860   3.931  10.454
70963W        W32494  28.120  42.523  14.863
70964W        W32495   9.855  20.627   3.808
70965W        W32496   4.766  36.881  10.583
70966W        W32497   0.338   4.362  11.904
70967W        W32498  27.685   4.844  13.460
70968W        W32499  19.143  25.110  13.470
70969W        W32500   1.897  15.175   4.228
70970W        W32501  31.495  11.308  12.975
70971W        W32502  13.840  21.705   1.426
70972W        W32503  26.543  23.491  10.608
70973W        W32504  21.608   5.755   1.233
70974W        W32505  41.007  18.148  14.916
70975W        W32506  22.098  29.163  12.994
70976W        W32507  41.344  22.709   3.712
70977W        W32508  44.259  17.197   1.914
70978W        W32509  42.960  43.937  14.364
70979W        W32510   3.278   9.336  10.933
70980W        W32511  13.751   5.701   1.283
70981W        W32512  20.603  41.512  12.435
70982W        W32513  10.218   5.272  13.056
70983W        W32514   9.817  30.462  12.490
70984W        W32515  14.669  26.668  10.918
70985W        W32516  30.424  30.100   1.852
70986W        W32517   1.317  40.027  14.985
70987W        W32518  44.857  25.088   4.261
70988W        W32519  30.602   8.782   1.792
70989W        W32520   4.260  15.773  10.156
70990W        W32521  36.906  37.485   0.279
70991W        W32522  39.505  42.342  10.569
70992W        W32523  16.123   1.846  10.918
70993W        W32524  30.495   0.399  13.470
70994W        W32525  36.411  44.493  14.276
70995W        W32526  24.988  14.697  11.123
70996W        W32527  21.262  43.356  12.922
70997W        W32528   0.783   0.333   1.708
70998W        W32529   2.255  38.858  13.328
70999W        W32530   1.344   9.884  13.424
71000W        W32531  14.214  14.687   1.373
71001W        W32532  18.648  34.448   4.683
71002W        W32533   9.751  43.933   4.809
71003W        W32534  42.503  10.848  11.053
71004W        W32535  15.202  25.535  10.487
71005W        W32536  31.908  38.334  11.059
71006W        W32537  18.779  19.269  14.310
71007W        W32538  11.323  13.238  14.299
71008W        W32539  22.130   0.395  14.909
71009W        W32540  17.299  43.298   2.322
71010W        W32541  39.820  13.789   1.446
71011W        W32542  24.510  26.164   4.302
71012W        W32543  24.510  31.487   3.174
71013W        W32544   2.249  12.360   4.708
71014W        W32545  17.801  37.936  10.613
71015W        W32546  10.812  27.672  13.028
71016W        W32547  10.337  28.541   1.767
71017W        W32548   0.425  42.000   3.786
71018W        W32549  30.518  39.487  10.477
71019W        W32550  12.726  39.451   3.865
71020W        W32551  29.653  37.513   3.684
71021W        W32552  20.272  27.135  14.508
71022W        W32553   1.758   8.222   4.204
71023W        W32554  16.284   2.727  11.968
71024W        W32555   1.365  21.023  14.504
71025W        W32556   0.918   3.236   3.330
71026W        W32557  44.833  31.481   1.799
71027W        W32558  28.087  32.574   3.358
71028W        W32559   1.937  31.629   0.750
71029W        W32560   8.217  39.481   1.908
71030W        W32561  30.081  15.748   9.996
71031W        W32562  12.737   9.680  14.814
71032W        W32563  17.114  19.568  10.504
71033W        W32564  10.241  31.564  11.061
71034W        W32565   5.230  37.413  10.542
71035W        W32566   0.284  34.912   4.289
71036W        W32567  14.204  40.454  11.870
71037W        W32568  15.206  36.078   2.293
71038W        W32569  35.448  43.835  13.046
71039W        W32570  21.029   7.704  11.081
71040W        W32571  27.447   2.950  10.974
71041W        W32572  36.008  33.995  12.366
71042W        W32573   7.242  36.560   4.812
71043W        W32574  21.569  27.000   1.823
71044W        W32575  28.975   9.310   0.271
71045W        W32576   5.752  10.701   1.849
71046W        W32577  15.190  19.748  11.033
71047W        W32578  22.107  20.736   4.294
71048W        W32579   5.921  41.042  14.921
71049W        W32580  32.419  37.957   0.962
71050W        W32581  32.437  41.895   2.405
71051W        W32582  14.738  17.080  13.361
71052W        W32583  30.417  36.588   3.816
71053W        W32584  44.374  24.529   3.732
71054W        W32585  19.683  29.601   1.919
71055W        W32586  34.513  31.477   4.175
71056W        W32587  18.710   5.865   1.410
71057W        W32588  30.111  10.791  13.974
71058W        W32589  34.417  32.109   3.702
71059W        W32590  28.674   0.250   0.794
71060W        W32591   3.849  19.615   3.345
71061W        W32592  34.376  31.025   4.803
71062W        W32593  23.559  44.898  10.419
71063W        W32594  18.188  27.579  12.832
71064W        W32595  32.915   3.437  10.506
71065W        W32596  41.457  39.442  13.043
71066W        W32597  33.504  13.127   4.213
71067W        W32598  30.016  31.958  11.976
71068W        W32599  32.603  14.169  13.841
71069W        W32600  16.762  44.786   0.471
71070W        W32601  13.826  23.735  12.928
71071W        W32602   7.666  35.965   0.916
71072W        W32603  20.634  15.304  13.451
71073W        W32604   7.720  17.751   0.897
71074W        W32605  32.463  17.153  14.877
71075W        W32606  10.174  11.256  12.341
71076W        W32607  20.569  22.550   3.757
71077W        W32608  38.509  29.620   0.447
71078W        W32609  25.134  32.498   4.838
71079W        W32610  11.705  17.771  14.886
71080W        W32611  25.483  35.477  13.004
71081W        W32612  14.805  21.708   2.806
71082W        W32613   7.319  12.758  13.041
71083W        W32614  44.933  22.166  14.877
71084W        W32615  30.575   1.823  11.124
71085W        W32616  26.468  23.624  10.910
71086W        W32617  38.424  13.632  14.957
71087W        W32618  25.713  12.642  14.868
71088W        W32619   5.381  35.992   1.928
71089W        W32620  39.395   8.806  11.528
71090W        W32621  44.802  14.268   3.312
71091W        W32622  17.239  27.979  11.898
71092W        W32623  39.057  11.261   2.332
71093W        W32624   7.252   9.797  11.964
71094W        W32625  14.267  36.090   0.346
71095W        W32626  34.976  27.073  14.339
71096W        W32627  21.661   7.350  13.810
71097W        W32628   4.889  37.968   2.194
71098W        W32629   7.824  33.076  12.927
71099W        W32630  19.648  11.632   1.766
71100W        W32631  25.984  34.596  14.762
71101W        W32632  23.984  44.946  13.960
71102W        W32633   7.730  41.327  14.505
71103W        W32634   7.695  22.677   3.149
71104W        W32635  23.733  38.413   3.363
71105W        W32636   2.412  13.763   3.826
71106W        W32637  42.981   5.283   2.703
71107W        W32638  24.982  13.340   3.672
71108W        W32639  34.873  37.862   0.438
71109W        W32640  31.507   0.865   0.426
71110W        W32641  12.655   8.820   0.345
71111W        W32642   8.199   5.205  14.387
71112W        W32643   0.978  43.379   2.734
71113W        W32644  30.052   7.372   1.326
71114W        W32645  16.270  37.535  12.430
71115W        W32646  12.268  38.423  12.341
71116W        W32647  41.307   8.274   0.768
71117W        W32648  23.115   6.344   3.684
71118W        W32649  37.842   6.859  11.429
71119W        W32650  13.678  43.270  10.644
71120W        W32651  36.586  32.056  14.450
71121W        W32652   0.868   5.916  12.458
71122W        W32653  40.482  20.633   4.830
71123W        W32654  26.154  40.478  14.763
71124W        W32655  38.822  16.074  14.391
71125W        W32656   2.853   0.372  14.494
71126W        W32657  18.067  43.488   4.279
71127W        W32658   5.857  42.885   3.228
71128W        W32659  11.345  11.626   0.751
71129W        W32660  44.968  29.587   3.784
71130W        W32661   3.909  33.088   1.219
71131W        W32662   0.834   8.279  14.766
71132W        W32663  12.665  14.768   2.302
71133W        W32664  38.411   1.412   1.343
71134W        W32665  11.206  35.853  12.464
71135W        W32666  19.698  33.055  10.960
71136W        W32667  10.700  29.007   0.304
71137W        W32668   1.799  17.303  14.397
71138W        W32669  25.595   5.799   3.314
71139W        W32670  44.261  39.060  12.556
71140W        W32671  21.635  19.662  13.423
71141W        W32672   5.439  16.732   2.321
71142W        W32673   7.753  41.842   4.209
71143W        W32674  37.997  31.471   1.866
71144W        W32675  36.882  18.157   2.318
71145W        W32676  32.121   7.796   3.806
71146W        W32677  19.176  44.288  13.411
71147W        W32678  31.076  43.406  13.943
71148W        W32679  18.599  36.430  10.543
71149W        W32680  31.985  32.012  11.468
71150W        W32681  28.973  18.275  13.847
71151W        W32682  34.487  33.986  13.380
71152W        W32683  19.628  13.693  11.910
71153W        W32684  34.559  39.826   1.819
71154W        W32685  44.299  12.787  13.467
71155W        W32686  35.366  42.004  11.419
71156W        W32687  14.123  10.163  13.951
71157W        W32688  38.515  15.246  10.644
71158W        W32689  15.648  16.282   3.839
71159W        W32690  23.177  24.587  13.928
71160W        W32691  36.387   9.381  12.543
71161W        W32692  35.073  17.169  12.879
71162W        W32693  17.132  26.595   1.361
71163W        W32694  44.811  16.572   1.402
71164W        W32695  25.171  43.782  12.521
71165W        W32696  16.608  22.105   1.396
71166W        W32697  15.756  29.489  14.807
71167W        W32698  37.487  42.022  12.997
71168W        W32699  10.326  24.100  13.790
71169W        W32700  11.249  38.903   0.410
71170W        W32701  29.537  12.785   3.655
71171W        W32702  33.475  41.412   3.670
71172W        W32703  35.378   0.862   4.798
71173W        W32704  28.984  35.396  11.902
71174W        W32705   0.830  32.465  13.328
71175W        W32706  31.959  19.722  14.990
71176W        W32707  28.045  27.068  11.005
71177W        W32708  43.458  34.577   3.161
71178W        W32709  37.872  43.395  11.392
71179W        W32710  44.303  33.567   1.396
71180W        W32711  31.547  36.553  12.474
71181W        W32712  14.666  27.450   1.933
71182W        W32713   3.792  13.753   4.647
71183W        W32714  38.487  13.305   3.829
71184W        W32715  32.996  28.130   2.217
71185W        W32716  21.647  44.002   2.872
71186W        W32717  33.547  26.632   9.994
71187W        W32718  22.153  30.114  11.022
71188W        W32719  33.509  41.941   3.797
71189W        W32720   1.439  36.063  12.077
71190W        W32721   0.823  28.571   1.211
71191W        W32722   6.849  16.586  10.499
71192W        W32723  43.899  26.696   4.693
71193W        W32724   7.333   7.405  11.070
71194W        W32725  12.754  39.503  14.911
71195W        W32726   0.944  20.670   0.866
71196W        W32727  33.597  23.589  12.575
71197W        W32728  10.833  43.942   0.875
71198W        W32729  43.305  16.188  13.538
71199W        W32730   6.767  21.100   1.274
71200W        W32731  34.454   1.739   1.871
71201W        W32732  14.190  44.831  11.907
71202W        W32733  15.771  42.806   1.870
71203W        W32734  18.154  14.197   4.692
71204W        W32735  29.943   5.333  13.347
71205W        W32736  30.509  22.121  14.870
71206W        W32737  23.590  42.494   3.750
71207W        W32738   0.368   0.428   2.844
71208W        W32739   4.332  12.302  11.452
71209W        W32740  44.496  15.157  10.480
71210W        W32741  27.568  23.019  11.466
71211W        W32742  24.498  27.948  11.894
71212W        W32743  11.764  35.419  14.289
71213W        W32744  28.657  44.807   0.263
71214W        W32745  16.215  43.493  13.529
71215W        W32746  28.045  27.491   1.332
71216W        W32747  27.462  29.619  14.476
71217W        W32748  43.329   1.897   0.438
71218W        W32749   3.829  21.193   1.780
71219W        W32750  18.258  20.264   3.776
71220W        W32751  23.018  21.255   1.285
71221W        W32752  35.978  43.790  12.095
71222W        W32753  32.075  30.129   4.303
71223W        W32754  15.205   7.323   2.889
71224W        W32755  38.325  14.199   0.336
71225W        W32756  17.241  33.108   0.873
71226W        W32757  17.588   7.701   1.899
71227W        W32758  20.083  13.295  10.992
71228W        W32759   6.872   2.888  14.849
71229W        W32760   7.738  31.437  10.901
71230W        W32761   7.883  23.540   0.765
71231W        W32762   3.217  15.215  11.912
71232W        W32763  11.748  36.568  12.846
71233W        W32764   1.758   4.887  13.409
71234W        W32765  23.117  37.087  12.946
71235W        W32766  21.224  40.818   5.286
71236W        W32767  18.211   7.249   0.915
71237W        W32768  28.098  40.503  12.881
71238W        W32769  38.989  11.131   3.357
71239W        W32770  18.615  29.656  10.952
71240W        W32771   2.782  32.959   4.170
71241W        W32772   7.403   9.850   1.386
71242W        W32773  24.517   6.913  12.025
71243W        W32774  40.487   3.238   3.668
71244W        W32775  12.265  30.109   0.866
71245W        W32776  18.258  28.487  10.458
71246W        W32777  34.457  33.967   2.335
71247W        W32778   5.394  10.765   3.332
71248W        W32779  15.300   7.878   3.365
71249W        W32780  19.120  43.404  14.961
71250W        W32781  22.102  24.496   1.903
71251W        W32782  25.591  11.296  13.338
71252W        W32783   3.955  22.592   3.818
71253W        W32784  40.352  41.328   0.410
71254W        W32785   5.744   3.424   1.838
71255W        W32786  15.211  41.527   4.794
71256W        W32787  43.970   4.822   2.352
71257W        W32788   0.883  29.022  14.907
71258W        W32789   1.368   9.693  14.881
71259W        W32790  27.006  32.626   3.381
71260W        W32791  36.025   1.739   1.839
71261W        W32792  42.344  29.465   4.693
71262W        W32793   8.833  25.622   0.346
71263W        W32794  32.530  29.163   0.461
71264W        W32795  34.518  33.011   1.255
71265W        W32796  28.455  14.701  14.418
71266W        W32797  33.481   9.784  14.771
71267W        W32798  37.931  39.373   1.425
71268W        W32799  31.152  38.833   3.198
71269W        W32800  36.485  32.097  13.059
71270W        W32801  39.473  17.154   4.186
71271W        W32802  24.508  15.256   0.407
71272W        W32803  12.150   1.812  12.063
71273W        W32804  22.075  19.645  10.514
71274W        W32805  29.488  31.627  13.431
71275W        W32806  20.143  27.520   4.610
71276W        W32807   4.862  11.700   3.811
71277W        W32808   8.780   3.281   2.342
71278W        W32809  25.200  23.620   3.362
71279W        W32810   6.341  44.755  12.956
71280W        W32811  24.682  10.248   0.394
71281W        W32812  40.861  44.392   1.404
71282W        W32813  14.195  40.027  13.985
71283W        W32814  23.717  39.065   2.304
71284W        W32815  25.175   8.810  14.829
71285W        W32816   3.310  32.532  13.817
71286W        W32817   1.805  37.415  12.455
71287W        W32818   4.324   5.346  13.932
71288W        W32819   6.393   4.848   0.927
71289W        W32820  21.076  35.015   0.444
71290W        W32821   0.919  10.269  14.783
71291W        W32822  23.706  29.442   2.341
71292W        W32823  19.600   9.684  13.857
71293W        W32824  11.311  41.350  11.002
71294W        W32825  17.596  21.658   3.153
71295W        W32826  33.475  41.812   4.218
71296W        W32827  28.174  33.397   5.257
71297W        W32828  12.799  33.466   2.845
71298W        W32829  21.096  18.283   4.228
71299W        W32830  14.192  43.286   4.172
71300W        W32831  19.208  20.173  12.381
71301W        W32832  20.090  33.595   2.774
71302W        W32833  26.563  24.544   1.315
71303W        W32834  33.894   8.189  11.994
71304W        W32835  30.467  18.721  14.841
71305W        W32836  17.714  24.986  14.281
71306W        W32837   9.266   5.264   1.825
71307W        W32838   6.192  42.838   0.256
71308W        W32839  24.575  39.490   3.240
71309W        W32840   9.201  25.093   9.980
71310W        W32841  25.174  43.904   2.692
71311W        W32842   6.736  38.361   4.713
71312W        W32843  19.223   2.786   2.321
71313W        W32844  30.073  43.931   0.250
71314W        W32845  13.127  33.511  14.809
71315W        W32846  18.759  21.162  14.384
71316W        W32847  41.933  27.599  11.421
71317W        W32848  18.741   0.916   4.200
71318W        W32849  19.538  25.146   4.744
71319W        W32850  21.556  21.575   4.155
71320W        W32851  27.066   4.340  13.316
71321W        W32852  33.612  33.430  11.962
71322W        W32853  29.643  41.011   2.202
71323W        W32854   8.663  26.155   0.316
71324W        W32855  31.978  16.168   2.836
71325W        W32856  32.094  35.052  13.016
71326W        W32857   4.400  23.011   3.196
71327W        W32858  28.475  16.073   3.694
71328W        W32859  20.165  31.099   4.761
71329W        W32860  39.059  13.826  10.082
71330W        W32861  13.121  42.492  10.915
71331W        W32862  28.940   1.422  14.767
71332W        W32863  14.161  26.497   2.695
71333W        W32864  16.288  10.805  14.009
71334W        W32865   7.800  13.254   3.761
71335W        W32866  21.176   4.944   0.739
71336W        W32867  37.488  27.960  11.905
71337W        W32868  33.960  44.784  11.874
71338W        W32869   1.854  14.106   0.454
71339W        W32870  39.318  32.465   1.719
71340W        W32871  16.580  33.062   2.301
71341W        W32872   8.378  31.021  12.434
71342W        W32873  13.824  30.537   3.723
71343W        W32874  24.090  22.674  11.536
71344W        W32875  11.320   4.317  12.840
71345W        W32876  32.091  22.173   1.923
71346W        W32877  34.462  27.131  13.053
71347W        W32878  33.605   7.218  12.069
71348W        W32879  16.786  39.497   2.241
71349W        W32880  33.046  19.102   4.835
71350W        W32881  32.074  41.400  10.536
71351W        W32882  16.699  38.835   1.806
71352W        W32883   1.404   7.318   4.714
71353W        W32884  13.804  37.895   1.310
71354W        W32885  41.328  36.392  14.333
71355W        W32886   3.458  41.975  12.473
71356W        W32887  33.055  25.708  14.422
71357W        W32888   8.792  15.661  11.428
71358W        W32889   7.187  13.831   2.192
71359W        W32890  39.058  43.004  12.366
71360W        W32891   5.323  35.918  10.438
71361W        W32892  19.175  39.438   3.730
71362W        W32893  24.550   9.309   3.181
71363W        W32894   0.794  10.832  12.054
71364W        W32895  29.430  11.654   5.232
71365W        W32896   0.941  18.664  10.468
71366W        W32897  15.744  43.934  12.548
71367W        W32898   0.882  44.977   4.217
71368W        W32899  36.934  24.217   0.476
71369W        W32900   4.329  24.082  13.801
71370W        W32901  14.822  32.045   3.327
71371W        W32902  37.842  36.093  12.525
71372W        W32903  40.042   9.687   0.770
71373W        W32904  40.038  38.416   2.374
71374W        W32905  30.002  32.503   2.334
71375W        W32906  23.157  39.444  13.431
71376W        W32907  42.964  20.663   2.774
71377W        W32908  31.944  44.405  13.053
71378W        W32909  17.111  16.712   1.255
71379W        W32910   8.294  24.200  10.969
71380W        W32911  37.498   8.211  12.441
71381W        W32912  42.018  37.962   2.267
71382W        W32913  32.636  38.459   3.696
71383W        W32914  23.702  12.707  13.480
71384W        W32915   6.709   5.880  10.897
71385W        W32916   8.782   3.877   3.197
71386W        W32917  29.428  39.023   0.947
71387W        W32918  12.206  29.607  11.054
71388W        W32919   1.889  18.264   3.206
71389W        W32920  17.109  23.052  11.396
71390W        W32921  31.504  25.564   3.725
71391W        W32922  33.587  33.084   0.415
71392W        W32923  44.281  12.804   1.826
71393W        W32924   9.861  23.064   4.764
71394W        W32925  21.549  15.111   2.230
71395W        W32926   8.734  28.063   1.293
71396W        W32927  38.422  16.605   2.209
71397W        W32928  20.523  42.389   1.751
71398W        W32929   0.278  33.606   1.236
71399W        W32930  17.102  14.337   0.275
71400W        W32931   6.346  25.994  13.354
71401W        W32932  10.634   1.850   0.958
71402W        W32933  29.162  15.183   4.674
71403W        W32934  23.579  35.587   3.710
71404W        W32935  17.096  15.692  12.855
71405W        W32936  17.281  31.077  14.015
71406W        W32937   0.345  33.127   3.633
71407W        W32938  16.236  33.051   1.237
71408W        W32939  16.223  43.901  13.417
71409W        W32940  13.249  35.047  10.109
71410W        W32941  40.972  31.517   2.196
71411W        W32942  20.057   6.277  13.355
71412W        W32943  41.305  34.096   2.416
71413W        W32944  32.891  18.720  12.054
71414W        W32945  17.559  17.124   4.195
71415W        W32946  15.190  26.049  13.413
71416W        W32947   5.734  18.633   3.191
71417W        W32948  35.912   0.797   3.839
71418W        W32949  18.110  19.237  13.808
71419W        W32950  21.150  16.705   0.245
71420W        W32951  35.904  16.604  11.003
71421W        W32952  15.768   5.361   1.727
71422W        W32953  28.578  17.191   3.663
71423W        W32954   7.186  10.642  10.507
71424W        W32955   1.857  32.093   0.289
71425W        W32956  18.699  38.524   0.807
71426W        W32957  23.726  13.180  12.967
71427W        W32958  24.666  15.109  10.481
71428W        W32959  23.689  44.003  11.430
71429W        W32960  42.433  24.186   4.180
71430W        W32961  44.476  42.410   1.334
71431W        W32962  19.198  20.079  13.315
71432W        W32963  20.751  14.779  13.418
71433W        W32964  43.463  26.575  14.959
71434W        W32965  33.061  12.346   1.801
71435W        W32966  32.995  19.282  10.621
71436W        W32967  33.482  13.266   0.302
71437W        W32968  40.813  40.814  12.922
71438W        W32969  44.900  32.025  11.510
71439W        W32970  26.004   7.298  12.034
71440W        W32971  15.098   9.357  12.924
71441W        W32972  14.625  35.492  13.908
71442W        W32973   4.357   9.290   0.790
71443W        W32974  28.646  12.852   2.734
71444W        W32975  26.958  26.039  13.949
71445W        W32976  28.628  16.258  11.474
71446W        W32977   9.719  30.609   9.521
71447W        W32978  18.065  40.408  11.385
71448W        W32979  39.538   4.762   0.414
71449W        W32980  16.102  44.320   2.822
71450W        W32981   7.217  37.988   1.333
71451W        W32982  33.569  26.107   3.790
71452W        W32983  11.248   0.785   2.716
71453W        W32984   9.227  12.305   3.682
71454W        W32985  14.784  31.967  13.325
71455W        W32986   0.403  14.212   0.325
71456W        W32987  14.654  16.116  12.414
71457W        W32988  18.549  29.043   1.448
71458W        W32989   0.430  23.045  12.951
71459W        W32990  13.204  30.573  10.518
71460W        W32991   0.779  17.194   2.745
71461W        W32992   4.908  26.486  12.088
71462W        W32993  15.679  18.182   3.825
71463W        W32994  10.837  10.319  10.558
71464W        W32995  30.609   3.847  10.517
71465W        W32996  24.212  33.998  13.324
71466W        W32997  11.867  37.568  10.149
71467W        W32998  35.080   5.434   3.678
71468W        W32999  40.033   3.861   4.302
71469W        W33000  37.971  15.153  12.475
71470W        W33001  24.522  40.321  14.482
71471W        W33002  31.130  28.126   3.833
71472W        W33003  19.765  42.807   0.447
71473W        W33004  28.445   3.939  14.322
71474W        W33005  41.470   8.877  10.502
71475W        W33006  12.241  17.703  11.007
71476W        W33007   0.333  44.322   0.759
71477W        W33008  35.422  44.938   3.710
71478W        W33009  42.920  32.018   0.415
71479W        W33010  15.661  19.722   1.263
71480W        W33011  27.505  25.184   0.357
71481W        W33012  18.736  36.379   3.344
71482W        W33013  19.201   3.743   0.770
71483W        W33014  15.086  12.757   3.816
71484W        W33015   2.784  39.840   1.731
71485W        W33016   1.416  20.216   0.388
71486W        W33017  18.684  34.921  11.955
71487W        W33018  12.768  14.607   4.140
71488W        W33019  21.249  30.440  14.996
71489W        W33020  22.143  44.310  12.020
71490W        W33021   6.375  14.705  14.784
71491W        W33022  44.293  14.162   0.905
71492W        W33023   0.356  32.607   2.289
71493W        W33024  22.205  22.559   2.787
71494W        W33025  40.334  24.223  11.928
71495W        W33026  37.355   1.378  10.579
71496W        W33027  33.048  17.633   4.751
71497W        W33028  41.908  15.775   1.778
71498W        W33029  37.565   6.253  12.535
71499W        W33030  31.421   2.835  11.395
71500W        W33031  18.631   4.395   2.852
71501W        W33032  26.551  20.158  14.949
71502W        W33033   1.850  38.059  10.979
71503W        W33034  12.807  42.847  12.492
71504W        W33035   4.724   7.249  10.017
71505W        W33036  34.931  32.075  14.781
71506W        W33037  32.504  17.228  11.889
71507W        W33038  33.934   8.395   1.798
71508W        W33039  15.222   2.348  12.437
71509W        W33040  41.367  16.610  12.434
71510W        W33041  24.582  36.539  10.425
71511W        W33042   7.354  10.206   2.848
71512W        W33043  30.591  43.963  13.940
71513W        W33044  18.291  44.754   0.474
71514W        W33045  39.905  16.191  14.443
71515W        W33046  22.701  15.219  14.407
71516W        W33047  21.249  25.168  10.542
71517W        W33048  35.911   9.743   0.862
71518W        W33049  11.724  32.111  10.147
71519W        W33050  42.350  25.104   1.442
71520W        W33051  28.142  41.437  14.415
71521W        W33052   4.715  20.055  14.800
71522W        W33053  36.012  16.774  10.436
71523W        W33054  20.211  23.013  11.408
71524W        W33055  40.873   3.945  14.786
71525W        W33056  42.481  35.023  14.487
71526W        W33057  28.469  20.541  11.008
71527W        W33058  41.793  36.386   4.822
71528W        W33059   9.235  16.632   4.151
71529W        W33060  31.523  34.531  11.611
71530W        W33061  43.839   9.696  13.874
71531W        W33062  19.660  40.889   3.297
71532W        W33063  31.526  43.807   2.746
71533W        W33064  38.853   8.785  14.764
71534W        W33065  27.581  19.552   0.434
71535W        W33066  38.876   6.424  10.535
71536W        W33067  23.218  11.769  11.062
71537W        W33068  41.345   9.196   4.241
71538W        W33069  21.169   3.267   3.780
71539W        W33070  40.818   7.684   3.770
71540W        W33071   2.326  13.312   2.793
71541W        W33072  23.194  31.116   3.635
71542W        W33073  32.955   7.273   2.338
71543W        W33074  23.110  34.987  13.895
71544W        W33075  23.580  20.112  11.464
71545W        W33076  43.319  32.022  12.004
71546W        W33077  19.178   1.891  10.632
71547W        W33078   0.903  23.491  11.381
71548W        W33079  28.467   9.154   2.715
71549W        W33080  39.994  22.018  11.963
71550W        W33081  31.578  38.951  12.504
71551W        W33082  29.976  18.163   2.198
71552W        W33083  30.562  11.813   2.724
71553W        W33084   2.270   7.684  13.538
71554W        W33085  18.285  15.092  10.504
71555W        W33086  43.852  32.493   3.303
71556W        W33087  11.142  42.852  14.355
71557W        W33088   0.987  18.596   4.643
71558W        W33089  28.187  33.937   0.460
71559W        W33090   4.927  14.197   0.449
71560W        W33091  29.465  38.872  12.458
71561W        W33092  31.609  33.501   4.664
71562W        W33093  22.510  16.270   4.133
71563W        W33094  24.552  38.530   5.581
71564W        W33095  15.761   2.253   0.834
71565W        W33096   8.208   1.964   1.421
71566W        W33097  37.566  24.641   0.921
71567W        W33098  30.956  11.257   1.315
71568W        W33099  19.044  29.645  11.531
71569W        W33100  41.505   7.266  11.450
71570W        W33101  43.812  18.548   4.677
71571W        W33102  20.600  30.571  13.497
71572W        W33103  22.739  27.527   1.306
71573W        W33104   1.803  42.799   4.793
71574W        W33105   0.905  24.531  13.901
71575W        W33106   8.280  16.255  13.449
71576W        W33107   6.416  12.755   5.319
71577W        W33108  19.774  26.107   2.398
71578W        W33109  33.535  34.375  11.545
71579W        W33110  25.073  39.847   2.843
71580W        W33111  34.019  26.951   3.806
71581W        W33112   3.336  31.971  13.045
71582W        W33113  40.890  42.964  12.870
71583W        W33114  29.513  12.680  14.409
71584W        W33115   8.263   6.285  13.547
71585W        W33116   6.795  44.413  11.087
71586W        W33117  32.596  20.743  13.799
71587W        W33118  43.446  43.951   2.888
71588W        W33119  34.883  35.477   5.100
71589W        W33120   3.865   5.272   4.679
71590W        W33121  43.870  15.267  12.010
71591W        W33122  15.810   6.697  11.467
71592W        W33123  31.436   7.892   3.834
71593W        W33124  32.586  27.535  13.921
71594W        W33125  17.625  12.248  13.547
71595W        W33126   0.413   1.875  13.874
71596W        W33127  33.451  26.600  12.927
71597W        W33128   7.409  37.886   1.757
71598W        W33129  33.530   7.816  14.421
71599W        W33130  28.077  30.989  12.388
71600W        W33131  44.472  41.458  14.965
71601W        W33132  13.810  19.234   4.681
71602W        W33133  23.622  34.425  14.839
71603W        W33134   3.444   3.367  11.404
71604W        W33135   0.800  43.845  12.999
71605W        W33136   5.373  35.046  13.533
71606W        W33137  39.921   8.851  11.377
71607W        W33138  14.230  26.063   2.837
71608W        W33139  16.729  33.970  14.847
71609W        W33140  20.672  44.865   4.262
71610W        W33141  18.156  30.581  14.983
71611W        W33142  17.707  12.691   2.668
71612W        W33143  14.105  10.359  11.004
71613W        W33144  39.819  24.049  12.534
71614W        W33145  23.181  31.646  13.547
71615W        W33146  27.569  29.620  10.536
71616W        W33147  31.425   1.919  11.069
71617W        W33148  14.676  16.764   1.852
71618W        W33149  29.981  30.928  11.959
71619W        W33150   7.396  12.738   2.275
71620W        W33151  40.891  12.233   1.899
71621W        W33152  29.073   1.397   3.351
71622W        W33153  19.232  26.016   2.866
71623W        W33154  31.588  32.936   3.744
71624W        W33155  35.859  33.578   4.152
71625W        W33156  30.010   0.835   2.330
71626W        W33157  33.389  40.036   3.761
71627W        W33158  12.730  24.495  11.610
71628W        W33159  15.820  23.729  12.950
71629W        W33160  43.899   3.827   4.261
71630W        W33161  16.609  18.071   4.780
71631W        W33162  31.543  33.965   1.935
71632W        W33163   7.374   1.798  11.912
71633W        W33164   6.375  19.606   2.858
71634W        W33165  29.094  14.831  11.544
71635W        W33166   9.673  16.161   3.685
71636W        W33167  14.335  21.559  12.505
71637W        W33168   8.295  19.117  14.971
71638W        W33169  36.971  30.114  14.389
71639W        W33170  17.183   3.788  10.938
71640W        W33171   7.876  39.541   0.289
71641W        W33172  28.440  13.190  12.408
71642W        W33173   7.373   1.394  10.112
71643W        W33174  38.474  17.183  11.116
71644W        W33175  25.497  13.300  14.455
71645W        W33176  12.783  12.197  11.558
71646W        W33177   1.785   6.818  12.400
71647W        W33178  21.129  16.585   3.364
71648W        W33179   8.805  18.560  14.833
71649W        W33180  31.612   2.772   1.935
71650W        W33181  22.625  10.144   4.171
71651W        W33182  11.670  22.529   3.836
71652W        W33183   3.221  22.561   0.945
71653W        W33184  36.074   8.766  12.880
71654W        W33185  16.771  32.507   4.301
71655W        W33186  27.618  15.190   3.696
71656W        W33187   5.221  42.501   4.182
71657W        W33188  18.618   4.823  10.424
71658W        W33189  25.697  38.431  12.410
71659W        W33190  44.977   7.747   1.770
71660W        W33191  28.953   4.265   1.854
71661W        W33192  10.682  14.143   2.308
71662W        W33193   6.239   5.223  14.857
71663W        W33194  23.991  10.877   3.861
71664W        W33195  15.705   2.727   1.848
71665W        W33196  22.560  16.626   1.925
71666W        W33197  13.701   1.477   4.295
71667W        W33198  30.560  12.278   1.917
71668W        W33199  41.985  33.093  12.398
71669W        W33200  11.736  21.140  11.001
71670W        W33201  40.478  26.463  10.639
71671W        W33202  43.317   1.447   2.396
71672W        W33203   5.778  26.127  10.510
71673W        W33204  42.355  37.855  11.105
71674W        W33205  14.274  40.513   2.298
71675W        W33206  18.150  33.472  11.871
71676W        W33207  43.910  21.124   3.168
71677W        W33208  30.102  21.697   0.858
71678W        W33209  38.860  25.193  11.584
71679W        W33210  21.211  23.013  11.530
71680W        W33211  12.305  40.836  11.101
71681W        W33212  13.261  23.038   0.354
71682W        W33213  37.407  18.154  11.914
71683W        W33214  25.468  37.416  13.510
71684W        W33215  44.451  21.232  13.929
71685W        W33216  38.896   4.322   3.166
71686W        W33217  12.762   6.701   2.751
71687W        W33218   3.736  38.874  13.982
71688W        W33219   3.442  32.111   0.944
71689W        W33220  20.731  36.982  12.425
71690W        W33221  21.666  44.925   3.811
71691W        W33222  32.392  42.893   2.708
71692W        W33223  20.542  17.748   0.933
71693W        W33224  42.932  40.332  12.897
71694W        W33225  25.034   9.261   4.177
71695W        W33226  31.627   8.315  10.895
71696W        W33227  30.604  20.594  14.395
71697W        W33228  29.554  36.575  11.404
71698W        W33229  13.193   0.347  11.896
71699W        W33230  37.997   9.360   4.237
71700W        W33231  39.001  24.062   0.422
71701W        W33232  26.565  34.944   1.863
71702W        W33233  38.819  39.435  13.913
71703W        W33234  29.437  31.457   4.233
71704W        W33235   5.366  28.610  14.005
71705W        W33236  21.145  29.629   2.223
71706W        W33237  10.664  37.438   0.335
71707W        W33238  31.434  23.647  11.093
71708W        W33239  13.301  15.316  12.458
71709W        W33240   8.773   7.739   1.847
71710W        W33241   5.690  30.462  14.489
71711W        W33242   1.948  37.414  12.013
71712W        W33243  23.149  16.574  13.362
71713W        W33244  17.769  36.004  13.021
71714W        W33245  34.931  10.700   3.629
71715W        W33246  31.526  18.663  12.499
71716W        W33247  43.799   6.400   3.776
71717W        W33248  22.154   3.745   1.367
71718W        W33249  40.444  20.600   4.161
71719W        W33250  10.662  16.717  14.014
71720W        W33251   0.957  11.200  12.998
71721W        W33252  25.607   2.746  13.428
71722W        W33253   4.398  13.716   1.842
71723W        W33254   2.296  23.987  12.072
71724W        W33255  22.660  15.189  13.897
71725W        W33256  31.976  29.464  12.033
71726W        W33257   5.349  29.167  10.448
71727W        W33258  27.113  23.517  14.511
71728W        W33259  21.077  12.269  11.093
71729W        W33260  25.054  16.649  14.375
71730W        W33261   7.375  37.472   2.783
71731W        W33262   5.721  21.561   1.717
71732W        W33263   0.276  22.516   4.618
71733W        W33264   0.342   5.817   2.676
71734W        W33265  25.493  40.534   2.201
71735W        W33266  44.796  33.573   4.254
71736W        W33267   8.737  10.741   4.628
71737W        W33268  28.080  42.471  14.488
71738W        W33269  10.296  13.189  11.969
71739W        W33270  15.099   5.733   0.790
71740W        W33271  31.503  23.026  12.357
71741W        W33272  44.780  24.517   2.777
71742W        W33273  19.764  25.571   2.720
71743W        W33274  43.974  15.592  12.411
71744W        W33275  28.074  14.647  10.963
71745W        W33276  40.966   4.913  10.600
71746W        W33277  31.536  43.351  12.899
71747W        W33278  16.768  31.581  13.846
71748W        W33279  17.563  10.318   1.380
71749W        W33280  23.064  42.012   4.124
71750W        W33281  17.222   1.847  13.383
71751W        W33282   1.397  41.800   4.338
71752W        W33283   5.865  13.601  13.855
71753W        W33284  20.721  12.202  14.801
71754W        W33285  30.915  17.063   0.304
71755W        W33286  14.649  44.377  14.893
71756W        W33287  40.877  41.521   2.390
71757W        W33288   3.882  42.394   3.225
71758W        W33289   8.659   7.361   1.841
71759W        W33290  14.824  28.635   0.756
71760W        W33291   4.866   2.297  14.371
71761W        W33292  14.184  36.902  10.525
71762W        W33293  35.963  13.755   0.277
71763W        W33294  43.927  40.894   4.169
71764W        W33295  11.303  43.500  10.463
71765W        W33296  33.953  28.440  10.896
71766W        W33297  16.631   1.407  14.302
71767W        W33298  44.891  24.035   4.743
71768W        W33299  32.035  42.788   1.814
71769W        W33300  16.711  25.988   1.248
71770W        W33301   2.780  12.841   3.244
71771W        W33302  24.654  40.985  10.410
71772W        W33303  22.191  36.977   4.144
71773W        W33304  14.785  42.285  12.049
71774W        W33305  16.138  16.615   4.702
71775W        W33306  42.988  21.042  13.540
71776W        W33307  38.461  11.826   5.174
71777W        W33308  34.120  33.577  12.897
71778W        W33309   2.347  25.510  12.999
71779W        W33310   9.369  25.130   1.451
71780W        W33311   4.730  24.000   5.673
71781W        W33312  25.568  28.178  10.903
71782W        W33313  31.106  39.335   0.443
71783W        W33314  28.584  19.131  10.594
71784W        W33315  18.765  10.636   0.322
71785W        W33316   7.387  35.469   4.683
71786W        W33317  15.621  23.217  10.912
71787W        W33318   6.889  24.652  13.536
71788W        W33319  43.953  44.874   4.619
71789W        W33320   2.305  21.686  12.026
71790W        W33321  10.209  43.949   2.324
71791W        W33322  38.854  35.380  13.412
71792W        W33323  20.212  14.138  11.550
71793W        W33324  39.839   6.385   1.429
71794W        W33325  22.083  23.571  11.008
71795W        W33326  43.287  28.070   3.644
71796W        W33327  10.648   6.389  12.893
71797W        W33328  13.283  30.654  14.403
71798W        W33329   2.888  33.089  10.452
71799W        W33330  33.892   7.373   1.447
71800W        W33331  37.572  11.310   1.362
71801W        W33332   4.734  14.790  14.471
71802W        W33333   6.808  20.672   4.298
71803W        W33334  33.076  42.904  13.331
71804W        W33335  33.603   4.327  11.104
71805W        W33336  28.450  15.207  13.975
71806W        W33337  44.955   5.741   1.363
71807W        W33338  16.757  24.723  14.391
71808W        W33339  19.694  38.991   2.785
71809W        W33340  34.065   8.892   2.795
71810W        W33341  20.068  32.887   3.210
71811W        W33342  18.705  41.956   0.836
71812W        W33343  41.387  32.501   2.297
71813W        W33344  39.553  42.391  14.300
71814W        W33345  37.367  22.036  14.994
71815W        W33346   2.859  35.443  14.880
71816W        W33347   9.395  12.774   3.682
71817W        W33348  42.321  23.994  14.512
71818W        W33349  42.782  15.818  13.053
71819W        W33350  40.305  34.593  12.867
71820W        W33351  29.547  38.875   0.269
71821W        W33352  19.601  32.072  14.993
71822W        W33353  30.019  42.449   4.124
71823W        W33354  24.579   2.894   1.328
71824W        W33355  41.961   9.676  10.974
71825W        W33356  15.264  27.085   2.346
71826W        W33357   0.785  35.900   1.740
71827W        W33358  39.339   9.352  12.980
71828W        W33359  41.400  44.468   2.696
71829W        W33360  40.031   9.784   1.710
71830W        W33361   6.691  38.362   3.829
71831W        W33362  15.309  29.644   3.733
71832W        W33363  10.666  27.657  10.465
71833W        W33364   7.230  12.146  10.626
71834W        W33365   5.230  29.979  12.990
71835W        W33366  19.058  15.775   0.854
71836W        W33367   2.735   1.881  13.886
71837W        W33368  18.636  18.111   1.223
71838W        W33369  25.048  24.120   4.787
71839W        W33370   1.474  17.253  11.880
71840W        W33371  12.199  33.105   0.888
71841W        W33372   3.265  24.663   4.167
71842W        W33373  26.579  29.497   1.213
71843W        W33374  42.933  29.490   4.344
71844W        W33375   1.376  21.590   2.186
71845W        W33376  16.649  40.982   4.599
71846W        W33377  28.517  40.398   3.631
71847W        W33378  11.348   2.272   0.334
71848W        W33379  40.980  18.198   4.831
71849W        W33380  14.728  29.617  14.388
71850W        W33381  36.379   6.263  11.516
71851W        W33382  12.157  38.849  13.525
71852W        W33383  28.003  16.761  11.449
71853W        W33384   5.359  38.012   4.672
71854W        W33385  40.310  33.484  10.929
71855W        W33386  43.435   9.380  10.581
71856W        W33387  25.987  32.040   1.215
71857W        W33388   7.825  14.250  13.440
71858W        W33389   3.801  20.751  10.632
71859W        W33390  31.575  27.453  13.970
71860W        W33391   5.687   1.819  13.867
71861W        W33392  33.544  21.668   0.422
71862W        W33393  19.648   1.429  11.590
71863W        W33394  12.699  37.520  12.379
71864W        W33395  11.288  27.452   1.865
71865W        W33396  43.831  38.915   0.352
71866W        W33397  41.868  33.386  12.068
71867W        W33398  11.162  26.670  10.556
71868W        W33399  42.912  12.294  11.533
71869W        W33400  26.145  40.367  11.056
71870W        W33401   0.295  13.237   1.779
71871W        W33402  31.947  22.250   2.838
71872W        W33403  28.156  12.187  12.442
71873W        W33404  14.327  18.066   3.168
71874W        W33405  43.285  29.043  10.546
71875W        W33406  27.637  26.084  11.585
71876W        W33407   8.294  21.178  14.967
71877W        W33408  11.689  30.413   5.599
71878W        W33409  17.135  26.055  13.865
71879W        W33410  37.074  20.105  11.481
71880W        W33411  14.154  28.641   2.689
71881W        W33412  27.143  41.408   4.181
71882W        W33413  42.795  39.517  11.009
71883W        W33414  42.867  21.181   0.952
71884W        W33415  36.087  18.246   4.799
71885W        W33416  30.940   8.395  11.467
71886W        W33417   5.410  31.937  12.966
71887W        W33418  19.715  10.350   5.307
71888W        W33419  13.146  19.598   2.707
71889W        W33420  40.933  34.919   4.352
71890W        W33421  25.488  10.275  10.416
71891W        W33422   6.699  15.644   4.243
71892W        W33423  34.911  36.861  13.415
71893W        W33424   1.421  19.168   4.623
71894W        W33425   3.912  12.168  12.492
71895W        W33426  34.931  18.550  10.064
71896W        W33427  29.615  35.886   3.764
71897W        W33428  10.824  28.487  10.974
71898W        W33429  13.664  32.621  12.823
71899W        W33430  11.169  19.650  13.943
71900W        W33431  12.319  32.959  12.425
71901W        W33432  43.368  13.183  13.516
71902W        W33433  25.565   0.838  12.539
71903W        W33434   3.349  25.193   9.948
71904W        W33435  27.575  38.929   1.254
71905W        W33436   7.181  14.155  14.454
71906W        W33437   3.239  18.581  12.455
71907W        W33438  33.580  44.281  14.759
71908W        W33439  40.421  38.843  12.550
71909W        W33440  18.612   2.753  14.475
71910W        W33441   6.752  40.355  12.045
71911W        W33442  21.210   2.959   4.183
71912W        W33443  42.988  28.450  13.435
71913W        W33444   9.182  44.848  10.624
71914W        W33445  23.076  17.063   4.133
71915W        W33446  22.075  35.951  14.859
71916W        W33447  13.791  34.115   5.245
71917W        W33448  43.831  35.569   0.771
71918W        W33449  35.488  32.469   1.336
71919W        W33450  40.337   9.876  12.967
71920W        W33451   8.353  32.013   1.451
71921W        W33452  21.608   3.402  10.542
71922W        W33453   9.796   1.869  13.031
71923W        W33454   5.218  20.566  11.555
71924W        W33455  30.563  40.903  10.967
71925W        W33456  39.412  23.716   4.600
71926W        W33457  29.166  24.527  14.805
71927W        W33458  40.030  19.089  12.360
71928W        W33459  20.135  10.273  14.944
71929W        W33460  16.208  39.371  14.898
71930W        W33461  15.651  42.506   0.932
71931W        W33462  44.409  29.124   1.891
71932W        W33463  16.098  21.688  11.407
71933W        W33464  14.665   6.394  13.816
71934W        W33465   8.656  18.241   1.867
71935W        W33466  10.188  20.572   4.167
71936W        W33467  39.958  36.970   2.823
71937W        W33468  41.924  12.296  12.565
71938W        W33469  37.876  14.822  14.303
71939W        W33470  15.789  13.279   0.340
71940W        W33471  10.721   5.832  11.965
71941W        W33472  22.071   7.351  13.370
71942W        W33473  36.375  10.219   1.903
71943W        W33474   5.381  33.401   3.182
71944W        W33475   7.836  17.133  14.776
71945W        W33476  34.510  12.273   0.450
71946W        W33477   4.299  41.854  13.367
71947W        W33478   6.362  17.142   0.449
71948W        W33479  11.652  29.435   0.780
71949W        W33480  36.854   3.753   1.935
71950W        W33481  33.890  14.701   0.325
71951W        W33482  21.545  26.508  11.120
71952W        W33483   8.795  41.398   3.736
71953W        W33484  14.131  27.569   0.365
71954W        W33485  27.583  37.068   0.808
71955W        W33486   6.306  33.964   3.670
71956W        W33487  15.149   0.490  11.928
71957W        W33488  43.387  29.098   3.177
71958W        W33489  20.649  26.578   5.233
71959W        W33490  33.011  42.017  10.434
71960W        W33491   4.944  37.900  13.064
71961W        W33492  32.101  41.859  14.491
71962W        W33493  41.932  36.444  11.601
71963W        W33494   0.422  31.572  12.065
71964W        W33495  36.397  33.066  14.503
71965W        W33496  35.875  26.089  11.481
71966W        W33497  13.237  10.713   1.856
71967W        W33498  38.374  40.353   1.867
71968W        W33499  11.142   0.984  10.543
71969W        W33500  40.516  41.865  13.859
71970W        W33501   5.205   0.286   3.764
71971W        W33502  33.132  29.048  10.476
71972W        W33503  31.933  27.518   1.934
71973W        W33504  35.598  37.923  14.998
71974W        W33505  36.511  18.640  10.640
71975W        W33506   9.837  32.473  14.359
71976W        W33507  30.478  33.906   0.936
71977W        W33508  32.566   0.248  11.441
71978W        W33509  29.577  33.998  11.906
71979W        W33510  36.917  30.058   0.849
71980W        W33511  34.933  34.957  12.950
71981W        W33512  11.824  15.619   3.636
71982W        W33513  34.513  32.410  12.015
71983W        W33514   0.924  23.672  11.127
71984W        W33515   2.886  22.218  14.797
71985W        W33516  20.237  15.791  10.497
71986W        W33517  24.575   8.352  13.988
71987W        W33518  20.236  27.143   5.126
71988W        W33519  22.020  14.626   1.264
71989W        W33520  24.643  30.455   2.839
71990W        W33521   6.229   0.328   1.712
71991W        W33522  24.126  20.702   4.601
71992W        W33523  12.258  32.049   1.792
71993W        W33524   4.428  30.497   1.742
71994W        W33525  40.899  35.579   3.771
71995W        W33526  26.066  42.294  13.872
71996W        W33527  10.192   1.422  14.341
71997W        W33528   7.247  30.641   3.672
71998W        W33529  27.465   1.366   2.710
71999W        W33530  29.574  22.087  14.447
72000W        W33531  39.926  33.393  13.444
72001W        W33532   5.222  42.477   0.921
72002W        W33533  30.577  14.126   1.259
72003W        W33534  44.799  32.885   0.388
72004W        W33535   5.892  16.720   0.857
72005W        W33536  38.840  27.637  13.433
72006W        W33537  18.657  31.599  10.511
72007W        W33538   7.268   3.370  14.504
72008W        W33539   9.706  24.038  14.973
72009W        W33540  15.761  33.433   3.782
72010W        W33541   5.300  13.599   1.922
72011W        W33542  36.586   3.222  10.135
72012W        W33543   8.690  26.061  13.064
72013W        W33544  26.476  37.959   1.765
72014W        W33545  13.231  24.516   4.121
72015W        W33546  19.731  27.446  12.572
72016W        W33547  28.521  44.815   1.764
72017W        W33548  18.718   0.886   4.787
72018W        W33549   8.302  41.345  14.928
72019W        W33550  33.406   2.320  11.431
72020W        W33551  30.028  38.873  11.519
72021W        W33552   8.393  42.801   1.294
72022W        W33553   7.228  10.261   4.187
72023W        W33554  16.796  36.851  10.543
72024W        W33555  36.861   2.314   3.309
72025W        W33556  44.354  29.004   3.290
72026W        W33557  18.656  13.125   3.381
72027W        W33558  23.020  26.169   3.233
72028W        W33559   3.872  16.145   2.358
72029W        W33560  23.664  11.636   0.841
72030W        W33561   3.874  43.458  12.086
72031W        W33562  19.219  35.455  10.420
72032W        W33563   6.192  12.652  10.989
72033W        W33564  40.470   8.307  10.632
72034W        W33565  37.930  17.584   3.674
72035W        W33566  12.215  23.022  12.999
72036W        W33567  38.887  32.107  14.810
72037W        W33568  13.158   6.864  12.832
72038W        W33569  40.869  18.620   0.439
72039W        W33570  37.569  37.468   2.286
72040W        W33571  40.873  21.705  13.543
72041W        W33572  14.327   4.944  13.481
72042W        W33573  31.512   8.671   3.357
72043W        W33574   0.287  24.196   0.849
72044W        W33575  43.014   2.444   3.832
72045W        W33576  34.564  33.458  12.345
72046W        W33577   3.750  35.866   0.800
72047W        W33578   0.295   7.834   0.269
72048W        W33579  25.600  14.815   1.730
72049W        W33580  34.604  44.448   4.160
72050W        W33581  19.750  11.761  13.440
72051W        W33582  24.513  22.150   1.273
72052W        W33583  44.936   4.416   1.930
72053W        W33584  21.573  41.416  13.042
72054W        W33585  41.370  31.591  13.984
72055W        W33586   2.935  38.434  11.062
72056W        W33587  33.482  31.994   0.787
72057W        W33588  23.991   8.794  13.456
72058W        W33589  21.511  10.811  13.874
72059W        W33590  19.061  36.585   2.233
72060W        W33591  39.934  14.153  13.984
72061W        W33592   3.263   0.779  11.958
72062W        W33593  35.099  32.481   3.334
72063W        W33594  37.036   2.789  11.875
72064W        W33595  40.010   8.272  12.029
72065W        W33596  28.145  18.626   1.370
72066W        W33597  34.064  20.112   2.806
72067W        W33598   6.327  40.807  14.495
72068W        W33599  30.444  22.520   0.471
72069W        W33600   2.453  14.685  13.316
72070W        W33601  13.242  16.590  10.963
72071W        W33602   4.814  44.777  11.944
72072W        W33603   5.415  39.032  11.955
72073W        W33604  40.431   4.365  11.097
72074W        W33605  31.589   5.746   1.872
72075W        W33606  31.140   6.185  13.012
72076W        W33607  10.820  23.182   1.703
72077W        W33608  37.577  16.762  12.832
72078W        W33609  21.246   6.321  14.985
72079W        W33610   5.800   0.255   4.266
72080W        W33611  24.131   3.779   0.370
72081W        W33612  33.488  15.776   1.386
72082W        W33613  36.872   3.904   2.668
72083W        W33614   4.776  35.486  13.958
72084W        W33615  15.630  38.984  13.415
72085W        W33616  35.569  13.299  13.490
72086W        W33617  31.898  22.688   1.712
72087W        W33618  34.444  15.635   2.318
72088W        W33619  21.705  28.660   4.759
72089W        W33620  40.520  17.598   3.369
72090W        W33621  23.004  22.212   3.781
72091W        W33622  10.837  26.200   3.713
72092W        W33623  42.958  33.952  10.467
72093W        W33624  32.626  33.414  13.063
72094W        W33625  31.019  39.335  12.947
72095W        W33626  30.039  38.865   3.309
72096W        W33627  32.902  33.004  10.457
72097W        W33628   7.407  41.829   0.916
72098W        W33629   0.318  44.840   1.707
72099W        W33630  29.517  40.045   0.743
72100W        W33631  40.818  17.089  13.935
72101W        W33632   3.870  41.945   0.825
72102W        W33633   5.934  15.692   2.351
72103W        W33634  12.202  32.585  11.599
72104W        W33635  38.508  17.263  10.484
72105W        W33636  15.304   1.272   0.787
72106W        W33637  37.076  21.133   4.741
72107W        W33638  14.642  21.672   0.772
72108W        W33639  25.045  35.438  10.610
72109W        W33640  41.441  32.894   0.407
72110W        W33641  38.569  30.921   4.118
72111W        W33642   9.673  22.250   0.733
72112W        W33643   1.934   7.841   1.927
72113W        W33644  29.121   7.389  13.852
72114W        W33645  18.102  22.012  14.886
72115W        W33646  15.249  16.318  13.040
72116W        W33647  37.549  39.979   4.311
72117W        W33648  33.554  12.201  10.429
72118W        W33649   2.348   8.393  14.939
72119W        W33650   6.193  18.768   0.474
72120W        W33651  20.090  11.799  13.312
72121W        W33652  24.665  34.440  12.416
72122W        W33653  11.180  13.842  11.091
72123W        W33654   2.794  43.915   0.841
72124W        W33655  27.098  27.568  14.901
72125W        W33656  32.556  37.006  13.013
72126W        W33657  20.062  32.916  14.023
72127W        W33658  12.311  41.000   0.865
72128W        W33659   0.853  42.285  10.414
72129W        W33660  31.915  41.479  11.066
72130W        W33661  43.917  26.173  11.891
72131W        W33662  39.449  44.422   1.708
72132W        W33663  21.574  42.796  12.921
72133W        W33664  31.434   5.283  11.577
72134W        W33665  30.077  17.078  11.061
72135W        W33666   5.762   7.889   3.163
72136W        W33667  38.401  20.187  12.081
72137W        W33668  32.019  26.573   2.729
72138W        W33669  23.213  13.807   4.146
72139W        W33670  13.179  41.467  10.137
72140W        W33671   7.177  25.138   4.705
72141W        W33672  23.156  22.175  10.570
72142W        W33673  21.690  43.456  11.438
72143W        W33674  37.861  25.655   3.311
72144W        W33675  32.616   6.720   2.277
72145W        W33676  10.686  11.775   4.199
72146W        W33677  34.039  35.371  11.093
72147W        W33678  32.417  39.544   4.730
72148W        W33679   7.257  29.051   3.256
72149W        W33680   7.704   7.900   2.867
72150W        W33681  40.007  35.422  13.466
72151W        W33682  18.611  29.005  11.971
72152W        W33683  15.324  42.029  11.911
72153W        W33684  30.983  43.394   3.164
72154W        W33685  43.490  40.389   0.916
72155W        W33686  42.969  20.184  12.387
72156W        W33687  35.949  15.763  14.850
72157W        W33688  25.539  40.511   3.353
72158W        W33689   4.415   2.892  13.881
72159W        W33690   8.169   9.752  11.947
72160W        W33691  42.823  17.690  13.811
72161W        W33692  19.085  30.610   1.737
72162W        W33693   5.748  44.317   1.444
72163W        W33694  15.209  24.557  14.019
72164W        W33695  34.462  16.137   2.213
72165W        W33696  34.016  30.476   0.296
72166W        W33697  13.175  34.065   0.343
72167W        W33698   5.316   9.271  14.281
72168W        W33699  33.424  17.204   1.320
72169W        W33700  33.589  14.103   0.257
72170W        W33701   0.934  16.185  12.511
72171W        W33702  14.324  16.647   2.746
72172W        W33703  19.565  10.229   1.782
72173W        W33704   7.692  16.622   2.741
72174W        W33705  35.065  23.135  11.374
72175W        W33706  11.756  36.911  12.067
72176W        W33707  29.444  10.178  12.916
72177W        W33708  30.474  19.233  13.314
72178W        W33709  44.406   8.852  14.285
72179W        W33710  28.003   5.700   4.298
72180W        W33711  10.380   0.813   9.630
72181W        W33712  21.703  32.617   4.124
72182W        W33713  28.942  39.895  14.418
72183W        W33714  13.283  39.895   4.687
72184W        W33715  40.919  13.643  11.422
72185W        W33716  25.122  36.937   0.373
72186W        W33717  32.062  36.581  13.881
72187W        W33718   8.686  10.172   4.670
72188W        W33719  38.381  24.172   4.787
72189W        W33720   2.727  24.578   3.282
72190W        W33721  10.377  26.073  14.401
72191W        W33722   8.727  12.248   0.352
72192W        W33723  25.676  18.256  11.066
72193W        W33724  39.016  34.522  14.999
72194W        W33725  41.827  24.719   0.884
72195W        W33726   6.708  36.044   3.849
72196W        W33727  29.073  42.935   4.688
72197W        W33728  16.673  11.314   4.770
72198W        W33729  29.026  16.204   0.754
72199W        W33730  33.452   3.442  10.617
72200W        W33731  43.946  30.971  13.921
72201W        W33732   5.408  16.289   3.788
72202W        W33733  25.191  37.929  14.319
72203W        W33734  16.096  24.018   3.807
72204W        W33735  27.152  13.770   4.232
72205W        W33736   1.802   3.344   2.194
72206W        W33737  29.041  12.802  10.987
72207W        W33738  44.757  36.039  13.428
72208W        W33739  44.371  28.490   0.876
72209W        W33740   3.308  20.633  13.006
72210W        W33741  18.163  32.629   1.916
72211W        W33742  38.940  43.327  13.863
72212W        W33743  42.302  36.999  14.796
72213W        W33744  25.096  13.784  11.479
72214W        W33745   4.374  30.011  12.370
72215W        W33746   3.725  28.484   3.164
72216W        W33747  43.460  35.913  10.603
72217W        W33748   4.864  33.434  12.879
72218W        W33749  24.716  33.106   3.179
72219W        W33750   8.400   7.366   1.229
72220W        W33751  23.017   5.213  12.907
72221W        W33752  32.125  25.056  10.009
72222W        W33753  33.952  10.751   4.122
72223W        W33754   0.913  38.074  11.391
72224W        W33755  25.015  41.939   3.269
72225W        W33756  27.027  12.610  12.940
72226W        W33757  11.271  18.584   0.888
72227W        W33758  24.545  32.464  13.808
72228W        W33759  38.554  28.109  12.564
72229W        W33760  39.960   5.760  13.032
72230W        W33761  43.808  25.685  14.833
72231W        W33762   3.254   7.753  14.441
72232W        W33763  22.111   4.428   4.672
72233W        W33764   2.737  17.149  14.786
72234W        W33765  23.603  27.969  11.430
72235W        W33766  36.008  27.571   2.255
72236W        W33767  27.626  19.671  14.296
72237W        W33768  17.781  21.553  12.007
72238W        W33769   8.266  20.124   2.284
72239W        W33770  18.554   6.410   2.815
72240W        W33771  38.515  22.566  10.992
72241W        W33772  35.421  36.847  10.423
72242W        W33773  43.896  31.015   3.780
72243W        W33774  36.912  17.687  11.901
72244W        W33775  32.473   5.906   2.827
72245W        W33776  32.018  24.174   0.447
72246W        W33777  44.857  19.690   0.458
72247W        W33778  11.226  15.701   2.880
72248W        W33779   5.698  42.886  14.914
72249W        W33780   8.305  30.440  12.915
72250W        W33781  32.065  27.168  14.934
72251W        W33782  34.993  43.995  10.530
72252W        W33783  14.260   8.229   3.798
72253W        W33784  12.274  13.258   3.741
72254W        W33785   7.395  43.307  14.362
72255W        W33786  40.823   6.300   4.600
72256W        W33787  34.486  27.534  14.908
72257W        W33788  30.127  31.049  11.452
72258W        W33789   2.801  36.866   3.295
72259W        W33790  15.722  10.237   0.387
72260W        W33791  10.855   5.783   1.926
72261W        W33792  42.416  38.001  12.350
72262W        W33793  41.388  19.098   3.666
72263W        W33794  17.242  33.979  12.416
72264W        W33795  21.136  10.325   0.818
72265W        W33796  35.870   7.194   1.339
72266W        W33797   7.306  31.590   4.698
72267W        W33798  27.007  38.926  10.024
72268W        W33799  35.557  44.331   1.249
72269W        W33800  38.067  35.081   1.932
72270W        W33801  30.090  21.739  12.825
72271W        W33802  13.780  41.019  13.890
72272W        W33803  22.128  42.788   1.929
72273W        W33804  36.364  23.986  11.402
72274W        W33805  42.479   9.188   3.739
72275W        W33806  26.158  41.301  12.580
72276W        W33807  13.214  16.673  13.053
72277W        W33808  11.725   8.700  14.485
72278W        W33809  18.671   8.324  12.072
72279W        W33810  25.663   0.877   1.774
72280W        W33811  32.459  28.982   3.273
72281W        W33812   6.871  10.355  12.391
72282W        W33813  19.260  21.051  14.427
72283W        W33814   7.256  21.516   2.811
72284W        W33815  36.588  40.834  12.938
72285W        W33816  42.858  24.693   3.213
72286W        W33817  34.111  39.009   1.778
72287W        W33818   9.751  28.625  12.893
72288W        W33819  12.700  23.590   2.666
72289W        W33820  23.985  40.362   0.967
72290W        W33821  44.503   1.785   1.933
72291W        W33822  41.293  17.677  13.348
72292W        W33823  38.469  29.609   4.719
72293W        W33824  10.252  31.961   3.277
72294W        W33825  22.023   9.310   2.735
72295W        W33826   9.246  15.279  12.849
72296W        W33827  11.751  14.649   0.243
72297W        W33828  15.176   0.929  11.497
72298W        W33829  17.121  28.069  14.511
72299W        W33830  26.679  40.434   0.908
72300W        W33831  11.651   0.303   3.204
72301W        W33832  26.071   3.304   0.818
72302W        W33833  29.581  23.694  13.989
72303W        W33834  24.135  31.596  13.330
72304W        W33835  14.169  11.727   0.779
72305W        W33836  16.705  23.006   5.567
72306W        W33837  13.784  39.435   3.713
72307W        W33838  29.146  16.693   3.694
72308W        W33839  15.776  18.621   3.757
72309W        W33840  25.647  25.120  10.960
72310W        W33841  10.337  13.765  12.902
72311W        W33842  37.019  23.238  14.959
72312W        W33843  16.303  17.604   2.873
72313W        W33844  37.508  27.465  10.940
72314W        W33845  41.922  18.616  14.297
72315W        W33846  15.823  42.512  10.498
72316W        W33847  39.353   1.974   1.822
72317W        W33848   2.341  40.358  12.904
72318W        W33849  15.614  28.591   4.347
72319W        W33850  41.862  36.549  14.933
72320W        W33851  32.109  12.740   1.366
72321W        W33852  26.475  44.756  11.393
72322W        W33853  19.183  28.444  13.943
72323W        W33854  18.143  30.989  14.486
72324W        W33855   4.398  17.291   1.711
72325W        W33856  38.916  34.100  10.636
72326W        W33857  33.996   0.983   0.246
72327W        W33858  23.194  22.738   4.207
72328W        W33859  36.461  28.083  13.891
72329W        W33860  22.153   3.242   3.688
72330W        W33861  11.172   7.712   4.284
72331W        W33862  39.991  39.877  13.014
72332W        W33863  39.916  13.172  11.043
72333W        W33864  12.288  10.234  10.529
72334W        W33865  38.003  37.934   4.345
72335W        W33866  32.609  32.406   0.910
72336W        W33867  17.228  27.966   5.250
72337W        W33868  20.086  22.618  10.637
72338W        W33869   6.386  11.318   2.753
72339W        W33870  36.897  15.592  12.535
72340W        W33871  12.746  11.137  10.619
72341W        W33872  38.496  12.326   3.379
72342W        W33873  26.190  34.541   2.272
72343W        W33874   7.695  11.319  12.036
72344W        W33875  40.468  30.936  10.560
72345W        W33876  27.504  24.572  13.970
72346W        W33877  19.666   4.278   1.755
72347W        W33878  23.716  21.222   2.861
72348W        W33879   3.279  26.038  13.933
72349W        W33880  31.596  19.650   2.307
72350W        W33881  12.673  20.029  12.536
72351W        W33882  21.064   3.884   3.684
72352W        W33883  18.067  40.996  12.005
72353W        W33884  19.610  20.724  11.469
72354W        W33885   8.827  33.424  13.844
72355W        W33886   4.935  38.843  14.761
72356W        W33887   6.676  23.569  14.348
72357W        W33888   9.159   6.683  12.891
72358W        W33889  13.229  23.082   3.731
72359W        W33890  38.384  36.360  12.921
72360W        W33891  20.141  11.835  10.010
72361W        W33892   3.376  20.614  14.939
72362W        W33893  23.169  39.912   1.795
72363W        W33894  14.141  34.452   0.256
72364W        W33895   6.427   8.304  10.484
72365W        W33896  29.062  38.945   4.751
72366W        W33897  42.422  15.162   2.201
72367W        W33898  19.683   4.758  15.000
72368W        W33899   8.734  36.365  14.300
72369W        W33900  19.543   2.432   0.433
72370W        W33901  21.682  24.084   4.183
72371W        W33902  27.625  28.085   3.229
72372W        W33903   5.226  35.029   0.874
72373W        W33904  14.629  28.165  11.969
72374W        W33905  35.022  26.037  11.549
72375W        W33906  43.403  40.816  11.900
72376W        W33907  39.885  28.068   0.317
72377W        W33908   6.184  35.540   3.676
72378W        W33909  10.691  30.583   4.814
72379W        W33910  13.659   6.324  14.456
72380W        W33911  10.836   7.370  14.463
72381W        W33912  30.089  21.641   4.246
72382W        W33913  28.186  32.062  10.041
72383W        W33914  25.178  42.300   3.225
72384W        W33915  43.437  15.731  14.401
72385W        W33916   4.301  37.476   2.397
72386W        W33917  36.364   6.265  11.082
72387W        W33918  13.837  37.910   3.199
72388W        W33919  19.597   4.736   9.972
72389W        W33920  35.108  43.367  10.950
72390W        W33921  24.111  43.377   4.280
72391W        W33922  31.025  29.984   4.800
72392W        W33923   0.268   6.204  10.930
72393W        W33924  28.028  25.695  10.408
72394W        W33925  41.793  38.052   2.728
72395W        W33926  10.661  38.335  13.368
72396W        W33927  30.982  10.301  13.821
72397W        W33928  23.052  23.526  13.412
72398W        W33929  24.557  24.067  14.511
72399W        W33930   7.257  44.284  11.999
72400W        W33931  14.830   4.821   1.785
72401W        W33932  37.415  35.585  14.950
72402W        W33933   3.896  24.215   0.907
72403W        W33934  10.200  20.531   4.782
72404W        W33935  16.244  23.022  10.110
72405W        W33936  42.937  27.170   1.774
72406W        W33937  43.398  11.296  13.997
72407W        W33938  28.646  30.086  11.936
72408W        W33939  34.583  25.012  12.536
72409W        W33940   7.674  37.406   3.694
72410W        W33941  22.734  21.222   3.161
72411W        W33942  35.073  42.946   2.722
72412W        W33943  26.074  36.885  11.031
72413W        W33944  29.615  12.299  13.323
72414W        W33945  15.598  29.457  13.495
72415W        W33946   4.838  24.481   1.863
72416W        W33947  25.489  19.596  13.801
72417W        W33948   0.985   4.920  13.309
72418W        W33949  34.961  25.072  11.441
72419W        W33950  31.108  10.203  14.997
72420W        W33951  21.528  18.070  14.889
72421W        W33952  20.607  27.160  11.127
72422W        W33953  12.838  40.038  13.930
72423W        W33954   4.350  37.066  11.948
72424W        W33955  38.382  44.430   2.202
72425W        W33956   0.987  30.645  10.055
72426W        W33957  15.148  40.476   1.257
72427W        W33958  36.561  40.433   5.787
72428W        W33959   7.250  18.261   4.636
72429W        W33960   3.809   8.676  11.495
72430W        W33961  33.959   2.956  11.578
72431W        W33962   7.195  18.176   3.870
72432W        W33963  30.509  29.034  11.564
72433W        W33964  44.962   9.377  13.813
72434W        W33965  16.304  26.511   1.320
72435W        W33966   0.770   3.392   1.797
72436W        W33967  27.134  29.562  13.444
72437W        W33968  12.252  17.659  12.077
72438W        W33969  38.051  28.085  14.292
72439W        W33970  44.793   8.852   1.370
72440W        W33971   5.287   1.284   2.850
72441W        W33972   1.251  14.190  13.867
72442W        W33973  22.735   4.434   4.800
72443W        W33974  20.609  21.134   1.333
72444W        W33975  42.002  24.652   3.338
72445W        W33976  25.073  33.579   1.705
72446W        W33977  36.485  18.219  13.380
72447W        W33978  32.084  34.504   2.840
72448W        W33979  12.808  13.229   2.182
72449W        W33980  10.288  25.582  12.082
72450W        W33981   2.269  24.043   0.278
72451W        W33982   7.195  10.828   1.727
72452W        W33983  15.610   3.415   9.986
72453W        W33984  42.842  16.155   0.765
72454W        W33985  39.022  34.931   0.958
72455W        W33986  19.765   0.958  12.558
72456W        W33987  41.448   0.439  13.936
72457W        W33988  41.958  28.087   0.276
72458W        W33989  39.401   7.798   3.236
72459W        W33990  23.725  13.609   4.195
72460W        W33991  17.131  29.068  12.024
72461W        W33992  24.982   7.383  12.533
72462W        W33993  14.301  44.770   3.186
72463W        W33994  12.842   9.289   4.826
72464W        W33995  24.195  20.227  10.964
72465W        W33996  28.993  30.471  14.351
72466W        W33997  35.368  20.171  13.883
72467W        W33998  42.526   4.881   4.203
72468W        W33999  40.439  15.226   0.404
72469W        W34000  39.903   1.243  10.576
72470W        W34001  15.787  15.157  14.847
72471W        W34002  24.984  40.437   0.439
72472W        W34003  19.075  37.410  12.963
72473W        W34004  35.002  34.583  12.476
72474W        W34005  24.044  23.014  14.939
72475W        W34006   3.850  44.285   0.266
72476W        W34007  37.397  42.858   3.714
72477W        W34008  36.427  26.546  11.452
72478W        W34009  33.892   6.213   3.642
72479W        W34010  11.783   5.211   3.233
72480W        W34011  38.849  22.072   0.254
72481W        W34012  14.302  40.895  14.456
72482W        W34013  39.980  24.644   1.293
72483W        W34014  13.801   0.353  14.279
72484W        W34015  10.676   8.814  13.896
72485W        W34016  11.197   7.795  12.960
72486W        W34017  24.689  22.245   4.170
72487W        W34018  42.997   2.234   0.839
72488W        W34019  35.492  37.975   1.871
72489W        W34020   5.758  37.517  11.916
72490W        W34021  34.504  11.349  14.875
72491W        W34022  33.396  43.940  13.426
72492W        W34023  30.475  12.301   4.808
72493W        W34024  13.214  41.938  14.862
72494W        W34025  27.650  33.458   4.217
72495W        W34026  22.053  40.401   0.762
72496W        W34027  34.880  27.611   1.856
72497W        W34028   3.395  42.495   1.349
72498W        W34029  25.993  14.267   2.845
72499W        W34030   2.233   9.784   1.903
72500W        W34031  20.525  12.202   2.178
72501W        W34032  44.944  22.585   4.193
72502W        W34033  27.945  40.302  14.302
72503W        W34034  10.698  35.400   4.312
72504W        W34035  11.146  44.922  11.522
72505W        W34036  13.836   6.683  14.808
72506W        W34037  29.504  13.632  13.970
72507W        W34038  41.350  42.966  11.437
72508W        W34039  24.518  11.663  11.927
72509W        W34040  24.066  15.239  14.790
72510W        W34041  13.146  24.488  14.833
72511W        W34042   5.789   4.817   4.788
72512W        W34043  17.644  29.479   0.858
72513W        W34044  24.166   7.251   2.721
72514W        W34045  30.595  27.560  10.568
72515W        W34046  17.129  41.906  11.522
72516W        W34047   6.818  15.178   1.735
72517W        W34048   9.205  20.149  14.900
72518W        W34049   3.869  43.844  13.876
72519W        W34050  29.054   6.732  11.974
72520W        W34051  39.046  22.165  10.443
72521W        W34052  26.650  11.227   2.888
72522W        W34053  42.384  41.320   3.156
72523W        W34054  17.753  43.505  13.043
72524W        W34055   5.773   3.812   3.760
72525W        W34056  38.978  24.011  13.516
72526W        W34057  31.022  18.112   1.747
72527W        W34058  23.735  39.871   0.928
72528W        W34059  32.476  40.548  10.606
72529W        W34060  12.280   5.879  10.516
72530W        W34061  18.229  14.833  14.810
72531W        W34062  17.758  16.574   1.734
72532W        W34063  29.989  38.532  11.518
72533W        W34064   5.804  23.517   4.618
72534W        W34065  19.599   0.970  13.380
72535W        W34066  36.841  43.870   2.397
72536W        W34067  14.276  34.504  14.978
72537W        W34068   0.464   1.857  11.412
72538W        W34069   2.237   0.434   3.159
72539W        W34070  26.597  17.767   0.934
72540W        W34071  23.121  32.956  14.796
72541W        W34072  15.293  30.617   4.155
72542W        W34073  26.574   8.318  14.882
72543W        W34074  18.268  33.127  11.917
72544W        W34075  17.562  20.185   1.256
72545W        W34076  31.144  15.600  11.987
72546W        W34077  32.017  13.122   2.410
72547W        W34078  10.300   3.400   5.787
72548W        W34079  21.190  17.183  11.456
72549W        W34080  18.788   0.808   5.218
72550W        W34081  10.660   3.401   5.138
72551W        W34082   7.792  33.578  11.869
72552W        W34083  35.071  29.427   4.218
72553W        W34084  25.495  19.045  14.890
72554W        W34085   9.722  11.794   4.617
72555W        W34086  29.099   9.826  11.455
72556W        W34087  24.174  12.798   2.212
72557W        W34088  15.735  39.836   5.130
72558W        W34089   6.235   7.881  13.828
72559W        W34090  44.841  20.222  10.438
72560W        W34091  43.994  18.570   1.297
72561W        W34092  43.442  38.955  11.919
72562W        W34093  31.518  17.119   1.903
72563W        W34094  37.053  28.039   2.339
72564W        W34095  13.287  21.126  13.451
72565W        W34096  37.490  13.625  13.469
72566W        W34097  26.960  31.133  10.134
72567W        W34098  34.452   6.296   3.385
72568W        W34099  13.240   5.212   4.614
72569W        W34100  12.740  40.448   1.786
72570W        W34101  37.911  11.796   2.380
72571W        W34102  17.250   1.333   4.161
72572W        W34103   0.970   5.725   4.126
72573W        W34104  10.768  27.586   0.752
72574W        W34105   7.277  36.932   3.290
72575W        W34106   6.373  39.886   4.643
72576W        W34107  18.733  31.988  12.476
72577W        W34108   5.207  32.562  13.039
72578W        W34109  28.462  44.868   4.610
72579W        W34110  23.677  29.528   3.355
72580W        W34111  44.821  41.979  12.028
72581W        W34112   1.468   4.417   1.392
72582W        W34113  29.446  35.859  14.341
72583W        W34114  16.596  41.433   2.269
72584W        W34115   2.278  33.075  13.975
72585W        W34116  24.551   1.797  12.434
72586W        W34117  32.086  42.505  10.891
72587W        W34118  34.883   8.677   0.778
72588W        W34119  24.604  34.481   2.255
72589W        W34120  40.855   7.803  12.559
72590W        W34121  25.202   8.373   2.394
72591W        W34122  16.771   2.435   2.247
72592W        W34123  39.060   4.214   1.331
72593W        W34124   5.739  38.570  10.521
72594W        W34125  39.820  40.825   1.366
72595W        W34126  28.459  10.293   3.361
72596W        W34127  16.622   4.776   4.259
72597W        W34128  24.622  22.656   0.803
72598W        W34129  42.905  37.418   3.295
72599W        W34130   7.783   9.165   3.820
72600W        W34131  22.151  23.165   4.208
72601W        W34132  31.063   6.319   3.333
72602W        W34133  33.088   9.249  12.057
72603W        W34134  41.450  25.678  11.433
72604W        W34135  32.545  33.050  14.477
72605W        W34136  27.449  14.314  13.335
72606W        W34137  15.759  15.144   0.350
72607W        W34138  34.943  43.480  10.432
72608W        W34139  12.294  29.934  13.893
72609W        W34140  27.604   9.271   2.768
72610W        W34141  13.837  22.632  10.573
72611W        W34142   9.846   4.779  13.458
72612W        W34143  19.176  36.022   3.157
72613W        W34144  11.815  39.955   4.134
72614W        W34145  21.018  23.101  13.527
72615W        W34146  32.895  20.543  13.043
72616W        W34147  12.127  30.035  14.802
72617W        W34148   2.271  15.130  11.427
72618W        W34149  21.658  35.884   3.201
72619W        W34150   6.839  18.573   2.256
72620W        W34151   0.335  36.395  11.384
72621W        W34152  16.244  31.453  14.484
72622W        W34153  39.328  44.827   1.300
72623W        W34154  22.147   0.443  11.879
72624W        W34155  29.075  29.099   2.764
72625W        W34156  30.023  32.132  13.822
72626W        W34157  37.063  39.371  11.958
72627W        W34158  39.416  34.114  10.636
72628W        W34159   9.231  13.318   3.849
72629W        W34160   3.884  27.010  13.801
72630W        W34161  23.704  24.497   3.684
72631W        W34162  40.398  42.969   1.282
72632W        W34163  19.537  21.250   0.448
72633W        W34164  24.029   0.949   0.280
72634W        W34165  19.706  17.582   0.451
72635W        W34166   6.423   5.259  11.544
72636W        W34167  17.065  16.184  13.873
72637W        W34168  29.466  10.814   2.356
72638W        W34169  10.351  29.056  12.001
72639W        W34170  41.850  21.683  11.910
72640W        W34171  25.565  11.848   1.730
72641W        W34172  12.249   5.704   3.217
72642W        W34173  23.624  19.649   4.326
72643W        W34174   3.715  40.951  12.070
72644W        W34175  11.235   1.788   1.865
72645W        W34176  13.699  35.049  11.522
72646W        W34177  38.330  37.366   2.840
72647W        W34178  30.658  10.829  11.426
72648W        W34179   4.876  14.101  10.578
72649W        W34180  19.644  34.033  14.456
72650W        W34181  24.195  43.981  13.508
72651W        W34182  43.392  36.856   3.655
72652W        W34183   5.262   6.397   3.197
72653W        W34184  37.016  26.483   4.234
72654W        W34185  37.922  14.303   0.400
72655W        W34186  41.008  24.599   0.934
72656W        W34187  31.647  39.037   4.781
72657W        W34188  16.092  43.429   1.368
72658W        W34189  39.989  14.241   2.701
72659W        W34190  10.709  13.244  10.569
72660W        W34191  34.022  15.725   4.242
72661W        W34192  26.604  34.896   2.272
72662W        W34193  43.426  38.858  12.390
72663W        W34194  38.366  25.019   4.227
72664W        W34195  21.737  24.990  12.482
72665W        W34196  24.717  29.077   9.928
72666W        W34197   4.383   1.467  14.507
72667W        W34198  30.548  44.300   4.731
72668W        W34199  30.442  36.374  11.889
72669W        W34200   2.455  28.474  11.100
72670W        W34201  27.561  24.035  11.873
72671W        W34202  22.680  34.584   3.678
72672W        W34203  44.290  36.393  14.432
72673W        W34204  38.490  23.577   2.727
72674W        W34205  17.254  34.023   1.322
72675W        W34206  35.024  26.607   2.326
72676W        W34207  44.412   0.374  13.878
72677W        W34208  16.221   5.303   0.858
72678W        W34209  36.414   5.198  10.417
72679W        W34210  28.063   1.849  13.405
72680W        W34211  12.155  26.034  11.561
72681W        W34212   3.277  27.572   3.343
72682W        W34213  24.704  32.055   1.414
72683W        W34214  30.008  44.843  14.318
72684W        W34215  39.824   3.420   3.727
72685W        W34216   4.405  40.431   2.310
72686W        W34217  25.101  32.496   5.100
72687W        W34218   3.354   5.869  10.643
72688W        W34219  12.232  42.948  14.899
72689W        W34220  14.319   7.694  12.354
72690W        W34221  11.653   4.213  12.916
72691W        W34222   5.752   2.240   0.790
72692W        W34223  32.468  39.399  13.805
72693W        W34224  18.201   0.757   2.823
72694W        W34225   0.386  42.397   0.789
72695W        W34226   1.970  35.913   0.342
72696W        W34227   4.418   9.656   3.788
72697W        W34228  18.056  16.744   3.276
72698W        W34229  41.013  29.159   4.832
72699W        W34230  17.261   2.242  14.796
72700W        W34231  16.582  33.421  13.360
72701W        W34232  20.071  36.508  13.497
72702W        W34233   6.275  27.569  10.502
72703W        W34234  19.675  29.057   3.154
72704W        W34235  23.123  14.095   0.882
72705W        W34236  23.585  20.642  11.997
72706W        W34237  36.391   9.674   0.282
72707W        W34238  41.452   2.274  14.015
72708W        W34239  38.544   5.789  13.943
72709W        W34240  40.942  30.088   4.812
72710W        W34241  15.130  44.885   0.370
72711W        W34242  26.666  29.465  10.625
72712W        W34243  40.915   2.754  13.542
72713W        W34244  33.395  15.714   3.297
72714W        W34245  38.487  38.526   0.812
72715W        W34246  31.423  13.812  12.497
72716W        W34247  32.526  11.349  14.322
72717W        W34248  18.714  27.944  12.002
72718W        W34249  12.669  26.486  10.469
72719W        W34250  42.451  18.769  14.820
72720W        W34251  13.679  17.065  13.481
72721W        W34252  28.677  36.909   4.184
72722W        W34253   0.754  39.920  14.486
72723W        W34254  34.073  30.541   4.114
72724W        W34255   6.869   8.390  14.343
72725W        W34256  30.020  40.302  10.418
72726W        W34257   8.691  32.498   2.301
72727W        W34258  16.192  33.067   5.215
72728W        W34259  36.501   7.188  14.432
72729W        W34260  40.912  17.633  14.774
72730W        W34261  32.101  12.213  10.993
72731W        W34262  28.667  10.200   1.326
72732W        W34263  23.071  35.040   1.867
72733W        W34264  43.838  32.400  12.922
72734W        W34265   4.215  37.480  10.530
72735W        W34266  28.172   7.902   1.298
72736W        W34267  34.039  39.029  10.476
72737W        W34268   7.722  12.353  12.870
72738W        W34269  18.632  19.549   1.909
72739W        W34270  19.763  37.907   4.793
72740W        W34271  20.255  43.428   0.758
72741W        W34272  41.427   6.245   3.740
72742W        W34273   3.918  16.301  13.920
72743W        W34274  39.047  22.201   3.293
72744W        W34275  12.184  32.963   1.312
72745W        W34276  14.155  24.212   0.410
72746W        W34277  31.912  40.834   2.842
72747W        W34278  30.464  11.731  10.154
72748W        W34279  21.108   5.260   1.785
72749W        W34280  10.325  10.358  11.507
72750W        W34281  13.726  39.527   1.839
72751W        W34282   1.331  28.651  10.592
72752W        W34283  17.579  26.467  11.502
72753W        W34284  29.512   6.219  11.059
72754W        W34285  36.023  10.144   0.470
72755W        W34286  36.057  18.675   4.229
72756W        W34287  22.182  20.044  14.866
72757W        W34288  36.429   7.379   2.220
72758W        W34289  25.057  28.171   3.254
72759W        W34290  32.415  10.362  10.986
72760W        W34291  23.158  36.908  12.542
72761W        W34292  42.943  23.584   2.194
72762W        W34293  36.938  43.934   3.339
72763W        W34294  17.139  17.646   1.409
72764W        W34295  28.549  29.519  13.533
72765W        W34296  42.808  15.146   2.304
72766W        W34297  10.689   4.831   5.165
72767W        W34298  25.512   9.224  11.106
72768W        W34299  20.579  32.417   4.712
72769W        W34300  32.056  19.711   4.176
72770W        W34301   9.365  27.635  14.387
72771W        W34302  14.791  44.770  11.505
72772W        W34303  40.481  17.234  11.439
72773W        W34304  35.518  43.882  11.612
72774W        W34305   5.193  21.217   2.327
72775W        W34306  30.090  42.942   2.784
72776W        W34307  15.778  33.069   1.355
72777W        W34308  17.712   3.761   3.765
72778W        W34309   3.760   1.921  14.296
72779W        W34310  22.649   8.253  14.981
72780W        W34311  30.596   4.260   4.807
72781W        W34312  22.182  25.617   2.255
72782W        W34313  41.431  34.959  12.009
72783W        W34314   2.774  16.734   3.187
72784W        W34315  23.728  35.088   2.211
72785W        W34316  15.608  28.173   5.199
72786W        W34317   7.381   2.305  12.894
72787W        W34318  41.459   6.884   2.274
72788W        W34319  14.175  23.002   0.327
72789W        W34320  42.844  32.519  10.995
72790W        W34321   6.764  23.518   4.598
72791W        W34322  10.791  26.075  11.028
72792W        W34323   6.807  35.499   2.211
72793W        W34324   3.917  41.786  13.061
72794W        W34325  16.314  15.779   3.630
72795W        W34326   2.742  39.966  11.513
72796W        W34327  22.243   7.849  13.873
72797W        W34328  44.966   4.412  13.372
72798W        W34329  16.267  15.595  11.531
72799W        W34330  31.464  36.396  13.951
72800W        W34331  35.935  12.755  11.425
72801W        W34332  18.109  38.904  13.374
72802W        W34333   7.344  34.484  11.058
72803W        W34334  19.062  32.103  14.999
72804W        W34335  42.946  42.286  10.541
72805W        W34336  36.446  21.555  10.446
72806W        W34337  23.727   9.644  10.425
72807W        W34338  43.928   4.915  12.947
72808W        W34339  33.992  38.020  11.548
72809W        W34340  10.223   7.724   2.896
72810W        W34341  11.310  28.042  14.472
72811W        W34342   3.830  10.322  12.960
72812W        W34343  16.219  14.720  12.546
72813W        W34344  40.802  12.778  12.965
72814W        W34345  11.168  28.085  10.912
72815W        W34346  22.728   1.767  10.975
72816W        W34347  20.203  18.104   0.727
72817W        W34348  41.967  10.817  13.897
72818W        W34349  11.172  44.303   0.907
72819W        W34350  24.613   6.221   3.217
72820W        W34351  14.616   5.714  10.589
72821W        W34352   6.836  15.646   1.320
72822W        W34353  30.098  30.591  11.505
72823W        W34354  43.828   0.436  11.906
72824W        W34355  39.013  44.322  10.613
72825W        W34356  39.363  39.955   2.217
72826W        W34357  43.508  25.646   1.774
72827W        W34358  33.020   6.870   4.349
72828W        W34359  20.127  37.411   3.269
72829W        W34360  36.881  14.722  13.330
72830W        W34361   5.781  11.223  11.990
72831W        W34362   1.939  36.350   1.731
72832W        W34363   4.865  29.141   5.117
72833W        W34364  38.875   4.854   3.795
72834W        W34365   7.871   0.933  11.120
72835W        W34366  24.114  43.305   4.618
72836W        W34367   8.787  15.086   0.768
72837W        W34368  43.797  25.215  13.986
72838W        W34369  16.571   2.350   3.365
72839W        W34370  36.053  32.129  13.431
72840W        W34371  25.160  11.251  14.315
72841W        W34372  42.782  19.640  14.287
72842W        W34373   7.202  13.825  13.026
72843W        W34374  40.008   1.312   0.474
72844W        W34375   7.827  28.677  11.009
72845W        W34376  31.141  44.447   3.803
72846W        W34377  12.242  10.648   1.869
72847W        W34378  24.001  39.477   2.843
72848W        W34379  11.719  30.435  11.945
72849W        W34380  14.241   8.223   2.221
72850W        W34381   1.461  17.676   4.761
72851W        W34382  11.191   4.246  11.947
72852W        W34383  11.761  32.932   4.806
72853W        W34384  39.535   7.738   2.707
72854W        W34385  19.587  38.504   5.638
72855W        W34386  20.122  16.250   2.674
72856W        W34387  15.279  26.990   1.888
72857W        W34388  39.024   9.870   3.664
72858W        W34389  26.023  23.579  12.978
72859W        W34390   7.855  26.599   4.618
72860W        W34391  34.604  33.467   2.778
72861W        W34392  21.710  31.539  14.934
72862W        W34393  28.613   1.283   0.904
72863W        W34394  13.324  22.172  12.915
72864W        W34395   1.832  31.498  12.388
72865W        W34396  27.142  13.151  10.567
72866W        W34397  30.980   6.294  14.389
72867W        W34398  23.652  27.124   0.401
72868W        W34399  23.696  21.235  13.460
72869W        W34400  16.763  33.625   3.228
72870W        W34401  24.221  32.099   4.188
72871W        W34402  29.082   9.753   4.347
72872W        W34403  41.830  11.818  13.050
72873W        W34404   9.351  26.057   3.208
72874W        W34405  27.531  14.246   3.710
72875W        W34406  19.199   6.356  10.989
72876W        W34407  19.694  30.632  13.998
72877W        W34408  31.960  19.642  12.538
72878W        W34409  22.738  41.321   1.251
72879W        W34410   3.920   0.949  14.415
72880W        W34411   2.772  11.359   4.264
72881W        W34412  32.132   6.362   1.924
72882W        W34413  35.857  24.560  14.294
72883W        W34414  36.942  38.357   9.538
72884W        W34415  32.028  39.399   3.674
72885W        W34416  15.643  19.225  11.394
72886W        W34417   2.832  39.446  13.876
72887W        W34418  21.570  19.568   2.406
72888W        W34419  22.190  23.049  12.553
72889W        W34420   0.399  13.694  12.368
72890W        W34421  32.432  11.365   0.370
72891W        W34422  25.703  13.693  14.801
72892W        W34423  44.840   1.855   3.789
72893W        W34424  30.618  22.562   2.400
72894W        W34425  32.521  42.517   2.751
72895W        W34426  32.905  29.032  10.941
72896W        W34427  28.992   5.769  10.126
72897W        W34428  21.540   1.748   1.258
72898W        W34429  39.424  28.953   4.122
72899W        W34430  17.104  36.362  10.511
72900W        W34431  38.052  32.537   1.423
72901W        W34432  30.597   1.740  11.450
72902W        W34433  25.092  24.199   0.768
72903W        W34434  33.476  21.655  14.284
72904W        W34435  20.124  23.598  14.985
72905W        W34436  19.207  26.180  13.319
72906W        W34437  16.669  26.588  14.503
72907W        W34438  36.982  29.547   3.211
72908W        W34439  31.080  39.907   0.726
72909W        W34440  24.009  28.527  11.928
72910W        W34441  32.989  44.461  14.441
72911W        W34442  42.829  20.145   1.843
72912W        W34443   2.240  11.133  12.579
72913W        W34444  10.354  25.969   0.400
72914W        W34445   6.856  15.226   2.799
72915W        W34446  36.054   8.315  13.357
72916W        W34447  13.139  11.251   2.285
72917W        W34448  22.147  41.980   2.313
72918W        W34449  40.505  36.078  13.397
72919W        W34450  10.821  40.859   1.220
72920W        W34451  43.975  18.658  13.910
72921W        W34452  10.363  40.506  11.960
72922W        W34453   7.740  39.026   2.309
72923W        W34454  23.185  22.140  11.994
72924W        W34455  37.442  41.350   2.708
72925W        W34456  42.292  41.341  14.320
72926W        W34457  27.955  28.152  14.310
72927W        W34458  12.706   4.348   2.192
72928W        W34459  33.875  11.853  12.844
72929W        W34460   4.882  33.579   4.168
72930W        W34461   2.457   8.686  10.997
72931W        W34462   0.392  36.483  12.870
72932W        W34463   2.456  23.624  14.482
72933W        W34464  22.728   5.805  11.115
72934W        W34465  40.368  35.921  14.928
72935W        W34466  19.746  19.061   4.598
72936W        W34467  33.063  26.689   2.679
72937W        W34468   0.294  38.917  12.929
72938W        W34469  41.834  22.675  12.404
72939W        W34470  27.973  34.564  11.112
72940W        W34471  27.943  15.793   4.210
72941W        W34472  20.082  16.308   0.830
72942W        W34473  33.540  34.009   0.857
72943W        W34474  21.698   1.357  10.461
72944W        W34475   9.340  23.714   4.753
72945W        W34476  38.344  32.998  11.119
72946W        W34477   1.784   9.340  11.563
72947W        W34478  23.603  11.192  12.048
72948W        W34479  29.439  29.021   1.834
72949W        W34480  28.525  19.197  13.480
72950W        W34481   7.870  37.881  12.062
72951W        W34482   1.843  31.592   0.437
72952W        W34483  14.225   5.749   4.832
72953W        W34484  30.518  44.389  14.498
72954W        W34485  43.275  41.807   3.641
72955W        W34486  33.092  41.019   1.743
72956W        W34487  13.650  28.160  12.834
72957W        W34488   4.250   0.786  11.861
72958W        W34489   9.787  36.406  13.500
72959W        W34490  31.571   9.276  11.027
72960W        W34491   6.687  11.335   2.262
72961W        W34492  19.183  15.636   1.929
72962W        W34493  14.713  13.202  11.498
72963W        W34494   8.254   2.324   3.317
72964W        W34495  43.453   7.807  13.956
72965W        W34496  25.595  20.540   4.761
72966W        W34497   8.758  23.560   4.168
72967W        W34498  41.977  35.599   2.778
72968W        W34499  35.034  12.733   1.883
72969W        W34500  38.514  12.303  13.991
72970W        W34501  34.590  44.913   3.828
72971W        W34502  22.691  19.648   3.195
72972W        W34503  17.663  16.600  11.531
72973W        W34504  27.098  18.554  14.921
72974W        W34505  38.887   0.819   3.854
72975W        W34506   7.180   2.246  13.352
72976W        W34507  37.920  21.529  13.966
72977W        W34508  12.274  44.332  10.089
72978W        W34509   1.263   5.699   4.117
72979W        W34510   4.280  11.834  13.050
72980W        W34511  41.984  30.061  12.511
72981W        W34512   3.433  40.889   1.700
72982W        W34513  41.406  13.683  12.096
72983W        W34514  33.015  26.207  10.992
72984W        W34515  39.554   0.317   1.883
72985W        W34516  23.724  28.165   3.823
72986W        W34517   3.453   1.868   0.730
72987W        W34518  22.679   8.312   4.820
72988W        W34519  32.958  38.372   0.277
72989W        W34520  40.832  15.693  11.968
72990W        W34521   9.844  12.322  12.856
72991W        W34522  27.049  32.428   1.920
72992W        W34523  15.706   0.462   1.882
72993W        W34524  25.219  42.795   4.174
72994W        W34525   0.915  31.945   3.789
72995W        W34526  25.540   3.312   4.267
72996W        W34527  25.541   8.792  14.481
72997W        W34528   7.783   5.812   2.243
72998W        W34529   3.238  22.600   0.480
72999W        W34530  29.128  13.822  13.022
73000W        W34531  42.844   8.663  10.496
73001W        W34532  21.238   4.844  13.973
73002W        W34533   6.343  13.194   0.283
73003W        W34534  28.477  40.336   0.479
73004W        W34535  42.967  37.017   2.844
73005W        W34536  38.491  29.115   4.683
73006W        W34537  22.569  30.123  14.953
73007W        W34538  33.489  35.080  14.420
73008W        W34539  15.189  32.046   1.869
73009W        W34540  37.882   7.849   4.184
73010W        W34541  12.687   7.707   4.311
73011W        W34542   0.786  31.550   1.928
73012W        W34543  23.992  34.067  11.057
73013W        W34544  14.755  37.966   4.131
73014W        W34545  34.880  42.484   0.835
73015W        W34546  26.153  20.079  11.392
73016W        W34547  13.108   6.716   1.814
73017W        W34548  20.629   7.763   1.354
73018W        W34549  19.576  32.470  13.845
73019W        W34550  33.556  42.940   1.730
73020W        W34551   2.337  14.281  13.892
73021W        W34552  35.560  16.293  13.375
73022W        W34553  40.807  19.090  12.577
73023W        W34554  29.024  41.428  12.561
73024W        W34555  23.993   0.427  12.854
73025W        W34556  26.030   4.806   9.957
73026W        W34557  39.428  44.926  13.895
73027W        W34558  23.157   8.742  13.032
73028W        W34559  38.939  33.483   4.674
73029W        W34560  24.682   9.220  13.520
73030W        W34561  28.509  28.528   2.682
73031W        W34562  27.495   5.225   0.965
73032W        W34563  27.630  22.126  10.433
73033W        W34564  22.585   7.174   3.232
73034W        W34565   4.713  36.527   2.695
73035W        W34566  25.606  32.458  10.520
73036W        W34567  41.936  21.589  13.530
73037W        W34568  12.178  18.155   4.231
73038W        W34569  25.160  35.022   3.279
73039W        W34570  32.091  44.007  13.917
73040W        W34571  13.191  22.717  11.451
73041W        W34572  37.518  12.798  11.583
73042W        W34573  10.803   7.870  11.404
73043W        W34574  15.722  42.462   3.300
73044W        W34575  28.062  19.130  11.418
73045W        W34576  12.155  38.993   4.225
73046W        W34577  44.978  28.560   4.744
73047W        W34578  41.799  10.765   0.270
73048W        W34579  26.095  27.664   4.834
73049W        W34580  37.432  37.877  13.474
73050W        W34581  14.653  10.233  11.445
73051W        W34582   5.333   7.359  14.318
73052W        W34583  38.343   3.806  14.918
73053W        W34584  33.952  28.569  12.890
73054W        W34585   8.762  24.629  12.923
73055W        W34586  17.177   8.687   1.355
73056W        W34587  26.585  30.435  12.568
73057W        W34588  23.174  19.635   2.743
73058W        W34589  44.413  21.111  14.786
73059W        W34590  16.200   0.265   4.599
73060W        W34591   9.387  15.282   3.647
73061W        W34592  20.738  10.245  11.076
73062W        W34593  34.956  23.673   5.256
73063W        W34594  38.384  24.655  10.888
73064W        W34595  35.096  23.509  14.890
73065W        W34596  20.149  37.558   4.640
73066W        W34597  28.525  37.930  14.008
73067W        W34598  20.566  32.540   1.894
73068W        W34599  15.288  31.551   0.313
73069W        W34600  39.020  27.961   9.970
73070W        W34601  17.081  41.341   3.716
73071W        W34602  16.233  19.124   1.738
73072W        W34603  19.735   9.333   2.353
73073W        W34604   1.252   3.895   4.633
73074W        W34605  34.039  23.014  13.361
73075W        W34606   1.261  16.236   0.272
73076W        W34607  19.762   7.719  14.880
73077W        W34608   8.255   7.369   2.892
73078W        W34609  40.431   8.331   2.258
73079W        W34610  28.972   6.412  11.539
73080W        W34611  31.074  24.593   2.339
73081W        W34612   5.408  17.244   1.850
73082W        W34613  16.273   5.403  11.091
73083W        W34614  14.318  22.075   2.400
73084W        W34615   1.462  24.144  10.493
73085W        W34616   0.369  17.745  14.962
73086W        W34617   2.920  27.462  11.455
73087W        W34618  36.057   7.763   2.198
73088W        W34619   1.939  17.729   1.728
73089W        W34620  23.499   4.699  13.427
73090W        W34621  12.224  17.136   3.870
73091W        W34622   8.260  17.112   2.848
73092W        W34623  41.941  30.941   3.374
73093W        W34624   6.877  35.363  12.857
73094W        W34625  31.580   6.386  10.982
73095W        W34626  41.334  12.696  10.905
73096W        W34627   5.365   0.258  13.340
73097W        W34628  34.515  17.775  11.398
73098W        W34629  33.052  19.207  12.064
73099W        W34630  35.069  24.695  10.517
73100W        W34631  40.930  42.005   3.238
73101W        W34632  17.783   6.895  14.373
73102W        W34633  18.206  37.951  12.560
73103W        W34634  16.620  19.137   4.120
73104W        W34635   2.793  30.148  14.459
73105W        W34636  37.572  39.063  10.584
73106W        W34637  38.041  39.008  11.919
73107W        W34638  43.442  14.629   4.614
73108W        W34639  33.899  42.952   4.194
73109W        W34640  26.594   7.818   3.253
73110W        W34641  24.201  44.359   0.852
73111W        W34642   2.777  19.257  10.471
73112W        W34643  21.602  25.037  14.871
73113W        W34644  39.969  17.599  14.779
73114W        W34645   5.362  27.028   1.772
73115W        W34646  14.819  23.529  12.405
73116W        W34647  12.736  36.376  12.033
73117W        W34648  12.694  20.117  13.919
73118W        W34649  22.506  21.533   2.322
73119W        W34650  22.204  21.609  10.440
73120W        W34651  29.486   4.826   4.699
73121W        W34652   6.388   2.783   3.854
73122W        W34653  35.934  42.377  10.459
73123W        W34654   1.472  43.283   2.860
73124W        W34655  26.677  24.516  12.568
73125W        W34656  29.101  17.101  11.062
73126W        W34657  16.309   6.356  13.497
73127W        W34658  10.273  27.618  14.810
73128W        W34659   5.385  31.046  13.344
73129W        W34660   8.318  27.504   4.660
73130W        W34661   8.313  13.727   1.724
73131W        W34662  40.808  44.467  13.386
73132W        W34663  27.553  22.220   3.341
73133W        W34664   0.867   1.481  10.540
73134W        W34665  20.766   4.227   2.864
73135W        W34666  36.887  30.597  13.957
73136W        W34667  14.624  17.123  10.583
73137W        W34668  23.052  28.491   2.773
73138W        W34669   2.851  23.693  11.459
73139W        W34670  24.626  21.612   3.286
73140W        W34671  37.343  32.451  10.576
73141W        W34672  31.506  25.210  13.012
73142W        W34673   2.875  25.667  14.511
73143W        W34674  25.123   4.328  13.013
73144W        W34675  14.305  16.244  14.423
73145W        W34676  34.064  21.566   1.892
73146W        W34677  30.635  43.328  14.009
73147W        W34678  20.234  38.045  10.475
73148W        W34679  14.755  10.781  13.960
73149W        W34680  40.377  44.378   0.414
73150W        W34681  41.840  35.600  12.890
73151W        W34682   0.375  35.383   4.141
73152W        W34683   7.262  42.311  12.860
73153W        W34684  22.706   0.840  10.137
73154W        W34685  23.581   5.926  11.486
73155W        W34686  20.737  22.562   0.449
73156W        W34687  15.652  27.472   3.196
73157W        W34688  31.481  28.592   0.265
73158W        W34689  41.404  11.711  12.421
73159W        W34690  32.060   4.435   1.336
73160W        W34691  31.975   1.957  13.477
73161W        W34692   4.291  23.673   2.337
73162W        W34693   5.906  22.014   3.179
73163W        W34694   2.232  30.638   4.729
73164W        W34695   0.814  27.594  11.022
73165W        W34696  37.426   4.384   1.706
73166W        W34697  14.620  36.053   3.158
73167W        W34698  21.744  10.250   4.136
73168W        W34699   8.171  11.733  11.047
73169W        W34700   7.336  43.326   3.799
73170W        W34701  19.090   0.870  11.048
73171W        W34702   8.240  37.408  10.635
73172W        W34703  34.901  18.777   3.321
73173W        W34704   3.388  26.063   1.287
73174W        W34705  10.645  34.446  11.105
73175W        W34706   5.195  21.150   2.839
73176W        W34707   0.872  14.299   4.726
73177W        W34708  39.835  17.307  11.018
73178W        W34709  19.203  22.222   3.222
73179W        W34710  18.080  26.023   9.521
73180W        W34711  16.677  21.035   0.779
73181W        W34712  41.479  38.423  13.488
73182W        W34713  34.105  44.940  10.897
73183W        W34714   8.744  32.104  10.966
73184W        W34715  34.000   5.386   4.697
73185W        W34716  37.858  16.095   0.399
73186W        W34717  25.623  44.267  13.848
73187W        W34718   2.364   6.405   2.853
73188W        W34719  12.683  39.374  10.942
73189W        W34720  34.038   6.231  11.035
73190W        W34721   7.718  22.042   2.317
73191W        W34722   3.829  23.083  14.383
73192W        W34723  34.020   1.969  11.113
73193W        W34724  12.345   1.818   1.810
73194W        W34725  23.086  15.135   0.897
73195W        W34726  26.457   0.833  11.062
73196W        W34727  16.672   1.908  10.546
73197W        W34728  35.104  17.589   0.933
73198W        W34729  28.517  10.639  13.965
73199W        W34730  33.895  14.817   1.715
73200W        W34731   7.680  29.170   1.314
73201W        W34732  44.467   5.247  11.547
73202W        W34733   8.226  41.004   2.889
73203W        W34734  21.038  34.977  13.013
73204W        W34735  35.431  24.528   2.335
73205W        W34736  33.499  16.190   3.375
73206W        W34737   5.255  15.705  11.611
73207W        W34738  37.987  16.109  12.371
73208W        W34739  16.776  24.016  11.923
73209W        W34740  31.012  33.446   2.325
73210W        W34741   5.412  30.939   0.838
73211W        W34742  25.178  36.867  14.818
73212W        W34743   3.413  38.367  13.890
73213W        W34744   2.412  22.109   1.326
73214W        W34745  13.136  10.371  10.577
73215W        W34746  40.855  42.019   1.253
73216W        W34747   3.246  40.428   3.711
73217W        W34748  25.512   5.326   4.180
73218W        W34749  13.665  43.308   1.398
73219W        W34750  34.925  41.942   0.860
73220W        W34751  18.100   6.779  12.581
73221W        W34752  18.647  13.220   1.741
73222W        W34753   0.748  31.998  10.982
73223W        W34754  27.006  15.735  12.056
73224W        W34755  14.806  24.706  12.891
73225W        W34756  25.490  15.787  13.898
73226W        W34757  25.074  41.431  11.935
73227W        W34758  12.332  25.532  10.938
73228W        W34759  16.746  31.030   3.299
73229W        W34760   0.944  24.520  13.487
73230W        W34761   9.696  37.391   0.898
73231W        W34762  32.953  12.249   4.680
73232W        W34763  15.731  37.934  14.285
73233W        W34764  41.027  16.709   3.245
73234W        W34765   4.440  14.653  12.503
73235W        W34766   2.404   8.265  13.047
73236W        W34767  28.144  43.974   2.185
73237W        W34768  33.508   2.447  12.847
73238W        W34769   3.926  21.228  10.420
73239W        W34770  40.314  24.203   3.179
73240W        W34771  21.513  17.081   4.257
73241W        W34772  35.547  40.327  11.128
73242W        W34773  17.105  14.773  10.928
73243W        W34774  29.442  21.559  14.277
73244W        W34775  23.019   9.276   2.704
73245W        W34776  14.255  41.408  10.981
73246W        W34777  25.099  15.179   4.629
73247W        W34778   6.203  13.134   4.139
73248W        W34779   3.877  15.195   2.346
73249W        W34780   0.444  25.696   0.911
73250W        W34781  13.121  44.293  13.829
73251W        W34782  21.174  33.618   0.342
73252W        W34783   6.281  11.274  13.013
73253W        W34784  26.678  19.650   0.431
73254W        W34785  38.857  35.582  12.039
73255W        W34786  38.407  28.142   3.241
73256W        W34787   9.359   8.872  13.997
73257W        W34788  11.242  15.083  14.431
73258W        W34789  20.532  37.400   5.597
73259W        W34790  43.879  17.161  14.515
73260W        W34791  27.110  26.537  13.000
73261W        W34792   8.792  32.962  14.847
73262W        W34793   4.828  26.532  12.535
73263W        W34794   3.954  23.638   1.331
73264W        W34795  30.108  24.660  14.498
73265W        W34796  40.535  37.359   0.839
73266W        W34797  18.226  10.857  14.373
73267W        W34798  27.081  34.467   4.635
73268W        W34799   3.419   5.407   3.725
73269W        W34800  13.235   8.898   0.397
73270W        W34801  11.759  20.550   4.348
73271W        W34802  28.450   8.767  13.970
73272W        W34803  32.626  34.573  12.984
73273W        W34804  17.194  14.217  14.512
73274W        W34805  11.813  18.180   1.373
73275W        W34806   2.871  11.292  13.345
73276W        W34807   0.777  26.596  13.493
73277W        W34808  38.398  33.445   4.327
73278W        W34809  42.502  41.902  12.036
73279W        W34810  26.510  17.172   2.748
73280W        W34811  31.621  12.227  12.509
73281W        W34812  44.861  24.566   1.359
73282W        W34813   6.770   1.437  10.130
73283W        W34814  43.381  38.431  12.049
73284W        W34815  28.096  40.508   5.197
73285W        W34816  15.705  27.995   4.227
73286W        W34817  23.228  20.117   1.368
73287W        W34818  35.450  15.261   9.467
73288W        W34819  27.620  20.646   0.436
73289W        W34820  40.373  26.074   4.650
73290W        W34821  27.957  13.111  11.862
73291W        W34822  14.330  36.382  11.106
73292W        W34823   3.293  44.000   1.790
73293W        W34824  30.096  44.893  12.973
73294W        W34825   2.776  28.142  13.528
73295W        W34826  23.718  29.651  11.424
73296W        W34827  27.610   6.922  14.277
73297W        W34828  21.689  37.485   1.916
73298W        W34829  34.966  12.626   2.206
73299W        W34830   8.239   6.254   2.747
73300W        W34831  19.576  18.662  12.012
73301W        W34832   0.913   4.860   1.879
73302W        W34833  11.235  35.448   1.387
73303W        W34834  17.305   7.805   2.181
73304W        W34835  37.915  36.368  12.347
73305W        W34836  12.692  39.011   3.279
73306W        W34837  36.355  12.795   2.230
73307W        W34838  34.101  23.984   2.791
73308W        W34839  27.631  27.977   4.706
73309W        W34840   5.784  43.962   1.860
73310W        W34841  33.952  18.139   2.685
73311W        W34842  21.588  19.671   1.303
73312W        W34843  14.184   1.256  12.885
73313W        W34844  21.659  27.543  13.865
73314W        W34845   0.272  10.803   4.811
73315W        W34846  43.929  18.098   4.629
73316W        W34847  31.069  30.957   1.353
73317W        W34848   4.932  30.481  11.600
73318W        W34849   6.297  43.769   0.429
73319W        W34850  26.011  13.218  11.913
73320W        W34851  11.868  19.131  11.004
73321W        W34852  13.289   1.929  12.426
73322W        W34853  42.299  43.880  13.433
73323W        W34854   2.967  39.430   2.182
73324W        W34855   8.825  40.839  12.496
73325W        W34856  17.258  42.912  13.333
73326W        W34857  21.626   1.767   4.127
73327W        W34858  10.287  14.793  13.937
73328W        W34859  17.694   8.690   4.702
73329W        W34860  13.186  12.741   1.712
73330W        W34861  20.153   8.895  14.969
73331W        W34862  31.936  38.996   5.243
73332W        W34863  25.123  27.622  11.113
73333W        W34864  13.267  42.335  11.573
73334W        W34865   4.392  15.320  14.953
73335W        W34866  14.782  27.952  11.518
73336W        W34867  20.267  25.560   0.475
73337W        W34868  11.669  16.606   0.472
73338W        W34869  21.644  38.928   4.178
73339W        W34870  30.149  22.045   2.336
73340W        W34871  28.019  10.168  11.489
73341W        W34872  39.354  16.292  11.419
73342W        W34873   9.169  36.095   3.360
73343W        W34874  26.094  14.276   1.875
73344W        W34875  40.813  43.431   0.896
73345W        W34876  18.587  11.658  11.399
73346W        W34877  38.951  24.188   1.245
73347W        W34878  20.755   2.743   2.330
73348W        W34879  36.521  41.969   3.649
73349W        W34880  17.743  30.026  14.325
73350W        W34881  25.134  24.686  13.393
73351W        W34882  15.776  23.665   0.744
73352W        W34883  11.797  19.071  13.857
73353W        W34884  37.438  23.501   2.889
73354W        W34885  10.838  16.662  12.532
73355W        W34886  25.157  25.598   1.341
73356W        W34887  33.122  35.589  12.850
73357W        W34888  17.219  33.990   2.334
73358W        W34889  19.632  28.660   4.144
73359W        W34890  25.594  12.764   4.602
73360W        W34891  25.486   4.353   4.815
73361W        W34892  36.541  15.694  10.919
73362W        W34893  32.450  18.585   1.753
73363W        W34894  40.054  25.632  10.506
73364W        W34895  37.951  35.046   2.234
73365W        W34896  22.628  28.935   4.787
73366W        W34897  33.093  30.453   3.324
73367W        W34898   6.212  44.010   4.702
73368W        W34899  21.664  23.173   2.745
73369W        W34900   4.260  17.210   3.775
73370W        W34901  18.069  14.329  12.952
73371W        W34902  42.871   3.298   0.269
73372W        W34903   4.258  35.409  12.527
73373W        W34904   4.823  39.326  12.845
73374W        W34905  42.441  10.307   3.772
73375W        W34906  19.096  44.767  13.394
73376W        W34907  29.158  18.761   0.805
73377W        W34908  22.219   3.762  14.813
73378W        W34909  32.593  33.072  13.798
73379W        W34910   2.832  25.701   1.344
73380W        W34911  31.607  13.682  14.991
73381W        W34912  10.810  18.083  14.818
73382W        W34913   5.810  23.493   0.945
73383W        W34914  32.610  33.085   2.414
73384W        W34915  30.042  33.979   0.335
73385W        W34916  40.515  20.270   3.808
73386W        W34917   6.246  34.912   1.820
73387W        W34918  38.367  38.979   0.922
73388W        W34919  15.103  38.891   1.749
73389W        W34920  23.500  33.993  14.469
73390W        W34921  19.572   6.759  12.580
73391W        W34922  15.324  42.366  11.509
73392W        W34923  28.504  43.386   0.914
73393W        W34924  37.370  26.570   5.089
73394W        W34925  26.126  13.324  14.806
73395W        W34926  37.035  14.617   0.273
73396W        W34927  17.240  24.651   1.444
73397W        W34928  23.013  43.466   1.864
73398W        W34929  21.033  24.148  14.443
73399W        W34930  24.040   9.698   3.654
73400W        W34931  32.065  44.925  14.356
73401W        W34932  23.194   9.200  13.004
73402W        W34933  20.104   6.328   2.389
73403W        W34934  30.910  17.701  13.908
73404W        W34935  43.848  18.065   1.450
73405W        W34936  39.462   6.853  11.402
73406W        W34937  10.305  10.752  13.839
73407W        W34938  15.231  32.079   4.621
73408W        W34939  15.149  36.577  10.927
73409W        W34940   5.319  39.548  13.459
73410W        W34941  12.167  23.125  11.485
73411W        W34942  32.916  11.705   4.693
73412W        W34943  20.122  29.490   3.714
73413W        W34944  38.858  23.613   0.753
73414W        W34945  35.941  27.078   0.813
73415W        W34946  31.630  27.448   3.758
73416W        W34947  16.795  29.067   4.350
73417W        W34948  39.316  14.297  13.452
73418W        W34949   0.324  16.316   3.205
73419W        W34950  10.665  39.014   1.299
73420W        W34951   5.250   0.411  10.599
73421W        W34952  41.516   4.225  11.966
73422W        W34953  23.578   3.887   2.369
73423W        W34954  29.157   4.737  10.504
73424W        W34955  42.478  44.833  12.096
73425W        W34956  23.240  38.421   3.227
73426W        W34957  16.244  35.432   0.464
73427W        W34958   5.836  15.780   0.781
73428W        W34959  16.211  26.569  14.906
73429W        W34960  41.514  22.113  11.501
73430W        W34961   1.754   3.447   0.731
73431W        W34962  42.982  19.166   0.292
73432W        W34963  19.139  32.510  13.850
73433W        W34964  10.352  11.146  13.048
73434W        W34965  27.188  39.953  14.457
73435W        W34966   5.311  33.105  11.512
73436W        W34967  40.001   5.300   3.359
73437W        W34968   1.856   5.326   2.744
73438W        W34969  21.675  27.102   4.145
73439W        W34970  28.554  23.604   1.308
73440W        W34971  19.214  13.320  11.509
73441W        W34972  15.780  20.107   4.720
73442W        W34973  18.779  44.460   2.790
73443W        W34974  29.483  16.632  10.623
73444W        W34975  31.077  11.775  14.443
73445W        W34976  25.485  24.624   3.740
73446W        W34977  20.229  22.679   2.309
73447W        W34978  44.312  38.564  12.084
73448W        W34979  26.967  32.586  12.055
73449W        W34980  13.781  43.786   1.866
73450W        W34981   6.215  36.381   1.339
73451W        W34982  40.031  33.419  14.516
73452W        W34983  41.948  40.466   2.359
73453W        W34984  39.016  30.099  11.908
73454W        W34985   0.762  15.306  14.803
73455W        W34986  17.179  44.980   4.716
73456W        W34987  10.230   4.213   5.189
73457W        W34988   3.877   3.323   0.964
73458W        W34989  14.214  28.172   2.383
73459W        W34990  17.119  13.177  11.948
73460W        W34991  37.080  11.645   2.823
73461W        W34992  25.679  10.862  11.864
73462W        W34993  22.739  19.706   5.169
73463W        W34994   4.844  25.603   4.732
73464W        W34995  29.080  24.021   0.454
73465W        W34996   8.182  31.518   0.868
73466W        W34997  16.785   7.258  13.940
73467W        W34998  37.498   2.921  13.510
73468W        W34999  44.281  19.616   0.471
73469W        W35000  26.566  13.705   3.668
73470W        W35001   0.279  29.438  12.865
73471W        W35002   3.406  30.482   2.287
73472W        W35003  25.122  17.123   4.813
73473W        W35004  11.709   9.713  14.495
73474W        W35005  15.143   9.203   1.925
73475W        W35006   8.223  32.508   1.813
73476W        W35007  39.915  38.408  12.876
73477W        W35008  22.594   6.314   1.397
73478W        W35009  24.122  44.968   1.244
73479W        W35010  14.645  42.982   0.960
73480W        W35011  35.569   7.865  12.495
73481W        W35012  42.893  25.622   2.227
73482W        W35013  44.449  11.634   4.162
73483W        W35014  28.947  35.006  14.507
73484W        W35015  21.538  22.585   4.128
73485W        W35016  25.519  16.220   3.724
73486W        W35017  21.104   4.807   5.151
73487W        W35018  39.463  13.134  13.942
73488W        W35019   2.730  27.067   1.451
73489W        W35020  12.817  27.947   1.881
73490W        W35021  37.844  25.700   4.204
73491W        W35022  37.058   8.367   1.216
73492W        W35023  16.174  10.668   2.858
73493W        W35024  43.805  34.391  11.012
73494W        W35025  42.381  12.349   1.845
73495W        W35026  29.465  30.116   0.890
73496W        W35027   4.420  33.911  14.887
73497W        W35028  44.346  22.177   3.259
73498W        W35029   4.746  40.306  14.384
73499W        W35030  31.119  16.724  10.054
73500W        W35031  22.192  38.459   3.790
73501W        W35032   0.922  34.544   3.855
73502W        W35033  26.653  33.929   1.416
73503W        W35034  21.071  27.582  11.439
73504W        W35035  30.116  24.698   3.145
73505W        W35036   4.422  41.933   2.896
73506W        W35037  31.043  42.493  11.493
73507W        W35038  42.416  23.696   4.292
73508W        W35039  29.555  15.294   0.246
73509W        W35040  44.287   6.809  10.566
73510W        W35041  20.582   7.790  12.344
73511W        W35042  11.771  36.551  11.900
73512W        W35043  30.501  15.715   0.776
73513W        W35044  17.285   3.819   3.363
73514W        W35045  27.145   1.348  13.815
73515W        W35046  26.466  15.271   3.826
73516W        W35047   1.242  36.025   4.293
73517W        W35048  14.255  23.046  10.440
73518W        W35049  10.321  25.101   1.838
73519W        W35050  22.589   4.797   3.336
73520W        W35051   9.808  24.095  10.997
73521W        W35052   3.376  19.266  11.858
73522W        W35053  37.378   0.376   1.369
73523W        W35054   2.391  44.363   4.324
73524W        W35055  24.100  19.249   3.686
73525W        W35056  15.145  40.422   2.676
73526W        W35057   2.955  12.746   2.788
73527W        W35058  39.395  34.056  12.096
73528W        W35059  37.349  15.160  12.045
73529W        W35060  39.496   6.736  10.984
73530W        W35061  39.865  15.676   3.270
73531W        W35062   4.911  42.331  13.021
73532W        W35063   8.666  27.692   1.702
73533W        W35064  18.623  44.370  14.860
73534W        W35065  21.663  35.955   1.399
73535W        W35066   9.686  29.021   2.248
73536W        W35067  23.672  31.584   3.762
73537W        W35068  20.201   3.732   0.827
73538W        W35069  21.584  27.507  13.345
73539W        W35070  28.101   3.271   0.881
73540W        W35071   2.371  12.206   2.245
73541W        W35072   4.890  36.500   4.319
73542W        W35073  36.358  38.538  13.850
73543W        W35074  16.247   4.409   2.280
73544W        W35075  18.247  31.466  10.432
73545W        W35076   9.663  19.751  13.826
73546W        W35077  31.417   0.364  13.513
73547W        W35078  13.283  23.212   1.244
73548W        W35079  40.314  30.657   1.302
73549W        W35080  16.222  23.574  13.492
73550W        W35081  29.081  33.102  10.966
73551W        W35082  25.078  22.562   3.771
73552W        W35083   1.745  27.054  11.920
73553W        W35084  42.911  14.715   5.277
73554W        W35085  43.781  18.560  10.960
73555W        W35086  16.199   1.953  11.858
73556W        W35087  25.558  15.648  12.869
73557W        W35088  44.916  30.977   2.258
73558W        W35089  35.899  15.214   4.606
73559W        W35090  28.517   5.911   1.269
73560W        W35091  18.171   6.245   0.474
73561W        W35092  39.853   8.349  13.898
73562W        W35093  17.699   6.734  13.847
73563W        W35094  29.504  17.605   0.431
73564W        W35095   0.484  20.661   4.611
73565W        W35096  14.750   9.867  14.800
73566W        W35097  26.983  40.858  13.937
73567W        W35098  21.122   0.291  10.427
73568W        W35099  11.252  43.860  10.532
73569W        W35100  24.643   6.769  13.838
73570W        W35101  28.075  37.581  11.559
73571W        W35102  26.198  43.912  11.562
73572W        W35103   5.748  41.915   2.721
73573W        W35104  35.928  24.694  11.499
73574W        W35105  30.429  37.056  11.599
73575W        W35106  20.165  10.315  11.444
73576W        W35107  10.821  12.636  10.553
73577W        W35108  26.956  32.122   2.711
73578W        W35109  23.518  43.935   4.321
73579W        W35110  24.054  40.046  12.448
73580W        W35111  10.724  22.071   2.270
73581W        W35112   4.832   9.316   2.716
73582W        W35113   2.365  21.028   9.980
73583W        W35114  21.207  29.085   2.884
73584W        W35115   6.695  20.133  14.997
73585W        W35116  28.028  24.691  14.879
73586W        W35117   4.856  24.074   9.619
73587W        W35118  25.083  11.133   4.173
73588W        W35119  35.905  16.627   2.376
73589W        W35120  31.477   8.730   9.663
73590W        W35121  36.088  41.924   2.411
73591W        W35122  25.149  27.653  14.981
73592W        W35123  42.452  40.931   4.647
73593W        W35124  24.206  37.982   5.088
73594W        W35125   4.313  22.233  10.561
73595W        W35126   2.735  39.443   1.368
73596W        W35127  23.075  42.454  14.490
73597W        W35128  36.080  28.985   4.313
73598W        W35129  36.075  10.788   2.831
73599W        W35130   7.825  19.569   0.341
73600W        W35131  12.168  11.714  10.460
73601W        W35132  29.067  42.446  12.955
73602W        W35133   0.357   9.824  14.873
73603W        W35134   1.475  17.772   3.345
73604W        W35135   3.242  32.579  11.882
73605W        W35136  43.960  13.791  12.497
73606W        W35137  39.911  42.815  14.976
73607W        W35138  20.740  26.576   2.716
73608W        W35139  34.052  44.466   0.323
73609W        W35140  14.724  38.944   1.763
73610W        W35141   7.194   0.274   4.717
73611W        W35142   3.739   9.187  11.591
73612W        W35143  30.994  16.140   3.657
73613W        W35144  27.038  22.156   3.191
73614W        W35145  30.499  15.582   3.304
73615W        W35146  21.209  25.059  13.898
73616W        W35147  12.244  20.645  13.341
73617W        W35148   0.472   9.368  11.588
73618W        W35149  10.646  39.838  10.925
73619W        W35150   8.839  32.591   0.354
73620W        W35151  16.734  26.503  14.779
73621W        W35152  42.803   9.181  13.887
73622W        W35153   8.325  21.703  13.880
73623W        W35154  10.844  26.478   2.889
73624W        W35155  27.499  33.991  11.983
73625W        W35156   5.729  36.516  12.976
73626W        W35157   8.786  37.410   2.403
73627W        W35158  39.317   8.866   1.330
73628W        W35159  16.112  38.936  15.000
73629W        W35160  35.541  43.772  11.858
73630W        W35161  36.422  35.380  11.540
73631W        W35162  22.620  33.522  14.946
73632W        W35163  41.329  27.481  13.362
73633W        W35164   1.966   0.870   4.322
73634W        W35165  20.665  16.221   1.894
73635W        W35166   9.285  25.580  11.118
73636W        W35167  44.425  33.570  12.417
73637W        W35168  30.621  33.593   3.745
73638W        W35169  20.724  23.121  11.381
73639W        W35170   6.412   8.750  11.016
73640W        W35171  32.048  21.714  14.278
73641W        W35172  29.947  20.182   2.667
73642W        W35173  35.973   6.270   4.706
73643W        W35174  11.850  21.564   1.298
73644W        W35175  18.697  14.675   4.656
73645W        W35176  28.008   6.860  12.339
73646W        W35177  12.724  22.660  12.437
73647W        W35178  35.900   4.868   2.760
73648W        W35179  36.090  38.969  12.524
73649W        W35180  26.968   0.894  13.423
73650W        W35181  18.571  37.019  14.331
73651W        W35182  14.684  43.505  13.402
73652W        W35183   7.335  39.557  10.978
73653W        W35184  29.059   8.172  12.479
73654W        W35185   9.856  14.668  11.439
73655W        W35186  30.493  33.059   4.598
73656W        W35187   8.892  34.978   0.858
73657W        W35188  11.223  44.840   3.318
73658W        W35189   1.450   8.716  11.890
73659W        W35190   9.841  14.193   1.307
73660W        W35191  31.505  29.557   0.261
73661W        W35192  29.091  33.896  13.996
73662W        W35193   9.775  10.761   3.799
73663W        W35194  29.559   4.715   0.305
73664W        W35195  44.001  32.502   0.748
73665W        W35196  40.055  30.541  13.307
73666W        W35197  42.991  44.346   4.828
73667W        W35198  34.052  33.889   1.276
73668W        W35199  39.012  40.421  12.010
73669W        W35200  12.277  14.299  13.514
73670W        W35201  38.367  42.379  14.845
73671W        W35202   2.731  30.655  11.591
73672W        W35203   6.321  43.903   0.849
73673W        W35204  24.115  25.174  10.130
73674W        W35205  41.423  18.559   3.363
73675W        W35206   0.914  19.246  14.930
73676W        W35207  15.766  40.833  12.082
73677W        W35208  21.227  41.358   4.812
73678W        W35209   0.336  21.101   2.296
73679W        W35210  34.508   1.929  12.912
73680W        W35211  10.716  38.351   4.653
73681W        W35212   7.315  11.742   3.321
73682W        W35213   7.378  31.491  11.088
73683W        W35214  28.583  30.949  13.945
73684W        W35215  30.490  41.895  10.464
73685W        W35216  30.082  43.900   2.213
73686W        W35217  12.729  24.496  13.041
73687W        W35218  43.907  27.082   4.124
73688W        W35219  35.993  35.570  12.972
73689W        W35220  42.381  17.217  14.944
73690W        W35221   7.696  19.204  13.341
73691W        W35222   4.936  11.184   3.809
73692W        W35223   9.755  10.662   0.822
73693W        W35224  42.975  16.080   1.367
73694W        W35225  21.116  32.990   1.763
73695W        W35226  23.508   0.828  12.563
73696W        W35227  13.628  20.676   2.382
73697W        W35228  15.806   9.788   2.745
73698W        W35229  12.649  29.608   2.311
73699W        W35230  27.183  10.695   1.377
73700W        W35231  19.592  13.809  12.440
73701W        W35232   0.295   6.416  13.997
73702W        W35233  21.533  20.267  14.793
73703W        W35234  11.804  26.030  13.831
73704W        W35235  41.933  22.006   2.790
73705W        W35236   1.471  38.484   3.674
73706W        W35237  35.964  13.106  11.859
73707W        W35238  39.975  31.031   1.790
73708W        W35239   9.757  28.565  13.907
73709W        W35240  30.610  17.583  12.857
73710W        W35241  33.490  29.666   3.368
73711W        W35242   0.973  15.660  12.837
73712W        W35243  32.542  43.338  13.444
73713W        W35244   6.683  20.769  13.316
73714W        W35245  22.011  11.240  13.044
73715W        W35246  24.157  28.571   5.675
73716W        W35247  29.136  37.028   0.919
73717W        W35248  20.068   6.857   3.777
73718W        W35249  15.588  28.621   1.309
73719W        W35250   2.307  43.311  14.795
73720W        W35251   1.337  31.634  13.997
73721W        W35252  24.504  35.360  10.978
73722W        W35253  42.503  10.351   2.760
73723W        W35254  43.463  44.761  14.843
73724W        W35255  21.258   2.886   0.736
73725W        W35256  37.062  28.138  12.490
73726W        W35257  25.485  29.624   1.450
73727W        W35258  35.429  20.089   4.196
73728W        W35259  28.548  24.170   1.331
73729W        W35260   6.788  38.345  14.391
73730W        W35261   6.827  27.040   3.818
73731W        W35262  23.216  25.666   4.185
73732W        W35263   5.223  24.077   0.459
73733W        W35264   6.255   2.442   1.812
73734W        W35265  17.070  41.871   2.199
73735W        W35266  19.131  10.872   4.685
73736W        W35267   3.371   5.826   0.811
73737W        W35268  42.781  27.628   1.928
73738W        W35269  33.077  40.896   4.782
73739W        W35270   9.216  13.120  11.565
73740W        W35271  44.779  33.587  13.372
73741W        W35272  16.077   1.375  10.927
73742W        W35273  26.193  17.799   2.183
73743W        W35274   0.378  33.481   2.341
73744W        W35275  32.916   1.787  13.020
73745W        W35276  31.411   6.757   1.827
73746W        W35277  36.537  10.264  13.342
73747W        W35278  16.077   9.807  13.897
73748W        W35279  31.546  42.861   2.824
73749W        W35280  43.459   5.826   1.853
73750W        W35281  28.020  24.975   5.292
73751W        W35282  23.152   7.231  12.522
73752W        W35283  23.692  25.562   3.735
73753W        W35284  30.960  14.806  12.387
73754W        W35285  15.104  28.038  10.539
73755W        W35286  11.771  28.536   4.602
73756W        W35287  10.301  39.368  14.993
73757W        W35288  40.448  21.639   0.429
73758W        W35289   6.831  39.322  13.928
73759W        W35290  35.076  13.131   0.880
73760W        W35291  25.992  35.395  11.029
73761W        W35292  19.740  36.437  13.384
73762W        W35293   0.483   0.486  14.978
73763W        W35294   2.398   9.395   2.274
73764W        W35295  18.204  39.901   5.724
73765W        W35296  19.115  22.051  12.560
73766W        W35297   8.373  29.582  11.457
73767W        W35298   8.174  19.242  12.401
73768W        W35299  35.107  18.731  11.423
73769W        W35300   8.655  20.610   4.180
73770W        W35301   4.918  19.700  13.410
73771W        W35302  43.480  35.855  14.776
73772W        W35303  17.220  17.709   3.686
73773W        W35304  20.649  44.486  10.950
73774W        W35305   7.279  26.954   0.823
73775W        W35306  33.955  33.385   1.857
73776W        W35307  35.901  19.247   2.329
73777W        W35308  36.086  29.029   0.427
73778W        W35309  29.127  20.132   0.453
73779W        W35310  42.382  20.589   3.724
73780W        W35311  36.413  35.498  14.006
73781W        W35312  18.584  33.910   3.186
73782W        W35313  26.522  12.285  13.938
73783W        W35314   6.364  11.326   1.911
73784W        W35315  12.788  38.959  12.339
73785W        W35316  19.731  32.101  13.960
73786W        W35317  38.550  19.266   4.162
73787W        W35318  22.124  25.672   4.760
73788W        W35319  17.559   3.733  12.555
73789W        W35320   2.909  32.417  10.960
73790W        W35321  32.613  33.547   3.734
73791W        W35322  38.958   5.353   1.376
73792W        W35323   3.903  32.394  13.483
73793W        W35324  43.940  12.789   4.834
73794W        W35325  11.205   0.879   4.160
73795W        W35326   4.397  29.605   0.891
73796W        W35327  41.879   0.844  14.317
73797W        W35328  21.201  28.997   4.251
73798W        W35329  12.141   7.250  13.797
73799W        W35330  40.931  22.027   3.662
73800W        W35331  16.233  36.366  13.864
73801W        W35332  10.269  31.925  14.820
73802W        W35333   2.354  35.057  12.987
73803W        W35334  38.338  37.867   4.213
73804W        W35335  44.925  35.581  11.460
73805W        W35336  14.699  22.133  13.402
73806W        W35337  41.356  29.029  13.340
73807W        W35338  35.555  16.633   2.722
73808W        W35339  16.113  12.291   0.258
73809W        W35340  34.013  16.098   9.953
73810W        W35341  17.176  44.357  13.474
73811W        W35342  42.498   2.364   2.311
73812W        W35343  35.943  30.624  11.425
73813W        W35344  29.669  28.056   2.759
73814W        W35345  19.167  36.402   4.677
73815W        W35346  19.144  13.186   1.852
73816W        W35347   2.789   4.808  12.892
73817W        W35348   6.789  38.340   0.361
73818W        W35349  36.091   2.816   0.893
73819W        W35350   4.842  37.078   0.280
73820W        W35351   0.965  28.023  10.065
73821W        W35352  26.573   8.798  10.141
73822W        W35353   3.415  21.112   1.373
73823W        W35354  37.406  25.215  12.406
73824W        W35355  38.483  44.772  12.860
73825W        W35356  26.474  21.755   2.900
73826W        W35357  25.471  26.663   0.840
73827W        W35358   8.710   8.719  14.504
73828W        W35359   2.908  24.675  11.088
73829W        W35360  43.895  17.193  11.605
73830W        W35361  12.203   2.376   4.121
73831W        W35362   6.297  32.976  12.496
73832W        W35363   5.437  28.959   3.204
73833W        W35364  11.363   6.233  11.918
73834W        W35365   4.700  28.529   1.274
73835W        W35366  34.969  23.092  13.044
73836W        W35367  24.207   2.290  14.401
73837W        W35368  25.496  10.241   3.691
73838W        W35369  44.805  28.509   1.361
73839W        W35370   9.836   4.299  13.939
73840W        W35371   8.208   8.187  13.038
73841W        W35372  18.073  24.510   0.417
73842W        W35373  21.719  23.110   1.309
73843W        W35374  33.985  30.523   4.768
73844W        W35375  26.063   8.345  10.598
73845W        W35376  29.171  19.761   2.812
73846W        W35377  35.009   3.878  14.322
73847W        W35378   5.333  43.010  13.327
73848W        W35379   2.448  44.493  13.980
73849W        W35380   3.838   2.455   2.372
73850W        W35381   5.367  29.615   2.295
73851W        W35382  28.576  18.631   3.330
73852W        W35383   2.436   9.810  11.578
73853W        W35384  14.223  11.696  10.972
73854W        W35385  21.722  18.720   2.870
73855W        W35386  17.571  44.411   3.857
73856W        W35387   2.463  30.101  12.883
73857W        W35388  16.709  12.321  13.959
73858W        W35389   0.409  10.309   4.776
73859W        W35390  21.075  41.887  10.118
73860W        W35391   8.718  16.277   4.821
73861W        W35392  44.785  18.586   1.249
73862W        W35393  10.369  39.543  13.410
73863W        W35394  43.503  24.617   0.834
73864W        W35395   8.360  26.114  11.405
73865W        W35396   9.853  39.855   0.760
73866W        W35397  32.953  36.052   9.968
73867W        W35398  35.357   5.367  13.017
73868W        W35399  38.945  44.874  11.588
73869W        W35400  22.525  11.839   2.387
73870W        W35401   4.431  18.556  13.877
73871W        W35402  41.534  44.476   1.822
73872W        W35403   1.819  10.863   2.794
73873W        W35404  34.968  34.919   0.298
73874W        W35405  38.488  33.010  13.885
73875W        W35406   9.384  41.843  12.410
73876W        W35407  42.336   0.396  13.893
73877W        W35408  31.500  14.701   1.844
73878W        W35409  44.845  41.322  14.014
73879W        W35410  32.564  18.271   4.202
73880W        W35411  39.516  17.790  14.390
73881W        W35412  39.020   0.857  12.830
73882W        W35413   8.688   8.676  10.149
73883W        W35414  15.272  11.152   0.770
73884W        W35415  40.045  34.479   4.691
73885W        W35416  19.634  17.784  12.934
73886W        W35417  22.197  40.319  11.877
73887W        W35418  31.119  38.537   2.270
73888W        W35419  16.631  21.102  10.938
73889W        W35420  36.454  19.588   0.364
73890W        W35421  10.220  26.100   1.265
73891W        W35422  41.934  39.376   0.818
73892W        W35423   0.879   6.836   4.245
73893W        W35424  11.152  23.618   1.298
73894W        W35425  21.652  44.008   2.365
73895W        W35426  13.296   0.743   0.921
73896W        W35427  12.275  17.595   4.236
73897W        W35428  20.642  36.558   1.232
73898W        W35429  36.871  27.525  13.975
73899W        W35430   3.904   9.207  13.376
73900W        W35431  38.341   0.410  13.944
73901W        W35432  11.329  34.916  11.121
73902W        W35433   1.257  35.597  11.950
73903W        W35434  26.000  36.949  14.467
73904W        W35435  32.139  23.236  11.455
73905W        W35436  35.868  28.115   2.817
73906W        W35437  31.096  31.950   0.910
73907W        W35438  44.433  34.451   0.248
73908W        W35439  34.006  34.529  12.829
73909W        W35440  42.467   4.759  13.529
73910W        W35441  42.790   0.752  13.376
73911W        W35442  26.553  38.050   4.604
73912W        W35443  17.231  10.754   4.755
73913W        W35444  25.087  33.964   2.669
73914W        W35445  21.203  22.141   0.444
73915W        W35446  40.480  41.983   2.689
73916W        W35447  14.266  12.668   2.372
73917W        W35448  14.790   8.267   4.236
73918W        W35449  14.707   2.853   3.183
73919W        W35450  43.864  20.535  13.397
73920W        W35451  22.105  18.690   2.379
73921W        W35452  42.947  32.932   1.775
73922W        W35453  19.193  43.793  10.599
73923W        W35454  28.967  44.445  12.369
73924W        W35455  28.603  44.758   4.186
73925W        W35456  37.058   1.316   4.705
73926W        W35457  35.065  33.537   1.926
73927W        W35458  12.623   2.437  14.983
73928W        W35459   2.936  30.437   4.316
73929W        W35460  15.241  18.174   2.231
73930W        W35461   0.934   3.445  13.480
73931W        W35462  14.704   4.857   4.761
73932W        W35463  36.004   4.875   0.940
73933W        W35464  14.189   3.354   4.599
73934W        W35465  42.878  32.104   0.834
73935W        W35466  21.150  44.439   5.170
73936W        W35467  38.068  14.765  14.960
73937W        W35468  15.690  14.225  14.782
73938W        W35469   6.697  16.595   4.672
73939W        W35470   3.841  19.218   1.893
73940W        W35471  24.704  11.835   0.942
73941W        W35472  22.686  37.070  12.541
73942W        W35473  26.966  37.409  14.017
73943W        W35474  10.743  20.241   1.298
73944W        W35475  17.196   9.692  10.488
73945W        W35476  11.328  26.107  12.955
73946W        W35477  27.589  34.956  14.857
73947W        W35478  10.141   8.351   4.657
73948W        W35479   7.402   7.210   4.815
73949W        W35480  26.532  24.000  10.964
73950W        W35481  25.676  15.799   3.324
73951W        W35482  15.250  31.005   2.749
73952W        W35483  42.426  32.046  11.544
73953W        W35484   1.976  36.442  13.058
73954W        W35485  15.101  26.693  12.580
73955W        W35486  15.703  40.479   4.282
73956W        W35487  26.176  11.829   1.292
73957W        W35488  21.553  16.245   2.404
73958W        W35489   8.405  17.710   2.251
73959W        W35490  21.723  37.849   5.213
73960W        W35491  10.368  10.304   4.203
73961W        W35492  19.719  21.193   4.121
73962W        W35493   9.716   4.377  10.054
73963W        W35494  23.077  43.512   0.298
73964W        W35495  29.464  42.955   5.122
73965W        W35496  25.484  33.941   1.837
73966W        W35497   3.736  12.225   2.298
73967W        W35498  44.831  17.793  12.380
73968W        W35499  16.689  25.207   1.259
73969W        W35500  42.478   5.864   1.430
73970W        W35501  37.404  42.836  14.976
73971W        W35502  17.262  10.288  12.379
73972W        W35503  41.377  28.572   0.391
73973W        W35504  27.077  33.936   0.885
73974W        W35505  22.056  11.864  13.387
73975W        W35506  31.997   8.188   4.758
73976W        W35507   0.770  21.112   0.856
73977W        W35508  14.112  37.934   3.724
73978W        W35509   3.352  25.000   2.716
73979W        W35510  44.442   5.861  14.942
73980W        W35511  25.564  21.716  14.408
73981W        W35512  16.678   5.216  12.965
73982W        W35513  20.687   8.305   0.765
73983W        W35514  25.504   1.894  12.379
73984W        W35515  31.146  15.775   9.970
73985W        W35516  39.545  29.584  13.931
73986W        W35517  29.949  24.512  10.518
73987W        W35518   7.235  32.903   0.400
73988W        W35519  25.026  27.965  13.452
73989W        W35520  26.632  27.534  14.496
73990W        W35521  14.769  42.342  11.403
73991W        W35522   9.834  31.633  13.871
73992W        W35523  34.045  32.440   1.240
73993W        W35524  43.321  10.724   1.789
73994W        W35525  12.170  31.048   1.220
73995W        W35526  31.641   6.872   2.736
73996W        W35527  18.186  12.337  14.828
73997W        W35528  36.410  23.176   1.871
73998W        W35529  18.197  37.385   2.212
73999W        W35530  42.302  40.345   1.277
74000W        W35531  38.961  17.728  14.935
74001W        W35532  30.988  14.279  12.424
74002W        W35533  33.603  31.928  10.154
74003W        W35534  30.010  44.470  10.937
74004W        W35535   4.898  41.856   0.763
74005W        W35536  43.888   5.224   3.672
74006W        W35537   5.698  36.519   3.783
74007W        W35538  42.307  20.668  10.405
74008W        W35539  14.195   6.871   2.840
74009W        W35540  29.121   4.320   2.220
74010W        W35541  32.601  13.347  14.474
74011W        W35542  17.132  12.660  10.896
74012W        W35543  42.983  13.142   4.180
74013W        W35544  15.780   9.835  10.435
74014W        W35545  13.232  18.754   0.918
74015W        W35546   5.783   4.268   2.733
74016W        W35547  25.468  30.542  11.400
74017W        W35548  20.527   0.900  14.327
74018W        W35549  33.055  30.425  10.523
74019W        W35550   7.734  38.361   1.388
74020W        W35551   9.187  34.569  13.993
74021W        W35552  16.273  11.292   2.807
74022W        W35553   1.819   4.406  10.928
74023W        W35554   2.727   4.735  13.824
74024W        W35555  22.085  22.205   0.878
74025W        W35556  20.088  30.511   4.350
74026W        W35557  30.481  17.134   3.707
74027W        W35558  33.890  21.178  14.341
74028W        W35559  18.717   9.197  12.085
74029W        W35560  24.113  24.219   1.419
74030W        W35561   6.784  41.825  12.492
74031W        W35562  23.659   3.873   2.793
74032W        W35563  20.552  13.237   0.321
74033W        W35564  12.350  24.553   1.258
74034W        W35565  37.043  28.558   1.874
74035W        W35566   4.246  28.476   4.118
74036W        W35567  17.609  42.931   4.806
74037W        W35568  10.758   7.739  14.444
74038W        W35569  29.617  26.131   3.727
74039W        W35570   1.471  14.302   0.309
74040W        W35571   9.747  41.323  14.331
74041W        W35572   9.695  34.561  11.450
74042W        W35573  43.867  13.670  14.887
74043W        W35574  40.394  41.336  10.464
74044W        W35575  26.059  11.733   1.799
74045W        W35576  43.470   2.437  11.869
74046W        W35577  26.140  24.547   0.779
74047W        W35578  17.789  28.977  12.082
74048W        W35579   0.924  41.466  13.389
74049W        W35580  44.471  11.707  10.490
74050W        W35581  30.988  26.155   0.374
74051W        W35582  40.481  10.760  12.856
74052W        W35583   1.448  40.501  14.384
74053W        W35584   5.823  22.007  12.372
74054W        W35585  37.837  13.635   3.679
74055W        W35586  29.588  39.935   2.664
74056W        W35587  36.012  28.931  12.485
74057W        W35588  14.705  16.582  14.031
74058W        W35589  20.704  26.961  12.575
74059W        W35590  11.156   5.839   3.149
74060W        W35591  29.088  22.011  10.494
74061W        W35592  33.130   7.808  13.920
74062W        W35593  13.134   1.978   1.822
74063W        W35594  39.810  28.565  10.617
74064W        W35595   1.403  20.136  11.079
74065W        W35596  25.492  15.169  13.307
74066W        W35597   1.304  17.713   4.325
74067W        W35598  20.720   2.312  14.375
74068W        W35599   6.213  11.330  13.539
74069W        W35600  34.510   3.444   2.902
74070W        W35601   1.769  44.428   1.741
74071W        W35602   8.362  16.242   2.328
74072W        W35603  42.422  20.570   2.198
74073W        W35604  12.141  14.739  11.053
74074W        W35605  18.069  39.376  13.907
74075W        W35606  34.892  27.585   3.333
74076W        W35607  26.992  37.855  10.587
74077W        W35608  38.967  21.181   2.305
74078W        W35609  35.098  11.672   2.713
74079W        W35610  27.130  33.977   4.169
74080W        W35611  33.883  27.963  14.991
74081W        W35612  18.594  41.305   3.844
74082W        W35613  39.525   5.360  14.813
74083W        W35614  44.491   3.781   4.765
74084W        W35615  10.155  42.852   2.667
74085W        W35616  22.622  17.142  13.345
74086W        W35617  16.170  39.494  11.956
74087W        W35618  18.140   9.246   4.664
74088W        W35619  13.603  20.661   3.804
74089W        W35620  41.370  37.503  14.288
74090W        W35621   8.674  40.512   1.719
74091W        W35622  12.745  29.587  10.486
74092W        W35623   9.332   2.808  11.878
74093W        W35624  23.088   6.710   2.358
74094W        W35625  42.906   7.195   0.308
74095W        W35626  15.195  42.005   2.766
74096W        W35627   8.190   9.667   4.768
74097W        W35628   7.839  42.943  10.561
74098W        W35629  11.170  38.027   4.686
74099W        W35630  30.129  23.218  12.362
74100W        W35631  16.636  42.813  13.930
74101W        W35632  26.036  44.808  11.387
74102W        W35633  13.140   5.869   3.274
74103W        W35634  20.032  33.924   1.305
74104W        W35635   0.787   6.784   2.224
74105W        W35636  19.222  17.640   4.161
74106W        W35637  25.565  14.258   1.834
74107W        W35638  11.819  41.366   2.714
74108W        W35639   3.792   2.879   4.647
74109W        W35640  16.694  14.724   0.940
74110W        W35641  44.762  14.727   2.375
74111W        W35642  44.767  42.999  10.496
74112W        W35643   3.399  32.520   1.415
74113W        W35644  19.179  26.518   4.113
74114W        W35645   5.693  31.910  11.857
74115W        W35646  42.481   9.733   3.748
74116W        W35647  30.508  28.117   3.310
74117W        W35648  20.129   4.796   9.955
74118W        W35649   8.849   4.351   0.437
74119W        W35650  28.438  18.566  11.898
74120W        W35651  10.244  24.152   0.783
74121W        W35652   9.840  12.129   2.417
74122W        W35653  23.491  14.098  14.429
74123W        W35654  38.036   2.807  13.432
74124W        W35655   6.343  35.104  13.026
74125W        W35656   9.384  34.958  14.488
74126W        W35657  19.585  27.071   3.217
74127W        W35658  12.763  18.650  13.883
74128W        W35659  35.925   7.183  12.020
74129W        W35660  21.633  26.996   1.307
74130W        W35661  30.450  17.139  14.364
74131W        W35662  21.189  19.636  12.889
74132W        W35663  35.062  35.083   2.366
74133W        W35664  43.481  15.273   2.866
74134W        W35665  15.606  18.198   0.412
74135W        W35666  11.214  13.752   0.389
74136W        W35667  36.542   5.212  11.568
74137W        W35668  29.019  21.204   1.711
74138W        W35669  26.025  17.211  12.830
74139W        W35670   7.860  44.934  11.393
74140W        W35671  10.792  37.407  14.485
74141W        W35672  23.584  11.671   0.288
74142W        W35673  36.055  29.102  11.446
74143W        W35674  34.998  33.077   3.629
74144W        W35675  43.899   6.215   0.821
74145W        W35676  40.834   0.877  14.844
74146W        W35677  29.041  43.919   2.813
74147W        W35678   5.737   1.811  11.611
74148W        W35679  37.925  20.693  13.887
74149W        W35680  36.959  44.968  11.070
74150W        W35681   5.863  10.815   4.769
74151W        W35682  43.770  25.623   3.204
74152W        W35683  27.497  24.032   0.402
74153W        W35684  37.013  34.439   0.828
74154W        W35685  22.568   5.286  12.458
74155W        W35686  25.162  22.668  11.411
74156W        W35687  11.368  30.642  14.490
74157W        W35688  20.219   5.428   4.324
74158W        W35689  37.457  30.005  11.879
74159W        W35690  30.531  32.945  11.036
74160W        W35691   3.298   0.861   2.746
74161W        W35692  15.194  33.047  10.487
74162W        W35693   5.798  10.724   0.256
74163W        W35694   2.433  29.082  11.116
74164W        W35695  36.549  15.213   3.352
74165W        W35696  43.893   5.806   3.778
74166W        W35697  24.144   9.879  13.061
74167W        W35698   1.301  32.454   2.242
74168W        W35699  39.364  18.193  13.938
74169W        W35700  27.473  22.648  14.024
74170W        W35701  37.421   4.264   2.332
74171W        W35702   7.258   1.417   4.351
74172W        W35703   9.238  12.350   4.749
74173W        W35704   4.435   6.229   1.409
74174W        W35705  19.218  25.714  10.499
74175W        W35706  18.263  11.727   1.340
74176W        W35707  22.131  22.193   4.246
74177W        W35708  12.773  13.172   0.908
74178W        W35709  41.408  24.661   2.899
74179W        W35710   4.433  15.698  10.917
74180W        W35711  24.106  21.134  11.047
74181W        W35712   7.769   6.812   2.754
74182W        W35713  31.416   1.276  11.431
74183W        W35714  26.545  42.796  14.798
74184W        W35715   1.897  38.481   1.267
74185W        W35716  35.551  19.150   4.289
74186W        W35717   0.928  40.846  11.593
74187W        W35718  41.515  16.109   2.406
74188W        W35719  44.457  29.975   1.875
74189W        W35720  30.080  40.477  13.470
74190W        W35721  42.371  32.009  12.411
74191W        W35722  24.020  22.173   1.829
74192W        W35723  38.403  35.054   0.268
74193W        W35724   3.829  10.720   1.233
74194W        W35725  26.523  13.317   3.658
74195W        W35726  40.861  41.379   0.781
74196W        W35727  15.805  36.859   3.213
74197W        W35728  35.050  33.898   0.914
74198W        W35729  21.258  16.283  12.943
74199W        W35730  20.149  15.221  13.458
74200W        W35731  44.359  41.386  10.889
74201W        W35732  34.512  15.688   2.890
74202W        W35733  37.973  37.041  11.589
74203W        W35734  21.157  36.980   3.274
74204W        W35735  43.456   0.392  12.535
74205W        W35736  12.826  25.127  11.584
74206W        W35737  15.752   4.833   1.758
74207W        W35738  29.451  14.275   9.938
74208W        W35739   7.711  35.459   0.415
74209W        W35740  15.802  26.691  14.778
74210W        W35741  16.096  15.247   3.668
74211W        W35742   4.734  41.942   3.727
74212W        W35743   3.775   2.397  11.592
74213W        W35744  24.622  12.743  10.455
74214W        W35745  10.222  12.136   3.247
74215W        W35746  35.504  26.031  13.943
74216W        W35747   1.466  17.601   2.705
74217W        W35748  30.594   6.342  14.964
74218W        W35749   8.254  15.119   1.448
74219W        W35750   4.718   2.846  14.488
74220W        W35751  30.614  29.586   2.288
74221W        W35752   9.296  13.325   3.314
74222W        W35753  29.084  12.142  11.383
74223W        W35754  44.878  41.792   0.278
74224W        W35755  15.299  15.742   4.119
74225W        W35756  20.157  10.689   3.336
74226W        W35757  32.475  31.928  13.832
74227W        W35758  30.062   2.360   0.862
74228W        W35759  28.591  42.431   4.180
74229W        W35760   4.316  20.730  12.919
74230W        W35761  13.161  39.845  13.970
74231W        W35762  32.608   5.361   1.439
74232W        W35763   8.229  21.039   4.264
74233W        W35764  41.854  11.813   4.252
74234W        W35765  29.010  27.125  14.986
74235W        W35766  35.899  15.626   0.377
74236W        W35767  18.578  43.891  13.512
74237W        W35768  36.395  22.048   4.697
74238W        W35769  22.017  12.322   2.884
74239W        W35770  35.468  41.403   2.759
74240W        W35771   0.797  20.733   3.856
74241W        W35772  26.053  13.280   2.673
74242W        W35773   1.369  26.145   4.279
74243W        W35774   8.723  25.655   1.857
74244W        W35775   5.765  44.360  10.543
74245W        W35776  10.258   5.821   3.674
74246W        W35777  33.993  22.143   2.307
74247W        W35778  33.521   9.722  13.825
74248W        W35779  13.718  34.454   4.678
74249W        W35780  44.505  16.316  10.544
74250W        W35781  15.144   8.791   1.931
74251W        W35782  30.453  40.427  11.969
74252W        W35783   4.355  11.656  13.509
74253W        W35784  25.051   0.811   4.611
74254W        W35785  41.506  12.248  13.898
74255W        W35786  16.249  19.042  12.420
74256W        W35787  35.974  32.901   2.379
74257W        W35788  43.888  31.484  14.475
74258W        W35789  34.117  13.741  13.352
74259W        W35790  15.742   7.343  10.056
74260W        W35791  34.986  28.126  12.006
74261W        W35792  10.796  40.916  14.514
74262W        W35793  43.781   0.784   2.701
74263W        W35794  36.981  21.706  12.005
74264W        W35795  18.207  13.799  13.394
74265W        W35796   7.826   3.439  13.040
74266W        W35797  33.537  39.042   0.331
74267W        W35798  17.161  22.088  14.005
74268W        W35799  34.599  14.689   0.904
74269W        W35800   6.398  40.525  12.891
74270W        W35801  40.013  30.145   4.656
74271W        W35802  21.532  27.158   0.278
74272W        W35803  21.158  40.519   4.213
74273W        W35804  27.111   0.866  13.047
74274W        W35805  22.229   6.223   1.734
74275W        W35806   9.770  35.571   0.841
74276W        W35807  38.412  12.800  13.953
74277W        W35808  24.980  38.980  11.056
74278W        W35809  12.675  25.094   4.236
74279W        W35810  13.144  12.146  10.936
74280W        W35811  41.292   3.949  11.476
74281W        W35812  39.363  35.449  13.311
74282W        W35813  28.973  22.736  12.986
74283W        W35814   6.758   5.807   3.843
74284W        W35815   0.363  28.970  10.965
74285W        W35816  27.457  36.533  12.883
74286W        W35817  34.999  25.216   1.356
74287W        W35818   4.814   3.834  12.087
74288W        W35819  31.920  20.249   1.758
74289W        W35820  32.454  43.435  11.967
74290W        W35821   5.439  15.666   2.714
74291W        W35822  13.774  40.845   4.790
74292W        W35823   2.341  30.605   4.279
74293W        W35824  43.300  42.473   2.228
74294W        W35825  19.109  41.425  12.539
74295W        W35826  42.455  28.494   4.754
74296W        W35827  18.151  29.607   1.717
74297W        W35828  34.558  37.568   1.311
74298W        W35829  27.197  39.829  10.924
74299W        W35830   6.193  21.221  12.844
74300W        W35831  18.654  24.223  11.877
74301W        W35832  10.248  35.939   0.402
74302W        W35833  43.399   1.308   1.924
74303W        W35834  43.901  10.274   1.303
74304W        W35835   5.706   6.744   1.838
74305W        W35836  27.640  23.986  13.401
74306W        W35837   8.820  28.158   5.195
74307W        W35838  44.489  22.677   2.693
74308W        W35839   2.734  14.782   1.279
74309W        W35840   3.909  20.154  11.384
74310W        W35841   8.238  41.963   2.367
74311W        W35842   8.253  18.698   3.289
74312W        W35843  29.128  16.779  10.899
74313W        W35844  38.470  22.700  13.411
74314W        W35845  27.554  11.747   2.285
74315W        W35846  44.839  38.344  10.995
74316W        W35847  34.013  29.960   1.217
74317W        W35848  38.398  40.844   2.403
74318W        W35849   3.231  23.172   1.354
74319W        W35850  35.926  15.196  10.515
74320W        W35851  37.528  44.754   3.833
74321W        W35852  44.285   7.697   4.679
74322W        W35853  24.033   4.221   2.768
74323W        W35854  39.902   4.799   2.841
74324W        W35855  29.424  39.010   1.711
74325W        W35856  40.895  23.518  13.993
74326W        W35857  22.230  20.132  13.847
74327W        W35858  37.980  41.331   1.794
74328W        W35859  25.102  16.278  11.089
74329W        W35860  34.104  32.941  11.495
74330W        W35861  37.453  12.730   2.870
74331W        W35862  19.252   5.288  13.417
74332W        W35863  13.770   6.341   3.215
74333W        W35864  24.486  44.477   2.823
74334W        W35865   3.401  43.380   4.813
74335W        W35866  17.286  16.090   3.357
74336W        W35867  35.888   0.971  11.101
74337W        W35868  39.489  26.601   4.736
74338W        W35869  16.291  36.590   0.806
74339W        W35870  15.692   3.805  11.384
74340W        W35871  13.244   0.789   9.607
74341W        W35872  21.514   0.762   0.330
74342W        W35873  37.902   8.811   4.637
74343W        W35874  44.851  37.860  11.111
74344W        W35875  29.133  14.686   4.324
74345W        W35876  19.623   0.947   2.885
74346W        W35877  34.390   1.420   0.870
74347W        W35878  11.141   9.256  13.869
74348W        W35879  37.515  17.072  13.944
74349W        W35880  18.773  31.435  12.093
74350W        W35881  37.904  26.456   4.156
74351W        W35882  35.938  39.899   2.818
74352W        W35883  11.147  30.107   3.737
74353W        W35884  28.646  13.221  10.975
74354W        W35885  39.058  38.877   0.854
74355W        W35886   4.439  41.036  12.549
74356W        W35887  27.690  13.635   3.804
74357W        W35888  37.057  16.097  11.431
74358W        W35889  27.555  12.140  12.041
74359W        W35890  21.624   2.855   0.441
74360W        W35891  39.907  26.583   1.389
74361W        W35892  41.950  37.532   2.336
74362W        W35893  24.037  20.186   1.777
74363W        W35894   7.735  42.953   5.125
74364W        W35895  15.141  15.633   4.645
74365W        W35896  10.139  16.568  12.499
74366W        W35897  10.198   0.383   1.701
74367W        W35898  11.667  42.891  11.977
74368W        W35899  27.544  21.671  11.953
74369W        W35900   6.734   7.892   3.660
74370W        W35901   9.648   3.869  10.906
74371W        W35902   6.875   5.297  13.852
74372W        W35903  36.489  25.504   0.244
74373W        W35904   0.287  43.999   3.804
74374W        W35905  30.979  15.296   0.466
74375W        W35906   1.385  13.703   0.346
74376W        W35907  18.594  11.189  13.055
74377W        W35908   1.797  20.763   1.329
74378W        W35909  38.857  11.171  11.856
74379W        W35910   5.407  18.079  12.956
74380W        W35911  17.298  10.291   1.298
74381W        W35912   7.255  41.496  11.581
74382W        W35913  28.939  27.144   3.296
74383W        W35914  42.321  13.243  12.568
74384W        W35915  19.079   9.191   1.855
74385W        W35916  36.388   8.318  10.414
74386W        W35917   8.349  32.498  12.953
74387W        W35918  22.010  39.873   1.731
74388W        W35919  27.476  15.775  10.981
74389W        W35920  15.648  16.653   4.670
74390W        W35921   7.382  24.536  11.591
74391W        W35922  21.036  10.852   3.694
74392W        W35923  25.218  30.442  13.996
74393W        W35924  24.687  38.517   1.315
74394W        W35925  27.051   1.866   1.805
74395W        W35926  36.399  18.080   3.862
74396W        W35927  28.447  23.594   5.135
74397W        W35928  34.573   4.222   3.372
74398W        W35929  42.876  10.299   1.317
74399W        W35930  26.108  23.583  13.886
74400W        W35931  30.015  33.981   3.228
74401W        W35932  37.559  12.825   0.290
74402W        W35933  12.174   7.809   1.905
74403W        W35934  24.667  36.852  12.872
74404W        W35935   7.684  37.434  13.378
74405W        W35936  33.619  37.367   3.664
74406W        W35937  26.641  22.998  12.427
74407W        W35938   0.786  32.930  12.840
74408W        W35939  15.588  27.645   2.775
74409W        W35940  37.422   7.785   1.444
74410W        W35941  29.481  37.534   0.826
74411W        W35942  22.221   5.760   0.937
74412W        W35943  34.442   4.752   4.211
74413W        W35944  30.598   4.270  14.943
74414W        W35945  37.488  28.938  11.417
74415W        W35946  31.923   4.445  11.482
74416W        W35947  10.644  39.049   2.254
74417W        W35948  19.590   1.300   0.450
74418W        W35949  43.430  26.496  14.029
74419W        W35950   9.315   8.778   0.297
74420W        W35951   9.350  27.623   0.738
74421W        W35952  28.466   7.175  12.824
74422W        W35953   2.274  39.977  14.363
74423W        W35954  27.138   2.275   4.601
74424W        W35955  11.274  33.590  12.364
74425W        W35956   4.425  38.412   3.779
74426W        W35957  33.505   5.193   1.704
74427W        W35958  32.911  11.138   3.685
74428W        W35959  20.253  19.104   3.314
74429W        W35960  40.888  22.128   4.609
74430W        W35961  21.089  18.779   5.305
74431W        W35962  37.857  36.915  10.579
74432W        W35963  14.172  32.460  13.342
74433W        W35964  10.716  10.312  11.459
74434W        W35965  33.504  41.993  14.298
74435W        W35966  39.358  10.153   0.410
74436W        W35967  39.889   0.966  14.303
74437W        W35968  17.167  22.651   1.868
74438W        W35969  28.120  29.539   1.723
74439W        W35970  40.982  42.429  12.987
74440W        W35971  19.728   2.877  13.839
74441W        W35972  31.912  34.011  12.927
74442W        W35973  44.321  32.934   2.799
74443W        W35974  15.210   1.312  10.575
74444W        W35975  19.613  39.512  14.472
74445W        W35976  24.549  22.105  12.869
74446W        W35977   8.179  27.487   0.852
74447W        W35978  43.002  43.515  11.006
74448W        W35979  25.095   3.752   1.766
74449W        W35980  12.721  37.921   4.146
74450W        W35981  42.377   9.193  11.519
74451W        W35982  37.958   1.301   0.289
74452W        W35983   7.711  12.617  12.823
74453W        W35984  21.582  14.204  13.903
74454W        W35985  12.738  21.585   2.862
74455W        W35986  14.294   0.368   4.125
74456W        W35987  10.819  39.003   0.855
74457W        W35988  22.201  36.526  12.955
74458W        W35989  43.999  17.179  14.835
74459W        W35990  36.521  17.258   3.674
74460W        W35991  26.201  22.537  11.415
74461W        W35992  23.084  34.955   3.855
74462W        W35993  15.111  39.819  12.394
74463W        W35994  36.531  16.748  11.436
74464W        W35995  17.643  26.013  10.997
74465W        W35996  16.117  16.306  13.822
74466W        W35997  28.442   9.341   3.366
74467W        W35998  28.118   3.256  14.867
74468W        W35999  32.890  41.465  13.424
74469W        W36000  10.769  43.401  11.563
74470W        W36001  42.986   5.881  12.490
74471W        W36002  12.347  19.699   0.854
74472W        W36003   4.294  31.991  12.471
74473W        W36004  29.659   1.457   1.833
74474W        W36005  44.780  25.699  12.344
74475W        W36006   2.305  11.744   1.422
74476W        W36007  35.879  31.506   0.912
74477W        W36008  30.142  14.287   1.763
74478W        W36009   1.351  23.229  11.427
74479W        W36010  13.147  15.294   0.873
74480W        W36011  23.208   2.963   1.232
74481W        W36012  24.639  21.614  13.420
74482W        W36013  11.735   8.657   1.448
74483W        W36014  20.178  42.018  11.405
74484W        W36015  11.298  40.885   0.352
74485W        W36016  42.923  43.272   0.321
74486W        W36017  13.155  16.699  14.762
74487W        W36018  26.572   3.872   0.802
74488W        W36019  24.715  28.048  11.107
74489W        W36020  37.418  40.527  11.012
74490W        W36021   3.888  15.240  14.432
74491W        W36022  33.978  44.458  12.083
74492W        W36023  29.973  32.133   4.747
74493W        W36024  14.707  10.241  13.907
74494W        W36025  26.186  29.643   9.450
74495W        W36026  29.015  31.987   1.858
74496W        W36027   6.287  40.797  12.064
74497W        W36028  23.719  35.447  14.339
74498W        W36029  36.886  17.091   2.254
74499W        W36030  21.644  14.757   4.609
74500W        W36031  34.865   9.825   0.956
74501W        W36032  19.050  12.242   0.750
74502W        W36033  12.654   6.283   3.272
74503W        W36034  21.560  31.032  14.024
74504W        W36035  15.817  35.938   3.845
74505W        W36036  14.796  23.538  10.552
74506W        W36037  13.269  28.471   1.385
74507W        W36038  43.487  42.835  13.922
74508W        W36039  30.458  43.344   3.224
74509W        W36040   0.284  34.875   2.822
74510W        W36041   1.300  12.823  10.914
74511W        W36042  21.731  23.041   4.815
74512W        W36043   2.230  40.528   2.789
74513W        W36044   4.831  36.562  12.893
74514W        W36045   7.387  13.179  14.949
74515W        W36046  21.185  34.908   0.759
74516W        W36047  14.640   5.200  12.476
74517W        W36048  15.231   9.819  12.086
74518W        W36049  39.343  23.570  10.467
74519W        W36050  17.277  25.973   2.322
74520W        W36051  39.403   9.878   3.662
74521W        W36052  24.706  32.566   5.278
74522W        W36053  32.896   6.189  13.380
74523W        W36054  33.432  30.487  10.573
74524W        W36055  16.299  32.036  13.421
74525W        W36056  12.286  18.154   2.666
74526W        W36057  25.058  44.260   0.287
74527W        W36058  24.481  37.848   1.251
74528W        W36059  28.009  15.224   1.707
74529W        W36060  26.155   6.280   0.791
74530W        W36061  25.193  11.258   2.250
74531W        W36062  10.236  42.973   1.762
74532W        W36063  14.780  14.174   2.198
74533W        W36064  27.085  12.220  10.433
74534W        W36065  16.754  41.818   2.698
74535W        W36066  43.823  44.445  11.428
74536W        W36067  23.522  20.525   4.634
74537W        W36068   0.742  39.850   4.292
74538W        W36069   5.380  34.010  14.898
74539W        W36070  24.567  17.618  12.349
74540W        W36071  37.018  32.442  14.014
74541W        W36072  15.183  27.150   1.348
74542W        W36073  12.716  13.120   0.420
74543W        W36074   0.353  11.179   1.914
74544W        W36075  19.670  11.866  13.928
74545W        W36076   1.761  23.720   3.791
74546W        W36077  38.562  24.677  14.837
74547W        W36078  38.955  17.198   4.113
74548W        W36079  28.576  15.208   4.822
74549W        W36080  26.668  26.599   0.367
74550W        W36081  16.217  22.507   2.830
74551W        W36082  40.402  24.585  11.078
74552W        W36083  43.420  23.583  12.576
74553W        W36084  27.067  30.467   0.337
74554W        W36085  28.608   1.934   3.221
74555W        W36086  38.430  21.757  10.612
74556W        W36087  33.552  18.741   4.215
74557W        W36088  43.431   1.259   4.708
74558W        W36089  15.188  31.429  12.854
74559W        W36090  15.602   8.690  11.393
74560W        W36091   7.722  16.126   4.760
74561W        W36092   4.425  34.382   1.765
74562W        W36093  12.299  17.708   4.790
74563W        W36094  24.638  41.348   2.732
74564W        W36095  38.991   2.865   4.710
74565W        W36096   0.871  32.528  10.610
74566W        W36097   4.431  17.129  10.535
74567W        W36098  44.374  34.995   0.881
74568W        W36099  18.548  26.196  12.878
74569W        W36100  33.454  36.543   3.651
74570W        W36101  25.208  28.674  12.060
74571W        W36102  40.994  42.913  11.596
74572W        W36103  35.870   1.419  14.801
74573W        W36104  18.680  11.322   4.319
74574W        W36105   2.943  30.969   2.898
74575W        W36106  30.012  44.375  10.597
74576W        W36107   9.178  37.962   2.880
74577W        W36108  21.672  21.634   3.198
74578W        W36109  12.842   3.900   0.775
74579W        W36110  34.047  13.329   5.290
74580W        W36111  23.546   5.274   3.798
74581W        W36112  37.514  13.777  10.405
74582W        W36113  28.490  24.216   4.251
74583W        W36114  15.297  44.356   0.247
74584W        W36115  25.056   3.768   4.688
74585W        W36116   0.301  25.996  14.921
74586W        W36117  14.820  19.179  14.975
74587W        W36118   0.400  38.487   3.341
74588W        W36119   7.241  38.974  13.061
74589W        W36120  19.644  41.915   2.319
74590W        W36121  38.043  41.327  11.477
74591W        W36122   7.285  25.192   0.911
74592W        W36123  17.610  29.055   1.732
74593W        W36124  41.449   6.794   3.684
74594W        W36125  22.590  18.084  13.901
74595W        W36126  38.557  12.791   1.308
74596W        W36127  33.009  14.677  11.468
74597W        W36128  16.175  32.525   2.339
74598W        W36129  39.815  18.576   4.325
74599W        W36130  10.636  15.177  10.553
74600W        W36131  13.137  19.069  13.937
74601W        W36132  28.113  34.987  10.494
74602W        W36133  34.089  10.215   4.825
74603W        W36134  23.626  20.597   0.829
74604W        W36135  35.045  38.895   5.281
74605W        W36136  27.588  22.051  13.507
74606W        W36137  42.361   3.802   0.445
74607W        W36138  19.601   0.276   3.729
74608W        W36139  21.051  13.721   0.852
74609W        W36140  38.002  13.251  13.399
74610W        W36141  28.653  37.506   3.382
74611W        W36142   5.920  44.267  14.325
74612W        W36143  16.093  25.969  12.995
74613W        W36144  18.085  33.390  13.823
74614W        W36145  10.142   7.272   2.771
74615W        W36146   6.792   0.914  12.466
74616W        W36147  26.474  26.555  12.489
74617W        W36148  17.631   4.729   4.255
74618W        W36149  29.938  29.465   4.315
74619W        W36150  29.028  41.462  11.446
74620W        W36151  27.659  17.202  13.368
74621W        W36152  26.109   9.296  12.001
74622W        W36153   2.458  35.881  14.783
74623W        W36154  17.286   4.441  11.866
74624W        W36155  43.327  34.934   1.934
74625W        W36156  26.019  18.290  14.005
74626W        W36157  29.114  34.492   4.620
74627W        W36158   7.675  28.489  13.895
74628W        W36159   5.859   2.433  11.580
74629W        W36160   4.794  26.489  11.429
74630W        W36161  23.156  24.557   3.811
74631W        W36162  32.503  27.166   4.770
74632W        W36163  21.714  19.259  14.874
74633W        W36164  42.473  14.818  12.492
74634W        W36165  14.332   7.863   0.894
74635W        W36166   0.832  14.311   3.151
74636W        W36167   4.220  33.954   3.161
74637W        W36168   9.277   5.878   0.762
74638W        W36169   7.768  12.179   1.826
74639W        W36170  17.746  40.458   2.883
74640W        W36171  15.113  26.571   2.807
74641W        W36172   3.383  31.609  13.434
74642W        W36173  31.440  13.148   1.425
74643W        W36174   7.813  34.057   3.645
74644W        W36175  27.168  11.703   0.744
74645W        W36176  18.770  13.628  11.084
74646W        W36177   1.292  28.476  14.769
74647W        W36178  43.386  44.422  14.309
74648W        W36179  34.458  25.533  12.003
74649W        W36180  25.204  36.555  10.896
74650W        W36181   3.461  26.992   1.377
74651W        W36182  28.676  11.279  11.012
74652W        W36183  16.735  36.439  12.900
74653W        W36184  10.167  30.451  12.505
74654W        W36185  23.728   1.854  11.935
74655W        W36186  30.511   4.310  13.513
74656W        W36187  29.944  23.024   4.821
74657W        W36188  36.522  27.076   0.443
74658W        W36189   6.337  19.724  10.549
74659W        W36190  23.167   7.288  11.895
74660W        W36191  43.439  39.864   3.361
74661W        W36192  12.687  29.134  13.802
74662W        W36193  40.834  14.830  11.959
74663W        W36194  16.679  31.450   0.440
74664W        W36195  30.953   7.279   3.775
74665W        W36196  18.780  19.159  10.602
74666W        W36197  20.232  24.536   0.858
74667W        W36198  21.611  22.048  14.857
74668W        W36199  13.190  31.415  13.944
74669W        W36200  34.015   1.413  11.910
74670W        W36201  35.359  20.038   0.419
74671W        W36202  40.966   6.846   2.787
74672W        W36203  42.830  11.651   2.675
74673W        W36204   7.240  16.719   3.232
74674W        W36205   9.293  22.628   4.290
74675W        W36206  39.938  34.035  12.372
74676W        W36207  10.298  14.116   2.218
74677W        W36208  15.759  38.485  11.400
74678W        W36209  10.224  33.087   1.754
74679W        W36210  31.536  33.603   1.237
74680W        W36211  34.029   4.363   3.349
74681W        W36212  42.868  35.396   4.338
74682W        W36213   7.665  42.432  13.527
74683W        W36214   4.354  21.675   4.181
74684W        W36215   5.385  33.575   3.649
74685W        W36216  24.504  10.197  13.946
74686W        W36217   6.191  43.379  11.879
74687W        W36218  33.580   9.342  10.622
74688W        W36219  19.564  18.275   1.859
74689W        W36220   3.908   9.761  11.100
74690W        W36221  29.668  16.174   3.825
74691W        W36222   9.789   9.157   1.883
74692W        W36223  33.566  33.489   2.707
74693W        W36224   8.885  41.952  10.593
74694W        W36225  35.431  10.782   2.875
74695W        W36226   3.955  21.196  10.983
74696W        W36227  32.570  31.084  11.517
74697W        W36228   5.376  33.898   0.347
74698W        W36229  12.838  35.978  14.872
74699W        W36230   7.268  36.413  11.073
74700W        W36231  29.604  21.113  13.547
74701W        W36232   4.331  27.950   2.783
74702W        W36233  31.574  33.007   2.241
74703W        W36234  36.935  20.725   3.211
74704W        W36235  27.958  22.146   1.279
74705W        W36236  41.411  33.546   2.386
74706W        W36237  26.016  24.611   2.218
74707W        W36238  44.810  19.145  11.019
74708W        W36239  18.195  18.295  11.926
74709W        W36240  44.918  27.666   2.848
74710W        W36241   6.717  16.073   0.763
74711W        W36242  33.585   7.238  12.465
74712W        W36243  34.527  30.102   0.945
74713W        W36244  14.172  35.558   1.445
74714W        W36245  37.472  38.853  13.320
74715W        W36246  25.712  25.975  10.979
74716W        W36247  30.458  15.101  11.893
74717W        W36248  32.471   2.937   1.433
74718W        W36249  38.351  34.086  14.943
74719W        W36250  44.298  12.775  14.774
74720W        W36251  32.898  12.729  13.499
74721W        W36252  26.081  31.491  12.933
74722W        W36253  29.496   5.755  10.128
74723W        W36254   0.392   6.872  12.058
74724W        W36255   8.687  29.616  11.408
74725W        W36256  27.097  24.980  10.957
74726W        W36257   2.735  32.391  14.958
74727W        W36258  19.698  28.468  13.471
74728W        W36259  28.449  16.090  12.857
74729W        W36260  42.409  34.542  10.450
74730W        W36261  36.475  14.808  13.369
74731W        W36262  39.410  27.009  14.356
74732W        W36263  28.460  24.065   0.925
74733W        W36264  28.049  36.346  12.824
74734W        W36265  16.230  35.380  13.996
74735W        W36266  10.669  28.642  11.884
74736W        W36267   9.713  18.681   0.728
74737W        W36268   6.298  31.439   2.193
74738W        W36269  22.730   0.325   2.755
74739W        W36270  28.976  22.251   4.685
74740W        W36271  36.008  35.064  11.084
74741W        W36272  10.751  25.015   5.088
74742W        W36273  22.622  16.200  14.484
74743W        W36274  10.739  43.279  12.461
74744W        W36275  14.634  25.659   0.332
74745W        W36276   7.792  22.615  14.771
74746W        W36277  33.121  19.121  14.417
74747W        W36278  22.202  12.648   0.953
74748W        W36279   0.335  12.124   1.723
74749W        W36280   4.817   9.164   1.858
74750W        W36281  39.417   9.751  13.412
74751W        W36282   2.263  43.772   2.788
74752W        W36283  27.627  37.834  13.533
74753W        W36284   2.424  43.461  12.885
74754W        W36285  16.214   3.736   3.341
74755W        W36286   7.720   9.657   4.259
74756W        W36287  29.129  19.130   3.387
74757W        W36288  29.542  25.163   1.882
74758W        W36289  38.527   0.409  11.965
74759W        W36290  17.620  10.724  14.950
74760W        W36291  17.641  15.324   1.766
74761W        W36292  32.546   0.810  10.555
74762W        W36293  25.611  17.212   3.245
74763W        W36294  23.154   0.488  10.524
74764W        W36295  15.626  16.129   3.215
74765W        W36296  14.270  15.766   4.238
74766W        W36297  43.942  30.033   3.738
74767W        W36298  13.330  39.063   4.282
74768W        W36299  18.178  44.801  12.423
74769W        W36300  14.799  41.332   3.378
74770W        W36301   4.841  17.130  13.481
74771W        W36302  26.464  25.168   1.870
74772W        W36303  25.076  34.585  11.535
74773W        W36304  34.990  43.819   0.294
74774W        W36305   3.932  30.056   2.356
74775W        W36306   3.890  40.799   0.409
74776W        W36307  11.181  18.185   4.641
74777W        W36308  41.442   0.959  11.530
74778W        W36309  11.725  36.516   1.428
74779W        W36310  32.621   5.319  12.065
74780W        W36311  19.627  36.031   0.854
74781W        W36312  11.329  23.085   0.784
74782W        W36313   8.372  33.504   1.858
74783W        W36314  24.706  14.177   0.911
74784W        W36315  16.724  32.089   3.733
74785W        W36316   3.412   7.243  14.484
74786W        W36317  36.441  38.392  14.963
74787W        W36318  39.446  34.884   0.919
74788W        W36319  37.024  25.083  13.349
74789W        W36320  29.459  12.759  11.611
74790W        W36321  20.677  20.742   1.289
74791W        W36322  37.955  32.105  10.103
74792W        W36323   9.722  26.048   4.320
74793W        W36324  35.027  13.117  11.373
74794W        W36325  21.566   5.225  12.426
74795W        W36326  29.961  43.947  13.533
74796W        W36327   3.842  42.969  14.455
74797W        W36328  35.928   1.424   0.397
74798W        W36329  43.779  31.614   2.898
74799W        W36330  28.134   6.721   2.286
74800W        W36331  21.031   2.322   4.355
74801W        W36332  38.918  25.198  10.505
74802W        W36333  23.003  22.995   4.601
74803W        W36334  10.321  14.771  13.442
74804W        W36335   5.261   9.303   4.668
74805W        W36336  30.584  16.727  13.947
74806W        W36337  33.566  20.745   4.124
74807W        W36338   7.335  15.171   3.775
74808W        W36339  25.158  27.053  12.958
74809W        W36340  24.626  39.042  10.600
74810W        W36341   0.882   6.315  10.136
74811W        W36342  17.762  16.725   0.381
74812W        W36343  21.213  30.074   3.325
74813W        W36344  27.175   5.439  12.375
74814W        W36345  28.680  15.123  13.539
74815W        W36346   7.778   2.741  12.407
74816W        W36347  24.494   5.840  11.878
74817W        W36348  26.699  19.698   1.300
74818W        W36349  20.617   1.804   4.120
74819W        W36350  29.045   5.219   0.741
74820W        W36351  16.135  38.433  14.441
74821W        W36352  29.057   6.679  10.645
74822W        W36353  20.619  22.652   1.862
74823W        W36354  18.567  38.413   0.383
74824W        W36355  26.591   8.731  14.413
74825W        W36356  26.607  24.677  14.873
74826W        W36357  44.324  30.649   4.635
74827W        W36358  25.534  25.180   9.974
74828W        W36359  40.891  20.712   2.414
74829W        W36360  38.493  31.990  11.021
74830W        W36361   7.799  31.530   0.769
74831W        W36362  36.035  39.513   2.841
74832W        W36363  34.885  21.676   4.164
74833W        W36364   3.263  43.282  10.605
74834W        W36365  28.592  40.030   0.779
74835W        W36366  10.632  19.247  14.995
74836W        W36367  38.908   5.908  10.441
74837W        W36368  11.156   3.810  13.391
74838W        W36369  13.653  38.330   0.320
74839W        W36370   6.863  13.687   1.781
74840W        W36371  23.503  24.500   0.263
74841W        W36372  44.757  38.528  10.552
74842W        W36373  38.045  31.152  11.584
74843W        W36374   2.349  40.905  10.527
74844W        W36375  41.839   2.912  12.519
74845W        W36376  38.971  33.012  13.953
74846W        W36377  29.557  38.519  13.438
74847W        W36378  19.098  34.008  12.869
74848W        W36379  30.504   3.840  14.014
74849W        W36380  33.080  19.622  13.337
74850W        W36381   4.760  32.625   0.763
74851W        W36382   2.742  42.290   1.243
74852W        W36383  35.380   2.880   1.231
74853W        W36384  43.278  32.521   1.415
74854W        W36385  42.904  25.130  14.434
74855W        W36386  12.175  24.094   1.858
74856W        W36387  31.153  34.905   1.766
74857W        W36388  23.144  38.421   1.334
74858W        W36389  44.448  31.487  13.382
74859W        W36390   6.741  35.430  13.852
74860W        W36391  26.516  12.854   5.297
74861W        W36392  23.216   9.808   3.230
74862W        W36393  15.635  31.553  12.980
74863W        W36394  41.326  27.105   0.768
74864W        W36395  28.527  14.308   0.909
74865W        W36396  11.242  28.154   1.806
74866W        W36397  18.202   4.727   0.808
74867W        W36398   4.798   3.455   2.788
74868W        W36399  26.464  38.972  10.465
74869W        W36400   7.859  35.550  12.065
74870W        W36401  40.365  17.281  13.833
74871W        W36402   2.804  30.483  11.125
74872W        W36403  20.678  31.596   3.372
74873W        W36404   8.269  17.131   1.820
74874W        W36405  29.467  32.568  14.892
74875W        W36406  26.012  12.747  13.059
74876W        W36407  14.753   7.246  10.463
74877W        W36408  39.052  34.001  13.376
74878W        W36409  41.430   2.304   0.923
74879W        W36410  38.820  36.947   3.733
74880W        W36411  34.906  42.906   9.961
74881W        W36412   7.286  33.509   4.787
74882W        W36413   9.762  30.529  14.318
74883W        W36414  43.777  13.134  10.409
74884W        W36415  16.150  20.761   4.685
74885W        W36416  26.966  17.195  12.011
74886W        W36417  28.574  22.218  11.959
74887W        W36418  19.253  12.319   4.247
74888W        W36419   9.754  35.930   3.281
74889W        W36420  29.122   8.888  10.897
74890W        W36421   7.777  40.493  14.911
74891W        W36422  32.573  43.418   3.360
74892W        W36423  38.057   7.395   1.273
74893W        W36424  28.489  19.188  12.485
74894W        W36425  26.528  17.603  10.505
74895W        W36426  14.278   3.430   3.751
74896W        W36427  29.529  36.378  11.908
74897W        W36428   0.791  12.811   0.785
74898W        W36429  30.034  35.586  14.914
74899W        W36430  35.461   6.285   2.705
74900W        W36431  44.406  28.469  13.791
74901W        W36432  15.089   5.328  11.903
74902W        W36433   7.862  27.670  12.383
74903W        W36434  15.297  24.050  14.953
74904W        W36435  41.994  37.402  11.124
74905W        W36436  23.985  12.687   0.334
74906W        W36437  13.669  35.941   2.242
74907W        W36438  44.856  15.246  12.435
74908W        W36439  15.309  24.057  10.091
74909W        W36440  35.405  23.648   3.345
74910W        W36441  43.975  21.202  11.857
74911W        W36442  43.821   8.193  12.546
74912W        W36443   0.762  37.543   0.429
74913W        W36444  15.774  39.335  13.547
74914W        W36445   6.744  22.037   2.814
74915W        W36446  33.986   5.826   1.246
74916W        W36447  13.298  33.517   5.197
74917W        W36448  16.775  26.492  10.967
74918W        W36449  21.600  29.578   9.992
74919W        W36450   0.454  13.218   0.895
74920W        W36451  44.974  43.464  12.939
74921W        W36452  36.505  30.491  12.023
74922W        W36453  32.481  19.617  10.528
74923W        W36454   8.857  23.734   2.301
74924W        W36455  37.012  15.189   3.721
74925W        W36456  10.802  11.326  14.394
74926W        W36457  21.641  25.517  14.349
74927W        W36458  36.934  11.652   0.449
74928W        W36459  15.653  16.777   4.327
74929W        W36460  41.315  17.581  11.947
74930W        W36461  21.621  38.904  10.954
74931W        W36462  34.518  43.964   4.711
74932W        W36463   2.749  34.908   0.880
74933W        W36464  44.452  23.010   2.678
74934W        W36465  12.357  43.464   3.668
74935W        W36466   8.380   0.257  13.335
74936W        W36467   9.236   5.800  10.918
74937W        W36468  35.996  37.488  13.547
74938W        W36469  39.516  36.005  11.394
74939W        W36470  19.178  43.895  14.866
74940W        W36471   2.768  15.813   3.751
74941W        W36472   6.905   2.377  14.505
74942W        W36473  16.716  43.934  10.971
74943W        W36474  31.950  21.652   0.777
74944W        W36475  11.151  41.467   1.934
74945W        W36476  17.183  24.604   0.425
74946W        W36477  42.469   5.862   4.182
74947W        W36478  35.477  39.948   2.388
74948W        W36479  26.476  24.584  11.864
74949W        W36480  19.070   4.865  14.919
74950W        W36481  32.498  43.890   2.791
74951W        W36482  41.485   3.917  13.941
74952W        W36483   2.233  16.084   1.704
74953W        W36484   2.248  27.537   1.250
74954W        W36485  42.297   2.725   1.759
74955W        W36486  13.805   0.796  10.615
74956W        W36487  43.484  31.562   3.676
74957W        W36488  29.105   0.838  12.883
74958W        W36489  20.534  10.755   1.439
74959W        W36490   6.182  42.850   3.205
74960W        W36491  11.785   5.710   2.715
74961W        W36492   8.798   2.963  12.409
74962W        W36493  22.709  27.091   0.767
74963W        W36494   5.729  21.610  14.764
74964W        W36495  23.715   3.237   1.372
74965W        W36496  23.192  44.756   0.475
74966W        W36497   0.387  35.021  14.880
74967W        W36498  22.570  11.341  14.477
74968W        W36499  32.955   4.322   2.753
74969W        W36500  33.572  32.009  14.426
74970W        W36501  29.555  36.009  10.959
74971W        W36502   4.827  43.393   0.460
74972W        W36503  17.799  23.140   5.198
74973W        W36504  41.314  40.813  13.997
74974W        W36505  30.075  36.473   4.267
74975W        W36506  32.506  16.139   1.395
74976W        W36507   2.751   0.264   3.728
74977W        W36508  23.505  31.564   0.852
74978W        W36509  40.023  32.392   0.264
74979W        W36510  16.219  37.921   3.156
74980W        W36511  35.899   8.834  14.448
74981W        W36512  32.136  40.368   3.256
74982W        W36513  25.204  21.556  11.992
74983W        W36514  38.376  26.613   3.748
74984W        W36515  17.706  13.760   4.275
74985W        W36516  18.228  31.909  14.350
74986W        W36517  18.268  26.474   9.950
74987W        W36518  41.932  34.035   3.366
74988W        W36519  29.513  29.133   4.297
74989W        W36520  30.123  41.494   3.790
74990W        W36521  20.719  27.563  10.982
74991W        W36522  44.333  18.709   4.824
74992W        W36523  31.540   8.810   2.736
74993W        W36524  30.118   1.967   1.445
74994W        W36525  20.102  37.880  13.411
74995W        W36526   4.233  19.650  12.437
74996W        W36527   9.809  36.076   4.259
74997W        W36528  39.481  33.567   0.309
74998W        W36529  40.504  19.683  11.002
74999W        W36530  35.562  33.552   3.727
75000W        W36531  22.678  35.030  11.390
75001W        W36532  24.675  23.032  11.444
75002W        W36533  44.436   9.240  11.548
75003W        W36534   6.834   9.231   4.204
75004W        W36535  11.721  43.939   3.795
75005W        W36536  41.294  11.330  11.905
75006W        W36537  31.943  31.622   0.785
75007W        W36538  36.511   5.813   2.389
75008W        W36539  27.662   6.233   3.754
75009W        W36540  36.490  22.224   0.364
75010W        W36541  12.628  11.740  13.826
75011W        W36542  20.649  30.156   0.956
75012W        W36543   6.679  20.061   4.625
75013W        W36544  14.174  31.924   1.696
75014W        W36545  11.677  43.858   2.264
75015W        W36546  34.588  22.611  14.486
75016W        W36547   5.329  43.889   2.285
75017W        W36548  38.507   1.859   4.309
75018W        W36549   9.204  32.080   5.225
75019W        W36550  20.721  35.887  11.382
75020W        W36551  27.197  21.057   2.257
75021W        W36552  21.101  40.993  12.972
75022W        W36553   6.216  12.634  12.873
75023W        W36554  42.510  39.060   1.247
75024W        W36555  17.618   9.221   2.192
75025W        W36556   6.240  28.588  10.606
75026W        W36557  22.512  43.465  13.457
75027W        W36558  34.426   1.881   0.885
75028W        W36559  43.817   0.743   0.250
75029W        W36560  36.000  22.637   2.781
75030W        W36561   3.331  27.665   4.355
75031W        W36562  31.045  23.514  12.511
75032W        W36563  33.014  31.935   0.780
75033W        W36564   6.272  42.947  10.552
75034W        W36565  13.645  28.575   3.667
75035W        W36566  21.193   9.779   3.258
75036W        W36567  15.800  25.671   0.251
75037W        W36568  44.293  18.212   5.200
75038W        W36569  19.746  27.137   5.117
75039W        W36570  21.682   5.741  11.016
75040W        W36571  36.484  26.063   2.411
75041W        W36572   2.230   6.356  14.805
75042W        W36573   9.649   3.411  12.357
75043W        W36574  37.970  43.345  10.548
75044W        W36575   0.982  10.776  12.944
75045W        W36576  33.889   8.374  14.304
75046W        W36577  11.857  27.946   1.717
75047W        W36578  15.266  37.883  10.545
75048W        W36579  22.742  29.164   1.765
75049W        W36580  11.186  35.010  11.506
75050W        W36581  25.138  36.063  10.608
75051W        W36582   5.356  41.402  14.879
75052W        W36583  25.627   1.823   1.291
75053W        W36584  37.965  23.089   4.711
75054W        W36585  27.667  15.760   0.768
75055W        W36586  23.680   2.470   1.400
75056W        W36587   1.454  12.759  14.906
75057W        W36588   4.792   3.801   4.293
75058W        W36589  29.549   4.929  14.462
75059W        W36590   5.904  12.660   3.778
75060W        W36591  30.463  34.542   1.775
75061W        W36592  23.037  12.346   1.365
75062W        W36593  21.672  44.999   2.219
75063W        W36594  29.588  27.650   2.341
75064W        W36595  27.626  42.867  10.078
75065W        W36596  20.249  29.051  11.869
75066W        W36597  37.382  27.977  12.524
75067W        W36598   1.883  18.080   4.315
75068W        W36599  42.902  12.786  13.389
75069W        W36600  41.026  30.042  13.002
75070W        W36601  12.253  23.493  14.432
75071W        W36602  34.923   9.298   1.782
75072W        W36603   6.399   9.359   3.342
75073W        W36604  35.937  22.159  14.279
75074W        W36605  19.218  24.531  12.575
75075W        W36606  24.210   5.438  11.970
75076W        W36607  18.715  43.465  10.560
75077W        W36608   6.756  11.815   3.153
75078W        W36609  43.846   2.247  14.433
75079W        W36610  37.865  23.702  13.475
75080W        W36611  33.107  25.577  14.822
75081W        W36612  29.595  39.036   4.796
75082W        W36613   9.653   4.308  10.435
75083W        W36614  22.030   0.930   3.160
75084W        W36615  30.554   4.916  11.033
75085W        W36616   0.481  12.784   0.837
75086W        W36617  42.389  35.073   0.864
75087W        W36618  36.433  42.029   2.718
75088W        W36619  31.986  35.928   2.710
75089W        W36620  35.407   9.361  10.582
75090W        W36621  18.662  33.530  11.438
75091W        W36622  39.438  33.950  12.513
75092W        W36623   0.249  21.550   0.939
75093W        W36624  29.038  18.242   3.290
75094W        W36625  10.670   6.797   3.214
75095W        W36626   9.837  16.258  14.985
75096W        W36627  19.766  35.954   1.440
75097W        W36628  31.432   0.932  14.993
75098W        W36629  13.219  14.141  13.983
75099W        W36630   1.812  24.498  11.578
75100W        W36631  43.443  11.621   4.652
75101W        W36632  27.056  18.211   3.722
75102W        W36633   7.904   7.251  11.074
75103W        W36634   1.961   2.468  13.902
75104W        W36635  15.632  21.101   0.308
75105W        W36636   6.236   9.280  12.982
75106W        W36637  38.877  24.569   3.299
75107W        W36638  25.988   3.367   4.831
75108W        W36639  28.035   1.853   4.837
75109W        W36640  10.288  23.139  10.963
75110W        W36641  25.206  10.151   1.317
75111W        W36642  27.654  33.604   2.190
75112W        W36643  40.438  11.761   4.327
75113W        W36644  25.166  34.966  14.966
75114W        W36645  32.452  43.782  13.961
75115W        W36646  41.821  22.179  12.094
75116W        W36647  17.597  11.815  12.846
75117W        W36648  29.564  40.981   4.797
75118W        W36649  27.187  14.340   3.759
75119W        W36650  26.152  16.672  10.539
75120W        W36651  13.807  28.444   0.955
75121W        W36652   1.790   6.279  13.011
75122W        W36653  39.556  25.180   1.436
75123W        W36654  40.931  44.498   4.137
75124W        W36655  12.691  36.898   1.931
75125W        W36656  37.473   4.797  12.908
75126W        W36657  44.887  40.897   0.752
75127W        W36658  41.474  31.571   2.785
75128W        W36659  26.541  26.501  13.064
75129W        W36660  36.554  43.769  11.998
75130W        W36661  40.054  23.613  14.935
75131W        W36662   6.918   1.420  11.435
75132W        W36663  18.659   8.182   0.301
75133W        W36664   4.244  20.545   4.117
75134W        W36665  24.613   9.759  14.876
75135W        W36666   4.847   6.770   3.714
75136W        W36667   5.789  38.386  12.396
75137W        W36668  34.876  38.074   1.400
75138W        W36669  16.589  30.470   2.295
75139W        W36670  40.970   1.340  14.977
75140W        W36671  23.138   2.814   0.399
75141W        W36672  16.315   2.810   1.751
75142W        W36673  17.658  30.496   2.363
75143W        W36674  40.324   8.761   1.439
75144W        W36675   2.420  23.529   1.328
75145W        W36676  35.096  44.896  12.437
75146W        W36677  16.806   3.834   2.326
75147W        W36678  19.276  40.428   3.773
75148W        W36679  24.067  42.477   4.197
75149W        W36680  43.782  21.132  13.334
75150W        W36681  26.480  37.341   3.653
75151W        W36682  28.664  28.042   2.879
75152W        W36683  31.040  27.098  14.004
75153W        W36684  27.064  32.885   2.675
75154W        W36685  32.911  38.447   3.712
75155W        W36686  36.517  17.301  11.902
75156W        W36687  38.905  33.500   2.897
75157W        W36688  10.179  37.499  14.459
75158W        W36689  27.158  30.003   1.328
75159W        W36690   3.729  23.037   2.677
75160W        W36691  32.967  18.738  12.956
75161W        W36692  41.445  43.950  14.829
75162W        W36693  38.541  40.339  13.510
75163W        W36694  19.112  31.435  11.494
75164W        W36695  18.755  26.983  10.598
75165W        W36696  30.555  41.857  11.955
75166W        W36697  30.470  37.978   0.317
75167W        W36698   3.367   0.344   0.416
75168W        W36699  38.376  44.384  12.905
75169W        W36700  30.508  38.916  14.307
75170W        W36701  35.014  25.480  11.446
75171W        W36702  31.428  17.611   2.798
75172W        W36703  14.266  18.547  10.943
75173W        W36704  19.659  43.818  13.467
75174W        W36705  14.812  32.505  11.567
75175W        W36706  30.621  19.266   3.646
75176W        W36707  33.383  40.463   1.231
75177W        W36708  42.005  31.587   2.787
75178W        W36709  37.383  24.516  11.081
75179W        W36710   8.289   6.780   1.797
75180W        W36711  26.484  41.426   3.251
75181W        W36712  15.326  21.182  13.961
75182W        W36713  13.763  20.549  14.973
75183W        W36714   6.260  31.403   4.201
75184W        W36715  29.925  37.031  14.300
75185W        W36716  24.136  31.074  12.517
75186W        W36717   5.700   2.894   0.958
75187W        W36718   8.849  40.818  13.943
75188W        W36719  20.563  13.624   0.824
75189W        W36720  40.346  33.450   5.220
75190W        W36721  37.561  11.636   2.874
75191W        W36722  29.633  27.163   4.820
75192W        W36723  35.038  11.235  12.898
75193W        W36724  38.567   0.873  13.358
75194W        W36725   8.784   0.445  12.471
75195W        W36726  12.623  24.689  14.450
75196W        W36727   2.830  23.701  13.840
75197W        W36728  33.595  26.477   0.276
75198W        W36729  32.968   0.323   1.829
75199W        W36730  16.207  32.091  10.481
75200W        W36731  13.251  13.276  10.608
75201W        W36732  42.451   1.352   2.397
75202W        W36733   3.901  28.092  13.041
75203W        W36734  16.142  33.438   3.699
75204W        W36735  33.877  16.639   0.790
75205W        W36736   4.426  10.833   1.416
75206W        W36737   7.706  13.630  14.839
75207W        W36738  28.079  38.047   3.341
75208W        W36739   4.446   2.256  14.906
75209W        W36740  17.757  18.222  11.599
75210W        W36741   6.300  18.269   0.910
75211W        W36742  15.590  31.129   1.778
75212W        W36743  28.963   8.882  10.021
75213W        W36744   6.749  16.095  14.289
75214W        W36745  22.122  42.505   5.296
75215W        W36746  11.214   7.725   0.325
75216W        W36747  12.640  16.227  11.589
75217W        W36748  31.625   7.707  12.869
75218W        W36749   8.349  12.206   1.925
75219W        W36750  37.344   3.248  12.849
75220W        W36751   6.829  30.497  11.406
75221W        W36752  30.460  16.642  13.457
75222W        W36753  27.044  19.110   1.281
75223W        W36754  34.956  30.028   1.405
75224W        W36755  39.031  27.634   5.088
75225W        W36756   8.674  26.636   0.335
75226W        W36757  14.271  30.016   4.240
75227W        W36758  14.598  16.295  11.002
75228W        W36759  12.160  19.282  13.365
75229W        W36760  41.959  20.651   3.840
75230W        W36761  42.432  35.010  12.362
75231W        W36762  41.393  11.810   9.573
75232W        W36763   5.283  34.462   0.954
75233W        W36764  25.562  33.518  14.968
75234W        W36765  22.201  43.951   2.791
75235W        W36766  10.833  31.108  11.426
75236W        W36767   8.716  25.009   4.632
75237W        W36768  18.242  26.180   5.220
75238W        W36769  40.369  32.437   4.678
75239W        W36770  12.199  31.970  14.011
75240W        W36771  23.179   0.821   3.282
75241W        W36772   0.392  41.856  10.639
75242W        W36773  40.878   9.736   1.364
75243W        W36774  20.544   3.442  12.842
75244W        W36775  23.656  11.199  13.024
75245W        W36776  17.724  22.581   5.247
75246W        W36777   7.275   7.281  11.603
75247W        W36778  27.446  34.370  13.956
75248W        W36779  27.192  17.255   3.272
75249W        W36780   3.841  38.478   4.264
75250W        W36781  13.217  43.352   1.427
75251W        W36782   7.769  44.287   0.878
75252W        W36783  40.353   8.855   0.343
75253W        W36784  13.788  32.910  12.571
75254W        W36785  44.753  30.999  11.492
75255W        W36786  19.167  25.489   2.380
75256W        W36787   7.672  39.448  11.067
75257W        W36788  42.897  26.113  11.423
75258W        W36789  29.445  28.676   3.708
75259W        W36790  42.295  28.565   3.285
75260W        W36791  13.313  16.302  14.493
75261W        W36792  36.370  27.514   4.130
75262W        W36793  24.521   0.788   4.662
75263W        W36794  26.984  11.268  11.891
75264W        W36795  40.875  11.206  13.462
75265W        W36796  18.063  19.113   3.756
75266W        W36797  17.716  19.104  13.319
75267W        W36798  33.111  39.453  14.296
75268W        W36799  39.346  10.775   2.411
75269W        W36800   4.423   6.383  10.406
75270W        W36801  43.429  29.585   3.633
75271W        W36802   1.357  25.477   0.283
75272W        W36803  42.378  31.076   0.784
75273W        W36804  25.539  27.092  14.334
75274W        W36805  24.602   8.385  11.030
75275W        W36806  33.022  24.126  13.307
75276W        W36807  44.392  14.249   1.777
75277W        W36808  22.097  11.364  14.506
75278W        W36809  11.150  14.754  13.980
75279W        W36810  30.589  15.136   2.771
75280W        W36811   4.841   6.216  13.452
75281W        W36812   8.849  20.766   0.726
75282W        W36813  13.217  29.151   3.774
75283W        W36814  13.222  15.678   9.924
75284W        W36815  34.572  32.577  14.507
75285W        W36816   8.393  13.300   1.855
75286W        W36817  21.526  11.843   3.242
75287W        W36818  40.926  19.677  11.943
75288W        W36819  16.149   0.788  11.412
75289W        W36820  35.374  13.705  12.081
75290W        W36821  21.744   9.882  13.361
75291W        W36822  40.964   8.796  14.885
75292W        W36823  11.362  30.979   5.601
75293W        W36824  30.916  42.988  11.550
75294W        W36825  13.317  24.702   1.233
75295W        W36826  12.143   8.325  10.644
75296W        W36827   3.444  35.926   3.787
75297W        W36828  34.544   9.717  11.519
75298W        W36829  26.532   4.758  12.412
75299W        W36830   4.882  21.515  11.074
75300W        W36831  25.567   3.875  13.312
75301W        W36832  18.712   2.329  10.518
75302W        W36833  23.003   5.253  14.516
75303W        W36834  37.519  16.145   0.753
75304W        W36835  15.753  39.457  10.995
75305W        W36836  29.012   9.206  12.429
75306W        W36837  14.633  18.051  13.859
75307W        W36838  37.370  16.206   3.215
75308W        W36839  24.199   2.359   4.666
75309W        W36840  38.381  44.268   1.852
75310W        W36841  38.066  27.982   2.398
75311W        W36842  38.922   1.916   2.405
75312W        W36843  23.567  40.406   1.780
75313W        W36844  43.780  33.112   2.292
75314W        W36845  41.043  26.086  11.546
75315W        W36846  37.031   3.228  12.491
75316W        W36847  26.562  37.908  13.900
75317W        W36848  37.410  38.842   5.281
75318W        W36849  34.930  41.377   5.216
75319W        W36850  16.778  30.008  10.500
75320W        W36851  15.713  15.636  12.574
75321W        W36852  31.925  14.816   1.361
75322W        W36853  22.111  21.654   3.745
75323W        W36854   2.861  23.680   4.624
75324W        W36855  37.012  14.634  10.475
75325W        W36856  38.562  30.925  10.996
75326W        W36857  25.564  21.579  13.424
75327W        W36858  22.733   3.416   1.907
75328W        W36859  17.664  34.994   2.394
75329W        W36860   4.752  17.659   1.892
75330W        W36861  11.840  33.616   3.666
75331W        W36862  37.564  16.313  13.416
75332W        W36863  36.400  15.200   4.171
75333W        W36864  27.451   1.402   1.305
75334W        W36865  29.034  37.037  11.859
75335W        W36866  36.045  28.669   0.830
75336W        W36867   9.227   2.928   1.771
75337W        W36868  19.635  14.748   3.160
75338W        W36869  27.976  38.071   0.805
75339W        W36870  24.005  22.568   4.726
75340W        W36871   3.298   8.745   3.246
75341W        W36872  36.544  15.302   2.245
75342W        W36873   0.750  39.062  13.877
75343W        W36874  26.669  28.007  10.890
75344W        W36875  32.907  12.174  11.611
75345W        W36876  36.588  38.436   0.350
75346W        W36877  28.591  35.862  14.395
75347W        W36878  43.821  25.146  11.047
75348W        W36879   2.372  21.690   4.201
75349W        W36880  29.115   0.488  11.063
75350W        W36881  22.705  38.842   0.897
75351W        W36882   5.829   3.405  11.018
75352W        W36883  24.166  42.964  11.600
75353W        W36884   0.438  31.048  12.956
75354W        W36885  13.164  12.803  14.860
75355W        W36886  25.152  30.457  14.879
75356W        W36887  16.269  26.146  13.463
75357W        W36888  27.468  31.561  10.531
75358W        W36889  23.132  11.848  11.441
75359W        W36890   4.323  10.225  10.939
75360W        W36891   1.454  25.207   2.675
75361W        W36892   3.407  16.672   2.703
75362W        W36893   0.263  25.712   2.195
75363W        W36894  16.206   8.326   3.372
75364W        W36895   8.281  16.257  10.965
75365W        W36896  38.851   9.791   0.389
75366W        W36897   3.283   3.874   3.346
75367W        W36898   8.381  40.814  13.821
75368W        W36899  13.235  17.172  11.881
75369W        W36900  13.725  15.263  13.527
75370W        W36901  44.310  11.340  14.350
75371W        W36902  22.080  41.025  12.381
75372W        W36903  23.113  17.613   4.333
75373W        W36904  35.853   0.804   4.344
75374W        W36905   3.391   3.383   9.997
75375W        W36906  14.735  32.462   5.254
75376W        W36907  17.094  24.546  13.970
75377W        W36908  30.637  43.305  10.947
75378W        W36909  32.016  21.076   4.604
75379W        W36910  37.420  32.939   1.296
75380W        W36911  38.837  25.550  13.545
75381W        W36912   6.814  41.040  14.393
75382W        W36913  12.213  30.073  10.127
75383W        W36914  10.155  10.791  12.942
75384W        W36915  11.289   2.895  14.918
75385W        W36916  43.477  24.517   3.218
75386W        W36917  11.770  30.465  12.533
75387W        W36918  28.938  17.122   3.237
75388W        W36919   5.402  43.426   4.134
75389W        W36920   1.433  36.498  14.798
75390W        W36921  44.461   8.190  10.972
75391W        W36922  11.319   2.770  13.978
75392W        W36923   3.335  23.104  14.948
75393W        W36924  17.109   7.321  14.514
75394W        W36925  44.405   7.253  14.292
75395W        W36926  41.943  13.168  14.298
75396W        W36927  28.023  22.529   4.827
75397W        W36928  34.960  36.364  12.866
75398W        W36929  40.483   0.832   4.643
75399W        W36930  39.876  32.030   0.376
75400W        W36931  12.718  23.584  14.297
75401W        W36932   1.845   6.294   3.839
75402W        W36933   0.493  25.708   2.835
75403W        W36934  18.732   3.742   2.266
75404W        W36935  10.297  35.396  10.539
75405W        W36936  39.397  37.361   4.282
75406W        W36937  32.457   5.850  13.969
75407W        W36938  18.190  39.538   3.160
75408W        W36939  42.952  20.213   5.257
75409W        W36940   7.319  28.449   2.375
75410W        W36941  42.805  27.581  14.313
75411W        W36942  22.235  28.536   0.851
75412W        W36943  30.096  18.085  14.959
75413W        W36944  30.556  18.228  12.373
75414W        W36945  44.396   5.294   5.247
75415W        W36946  39.039  13.333   1.883
75416W        W36947   0.744  41.864  14.447
75417W        W36948  35.097  11.145  14.963
75418W        W36949  37.928   9.871  13.873
75419W        W36950  13.661  15.279  14.321
75420W        W36951  42.901   8.245  14.446
75421W        W36952  28.658  37.979  14.959
75422W        W36953   8.880  28.960   4.227
75423W        W36954  30.941   2.941   3.782
75424W        W36955  39.529  15.137   4.210
75425W        W36956  44.322  29.083  11.036
75426W        W36957  35.523  20.723  11.094
75427W        W36958  31.597  32.093  11.543
75428W        W36959  42.519  10.191  10.983
75429W        W36960  29.152  16.282  10.596
75430W        W36961  12.671  25.176  12.519
75431W        W36962  38.459  11.820  11.527
75432W        W36963  36.563  35.998   1.361
75433W        W36964  29.984  31.114   4.773
75434W        W36965  42.313   4.792  12.566
75435W        W36966  14.192  33.571  14.967
75436W        W36967  39.409  22.069  11.479
75437W        W36968  16.697  33.414  12.073
75438W        W36969   1.817  19.639   1.324
75439W        W36970  30.077  13.133  12.384
75440W        W36971  37.424  24.123   4.203
75441W        W36972  18.157  34.613   3.318
75442W        W36973  18.627  11.824  11.857
75443W        W36974  26.679  27.492   0.322
75444W        W36975  28.994  23.618  10.978
75445W        W36976  38.998   3.305   4.209
75446W        W36977  38.404  38.398  11.509
75447W        W36978  39.049  38.553  10.606
75448W        W36979  37.843  16.179   1.924
75449W        W36980  39.330  36.873   1.279
75450W        W36981  19.163   2.330   0.835
75451W        W36982  30.573  16.586   0.481
75452W        W36983  20.120   8.363   3.629
75453W        W36984   7.240  35.937  14.950
75454W        W36985  17.685  33.919  10.534
75455W        W36986  10.172  17.304  14.793
75456W        W36987   8.772  13.107   1.274
75457W        W36988  40.350   0.272   2.412
75458W        W36989  29.661   5.764   3.684
75459W        W36990   2.744  29.612   3.795
75460W        W36991  27.692   8.705   2.274
75461W        W36992   7.892  28.632  14.771
75462W        W36993  18.669  36.942   3.338
75463W        W36994  25.532   1.976   1.777
75464W        W36995  27.197  32.633  14.394
75465W        W36996  40.486   6.874  11.385
75466W        W36997  37.454  33.877   3.869
75467W        W36998  41.304   5.872   2.403
75468W        W36999  41.516  10.800  12.564
75469W        W37000   8.656   6.334   5.184
75470W        W37001  32.491  15.193  11.984
75471W        W37002  24.119  12.220   3.154
75472W        W37003   3.322   1.924  13.889
75473W        W37004  41.903   9.255   0.776
75474W        W37005  12.245   2.963   1.434
75475W        W37006  39.426  32.134   4.744
75476W        W37007  28.026  12.633   0.805
75477W        W37008  40.323   3.803  13.364
75478W        W37009  27.183  43.317   3.308
75479W        W37010  26.145   0.761   4.309
75480W        W37011  43.320  16.152  10.570
75481W        W37012  29.094  35.001   4.754
75482W        W37013  43.282  21.682   3.634
75483W        W37014  15.661  11.739  11.918
75484W        W37015   0.472  43.274  10.993
75485W        W37016  42.359  28.438  10.497
75486W        W37017  24.139  10.736   4.791
75487W        W37018  21.164   3.950  11.892
75488W        W37019  29.559  41.405   2.250
75489W        W37020  25.975  30.017   1.803
75490W        W37021  28.185   5.364  13.427
75491W        W37022  18.699  22.088   3.679
75492W        W37023  11.218  29.065   5.282
75493W        W37024  31.599  27.192   1.373
75494W        W37025  11.866  21.627   4.673
75495W        W37026  26.613  44.838   4.694
75496W        W37027  10.232  11.852  10.542
75497W        W37028   8.858  14.179  12.366
75498W        W37029  27.077  23.514   1.717
75499W        W37030   8.742  39.937   2.770
75500W        W37031   0.469  17.296  11.124
75501W        W37032  35.034  29.942  10.959
75502W        W37033  42.355  29.923   4.189
75503W        W37034  37.562   4.824   0.755
75504W        W37035  16.694  11.633  10.487
75505W        W37036  14.601  29.976   3.326
75506W        W37037  22.693  26.525  11.906
75507W        W37038  41.438  35.562   1.748
75508W        W37039  36.418  35.518  13.454
75509W        W37040   9.739   6.907   1.877
75510W        W37041   2.967  22.149   9.975
75511W        W37042  43.797  37.851  12.998
75512W        W37043  22.649  39.849   2.414
75513W        W37044  30.140  40.874   2.285
75514W        W37045  22.673  18.645  10.970
75515W        W37046  27.607   7.395  11.522
75516W        W37047  24.588  39.022  10.020
75517W        W37048  39.949   7.867  10.973
75518W        W37049  28.484  22.111   4.787
75519W        W37050   1.927  39.895   1.305
75520W        W37051  24.615  25.186  11.107
75521W        W37052   3.812  38.504   3.244
75522W        W37053  23.608  31.112  14.486
75523W        W37054  11.739  28.932  12.961
75524W        W37055  34.875   3.307  12.985
75525W        W37056  43.401  31.126  11.605
75526W        W37057  22.079  31.625   2.337
75527W        W37058  16.608  13.651  10.939
75528W        W37059  25.495  17.657  11.052
75529W        W37060  17.064  27.473  12.969
75530W        W37061  44.297   6.414  11.038
75531W        W37062  20.257  31.086   1.910
75532W        W37063  19.702   9.393  13.833
75533W        W37064   9.680   2.920   2.291
75534W        W37065  41.025   9.249  13.001
75535W        W37066  14.141  15.610  14.850
75536W        W37067  20.171  27.135  13.023
75537W        W37068  39.516  14.201   2.880
75538W        W37069  38.330   4.839   3.387
75539W        W37070   2.757   5.829   1.734
75540W        W37071   9.350  10.817  13.546
75541W        W37072   7.229  35.939  12.047
75542W        W37073   5.335  41.449   3.713
75543W        W37074   4.287  43.316   0.410
75544W        W37075  36.508  10.789  14.428
75545W        W37076  13.285  36.432   2.713
75546W        W37077   0.376  15.628  12.866
75547W        W37078  12.298  43.785  14.911
75548W        W37079  10.364  43.352   3.811
75549W        W37080  16.795  40.394   4.121
75550W        W37081  28.480   6.359   1.783
75551W        W37082  25.704  20.689   3.749
75552W        W37083   1.427  28.138   3.197
75553W        W37084   5.204  16.804   0.365
75554W        W37085  37.520  39.440  14.031
75555W        W37086   6.404   8.198  10.057
75556W        W37087  29.527   3.446   0.862
75557W        W37088  29.512  33.446  14.382
75558W        W37089   7.327  23.204  11.957
75559W        W37090   1.350   3.307   9.989
75560W        W37091  31.122  20.644   3.205
75561W        W37092  28.136  29.126  13.388
75562W        W37093   4.305  44.382  11.910
75563W        W37094  35.582  17.069   1.429
75564W        W37095   7.731  11.794   4.776
75565W        W37096   1.277  39.365   2.773
75566W        W37097  33.471  35.064   1.425
75567W        W37098  40.524  43.794  12.898
75568W        W37099  16.306  15.178  10.976
75569W        W37100   5.198   7.686   4.219
75570W        W37101  10.237  29.563   0.822
75571W        W37102  22.663  35.465  14.922
75572W        W37103   7.740   7.227  14.486
75573W        W37104  20.055   7.839   3.176
75574W        W37105   0.914  29.563   3.187
75575W        W37106  30.152   3.954   1.392
75576W        W37107  27.532  24.534  12.940
75577W        W37108  37.042  15.618   1.443
75578W        W37109   7.726  16.697  13.471
75579W        W37110  15.733  29.985  12.826
75580W        W37111  28.573  20.029   2.209
75581W        W37112   5.922  37.339  13.382
75582W        W37113  29.480  38.853   3.853
75583W        W37114   3.351  22.579  14.024
75584W        W37115  26.534   8.720   3.232
75585W        W37116   9.851  21.624  14.965
75586W        W37117  44.358  12.219  14.337
75587W        W37118   3.249  14.701   1.815
75588W        W37119  31.952   9.352  14.489
75589W        W37120   6.313   2.897  13.475
75590W        W37121  35.498  36.943  12.088
75591W        W37122   8.243  18.718  11.429
75592W        W37123  38.963  21.652  12.512
75593W        W37124  44.290  18.262  12.030
75594W        W37125  32.606  24.177   3.722
75595W        W37126  41.308  37.432  12.987
75596W        W37127   2.284  13.311  12.865
75597W        W37128   6.230  36.457  11.508
75598W        W37129  13.734  12.772  12.453
75599W        W37130   6.385  42.374   1.773
75600W        W37131  15.306  21.586   3.385
75601W        W37132  34.897   8.842   2.794
75602W        W37133  43.475   9.653   0.261
75603W        W37134  34.878  10.333  11.578
75604W        W37135  40.054  42.439   0.439
75605W        W37136  27.017   3.390  11.905
75606W        W37137   6.757  32.421  14.844
75607W        W37138  14.306   0.773   1.774
75608W        W37139  43.418  20.736   4.281
75609W        W37140  29.609   9.713   3.256
75610W        W37141  39.920  28.648  12.085
75611W        W37142  22.130   4.939  14.939
75612W        W37143   3.929  28.067   2.708
75613W        W37144  39.910  12.660   1.755
75614W        W37145   6.801  34.384   3.257
75615W        W37146   8.328  43.403  11.470
75616W        W37147  14.733  36.430  12.516
75617W        W37148  28.149   8.770  14.986
75618W        W37149  10.709  28.053  10.520
75619W        W37150   1.891  19.678   0.822
75620W        W37151  23.042  40.373   0.929
75621W        W37152   3.799  37.373   2.726
75622W        W37153   1.433   3.324   3.275
75623W        W37154   9.289  26.005  11.864
75624W        W37155   1.294  30.149  12.871
75625W        W37156  16.095  16.173  12.348
75626W        W37157  17.559   2.274  13.795
75627W        W37158  14.251  25.549   4.204
75628W        W37159  11.322   2.466   3.325
75629W        W37160  38.014  43.862   4.815
75630W        W37161  37.551   1.963   1.307
75631W        W37162  44.831  17.700  11.017
75632W        W37163   8.385  24.231   2.833
75633W        W37164  30.596  13.248   5.197
75634W        W37165   9.726   6.384  10.991
75635W        W37166   6.243  36.096  13.941
75636W        W37167  26.528  21.758  12.064
75637W        W37168   1.327   7.333  10.551
75638W        W37169  25.150  28.511  14.361
75639W        W37170   9.365  35.502  11.543
75640W        W37171   9.367  40.478  14.378
75641W        W37172  28.014  17.751  13.802
75642W        W37173  26.201   5.804   0.477
75643W        W37174  11.180  38.527   4.605
75644W        W37175  34.018  16.724  12.020
75645W        W37176   7.798   6.896   3.245
75646W        W37177   7.355  44.444   0.308
75647W        W37178  33.396  13.671   1.797
75648W        W37179  15.121  27.481   1.284
75649W        W37180  34.395   0.802   3.372
75650W        W37181  18.693  41.879  13.385
75651W        W37182   9.189  37.985  12.535
75652W        W37183  17.611  38.832  11.377
75653W        W37184  19.206  24.048  13.883
75654W        W37185   3.436   6.677   4.646
75655W        W37186  37.385  15.229  12.925
75656W        W37187  32.068   4.913  11.417
75657W        W37188  18.154   9.871   4.168
75658W        W37189  40.915  40.907   2.314
75659W        W37190   0.420  40.382  11.929
75660W        W37191  37.538  14.260   4.623
75661W        W37192  37.077  30.124  13.988
75662W        W37193  40.351  34.383  10.528
75663W        W37194  25.003  10.266   2.791
75664W        W37195  37.566  18.675  14.314
75665W        W37196  34.098  22.738  13.955
75666W        W37197  40.992   7.295   1.803
75667W        W37198  27.982  11.331   3.675
75668W        W37199   7.336  18.653  13.895
75669W        W37200  25.089  14.137   1.378
75670W        W37201  24.120  35.062   2.739
75671W        W37202  17.211  29.449  13.478
75672W        W37203   8.764  17.791   4.674
75673W        W37204  44.850  43.354  11.545
75674W        W37205   3.407  18.128   3.767
75675W        W37206   3.228   9.390   4.696
75676W        W37207  30.492  43.337  10.601
75677W        W37208  16.255  37.951  13.844
75678W        W37209  44.486   1.351  14.984
75679W        W37210   8.193  37.409   0.333
75680W        W37211   5.432  19.168  12.342
75681W        W37212  21.644  35.595   1.398
75682W        W37213  26.635  32.892  13.995
75683W        W37214  37.348  34.383   4.249
75684W        W37215  41.346  34.059   0.769
75685W        W37216  44.459  24.025  13.424
75686W        W37217  37.998  16.575  13.853
75687W        W37218  10.686  11.340   2.827
75688W        W37219  12.697  26.553   4.732
75689W        W37220  30.551  40.831  12.907
75690W        W37221  12.169  33.955   3.153
75691W        W37222  27.683  13.659   1.345
75692W        W37223  36.374  35.577   1.380
75693W        W37224  18.688  31.075   2.846
75694W        W37225  23.570  18.574   3.685
75695W        W37226  24.196  12.674  14.769
75696W        W37227  19.769   7.193   4.786
75697W        W37228   0.302  41.322  14.453
75698W        W37229  38.940  19.226  14.845
75699W        W37230  42.520  19.276   1.902
75700W        W37231  20.042  30.112   2.817
75701W        W37232  30.005  37.947  11.605
75702W        W37233   4.850  33.073  12.342
75703W        W37234  29.936  21.528  11.385
75704W        W37235  39.317  29.633   1.835
75705W        W37236  41.443  28.466   1.250
75706W        W37237  38.502  24.062   1.241
75707W        W37238  28.111   9.838   5.322
75708W        W37239  31.914   6.405  12.901
75709W        W37240  31.617  39.933  10.936
75710W        W37241  24.650  19.248   3.307
75711W        W37242  24.990  18.761   1.747
75712W        W37243  42.790  23.153   2.828
75713W        W37244  36.986   2.781  10.560
75714W        W37245   9.880  14.668  14.334
75715W        W37246   2.352  20.218  10.531
75716W        W37247  37.967  38.340  13.823
75717W        W37248   7.336  20.577   1.768
75718W        W37249   2.874  12.145   2.667
75719W        W37250  21.046  34.111   3.854
75720W        W37251  11.766  29.949  14.490
75721W        W37252  16.182  32.527   5.690
75722W        W37253   3.347   6.265  11.438
75723W        W37254  38.976   3.746  13.437
75724W        W37255  12.255   8.798  14.014
75725W        W37256  26.151  19.595  10.906
75726W        W37257  29.964  27.135  12.923
75727W        W37258  42.813   2.951  10.471
75728W        W37259  42.393  25.067   2.843
75729W        W37260  16.254  16.752   3.245
75730W        W37261  27.020  22.567  11.534
75731W        W37262  26.958  41.416   5.317
75732W        W37263  18.211  30.010   4.296
75733W        W37264  24.183  15.226  10.524
75734W        W37265   6.713  32.419  13.478
75735W        W37266  16.793   9.656   4.198
75736W        W37267   8.308  10.697  13.931
75737W        W37268  35.046   5.390  12.923
75738W        W37269   0.935  26.178   3.789
75739W        W37270  27.148  42.525  14.323
75740W        W37271  30.532  39.036   4.773
75741W        W37272  23.601  15.716  13.370
75742W        W37273   4.859  37.047   1.260
75743W        W37274  31.972  27.077  12.048
75744W        W37275   8.682  44.421   2.828
75745W        W37276  34.419  27.562   4.748
75746W        W37277  38.038  34.940  11.577
75747W        W37278  11.643  44.982   2.392
75748W        W37279  16.767  41.805  14.360
75749W        W37280  24.084  42.424   3.763
75750W        W37281  13.801   6.688  11.061
75751W        W37282  26.072  42.943   1.848
75752W        W37283  30.134   0.918  12.919
75753W        W37284  20.597  38.877  14.938
75754W        W37285  39.929  30.946   2.233
75755W        W37286  30.526  39.953   1.385
75756W        W37287   9.787  20.691  12.469
75757W        W37288  38.391  15.168   1.257
75758W        W37289   5.291   0.343   3.347
75759W        W37290  12.653  24.227  12.874
75760W        W37291  26.992  28.032   2.242
75761W        W37292   3.739  26.682   1.443
75762W        W37293  42.298  19.559  12.041
75763W        W37294  12.164  30.017  13.501
75764W        W37295   6.857   1.741   0.825
75765W        W37296  36.383  29.927  12.468
75766W        W37297   7.824   4.368  13.906
75767W        W37298  23.989  41.966   0.270
75768W        W37299  37.486   2.463  13.460
75769W        W37300  16.686   7.873   0.394
75770W        W37301  12.151  21.525  14.440
75771W        W37302   2.436  18.054  12.423
75772W        W37303  22.112   5.862  14.016
75773W        W37304  10.658  22.058  11.996
75774W        W37305  11.670  29.568   3.374
75775W        W37306  12.287  14.694   1.415
75776W        W37307   6.707  12.217   1.294
75777W        W37308  25.504   4.245   0.465
75778W        W37309   9.249  37.976  14.436
75779W        W37310  41.894  35.011  10.573
75780W        W37311  17.127  18.088  13.063
75781W        W37312  33.037  27.972  12.009
75782W        W37313  28.494  16.258  10.976
75783W        W37314  24.633  12.274  11.067
75784W        W37315  24.014  21.036   3.837
75785W        W37316  25.007  27.193  10.553
75786W        W37317  17.105   0.413  14.017
75787W        W37318  43.496  22.600   3.328
75788W        W37319  29.945  22.717   2.852
75789W        W37320  13.770  18.224  11.859
75790W        W37321  38.568  17.592   0.257
75791W        W37322  21.190  28.529  13.023
75792W        W37323   2.275  21.117  13.516
75793W        W37324  17.195   2.866  11.417
75794W        W37325  29.119  24.218   2.727
75795W        W37326  43.998   5.884  10.898
75796W        W37327   9.712  14.637   1.243
75797W        W37328   2.839  11.334   0.440
75798W        W37329  16.747  23.533   2.898
75799W        W37330   2.447  35.509  11.467
75800W        W37331  36.492  39.826   0.901
75801W        W37332  43.919   5.425  14.459
75802W        W37333  11.764  24.547  14.942
75803W        W37334  17.763  30.052   4.702
75804W        W37335  29.036  18.106   4.307
75805W        W37336  17.245   8.690   5.157
75806W        W37337  37.871   6.683   4.754
75807W        W37338  31.063  20.086  11.416
75808W        W37339  25.964   7.756  14.915
75809W        W37340   7.834   6.776   0.346
75810W        W37341  19.133  21.214  11.511
75811W        W37342  25.538  30.034  13.322
75812W        W37343  11.686  43.362  13.897
75813W        W37344  31.047  38.848  14.827
75814W        W37345  19.610   4.858  12.839
75815W        W37346  20.173  37.453   1.891
75816W        W37347  19.661   2.804   2.330
75817W        W37348  31.623  36.349   0.410
75818W        W37349  36.959  11.841   1.256
75819W        W37350  25.677  27.131   1.810
75820W        W37351  15.685  23.725   5.259
75821W        W37352  20.071  31.032  13.977
75822W        W37353  10.695   4.260   1.319
75823W        W37354   0.837   5.815  11.428
75824W        W37355   8.782  29.172  10.498
75825W        W37356  26.183   8.388  14.845
75826W        W37357   8.780  32.391   3.826
75827W        W37358  39.895  30.552   0.252
75828W        W37359  39.506  42.910  13.338
75829W        W37360  10.352  39.021  11.043
75830W        W37361   4.439   7.295   2.380
75831W        W37362  17.133  17.184  13.419
75832W        W37363   6.804   7.811   0.438
75833W        W37364  12.271  12.262   4.743
75834W        W37365  39.444  11.669   2.379
75835W        W37366   2.362  13.799  12.950
75836W        W37367  38.558  29.670   2.864
75837W        W37368   1.298  30.014  10.534
75838W        W37369  15.638  19.577  10.155
75839W        W37370  28.981  11.705   0.422
75840W        W37371  18.184  22.012   1.265
75841W        W37372  34.076  13.224   3.237
75842W        W37373  11.341  41.530   1.304
75843W        W37374   8.197  33.056   2.256
75844W        W37375  33.981  20.566   3.641
75845W        W37376  20.158  10.820   1.299
75846W        W37377  20.730  32.120   1.848
75847W        W37378  34.593  12.117  12.918
75848W        W37379  11.283  33.977  11.572
75849W        W37380   5.776  13.153   0.855
75850W        W37381   8.790  13.693   1.416
75851W        W37382  25.052  11.834  10.551
75852W        W37383  40.323   4.795  13.502
75853W        W37384  30.042   9.819   0.348
75854W        W37385   0.461  43.977   0.363
75855W        W37386   0.349   5.243   2.221
75856W        W37387  34.891  27.991  14.275
75857W        W37388  19.749  37.840   9.463
75858W        W37389  16.743  40.412  11.542
75859W        W37390  17.269  17.223   3.714
75860W        W37391  15.594  27.196   0.444
75861W        W37392  13.754  18.708   3.240
75862W        W37393  30.957  13.208   1.820
75863W        W37394  21.021   2.341   5.236
75864W        W37395  34.572  19.697  12.430
75865W        W37396  17.606  37.976  13.036
75866W        W37397   4.237  35.494   0.783
75867W        W37398  19.197  38.347   4.634
75868W        W37399  28.169  31.145  14.923
75869W        W37400   0.368  17.638   1.359
75870W        W37401  22.638  24.032  10.489
75871W        W37402  41.936  30.014  14.302
75872W        W37403  15.259  33.988  12.853
75873W        W37404  39.828  38.880   2.746
75874W        W37405  15.110   7.376  13.422
75875W        W37406  44.393   0.494  11.563
75876W        W37407  14.802  29.084  11.107
75877W        W37408  36.037  39.975   0.481
75878W        W37409  41.792  19.155  11.965
75879W        W37410  25.193  35.940  11.099
75880W        W37411  31.507  38.444   0.951
75881W        W37412  21.649  29.559   9.545
75882W        W37413   7.350  13.346   3.283
75883W        W37414  18.569  43.486   2.753
75884W        W37415  28.436  43.304   4.210
75885W        W37416  18.670  30.021  13.443
75886W        W37417  39.393  18.636  14.455
75887W        W37418  16.174  25.517   4.160
75888W        W37419  31.998  25.167  12.994
75889W        W37420  14.242  20.108  14.914
75890W        W37421  15.303   1.780  13.939
75891W        W37422  23.513  14.638   1.801
75892W        W37423  12.230  25.037   3.854
75893W        W37424  30.508   5.370  14.307
75894W        W37425  23.181  39.970   5.320
75895W        W37426   7.703   8.815   1.760
75896W        W37427  42.458  23.034   2.417
75897W        W37428   2.395   0.947  13.882
75898W        W37429  32.559  40.532   3.182
75899W        W37430  19.676  40.890  14.018
75900W        W37431   3.443  35.445  11.603
75901W        W37432  39.324  13.830  11.935
75902W        W37433  30.910  12.171   3.823
75903W        W37434   4.920   7.769  12.956
75904W        W37435  30.550  33.058   3.326
75905W        W37436  12.302   5.283  10.503
75906W        W37437   0.444   5.380  10.512
75907W        W37438   7.326  44.970   3.729
75908W        W37439   7.707  37.862   0.882
75909W        W37440  26.518   0.367  11.035
75910W        W37441  21.693  33.538   4.777
75911W        W37442  25.024   1.760  13.023
75912W        W37443  11.149  15.577  13.999
75913W        W37444  30.640  18.554  11.054
75914W        W37445  12.169   5.772  11.899
75915W        W37446  42.876  27.485  11.017
75916W        W37447  22.682  39.542  11.034
75917W        W37448  30.968   8.235  12.375
75918W        W37449  26.618   8.172  12.027
75919W        W37450  33.089  15.301   1.743
75920W        W37451  10.652  35.986  12.438
75921W        W37452  14.121  29.490   4.741
75922W        W37453  36.938  20.132  12.007
75923W        W37454  22.694  42.288   3.193
75924W        W37455  29.160  31.954   0.962
75925W        W37456  20.721  41.930  10.960
75926W        W37457  17.802  38.028   4.338
75927W        W37458   7.887  13.809  10.578
75928W        W37459  11.634  23.033  12.995
75929W        W37460  17.654   4.873   1.443
75930W        W37461   6.920   1.737   4.201
75931W        W37462  10.313  13.220  10.535
75932W        W37463   0.860  20.132  12.002
75933W        W37464  20.536  15.295  13.994
75934W        W37465  37.488  42.018  14.515
75935W        W37466  30.618  20.084   3.799
75936W        W37467  37.563  27.197  11.548
75937W        W37468  33.424  32.476   2.825
75938W        W37469  18.629  35.415  14.955
75939W        W37470  30.044  39.389  13.985
75940W        W37471  31.100  29.483  11.549
75941W        W37472  27.608   4.431   2.732
75942W        W37473  18.119  37.538   0.728
75943W        W37474  21.247  30.115  12.455
75944W        W37475  28.013  34.986  12.560
75945W        W37476  13.699  30.081   1.448
75946W        W37477  36.566   7.410  12.076
75947W        W37478   1.446  12.681   1.238
75948W        W37479   8.219  39.854   3.687
75949W        W37480  25.982   5.361   4.678
75950W        W37481  22.115  37.361   3.719
75951W        W37482  29.580   4.846  10.956
75952W        W37483  31.565  15.653  12.412
75953W        W37484   5.778   5.375  14.429
75954W        W37485   1.779  20.202  11.482
75955W        W37486  11.246  37.570  11.471
75956W        W37487  41.962  43.470   1.358
75957W        W37488  15.747  23.556  12.498
75958W        W37489  19.277  18.580  11.092
75959W        W37490  32.114  23.640   1.825
75960W        W37491   5.326  41.032  11.522
75961W        W37492  37.538  40.032  11.403
75962W        W37493  17.214  15.094   0.912
75963W        W37494  14.230  36.421   3.781
75964W        W37495  17.683  36.959  11.957
75965W        W37496  20.068  20.138  11.980
75966W        W37497  28.963  24.559   3.288
75967W        W37498  44.878   9.759  12.902
75968W        W37499  35.547  14.132   2.357
75969W        W37500  16.567   7.257   1.337
75970W        W37501  11.785  19.042   2.276
75971W        W37502  20.040  23.180   3.370
75972W        W37503   9.843  31.608  12.576
75973W        W37504   2.788   8.401  10.485
75974W        W37505  40.936  38.418   1.901
75975W        W37506   8.811  42.293   4.836
75976W        W37507  36.044  23.077   1.729
75977W        W37508  14.666  29.129   0.478
75978W        W37509  16.737  44.901  11.011
75979W        W37510  11.696  10.177   1.225
75980W        W37511  22.012  16.774  12.911
75981W        W37512   2.944  16.228  12.840
75982W        W37513   2.263  26.651  13.512
75983W        W37514  41.903  41.976  11.967
75984W        W37515  11.251  31.918  11.524
75985W        W37516  38.490  19.552   3.186
75986W        W37517  29.078  29.965  14.899
75987W        W37518  29.045  24.981  13.976
75988W        W37519  40.959  19.618  13.905
75989W        W37520  18.568  32.500   0.384
75990W        W37521  29.572  16.726  13.341
75991W        W37522  20.078  29.566   1.774
75992W        W37523  12.835  32.944  12.045
75993W        W37524  17.291  29.980  10.965
75994W        W37525  37.488  23.670   1.413
75995W        W37526   8.287  44.324  14.965
75996W        W37527   2.411   1.369  13.497
75997W        W37528  17.110  42.325  14.385
75998W        W37529  30.077   0.284   1.372
75999W        W37530   9.216  17.641  14.466
76000W        W37531  41.963   4.260  11.465
76001W        W37532  20.169  13.669   2.791
76002W        W37533  17.252  17.225   2.368
76003W        W37534  33.621  13.632   4.272
76004W        W37535  23.720   5.774   1.431
76005W        W37536  14.299   4.445   3.688
76006W        W37537  20.689  17.570  14.402
76007W        W37538  36.979  30.456   1.782
76008W        W37539  25.554  42.477   1.898
76009W        W37540  41.463   5.426  12.441
76010W        W37541  23.647  23.193   2.329
76011W        W37542  43.019   5.261  13.373
76012W        W37543   0.865  38.377   3.659
76013W        W37544   8.403   4.248  11.095
76014W        W37545  43.291   4.703   4.181
76015W        W37546   8.163  36.586   4.290
76016W        W37547  15.649  12.739  12.442
76017W        W37548  41.882   4.423  13.418
76018W        W37549  42.356  15.276  12.402
76019W        W37550  14.659   3.421  13.526
76020W        W37551  34.379   5.748   2.247
76021W        W37552  32.464  10.274   3.871
76022W        W37553  44.276   7.216  11.486
76023W        W37554  20.746   6.409   4.149
76024W        W37555  39.332  32.439   0.421
76025W        W37556  30.008  35.028   1.912
76026W        W37557  19.155  33.471   4.248
76027W        W37558  15.258  13.276  12.932
76028W        W37559  21.060  43.992   1.735
76029W        W37560  15.750  25.029   2.380
76030W        W37561  39.409  35.474   1.451
76031W        W37562   8.804  38.520   1.321
76032W        W37563  18.077   4.401   4.334
76033W        W37564  20.221  38.842  12.978
76034W        W37565  37.895  37.018   3.330
76035W        W37566  42.484   0.950  11.887
76036W        W37567  23.494  25.141  12.428
76037W        W37568  37.360   3.233   2.278
76038W        W37569  44.502   8.168   2.742
76039W        W37570   5.217  14.301   3.807
76040W        W37571  27.590  15.703   1.794
76041W        W37572  32.021   0.887   4.623
76042W        W37573  27.069   4.230  10.929
76043W        W37574  44.336  17.588  11.399
76044W        W37575  22.643  11.307   1.696
76045W        W37576   8.670  18.267   0.837
76046W        W37577   9.324  42.784  10.914
76047W        W37578  28.005   8.267  12.494
76048W        W37579  22.123  10.744  13.017
76049W        W37580  37.077  40.383  14.779
76050W        W37581  32.010   8.181   5.164
76051W        W37582  37.551  38.421  14.931
76052W        W37583  19.174  24.153   2.715
76053W        W37584   2.427  31.051   2.859
76054W        W37585  36.443  10.755  11.055
76055W        W37586   9.293  24.643  10.591
76056W        W37587  36.890  24.998   1.730
76057W        W37588  31.643   9.344  10.634
76058W        W37589  15.248  25.500  13.964
76059W        W37590  18.569  44.448  13.818
76060W        W37591   9.849  22.042  13.325
76061W        W37592  30.580  17.108  14.849
76062W        W37593   1.262   3.787   1.845
76063W        W37594   6.294  26.064   3.379
76064W        W37595   2.428  43.434   4.735
76065W        W37596   1.966  13.128  12.485
76066W        W37597  19.659  38.862   1.443
76067W        W37598  26.177  40.323  12.453
76068W        W37599  34.866  35.979  11.502
76069W        W37600   5.437  20.128  13.520
76070W        W37601  38.473  25.030   0.330
76071W        W37602  39.822  11.175   3.283
76072W        W37603  25.120  21.682   2.759
76073W        W37604  42.491   0.462  14.490
76074W        W37605  44.332  18.156  13.538
76075W        W37606  44.905  10.738  11.924
76076W        W37607   6.267  31.123   3.809
76077W        W37608  37.468  39.370   4.155
76078W        W37609  39.915  29.953  13.845
76079W        W37610  39.486   4.803   1.400
76080W        W37611   7.182  19.546  13.330
76081W        W37612  42.922   8.375   2.236
76082W        W37613  31.918  20.118  13.032
76083W        W37614  39.008  17.266   5.274
76084W        W37615  32.042   7.904  11.857
76085W        W37616  39.990  19.537   0.943
76086W        W37617  19.072  12.649  12.550
76087W        W37618   8.244  21.558   3.691
76088W        W37619   6.183  14.688  11.590
76089W        W37620   7.675   8.245   3.703
76090W        W37621  43.013   7.324   2.728
76091W        W37622  43.817   3.846   3.748
76092W        W37623  32.436  13.819  12.955
76093W        W37624   7.173   4.271   1.212
76094W        W37625  44.443   9.209   3.194
76095W        W37626  10.673  11.328  11.507
76096W        W37627  40.956  31.426   4.675
76097W        W37628   5.371   6.690  13.028
76098W        W37629  31.538  30.054  14.013
76099W        W37630  29.599  36.078   2.888
76100W        W37631   1.465  13.634  11.035
76101W        W37632  26.022  35.859   4.753
76102W        W37633  28.983  19.721  12.088
76103W        W37634  40.815  36.995   1.847
76104W        W37635  32.917  18.780  11.433
76105W        W37636  25.703  35.096   3.684
76106W        W37637  16.769  31.444   4.347
76107W        W37638  42.011  15.168   0.254
76108W        W37639  44.305  29.059   2.412
76109W        W37640  30.109  35.992   2.751
76110W        W37641  12.822   8.347  14.356
76111W        W37642  39.940  36.890  10.569
76112W        W37643  30.967  11.839  10.900
76113W        W37644   9.739  26.137  14.990
76114W        W37645  10.317  26.644   1.360
76115W        W37646  32.944  26.979   3.177
76116W        W37647  44.483   4.891  11.891
76117W        W37648  30.103   7.398   1.697
76118W        W37649  22.606   2.817   1.705
76119W        W37650   9.730  27.671   3.273
76120W        W37651  19.639  44.933   1.450
76121W        W37652  31.568  37.013  12.006
76122W        W37653   4.368  37.450   0.904
76123W        W37654  16.667  26.623   3.256
76124W        W37655   9.808  31.070   0.776
76125W        W37656  42.780  26.614   2.714
76126W        W37657  16.286  21.742   2.283
76127W        W37658  11.698  34.562  13.996
76128W        W37659  23.554   0.913   1.340
76129W        W37660   6.359  19.621   0.254
76130W        W37661  37.012   3.861  13.989
76131W        W37662  18.788   6.222  10.957
76132W        W37663  22.239  22.578   2.256
76133W        W37664   9.766  11.682  13.867
76134W        W37665  31.025  24.211   0.455
76135W        W37666  18.084  15.800  10.105
76136W        W37667  41.854  29.449   3.326
76137W        W37668  14.215   2.292  11.461
76138W        W37669  24.592   2.817  12.484
76139W        W37670  12.737  21.627   0.348
76140W        W37671  30.417  38.016   2.361
76141W        W37672   6.237   7.702  12.089
76142W        W37673  22.532   6.758   1.858
76143W        W37674  36.526  39.968   0.283
76144W        W37675  28.953  28.489   3.187
76145W        W37676  27.539   3.370  10.429
76146W        W37677  10.152   4.750   1.901
76147W        W37678   9.878  41.796   0.303
76148W        W37679  37.965  38.570  12.948
76149W        W37680  25.054  32.441   1.820
76150W        W37681  42.306  41.311  14.778
76151W        W37682  35.360  30.416   4.159
76152W        W37683   9.738  17.263  14.354
76153W        W37684  13.117  35.453  12.433
76154W        W37685  21.711  24.495   3.779
76155W        W37686  27.603  12.306   2.775
76156W        W37687  12.353   3.272  12.433
76157W        W37688  40.802   7.355   2.737
76158W        W37689  25.575  43.885  13.874
76159W        W37690  26.518  41.037  14.030
76160W        W37691  28.532  25.638   1.740
76161W        W37692  37.515   2.825   1.378
76162W        W37693  29.647  32.427   3.763
76163W        W37694  31.630  31.069   3.183
76164W        W37695  15.200  20.149  10.504
76165W        W37696  22.628  43.981  14.864
76166W        W37697  26.566   9.280  10.060
76167W        W37698   9.388   3.890   2.368
76168W        W37699  16.311  44.364  10.542
76169W        W37700   5.700   6.919   0.892
76170W        W37701  11.266  17.750   2.313
76171W        W37702  27.144  31.421  13.981
76172W        W37703  43.789  11.319  13.478
76173W        W37704   0.931   0.749  10.115
76174W        W37705  43.474  25.204  13.967
76175W        W37706  31.017   9.170   0.384
76176W        W37707  42.330  42.490  12.833
76177W        W37708  30.082  22.020  12.390
76178W        W37709   4.315   9.740  12.568
76179W        W37710  21.047  13.198   4.731
76180W        W37711  28.014   6.428  10.073
76181W        W37712  10.698  20.553   2.723
76182W        W37713   7.290  26.177  13.343
76183W        W37714  37.513  10.726  12.939
76184W        W37715  15.212  38.446  14.460
76185W        W37716  28.055  31.038   0.483
76186W        W37717  15.627  19.042  13.034
76187W        W37718  35.901  29.439   4.627
76188W        W37719  22.203  27.148  14.446
76189W        W37720   0.463  37.485  12.391
76190W        W37721  37.458  13.704  14.027
76191W        W37722  37.881  10.700  14.925
76192W        W37723  38.949   1.972  12.478
76193W        W37724  18.635  30.488   2.218
76194W        W37725   8.748   2.409   3.260
76195W        W37726  42.459  42.847  13.791
76196W        W37727  40.362  11.765  13.470
76197W        W37728  34.047  11.806   1.829
76198W        W37729  38.532  20.544  10.905
76199W        W37730  25.116  20.228   1.889
76200W        W37731  19.254  14.616   2.322
76201W        W37732  30.125   1.473   4.687
76202W        W37733  11.834   4.751  11.497
76203W        W37734  41.961  17.580  12.361
76204W        W37735  19.185  41.981   3.643
76205W        W37736   0.791   3.840   2.193
76206W        W37737  11.767  14.673  10.629
76207W        W37738   4.276  30.966  11.462
76208W        W37739  37.538  26.556   3.759
76209W        W37740  40.524  24.552   1.316
76210W        W37741  33.388  44.765   4.212
76211W        W37742   1.947  17.627   0.334
76212W        W37743  41.310  36.576  10.546
76213W        W37744  17.091  31.437   4.219
76214W        W37745  37.882  23.994   3.234
76215W        W37746   0.861   6.710   4.712
76216W        W37747  36.491  42.380  10.931
76217W        W37748  15.234   3.370  12.577
76218W        W37749  38.434  36.389   9.673
76219W        W37750   4.897  17.701   0.888
76220W        W37751   8.767  16.094   1.775
76221W        W37752  20.631  27.992  12.435
76222W        W37753  13.649  21.243  12.435
76223W        W37754   6.403  34.035  12.942
76224W        W37755  24.038   6.818  13.840
76225W        W37756  38.426  32.615  13.909
76226W        W37757  35.455  42.894   4.751
76227W        W37758  22.716  43.980  11.580
76228W        W37759  32.981  37.073   3.362
76229W        W37760  26.117  14.171  12.461
76230W        W37761  20.083  16.635  10.434
76231W        W37762  29.529  19.050   4.259
76232W        W37763  25.219  17.291   0.461
76233W        W37764  23.189  26.182  14.392
76234W        W37765  24.583  21.624   2.345
76235W        W37766   0.912  43.849   4.330
76236W        W37767  27.457  26.150  14.993
76237W        W37768  10.771  10.815   3.254
76238W        W37769  44.275  12.741  10.432
76239W        W37770  27.076   6.416   3.153
76240W        W37771   5.244  40.841   4.169
76241W        W37772  23.617   2.822  12.084
76242W        W37773  26.192   8.794  12.454
76243W        W37774  33.124  31.116  11.997
76244W        W37775  37.862  10.285   2.901
76245W        W37776  25.660  33.523  12.985
76246W        W37777  39.350  11.778   1.829
76247W        W37778  40.840  44.803  11.451
76248W        W37779  19.577  16.578   2.883
76249W        W37780  22.668  15.759  10.620
76250W        W37781  20.136  41.823   0.374
76251W        W37782  13.279  32.110  11.452
76252W        W37783   4.909  28.436   3.770
76253W        W37784  20.033  30.527  10.078
76254W        W37785  21.112  38.353   3.701
76255W        W37786  18.704  42.321  12.979
76256W        W37787   4.855  39.340   1.237
76257W        W37788  33.490  34.880   0.405
76258W        W37789   8.891   7.263  10.890
76259W        W37790   3.337  26.674  11.044
76260W        W37791  12.765  27.445  14.839
76261W        W37792  27.655  27.146  12.559
76262W        W37793  27.616   4.909  13.816
76263W        W37794  14.217   1.422   1.887
76264W        W37795  40.354  36.095   0.242
76265W        W37796  39.956  40.443  11.535
76266W        W37797  21.048   0.755   3.225
76267W        W37798  15.216  36.396  11.948
76268W        W37799  20.085  38.965   0.909
76269W        W37800  17.111  19.628   3.357
76270W        W37801  32.630  21.636  10.927
76271W        W37802  31.988  11.730  12.503
76272W        W37803  33.473  31.481   2.402
76273W        W37804  15.104  34.919  14.386
76274W        W37805  15.082  17.716   1.926
76275W        W37806  23.725   9.326  14.776
76276W        W37807  23.008  38.509  13.486
76277W        W37808   9.257  30.487  10.155
76278W        W37809  24.103  10.802  11.528
76279W        W37810  29.529   7.245  11.867
76280W        W37811  24.540   7.899  13.368
76281W        W37812  38.906  24.652  14.996
76282W        W37813  20.722  27.576  14.006
76283W        W37814   5.757   3.444  11.596
76284W        W37815  25.628   6.832  13.514
76285W        W37816  14.315   6.792   3.378
76286W        W37817  31.090  41.974   1.311
76287W        W37818  37.014   7.821  13.927
76288W        W37819  29.477   4.314  14.762
76289W        W37820  25.101   9.681   0.463
76290W        W37821  18.677  25.686   2.371
76291W        W37822  11.683  40.980   0.949
76292W        W37823  44.950  16.081   1.381
76293W        W37824   2.807  24.697   3.665
76294W        W37825  15.784  21.116  13.530
76295W        W37826  35.453   9.648  10.029
76296W        W37827  30.572   7.751   3.802
76297W        W37828   0.300  18.070   0.425
76298W        W37829  30.550  14.591   3.658
76299W        W37830  26.986  39.834   3.797
76300W        W37831  12.311  40.866  11.963
76301W        W37832  34.401  40.428   1.919
76302W        W37833  42.972  37.372   2.345
76303W        W37834  39.970  43.282   4.750
76304W        W37835   9.339  10.173   2.223
76305W        W37836  23.153  36.347   0.945
76306W        W37837   0.399  35.467   3.675
76307W        W37838  26.021  16.577   0.472
76308W        W37839  22.561  13.770  13.044
76309W        W37840  43.450  42.919   4.828
76310W        W37841  15.226   5.858   2.345
76311W        W37842  22.214  15.634   3.834
76312W        W37843  32.580  36.514  13.987
76313W        W37844  37.340   5.437  10.968
76314W        W37845  31.562  35.942  14.477
76315W        W37846  12.841   5.805   3.202
76316W        W37847  24.594  34.964  11.609
76317W        W37848   9.852  31.154   0.310
76318W        W37849  12.305  10.186  13.412
76319W        W37850  26.198  38.837  11.380
76320W        W37851  11.713  33.501  12.988
76321W        W37852  12.338  42.479  12.924
76322W        W37853  28.511   0.298   1.302
76323W        W37854  19.077  19.281  13.514
76324W        W37855  40.426  40.940  13.309
76325W        W37856   0.402  13.726  14.961
76326W        W37857  28.491  42.931   1.385
76327W        W37858   8.791  44.921   4.116
76328W        W37859   2.859  30.585  12.860
76329W        W37860   5.233  15.224   0.445
76330W        W37861  12.181  29.445  10.522
76331W        W37862  43.390   3.763  12.352
76332W        W37863  43.476  15.582   1.214
76333W        W37864  44.345  30.647   2.324
76334W        W37865  38.388  37.080   1.880
76335W        W37866  36.942   2.351  11.513
76336W        W37867  20.693   5.210  12.562
76337W        W37868  26.113  38.832   0.754
76338W        W37869  29.558  13.289  11.003
76339W        W37870  14.738  27.490  14.953
76340W        W37871   7.836  28.089   0.899
76341W        W37872  15.745  41.309   2.191
76342W        W37873  24.123  42.452  11.489
76343W        W37874  32.590   9.188  14.017
76344W        W37875  31.911  12.839   4.781
76345W        W37876  36.390  40.489   3.705
76346W        W37877  43.964   5.262   2.255
76347W        W37878   8.402   8.187  11.080
76348W        W37879  42.030  14.195   1.768
76349W        W37880  36.919   8.195   2.762
76350W        W37881  14.115   6.203  14.447
76351W        W37882  43.796  39.894  14.990
76352W        W37883  34.975  37.454  13.505
76353W        W37884  38.339   6.266   0.943
76354W        W37885  43.937  36.487   3.353
76355W        W37886  14.692   3.263   0.853
76356W        W37887  37.892  43.507   1.740
76357W        W37888  28.503  39.866   1.269
76358W        W37889  17.260  15.642   3.683
76359W        W37890   1.873  24.015  14.846
76360W        W37891  34.036  25.641   3.871
76361W        W37892   1.865   2.248  11.872
76362W        W37893  33.513  22.547  13.314
76363W        W37894  32.405  38.925  11.428
76364W        W37895  17.732  11.155   4.305
76365W        W37896  11.809   9.798  11.922
76366W        W37897   1.803  40.882  14.370
76367W        W37898  41.483   0.331   1.428
76368W        W37899  41.876  10.332   0.879
76369W        W37900  34.969  22.044  11.414
76370W        W37901   8.263   1.468   2.178
76371W        W37902  17.794  23.207   2.729
76372W        W37903  34.088  22.209  13.039
76373W        W37904  19.572  10.350   3.846
76374W        W37905  44.964   7.853   4.800
76375W        W37906  38.327  25.962   2.341
76376W        W37907  30.938  40.545  11.020
76377W        W37908  30.103  26.191   0.902
76378W        W37909  26.975  14.203   2.816
76379W        W37910  29.519  15.327   1.321
76380W        W37911  42.936  22.701  14.804
76381W        W37912  18.710  29.427  11.446
76382W        W37913   0.982   6.756   1.316
76383W        W37914  38.986  14.156  13.478
76384W        W37915  37.997  37.507   2.751
76385W        W37916  40.425  42.479  12.437
76386W        W37917  10.673  41.411   3.824
76387W        W37918   1.237  28.678  13.864
76388W        W37919  40.478  32.099   0.775
76389W        W37920  41.018  26.549   3.737
76390W        W37921  16.127  38.563   3.851
76391W        W37922   4.269  21.052  12.917
76392W        W37923   7.763   1.435  13.368
76393W        W37924   7.774   1.930   3.690
76394W        W37925  35.587  16.126   1.309
76395W        W37926  26.536  26.061  11.864
76396W        W37927  10.252   3.750  14.467
76397W        W37928  25.991  36.516  13.897
76398W        W37929  24.626  30.000   9.944
76399W        W37930  44.415  13.144  10.627
76400W        W37931  43.407  23.019   1.212
76401W        W37932  17.680  23.568  10.525
76402W        W37933  31.036  29.449  11.001
76403W        W37934  11.263  28.164  12.858
76404W        W37935  38.517  21.750   1.720
76405W        W37936  32.573  36.442   0.464
76406W        W37937  12.170  34.023   1.882
76407W        W37938  26.696  16.171   0.320
76408W        W37939  18.652  32.028   1.286
76409W        W37940  13.730  35.898  13.848
76410W        W37941  27.012   7.289  11.124
76411W        W37942  20.121  37.527  14.966
76412W        W37943   2.348   2.449  14.926
76413W        W37944  38.039  23.084  13.394
76414W        W37945  38.460  30.088  11.584
76415W        W37946  22.069   4.412   2.178
76416W        W37947   9.193  30.061  11.465
76417W        W37948  28.043  36.032  11.484
76418W        W37949   8.212  32.438   0.965
76419W        W37950   1.350  35.090  14.339
76420W        W37951  30.123  11.742  12.414
76421W        W37952   0.248  40.314  11.608
76422W        W37953   0.987  16.680   1.368
76423W        W37954  18.747   8.267   4.774
76424W        W37955  31.912   6.341  12.525
76425W        W37956  38.859   4.739  11.981
76426W        W37957  32.058  13.124  11.948
76427W        W37958  38.075  20.034   3.803
76428W        W37959  16.695  20.731  12.526
76429W        W37960  28.580  44.373   4.205
76430W        W37961  11.833  25.624   1.757
76431W        W37962   2.402  34.460   1.762
76432W        W37963  30.420   5.795   1.763
76433W        W37964  36.547   9.325   0.409
76434W        W37965  37.068  14.187  13.891
76435W        W37966  28.456  29.539  13.816
76436W        W37967  31.504  39.942  13.406
76437W        W37968  19.092   8.274   0.964
76438W        W37969   7.322  41.995  11.576
76439W        W37970   6.380  24.623   2.726
76440W        W37971   7.337  19.576   3.826
76441W        W37972   8.217  15.295   2.872
76442W        W37973  30.500   5.392   1.289
76443W        W37974   3.229   9.344  14.439
76444W        W37975  13.687  15.760   2.894
76445W        W37976  42.441  34.949   0.436
76446W        W37977   5.334  11.205   2.670
76447W        W37978  13.630  38.388   1.915
76448W        W37979  37.464  36.899   4.734
76449W        W37980  36.553  19.247  13.908
76450W        W37981   7.371   3.875   1.222
76451W        W37982  25.057  43.461   2.857
76452W        W37983  37.916  40.825  13.866
76453W        W37984   0.436  32.944  13.378
76454W        W37985   8.767  29.927   1.282
76455W        W37986  41.476  23.105  13.914
76456W        W37987  18.558  18.657   1.212
76457W        W37988  41.395  26.009   1.762
76458W        W37989  26.975  36.055   4.218
76459W        W37990  20.258   5.752   0.454
76460W        W37991   5.925  27.096   1.375
76461W        W37992  15.757   2.887   0.314
76462W        W37993   1.898  26.015   2.272
76463W        W37994   7.739   9.707   4.778
76464W        W37995  33.465   6.414   3.371
76465W        W37996  20.206  29.069   4.630
76466W        W37997  13.801  40.856  12.838
76467W        W37998   8.383   5.278   4.239
76468W        W37999   8.795  21.659   4.637
76469W        W38000  36.391  27.044  11.023
76470W        W38001  18.181  12.780   0.796
76471W        W38002  12.852  43.787   1.844
76472W        W38003  13.845  10.276   1.716
76473W        W38004  17.185  16.175  11.127
76474W        W38005  20.160  43.915  11.897
76475W        W38006  38.361  31.975  13.307
76476W        W38007  26.056  19.603   1.866
76477W        W38008  11.664  15.587  14.426
76478W        W38009  23.579  42.294  12.829
76479W        W38010  33.103   5.912   4.806
76480W        W38011  13.300  44.781  12.876
76481W        W38012  21.024  26.991  10.899
76482W        W38013  38.533  35.597  14.872
76483W        W38014  18.279   4.280  12.439
76484W        W38015  17.292  42.953  10.989
76485W        W38016  12.641   9.759   4.701
76486W        W38017   8.762  21.705  11.559
76487W        W38018   1.437  25.180  12.966
76488W        W38019  36.846   5.417   0.351
76489W        W38020  21.030   6.342   5.298
76490W        W38021  21.192  18.287  13.040
76491W        W38022   2.768  22.691  14.516
76492W        W38023  21.104   6.689  11.450
76493W        W38024  20.621  17.638  12.975
76494W        W38025  19.260  12.295   3.184
76495W        W38026  38.989  38.975   1.428
76496W        W38027  16.769  12.161   3.757
76497W        W38028  33.419  40.332  11.611
76498W        W38029  28.472   4.712  12.476
76499W        W38030   3.801  16.127  14.469
76500W        W38031  43.349  11.697   2.793
76501W        W38032  26.080  33.544   0.384
76502W        W38033  33.015  40.054   1.360
76503W        W38034  15.257  44.946  14.396
76504W        W38035  33.952   0.318   4.298
76505W        W38036   3.917   4.879  11.878
76506W        W38037  27.992  39.479  14.006
76507W        W38038  25.665  18.288   1.380
76508W        W38039   9.229   3.854   3.751
76509W        W38040  13.308   9.210   4.731
76510W        W38041  30.570  42.490   1.819
76511W        W38042  28.638   2.333   2.326
76512W        W38043   9.170   8.822  11.600
76513W        W38044  42.996   5.713  10.471
76514W        W38045  22.192  42.310   2.350
76515W        W38046  21.627  37.449   1.277
76516W        W38047   5.699  37.896   2.679
76517W        W38048   4.736  40.886   1.256
76518W        W38049  34.531  12.269  14.288
76519W        W38050   3.731  33.399   3.221
76520W        W38051  25.114   2.351   4.629
76521W        W38052  28.935  26.664  14.498
76522W        W38053  42.971   8.159  14.864
76523W        W38054  42.813  13.281   3.183
76524W        W38055  32.908   4.321  10.434
76525W        W38056  36.971  24.231  12.421
76526W        W38057   5.732  21.683   3.776
76527W        W38058   0.296  42.001  13.834
76528W        W38059  11.752  41.889   3.226
76529W        W38060  14.294   2.895  14.510
76530W        W38061  29.593   3.910  12.958
76531W        W38062  31.562  20.230  14.280
76532W        W38063  25.531  43.877  11.538
76533W        W38064  18.612  21.096   9.938
76534W        W38065   7.201   0.436  10.895
76535W        W38066  24.107   0.344  13.851
76536W        W38067  28.064  23.557   0.762
76537W        W38068  19.667  25.031  10.010
76538W        W38069   0.758  39.379  12.528
76539W        W38070  11.215  43.774  11.464
76540W        W38071   0.325  41.000   1.301
76541W        W38072   3.898  24.056  13.946
76542W        W38073  14.263  27.043   0.396
76543W        W38074  33.995  28.554   4.340
76544W        W38075  14.798  34.934  11.877
76545W        W38076  10.293  39.973   2.335
76546W        W38077  39.045  33.615  11.107
76547W        W38078  13.260  23.523  14.022
76548W        W38079   9.283  43.889  11.446
76549W        W38080   7.194  35.897  11.506
76550W        W38081  44.450   4.240   0.306
76551W        W38082  13.609  26.121  12.948
76552W        W38083  38.004  15.183   2.722
76553W        W38084  26.618   2.337  12.442
76554W        W38085  23.044  35.600  11.528
76555W        W38086  31.130  21.098   1.931
76556W        W38087  29.492  11.672  12.020
76557W        W38088  33.559  18.157  13.383
76558W        W38089  36.583  35.888   3.765
76559W        W38090  17.758  32.937   2.296
76560W        W38091  30.516  39.989   1.912
76561W        W38092  11.787  33.924  11.080
76562W        W38093  32.459  27.471  10.592
76563W        W38094  13.845  43.967  14.281
76564W        W38095   8.791  43.329   1.216
76565W        W38096  21.079  14.137  12.940
76566W        W38097  37.480  26.530  13.466
76567W        W38098  10.326   5.252   2.812
76568W        W38099   5.396  13.629  12.500
76569W        W38100  26.657   3.455   3.844
76570W        W38101  13.153  16.595   3.170
76571W        W38102  43.956  30.643   3.350
76572W        W38103  44.369  23.515   4.710
76573W        W38104   5.236   3.297   3.686
76574W        W38105  35.444   1.750  14.764
76575W        W38106  41.332  43.384  11.895
76576W        W38107  17.669  17.738   4.745
76577W        W38108  37.538  44.498   9.963
76578W        W38109  20.717  43.406  10.986
76579W        W38110   9.802  44.880   4.800
76580W        W38111   5.273  20.555   2.680
76581W        W38112  24.047  44.897   4.114
76582W        W38113  13.186   1.828   4.769
76583W        W38114  30.484   6.880   3.365
76584W        W38115  21.027  40.007   3.690
76585W        W38116  18.071  43.462   1.788
76586W        W38117  22.697  42.516   2.878
76587W        W38118  18.274  14.188   1.700
76588W        W38119   4.254  33.049   2.858
76589W        W38120   8.745  15.808   2.883
76590W        W38121  41.911  26.179  13.843
76591W        W38122  12.171   8.699   4.309
76592W        W38123  36.091  18.091   3.694
76593W        W38124  40.844  19.052   0.904
76594W        W38125  40.533  26.668  14.320
76595W        W38126  18.287  27.112   5.121
76596W        W38127  23.675  27.483   1.305
76597W        W38128  30.565  15.212  12.946
76598W        W38129  41.925  42.861  13.013
76599W        W38130  33.013  10.295   2.767
76600W        W38131   1.286  23.106  14.968
76601W        W38132  42.908  38.044   2.894
76602W        W38133   4.754  35.904   0.927
76603W        W38134  11.765  40.899  10.000
76604W        W38135   3.852  28.149  14.426
76605W        W38136   1.937  25.137  14.846
76606W        W38137  13.228  14.112   4.660
76607W        W38138  28.496  23.210   3.208
76608W        W38139  12.212  13.782   2.308
76609W        W38140   3.248  39.902  13.867
76610W        W38141  23.734   8.836  13.019
76611W        W38142  33.886  25.547   4.175
76612W        W38143  11.245  35.997   4.282
76613W        W38144   9.879   1.242   1.337
76614W        W38145  24.185   1.919  14.873
76615W        W38146  23.670  40.018  12.525
76616W        W38147   2.832  40.895   1.277
76617W        W38148  40.474  34.977   1.863
76618W        W38149  24.053  20.554   1.743
76619W        W38150   9.752  29.615  14.971
76620W        W38151  31.899  40.008   3.172
76621W        W38152  14.679  23.730   1.343
76622W        W38153  23.219  30.472  14.974
76623W        W38154  19.571  29.478   2.723
76624W        W38155  20.643  27.537   0.340
76625W        W38156  38.829  41.315   4.803
76626W        W38157  20.611  39.326   1.829
76627W        W38158  11.221  37.500   0.444
76628W        W38159  24.663   8.843   3.682
76629W        W38160  35.498  25.988   3.306
76630W        W38161   9.867  31.642  11.878
76631W        W38162  35.983  39.815   4.727
76632W        W38163  42.813   8.807  12.085
76633W        W38164   2.384   6.275  13.456
76634W        W38165  44.834  29.009   1.312
76635W        W38166  18.663  25.574  11.559
76636W        W38167  41.041  24.637  10.469
76637W        W38168   2.788   3.281  11.858
76638W        W38169  33.574  24.506  14.498
76639W        W38170   1.274  24.594   2.668
76640W        W38171  39.918   8.365   4.768
76641W        W38172  37.546   2.750   0.787
76642W        W38173  19.558  18.638   0.930
76643W        W38174  22.090  16.203  12.531
76644W        W38175  26.180  37.064   4.732
76645W        W38176  40.337   5.342   1.872
76646W        W38177  19.569  21.698  14.928
76647W        W38178  41.524  33.968  12.380
76648W        W38179  20.637   2.959  14.299
76649W        W38180  34.430  16.651   2.213
76650W        W38181  24.105  33.517   0.872
76651W        W38182  37.381  17.743   0.426
76652W        W38183  44.987  30.133   0.259
76653W        W38184  22.142  25.527   4.257
76654W        W38185  43.767  32.610  10.497
76655W        W38186  19.076  40.914   4.624
76656W        W38187  44.820  29.608  11.457
76657W        W38188  38.451  24.056  12.954
76658W        W38189  27.523  36.360  11.929
76659W        W38190  16.570  29.454  10.627
76660W        W38191   7.206  25.040  12.505
76661W        W38192   4.338  22.707  10.934
76662W        W38193  19.737   7.263   2.352
76663W        W38194  37.830  44.992  12.399
76664W        W38195   4.922  32.098   5.292
76665W        W38196   6.700  15.716   1.869
76666W        W38197  11.197  30.489   5.752
76667W        W38198  12.709  11.715   2.849
76668W        W38199  24.492  44.266   0.433
76669W        W38200  39.326   2.297  11.968
76670W        W38201  15.733  17.198  12.956
76671W        W38202  33.521  33.113  14.484
76672W        W38203   6.913   9.368  10.421
76673W        W38204  36.432  26.556   4.696
76674W        W38205  16.096  18.687  13.855
76675W        W38206   0.409   8.316  14.335
76676W        W38207   5.209  41.974   4.338
76677W        W38208  10.810   1.459   1.824
76678W        W38209  14.266  25.654  11.941
76679W        W38210  39.827   2.259   1.703
76680W        W38211  15.578  33.510   1.341
76681W        W38212  13.198  33.435   1.307
76682W        W38213   6.694  19.123   2.180
76683W        W38214  25.475  10.267  11.074
76684W        W38215  42.485  30.542  12.410
76685W        W38216  38.059  41.918  14.841
76686W        W38217   2.281   1.420   2.686
76687W        W38218  23.517  14.729  11.466
76688W        W38219  29.623  44.854  14.440
76689W        W38220   8.227   9.179  13.047
76690W        W38221   4.927  25.614  14.930
76691W        W38222  38.022  16.739  10.957
76692W        W38223  20.612  39.420  13.816
76693W        W38224   3.786  44.955   4.706
76694W        W38225   4.943  28.935  12.853
76695W        W38226  30.525  23.055  10.483
76696W        W38227   4.745   5.736   4.636
76697W        W38228  22.720  22.703  10.891
76698W        W38229  36.456  37.465   0.939
76699W        W38230  29.052  15.249   3.167
76700W        W38231   1.782   1.318  12.073
76701W        W38232   8.190  24.716   0.343
76702W        W38233  24.060   6.735   4.723
76703W        W38234  22.204   2.388   2.828
76704W        W38235  16.769   4.821   4.825
76705W        W38236  25.982  40.486  11.473
76706W        W38237   4.902  15.720  13.360
76707W        W38238   2.411  38.543  12.067
76708W        W38239  38.025   3.741  11.383
76709W        W38240  36.949  19.282  13.810
76710W        W38241  41.860  32.631  13.503
76711W        W38242  18.222   9.754  11.446
76712W        W38243  14.594  40.419   4.738
76713W        W38244  44.381  38.556   1.363
76714W        W38245  15.159  16.186  13.469
76715W        W38246  13.709  26.141  12.051
76716W        W38247  31.956  26.189   2.312
76717W        W38248  36.475  34.884   3.223
76718W        W38249  21.232  44.806  12.856
76719W        W38250  22.084  44.943   1.255
76720W        W38251  42.030  26.102  14.873
76721W        W38252  23.508  15.155  13.361
76722W        W38253  14.198  13.835  14.914
76723W        W38254  30.481  12.820  10.937
76724W        W38255  26.005  42.998   9.924
76725W        W38256  29.970  12.285   4.283
76726W        W38257  39.351   3.282  10.103
76727W        W38258  14.222   9.190  11.598
76728W        W38259  41.043   2.302   4.675
76729W        W38260  41.400   6.379  14.424
76730W        W38261  43.792  12.262  12.998
76731W        W38262  42.966   6.298  13.053
76732W        W38263  14.166  12.704   3.287
76733W        W38264  28.083  30.095  14.304
76734W        W38265  42.926  28.000  12.034
76735W        W38266  31.122   6.923   1.425
76736W        W38267   9.792  29.094   1.718
76737W        W38268  37.534  31.074   0.864
76738W        W38269  29.120  16.184   3.245
76739W        W38270  15.127  29.962   1.812
76740W        W38271  17.178  43.901   2.232
76741W        W38272   3.256  44.827   1.908
76742W        W38273  23.119  24.117  13.338
76743W        W38274  36.090  17.131  11.526
76744W        W38275  20.236  18.069  12.535
76745W        W38276  12.817   8.886   0.827
76746W        W38277  44.758  36.485  13.791
76747W        W38278  20.160  44.466   0.403
76748W        W38279   0.308   1.300   4.210
76749W        W38280  29.077   5.202  11.942
76750W        W38281   5.775  19.039   1.785
76751W        W38282  23.099  14.589   0.470
76752W        W38283  27.664  15.637  12.856
76753W        W38284  29.536  39.448  10.618
76754W        W38285  22.544  16.666   3.715
76755W        W38286  25.625  31.017   0.395
76756W        W38287  33.896   8.670   0.880
76757W        W38288  21.195  34.926  13.956
76758W        W38289  40.356   5.290  12.437
76759W        W38290  12.289  32.533   1.394
76760W        W38291  27.571  12.704   0.918
76761W        W38292  36.037  25.617   2.198
76762W        W38293  43.362  14.134   5.089
76763W        W38294  11.756  39.026  13.030
76764W        W38295  31.587  14.309  12.396
76765W        W38296  27.541  26.644   0.957
76766W        W38297  35.916  13.289  14.770
76767W        W38298  13.691  34.083   2.376
76768W        W38299   5.234  21.182  11.116
76769W        W38300  11.318   2.815   5.234
76770W        W38301  24.719  43.417   2.803
76771W        W38302  32.911   0.742   0.761
76772W        W38303   2.377  30.120   0.875
76773W        W38304  22.063  32.079   4.788
76774W        W38305  28.476  44.861  10.523
76775W        W38306  12.318  28.581   1.445
76776W        W38307  21.571   3.435  11.590
76777W        W38308  42.883  16.194  13.325
76778W        W38309  18.069  13.784  11.521
76779W        W38310  11.363  13.133  10.448
76780W        W38311  31.633  18.102  14.005
76781W        W38312  44.405  33.096  13.015
76782W        W38313  20.616  40.326  11.565
76783W        W38314  13.255  12.752  12.495
76784W        W38315  16.184  13.774   4.837
76785W        W38316  41.348  20.070   5.137
76786W        W38317   5.841  17.655  13.451
76787W        W38318  19.266  29.634  11.921
76788W        W38319  17.161  20.088   4.764
76789W        W38320  17.136  36.450  14.870
76790W        W38321  14.130  37.546   0.336
76791W        W38322  40.013  19.673   0.382
76792W        W38323   8.306  13.783  10.935
76793W        W38324   3.259   3.350   5.238
76794W        W38325  26.490  14.199   3.729
76795W        W38326  34.957  33.527   1.266
76796W        W38327  37.368  33.980   0.277
76797W        W38328  24.686  10.791  12.414
76798W        W38329  36.935  25.651   1.727
76799W        W38330   2.420  37.931  10.460
76800W        W38331  22.071  42.439  14.409
76801W        W38332  44.874  41.930   3.868
76802W        W38333  35.419  40.334   0.739
76803W        W38334  29.478  38.949  14.026
76804W        W38335  20.087  30.589  12.357
76805W        W38336   1.337  43.784   2.360
76806W        W38337  22.211  36.908  12.381
76807W        W38338  40.798  34.615   3.846
76808W        W38339   4.211  27.971  12.482
76809W        W38340  13.762   0.300   4.820
76810W        W38341  19.542  37.957  11.552
76811W        W38342   1.325  18.147   3.758
76812W        W38343  27.101  10.372  10.480
76813W        W38344  43.890   8.891   3.341
76814W        W38345  13.279  32.116  14.898
76815W        W38346  39.460  17.772   0.795
76816W        W38347   7.299  40.321  13.458
76817W        W38348  34.529  44.965  11.023
76818W        W38349  23.543  27.964   2.217
76819W        W38350   3.752   0.891   4.248
76820W        W38351  12.820  36.859  12.376
76821W        W38352  32.018  26.631   3.686
76822W        W38353  21.175   1.927  13.952
76823W        W38354  11.155  42.995   0.426
76824W        W38355  25.644  17.304  11.077
76825W        W38356   0.300  20.180   1.798
76826W        W38357  11.842  37.512   0.463
76827W        W38358   1.784  38.399   4.232
76828W        W38359  17.594  33.542   2.311
76829W        W38360  35.986  17.086  12.465
76830W        W38361  38.475   8.400  10.134
76831W        W38362  23.153  44.948  10.449
76832W        W38363  37.861  21.226   4.124
76833W        W38364  16.312  39.852   1.793
76834W        W38365  38.935  30.454  14.877
76835W        W38366   3.400   8.310   4.280
76836W        W38367  39.330  34.382   0.942
76837W        W38368  37.389  27.993   2.815
76838W        W38369   2.783  16.315  14.979
76839W        W38370  18.234  11.192   4.740
76840W        W38371  44.334  21.620  13.398
76841W        W38372  22.038   7.403   0.926
76842W        W38373  34.034  38.436   2.726
76843W        W38374   5.370  36.557   1.268
76844W        W38375  44.977  36.929   2.838
76845W        W38376  26.649  44.878   2.876
76846W        W38377  29.596  11.274   1.812
76847W        W38378  40.407  10.727  12.067
76848W        W38379  14.184   8.707  11.021
76849W        W38380  16.189  34.531   2.342
76850W        W38381  31.408  38.398   0.398
76851W        W38382  29.930  13.195  10.581
76852W        W38383   7.675  30.429   0.380
76853W        W38384   1.899  36.039  12.826
76854W        W38385  30.005  21.140  11.380
76855W        W38386  12.735  34.439  10.922
76856W        W38387  16.749  30.124  13.448
76857W        W38388   2.375  26.555   4.178
76858W        W38389  12.173  34.450  11.992
76859W        W38390  38.520  38.341   4.273
76860W        W38391  32.504  26.475  14.284
76861W        W38392  37.895  19.759  13.986
76862W        W38393   5.832   1.761   0.735
76863W        W38394  22.582  35.040  10.521
76864W        W38395  10.206  17.191   3.678
76865W        W38396   8.346   2.276   0.411
76866W        W38397   6.220  35.908  11.610
76867W        W38398  19.571   4.776  10.584
76868W        W38399   9.336   7.381  13.799
76869W        W38400  39.498   6.298   3.857
76870W        W38401  36.573  19.761  13.488
76871W        W38402  23.120  29.511  14.437
76872W        W38403  26.956  22.039   1.934
76873W        W38404  44.367  13.290  13.892
76874W        W38405   9.689  30.591  12.034
76875W        W38406  38.393  21.663   4.826
76876W        W38407   6.685  11.158   0.335
76877W        W38408  21.019  37.982  12.859
76878W        W38409  43.333   8.243  14.947
76879W        W38410  10.247  17.662  11.382
76880W        W38411  33.933  20.693   1.871
76881W        W38412   5.842  43.813   3.866
76882W        W38413  24.599  40.859   1.407
76883W        W38414  28.083  34.566  12.532
76884W        W38415  38.827  39.862   0.806
76885W        W38416  14.814   3.439  13.985
76886W        W38417  11.795  21.074   2.797
76887W        W38418   2.421  20.274  12.018
76888W        W38419  11.821  10.729   0.374
76889W        W38420   7.376   3.763  10.436
76890W        W38421  24.218  32.556   4.137
76891W        W38422   6.895  35.068   4.735
76892W        W38423  29.641   4.938  12.847
76893W        W38424  27.451  34.477  14.303
76894W        W38425  40.892   7.222   0.762
76895W        W38426  26.515  41.942   4.749
76896W        W38427  16.088  38.876   2.849
76897W        W38428   5.851  28.133   4.687
76898W        W38429  16.594  14.170   2.180
76899W        W38430  36.862  35.443   2.785
76900W        W38431   7.808  33.046   1.874
76901W        W38432  24.516  19.757  14.888
76902W        W38433   5.330  44.392  10.913
76903W        W38434  10.204  28.977  13.390
76904W        W38435  37.491  42.435   3.834
76905W        W38436   9.698  37.460  12.970
76906W        W38437  20.679  11.758   0.338
76907W        W38438  29.662  42.309   4.657
76908W        W38439  28.455  26.981   2.317
76909W        W38440  25.992  11.342  12.498
76910W        W38441  44.352   6.882   3.724
76911W        W38442  10.737  31.417  14.476
76912W        W38443  19.193   2.340   3.369
76913W        W38444   9.231  17.306   1.788
76914W        W38445  44.764  23.662  13.503
76915W        W38446   5.759   3.833   1.889
76916W        W38447  42.940  10.208  14.883
76917W        W38448  29.543  38.021  13.864
76918W        W38449  13.653  27.588  12.414
76919W        W38450  28.966   8.741   1.777
76920W        W38451  31.571   8.777  14.980
76921W        W38452  44.783   7.818   4.226
76922W        W38453   2.752  24.594  14.865
76923W        W38454  43.508  17.641   0.843
76924W        W38455  16.741   2.802  14.782
76925W        W38456  16.091   2.240  10.640
76926W        W38457  24.015  17.238   3.678
76927W        W38458  44.769  30.991  11.980
76928W        W38459   6.414  11.824   2.786
76929W        W38460  44.310  13.292   3.156
76930W        W38461  27.016  30.988  10.943
76931W        W38462  37.078   0.444   4.682
76932W        W38463  22.202   1.339  10.480
76933W        W38464  32.585   2.942  11.946
76934W        W38465  42.922  36.093  12.045
76935W        W38466  36.988  15.607  11.082
76936W        W38467  30.038  36.573   0.779
76937W        W38468  37.409   1.440  12.884
76938W        W38469  22.114  37.866   3.671
76939W        W38470  22.041   7.301  10.517
76940W        W38471   0.407  12.773   2.281
76941W        W38472  13.676  21.608   2.853
76942W        W38473  20.057  12.229  12.885
76943W        W38474  11.190  27.661  10.421
76944W        W38475  25.555  35.543   1.344
76945W        W38476   5.387  10.246  10.117
76946W        W38477  23.533  31.943   3.242
76947W        W38478   3.836   4.348   1.252
76948W        W38479  14.245  39.004  12.854
76949W        W38480   5.309  11.786  12.490
76950W        W38481  18.214   8.286  14.882
76951W        W38482  28.148   8.666   1.446
76952W        W38483  39.036  39.978  14.938
76953W        W38484  27.068   6.301   2.705
76954W        W38485  44.501  39.939  10.525
76955W        W38486  32.429  19.691  10.974
76956W        W38487   5.687  42.501   2.750
76957W        W38488  13.651  39.934  12.950
76958W        W38489  26.066   7.900   0.759
76959W        W38490   5.759  37.084   2.280
76960W        W38491  14.819   3.279   4.141
76961W        W38492  42.319  40.375  11.416
76962W        W38493  15.744  14.278   2.248
76963W        W38494   5.842  15.714   3.782
76964W        W38495  12.232  29.615   1.318
76965W        W38496  27.576  23.494   0.883
76966W        W38497  41.467   7.319  11.870
76967W        W38498  40.999  26.486  14.515
76968W        W38499  22.662   9.160  13.424
76969W        W38500  23.197  20.735   2.740
76970W        W38501  30.640  29.130   0.443
76971W        W38502   2.721   2.896   0.805
76972W        W38503   1.859   2.441   3.207
76973W        W38504  28.071  21.080   2.329
76974W        W38505  41.913   5.300   4.795
76975W        W38506  30.656  26.024   2.696
76976W        W38507  44.804  27.114  10.621
76977W        W38508  15.228  36.075   2.859
76978W        W38509   0.950  31.643   3.299
76979W        W38510  29.651  39.396   1.865
76980W        W38511  34.482  11.704  14.856
76981W        W38512  39.325  28.110   4.182
76982W        W38513  29.609  18.109  10.003
76983W        W38514  41.984  41.336  12.515
76984W        W38515  42.389   8.855   0.846
76985W        W38516  32.454   3.299  11.037
76986W        W38517  17.609  18.075   1.699
76987W        W38518  24.999  33.104  13.831
76988W        W38519  35.081  33.917  13.035
76989W        W38520  43.942  16.616   1.269
76990W        W38521  28.062  44.397  11.445
76991W        W38522  18.217   9.326   2.235
76992W        W38523  10.373   1.878   0.315
76993W        W38524  39.554  40.414   2.708
76994W        W38525  14.130  33.605   4.226
76995W        W38526  15.264  20.634   4.743
76996W        W38527  33.585  36.967   2.255
76997W        W38528  24.976  17.146   4.135
76998W        W38529  28.094  17.708   2.670
76999W        W38530  31.081   4.757  12.560
77000W        W38531  10.810  43.924   1.823
77001W        W38532   8.745  11.792   4.810
77002W        W38533  43.281  34.586  11.517
77003W        W38534   3.343  20.542   0.944
77004W        W38535   7.187  33.454   0.873
77005W        W38536  26.196  23.217   1.226
77006W        W38537  40.852  14.169  12.062
77007W        W38538  42.894   6.350  13.421
77008W        W38539  15.329  39.861  11.032
77009W        W38540  40.365  37.041   4.306
77010W        W38541  39.428  15.619  12.882
77011W        W38542  21.243  29.575  12.840
77012W        W38543  12.617   4.259   2.846
77013W        W38544  32.443   9.809  10.994
77014W        W38545  44.416   4.844  10.903
77015W        W38546  28.127   4.778  10.058
77016W        W38547   6.302  24.210   0.449
77017W        W38548  24.226  30.109   1.408
77018W        W38549  17.260  36.448   2.753
77019W        W38550  30.484  39.552   4.313
77020W        W38551   9.306  39.899  12.489
77021W        W38552  29.945   4.843  14.887
77022W        W38553   1.253  41.309   0.322
77023W        W38554  18.134   0.442  12.892
77024W        W38555  43.476  32.502  12.871
77025W        W38556  35.928  11.237  14.805
77026W        W38557   2.246  26.542   1.413
77027W        W38558   7.779  24.217  10.623
77028W        W38559   7.250  37.557  14.362
77029W        W38560  12.665  42.290  12.931
77030W        W38561   4.253  27.048  13.522
77031W        W38562   6.734  41.026   0.774
77032W        W38563  17.583  20.263   3.265
77033W        W38564  40.463  11.267  14.467
77034W        W38565  17.069  20.250  11.429
77035W        W38566   9.265  22.052   0.828
77036W        W38567   1.746  26.595   4.252
77037W        W38568   7.884  23.200   4.232
77038W        W38569  19.078  29.033   4.329
77039W        W38570   7.242   0.953   1.397
77040W        W38571   4.924  32.038  11.611
77041W        W38572  36.094   4.701  11.526
77042W        W38573  25.119  24.545  12.842
77043W        W38574  30.504  14.722  12.342
77044W        W38575   2.940  10.329   1.275
77045W        W38576  38.505  33.025   2.889
77046W        W38577  20.567  18.147   3.839
77047W        W38578  29.920   5.839   4.606
77048W        W38579   1.266   5.922  14.763
77049W        W38580   5.363  15.688  11.059
77050W        W38581  41.458  26.596   1.360
77051W        W38582  29.668  13.342   2.258
77052W        W38583  26.524  27.608   4.790
77053W        W38584  31.003  37.412  10.050
77054W        W38585  21.137  40.875  10.451
77055W        W38586  40.339  30.425   3.871
77056W        W38587   3.408  40.535   0.799
77057W        W38588  29.948  13.829   4.634
77058W        W38589  42.347   3.837  12.501
77059W        W38590  43.331  24.658  11.493
77060W        W38591  13.235  40.440   4.173
77061W        W38592  30.623  40.049   2.206
77062W        W38593  26.149   4.843  12.034
77063W        W38594   8.761  41.942  12.002
77064W        W38595  24.707  16.247   0.427
77065W        W38596  24.623  10.275  11.097
77066W        W38597  17.592  17.613  10.982
77067W        W38598   2.393  18.736  12.842
77068W        W38599   9.733   8.869  12.002
77069W        W38600  34.524  33.605   0.453
77070W        W38601  38.350  25.100   3.640
77071W        W38602   7.691  37.892  11.515
77072W        W38603  38.059  40.380  14.862
77073W        W38604  20.092  39.401  13.369
77074W        W38605  23.672  25.182   4.125
77075W        W38606  12.620  35.365  10.899
77076W        W38607  16.770  15.708  10.445
77077W        W38608  27.136  10.709  13.807
77078W        W38609  39.861  17.290   2.358
77079W        W38610  28.502  39.905  12.852
77080W        W38611  37.547  17.082  14.287
77081W        W38612  20.095  36.572  10.932
77082W        W38613  11.810   2.445  11.407
77083W        W38614  31.951  41.813   3.769
77084W        W38615  39.032  15.618  10.925
77085W        W38616  37.962  37.974  11.485
77086W        W38617  33.001  15.163   2.897
77087W        W38618  43.446  21.153   1.858
77088W        W38619  34.865  31.538   1.289
77089W        W38620  36.898  14.793   4.762
77090W        W38621  21.237  35.436   3.282
77091W        W38622  37.886  19.101   4.235
77092W        W38623   5.867  18.288   4.234
77093W        W38624   5.926  22.586   3.688
77094W        W38625  40.810  38.421  12.992
77095W        W38626  30.472  18.244  13.408
77096W        W38627  43.307  35.965   2.879
77097W        W38628   3.952   1.344  10.940
77098W        W38629   0.873  11.238  13.511
77099W        W38630  28.133  39.371   2.823
77100W        W38631  38.504  12.614   2.410
77101W        W38632  27.162   9.693   5.125
77102W        W38633   3.227  41.944   1.321
77103W        W38634  29.615  37.567  14.964
77104W        W38635  27.997  42.991   4.752
77105W        W38636   1.432  18.284  11.546
77106W        W38637  35.455  10.818  12.994
77107W        W38638   2.791  25.584  11.942
77108W        W38639  42.481  11.176   4.271
77109W        W38640  16.598  35.440   1.257
77110W        W38641  23.180  30.503   1.780
77111W        W38642  34.090  10.836  14.450
77112W        W38643   5.845   1.386   2.348
77113W        W38644  43.303   0.907   4.284
77114W        W38645   0.966  26.624   1.877
77115W        W38646  40.906  33.499  12.915
77116W        W38647  35.978  43.771  10.532
77117W        W38648  19.750  25.035  12.849
77118W        W38649  39.519  40.381   4.775
77119W        W38650   7.703  34.597  14.515
77120W        W38651  10.189  29.495   4.292
77121W        W38652  19.767   6.792   3.813
77122W        W38653  41.823  17.594   2.287
77123W        W38654  41.515  11.199  11.050
77124W        W38655  44.936  13.137  11.859
77125W        W38656  10.347  22.533  10.936
77126W        W38657  16.087   9.373   1.865
77127W        W38658  15.734  23.504   2.740
77128W        W38659  11.651  41.511  12.011
77129W        W38660  23.581   6.205  11.912
77130W        W38661  24.979   1.412  10.987
77131W        W38662  31.632  31.003   3.754
77132W        W38663  26.566  19.656  12.474
77133W        W38664  10.165   0.807  13.949
77134W        W38665  36.881  43.474   3.807
77135W        W38666  16.597   2.355   1.861
77136W        W38667   2.229  10.676  14.330
77137W        W38668  43.356  40.501  14.032
77138W        W38669  20.607  23.224   2.394
77139W        W38670  23.688   5.919  12.422
77140W        W38671  25.161  37.579   3.710
77141W        W38672  44.290  21.193   5.149
77142W        W38673  35.904  42.413  11.946
77143W        W38674  30.539  31.131   1.714
77144W        W38675  24.553  32.428  14.968
77145W        W38676  22.170  23.710   4.678
77146W        W38677  16.575  20.752   4.822
77147W        W38678  33.433   0.447  11.416
77148W        W38679  15.586  39.542  12.839
77149W        W38680   2.769  40.392  14.507
77150W        W38681  42.348   2.429  12.508
77151W        W38682   6.721  25.579   5.091
77152W        W38683  44.352  31.961  10.002
77153W        W38684  13.284   4.350   0.945
77154W        W38685  29.500  32.522  12.953
77155W        W38686   1.746  13.238   2.210
77156W        W38687  32.393  18.166   3.852
77157W        W38688   6.428   5.790   3.680
77158W        W38689   8.793   4.713   2.762
77159W        W38690  27.192  14.231   0.453
77160W        W38691  33.468  24.091  12.050
77161W        W38692  20.525  42.860   4.243
77162W        W38693   3.743  25.114  14.971
77163W        W38694  44.876  37.342   1.706
77164W        W38695  21.645   3.442  10.991
77165W        W38696  38.488   2.386  11.597
77166W        W38697  39.982  43.786  14.916
77167W        W38698  42.446  21.543   0.870
77168W        W38699  32.403  32.979   1.749
77169W        W38700  30.992  32.041  13.865
77170W        W38701   8.342  44.406   3.270
77171W        W38702  13.835  36.870   1.701
77172W        W38703  40.408  44.490   4.747
77173W        W38704   7.739   1.381   0.734
77174W        W38705  22.171  42.457  12.418
77175W        W38706  16.611  16.074   3.716
77176W        W38707  44.286  38.951  11.541
77177W        W38708  32.945  14.107  12.016
77178W        W38709  23.637   4.343   4.829
77179W        W38710  41.519  41.039  11.066
77180W        W38711  10.724  14.142  11.895
77181W        W38712  19.753  13.151  13.523
77182W        W38713   5.409   4.878  12.487
77183W        W38714  31.097  36.050  13.452
77184W        W38715  38.064  43.886   3.688
77185W        W38716  35.971  12.196   3.386
77186W        W38717  33.038  39.548   0.252
77187W        W38718  29.661   2.749  14.889
77188W        W38719  27.069  17.093  10.503
77189W        W38720   0.259   1.244  11.601
77190W        W38721   7.749   6.882  14.395
77191W        W38722  40.800  14.830  12.982
77192W        W38723  23.493  30.126   1.760
77193W        W38724   0.433  31.995   2.241
77194W        W38725  41.354   0.469  10.423
77195W        W38726  43.357  23.042   4.209
77196W        W38727   6.737  20.535   2.819
77197W        W38728  22.067  17.784  11.877
77198W        W38729  38.338  27.472  12.895
77199W        W38730  34.479   9.806   5.304
77200W        W38731  20.098  42.006  11.112
77201W        W38732  40.413   7.702   4.824
77202W        W38733  20.700   4.828   3.704
77203W        W38734   5.420   0.390  13.861
77204W        W38735  40.477  44.488  10.014
77205W        W38736  23.041  31.012  10.085
77206W        W38737   9.244  29.092  12.539
77207W        W38738  22.547   7.797   0.257
77208W        W38739  24.563  35.928  12.088
77209W        W38740  19.615  13.147  13.905
77210W        W38741  34.590  40.478   3.665
77211W        W38742   6.768  28.182  14.462
77212W        W38743  39.850   1.373  11.606
77213W        W38744  25.177  23.603   3.774
77214W        W38745  13.755  30.041   4.211
77215W        W38746  44.872  44.882   3.672
77216W        W38747   3.297  18.712   3.290
77217W        W38748  11.167  35.422   1.778
77218W        W38749  43.486   5.230   2.778
77219W        W38750   8.728  39.035   5.294
77220W        W38751  24.551  13.655   1.211
77221W        W38752  40.331  22.161  11.905
77222W        W38753  35.381  35.027  10.605
77223W        W38754  22.620  16.224  11.447
77224W        W38755  13.637  19.603   1.229
77225W        W38756   8.736   6.696   3.802
77226W        W38757  30.513  15.310  14.024
77227W        W38758  35.533  36.367   2.342
77228W        W38759  34.549  10.262   3.310
77229W        W38760   8.244  42.994  13.384
77230W        W38761  26.534  16.697   0.287
77231W        W38762  18.590   0.327  13.810
77232W        W38763  38.058  10.156  11.390
77233W        W38764  14.199  17.666  12.410
77234W        W38765  23.195  21.513   4.839
77235W        W38766  43.800  33.401   1.256
77236W        W38767  18.292  14.613  11.081
77237W        W38768   5.849  36.067  14.483
77238W        W38769  36.843  28.576  12.833
77239W        W38770  31.437  33.588  12.999
77240W        W38771  38.404  38.400   3.708
77241W        W38772  37.836  35.405  11.413
77242W        W38773  34.962  15.130   1.773
77243W        W38774  38.476   7.775   1.226
77244W        W38775   5.882  18.114   4.762
77245W        W38776  10.207  25.049  10.101
77246W        W38777  36.962  44.388  14.409
77247W        W38778  44.840  10.650  12.380
77248W        W38779   8.716  24.992  12.895
77249W        W38780  40.920   3.357  14.430
77250W        W38781  26.641  30.994  11.116
77251W        W38782   5.310  15.153  13.876
77252W        W38783  11.232  29.540  13.972
77253W        W38784  43.484   0.380  14.871
77254W        W38785  32.432  40.507   3.844
77255W        W38786   7.846  10.787   0.933
77256W        W38787  18.637  33.906  13.010
77257W        W38788  33.960  20.122   0.391
77258W        W38789  29.664  42.510   3.301
77259W        W38790  15.176   2.936  14.319
77260W        W38791  40.330  36.432   3.196
77261W        W38792  35.064   2.837  10.440
77262W        W38793  23.070  24.490   3.222
77263W        W38794  33.051   3.871  11.479
77264W        W38795  40.425  13.208  13.996
77265W        W38796  20.216   6.814   4.786
77266W        W38797  38.325  21.122   0.745
77267W        W38798   0.399  10.791   2.792
77268W        W38799  44.990  28.641  13.000
77269W        W38800  20.710  34.997  12.563
77270W        W38801  24.629   4.751   3.682
77271W        W38802  28.106  17.149   3.679
77272W        W38803   7.414  43.446   4.698
77273W        W38804  34.459   1.880   2.192
77274W        W38805  29.655  18.284   0.255
77275W        W38806   3.939  21.657   0.866
77276W        W38807  24.098   9.772  12.447
77277W        W38808  19.564   7.763  12.898
77278W        W38809  20.078  29.989   4.665
77279W        W38810  42.348  21.257   4.777
77280W        W38811  40.812  37.401  11.945
77281W        W38812  15.731  28.020   2.779
77282W        W38813  28.093  40.456   4.297
77283W        W38814   0.321  18.639   0.332
77284W        W38815  38.029   9.308  11.120
77285W        W38816   8.756  39.395   1.864
77286W        W38817  21.670  41.891   3.835
77287W        W38818  23.180  33.533   1.733
77288W        W38819  27.587  14.225  12.542
77289W        W38820   4.910  22.131   0.292
77290W        W38821  29.979  23.064  10.955
77291W        W38822  37.538  37.431  14.873
77292W        W38823  31.601   1.926  12.082
77293W        W38824  30.633   6.404   0.850
77294W        W38825  41.352  40.969   0.777
77295W        W38826  18.124  21.585  13.938
77296W        W38827  12.627  25.550  10.597
77297W        W38828  29.163  31.549   2.885
77298W        W38829  29.586  10.869  10.951
77299W        W38830  34.511  14.705   3.732
77300W        W38831  25.020   0.824  14.817
77301W        W38832   6.689  30.929  14.408
77302W        W38833  36.478  15.800  10.563
77303W        W38834  13.223  42.829  11.098
77304W        W38835  34.441  39.890  14.472
77305W        W38836  10.306  13.288   3.337
77306W        W38837   4.430   2.749   0.746
77307W        W38838   5.348  34.068   3.800
77308W        W38839  24.663  11.160   2.727
77309W        W38840  29.501  43.399  14.003
77310W        W38841  25.099  39.474  10.530
77311W        W38842  29.934  14.650   0.315
77312W        W38843  43.424  42.959   0.875
77313W        W38844   4.345   3.945   2.801
77314W        W38845   0.455  28.616  11.438
77315W        W38846   4.744  15.231  12.089
77316W        W38847  11.257  10.663  11.105
77317W        W38848  18.607   8.162  11.039
77318W        W38849  15.762   2.878  12.867
77319W        W38850  41.475   9.155   0.747
77320W        W38851  40.926  20.238   4.315
77321W        W38852   0.433   1.920  11.025
77322W        W38853   7.821  42.391  12.505
77323W        W38854  15.281   6.731  14.309
77324W        W38855  21.746  22.198  13.492
77325W        W38856   3.434  32.056  10.636
77326W        W38857  39.056  29.647  10.581
77327W        W38858   9.292  16.185   0.946
77328W        W38859   4.772  19.225  13.501
77329W        W38860  24.506  40.967  11.963
77330W        W38861   0.973  27.641   2.205
77331W        W38862  37.875   0.988  13.831
77332W        W38863   1.744  42.306  13.991
77333W        W38864   1.322  19.745  14.758
77334W        W38865  38.449  37.415   1.320
77335W        W38866  22.021  26.185   0.253
77336W        W38867  36.511  17.734  11.901
77337W        W38868  10.330  26.460   9.957
77338W        W38869   5.898  38.538  11.860
77339W        W38870  25.110   7.762  12.461
77340W        W38871  34.013  21.519  13.897
77341W        W38872  40.449  14.334  12.474
77342W        W38873  40.396  41.024  13.011
77343W        W38874   6.322   8.404   3.731
77344W        W38875  44.003   2.365   1.398
77345W        W38876  20.067   6.679  13.931
77346W        W38877  29.542  23.496  14.979
77347W        W38878  24.974  25.655  10.905
77348W        W38879   5.377  13.218  14.451
77349W        W38880  30.588  20.081   1.369
77350W        W38881  39.934  38.437   4.177
77351W        W38882  35.956  34.412  14.814
77352W        W38883   4.285  17.773   0.362
77353W        W38884  36.856  40.823   1.431
77354W        W38885  36.027  24.154  13.968
77355W        W38886   4.397  28.088  13.433
77356W        W38887  33.001  23.726   2.681
77357W        W38888  43.293  15.258  12.833
77358W        W38889  11.221  26.505   2.775
77359W        W38890   4.928   7.889  14.363
77360W        W38891  14.234  42.395   0.957
77361W        W38892   3.945  21.093   1.415
77362W        W38893  31.053  35.457   2.236
77363W        W38894  17.682  44.844   3.273
77364W        W38895  22.694  19.122  14.881
77365W        W38896  39.992  22.542   1.855
77366W        W38897  15.114  22.015  12.075
77367W        W38898  32.394   4.444  13.852
77368W        W38899  31.494  14.730  12.904
77369W        W38900  15.282   9.675  10.634
77370W        W38901  22.071  26.104   2.832
77371W        W38902   8.856   5.272   4.173
77372W        W38903  12.662  24.690   4.769
77373W        W38904  29.969   9.879   5.178
77374W        W38905  31.091  14.741  11.954
77375W        W38906   2.847   7.861  14.932
77376W        W38907   1.279  15.195  10.891
77377W        W38908  43.403   8.681   1.270
77378W        W38909   1.819  40.389   2.352
77379W        W38910  22.736  21.120  13.942
77380W        W38911  43.335  29.157  11.026
77381W        W38912  32.611  25.989  10.506
77382W        W38913   3.273  19.715  10.593
77383W        W38914  42.525   4.413  14.438
77384W        W38915   8.739  44.472   1.225
77385W        W38916  13.145  41.334  10.495
77386W        W38917  37.488   4.854   3.647
77387W        W38918  35.388  28.145   0.448
77388W        W38919  14.788  27.187   2.804
77389W        W38920  43.864  17.726  14.775
77390W        W38921  33.414  34.101  10.622
77391W        W38922   9.731  29.104  14.908
77392W        W38923  12.822  30.435  11.499
77393W        W38924   7.807  30.516  10.959
77394W        W38925   6.821  18.642   4.642
77395W        W38926   7.788   7.171  14.968
77396W        W38927   9.351  32.459  14.337
77397W        W38928  43.403  44.486   1.235
77398W        W38929  24.718  15.183   1.809
77399W        W38930  30.655  11.171   4.272
77400W        W38931  17.222  18.741  13.970
77401W        W38932  31.091  36.434  11.469
77402W        W38933  33.477   7.873  11.521
77403W        W38934  31.601  25.982   0.310
77404W        W38935   1.798  29.426   0.756
77405W        W38936  28.668  20.573  12.952
77406W        W38937  44.839  28.114  14.481
77407W        W38938  31.458   4.370   0.886
77408W        W38939   0.759  20.591   2.248
77409W        W38940  37.563  20.108   4.289
77410W        W38941   9.676  42.791  11.450
77411W        W38942   3.769  42.983   5.309
77412W        W38943  22.155  33.914   3.861
77413W        W38944   7.759  17.173   3.258
77414W        W38945  26.165  42.825  11.985
77415W        W38946  32.965  35.516   0.744
77416W        W38947  44.274  10.859  14.428
77417W        W38948  36.001   9.320   2.867
77418W        W38949  22.596   3.807  13.983
77419W        W38950  12.739   4.268  10.463
77420W        W38951  43.305  43.017  12.913
77421W        W38952  20.620  36.421   4.261
77422W        W38953   0.493  29.653  13.844
77423W        W38954  36.931  25.513  10.436
77424W        W38955   1.370  35.925  10.941
77425W        W38956  28.435  10.374  11.462
77426W        W38957  24.975   5.845  14.978
77427W        W38958  29.965   5.213   3.760
77428W        W38959  21.088  35.990  10.501
77429W        W38960  40.849   4.375   1.760
77430W        W38961  34.609   4.801   4.820
77431W        W38962   2.827   1.828  14.375
77432W        W38963   5.754  44.780   2.710
77433W        W38964  41.511  38.505  11.450
77434W        W38965  24.069  15.304  11.044
77435W        W38966   0.363  33.430  14.381
77436W        W38967  39.440   9.260  10.560
77437W        W38968  43.778   3.939   1.359
77438W        W38969  13.700   5.811  13.537
77439W        W38970  23.174  28.557   4.212
77440W        W38971  18.589  14.160  12.842
77441W        W38972   8.288   3.803   3.791
77442W        W38973   4.758  30.964   0.814
77443W        W38974  30.557  14.334   5.123
77444W        W38975  30.453  28.543   2.889
77445W        W38976  15.177  14.703   2.829
77446W        W38977  43.505   2.410  10.590
77447W        W38978   7.754  17.686  13.982
77448W        W38979  37.494  14.194  14.368
77449W        W38980  18.213  23.533  13.845
77450W        W38981  18.642  24.484  10.942
77451W        W38982  44.407  28.506  14.330
77452W        W38983  42.372  23.062  14.898
77453W        W38984  12.799   7.174  14.001
77454W        W38985  15.236   7.688  14.767
77455W        W38986  29.934  33.932   4.663
77456W        W38987  20.183  17.691  13.803
77457W        W38988  34.429   8.857   3.675
77458W        W38989  30.092   7.217   4.303
77459W        W38990  18.273   6.808   0.251
77460W        W38991  27.611   8.210   2.743
77461W        W38992  27.041  20.069   1.749
77462W        W38993  14.256  44.275   4.723
77463W        W38994  18.123   6.773  14.316
77464W        W38995  33.526  33.408   5.287
77465W        W38996  37.416  38.519  13.807
77466W        W38997  13.667  34.914  14.492
77467W        W38998   0.964  35.574   4.257
77468W        W38999  10.316   8.760   4.793
77469W        W39000  20.545  19.182  14.486
77470W        W39001   8.364  39.544  14.937
77471W        W39002   0.922  19.239   1.826
77472W        W39003  39.007  31.048  14.998
77473W        W39004  29.924  11.718  14.956
77474W        W39005   3.404  29.637   1.341
77475W        W39006  27.626  25.967  12.865
77476W        W39007   4.351   7.211  10.526
77477W        W39008  43.401  29.963  11.046
77478W        W39009  43.512  36.464   3.658
77479W        W39010  27.535  18.764  12.021
77480W        W39011  20.206   3.426  14.776
77481W        W39012  20.040  36.448  14.837
77482W        W39013   9.205  21.021   1.793
77483W        W39014  38.012  30.589  11.377
77484W        W39015   2.240  41.882  12.027
77485W        W39016  25.168  24.109  11.604
77486W        W39017  25.599   8.712   1.896
77487W        W39018  16.684  19.747   2.665
77488W        W39019   4.895  23.651  14.845
77489W        W39020  20.077  34.485   4.719
77490W        W39021  35.953  21.257  11.510
77491W        W39022  26.513  23.558   0.319
77492W        W39023  37.545  42.303  14.371
77493W        W39024   3.256  22.214   1.919
77494W        W39025  44.962  18.056  13.366
77495W        W39026  25.684  13.628  10.585
77496W        W39027  27.146  44.942  10.540
77497W        W39028  14.691  29.147   0.897
77498W        W39029  10.752  14.764   0.434
77499W        W39030  20.681   9.744  14.940
77500W        W39031  12.795   6.187  13.050
77501W        W39032  31.576  40.979   3.372
77502W        W39033  26.044  20.252  14.282
77503W        W39034  28.977  31.943  13.375
77504W        W39035  17.742  16.218   2.308
77505W        W39036  16.275  21.694  10.495
77506W        W39037  22.016   0.866   2.318
77507W        W39038  30.535  26.037   2.310
77508W        W39039  28.656   6.894   5.634
77509W        W39040   7.754  12.136  11.548
77510W        W39041  34.949   7.798  11.999
77511W        W39042  31.959  29.540   4.610
77512W        W39043  17.605  25.519   5.802
77513W        W39044  26.504  16.074   1.304
77514W        W39045   2.385  32.971   3.151
77515W        W39046   9.850  21.158  12.951
77516W        W39047  40.986  22.129   2.710
77517W        W39048   0.428  18.656   2.802
77518W        W39049   6.259  24.522  14.441
77519W        W39050  35.582  40.980  13.896
77520W        W39051  29.996  27.979  10.895
77521W        W39052   9.318  36.841   2.672
77522W        W39053  25.589  43.013   1.747
77523W        W39054   7.696  13.327   1.261
77524W        W39055  18.790  43.312  13.526
77525W        W39056  12.119  23.560   0.335
77526W        W39057  15.613  15.150   3.310
77527W        W39058  12.759   8.182   2.763
77528W        W39059  30.955   5.216   2.683
77529W        W39060  31.020  42.840  14.032
77530W        W39061  21.209  40.522   3.692
77531W        W39062  14.670   7.792   0.832
77532W        W39063   2.416  33.925  13.024
77533W        W39064  44.788  12.144  10.449
77534W        W39065  12.726   3.900  13.019
77535W        W39066  38.436  10.211  13.910
77536W        W39067   6.214  10.846   2.825
77537W        W39068   0.988   8.891   3.387
77538W        W39069  21.606  27.045   2.717
77539W        W39070  18.294   7.336   2.828
77540W        W39071   2.845  29.442   4.248
77541W        W39072  33.415  30.907   0.310
77542W        W39073  15.736  37.528  11.929
77543W        W39074  24.484  28.998   0.884
77544W        W39075  40.489   8.169  14.882
77545W        W39076  29.085  17.749   2.745
77546W        W39077  36.987  10.294   0.743
77547W        W39078  27.601  39.469  14.862
77548W        W39079  14.614  27.964   4.651
77549W        W39080   9.807   1.460  11.602
77550W        W39081  24.994  44.815   3.304
77551W        W39082  36.511  11.132   1.409
77552W        W39083  40.985  37.009   1.221
77553W        W39084  26.149   0.248  12.532
77554W        W39085  14.330  29.090   2.771
77555W        W39086  38.873  37.905   4.237
77556W        W39087  29.972  30.637  13.976
77557W        W39088  28.589  41.042   4.146
77558W        W39089  38.422  23.174   4.723
77559W        W39090  14.738   9.756   4.753
77560W        W39091  15.810  44.827  12.023
77561W        W39092  21.585  38.419   2.699
77562W        W39093  16.285  23.224  12.456
77563W        W39094   4.407  17.586  13.996
77564W        W39095  43.424  26.573  11.928
77565W        W39096  26.576  16.692   2.812
77566W        W39097  36.006  25.476   3.327
77567W        W39098  32.086  29.991  13.328
77568W        W39099  36.092  39.344  13.489
77569W        W39100  35.519   4.746   1.746
77570W        W39101  33.562  23.726  14.454
77571W        W39102  23.161  42.304  12.513
77572W        W39103  38.330   0.340  13.358
77573W        W39104  44.345  32.127  11.928
77574W        W39105  23.675  38.897   2.737
77575W        W39106  35.948   0.948   2.850
77576W        W39107   4.230  17.173   2.793
77577W        W39108   5.299  19.672   0.262
77578W        W39109   2.234  24.115  14.011
77579W        W39110  12.718  38.949  11.043
77580W        W39111  29.024  17.590   4.811
77581W        W39112  33.035  15.134   1.404
77582W        W39113   7.883   5.843  13.360
77583W        W39114  22.511  15.323   1.877
77584W        W39115  33.534  32.463  14.021
77585W        W39116  37.947  39.948   3.152
77586W        W39117  17.235  15.745   0.271
77587W        W39118   4.353   1.432  12.026
77588W        W39119  33.625  25.986   3.310
77589W        W39120  39.397  14.320  10.905
77590W        W39121   1.286  42.876  14.944
77591W        W39122  32.947  27.510  12.875
77592W        W39123  15.199  44.878   4.126
77593W        W39124   1.303  42.981   4.698
77594W        W39125  17.694  39.545   2.401
77595W        W39126  14.095  37.477   5.292
77596W        W39127   8.777  27.598   4.114
77597W        W39128  26.610   3.810  13.983
77598W        W39129  37.534  36.583  13.804
77599W        W39130  25.661  37.402  10.995
77600W        W39131  10.745   2.368  14.915
77601W        W39132   8.171  35.959   4.734
77602W        W39133  16.705  40.475  14.441
77603W        W39134  26.561   4.340   4.249
77604W        W39135  35.004  35.445  14.301
77605W        W39136  20.243   7.794   2.884
77606W        W39137  44.838  33.986  11.527
77607W        W39138  35.585  43.941   4.207
77608W        W39139  24.670  18.594   1.376
77609W        W39140  24.120  19.257   4.766
77610W        W39141  42.472   8.796  10.572
77611W        W39142  10.804  28.541  13.487
77612W        W39143  29.166  10.798  13.802
77613W        W39144  41.816  40.455  11.411
77614W        W39145  41.960  20.148  13.001
77615W        W39146  42.500  39.401  12.400
77616W        W39147  13.207   0.879  13.827
77617W        W39148   4.437  31.114  14.012
77618W        W39149  13.776   4.298  14.336
77619W        W39150  19.687  16.121  11.037
77620W        W39151  19.655   0.758  11.068
77621W        W39152  16.129  37.964   4.284
77622W        W39153  27.612  23.697  11.895
77623W        W39154   6.760  13.833   4.788
77624W        W39155   0.365  20.545   0.770
77625W        W39156   6.357   4.391   2.863
77626W        W39157  13.302  24.117   4.786
77627W        W39158  15.205  22.545   4.354
77628W        W39159  27.981  30.132   2.662
77629W        W39160  36.401  42.287   2.377
77630W        W39161   3.768  30.139   1.780
77631W        W39162  22.996  43.855   4.648
77632W        W39163   3.941  36.099  14.490
77633W        W39164  26.062  44.791   2.745
77634W        W39165  33.418   9.654   4.764
77635W        W39166  25.197  26.970   1.715
77636W        W39167  16.179   5.367  12.887
77637W        W39168  14.614  27.115   4.837
77638W        W39169  42.360  22.042   2.324
77639W        W39170   1.924  28.944  11.918
77640W        W39171  38.904   5.253  12.445
77641W        W39172   5.373   5.335   4.305
77642W        W39173  39.906   5.916  10.569
77643W        W39174  39.967   7.797  12.012
77644W        W39175  26.473  24.197   2.378
77645W        W39176  22.722  31.535  14.971
77646W        W39177  33.041  34.457   1.433
77647W        W39178   9.240  13.758  10.498
77648W        W39179  10.370  16.721   2.665
77649W        W39180  25.684   9.310   0.818
77650W        W39181   8.737   5.410   1.734
77651W        W39182   4.383  17.734   2.778
77652W        W39183  39.904  35.006   4.249
77653W        W39184  34.118  23.673  12.972
77654W        W39185  22.030  27.177  12.408
77655W        W39186  42.423  44.417   2.726
77656W        W39187  14.697   0.249  12.428
77657W        W39188  42.337  29.016  11.986
77658W        W39189  11.189  14.829  10.626
77659W        W39190  10.642  10.735   1.869
77660W        W39191  33.028  38.939  11.474
77661W        W39192  40.830  30.514   1.264
77662W        W39193  13.771  30.047   2.389
77663W        W39194  41.365  41.431  10.522
77664W        W39195  41.038  26.652  14.998
77665W        W39196   6.369  38.546   4.640
77666W        W39197  16.311   2.874   1.433
77667W        W39198  38.442  22.059   2.721
77668W        W39199  38.374  11.772  14.395
77669W        W39200  29.108  20.172  14.022
77670W        W39201  25.157  17.151   5.309
77671W        W39202  18.696  37.039   0.447
77672W        W39203   7.852  29.162  11.384
77673W        W39204   4.788  30.090  12.454
77674W        W39205  35.532   1.885  11.477
77675W        W39206  34.987  35.102   0.748
77676W        W39207  28.435  12.660   3.194
77677W        W39208  17.693   6.765   4.675
77678W        W39209  34.000  12.744  14.955
77679W        W39210  32.942  33.021  11.050
77680W        W39211   5.809  20.629   3.784
77681W        W39212  34.896  14.814   0.954
77682W        W39213  19.601  19.640   0.822
77683W        W39214  33.971  23.156   2.342
77684W        W39215  21.611  39.336   0.452
77685W        W39216  31.089  11.826   0.927
77686W        W39217  39.320  22.075   2.191
77687W        W39218  19.678  22.118   3.301
77688W        W39219  27.516  25.016   0.821
77689W        W39220   6.856  28.635  12.926
77690W        W39221  39.366  35.965  10.540
77691W        W39222  18.072  38.424   2.781
77692W        W39223   3.885  31.914   4.154
77693W        W39224  12.151  27.179   0.286
77694W        W39225   5.917  24.522  13.057
77695W        W39226   9.872   4.790   4.836
77696W        W39227  16.634  38.907  12.482
77697W        W39228  24.512  42.421  13.928
77698W        W39229  39.482  24.133   2.344
77699W        W39230  39.431  37.567  14.847
77700W        W39231  23.635  13.181  14.372
77701W        W39232   1.329  34.945  13.799
77702W        W39233  10.212  26.570   1.880
77703W        W39234  28.600  17.646  13.326
77704W        W39235  42.373   0.347   4.747
77705W        W39236  12.719  31.626  14.011
77706W        W39237   3.714   7.190   4.296
77707W        W39238  25.701  34.415  11.458
77708W        W39239  43.894   3.273   4.295
77709W        W39240  16.085  44.376   1.742
77710W        W39241  28.957  31.055   2.301
77711W        W39242   1.449   6.692   1.371
77712W        W39243   8.272   0.980  14.015
77713W        W39244  43.922  22.112   0.375
77714W        W39245  34.023   0.259  11.090
77715W        W39246  30.418  37.449  11.555
77716W        W39247  29.577  20.559  11.406
77717W        W39248  44.464   5.422  12.993
77718W        W39249   7.309   7.776   4.738
77719W        W39250  43.897  40.423  10.957
77720W        W39251   9.267  36.522  14.919
77721W        W39252  39.999  16.265  12.950
77722W        W39253   8.842  40.420  11.893
77723W        W39254  26.655  14.226  14.771
77724W        W39255  43.471  25.005  11.609
77725W        W39256  23.989  38.928  14.760
77726W        W39257  35.579  13.633   1.425
77727W        W39258  15.284  15.325   4.605
77728W        W39259  37.853  21.164  13.509
77729W        W39260  38.345  23.195   3.245
77730W        W39261  26.622  40.354  14.319
77731W        W39262  16.076  38.338   4.259
77732W        W39263   2.313  35.038   0.920
77733W        W39264   7.377   3.849   4.713
77734W        W39265  19.180  14.779   2.783
77735W        W39266  41.374   5.771  11.552
77736W        W39267   1.399   4.922  14.297
77737W        W39268  35.900  32.458   3.822
77738W        W39269  33.502  39.412   3.304
77739W        W39270   7.228  27.539  12.343
77740W        W39271  41.919   0.776  10.592
77741W        W39272  29.593   6.189  14.955
77742W        W39273  33.924  19.101   4.655
77743W        W39274  17.228  36.422  11.072
77744W        W39275   8.383   5.308   3.321
77745W        W39276  30.052  43.771  14.974
77746W        W39277  10.324  36.562  10.131
77747W        W39278  41.995  19.550   2.352
77748W        W39279  14.700   5.306   2.257
77749W        W39280  26.018  31.093  11.899
77750W        W39281  39.373  28.505   0.927
77751W        W39282  17.256  20.558   2.386
77752W        W39283  15.324   0.933   0.443
77753W        W39284   2.455  40.353   0.882
77754W        W39285  18.594  34.912   4.795
77755W        W39286   0.284  30.042  11.879
77756W        W39287   2.775  25.534   2.741
77757W        W39288   7.373  29.433   2.411
77758W        W39289  20.126  27.615  11.469
77759W        W39290  30.456   5.692   3.796
77760W        W39291  34.572  24.620   4.742
77761W        W39292  35.978  39.374   4.266
77762W        W39293  31.487   1.810   4.708
77763W        W39294  36.519   6.788   0.454
77764W        W39295  28.437  13.337   2.232
77765W        W39296  39.972  12.245   2.795
77766W        W39297   3.329  42.976  14.322
77767W        W39298  10.360   6.781   2.386
77768W        W39299  29.134  18.629  10.537
77769W        W39300  27.980  13.767   4.641
77770W        W39301  20.755  24.122   1.832
77771W        W39302  17.702  31.046  11.410
77772W        W39303   4.899  25.993  12.463
77773W        W39304  22.704  30.110  13.856
77774W        W39305   2.832  36.090   1.214
77775W        W39306  38.336  23.525   0.864
77776W        W39307  17.265  16.583  13.342
77777W        W39308   7.376  14.328  13.831
77778W        W39309  17.248   4.752  13.878
77779W        W39310  17.707   3.937   3.279
77780W        W39311   0.884  13.148   9.959
77781W        W39312  11.629  16.073   2.292
77782W        W39313  13.280  28.455  11.955
77783W        W39314  34.022  19.581   1.307
77784W        W39315  22.516  19.244  11.401
77785W        W39316  35.022  43.996   1.843
77786W        W39317   8.259  31.999  13.880
77787W        W39318  17.719  13.810  11.859
77788W        W39319   5.707  29.061  14.815
77789W        W39320   2.422  30.601  14.476
77790W        W39321  14.719   7.317  14.487
77791W        W39322  36.538  29.013   0.797
77792W        W39323  16.219  34.951  11.472
77793W        W39324  17.204   6.403   2.257
77794W        W39325  10.798  19.577   2.279
77795W        W39326   3.445  26.699   0.450
77796W        W39327  10.243   3.760  13.825
77797W        W39328   3.917  22.727  10.598
77798W        W39329   3.225   6.381   0.389
77799W        W39330  17.242  31.469  12.915
77800W        W39331  30.433  26.208  14.501
77801W        W39332  34.471  44.469  10.438
77802W        W39333  36.860  33.098   3.295
77803W        W39334  17.600  19.776   1.450
77804W        W39335  22.171  16.097   3.162
77805W        W39336   6.373  44.902  11.414
77806W        W39337  40.493  12.745  14.882
77807W        W39338   1.424   2.772  13.340
77808W        W39339  27.036  23.017   2.795
77809W        W39340  31.538  43.483   1.337
77810W        W39341  21.582  19.272   4.702
77811W        W39342   2.892  24.680  10.556
77812W        W39343  34.373   2.469   1.283
77813W        W39344  11.313  20.188  10.970
77814W        W39345  29.159  17.764   4.285
77815W        W39346  36.436  29.581   4.599
77816W        W39347   3.788  24.121  12.911
77817W        W39348   4.207  24.067   0.342
77818W        W39349   4.339  21.560   0.269
77819W        W39350  13.793  22.659   0.900
77820W        W39351  38.516  23.663  10.546
77821W        W39352  17.156  33.036  12.510
77822W        W39353   2.380  29.643   3.635
77823W        W39354  24.130  34.562   2.410
77824W        W39355   9.216  30.151  14.439
77825W        W39356  32.962  29.080   4.144
77826W        W39357  20.740  40.032   2.776
77827W        W39358   4.942  27.010   3.643
77828W        W39359  42.895  44.372  13.027
77829W        W39360  10.163  29.610  14.911
77830W        W39361  34.056  12.338  14.426
77831W        W39362  34.480  33.944   0.947
77832W        W39363   4.253   8.345  13.368
77833W        W39364  43.411  35.420  10.508
77834W        W39365  32.534  41.498   3.733
77835W        W39366  25.000  15.222  10.573
77836W        W39367   3.716  34.056   2.828
77837W        W39368   4.350  42.014   3.735
77838W        W39369  13.272  13.678  11.861
77839W        W39370  30.608   8.715  12.922
77840W        W39371  41.993  41.429   5.175
77841W        W39372  21.522  27.011  14.498
77842W        W39373  26.113   4.345   0.961
77843W        W39374  14.795  37.833  10.481
77844W        W39375   2.843  23.517  13.442
77845W        W39376  34.524  21.218  13.821
77846W        W39377  21.108   6.830  12.405
77847W        W39378   6.182  31.150   0.766
77848W        W39379   1.807   1.915   2.880
77849W        W39380  14.166  44.277   0.781
77850W        W39381  38.944  36.483  12.507
77851W        W39382  22.683   3.434   2.854
77852W        W39383  24.988  18.176   3.377
77853W        W39384  27.678  43.427  12.364
77854W        W39385  40.371   8.872   3.656
77855W        W39386  23.035  33.091   2.890
77856W        W39387  28.046  33.536   2.823
77857W        W39388   4.406   3.238   1.249
77858W        W39389  28.592  36.079  12.949
77859W        W39390  44.278  44.955   2.801
77860W        W39391  16.671  10.654   2.336
77861W        W39392  24.119  36.059   4.775
77862W        W39393   8.895  30.418  11.089
77863W        W39394   2.296  29.502   3.316
77864W        W39395  17.081  24.157   2.783
77865W        W39396  21.537  33.975   2.762
77866W        W39397  38.568  17.144   2.383
77867W        W39398   0.981  15.195   4.131
77868W        W39399  40.055  11.813  13.970
77869W        W39400  27.662  42.850  11.927
77870W        W39401  30.012  31.118  14.830
77871W        W39402  36.589  38.959   3.650
77872W        W39403  44.968  24.209   3.335
77873W        W39404  34.386  30.578  10.526
77874W        W39405  20.246  34.866  14.904
77875W        W39406  44.421   1.308  12.078
77876W        W39407  13.186  15.661  12.903
77877W        W39408  26.682  24.219   2.679
77878W        W39409  36.534  43.340  13.505
77879W        W39410  43.341  27.659  11.589
77880W        W39411  30.415  10.696   1.771
77881W        W39412  34.489   5.256   3.168
77882W        W39413  38.877   0.286   3.354
77883W        W39414  44.842  29.592   0.449
77884W        W39415  14.787  29.990   2.307
77885W        W39416  27.115   1.268   1.434
77886W        W39417  12.323  43.834  12.415
77887W        W39418   3.933  39.992   4.225
77888W        W39419  36.060   0.401  10.451
77889W        W39420  18.247  25.497   0.776
77890W        W39421  41.864  11.645  10.433
77891W        W39422  40.470  27.974  14.874
77892W        W39423   0.987   8.772   2.386
77893W        W39424  32.449   6.767  11.574
77894W        W39425  27.607  20.584   3.656
77895W        W39426   4.393  38.962  14.497
77896W        W39427  33.588  27.028   3.194
77897W        W39428   2.360  42.519   4.610
77898W        W39429  27.141  44.299  14.398
77899W        W39430  23.092  39.056  14.368
77900W        W39431  32.479  16.303   0.764
77901W        W39432   3.893   2.253  12.056
77902W        W39433  20.250  33.485   0.350
77903W        W39434  28.093   3.758   1.721
77904W        W39435  26.128  42.522  13.324
77905W        W39436  39.536  33.920   2.381
77906W        W39437   2.813  17.301  12.844
77907W        W39438  39.848  21.513  13.908
77908W        W39439  21.084  26.201   4.694
77909W        W39440   6.190  17.118   1.792
77910W        W39441   9.158   7.799   4.792
77911W        W39442  40.977  28.107   0.907
77912W        W39443  35.038  36.047   5.268
77913W        W39444  32.412   6.376  14.797
77914W        W39445  33.422   4.345   3.797
77915W        W39446  35.452  28.934  11.558
77916W        W39447  18.151  19.576  14.903
77917W        W39448  20.082  13.286  12.441
77918W        W39449  33.112  42.959   1.706
77919W        W39450   5.880  42.901  11.595
77920W        W39451  42.349  40.841   2.300
77921W        W39452   8.786  11.747  11.377
77922W        W39453   2.947   6.267  10.430
77923W        W39454  41.369  24.114  14.331
77924W        W39455  35.009  31.546   1.697
77925W        W39456  13.689  10.350   0.771
77926W        W39457  31.464   6.769   2.250
77927W        W39458  31.497  36.004  10.962
77928W        W39459  36.933  28.438  10.505
77929W        W39460  11.764  14.589   1.756
77930W        W39461  28.073   3.837  13.877
77931W        W39462  25.486  18.603  14.988
77932W        W39463  21.562  43.879   0.908
77933W        W39464  24.536  34.427   3.670
77934W        W39465   4.718  15.199   1.934
77935W        W39466  37.979  39.406  12.544
77936W        W39467   6.258   0.376  11.079
77937W        W39468  22.606  21.115  12.831
77938W        W39469   4.710  42.324   0.291
77939W        W39470   2.270  26.092   3.796
77940W        W39471  38.440  43.991  12.995
77941W        W39472   5.396  18.258  10.985
77942W        W39473  30.911  19.729  10.082
77943W        W39474  29.457   8.294   2.295
77944W        W39475  39.388  39.460   4.284
77945W        W39476  39.843   8.807   2.807
77946W        W39477  28.164  32.072  13.016
77947W        W39478  17.693  29.053  11.115
77948W        W39479   5.797  12.836  13.865
77949W        W39480  41.510   5.701  14.296
77950W        W39481  33.004  18.195  12.363
77951W        W39482  35.933   2.775  13.004
77952W        W39483  43.886   8.240  14.924
77953W        W39484  11.296  42.792   3.180
77954W        W39485   5.762   9.204   0.377
77955W        W39486  19.597   2.759   1.874
77956W        W39487  15.247  24.215   3.836
77957W        W39488  35.406   3.934  12.951
77958W        W39489   9.848  42.354   2.735
77959W        W39490  37.384  25.587   4.750
77960W        W39491  44.960  42.355   3.180
77961W        W39492  27.100  12.192  11.463
77962W        W39493   6.403   9.698  12.890
77963W        W39494   9.673  20.558   1.757
77964W        W39495  30.151  27.109   1.308
77965W        W39496  15.124  19.209   4.261
77966W        W39497  39.485  30.599  14.917
77967W        W39498  22.049  16.667   2.305
77968W        W39499  15.668  12.196   3.305
77969W        W39500  14.733  20.211  13.055
77970W        W39501  35.866  41.386   1.272
77971W        W39502   5.333  30.546   1.751
77972W        W39503  42.849  28.114   0.344
77973W        W39504  32.960  26.608  11.952
77974W        W39505  10.210  37.411   2.226
77975W        W39506  18.091  42.910  13.906
77976W        W39507  30.525   8.327   3.350
77977W        W39508   6.213  40.400  14.435
77978W        W39509  40.797  34.392   3.297
77979W        W39510   9.788  11.761  10.507
77980W        W39511  39.476  29.501   3.840
77981W        W39512   9.811  19.722  11.125
77982W        W39513  27.637  41.325   1.428
77983W        W39514   0.811  33.581   5.148
77984W        W39515  33.384   5.414   3.662
77985W        W39516  44.999  38.437   2.776
77986W        W39517   1.448  19.613   0.831
77987W        W39518   2.355  18.141  13.990
77988W        W39519  18.600   3.398  13.053
77989W        W39520  27.981  43.810   1.329
77990W        W39521  32.064   5.903   4.610
77991W        W39522  29.099  43.929  11.456
77992W        W39523  22.566  14.189   4.621
77993W        W39524  43.415  35.388   0.460
77994W        W39525  18.600  36.475   4.261
77995W        W39526  23.668  41.039  13.385
77996W        W39527   3.809  14.684  11.569
77997W        W39528  31.935  32.097   1.360
77998W        W39529   7.680  24.165  12.868
77999W        W39530  26.983  24.708  10.625
78000W        W39531  28.071  20.053   1.283
78001W        W39532  33.565  28.072   1.786
78002W        W39533  31.973  43.850   3.678
78003W        W39534  44.806  14.618  10.955
78004W        W39535  38.551   6.258   4.825
78005W        W39536  42.392  18.185  12.852
78006W        W39537  26.599  34.446  13.377
78007W        W39538   0.912  16.738   2.776
78008W        W39539  37.975  18.600  13.010
78009W        W39540  26.026  20.708  14.875
78010W        W39541  23.214   6.876  12.579
78011W        W39542  35.590   3.376   0.355
78012W        W39543   0.768  36.574   2.330
78013W        W39544  23.128  13.286  14.784
78014W        W39545  29.464   7.681   9.964
78015W        W39546  17.750  39.931   3.262
78016W        W39547  31.030  26.485   2.239
78017W        W39548  42.851  34.020   4.762
78018W        W39549  24.203  26.485  10.038
78019W        W39550   8.261  16.293   1.785
78020W        W39551   1.957   0.267  14.480
78021W        W39552  31.486  24.035   4.716
78022W        W39553  32.131  16.296   3.728
78023W        W39554  42.392  16.767  11.612
78024W        W39555  43.001  38.917  12.992
78025W        W39556   4.404   9.672   2.819
78026W        W39557  31.072   0.285   1.766
78027W        W39558  16.784  39.999  13.844
78028W        W39559  40.800  12.801  13.998
78029W        W39560   1.910   7.373  10.570
78030W        W39561  33.918  14.308   0.816
78031W        W39562   8.655  32.606   1.344
78032W        W39563  24.001  42.856  13.970
78033W        W39564  31.125  44.486  13.981
78034W        W39565  43.961  41.994   0.262
78035W        W39566  14.786  38.861  13.805
78036W        W39567   3.903  36.554   2.846
78037W        W39568   8.699  13.351   2.750
78038W        W39569  11.323   2.773   1.316
78039W        W39570   0.320  14.212  11.542
78040W        W39571  26.181  34.991  10.545
78041W        W39572  21.560  30.556   0.351
78042W        W39573  13.219  10.831  14.773
78043W        W39574  31.094  34.870   0.885
78044W        W39575  44.260  23.600  13.539
78045W        W39576  31.515  25.059   0.244
78046W        W39577  27.188  31.422  13.379
78047W        W39578  35.405  11.678  12.040
78048W        W39579  28.939  39.480  10.570
78049W        W39580   1.395   4.812   1.767
78050W        W39581  26.964  16.145   0.261
78051W        W39582  32.432  33.474  12.418
78052W        W39583  14.278  31.557  10.982
78053W        W39584   1.249   0.394  11.063
78054W        W39585   2.256  26.193   0.847
78055W        W39586  22.694  36.484   2.823
78056W        W39587   9.212  36.372   0.852
78057W        W39588  21.092  22.700  13.054
78058W        W39589  37.514  10.338  12.825
78059W        W39590  38.900  38.075  11.428
78060W        W39591  15.593  10.254   1.417
78061W        W39592  43.835  36.016  11.888
78062W        W39593  15.742  17.082   2.813
78063W        W39594  11.623  29.507  11.458
78064W        W39595  37.062  30.096   2.808
78065W        W39596  29.119   1.868   2.415
78066W        W39597  15.659  43.799  12.980
78067W        W39598   6.379  28.055  13.813
78068W        W39599  19.240  32.028   3.279
78069W        W39600  30.592   9.239   0.912
78070W        W39601   9.784  31.925  12.056
78071W        W39602  36.490  27.448   1.755
78072W        W39603  42.476  30.933  14.021
78073W        W39604  44.989  25.219   0.832
78074W        W39605  12.241  28.024   3.802
78075W        W39606  36.541  20.165   2.227
78076W        W39607  36.503  32.085  11.469
78077W        W39608  21.058  16.610  10.408
78078W        W39609   5.432  14.117  11.122
78079W        W39610  10.216  31.045   3.752
78080W        W39611  21.035  40.395   2.238
78081W        W39612  19.590   6.861  11.030
78082W        W39613  17.563  10.666  13.416
78083W        W39614  16.614   4.341  12.464
78084W        W39615   7.226  16.177  12.967
78085W        W39616  19.605  15.716  10.959
78086W        W39617  19.149  35.574   0.771
78087W        W39618  25.478   0.743   0.934
78088W        W39619   5.290  23.124  13.983
78089W        W39620  38.389   9.876   1.287
78090W        W39621  22.129  41.523   3.849
78091W        W39622  21.087  36.409   3.630
78092W        W39623  34.073  11.727   2.257
78093W        W39624   2.959  40.914  11.871
78094W        W39625  10.823  16.688  11.501
78095W        W39626   8.897  20.763  11.581
78096W        W39627  20.078  22.570  12.506
78097W        W39628   0.937  38.848   4.165
78098W        W39629   1.355  19.765   1.400
78099W        W39630  19.715  44.848   0.853
78100W        W39631  19.081  35.860  14.327
78101W        W39632  28.438  40.529   4.170
78102W        W39633  20.077   8.668   2.238
78103W        W39634  43.898  37.901  10.458
78104W        W39635  38.947  28.561  12.855
78105W        W39636   1.795   1.767  12.361
78106W        W39637  11.673  34.387  10.996
78107W        W39638  30.504  27.530   0.339
78108W        W39639  44.497  14.611  13.530
78109W        W39640  19.564  17.122   2.296
78110W        W39641  44.350  34.013   1.355
78111W        W39642   3.719  12.783  10.912
78112W        W39643  31.466  30.074  14.371
78113W        W39644   1.452  26.030  10.563
78114W        W39645  21.731   6.272  11.442
78115W        W39646  21.185  14.727   0.446
78116W        W39647  16.786   5.228   3.678
78117W        W39648  13.245  30.431   0.788
78118W        W39649   3.807   7.819   1.360
78119W        W39650   4.736  40.307   2.417
78120W        W39651  26.507  15.124   4.702
78121W        W39652  12.275  13.707   4.676
78122W        W39653  34.043  42.993  12.053
78123W        W39654  16.711   0.837   1.352
78124W        W39655   2.442  19.689   3.195
78125W        W39656   7.242  44.335  14.834
78126W        W39657   6.902  22.044  10.949
78127W        W39658  32.466  44.823   4.114
78128W        W39659  42.798   1.468   1.788
78129W        W39660   4.936  21.135   5.263
78130W        W39661  18.274  16.215  11.866
78131W        W39662  34.561   3.717  14.333
78132W        W39663  12.754   2.255   4.619
78133W        W39664  37.582  37.904   0.929
78134W        W39665   5.887   7.733   2.413
78135W        W39666  42.440  37.882   2.791
78136W        W39667  41.395  19.123   2.877
78137W        W39668  21.072  42.308   3.346
78138W        W39669   6.894  15.313  14.481
78139W        W39670  29.010  18.143   4.761
78140W        W39671   2.720   3.785  13.521
78141W        W39672  32.981  23.646  13.025
78142W        W39673  36.881   9.149  14.450
78143W        W39674  27.631  23.056  12.080
78144W        W39675  38.011  44.972  12.970
78145W        W39676   6.317   8.898   3.808
78146W        W39677  13.788   2.865  12.027
78147W        W39678  39.030  31.614   2.305
78148W        W39679  27.957  28.181  12.456
78149W        W39680   3.805  36.502  14.818
78150W        W39681  31.925  39.856   0.749
78151W        W39682  39.406   0.911  13.058
78152W        W39683  19.684  39.482  12.855
78153W        W39684  38.346  40.475  12.474
78154W        W39685  29.122   7.353  14.786
78155W        W39686   3.383  35.456  13.423
78156W        W39687  33.404  31.910   4.812
78157W        W39688   0.473   7.808  11.529
78158W        W39689  41.422  28.136  11.520
78159W        W39690   5.754  28.958  13.840
78160W        W39691   5.323  11.316   3.862
78161W        W39692  33.894   8.658  12.508
78162W        W39693  14.320  33.098  12.498
78163W        W39694  12.163   8.697  13.341
78164W        W39695   7.193   0.297  11.903
78165W        W39696   6.325  35.013   2.378
78166W        W39697  18.112  15.697   3.855
78167W        W39698  30.572  44.283  11.907
78168W        W39699  32.625   1.957   9.920
78169W        W39700  33.015   9.882   3.298
78170W        W39701  19.151  22.043  10.527
78171W        W39702  15.770  33.561  13.903
78172W        W39703   3.229  20.065   5.298
78173W        W39704  10.761  24.036  14.901
78174W        W39705  27.125  33.078  10.560
78175W        W39706   9.652  38.064  12.459
78176W        W39707  29.609  33.533  11.886
78177W        W39708   2.795   4.898   3.719
78178W        W39709  28.534  15.265  11.602
78179W        W39710  11.820  10.170  11.857
78180W        W39711  22.243  36.074  12.835
78181W        W39712  36.921  18.098  11.872
78182W        W39713  26.068  40.893   0.397
78183W        W39714  30.479  11.677   4.609
78184W        W39715   5.392  26.657   0.396
78185W        W39716  16.265  16.228  14.430
78186W        W39717   9.729  11.190  10.998
78187W        W39718   3.402   1.299  10.427
78188W        W39719  33.978   1.741   3.353
78189W        W39720  23.169  12.202  13.388
78190W        W39721  38.997  42.992   5.258
78191W        W39722  10.661  14.648  14.947
78192W        W39723  16.221  36.958   1.831
78193W        W39724  39.039   6.807   2.737
78194W        W39725   9.289  32.510  12.357
78195W        W39726  41.360   8.900   1.910
78196W        W39727   9.334  40.406  14.882
78197W        W39728  24.099  25.979   4.718
78198W        W39729  35.429  10.242   0.916
78199W        W39730  32.391  29.048   3.810
78200W        W39731  34.533  28.059   0.353
78201W        W39732   3.848  34.100   4.607
78202W        W39733  43.359  23.532   1.342
78203W        W39734  32.532   1.786   3.200
78204W        W39735  14.797  24.044   4.313
78205W        W39736  18.051  11.681   4.833
78206W        W39737  42.012  40.359   0.750
78207W        W39738   5.304  36.488  14.991
78208W        W39739  32.997   9.149  14.856
78209W        W39740  34.982   8.846   4.145
78210W        W39741  22.235  31.962  13.942
78211W        W39742   6.223  33.895  10.622
78212W        W39743  21.245  40.520   1.725
78213W        W39744  12.674  21.247   0.800
78214W        W39745  20.264  25.159  14.845
78215W        W39746   3.851  44.317   3.867
78216W        W39747  18.566  20.047  13.029
78217W        W39748  12.798  16.588   2.869
78218W        W39749   9.267   8.871  12.419
78219W        W39750  39.417  16.596  13.944
78220W        W39751  44.857  26.566  10.543
78221W        W39752   9.827  26.070  14.422
78222W        W39753   7.386  27.043  13.977
78223W        W39754   9.672  41.922  12.556
78224W        W39755  19.576  40.452  14.891
78225W        W39756  19.197  31.951   1.753
78226W        W39757  23.135  23.549   0.932
78227W        W39758  36.896  37.843   1.890
78228W        W39759   9.843  44.944   1.747
78229W        W39760  25.500  33.495   3.288
78230W        W39761  32.553   3.745   0.346
78231W        W39762  32.631  21.094   1.896
78232W        W39763   7.193  33.994   0.478
78233W        W39764  21.716  11.357  14.337
78234W        W39765  23.086  41.044   1.429
78235W        W39766  43.832  22.141  13.823
78236W        W39767  32.451  16.643  14.027
78237W        W39768  31.502  36.960   3.295
78238W        W39769  42.352  32.057   3.263
78239W        W39770  16.785  37.508   3.373
78240W        W39771  41.535   1.747  13.480
78241W        W39772  12.754   0.260  10.453
78242W        W39773  14.749   4.321   4.162
78243W        W39774  41.003  40.431   1.922
78244W        W39775  41.450  19.086   1.729
78245W        W39776   1.852  36.399   3.717
78246W        W39777  20.734  19.563  12.376
78247W        W39778   7.275  25.629  13.519
78248W        W39779  33.892  13.689  12.401
78249W        W39780  44.919  11.691   2.684
78250W        W39781   4.931  24.176   0.468
78251W        W39782  19.731   9.175  11.859
78252W        W39783   2.410  22.054   2.878
78253W        W39784  11.372  28.084   4.306
78254W        W39785   9.351  11.361   0.850
78255W        W39786   0.495  20.100  10.939
78256W        W39787  25.531   8.230   3.840
78257W        W39788  34.426  31.979   3.146
78258W        W39789  11.780   5.915  13.337
78259W        W39790  35.431  21.211   4.784
78260W        W39791   3.338   7.287  13.505
78261W        W39792  40.992  10.717   4.807
78262W        W39793  41.936  24.677  10.543
78263W        W39794  43.285   3.945  11.926
78264W        W39795  20.067   6.408  10.491
78265W        W39796   9.861   5.754  10.979
78266W        W39797  37.375  36.037  13.317
78267W        W39798  11.852  28.940  11.382
78268W        W39799  31.963   2.963  14.829
78269W        W39800   5.223  42.287   1.389
78270W        W39801   9.758  19.696   3.344
78271W        W39802  20.543   1.893   0.899
78272W        W39803  31.460  29.485  11.506
78273W        W39804  40.358  24.138   1.416
78274W        W39805  31.470   7.256   4.608
78275W        W39806  29.479  38.982  14.802
78276W        W39807  33.529  20.697   0.756
78277W        W39808  32.048  24.634   3.831
78278W        W39809   3.798   2.835  13.958
78279W        W39810  15.304  14.734  12.064
78280W        W39811  36.569   7.845   2.259
78281W        W39812  38.365  14.272  12.074
78282W        W39813  40.895   3.938  10.435
78283W        W39814  39.994  43.924  13.418
78284W        W39815   2.357  18.622  12.373
78285W        W39816  25.208   0.383   3.243
78286W        W39817  31.530   8.695   5.714
78287W        W39818   5.328  36.043   0.427
78288W        W39819  10.143  44.333   1.396
78289W        W39820   6.251  30.437  13.342
78290W        W39821  38.952   2.339  14.030
78291W        W39822   2.297  32.958  11.067
78292W        W39823  10.816  37.539   3.673
78293W        W39824   0.801  19.580   4.653
78294W        W39825   5.824   9.673  11.038
78295W        W39826  12.305  27.531  10.493
78296W        W39827  29.622  12.727  13.880
78297W        W39828  26.525  31.964   0.728
78298W        W39829  33.433  37.898   1.730
78299W        W39830   1.471  10.315   1.777
78300W        W39831  10.176  15.237   3.337
78301W        W39832   2.454  36.861   4.306
78302W        W39833  24.998  18.768  12.070
78303W        W39834  16.783  33.560  10.561
78304W        W39835  10.651  34.442   4.695
78305W        W39836  11.147  41.305  13.983
78306W        W39837  22.042  24.122   0.782
78307W        W39838   7.303  29.601   2.843
78308W        W39839  11.264  10.836   0.894
78309W        W39840  21.717  12.169  11.965
78310W        W39841  26.176  32.593  12.437
78311W        W39842  24.524   1.978  14.422
78312W        W39843  14.326   4.249  14.870
78313W        W39844  21.613  20.643   4.162
78314W        W39845  10.824   1.779   0.293
78315W        W39846  16.148   1.810  13.903
78316W        W39847   1.833  38.896   1.395
78317W        W39848  12.286  12.167   3.343
78318W        W39849  33.608  18.205   2.742
78319W        W39850  28.673   2.305  12.446
78320W        W39851  37.406  44.318   1.801
78321W        W39852  12.740   9.377  13.020
78322W        W39853   3.222  39.524   4.340
78323W        W39854  23.550  22.604  12.927
78324W        W39855  35.437  28.643  13.323
78325W        W39856  12.282  37.448   1.911
78326W        W39857  44.918  43.323   3.359
78327W        W39858  16.279  37.014  11.956
78328W        W39859  41.456   0.830  12.546
78329W        W39860   2.938  22.567   4.614
78330W        W39861  21.179  23.084   4.604
78331W        W39862  21.145  41.970   1.708
78332W        W39863  44.005  36.877   4.820
78333W        W39864  14.667  19.554   1.439
78334W        W39865  14.675  34.486  10.630
78335W        W39866  39.534  15.214  10.543
78336W        W39867  27.169  34.504  13.880
78337W        W39868  36.432  14.641  11.413
78338W        W39869  37.983  11.214  14.425
78339W        W39870  14.821  16.138   1.703
78340W        W39871   6.873  19.103  11.548
78341W        W39872  18.142  41.896  11.450
78342W        W39873  19.119  38.912  11.941
78343W        W39874  27.193  31.579  10.914
78344W        W39875  41.421  41.819   2.869
78345W        W39876   7.677  27.028   4.165
78346W        W39877  22.021  42.437  10.135
78347W        W39878  43.375   2.898   4.209
78348W        W39879  31.929   9.361   3.679
78349W        W39880  37.558  13.332   1.282
78350W        W39881  41.933  22.226  10.564
78351W        W39882  14.301  41.397   9.943
78352W        W39883  41.941  12.221   3.693
78353W        W39884  41.513  44.911   4.630
78354W        W39885  12.768  33.968  11.121
78355W        W39886  37.443  33.569  11.437
78356W        W39887   2.776  44.937  11.471
78357W        W39888  13.603  21.566  13.063
78358W        W39889  26.999  28.672  10.028
78359W        W39890  39.411   0.949  14.032
78360W        W39891   2.842  10.320   2.360
78361W        W39892  38.993   0.882   4.811
78362W        W39893  27.090  36.545  13.441
78363W        W39894  18.288  26.695  12.006
78364W        W39895  43.326   1.256   0.270
78365W        W39896  38.564  37.425   0.815
78366W        W39897  12.685   6.902  10.906
78367W        W39898   9.161  26.567   1.763
78368W        W39899  36.358  11.722   4.273
78369W        W39900  39.065  18.571  10.644
78370W        W39901  30.492  37.359  14.846
78371W        W39902  44.004   1.326  10.574
78372W        W39903  14.806   5.224   0.912
78373W        W39904  43.854  33.009   3.316
78374W        W39905  34.450   9.377  14.807
78375W        W39906  37.074  25.632   1.412
78376W        W39907  42.501   2.927   2.262
78377W        W39908  38.911  19.580   2.682
78378W        W39909   7.405  40.820   1.733
78379W        W39910  40.339  23.602   0.444
78380W        W39911  16.149   8.315  12.941
78381W        W39912   5.734   3.298   2.253
78382W        W39913  15.122  23.036  11.059
78383W        W39914   4.749  32.961   1.698
78384W        W39915  11.208  22.635   2.813
78385W        W39916   9.368  34.515  14.356
78386W        W39917  23.682  17.565   4.208
78387W        W39918  37.562  28.664   1.802
78388W        W39919  44.435  42.342   3.752
78389W        W39920   2.930  42.417  11.415
78390W        W39921  18.579  22.522   2.710
78391W        W39922  18.137  36.093  13.891
78392W        W39923  32.440   6.253   0.471
78393W        W39924  43.392  28.634   2.792
78394W        W39925  15.644  21.173   2.776
78395W        W39926  32.023  12.829   0.854
78396W        W39927  19.094  16.248   2.291
78397W        W39928  38.453  13.721   3.349
78398W        W39929  16.807  31.963  12.855
78399W        W39930  10.845   9.687  13.496
78400W        W39931  10.750  34.899  11.445
78401W        W39932  19.613  41.805  12.074
78402W        W39933  30.528  27.510   2.369
78403W        W39934  31.547  15.714   2.285
78404W        W39935  34.941   5.840   0.871
78405W        W39936   6.281  10.337  11.930
78406W        W39937  11.200  34.458  13.450
78407W        W39938  12.320  11.215  12.872
78408W        W39939  21.716  38.481   1.863
78409W        W39940  27.040  41.522  11.893
78410W        W39941  37.447  40.399  12.572
78411W        W39942  10.194  38.911   9.934
78412W        W39943  26.640  43.975   1.864
78413W        W39944  16.662  20.679  10.946
78414W        W39945  32.431  42.524   0.871
78415W        W39946   4.814   5.731  10.508
78416W        W39947   9.712  30.428   3.737
78417W        W39948  22.997   3.951  10.970
78418W        W39949  16.603  40.998  10.422
78419W        W39950  32.398  27.612   4.610
78420W        W39951  14.712  40.820   0.405
78421W        W39952  23.192  19.191  13.029
78422W        W39953  23.598   0.803  14.892
78423W        W39954  36.893   0.354   2.375
78424W        W39955  14.619  26.068  10.139
78425W        W39956  42.870  38.072   2.401
78426W        W39957  38.365  39.523   9.663
78427W        W39958  40.547   3.400   0.472
78428W        W39959  21.621  24.547  14.822
78429W        W39960  27.139  19.633   2.234
78430W        W39961   3.282  34.016   4.641
78431W        W39962  37.916  24.034  12.421
78432W        W39963  41.920   8.266  12.018
78433W        W39964   6.889  17.304   2.390
78434W        W39965  39.489  18.092   4.632
78435W        W39966  38.046   1.358   0.735
78436W        W39967  20.260  32.914  13.039
78437W        W39968  27.051  20.659   2.742
78438W        W39969  17.262  32.482  11.558
78439W        W39970   6.680   7.830   1.903
78440W        W39971  15.795   5.718   2.738
78441W        W39972  27.450  27.965   0.826
78442W        W39973  22.033  35.032  14.019
78443W        W39974  36.454  11.641  12.898
78444W        W39975  25.682  41.938   3.233
78445W        W39976   6.891  39.369   0.400
78446W        W39977  25.586  32.009   2.352
78447W        W39978  19.236  24.154   1.832
78448W        W39979   9.281  33.587   4.768
78449W        W39980  31.916   5.439  13.020
78450W        W39981  12.233  13.348  13.437
78451W        W39982  22.631   6.268   0.961
78452W        W39983  42.892  41.355   4.645
78453W        W39984  39.860  17.085   4.234
78454W        W39985   2.416  44.501   1.819
78455W        W39986  27.451  23.025  13.805
78456W        W39987  16.623  15.619  14.806
78457W        W39988   2.822   2.920  12.036
78458W        W39989   3.421  36.029   2.718
78459W        W39990  44.788  23.999  12.827
78460W        W39991  17.169  44.915  11.604
78461W        W39992   0.750   2.321  13.497
78462W        W39993   4.747   2.302   2.228
78463W        W39994  40.478  31.571  14.291
78464W        W39995  12.362  27.562   3.217
78465W        W39996   4.304  25.045  13.979
78466W        W39997  24.004   4.358  12.013
78467W        W39998  15.618  39.868  12.040
78468W        W39999   2.240  37.965  14.896
78469W        W40000  29.927  22.559   0.848
78470W        W40001  14.716   7.241   1.414
78471W        W40002   8.252   2.929   0.434
78472W        W40003  14.098  29.518  13.424
78473W        W40004   7.712  39.377   2.722
78474W        W40005  37.028  40.347   4.250
78475W        W40006  32.100  30.440   3.754
78476W        W40007  37.434  27.192   1.766
78477W        W40008  43.471  12.243  14.021
78478W        W40009  28.121   1.920  11.538
78479W        W40010   7.890  28.523   4.180
78480W        W40011  37.882   5.907   4.805
78481W        W40012  39.855  15.760  14.872
78482W        W40013  17.287   8.224   3.387
78483W        W40014  18.203  22.553   3.296
78484W        W40015  41.378  37.084   2.784
78485W        W40016   8.173  34.442   1.386
78486W        W40017  17.273  14.160   2.373
78487W        W40018  20.576  15.616  12.359
78488W        W40019  21.198  29.595   5.240
78489W        W40020  27.652  21.047  13.397
78490W        W40021  38.428  26.533   1.224
78491W        W40022  22.561  11.172   2.419
78492W        W40023  38.864  40.426   3.309
78493W        W40024   6.873  43.430   4.180
78494W        W40025  32.993  23.673  11.907
78495W        W40026  16.729   4.812  11.911
78496W        W40027  35.601  38.835   0.400
78497W        W40028   9.649   3.711   1.877
78498W        W40029  11.723  38.964   3.362
78499W        W40030  22.742  17.699  13.889
78500W        W40031  13.812   9.366   0.458
78501W        W40032   3.285  18.755   1.826
78502W        W40033  22.704  29.071   0.787
78503W        W40034  42.341  25.120   0.816
78504W        W40035  43.278  36.383  14.285
78505W        W40036  44.797   4.205   1.336
78506W        W40037  30.040  44.494  13.334
78507W        W40038  24.127  13.301   1.316
78508W        W40039  43.351  11.219   4.190
78509W        W40040  35.986   5.847  10.483
78510W        W40041  25.219  18.779   5.294
78511W        W40042  38.876  20.084  11.402
78512W        W40043  16.712   7.235   1.729
78513W        W40044  36.567  12.130   2.845
78514W        W40045  31.897  29.052   4.783
78515W        W40046   2.440  17.643   3.824
78516W        W40047  12.787  24.672   2.205
78517W        W40048  16.635   2.914   2.286
78518W        W40049   7.675  30.616   4.325
78519W        W40050  39.458  15.275  13.393
78520W        W40051  11.674  44.907   3.264
78521W        W40052   3.445  35.364  11.941
78522W        W40053  13.715  11.310  14.886
78523W        W40054  22.512   2.465   3.691
78524W        W40055  32.002   2.808   3.652
78525W        W40056  13.234   2.322   1.386
78526W        W40057  16.125  14.693   4.695
78527W        W40058   6.184   3.233   5.118
78528W        W40059  38.490   9.378  13.803
78529W        W40060  10.221  36.068   1.351
78530W        W40061  12.325   4.751   0.298
78531W        W40062   9.806  35.476   3.210
78532W        W40063  14.630   4.272   0.891
78533W        W40064  34.896  44.285  13.918
78534W        W40065  14.682  32.495   4.747
78535W        W40066  17.169  38.553  14.477
78536W        W40067  26.659  40.425   4.354
78537W        W40068  40.019  39.831  13.918
78538W        W40069  40.370  44.486   2.319
78539W        W40070  18.220  11.695   2.413
78540W        W40071  41.412  38.335  13.944
78541W        W40072  34.944  10.877  11.481
78542W        W40073  39.473  38.056   0.371
78543W        W40074  33.938   7.417   3.286
78544W        W40075  26.650   9.188  13.903
78545W        W40076  24.101  22.642  10.485
78546W        W40077  21.747  44.432   4.299
78547W        W40078  12.274   2.750  11.482
78548W        W40079  20.667  35.533  11.051
78549W        W40080   0.939   2.448   3.188
78550W        W40081   9.647   1.791  13.852
78551W        W40082  29.539  44.882   0.965
78552W        W40083   6.776  27.038  13.820
78553W        W40084  11.666   3.288   4.652
78554W        W40085  23.154   6.321  11.892
78555W        W40086  34.989  18.143   3.222
78556W        W40087   2.721  28.160  10.019
78557W        W40088  20.044  31.059  11.098
78558W        W40089  32.470  28.627   1.272
78559W        W40090  22.674  13.684   1.905
78560W        W40091  41.494  22.581   4.351
78561W        W40092  42.416   2.815  12.851
78562W        W40093  19.261  24.527  13.023
78563W        W40094  31.558  30.953  12.832
78564W        W40095  21.602   1.428  13.803
78565W        W40096   4.776  14.159  11.435
78566W        W40097   9.307  16.712  12.537
78567W        W40098  12.636  21.214  11.547
78568W        W40099  38.537  38.471  11.055
78569W        W40100   5.221   8.865  11.105
78570W        W40101  21.687  38.537  13.036
78571W        W40102  31.053  41.369   0.863
78572W        W40103  44.367  13.334  11.038
78573W        W40104  26.584  16.587  13.503
78574W        W40105   9.862  12.727  13.376
78575W        W40106  22.650  40.535   2.203
78576W        W40107   3.444   6.337   2.322
78577W        W40108  24.999  40.479  13.308
78578W        W40109  30.650  33.131  12.457
78579W        W40110  43.414  44.283  14.799
78580W        W40111  42.874  32.103   4.311
78581W        W40112  13.768  34.108   1.303
78582W        W40113   7.833  25.671  11.055
78583W        W40114   9.855  41.840  11.119
78584W        W40115  37.568  34.522  10.938
78585W        W40116   5.359  40.492   2.709
78586W        W40117  41.018   8.301  14.922
78587W        W40118  22.504   4.771   4.658
78588W        W40119  18.623   8.858   5.189
78589W        W40120  25.995  10.259  12.005
78590W        W40121  26.092  23.505   1.914
78591W        W40122  34.046  28.967   2.875
78592W        W40123  29.552  38.925  13.343
78593W        W40124   8.245   8.391   2.340
78594W        W40125  35.940  16.769   4.172
78595W        W40126  25.706  43.405   0.420
78596W        W40127  31.033   6.821   4.214
78597W        W40128  19.117  11.674  12.930
78598W        W40129  30.634  22.114   3.688
78599W        W40130  34.998  17.700   3.324
78600W        W40131   1.961  29.084  14.925
78601W        W40132  23.631  40.378  10.606
78602W        W40133  33.060  42.812  10.642
78603W        W40134  20.062  19.619  10.617
78604W        W40135   0.901  25.990  11.432
78605W        W40136  32.626  17.298   4.640
78606W        W40137  39.454  27.646  11.006
78607W        W40138  40.321  20.600   3.290
78608W        W40139  23.068  37.510  11.452
78609W        W40140  11.321  30.151   9.953
78610W        W40141  29.929  30.939  13.478
78611W        W40142  29.062  35.047  11.592
78612W        W40143  18.139   8.884   1.361
78613W        W40144  36.414   5.866  14.371
78614W        W40145  19.282  26.036  11.940
78615W        W40146   8.878  30.468   1.800
78616W        W40147   9.192  11.330   3.803
78617W        W40148  35.006   8.347  13.401
78618W        W40149  18.282  29.044   0.886
78619W        W40150  22.253   6.233   4.304
78620W        W40151  17.559   2.918  13.798
78621W        W40152   6.812  12.167  11.460
78622W        W40153  37.069   2.423  11.941
78623W        W40154  12.806  38.333   2.831
78624W        W40155  36.976  38.338   3.190
78625W        W40156  11.216  18.159  11.475
78626W        W40157  38.960  10.811  14.355
78627W        W40158   7.685  35.978   3.795
78628W        W40159  10.640  16.251  14.331
78629W        W40160   0.766   9.372  12.861
78630W        W40161   9.774   2.283   4.266
78631W        W40162  13.141  41.916  12.579
78632W        W40163  23.710  17.663   3.217
78633W        W40164  42.305  21.575   3.706
78634W        W40165  12.244  18.681   0.952
78635W        W40166  33.483   4.319   9.964
78636W        W40167  39.015  28.533   2.238
78637W        W40168   2.387   8.751   2.799
78638W        W40169  20.732  37.987   0.832
78639W        W40170  36.091  12.130   1.876
78640W        W40171  38.908  25.153   3.841
78641W        W40172  23.657  13.195   2.208
78642W        W40173  19.775  38.016  13.898
78643W        W40174  19.600   4.373  12.339
78644W        W40175   9.316  29.089   2.690
78645W        W40176  42.839  43.962   2.409
78646W        W40177  22.097  38.006   0.740
78647W        W40178  33.940  13.831  12.997
78648W        W40179  44.756  11.728   2.178
78649W        W40180  37.398  15.684   2.894
78650W        W40181   8.667  27.029  10.419
78651W        W40182  36.412  13.204   4.324
78652W        W40183  35.477  11.142  14.898
78653W        W40184  12.227   8.240   3.841
78654W        W40185  44.911  30.951  12.836
78655W        W40186  28.160  15.159  14.305
78656W        W40187  42.384   0.748   3.284
78657W        W40188  12.823  33.476  12.031
78658W        W40189  26.197  17.561   0.905
78659W        W40190  11.218  18.185  12.849
78660W        W40191  42.300  17.113  13.535
78661W        W40192  35.514  35.956   5.105
78662W        W40193  19.067  11.297   0.745
78663W        W40194  21.744  41.481  12.339
78664W        W40195  20.605  18.144   1.426
78665W        W40196  19.714  34.586   3.640
78666W        W40197  16.238  19.115   0.960
78667W        W40198   9.171  41.316   5.181
78668W        W40199  44.886  16.577  14.893
78669W        W40200  42.445  14.206  12.456
78670W        W40201  40.023  39.362   2.764
78671W        W40202  10.185  23.587   2.384
78672W        W40203  42.852  29.126   1.254
78673W        W40204  10.720  34.414   2.812
78674W        W40205  23.109   4.232   2.190
78675W        W40206  17.307  28.058  11.488
78676W        W40207  30.560  40.865   3.172
78677W        W40208  25.613  37.544   1.413
78678W        W40209  26.641  19.147  14.475
78679W        W40210  25.972  21.583  14.814
78680W        W40211  16.230  20.073   4.656
78681W        W40212  42.335  24.001   4.762
78682W        W40213  18.749   7.219   0.896
78683W        W40214  37.352  21.241   4.706
78684W        W40215  30.595  12.770  12.492
78685W        W40216  18.145  15.093  11.998
78686W        W40217  27.469  25.083  11.024
78687W        W40218  12.670  42.350  10.897
78688W        W40219  36.554   7.356  11.375
78689W        W40220  38.394  27.983  10.889
78690W        W40221  43.409  37.350   3.371
78691W        W40222   6.869  13.714  13.937
78692W        W40223   7.349  14.134   4.255
78693W        W40224  12.117   3.799   2.813
78694W        W40225  10.207   1.844  14.474
78695W        W40226   6.199   7.292   0.773
78696W        W40227  31.422  10.381   3.218
78697W        W40228  11.791  29.431  14.429
78698W        W40229   9.677  26.130   1.907
78699W        W40230  35.938   9.814   0.365
78700W        W40231  29.929  24.009   2.809
78701W        W40232   4.372  37.042   2.209
78702W        W40233  24.676  32.593   1.795
78703W        W40234  27.585   7.223  14.489
78704W        W40235  18.560  17.246  13.906
78705W        W40236   5.412  32.630   0.812
78706W        W40237  26.030  34.599   1.438
78707W        W40238  40.031  40.041  14.459
78708W        W40239  39.877  38.884  14.001
78709W        W40240  26.671  21.577  12.857
78710W        W40241  32.443   0.460   3.690
78711W        W40242  14.608  12.665   0.425
78712W        W40243  23.993  34.976  11.536
78713W        W40244   6.408  40.440   0.963
78714W        W40245  12.311  21.639  11.521
78715W        W40246  10.218  14.190   4.663
78716W        W40247   1.373   2.739  13.801
78717W        W40248   1.943  24.608   0.731
78718W        W40249  14.236   1.317   0.352
78719W        W40250  25.003   4.291   3.358
78720W        W40251  25.586  32.052   1.896
78721W        W40252   2.760  40.042   3.796
78722W        W40253  38.546  24.523  13.455
78723W        W40254  31.479  19.766  12.015
78724W        W40255  20.728   4.907  13.353
78725W        W40256  17.202  39.341   2.683
78726W        W40257  30.452  24.177   3.661
78727W        W40258  39.870  36.053  13.062
78728W        W40259  26.645  32.408  14.347
78729W        W40260  31.026  33.530   5.226
78730W        W40261   9.347  39.001   4.207
78731W        W40262  14.233   3.920  14.791
78732W        W40263  15.215  16.622  13.834
78733W        W40264  31.117  29.927   1.312
78734W        W40265  28.139   8.202   1.833
78735W        W40266   4.320  25.637  13.951
78736W        W40267   8.735  24.655  11.041
78737W        W40268   7.750  42.947  10.130
78738W        W40269  35.080  40.870  11.897
78739W        W40270   0.802  20.713   0.436
78740W        W40271  27.673  31.570   4.839
78741W        W40272   0.312   0.841   2.756
78742W        W40273   3.731  28.492   2.858
78743W        W40274  31.631  25.475   4.327
78744W        W40275  19.666  41.308   4.179
78745W        W40276  28.162  38.944   2.233
78746W        W40277  28.551   1.299   4.606
78747W        W40278  22.626   3.294   3.377
78748W        W40279  27.560  37.830   0.849
78749W        W40280  17.645  16.680   2.781
78750W        W40281  17.653  22.527  11.875
78751W        W40282  41.481  12.221   3.319
78752W        W40283  17.094  40.951   4.663
78753W        W40284   0.912   2.299  14.028
78754W        W40285   5.227  13.279   0.799
78755W        W40286  38.065  42.514  11.084
78756W        W40287  38.985  15.292  10.435
78757W        W40288  20.682  31.085  14.018
78758W        W40289  10.652  30.090   2.721
78759W        W40290  40.810  41.853   0.320
78760W        W40291  16.728  37.412   1.313
78761W        W40292  21.713  24.641   4.826
78762W        W40293  42.807  37.519  10.550
78763W        W40294   7.782   1.253   9.447
78764W        W40295  36.430  25.686  12.031
78765W        W40296  12.711   4.334  12.937
78766W        W40297   7.349  35.473   3.226
78767W        W40298  12.262  14.198   0.258
78768W        W40299  13.690  35.869   1.345
78769W        W40300  21.147  38.332  10.981
78770W        W40301   6.831  34.932  10.462
78771W        W40302  30.626  28.560  10.922
78772W        W40303  25.088  44.942  12.432
78773W        W40304   1.342   6.724   4.719
78774W        W40305  31.577  10.298  14.380
78775W        W40306  31.973   7.334   2.353
78776W        W40307  37.831  44.336  13.820
78777W        W40308  34.422  36.527  14.900
78778W        W40309  34.053   1.736  13.438
78779W        W40310   8.183  10.635   0.828
78780W        W40311  19.133  38.852  12.904
78781W        W40312  37.526  27.979   4.301
78782W        W40313   3.911   8.247   2.376
78783W        W40314  41.815  38.460   0.957
78784W        W40315  28.110  23.621  10.030
78785W        W40316  44.869  39.860   2.866
78786W        W40317   7.818  16.636   4.690
78787W        W40318  10.355  36.041  11.972
78788W        W40319   8.322  41.959  14.381
78789W        W40320  44.260  10.248  11.597
78790W        W40321   1.274  21.043   2.831
78791W        W40322  17.216   7.414   3.272
78792W        W40323  27.163  43.849  14.854
78793W        W40324  44.827   4.730   4.156
78794W        W40325  41.970  29.078  10.417
78795W        W40326  20.258  23.639   3.865
78796W        W40327  29.050  23.189   0.467
78797W        W40328  31.046  26.673  12.406
78798W        W40329  15.736  41.850   4.705
78799W        W40330  42.903  29.525  13.826
78800W        W40331  36.412  17.677  14.796
78801W        W40332  32.525  37.539  11.080
78802W        W40333  38.862  43.884  10.490
78803W        W40334   4.362  34.033   0.817
78804W        W40335  35.488   5.798  13.890
78805W        W40336  24.724   1.469   2.663
78806W        W40337   5.775  37.450   5.208
78807W        W40338  43.357  28.956   0.738
78808W        W40339  31.452   6.856   1.229
78809W        W40340  10.727  28.180  11.437
78810W        W40341  39.936  40.465  10.473
78811W        W40342  18.602  21.260   0.812
78812W        W40343  41.429  26.117  10.610
78813W        W40344   2.948  11.143  14.460
78814W        W40345  16.119  27.474   4.226
78815W        W40346  41.981  39.534   1.819
78816W        W40347  31.543  32.904   2.870
78817W        W40348  15.182  43.934  10.974
78818W        W40349  15.672  36.949  10.462
78819W        W40350  44.390  34.927   1.350
78820W        W40351  43.467  15.226   0.914
78821W        W40352  31.112  23.047   1.699
78822W        W40353  18.687  22.603   0.851
78823W        W40354  17.144   7.184   0.284
78824W        W40355  25.046   3.309  11.523
78825W        W40356   0.397  40.371  12.491
78826W        W40357  36.868  11.362   5.292
78827W        W40358  40.034   0.394   4.315
78828W        W40359  14.588  27.573  13.463
78829W        W40360  30.991  28.636  14.889
78830W        W40361   6.856  42.493   1.907
78831W        W40362  13.709  13.693   1.835
78832W        W40363  25.509  44.322   3.340
78833W        W40364  12.641  14.739  12.536
78834W        W40365  15.686   5.241  13.808
78835W        W40366  31.101   6.791   2.228
78836W        W40367  37.965  23.719  12.072
78837W        W40368  38.489  39.447   4.314
78838W        W40369  10.684  39.893   0.923
78839W        W40370  13.294  28.120  14.892
78840W        W40371   4.805  32.555   4.349
78841W        W40372   9.740  13.644   3.325
78842W        W40373  25.595  40.529   0.336
78843W        W40374   6.771   3.843   4.820
78844W        W40375  24.160  11.155   0.855
78845W        W40376   6.807   7.699   2.249
78846W        W40377   9.828  34.106  14.413
78847W        W40378  40.482   8.253  13.516
78848W        W40379  35.507  32.542   2.274
78849W        W40380  21.255   1.766   4.684
78850W        W40381  22.610   1.388  11.098
78851W        W40382  15.150  25.631   0.811
78852W        W40383   5.383  37.066   1.748
78853W        W40384   4.399  28.456   0.261
78854W        W40385  40.857  44.783  10.911
78855W        W40386  36.969   5.322  14.861
78856W        W40387  20.041   7.234  10.899
78857W        W40388  41.010  23.590  11.894
78858W        W40389  28.023   7.183   0.897
78859W        W40390   3.381  19.761  11.518
78860W        W40391  37.428  35.001   2.687
78861W        W40392  43.884  34.432   1.869
78862W        W40393   3.406  16.608  12.520
78863W        W40394  24.705   4.829  12.047
78864W        W40395  35.395  31.094   1.328
78865W        W40396  12.821   5.295  11.971
78866W        W40397   9.766  23.580   1.430
78867W        W40398  28.496  41.429   3.181
78868W        W40399   3.898  37.459   3.813
78869W        W40400  12.361  19.584   2.694
78870W        W40401   0.879   1.399   1.699
78871W        W40402   8.294  44.316   1.803
78872W        W40403  11.168  41.499  14.433
78873W        W40404  40.005  10.223  14.452
78874W        W40405  23.578  41.327   0.367
78875W        W40406  21.546  38.943   2.814
78876W        W40407   4.328  25.635  10.095
78877W        W40408  20.197   2.388   4.171
78878W        W40409  42.895   7.176   4.339
78879W        W40410  26.979  24.065  11.495
78880W        W40411  34.077  36.887   5.636
78881W        W40412  26.522   1.343  13.839
78882W        W40413  43.410  10.376  12.460
78883W        W40414  38.894  21.032  13.547
78884W        W40415  33.608  22.548   4.645
78885W        W40416  21.519   0.748  12.483
78886W        W40417  24.217  20.165   2.730
78887W        W40418  15.705  11.725   3.168
78888W        W40419  12.779   6.246   0.779
78889W        W40420  31.432   7.205   1.334
78890W        W40421  28.437  17.287   2.737
78891W        W40422  11.663  40.907   1.248
78892W        W40423  15.321  25.010   2.220
78893W        W40424  32.475  25.049  14.991
78894W        W40425  21.748  24.984   3.269
78895W        W40426  25.214  30.533  12.447
78896W        W40427  21.193  30.122  13.449
78897W        W40428  38.944  10.190  14.940
78898W        W40429  14.321  25.533  12.363
78899W        W40430  33.481  14.153  10.551
78900W        W40431   2.829  42.913   1.894
78901W        W40432  20.124  32.557   0.296
78902W        W40433  19.066  14.721   3.355
78903W        W40434  15.206  35.996   3.342
78904W        W40435  23.161   9.810  10.627
78905W        W40436  25.624  17.157  14.951
78906W        W40437   1.947  21.121  13.048
78907W        W40438  28.145  15.757  10.894
78908W        W40439  27.133  44.452  13.391
78909W        W40440  21.034   2.794   3.665
78910W        W40441  41.474  42.971  14.289
78911W        W40442  31.619  16.727  12.856
78912W        W40443  21.238  14.758   4.751
78913W        W40444  23.102  18.622  14.001
78914W        W40445  42.446  25.050  11.882
78915W        W40446  31.570  25.622   1.314
78916W        W40447  43.927  28.130  10.931
78917W        W40448  26.602  35.989  12.044
78918W        W40449  20.176  23.716  11.120
78919W        W40450  38.559  28.168  14.504
78920W        W40451  24.153   1.974  14.002
78921W        W40452  35.445   8.169  14.472
78922W        W40453  28.156  13.336  13.535
78923W        W40454  14.663  33.597  12.857
78924W        W40455  11.796  14.241  10.053
78925W        W40456   9.256  37.366  12.896
78926W        W40457   1.970  41.898  14.477
78927W        W40458  36.093  14.266  14.864
78928W        W40459  11.635  32.443  13.002
78929W        W40460  16.123  13.674  13.911
78930W        W40461  43.303  38.506  10.484
78931W        W40462  25.119  18.690   3.840
78932W        W40463  14.811   8.813  10.007
78933W        W40464  44.423   4.364  11.977
78934W        W40465   6.754  28.082   2.180
78935W        W40466  21.637   9.241  10.966
78936W        W40467  17.585   5.249  12.560
78937W        W40468   7.352  37.008   3.727
78938W        W40469  32.484  27.071  11.519
78939W        W40470  26.596   3.393  11.489
78940W        W40471  30.122  38.503   3.673
78941W        W40472  34.005  41.032   3.246
78942W        W40473   0.461  24.158   9.934
78943W        W40474  28.973  12.248   2.367
78944W        W40475   5.933  12.817   0.298
78945W        W40476  13.230  36.066   3.742
78946W        W40477  32.048   2.863   1.751
78947W        W40478  37.998  23.126   1.263
78948W        W40479  30.458  30.048  11.003
78949W        W40480  39.984   0.444   3.711
78950W        W40481  24.986  36.425   4.339
78951W        W40482  31.544  41.919  14.462
78952W        W40483  35.395  24.003  11.391
78953W        W40484  23.181   4.234   4.167
78954W        W40485  23.541  44.469  11.949
78955W        W40486  34.522  22.657  14.944
78956W        W40487  35.107  29.608  10.616
78957W        W40488  34.867  36.370   2.230
78958W        W40489   5.303  25.042  13.918
78959W        W40490   9.272   4.815  13.839
78960W        W40491   5.787  30.474   0.312
78961W        W40492  24.718  11.638  14.481
78962W        W40493  43.769  36.038   4.128
78963W        W40494   2.892   5.795   3.356
78964W        W40495  44.792   9.676   2.876
78965W        W40496  32.134  20.068  14.350
78966W        W40497  20.763   2.334   4.657
78967W        W40498  36.412  18.058   0.429
78968W        W40499  35.574   8.245  13.438
78969W        W40500  27.027  21.062  13.859
78970W        W40501  43.764  21.232   0.751
78971W        W40502  19.729  34.465  13.484
78972W        W40503  26.561  15.237   1.713
78973W        W40504  40.480  22.167   2.890
78974W        W40505  12.178  36.511  13.519
78975W        W40506  25.088  27.513  14.441
78976W        W40507  20.056  19.626  14.502
78977W        W40508  33.935  39.846   3.314
78978W        W40509  28.552   2.836  11.480
78979W        W40510  22.091   2.285  14.021
78980W        W40511  32.965  31.634  12.032
78981W        W40512  29.548   8.782   0.356
78982W        W40513   8.846  38.065   4.708
78983W        W40514  28.137   0.385  13.792
78984W        W40515  20.536   3.298  11.490
78985W        W40516  20.047  13.621   0.902
78986W        W40517  17.557  18.549   4.252
78987W        W40518  39.376  40.914  14.439
78988W        W40519   6.276   9.240  14.277
78989W        W40520  13.637   5.380  13.970
78990W        W40521  37.401  32.109  11.938
78991W        W40522  15.098  34.120   9.976
78992W        W40523  38.839  19.639  14.982
78993W        W40524  41.506   4.267   1.449
78994W        W40525  18.732  31.466   1.777
78995W        W40526   1.264   4.219  12.957
78996W        W40527   7.344  18.136  11.911
78997W        W40528  20.702   5.858   3.844
78998W        W40529  14.174  42.404   3.359
78999W        W40530  16.638  20.096   3.278
79000W        W40531  43.785  26.648   0.349
79001W        W40532  43.465   4.866  12.848
79002W        W40533   2.787  12.808   3.686
79003W        W40534  32.909  37.971   4.217
79004W        W40535  32.116  38.857  11.559
79005W        W40536  10.849  32.502   1.306
79006W        W40537  18.268   3.309   1.850
79007W        W40538  37.881  25.498   0.762
79008W        W40539  42.943  21.242  11.981
79009W        W40540  34.086  31.011   3.773
79010W        W40541   8.856   7.670  11.927
79011W        W40542  19.071  35.919  12.422
79012W        W40543   5.707  29.650   2.331
79013W        W40544  17.166  11.799  13.053
79014W        W40545   1.462  29.064   1.345
79015W        W40546  24.225  36.882  13.882
79016W        W40547  11.802  42.504   0.763
79017W        W40548  10.707  12.252  10.412
79018W        W40549  12.329  43.343  13.000
79019W        W40550   1.740   9.889  11.946
79020W        W40551  39.887  42.523   1.321
79021W        W40552  44.377  15.619   2.863
79022W        W40553  10.174  26.154   1.757
79023W        W40554  12.757  41.041  12.487
79024W        W40555  44.278   3.792  13.544
79025W        W40556  44.905   6.345   0.782
79026W        W40557  30.967   3.241   3.167
79027W        W40558  15.688  44.885  13.927
79028W        W40559   1.323   5.868  10.616
79029W        W40560  14.678  24.529  14.969
79030W        W40561  36.404  18.270   1.396
79031W        W40562  23.609   2.456   2.730
79032W        W40563  40.545  26.086   3.376
79033W        W40564  23.087   4.294  11.402
79034W        W40565  21.040  21.039  12.524
79035W        W40566  17.143  37.345  14.850
79036W        W40567  35.419   6.378   0.433
79037W        W40568  34.508  11.773  11.430
79038W        W40569   9.327  42.356   4.766
79039W        W40570  24.219   4.304   4.777
79040W        W40571   2.409  27.122  10.092
79041W        W40572  29.938  10.701   4.328
79042W        W40573  35.922   2.246  13.910
79043W        W40574   0.835  28.679   3.647
79044W        W40575  17.566   1.733  10.431
79045W        W40576  16.246   1.824   1.293
79046W        W40577  36.368  28.166   2.249
79047W        W40578  19.264  27.497   1.344
79048W        W40579  38.449  16.134  12.946
79049W        W40580  15.599  10.359  11.928
79050W        W40581  40.324  22.233  14.769
79051W        W40582  33.385  35.411  12.896
79052W        W40583   4.807  35.595  14.482
79053W        W40584  41.830  28.569  13.447
79054W        W40585  22.701   8.299  12.061
79055W        W40586   4.846  31.123  10.052
79056W        W40587  34.552  14.290   3.742
79057W        W40588   7.373  44.753  13.927
79058W        W40589  44.896   4.943   9.956
79059W        W40590  39.053  29.918  13.416
79060W        W40591  16.780  28.033  10.954
79061W        W40592  15.731  40.318  11.431
79062W        W40593  13.281  41.025  12.897
79063W        W40594   8.659   4.216   2.395
79064W        W40595   0.281  25.209  10.501
79065W        W40596  32.130  42.494   3.760
79066W        W40597   5.343  27.651   4.834
79067W        W40598  15.780  10.726  10.523
79068W        W40599  42.403  34.438   0.749
79069W        W40600  28.615  31.154  12.022
79070W        W40601   6.923  41.431  10.597
79071W        W40602  14.800  43.941  13.968
79072W        W40603   8.220  39.397   0.422
79073W        W40604  19.675  38.012   0.368
79074W        W40605  11.234  13.698  12.516
79075W        W40606  22.516  36.082  11.896
79076W        W40607   2.824  13.634   0.729
79077W        W40608   7.849  34.486  12.456
79078W        W40609  24.498  41.315  14.851
79079W        W40610   3.271  13.611   2.815
79080W        W40611  19.140   5.788  12.041
79081W        W40612  25.507  44.989  13.408
79082W        W40613  38.854  41.481  12.868
79083W        W40614  36.945   5.696  12.458
79084W        W40615  41.861  26.050  11.037
79085W        W40616  30.608  12.713   4.205
79086W        W40617  42.943   2.857  12.942
79087W        W40618   0.910   1.464   2.323
79088W        W40619  19.637  12.728   4.340
79089W        W40620  35.863  33.482  10.626
79090W        W40621  10.859   6.320  10.941
79091W        W40622  28.079   7.234   3.719
79092W        W40623  27.447  42.444   0.817
79093W        W40624   5.886  20.105  11.574
79094W        W40625  30.937  39.026  13.966
79095W        W40626   3.326  10.767  12.549
79096W        W40627  31.012  31.441   1.405
79097W        W40628  42.335  20.222   4.719
79098W        W40629  14.161  30.077  14.963
79099W        W40630  10.239   2.811  10.442
79100W        W40631   9.176  32.512   1.436
79101W        W40632   2.878   1.434   0.278
79102W        W40633  31.544   5.229   3.256
79103W        W40634  26.007  37.469  11.588
79104W        W40635  19.581   4.721   0.772
79105W        W40636  36.017   0.456   2.406
79106W        W40637   3.709   3.311   5.173
79107W        W40638  16.232  27.029  12.837
79108W        W40639  23.005  38.858   3.645
79109W        W40640  35.045  23.985   3.666
79110W        W40641  30.656  35.520  14.874
79111W        W40642  32.948   2.260  10.433
79112W        W40643  33.954  10.827  14.781
79113W        W40644  14.792  42.364   1.215
79114W        W40645   2.931  13.160   2.871
79115W        W40646  33.024  23.573  13.352
79116W        W40647   7.852  13.123  12.912
79117W        W40648  44.376  41.899  13.373
79118W        W40649  24.522  36.965   4.692
79119W        W40650  26.529  23.662   3.232
79120W        W40651  22.519  42.852  11.057
79121W        W40652  35.106  39.879  14.307
79122W        W40653  21.055  13.240  13.411
79123W        W40654  30.479  39.056   4.161
79124W        W40655  13.732   1.392  11.575
79125W        W40656  17.620  32.440   4.826
79126W        W40657   6.218   4.330  13.023
79127W        W40658  11.262  35.437  12.012
79128W        W40659  36.064  41.801  11.090
79129W        W40660  24.183  26.205  14.350
79130W        W40661  30.936  36.871  13.863
79131W        W40662  12.794  35.437   4.710
79132W        W40663  10.674   1.914  14.968
79133W        W40664  42.440   3.285   2.409
79134W        W40665  41.033  21.667   4.311
79135W        W40666  13.283   8.722   2.413
79136W        W40667  35.408  39.382   4.224
79137W        W40668   2.454  19.264  14.353
79138W        W40669   9.704  17.197  12.435
79139W        W40670  13.327   6.271   1.874
79140W        W40671   6.283  36.029  14.446
79141W        W40672  14.671  12.339   0.737
79142W        W40673  38.819   7.403  10.972
79143W        W40674  30.955   4.257   3.175
79144W        W40675  14.594   0.945   2.778
79145W        W40676  36.858  36.590  13.827
79146W        W40677  21.038  14.303  12.417
79147W        W40678  38.892  33.096   4.728
79148W        W40679  37.481  34.992  13.982
79149W        W40680  40.482   0.268   1.849
79150W        W40681  16.248   4.789   0.252
79151W        W40682  37.045  12.623  12.895
79152W        W40683  43.416  12.816   1.215
79153W        W40684   0.795  39.482   3.864
79154W        W40685  37.420  16.214  12.910
79155W        W40686  23.208  31.153   2.800
79156W        W40687  33.965  35.479   3.825
79157W        W40688   9.846  25.191   2.304
79158W        W40689  31.516   3.356  14.454
79159W        W40690  10.209  32.106  13.337
79160W        W40691  29.925  18.558  12.002
79161W        W40692  23.000  15.705  11.543
79162W        W40693  18.599  18.662  11.943
79163W        W40694  44.923   2.399  11.512
79164W        W40695  14.688  25.681   2.861
79165W        W40696  37.897  36.519  10.976
79166W        W40697   1.277  27.147   3.776
79167W        W40698  38.496  21.658   3.772
79168W        W40699   3.345  21.757   3.191
79169W        W40700  14.795   5.722   4.698
79170W        W40701  32.489  29.117   4.610
79171W        W40702  15.193  39.346   1.875
79172W        W40703  32.604  15.789   1.385
79173W        W40704  29.968  43.475  13.017
79174W        W40705   9.380  29.041   0.452
79175W        W40706   1.804   1.274   2.254
79176W        W40707  30.120  10.778  11.094
79177W        W40708  22.641  38.543  13.437
79178W        W40709  34.024  13.648   2.182
79179W        W40710  43.415  16.665   4.301
79180W        W40711  10.779  39.357  14.326
79181W        W40712  24.021  31.508  14.924
79182W        W40713  32.607   8.220   1.713
79183W        W40714  39.513  10.834   0.413
79184W        W40715  36.348  37.553  12.414
79185W        W40716  20.555   9.718  13.974
79186W        W40717  34.495  36.072   9.929
79187W        W40718  37.870   4.776   0.761
79188W        W40719  43.861  37.911  13.356
79189W        W40720  42.965  33.438  10.633
79190W        W40721  10.357  16.679   4.117
79191W        W40722  28.134   7.183  12.562
79192W        W40723  36.593   2.750  11.857
79193W        W40724   9.324  37.016   2.381
79194W        W40725   1.899   0.425   2.385
79195W        W40726  38.461  41.026   0.965
79196W        W40727  23.093   0.487  12.924
79197W        W40728  42.359  24.529  12.346
79198W        W40729  14.143  27.525   4.768
79199W        W40730  43.829  29.149  11.113
79200W        W40731  34.597  21.519   4.624
79201W        W40732  15.293  22.530  11.482
79202W        W40733  23.115  17.296   2.244
79203W        W40734  10.349  19.541  10.546
79204W        W40735  34.423   4.237   1.804
79205W        W40736  15.650  18.747  10.956
79206W        W40737  42.413  39.362   1.365
79207W        W40738  41.401  19.629   4.740
79208W        W40739  27.660   2.392   2.300
79209W        W40740  28.533   0.833   4.697
79210W        W40741   4.720  44.435   1.786
79211W        W40742  13.725  22.069  13.491
79212W        W40743   4.743   9.865   5.184
79213W        W40744  28.455  11.307  11.487
79214W        W40745   8.402  14.685   1.843
79215W        W40746  16.730  43.976  13.936
79216W        W40747  31.989  24.523   4.677
79217W        W40748  17.170   8.367  11.874
79218W        W40749  27.175  15.114  12.370
79219W        W40750  16.636  26.633   0.764
79220W        W40751  35.023   5.289  14.399
79221W        W40752  21.737  28.675   2.343
79222W        W40753  43.476  18.771  11.905
79223W        W40754  34.924  17.776  14.506
79224W        W40755  10.747   3.836  14.914
79225W        W40756  10.251  19.780  11.416
79226W        W40757  41.971   0.800   3.261
79227W        W40758  16.666  29.029  13.002
79228W        W40759  41.501  40.436  14.002
79229W        W40760  15.225  27.581  14.903
79230W        W40761  36.586   1.324   3.276
79231W        W40762  21.196  27.606  14.767
79232W        W40763  19.572  39.987  12.444
79233W        W40764  21.750   5.927  11.875
79234W        W40765  13.673  21.161   0.892
79235W        W40766  18.189  21.592   3.871
79236W        W40767  37.925  36.917   4.671
79237W        W40768  27.573  37.957  14.870
79238W        W40769  11.250  41.913  12.363
79239W        W40770  25.202  39.455   1.814
79240W        W40771   0.338  11.683  10.427
79241W        W40772  41.308  18.545   2.772
79242W        W40773  22.093  38.836   3.263
79243W        W40774  12.292  15.226   1.407
79244W        W40775  36.360  20.571  13.503
79245W        W40776  43.427  41.299  10.468
79246W        W40777  35.020  44.494  11.535
79247W        W40778  44.905  20.147   2.252
79248W        W40779  19.650   0.944   3.369
79249W        W40780   5.855   4.823   0.460
79250W        W40781  10.837  22.621  10.941
79251W        W40782   2.247  31.522  12.435
79252W        W40783  14.616  41.521   3.776
79253W        W40784  19.659  20.252  11.967
79254W        W40785  10.183  13.844  13.923
79255W        W40786  18.165  44.357  12.950
79256W        W40787  29.535  12.674  10.637
79257W        W40788  28.678  28.094  12.964
79258W        W40789  36.892  10.851  13.802
79259W        W40790  11.288  13.828  14.955
79260W        W40791  36.402  30.607  12.916
79261W        W40792   9.205  37.352   0.386
79262W        W40793  18.095  19.078   1.803
79263W        W40794   1.420  31.569  10.983
79264W        W40795  13.669  20.198  13.521
79265W        W40796   1.357  14.832   0.343
79266W        W40797  38.892   4.372  10.558
79267W        W40798   8.873  31.607   4.641
79268W        W40799  30.499   7.740   0.759
79269W        W40800  31.438  11.135  14.001
79270W        W40801  23.560  36.526   0.252
79271W        W40802  31.434   0.379  12.440
79272W        W40803  41.886  30.537  14.944
79273W        W40804  21.024  26.644   2.218
79274W        W40805  38.973  11.852   4.266
79275W        W40806  15.754  29.494  13.861
79276W        W40807   8.354  35.967   3.296
79277W        W40808   4.761   4.837  14.858
79278W        W40809  16.116  32.079  11.586
79279W        W40810  15.614  16.572  10.995
79280W        W40811  26.156  10.659  14.469
79281W        W40812  39.407  36.414  14.408
79282W        W40813  37.988  43.922   3.341
79283W        W40814   0.792  37.023  11.976
79284W        W40815  11.666   8.739  10.432
79285W        W40816  13.203   0.332  12.496
79286W        W40817  41.514  38.007  12.874
79287W        W40818  39.555  33.106  11.437
79288W        W40819  24.718  26.669  11.587
79289W        W40820   2.283   5.387  12.830
79290W        W40821  20.732  29.667   0.962
79291W        W40822   1.783   4.911  10.038
79292W        W40823  24.126  36.393   0.318
79293W        W40824  24.645  33.589   4.211
79294W        W40825   5.753  44.934  14.310
79295W        W40826  29.000  12.332   2.707
79296W        W40827  25.583  37.904  13.432
79297W        W40828  18.665  17.765   3.708
79298W        W40829   6.866  22.554   4.598
79299W        W40830  40.451  19.589  11.912
79300W        W40831  23.215   5.724   3.255
79301W        W40832   9.696  13.219   2.866
79302W        W40833  24.579  26.996   0.888
79303W        W40834   3.282  32.409   4.296
79304W        W40835  23.240  28.557   1.738
79305W        W40836  12.629  23.054   1.266
79306W        W40837  35.486  35.986  11.939
79307W        W40838  37.957  18.245  12.825
79308W        W40839  44.779  17.151   9.952
79309W        W40840   9.229  43.484   4.300
79310W        W40841  31.533  18.104  12.394
79311W        W40842  38.820  16.311   0.258
79312W        W40843  33.904   3.293   3.190
79313W        W40844   5.340   5.810   1.389
79314W        W40845  25.207   8.751  13.820
79315W        W40846  44.333  18.696   2.254
79316W        W40847  37.576  10.666  13.815
79317W        W40848  43.489  39.893  14.385
79318W        W40849  23.226  40.986   4.837
79319W        W40850  14.623   1.380  11.931
79320W        W40851  39.478  38.455   0.837
79321W        W40852  14.686  22.100   2.243
79322W        W40853  32.115  23.155   4.287
79323W        W40854  20.101  33.391  12.948
79324W        W40855  25.581  23.731  14.875
79325W        W40856  18.214  11.364   0.277
79326W        W40857   0.978  17.211   0.446
79327W        W40858  18.189  28.495  13.809
79328W        W40859  35.867  44.378   2.738
79329W        W40860  28.043  30.484   2.748
79330W        W40861  35.020  13.349   2.349
79331W        W40862  35.094  35.531  11.420
79332W        W40863   6.375   1.422   1.764
79333W        W40864  35.101   1.855   0.375
79334W        W40865  30.158  32.502   4.745
79335W        W40866  32.075  23.175   1.910
79336W        W40867  31.122   5.248   4.202
79337W        W40868  28.089   3.274   1.765
79338W        W40869  33.976   5.777   0.462
79339W        W40870  40.360  43.838  14.810
79340W        W40871  28.952  10.214  11.062
79341W        W40872  28.058  10.254   0.411
79342W        W40873   5.838  10.268   4.770
79343W        W40874  27.544  26.571   1.212
79344W        W40875  19.194  12.825  14.774
79345W        W40876  33.944  25.964   1.720
79346W        W40877  39.444  28.069  12.074
79347W        W40878  14.328   1.350   3.230
79348W        W40879  40.806  11.319  14.469
79349W        W40880  39.986   1.350   2.872
79350W        W40881  34.414   3.819  12.415
79351W        W40882   6.847  14.698  11.008
79352W        W40883  10.691   9.741  10.597
79353W        W40884  15.736   6.911   1.259
79354W        W40885  41.821  17.783   0.759
79355W        W40886   1.301   9.175  14.408
79356W        W40887  23.198  27.675   2.391
79357W        W40888   9.721  41.827  11.455
79358W        W40889  22.015  20.264  12.995
79359W        W40890  29.088   7.307   2.233
79360W        W40891  33.993   6.409  11.465
79361W        W40892  20.236  17.072  14.401
79362W        W40893  29.926   0.757   0.904
79363W        W40894   7.414  22.510  10.901
79364W        W40895  17.721   6.265   3.213
79365W        W40896   1.249  41.963   1.304
79366W        W40897  22.036   7.190  12.908
79367W        W40898  20.096  43.465   1.289
79368W        W40899  28.466  31.488  13.002
79369W        W40900  12.247   4.746  12.426
79370W        W40901   2.924   9.779  11.111
79371W        W40902   0.862  38.861   3.211
79372W        W40903  36.497  15.293   5.231
79373W        W40904  23.163  41.450  12.399
79374W        W40905   7.738  24.646   1.289
79375W        W40906  44.296  26.192  13.041
79376W        W40907  26.512  36.906  10.472
79377W        W40908  23.693  26.010   3.291
79378W        W40909  36.421  30.562   4.342
79379W        W40910  32.099  35.557  13.938
79380W        W40911  13.351  24.620   3.831
79381W        W40912  17.606  28.094  11.869
79382W        W40913  23.054  26.663   0.466
79383W        W40914  23.063   0.406  13.427
79384W        W40915  34.569  12.323   2.403
79385W        W40916  24.669   2.906   4.707
79386W        W40917  21.042   4.827   9.923
79387W        W40918  27.464  22.594  13.414
79388W        W40919  34.120   2.300  14.421
79389W        W40920  12.280  18.664  12.071
79390W        W40921  11.852   8.177  12.030
79391W        W40922   3.788  38.955   3.208
79392W        W40923  26.001   4.219   2.347
79393W        W40924  11.163   5.350  12.480
79394W        W40925  19.176  23.137  12.926
79395W        W40926  13.641   1.784   2.721
79396W        W40927  32.502  17.121  14.358
79397W        W40928  38.058  19.711   1.358
79398W        W40929  13.283  17.104  12.539
79399W        W40930  33.896  36.542   4.785
79400W        W40931   1.292  22.580  11.435
79401W        W40932  39.057  30.029   4.265
79402W        W40933  43.340   8.364  10.581
79403W        W40934   1.971  30.633  13.490
79404W        W40935  14.157  16.114   0.357
79405W        W40936   7.751  21.040  13.501
79406W        W40937  29.080  15.714  10.489
79407W        W40938  17.179  28.434   4.661
79408W        W40939   7.399  41.402  13.998
79409W        W40940  27.191   8.888   1.863
79410W        W40941  27.629  37.468  13.918
79411W        W40942   5.803  36.052  12.980
79412W        W40943  30.525  22.644   3.704
79413W        W40944   8.321  39.393   3.174
79414W        W40945  42.782   0.868   2.785
79415W        W40946  26.082  22.244  10.567
79416W        W40947   1.916   3.743   2.828
79417W        W40948   6.868  31.061  13.800
79418W        W40949  35.359   7.789  13.009
79419W        W40950  22.711  20.044  13.423
79420W        W40951  22.584  20.047   2.362
79421W        W40952   1.240  11.677  11.480
79422W        W40953   8.852  30.516  14.840
79423W        W40954  17.127  24.697  13.052
79424W        W40955   3.880  22.685   2.868
79425W        W40956  38.958   3.836  12.969
79426W        W40957  36.518  34.117  13.504
79427W        W40958  39.516  26.600   2.353
79428W        W40959  38.827  17.590   0.343
79429W        W40960  19.184   7.769  12.022
79430W        W40961   5.258  19.070  13.507
79431W        W40962  24.572  30.568   3.752
79432W        W40963  22.565   3.774   4.701
79433W        W40964  42.385  29.618  11.863
79434W        W40965   1.384  12.241   0.414
79435W        W40966   3.335  11.242  11.599
79436W        W40967  35.013  39.034   0.968
79437W        W40968  29.938  16.291  10.954
79438W        W40969  35.918   7.676   4.700
79439W        W40970  25.660  26.532   3.788
79440W        W40971  20.568   2.768  11.913
79441W        W40972  17.767  36.504   0.323
79442W        W40973  11.323  26.555   2.277
79443W        W40974  20.142  33.941  14.991
79444W        W40975  24.162  15.120   4.170
79445W        W40976  36.516  32.915   1.393
79446W        W40977  30.441  41.949  11.515
79447W        W40978  44.323  38.989   5.288
79448W        W40979   7.280  33.969  14.918
79449W        W40980  38.523  14.795  14.314
79450W        W40981   1.273   9.346   4.729
79451W        W40982  21.234   1.884  14.759
79452W        W40983   9.249  41.030  14.289
79453W        W40984   8.249  13.278  13.362
79454W        W40985  13.797  21.264  13.804
79455W        W40986   3.866  13.136  13.030
79456W        W40987   2.386  33.460   2.248
79457W        W40988  33.537  12.638  11.593
79458W        W40989  34.909  39.864   0.274
79459W        W40990  27.513  44.833   0.470
79460W        W40991  28.491  44.872   3.290
79461W        W40992   6.341  12.833  11.879
79462W        W40993  14.624  27.651  11.953
79463W        W40994  13.771  30.508   2.374
79464W        W40995   9.348  10.342  13.529
79465W        W40996  17.703  41.345  12.442
79466W        W40997  25.061  19.242   4.277
79467W        W40998   2.857  22.608   2.798
79468W        W40999  39.024   9.767  12.556
79469W        W41000  12.612  15.143   4.707
79470W        W41001  42.424  42.907   3.380
79471W        W41002  11.175  26.525  12.859
79472W        W41003  23.154  18.181   3.868
79473W        W41004  41.006  28.680   2.281
79474W        W41005  28.003  10.804  12.848
79475W        W41006  22.098  26.521  10.910
79476W        W41007  18.690  26.995  14.993
79477W        W41008  41.838  40.853  10.998
79478W        W41009  44.291  19.197  12.942
79479W        W41010  11.817  30.083   3.255
79480W        W41011  31.496  24.065  10.889
79481W        W41012  19.092  33.037  14.324
79482W        W41013  29.057   6.765   5.649
79483W        W41014   2.314  15.122  13.522
79484W        W41015  32.495   5.355  12.850
79485W        W41016  12.354  26.087  13.406
79486W        W41017  32.519  32.015   0.885
79487W        W41018  39.989  43.871   2.297
79488W        W41019   7.219   4.204   2.411
79489W        W41020  18.641  13.684  14.449
79490W        W41021   6.691   4.808  11.873
79491W        W41022  16.674  14.258  13.029
79492W        W41023  21.157  33.954   2.266
79493W        W41024  36.438   2.909  10.977
79494W        W41025   8.743   5.899   3.155
79495W        W41026  17.617  40.358   0.920
79496W        W41027  39.458  22.193  10.924
79497W        W41028  32.603  13.716   4.200
79498W        W41029  41.799  19.547  12.027
79499W        W41030  15.300  36.868  10.534
79500W        W41031  30.502  32.567   4.812
79501W        W41032  15.213  10.691  14.837
79502W        W41033  23.073  30.429  12.867
79503W        W41034  13.675  17.610   4.601
79504W        W41035   6.790  14.301  11.543
79505W        W41036  23.718  25.049  14.508
79506W        W41037  17.201  37.398   2.284
79507W        W41038   8.682  28.027  12.479
79508W        W41039  30.436  41.479   3.218
79509W        W41040  27.550  36.432  13.431
79510W        W41041  11.168   6.813   1.901
79511W        W41042   8.899   3.843   4.342
79512W        W41043  24.040  36.408   2.725
79513W        W41044  18.120   1.369  10.581
79514W        W41045  43.777   4.746   0.935
79515W        W41046   9.714   1.886   3.378
79516W        W41047  10.148  19.647  11.050
79517W        W41048  13.649  28.027  11.095
79518W        W41049  35.496   3.457  10.449
79519W        W41050   1.781  42.023  12.419
79520W        W41051   2.255   1.366   0.885
79521W        W41052  33.904  28.548   3.814
79522W        W41053   8.280  43.465  11.863
79523W        W41054   9.844  23.072  14.337
79524W        W41055  27.501  17.074   3.258
79525W        W41056  16.766  15.193   4.142
79526W        W41057  16.206  10.213  13.796
79527W        W41058  15.687  43.832   1.251
79528W        W41059  43.851  20.688   0.301
79529W        W41060   2.360  43.897  14.804
79530W        W41061  24.724  31.455   1.804
79531W        W41062  43.296  13.211  12.346
79532W        W41063  20.584  34.884   3.267
79533W        W41064   6.839   9.876   4.206
79534W        W41065  43.272   4.375  14.770
79535W        W41066   7.190  18.650   1.806
79536W        W41067  22.155  36.420  14.021
79537W        W41068  14.205  12.837   2.890
79538W        W41069  38.366   5.218   2.840
79539W        W41070  25.534  33.466   5.270
79540W        W41071  34.393   7.764  14.470
79541W        W41072  41.816  34.433  11.107
79542W        W41073  13.297  28.549  13.420
79543W        W41074  31.149  25.183   0.343
79544W        W41075  33.466   7.353   2.733
79545W        W41076  17.266  21.722  12.499
79546W        W41077  32.081  31.960  10.120
79547W        W41078  17.673  29.659  14.404
79548W        W41079  21.552  17.728  12.366
79549W        W41080   0.959  28.524   3.207
79550W        W41081   0.328   2.421   4.323
79551W        W41082   5.304   1.828   3.675
79552W        W41083   7.314  13.701  11.415
79553W        W41084  33.397  42.907  10.990
79554W        W41085  22.633  38.010   4.353
79555W        W41086   1.427  22.606   4.258
79556W        W41087  21.662   2.470  14.875
79557W        W41088  17.231  15.630  10.921
79558W        W41089  28.992  25.154   2.226
79559W        W41090   5.695  11.145  11.553
79560W        W41091  11.688  25.207  14.463
79561W        W41092  26.002  24.986   3.640
79562W        W41093  24.155  36.544   4.679
79563W        W41094  39.512  40.053  12.573
79564W        W41095  12.267  35.549  10.467
79565W        W41096   4.856  17.234  11.422
79566W        W41097   1.786  40.333  11.931
79567W        W41098  10.823   7.688  10.424
79568W        W41099  41.333  33.443   0.385
79569W        W41100   1.300  15.191   0.455
79570W        W41101  23.645   5.286  14.369
79571W        W41102  40.412  41.470   3.180
79572W        W41103   0.280  34.386   3.160
79573W        W41104  24.183   9.231  11.450
79574W        W41105  43.926   8.196  10.625
79575W        W41106  23.081  37.440   0.305
79576W        W41107   0.803  13.334   1.414
79577W        W41108   2.791  40.356   2.240
79578W        W41109  20.237  32.502  10.632
79579W        W41110  33.076  44.804   2.677
79580W        W41111  21.141  24.035  10.957
79581W        W41112  36.027  23.576  12.392
79582W        W41113  26.200  19.224   1.872
79583W        W41114  30.137  18.663  13.873
79584W        W41115  18.113  16.171   2.196
79585W        W41116  40.860  26.008   0.255
79586W        W41117   9.798  20.105  10.589
79587W        W41118  26.546  14.156  14.314
79588W        W41119  29.557  21.035   1.708
79589W        W41120  32.493  43.872  11.432
79590W        W41121  42.492   3.286   0.845
79591W        W41122   7.413  16.657  14.001
79592W        W41123  28.069   0.452  11.406
79593W        W41124  25.005  35.903   4.168
79594W        W41125   3.237  40.906   4.279
79595W        W41126  24.596   3.253   3.667
79596W        W41127  33.019  30.975   4.641
79597W        W41128  15.765  42.787  10.466
79598W        W41129  18.628  22.178  11.029
79599W        W41130  26.189  25.542   1.920
79600W        W41131  28.182   3.854   1.428
79601W        W41132  27.568   2.396   1.884
79602W        W41133  42.798  19.081  14.349
79603W        W41134  22.596   8.174  12.465
79604W        W41135   6.407  27.603  13.807
79605W        W41136  13.600  13.694  12.960
79606W        W41137  35.006  30.582   5.189
79607W        W41138   2.409  31.621  14.447
79608W        W41139  25.516  23.134   3.644
79609W        W41140  19.225   7.887   3.382
79610W        W41141   4.904  30.483  12.920
79611W        W41142  31.148  28.137  12.025
79612W        W41143   0.792  15.647   4.686
79613W        W41144  26.124  18.614  11.581
79614W        W41145  10.259  30.142  10.942
79615W        W41146  15.123  23.173  12.851
79616W        W41147  24.507  25.022   3.224
79617W        W41148  34.599  28.587   3.290
79618W        W41149   2.250   6.807   4.305
79619W        W41150   9.221  27.116  12.471
79620W        W41151  34.455   3.825  11.859
79621W        W41152  41.914  20.577   0.467
79622W        W41153  42.987  31.645   1.834
79623W        W41154   5.249  30.561   1.247
79624W        W41155   3.373   1.873   4.160
79625W        W41156  12.618  28.465  13.352
79626W        W41157  42.393  26.064  13.902
79627W        W41158   7.832  43.842   2.749
79628W        W41159  17.792  40.370  11.970
79629W        W41160   0.303  15.288   3.257
79630W        W41161  26.542  35.598  14.356
79631W        W41162  27.143  43.493  14.945
79632W        W41163  42.881  26.603   4.195
79633W        W41164  35.500  44.997   2.268
79634W        W41165  21.714  28.435  10.583
79635W        W41166  30.531  36.439  14.934
79636W        W41167  25.532  15.108  11.888
79637W        W41168  19.613  19.052  10.511
79638W        W41169  34.548  35.600   3.243
79639W        W41170  19.715  34.403  13.810
79640W        W41171  38.866  15.254   0.291
79641W        W41172  39.428  13.771   2.678
79642W        W41173  19.766  24.192  11.387
79643W        W41174  11.815  44.346  10.127
79644W        W41175  38.513  31.149   0.396
79645W        W41176  37.491  40.379   4.352
79646W        W41177  32.561  29.536  11.405
79647W        W41178  18.747  29.048   3.284
79648W        W41179  12.222  43.370   1.814
79649W        W41180  28.985  19.669  14.433
79650W        W41181  13.614  36.017  13.432
79651W        W41182  25.673  15.086   3.328
79652W        W41183  32.084  12.284   2.857
79653W        W41184   4.303   4.416   3.748
79654W        W41185  43.834   7.202   1.448
79655W        W41186   4.319  43.897  13.364
79656W        W41187  33.088  15.727   1.331
79657W        W41188  30.907  18.276  14.884
79658W        W41189  30.968  28.186  12.885
79659W        W41190  43.397   4.363   3.778
79660W        W41191  15.745  18.288  11.612
79661W        W41192  29.087  25.497  14.944
79662W        W41193  27.633  38.873   3.235
79663W        W41194   1.753  40.988  11.519
79664W        W41195  12.651  33.481   1.819
79665W        W41196   1.266   5.290   4.598
79666W        W41197  37.531  29.112  13.516
79667W        W41198  12.241  22.207  11.550
79668W        W41199  19.227  17.686  11.031
79669W        W41200  22.519  11.330   4.339
79670W        W41201   8.735  22.100  12.839
79671W        W41202  41.042  12.687   3.762
79672W        W41203  11.139  41.840   1.264
79673W        W41204   7.783  17.740  12.357
79674W        W41205  10.239  24.105   1.392
79675W        W41206  20.218   1.932  10.560
79676W        W41207   5.830  23.016  11.517
79677W        W41208  28.172   3.849  12.938
79678W        W41209   0.983   4.727   1.339
79679W        W41210   3.906  22.203  10.980
79680W        W41211  15.656  26.639   1.798
79681W        W41212  42.858   0.954  14.277
79682W        W41213   0.884  27.600  12.844
79683W        W41214  25.201  20.588  12.556
79684W        W41215   2.421   1.779  13.821
79685W        W41216  41.461  27.173   4.684
79686W        W41217  42.440  44.871  10.449
79687W        W41218  25.012  26.539  10.036
79688W        W41219   7.354  35.390   2.856
79689W        W41220  25.200  10.163  11.434
79690W        W41221  20.693  24.709   2.386
79691W        W41222  44.776  43.427  12.045
79692W        W41223   8.268  16.091  11.569
79693W        W41224  27.485  38.518  12.018
79694W        W41225   2.854  35.483  12.878
79695W        W41226  18.197   9.373  13.380
79696W        W41227  11.660   3.352   0.786
79697W        W41228   0.966  14.778  10.617
79698W        W41229  28.093   5.806  10.644
79699W        W41230  34.417  39.458  11.403
79700W        W41231  12.160  28.507   0.378
79701W        W41232  35.949  25.097   1.348
79702W        W41233  28.082  33.115   1.318
79703W        W41234  33.098   4.324  14.940
79704W        W41235  28.561   9.850  12.994
79705W        W41236  22.151  39.320  10.031
79706W        W41237  35.035   1.299  11.978
79707W        W41238  24.633  19.565   0.374
79708W        W41239   5.341  40.909   0.868
79709W        W41240  20.622  36.889  11.458
79710W        W41241  43.480  22.689  11.855
79711W        W41242  21.201  14.678  11.374
79712W        W41243  31.950  33.607  12.847
79713W        W41244  24.649  27.592  11.946
79714W        W41245  19.204  10.384   2.318
79715W        W41246  14.118  21.752   0.314
79716W        W41247   5.411  36.036  13.827
79717W        W41248   7.871  39.897  13.539
79718W        W41249  28.679  35.549   4.331
79719W        W41250   2.752  21.715   2.701
79720W        W41251  41.358   5.236   2.731
79721W        W41252  25.114  11.308   3.179
79722W        W41253  12.165  44.974  14.352
79723W        W41254  12.278  13.735   1.927
79724W        W41255  43.404  31.523   4.736
79725W        W41256   0.386   8.875   4.299
79726W        W41257  31.558  21.032  12.526
79727W        W41258  39.447  28.998   3.339
79728W        W41259  38.330  14.108   1.934
79729W        W41260  27.526  11.252  11.098
79730W        W41261  40.336  38.541   3.368
79731W        W41262  10.840   0.413  13.379
79732W        W41263  26.136  13.161  12.391
79733W        W41264  35.434  18.213  13.372
79734W        W41265  20.703  25.092  14.463
79735W        W41266  11.145   1.333   2.370
79736W        W41267  37.958   3.946   2.897
79737W        W41268  23.180   7.775  14.488
79738W        W41269   3.446   9.692  14.506
79739W        W41270  37.352  15.102   1.805
79740W        W41271  29.116  32.532   2.364
79741W        W41272  11.784   4.709  14.873
79742W        W41273  34.441  12.143   1.387
79743W        W41274  15.606  22.213   4.285
79744W        W41275  11.347  28.504   1.721
79745W        W41276  33.546  15.090   1.436
79746W        W41277  41.887  42.854  14.968
79747W        W41278  24.535  33.535  13.398
79748W        W41279  19.694  11.228   4.724
79749W        W41280  38.885  20.067   2.792
79750W        W41281  30.501   9.225  12.344
79751W        W41282  28.953  26.589   2.888
79752W        W41283  16.095  20.154  13.329
79753W        W41284   1.870  21.041   0.905
79754W        W41285  40.469  19.550   4.639
79755W        W41286   1.750  36.056  14.926
79756W        W41287  42.902  35.068  12.976
79757W        W41288   0.478  42.377  14.871
79758W        W41289  30.601  27.125  14.003
79759W        W41290   6.395  27.657  14.899
79760W        W41291  18.576  10.139  14.496
79761W        W41292  36.021  27.673  14.382
79762W        W41293   0.962  36.069   3.752
79763W        W41294  31.959  25.652   1.813
79764W        W41295  19.215  11.721  13.983
79765W        W41296  18.051   3.401  12.360
79766W        W41297   3.774   1.859  13.347
79767W        W41298  23.086  34.087  13.503
79768W        W41299  18.116  31.041  13.455
79769W        W41300  26.473   2.857  13.542
79770W        W41301  20.721  41.954   4.261
79771W        W41302  23.060   9.835  12.351
79772W        W41303  35.591   0.372   0.746
79773W        W41304  27.100  34.395   0.920
79774W        W41305  11.763  13.281  13.498
79775W        W41306  39.842  18.659  14.485
79776W        W41307  21.559  12.119   1.754
79777W        W41308   2.868   3.849   3.185
79778W        W41309  42.408  34.583  12.993
79779W        W41310   0.482  26.102  11.866
79780W        W41311  25.607  33.431   2.793
79781W        W41312  26.682  21.711  14.502
79782W        W41313  22.051  28.973   0.834
79783W        W41314  40.523   3.750   1.902
79784W        W41315  42.835  24.173  10.566
79785W        W41316  23.195  11.727   3.149
79786W        W41317   6.373   0.785   2.333
79787W        W41318  24.039   0.841  10.911
79788W        W41319  19.094  20.061   2.835
79789W        W41320  41.337  23.028  13.548
79790W        W41321  40.825  11.251  11.002
79791W        W41322  40.881  29.078  12.880
79792W        W41323  43.897  38.983   4.706
79793W        W41324   5.702   7.740   1.434
79794W        W41325  39.494  41.371   4.807
79795W        W41326  15.316  17.167  11.014
79796W        W41327  37.867  37.359  12.360
79797W        W41328   6.809  30.604  11.947
79798W        W41329  15.273  40.322  13.465
79799W        W41330  32.488  30.466   3.312
79800W        W41331  39.951  33.124  12.965
79801W        W41332  42.801  29.147   2.834
79802W        W41333  10.362  19.542  10.061
79803W        W41334   7.846  41.804   0.361
79804W        W41335  36.885  26.023  14.889
79805W        W41336  11.852   2.871   5.235
79806W        W41337   1.450  35.554  15.000
79807W        W41338  11.297  28.467  14.890
79808W        W41339  13.628  42.511   2.194
79809W        W41340  13.347  11.337   3.748
79810W        W41341  15.176  25.615  11.959
79811W        W41342  19.056  11.143  14.450
79812W        W41343   9.394  40.863   3.253
79813W        W41344   4.755  34.087  14.484
79814W        W41345  39.540  11.684  12.050
79815W        W41346  32.549  25.696  12.573
79816W        W41347  25.048  15.799   2.393
79817W        W41348   3.241  43.765  13.961
79818W        W41349  26.541  17.723  12.443
79819W        W41350   0.451  23.118   3.330
79820W        W41351  28.074  40.519   2.312
79821W        W41352   9.327  31.912   9.952
79822W        W41353  34.098  38.420  13.504
79823W        W41354   3.833  16.190   3.195
79824W        W41355  38.452   6.363   3.842
79825W        W41356  42.871  24.206  12.459
79826W        W41357  41.002  27.691   1.897
79827W        W41358   4.845  13.714   1.395
79828W        W41359  43.891  13.805  10.576
79829W        W41360  21.108  30.650   3.225
79830W        W41361  13.740  36.847   4.733
79831W        W41362  16.710  16.603  12.366
79832W        W41363  22.139  21.610  13.407
79833W        W41364  38.970   2.896  13.030
79834W        W41365  38.455  38.536  12.491
79835W        W41366  37.831  13.610   1.730
79836W        W41367  37.446  37.380  10.619
79837W        W41368  42.441   9.883  12.552
79838W        W41369   4.853  16.109   2.290
79839W        W41370  18.742  30.118   2.758
79840W        W41371  28.094   6.837   3.657
79841W        W41372  21.046   3.230  10.131
79842W        W41373  30.950  30.926   0.421
79843W        W41374   2.228  17.195  10.475
79844W        W41375  11.314   5.877  13.533
79845W        W41376  16.146  30.534  12.569
79846W        W41377  15.800   4.277   2.211
79847W        W41378  10.804  26.637   5.318
79848W        W41379  29.037  12.611  12.006
79849W        W41380  10.234  36.445   0.764
79850W        W41381  36.905  15.269  11.379
79851W        W41382   3.274  24.978   9.676
79852W        W41383  17.301  11.634  11.560
79853W        W41384  25.188  31.478   2.384
79854W        W41385  25.179  27.015   3.861
79855W        W41386  30.658   0.748   0.338
79856W        W41387  13.787   3.300   1.784
79857W        W41388  32.132  41.808   2.717
79858W        W41389   1.840  27.613   2.337
79859W        W41390  20.075   1.900   0.884
79860W        W41391  44.974  23.217   1.772
79861W        W41392  10.874   4.396  11.549
79862W        W41393  23.551  20.728   0.323
79863W        W41394  10.861  27.128   0.943
79864W        W41395  33.459   9.743   3.725
79865W        W41396  40.520   4.224  14.006
79866W        W41397  37.035  10.823   2.400
79867W        W41398  39.013   6.826   3.187
79868W        W41399   9.232  18.151  12.982
79869W        W41400  12.765  16.174  12.891
79870W        W41401  23.734  29.047  10.581
79871W        W41402  29.617  39.340  11.092
79872W        W41403  26.623  42.991   4.331
79873W        W41404  31.045  14.759   0.282
79874W        W41405   9.648   2.308   3.264
79875W        W41406  36.468  29.617   3.312
79876W        W41407  40.884  39.882  11.583
79877W        W41408   6.423  42.000  10.511
79878W        W41409   7.774  41.807   4.796
79879W        W41410  41.399  38.031  12.080
79880W        W41411  34.423  18.622   1.854
79881W        W41412  14.290  33.131  13.964
79882W        W41413  21.082  37.564  11.412
79883W        W41414  36.520  33.979   1.308
79884W        W41415   5.787   2.828   2.787
79885W        W41416  40.023  29.993  14.283
79886W        W41417   4.332  10.318   0.778
79887W        W41418   8.873  37.517   3.347
79888W        W41419   2.739  43.826  11.046
79889W        W41420   8.207  40.498   1.721
79890W        W41421   6.857  20.182  12.939
79891W        W41422   7.354  31.602   1.874
79892W        W41423   2.964  44.379  11.488
79893W        W41424  32.103  29.585  14.353
79894W        W41425  26.193  18.277   0.408
79895W        W41426  11.265  25.151  14.291
79896W        W41427  31.437  37.528   0.827
79897W        W41428  41.940  15.815  10.969
79898W        W41429  44.292  36.079   2.216
79899W        W41430  29.131  18.674  11.083
79900W        W41431  39.053  15.811   2.696
79901W        W41432  27.086   8.839   5.742
79902W        W41433  37.425  32.912  13.541
79903W        W41434  20.648  12.682  13.862
79904W        W41435   0.333   2.277   0.786
79905W        W41436  18.647  26.623   3.861
79906W        W41437  33.075  11.298   0.386
79907W        W41438  40.379  42.876   2.310
79908W        W41439  15.774  38.554  13.316
79909W        W41440  40.853   6.199   3.190
79910W        W41441  16.584  37.992  14.290
79911W        W41442  18.562  20.761   3.288
79912W        W41443  27.512  44.783  12.568
79913W        W41444  43.982  26.678  14.407
79914W        W41445  13.654  36.841  12.961
79915W        W41446  20.039  31.144  11.411
79916W        W41447   2.781  31.512   1.215
79917W        W41448  20.078  22.641   4.692
79918W        W41449  25.065  33.991  13.433
79919W        W41450  17.596  22.550   9.629
79920W        W41451  12.347  13.277  14.795
79921W        W41452  39.468  31.437   0.474
79922W        W41453  10.286  23.115  11.420
79923W        W41454  44.367  11.751  11.494
79924W        W41455  30.544  21.619  13.999
79925W        W41456   0.443  43.373  13.527
79926W        W41457  29.634  18.630  13.449
79927W        W41458  31.484  41.884  10.999
79928W        W41459  33.560  36.433   2.271
79929W        W41460  44.272  36.585  12.852
79930W        W41461  16.756  38.953  13.406
79931W        W41462   4.719   9.818  14.857
79932W        W41463   8.707  40.360   2.846
79933W        W41464  41.397  19.698   2.314
79934W        W41465  44.483   1.423   3.216
79935W        W41466  16.318   8.780  14.327
79936W        W41467  42.007  44.261   4.265
79937W        W41468  15.142  36.917   3.371
79938W        W41469   1.324  23.494   3.841
79939W        W41470  18.204  36.885  14.817
79940W        W41471  27.661  20.225  11.038
79941W        W41472   0.915  25.693   0.403
79942W        W41473   2.949   3.411  12.889
79943W        W41474  40.826  24.165  10.420
79944W        W41475  26.001  42.889  13.022
79945W        W41476  11.799  15.772   4.208
79946W        W41477  15.745  33.499  12.555
79947W        W41478   9.348  34.039   0.953
79948W        W41479  42.372  16.765  13.000
79949W        W41480   3.279  40.833   3.800
79950W        W41481  18.231   4.235  10.547
79951W        W41482  23.669  17.078  12.539
79952W        W41483  14.692  15.184   4.724
79953W        W41484  29.113  12.341   3.766
79954W        W41485  32.014  35.382  14.429
79955W        W41486  27.186  40.811   4.176
79956W        W41487   7.258  23.113  14.861
79957W        W41488   6.884  39.872   1.308
79958W        W41489  40.833   4.318  11.438
79959W        W41490  26.673  34.450   4.266
79960W        W41491  15.820   2.913  11.939
79961W        W41492   1.300  41.353  10.446
79962W        W41493  12.614  36.592   0.751
79963W        W41494  21.115  19.625  10.477
79964W        W41495  26.497  30.912   3.740
79965W        W41496  30.934   1.909  14.786
79966W        W41497  18.282  20.146   4.767
79967W        W41498  11.253  16.790  11.121
79968W        W41499  27.982   4.872  14.790
79969W        W41500  44.853  12.123   0.857
79970W        W41501  29.105  17.741  11.502
79971W        W41502  15.209  11.655   3.854
79972W        W41503  42.459  24.486   4.630
79973W        W41504  36.490   6.725   4.720
79974W        W41505  42.926  42.871  10.936
79975W        W41506  29.087  27.657  10.631
79976W        W41507   7.794   5.222   3.797
79977W        W41508  21.189  41.531  11.509
79978W        W41509  35.007  37.900  14.013
79979W        W41510  24.117   7.218  14.305
79980W        W41511  25.517  10.307  13.843
79981W        W41512  13.665  14.153   5.158
79982W        W41513  26.617  19.675   4.122
79983W        W41514  19.259  37.415   4.711
79984W        W41515  40.043  15.179  12.410
79985W        W41516  11.331  35.959   1.401
79986W        W41517   0.251  12.116  10.939
79987W        W41518  14.638  11.371   3.188
79988W        W41519   4.781  38.497   0.357
79989W        W41520   4.381   3.287  10.455
79990W        W41521   9.877  30.154   4.139
79991W        W41522  31.950  39.460  12.006
79992W        W41523  41.997  30.928   1.246
79993W        W41524   6.783  21.621  12.913
79994W        W41525  27.045  36.376  11.038
79995W        W41526   7.731  33.493   3.369
79996W        W41527  31.951  28.481   2.192
79997W        W41528  33.034   2.417  11.088
79998W        W41529   5.902  17.618   1.720
79999W        W41530  36.965  28.556  10.894
80000W        W41531  19.736   5.706   1.371
80001W        W41532  20.626  27.522  12.474
80002W        W41533  37.934  25.488   4.714
80003W        W41534  36.583   5.891  14.980
80004W        W41535  35.044   9.826  11.918
80005W        W41536  34.990  25.609   2.221
80006W        W41537  21.102  27.562   0.468
80007W        W41538   5.324  39.064   4.672
80008W        W41539  28.991  11.856   1.911
80009W        W41540  27.532  11.799   5.214
80010W        W41541  23.118  31.620   5.223
80011W        W41542  28.957  23.109   3.196
80012W        W41543  14.647  38.869  11.470
80013W        W41544   3.741  40.525  11.907
80014W        W41545  41.812  44.936   0.903
80015W        W41546  22.640  42.309  13.538
80016W        W41547  17.719  33.097  11.963
80017W        W41548  37.069  32.027   2.326
80018W        W41549  28.511  42.803  14.509
80019W        W41550  42.902  43.360   0.910
80020W        W41551  18.282   8.325  13.977
80021W        W41552  38.015  18.578  13.529
80022W        W41553  22.651  31.512   0.458
80023W        W41554  37.435  24.561   2.852
80024W        W41555  29.989  22.525  14.906
80025W        W41556  33.940   0.417  11.462
80026W        W41557  31.453  14.798  11.920
80027W        W41558  26.200  36.070   3.297
80028W        W41559   0.483  15.625  13.491
80029W        W41560  33.055   4.893  14.280
80030W        W41561   7.892  15.205   1.734
80031W        W41562   5.245  12.272   1.774
80032W        W41563  20.553  29.973  10.492
80033W        W41564   3.766  26.168  12.865
80034W        W41565  40.931   3.771  13.947
80035W        W41566   1.876  35.559  14.998
80036W        W41567   3.743  32.013  10.993
80037W        W41568  17.275   9.865   3.387
80038W        W41569  43.888  22.239   2.691
80039W        W41570  39.371   6.749  12.855
80040W        W41571  40.429  30.081   3.691
80041W        W41572   2.853   9.348   2.715
80042W        W41573  14.753   8.195   1.321
80043W        W41574  21.604  36.906   0.304
80044W        W41575   2.755  20.274   4.711
80045W        W41576  23.153   9.156   4.619
80046W        W41577   1.839  12.152   2.720
80047W        W41578  32.390   9.390   0.848
80048W        W41579  38.566   5.903  12.369
80049W        W41580  34.612  44.404   1.750
80050W        W41581   8.336   4.790  14.407
80051W        W41582  25.598  34.896   1.239
80052W        W41583  29.528  31.517  14.443
80053W        W41584   7.876  12.740  12.432
80054W        W41585  19.106  30.968   2.371
80055W        W41586  39.957  21.722  11.112
80056W        W41587   2.344   8.776  10.633
80057W        W41588   2.775  11.728  11.554
80058W        W41589   4.392   3.249   4.643
80059W        W41590  11.710  26.619   0.379
80060W        W41591   6.316  14.732   4.611
80061W        W41592   3.747   3.329  11.097
80062W        W41593   2.439  21.054   3.763
80063W        W41594   5.278  35.471  11.086
80064W        W41595  27.096  42.502  11.409
80065W        W41596  38.334  21.714  14.815
80066W        W41597   7.231  13.242   1.816
80067W        W41598  25.132   1.814   1.359
80068W        W41599  34.442   6.412  14.841
80069W        W41600  33.607  11.289  11.012
80070W        W41601  10.790   8.257  14.763
80071W        W41602  19.636  13.629   3.172
80072W        W41603  34.463  15.244  14.430
80073W        W41604  31.484   1.934  12.526
80074W        W41605  24.521   2.943  11.966
80075W        W41606  43.395  10.267  14.502
80076W        W41607  40.896  13.268   3.246
80077W        W41608  25.514  28.629   2.405
80078W        W41609  29.536  43.871  13.941
80079W        W41610  14.612  28.021   1.223
80080W        W41611  12.295  36.902  10.935
80081W        W41612  30.573  39.872   3.272
80082W        W41613  42.497  23.999   0.892
80083W        W41614  15.636  31.118   2.192
80084W        W41615  17.220  39.063  14.984
80085W        W41616   0.773  16.769   4.646
80086W        W41617   1.395  11.624   4.718
80087W        W41618  33.005  38.377  13.804
80088W        W41619   0.768  33.625  13.395
80089W        W41620  28.538  35.917   1.859
80090W        W41621  43.460   6.750  14.840
80091W        W41622  30.086  18.560  11.406
80092W        W41623  25.197  24.201  14.358
80093W        W41624   0.796  20.544  10.570
80094W        W41625  25.004  26.531   3.640
80095W        W41626  40.928  32.017  12.062
80096W        W41627  16.603  28.612  12.408
80097W        W41628  11.329  35.442  11.425
80098W        W41629   7.323  29.651  13.982
80099W        W41630   7.849  28.111  14.021
80100W        W41631  28.595   7.362   1.708
80101W        W41632  29.654   5.427  11.877
80102W        W41633  22.589  34.070   0.938
80103W        W41634  43.818  40.466   3.744
80104W        W41635  29.113  38.930  13.903
80105W        W41636  22.514  11.772   1.353
80106W        W41637  33.911  42.471  11.428
80107W        W41638  11.707  30.978  11.383
80108W        W41639  42.780  33.451  11.044
80109W        W41640  40.973  21.731  10.569
80110W        W41641  25.210  29.085   1.283
80111W        W41642  31.509  20.668  12.070
80112W        W41643   2.394  32.053  14.332
80113W        W41644   4.805  38.073  10.117
80114W        W41645  28.544  33.445  14.275
80115W        W41646  19.243  18.584  14.423
80116W        W41647  44.450  34.479  10.979
80117W        W41648  26.159  30.571   1.278
80118W        W41649  10.301  20.688   3.768
80119W        W41650   9.868  28.659   2.863
80120W        W41651  24.523  23.209  12.998
80121W        W41652  13.312  12.324   1.891
80122W        W41653  26.168  43.409  13.478
80123W        W41654  12.616  30.125   3.274
80124W        W41655   0.314  13.170  13.019
80125W        W41656  13.208  42.397   3.372
80126W        W41657  33.606  30.928   1.267
80127W        W41658   2.784   1.932   0.750
80128W        W41659  20.664  23.064   3.814
80129W        W41660   7.704  15.090   0.962
80130W        W41661   6.695  44.813   2.247
80131W        W41662  17.207  25.540   3.342
80132W        W41663  23.697   2.386  13.869
80133W        W41664  10.215   7.217   4.811
80134W        W41665  17.299  27.522   1.797
80135W        W41666  27.987  37.858   3.640
80136W        W41667  11.664  31.076  14.011
80137W        W41668  29.614  24.659   3.273
80138W        W41669  25.994  28.043   3.311
80139W        W41670  41.790  27.102  12.394
80140W        W41671  30.624  24.080  14.341
80141W        W41672  32.447   1.938  13.488
80142W        W41673  21.192   1.836   9.931
80143W        W41674  25.563  15.298   0.429
80144W        W41675   2.787  30.072   2.191
80145W        W41676  10.708  27.684  13.993
80146W        W41677  44.462  26.577  13.396
80147W        W41678   8.212   7.865  14.287
80148W        W41679   1.247  34.586   2.208
80149W        W41680  44.291  10.744  13.398
80150W        W41681  23.547  15.255   0.369
80151W        W41682   1.332  22.721   4.620
80152W        W41683  21.050   0.377   4.749
80153W        W41684   5.288   9.149   0.449
80154W        W41685  31.407  40.350   4.689
80155W        W41686  18.226  24.051   0.317
80156W        W41687   4.270   0.812   4.170
80157W        W41688  44.988  25.012  13.536
80158W        W41689  30.563  35.008   4.732
80159W        W41690   7.387  41.311   0.961
80160W        W41691  22.648  16.280  12.961
80161W        W41692  20.704  25.980   0.761
80162W        W41693  18.294  41.029   0.331
80163W        W41694  11.697  42.370  11.956
80164W        W41695  30.117  29.550   1.229
80165W        W41696  42.475  24.033   1.725
80166W        W41697  26.664   1.285   3.711
80167W        W41698  34.075   8.358  12.494
80168W        W41699  36.949  38.452  12.578
80169W        W41700  26.644  30.479  14.857
80170W        W41701  35.401  23.636  11.924
80171W        W41702  29.083  25.092   2.837
80172W        W41703  14.734  13.813   2.797
80173W        W41704  37.954  11.258   4.610
80174W        W41705  32.625  24.172   0.312
80175W        W41706  14.729  36.094  13.491
80176W        W41707  21.148  23.583  13.970
80177W        W41708  16.600  17.775   2.289
80178W        W41709  15.623  12.156   4.682
80179W        W41710  31.521  39.960  14.998
80180W        W41711  15.123  24.200  13.408
80181W        W41712   7.228  27.568   4.686
80182W        W41713  11.334  12.802   4.289
80183W        W41714  39.432  34.445  10.560
80184W        W41715   3.864  26.700  13.490
80185W        W41716  19.080  38.440   0.410
80186W        W41717   6.252  31.509   1.884
80187W        W41718  16.267   1.958   2.693
80188W        W41719   9.834  36.884   1.917
80189W        W41720   5.299  10.638   0.469
80190W        W41721   3.956  39.449   2.830
80191W        W41722  21.187  44.487   2.843
80192W        W41723  31.090  39.971  13.334
80193W        W41724  21.185   9.369  10.919
80194W        W41725  26.054   5.868  12.415
80195W        W41726  30.442   6.769  12.093
80196W        W41727  32.507  15.625  11.605
80197W        W41728  25.986  13.144  12.971
80198W        W41729  26.624  27.950   2.245
80199W        W41730  22.704  20.663   2.214
80200W        W41731  34.373   9.849   1.792
80201W        W41732  23.643  33.120   2.388
80202W        W41733  11.819  30.468   2.268
80203W        W41734  11.810  31.409   3.224
80204W        W41735  30.509  18.062   1.751
80205W        W41736  21.694  12.784   3.837
80206W        W41737  15.172  23.192   2.204
80207W        W41738  39.357  22.008   2.778
80208W        W41739  27.970   1.893  10.418
80209W        W41740  23.985  20.543  11.077
80210W        W41741  31.035   6.363   4.794
80211W        W41742  10.639  19.119   0.363
80212W        W41743  15.295  23.517  14.434
80213W        W41744   7.747  31.026  13.943
80214W        W41745  18.662  23.176  11.037
80215W        W41746  38.915   4.211   3.724
80216W        W41747   2.252  41.471  11.007
80217W        W41748  29.457   8.773   3.714
80218W        W41749  29.925  24.036   3.164
80219W        W41750  44.422  33.010   4.205
80220W        W41751   9.805  39.412   4.263
80221W        W41752  32.441   8.704  13.852
80222W        W41753  30.520   2.433   1.255
80223W        W41754  44.767  26.991   4.147
80224W        W41755  37.510  38.974   2.184
80225W        W41756  29.110  41.421  11.960
80226W        W41757  16.726  25.551  11.586
80227W        W41758   0.894   5.776  11.934
80228W        W41759  34.587  25.637  14.006
80229W        W41760  10.727  29.433  11.517
80230W        W41761  31.064  33.444  13.365
80231W        W41762  28.496  36.427  13.014
80232W        W41763  23.236  37.577  10.469
80233W        W41764  30.930  36.891  12.427
80234W        W41765   3.821  34.589   0.342
80235W        W41766  36.933  44.826  14.429
80236W        W41767  14.270  26.070  11.422
80237W        W41768   6.338  29.154  11.873
80238W        W41769  21.204  12.185   2.313
80239W        W41770  15.229  10.658   3.317
80240W        W41771  44.347  15.197   2.836
80241W        W41772  20.255  17.078   4.638
80242W        W41773  21.749  37.504   4.767
80243W        W41774   0.973   0.798  13.381
80244W        W41775  34.438   1.773  13.954
80245W        W41776  31.931  41.524  11.602
80246W        W41777  15.112   2.780  10.435
80247W        W41778  38.413  19.580   4.683
80248W        W41779   0.887  30.551   2.407
80249W        W41780   5.434  42.856  10.504
80250W        W41781  12.232  38.453  11.125
80251W        W41782  29.558  39.333  13.334
80252W        W41783  43.411  35.891   3.189
80253W        W41784  30.055  29.545   3.728
80254W        W41785  38.457  15.320   2.708
80255W        W41786  26.632   0.301   1.906
80256W        W41787  18.716   7.313  11.056
80257W        W41788  24.646  43.833   0.920
80258W        W41789   7.281   6.915   0.345
80259W        W41790  32.009  28.156  13.401
80260W        W41791  44.351  42.351   5.147
80261W        W41792  31.975  18.141  12.951
80262W        W41793  44.396  32.990  11.898
80263W        W41794  42.935  14.132  11.055
80264W        W41795  43.362  38.994   3.658
80265W        W41796  27.170  27.981   4.117
80266W        W41797  15.256  34.935   0.338
80267W        W41798  36.026   1.880   2.284
80268W        W41799  40.932  32.917   3.762
80269W        W41800  10.737  44.004  11.570
80270W        W41801  20.600  31.485   2.234
80271W        W41802  29.444  10.177  13.499
80272W        W41803  43.988   2.327   3.806
80273W        W41804   5.803  21.262  14.881
80274W        W41805  17.764  23.717   2.693
80275W        W41806  36.888  27.952   4.627
80276W        W41807  43.966  25.688   3.717
80277W        W41808   1.442  27.171   1.253
80278W        W41809  17.187   9.283   4.186
80279W        W41810  25.020   5.924  10.640
80280W        W41811  19.244  21.017  12.825
80281W        W41812  24.655  23.716   0.365
80282W        W41813   1.413   6.894   2.763
80283W        W41814  42.003  43.367   2.387
80284W        W41815   1.365  35.518   4.661
80285W        W41816  28.517  37.937   4.745
80286W        W41817  37.532  11.331   5.120
80287W        W41818  16.190  38.995   0.842
80288W        W41819  20.268  17.299  11.418
80289W        W41820  15.656  33.109  11.414
80290W        W41821  36.069  44.296  10.505
80291W        W41822   5.257  39.032   1.769
80292W        W41823  39.374  10.277   2.304
80293W        W41824   7.324  12.339  13.972
80294W        W41825  43.338   1.769   2.742
80295W        W41826  12.260  16.191  14.493
80296W        W41827  40.541  19.779  12.925
80297W        W41828  10.745  26.526   1.445
80298W        W41829  22.236   9.233  13.995
80299W        W41830  13.652  41.829  11.466
80300W        W41831  30.962  10.373  11.955
80301W        W41832   8.808  24.048  14.788
80302W        W41833  24.154  15.143  13.390
80303W        W41834  20.130  11.208  10.952
80304W        W41835  15.646  16.676   0.399
80305W        W41836  39.965   6.217   4.834
80306W        W41837   0.261  10.330  12.552
80307W        W41838   9.772  24.166  13.926
80308W        W41839  34.874  15.737  14.322
80309W        W41840  42.902   8.729   3.809
80310W        W41841  13.217   4.351  14.493
80311W        W41842  40.902  42.971  12.572
80312W        W41843  22.699  27.673   2.769
80313W        W41844  35.560  10.662  11.392
80314W        W41845  21.702   0.821   1.822
80315W        W41846   5.307  32.975  14.807
80316W        W41847  10.779  19.711   3.724
80317W        W41848  32.069  12.658  14.330
80318W        W41849  15.162  43.968   0.370
80319W        W41850   2.958  40.041   4.754
80320W        W41851   2.943  22.622  13.423
80321W        W41852  42.432  19.197   0.373
80322W        W41853   7.297  44.344  14.501
80323W        W41854  18.680   2.285  12.538
80324W        W41855  22.206   5.194   4.182
80325W        W41856  36.977  38.829  11.890
80326W        W41857   8.813  10.311  13.414
80327W        W41858   2.284  38.407   2.324
80328W        W41859  11.141  34.983  14.845
80329W        W41860  44.427  24.662  10.477
80330W        W41861  33.399  39.440   0.812
80331W        W41862  26.994  40.006  10.597
80332W        W41863  32.052  18.597   0.745
80333W        W41864  35.451   0.316  13.912
80334W        W41865  38.437   2.348  13.951
80335W        W41866   1.440   6.366   2.826
80336W        W41867  17.242  40.372   2.864
80337W        W41868  11.784  13.206  12.916
80338W        W41869  25.095  15.308  11.514
80339W        W41870  33.910   6.808  12.563
80340W        W41871   9.718  40.484   0.814
80341W        W41872  21.224  39.362  12.865
80342W        W41873  12.234  17.681   2.318
80343W        W41874   8.233   8.348  14.995
80344W        W41875  38.539   6.385  13.495
80345W        W41876  32.105  38.330  12.404
80346W        W41877   4.237  19.099  11.886
80347W        W41878   2.273  19.069   3.717
80348W        W41879  21.022   6.916  10.947
80349W        W41880  39.374   3.347   3.716
80350W        W41881   8.277  35.010   0.954
80351W        W41882  28.564  19.542   3.166
80352W        W41883  39.421  22.226   3.859
80353W        W41884   7.743  26.546   4.223
80354W        W41885  20.571   1.405   4.636
80355W        W41886  16.763  10.822   3.659
80356W        W41887  39.992  13.822   4.186
80357W        W41888  28.462  10.636  14.490
80358W        W41889   1.451  34.605  11.911
80359W        W41890   3.945  26.072   5.265
80360W        W41891   2.804  27.010   3.183
80361W        W41892  11.693   0.248   4.772
80362W        W41893   6.773   0.291  14.759
80363W        W41894   8.294  13.292   2.895
80364W        W41895  25.678   8.705  11.471
80365W        W41896  39.450   4.434  11.518
80366W        W41897  28.162  26.631  13.896
80367W        W41898   2.354  24.650   2.821
80368W        W41899  21.036  38.535  10.540
80369W        W41900  43.314  19.576  10.909
80370W        W41901  11.325  11.242  12.580
80371W        W41902  13.177   8.730   3.830
80372W        W41903  13.201  12.162   2.255
80373W        W41904  37.075  39.900   2.317
80374W        W41905  44.005  23.133  12.363
80375W        W41906  29.612  26.040  11.583
80376W        W41907  18.653  27.617  10.499
80377W        W41908  40.490  31.927  10.443
80378W        W41909  20.031  15.635  11.941
80379W        W41910  39.979  44.475  11.556
80380W        W41911  16.625  12.189  13.056
80381W        W41912  39.388  29.576  14.771
80382W        W41913  32.018  28.089  14.472
80383W        W41914   3.736   4.323   0.478
80384W        W41915  40.447  35.099   3.725
80385W        W41916  14.145  40.930  14.885
80386W        W41917  40.386  30.513  14.354
80387W        W41918  11.780  17.177   2.802
80388W        W41919  44.354  10.672   4.807
80389W        W41920   4.247  36.501   3.681
80390W        W41921   2.383   1.321  12.881
80391W        W41922  44.305  43.508  11.975
80392W        W41923   5.363  26.457  12.964
80393W        W41924   6.362   9.788   1.289
80394W        W41925  35.409  34.875   5.322
80395W        W41926  13.663   5.760   4.680
80396W        W41927  25.122  10.716  11.386
80397W        W41928   0.455   5.403  14.949
80398W        W41929  32.519  24.077   1.837
80399W        W41930  10.259  37.913   0.738
80400W        W41931  23.673   6.387  11.117
80401W        W41932   8.722   9.316   1.775
80402W        W41933  22.661  22.159  12.951
80403W        W41934  25.995  30.004   1.362
80404W        W41935  29.925  17.685   0.927
80405W        W41936   8.366  32.903   0.270
80406W        W41937  24.038   6.209  14.329
80407W        W41938  21.537  25.603   0.835
80408W        W41939  18.158  14.775   1.448
80409W        W41940  10.344  42.489  10.464
80410W        W41941   9.197  26.017  13.440
80411W        W41942  25.162   3.953  14.951
80412W        W41943  44.867  10.313  14.448
80413W        W41944  39.538   1.467  13.461
80414W        W41945  20.638  44.936  11.867
80415W        W41946  37.085  31.904  11.547
80416W        W41947  25.576  10.148  11.573
80417W        W41948  39.813   4.437   0.409
80418W        W41949  10.685   0.327   3.298
80419W        W41950   2.767  28.627   4.625
80420W        W41951   6.375  10.272   1.250
80421W        W41952   3.443  19.653  12.005
80422W        W41953  41.844   7.864   0.348
80423W        W41954  44.479  36.939   1.886
80424W        W41955   6.923  26.655   1.254
80425W        W41956  39.982   5.789   4.732
80426W        W41957   4.422  39.350  11.973
80427W        W41958  14.643  27.963   0.739
80428W        W41959  39.374  37.078   3.197
80429W        W41960  25.963  14.197   3.800
80430W        W41961  15.707  19.047  13.432
80431W        W41962  17.138  15.123   1.896
80432W        W41963  15.817  21.170   2.385
80433W        W41964  17.768  32.616  14.851
80434W        W41965  15.680   8.693  11.875
80435W        W41966   3.411  44.499  10.916
80436W        W41967   7.211  11.787   2.669
80437W        W41968  28.045  29.490   3.260
80438W        W41969  29.956  19.220   0.463
80439W        W41970  37.465  18.786   2.845
80440W        W41971   1.364   2.746  14.412
80441W        W41972  16.166  42.331  13.360
80442W        W41973   9.780  17.728   4.748
80443W        W41974  19.051   1.483  13.832
80444W        W41975  19.666  29.611  12.087
80445W        W41976  39.896   5.348  12.881
80446W        W41977  37.861  35.470   0.780
80447W        W41978  29.990   8.337  14.771
80448W        W41979  44.929  24.623  14.952
80449W        W41980   5.908  23.073   3.851
80450W        W41981  11.641  41.958  11.567
80451W        W41982  15.113  32.550  10.404
80452W        W41983  40.884  14.321   1.792
80453W        W41984   4.938   9.798   1.442
80454W        W41985   8.349   4.942  13.317
80455W        W41986  37.057  23.522  14.358
80456W        W41987  32.564  11.277  10.500
80457W        W41988  15.259  26.085  14.761
80458W        W41989  31.629  33.514   2.685
80459W        W41990  31.031  17.699  11.441
80460W        W41991  32.617   2.797   2.880
80461W        W41992   2.928   8.828  11.068
80462W        W41993  42.283  35.858  11.606
80463W        W41994  34.050   9.260  14.458
80464W        W41995  39.493   8.785   4.630
80465W        W41996  39.932  12.663   3.842
80466W        W41997  37.975  21.173  11.421
80467W        W41998  34.874  11.146  13.470
80468W        W41999  10.188  15.812  13.055
80469W        W42000  21.579  17.169   1.726
80470W        W42001  25.566  16.781  14.442
80471W        W42002  27.178  20.125  12.419
80472W        W42003   0.281  38.516   4.791
80473W        W42004  30.978  10.646   0.935
80474W        W42005  17.247  38.866   1.372
80475W        W42006  44.266  28.081   2.788
80476W        W42007  36.027  38.466  14.971
80477W        W42008  13.681  17.639  11.422
80478W        W42009  19.778  29.074   1.383
80479W        W42010  10.253  42.383   4.205
80480W        W42011  42.516  41.886  10.921
80481W        W42012  21.575  30.481  11.988
80482W        W42013  42.310  11.157  11.403
80483W        W42014  19.163  40.484  11.400
80484W        W42015   0.902  18.247   3.205
80485W        W42016  13.608  33.389  10.070
80486W        W42017   1.321  21.659  11.127
80487W        W42018   9.790  36.448   4.256
80488W        W42019  32.116  41.879   0.761
80489W        W42020  26.173  35.108  10.901
80490W        W42021  12.273   5.756  14.924
80491W        W42022  31.988  23.576  13.840
80492W        W42023  31.616  37.019  12.903
80493W        W42024  13.811  24.634  10.420
80494W        W42025  11.724  21.216  11.503
80495W        W42026  41.497  18.577   1.354
80496W        W42027   1.421  36.430   2.179
80497W        W42028   1.927  20.185   2.270
80498W        W42029   7.361  21.187  11.486
80499W        W42030   9.168  33.582   1.241
80500W        W42031  37.971   0.824  10.095
80501W        W42032  14.783  27.105  11.954
80502W        W42033  22.728  25.478   3.712
80503W        W42034   7.772  29.473   1.408
80504W        W42035   4.807  11.334   3.358
80505W        W42036  26.960  43.864  14.489
80506W        W42037  38.328   6.880  12.364
80507W        W42038  32.565   6.681  14.877
80508W        W42039  30.480  28.081  12.003
80509W        W42040  20.033  15.130  14.929
80510W        W42041  18.762   9.836  13.797
80511W        W42042   5.723  19.072   0.368
80512W        W42043  22.097  27.684   3.300
80513W        W42044  14.603  19.109   1.308
80514W        W42045  28.031  33.028  14.389
80515W        W42046  35.406   4.338  12.092
80516W        W42047  25.482  40.961   4.152
80517W        W42048  31.629  32.628   2.293
80518W        W42049  17.113   8.382   1.861
80519W        W42050  11.276  42.422   1.736
80520W        W42051  22.114  40.452  12.479
80521W        W42052  29.601  32.063  13.882
80522W        W42053   0.428   2.744  11.004
80523W        W42054  33.531  30.040  13.430
80524W        W42055  22.071  33.886  13.497
80525W        W42056  37.438  23.527  14.505
80526W        W42057  41.787  23.228  13.913
80527W        W42058  37.054  24.019  12.885
80528W        W42059   4.340  18.684  14.788
80529W        W42060  42.959  13.768  12.975
80530W        W42061  16.610   6.759  14.991
80531W        W42062  41.879  14.809   2.222
80532W        W42063  10.687  35.023  10.476
80533W        W42064  42.027  17.102  11.504
80534W        W42065  14.637  14.805  11.466
80535W        W42066  19.055  41.803   5.172
80536W        W42067   5.403  30.621  14.391
80537W        W42068  41.429  43.290   3.235
80538W        W42069  21.712  30.017   2.314
80539W        W42070  24.655   5.367  14.881
80540W        W42071  26.654   8.719  11.950
80541W        W42072  31.509  14.236   4.735
80542W        W42073  35.413  42.295  13.931
80543W        W42074  33.112  21.597   3.376
80544W        W42075   7.808   0.840   1.438
80545W        W42076   4.717  31.457  10.956
80546W        W42077   7.825  36.066   1.436
80547W        W42078  27.561  29.058   5.115
80548W        W42079  14.738  38.464   3.227
80549W        W42080  36.481  30.945  14.365
80550W        W42081  24.999  37.908   2.226
80551W        W42082  36.378   0.803   4.747
80552W        W42083  44.905  40.483  14.964
80553W        W42084  36.557  42.345   0.919
80554W        W42085  12.684   7.688   2.399
80555W        W42086  11.798  11.661  10.924
80556W        W42087   9.311  13.664   3.634
80557W        W42088  33.051  18.681   2.772
80558W        W42089  13.667   1.445   0.904
80559W        W42090  31.145  12.199  13.909
80560W        W42091  34.030  42.949   1.905
80561W        W42092   2.276  36.852   3.222
80562W        W42093  23.197  36.054  11.107
80563W        W42094   3.772  44.287   2.820
80564W        W42095  24.557   6.341  13.322
80565W        W42096  38.892  20.055  10.588
80566W        W42097   2.873  26.132  13.864
80567W        W42098  25.712  37.478   5.132
80568W        W42099  39.045  24.697  13.982
80569W        W42100   6.401  11.329   4.702
80570W        W42101  28.444  14.775  10.458
80571W        W42102  37.454  41.441   1.830
80572W        W42103  16.756  11.861  13.451
80573W        W42104   4.412   5.433  10.637
80574W        W42105  41.477  20.073   0.366
80575W        W42106  14.116  31.631  12.909
80576W        W42107  34.976  22.128   3.250
80577W        W42108  40.048   2.404   2.669
80578W        W42109  30.108  33.935  14.458
80579W        W42110  36.481  28.164  12.567
80580W        W42111  19.710   9.178   0.347
80581W        W42112  44.966  30.513  10.988
80582W        W42113  12.306  25.547  13.937
80583W        W42114  42.473   4.234  14.886
80584W        W42115  40.303  41.793  10.593
80585W        W42116  14.698  24.625   1.373
80586W        W42117  32.949  41.944  12.355
80587W        W42118   0.322   8.319  12.090
80588W        W42119  29.553  24.205  12.439
80589W        W42120  24.141  44.883  14.800
80590W        W42121  19.165  39.560   9.548
80591W        W42122  43.871  43.945  12.030
80592W        W42123  10.279  44.338  11.892
80593W        W42124  28.537  26.078  11.501
80594W        W42125  28.164   5.789  14.449
80595W        W42126  16.143   8.221  14.770
80596W        W42127  19.190   7.397   1.359
80597W        W42128  13.269   4.766   5.097
80598W        W42129  24.044  31.952   0.398
80599W        W42130  33.088  27.198  14.029
80600W        W42131   1.804  27.466   4.289
80601W        W42132   1.816  23.676  10.146
80602W        W42133  12.268  16.289   1.360
80603W        W42134  14.307   3.429  12.967
80604W        W42135  39.453  25.706  14.334
80605W        W42136   4.788  25.191  13.468
80606W        W42137   3.938  40.991   2.866
80607W        W42138  28.152  38.425   3.785
80608W        W42139  31.122   8.217   0.364
80609W        W42140  21.223  14.285  13.486
80610W        W42141  43.438  25.671  11.940
80611W        W42142  34.502  22.149   4.148
80612W        W42143  41.441  40.997  11.963
80613W        W42144  26.461  32.542   1.443
80614W        W42145  30.016   5.772  14.515
80615W        W42146   3.785  16.777   0.861
80616W        W42147  18.208   5.820  14.918
80617W        W42148  42.330  19.171   0.737
80618W        W42149  40.449  34.546  11.593
80619W        W42150  23.047   4.279  14.955
80620W        W42151  37.448  44.995  13.041
80621W        W42152   6.392   1.738   3.349
80622W        W42153  10.879  20.606   3.838
80623W        W42154  44.479   9.277   1.276
80624W        W42155  11.228   0.410   2.304
80625W        W42156  24.587   1.838  14.986
80626W        W42157  32.959  31.590   0.879
80627W        W42158  30.467  22.052  14.411
80628W        W42159  35.072  39.413   4.640
80629W        W42160  23.031  19.275  12.519
80630W        W42161  32.622  28.159   4.705
80631W        W42162  43.013  32.078  14.999
80632W        W42163  31.029  35.459  12.357
80633W        W42164   3.392  32.004  12.089
80634W        W42165  15.771  24.185  11.862
80635W        W42166  15.297   5.293  13.373
80636W        W42167  32.954  43.463  14.410
80637W        W42168   7.183  29.555   0.851
80638W        W42169   8.238   9.319   3.836
80639W        W42170  37.019  30.150   1.762
80640W        W42171  43.965  13.169  12.369
80641W        W42172  42.846  43.921   2.721
80642W        W42173  16.199  35.992  10.487
80643W        W42174  24.608  42.282  12.445
80644W        W42175   5.212   5.880   2.795
80645W        W42176   5.220  23.114   3.255
80646W        W42177  36.374  13.661  11.516
80647W        W42178  22.044  31.008   2.881
80648W        W42179  34.085  14.251  12.949
80649W        W42180  10.803  36.881   3.727
80650W        W42181  43.856  21.736   3.160
80651W        W42182   6.328  37.908  12.086
80652W        W42183   3.250  39.457   3.248
80653W        W42184  37.400  34.994  11.082
80654W        W42185  12.677  15.248   0.377
80655W        W42186  22.573  32.580  13.988
80656W        W42187  39.818  28.442  13.870
80657W        W42188  25.127   9.716  11.599
80658W        W42189  24.528  13.794  14.342
80659W        W42190  17.652   9.353   1.304
80660W        W42191  37.421   3.399   3.152
80661W        W42192  42.486   6.233  12.482
80662W        W42193  14.635   1.792  14.990
80663W        W42194  38.862  15.316  11.892
80664W        W42195  44.783   5.694   1.799
80665W        W42196  42.503  23.096  12.837
80666W        W42197  11.790  22.070  11.480
80667W        W42198  33.051  34.498   3.682
80668W        W42199  31.488  16.111   5.750
80669W        W42200  35.875  38.057   1.774
80670W        W42201   6.279  39.524  14.013
80671W        W42202  36.392  27.999   1.769
80672W        W42203   2.360  42.875   3.833
80673W        W42204  25.510   6.379  10.618
80674W        W42205  29.607  37.380   5.311
80675W        W42206  29.161   7.183   2.733
80676W        W42207  12.133  30.644   2.734
80677W        W42208  15.144   1.391  12.079
80678W        W42209  38.561   3.347  11.449
80679W        W42210  18.084  10.306  11.996
80680W        W42211  37.069   0.319   2.679
80681W        W42212  28.502  21.536  14.278
80682W        W42213  14.160  40.529   5.214
80683W        W42214  17.607  28.112  14.951
80684W        W42215  37.424   7.786  10.539
80685W        W42216  41.901  43.431   1.828
80686W        W42217  28.562  40.955  11.078
80687W        W42218  35.909  18.603  14.905
80688W        W42219  27.688   9.689  13.890
80689W        W42220   8.875  10.317  11.046
80690W        W42221   2.244  42.032  14.454
80691W        W42222  12.202  24.500   0.395
80692W        W42223   1.249  37.959   3.288
80693W        W42224   7.285  44.413  10.962
80694W        W42225   6.851   2.839  12.364
80695W        W42226  16.797  28.563  10.973
80696W        W42227  39.317  31.029   4.246
80697W        W42228  31.959  40.804  10.954
80698W        W42229   3.927  10.649   4.727
80699W        W42230  41.312   1.815  11.034
80700W        W42231  18.581  41.820   1.743
80701W        W42232  37.352  14.319   1.386
80702W        W42233  14.294  38.890   4.827
80703W        W42234  16.197  22.196  14.906
80704W        W42235   2.730   7.214   1.816
80705W        W42236  22.033  39.391   0.276
80706W        W42237  14.658   9.700  14.463
80707W        W42238   1.432   6.812  11.126
80708W        W42239  17.193  26.534   3.300
80709W        W42240  24.004  43.861   2.675
80710W        W42241  35.499  24.685  13.412
80711W        W42242  44.911  10.291   1.377
80712W        W42243  22.589   8.193   1.842
80713W        W42244   2.832  34.971   4.729
80714W        W42245   4.263  16.672   3.267
80715W        W42246  44.917  26.113   4.721
80716W        W42247  25.562  26.633  11.056
80717W        W42248  40.949  30.654  11.396
80718W        W42249  12.280   0.952   4.190
80719W        W42250   1.397  33.463  11.071
80720W        W42251  31.458  33.901   1.372
80721W        W42252  35.362  25.089  12.482
80722W        W42253  28.624  23.502  12.360
80723W        W42254  44.411  17.204   0.891
80724W        W42255  24.001  30.615   1.318
80725W        W42256   0.746  10.858  14.881
80726W        W42257   9.385  15.811  13.959
80727W        W42258  24.532  10.713   2.827
80728W        W42259   8.818  19.614   3.870
80729W        W42260  11.168  12.277   1.227
80730W        W42261   3.347   3.869  12.058
80731W        W42262  12.168  32.486  13.921
80732W        W42263  41.352  44.408  10.534
80733W        W42264   4.394  35.961   3.225
80734W        W42265  39.903  29.571  12.452
80735W        W42266  27.104  30.528  12.487
80736W        W42267  23.721   1.847   3.184
80737W        W42268  29.521  37.984  14.986
80738W        W42269  27.488  26.041   2.419
80739W        W42270  22.587  39.360   3.853
80740W        W42271  41.385  40.348  11.078
80741W        W42272   4.427  20.528  14.368
80742W        W42273   0.967  26.534  10.532
80743W        W42274  21.103  24.016   0.422
80744W        W42275   1.370  19.153   0.729
80745W        W42276  30.425  17.179   3.338
80746W        W42277  20.121  10.692   4.322
80747W        W42278   0.926  36.576   2.794
80748W        W42279  37.337   0.460   0.267
80749W        W42280  31.556   1.964  14.990
80750W        W42281   6.351  39.005   3.303
80751W        W42282   6.704  41.925   0.923
80752W        W42283  28.019  22.216   0.936
80753W        W42284  36.395  10.746   3.666
80754W        W42285  35.973  22.611  12.375
80755W        W42286   2.872  19.071  12.008
80756W        W42287  34.005   5.304  13.861
80757W        W42288  25.195  10.327   5.210
80758W        W42289  12.854  14.797   4.668
80759W        W42290  31.977  39.883  10.450
80760W        W42291  15.587  33.881  10.891
80761W        W42292  15.762  28.555  10.006
80762W        W42293   1.369  17.212  10.509
80763W        W42294  10.269  42.877   3.261
80764W        W42295  29.017  11.684   4.216
80765W        W42296  16.235  18.748   0.961
80766W        W42297  40.381   1.357  10.918
80767W        W42298   0.802  29.071   1.701
80768W        W42299  19.774  22.139  13.943
80769W        W42300  10.150  36.542  13.993
80770W        W42301  32.436  10.297  12.556
80771W        W42302  26.582   5.363   4.288
80772W        W42303  13.776  22.105  12.360
80773W        W42304   6.391  34.443  14.891
80774W        W42305  13.351   5.760  10.102
80775W        W42306  10.253  36.508   1.211
80776W        W42307   3.319  41.525  14.516
80777W        W42308  13.115  14.163   4.264
80778W        W42309  36.350  23.139   4.353
80779W        W42310   5.248   6.245  14.431
80780W        W42311  16.586  28.613  13.491
80781W        W42312  31.002   7.185   3.293
80782W        W42313   8.282   0.757   3.296
80783W        W42314  17.071  14.106   4.620
80784W        W42315  10.742   4.851   4.601
80785W        W42316  11.639  23.579  13.435
80786W        W42317  22.209  28.085   0.340
80787W        W42318  25.215  38.356   4.216
80788W        W42319  30.938  13.350  13.307
80789W        W42320  40.833  35.935   1.421
80790W        W42321  14.759  37.947  13.320
80791W        W42322  26.517  13.127  11.526
80792W        W42323  12.222  32.887  11.547
80793W        W42324  25.567   1.282   2.387
80794W        W42325  14.095  41.821   3.779
80795W        W42326   6.329  16.579  11.420
80796W        W42327   5.295  25.081   1.867
80797W        W42328  43.333  35.599  14.466
80798W        W42329  31.138  36.097   0.957
80799W        W42330  14.101   6.800  10.595
80800W        W42331  24.145   7.763   1.322
80801W        W42332  35.443  34.869  10.997
80802W        W42333   1.893  29.493  14.794
80803W        W42334  16.638  33.116  13.389
80804W        W42335   5.786  18.572  12.060
80805W        W42336  22.174   8.849   2.832
80806W        W42337  11.223  29.166  11.055
80807W        W42338   6.886  12.241   3.233
80808W        W42339   6.703   8.852   4.267
80809W        W42340  11.182  27.978   2.747
80810W        W42341  13.105  29.066  11.574
80811W        W42342  16.268  18.547   2.847
80812W        W42343  29.136  28.979   2.205
80813W        W42344  22.737  15.597  14.880
80814W        W42345  21.028  18.606   1.929
80815W        W42346  36.497  21.555   2.263
80816W        W42347  10.254  31.065   4.256
80817W        W42348  33.536  32.514  11.042
80818W        W42349  11.158  14.673  13.409
80819W        W42350  39.061   6.887   4.829
80820W        W42351  27.650  22.681  10.992
80821W        W42352   7.719  32.012  13.037
80822W        W42353  38.022  15.271  13.793
80823W        W42354  28.186  35.967   3.174
80824W        W42355  14.743  27.013  13.042
80825W        W42356  37.464  35.944   4.261
80826W        W42357  17.702  18.185   0.370
80827W        W42358  12.166   7.361   3.237
80828W        W42359  32.089   8.734   2.309
80829W        W42360  36.077  40.853   3.258
80830W        W42361   2.320  17.755   0.429
80831W        W42362  41.522  39.024   3.659
80832W        W42363  28.617  30.658   0.286
80833W        W42364  41.366   3.301   1.814
80834W        W42365  42.853   3.338   4.741
80835W        W42366  39.952   5.350  14.017
80836W        W42367  40.443  20.115  12.069
80837W        W42368  43.017   1.973  12.086
80838W        W42369   8.761  40.814   0.468
80839W        W42370  24.990   5.408   4.656
80840W        W42371  40.394  23.501  11.075
80841W        W42372  14.815  20.746   2.859
80842W        W42373  30.469  16.243   1.770
80843W        W42374   1.350   5.402  11.110
80844W        W42375  23.987  25.148   1.230
80845W        W42376   0.889  13.831   4.623
80846W        W42377   3.927  37.856  13.835
80847W        W42378   7.727  36.428   0.852
80848W        W42379  21.613  15.593  12.432
80849W        W42380   3.446  34.996   4.661
80850W        W42381  23.652  23.158   0.250
80851W        W42382  26.476   0.453  11.489
80852W        W42383   6.376  43.491  10.601
80853W        W42384  29.955  30.486  12.869
80854W        W42385  16.253  14.193   1.253
80855W        W42386  38.471  15.205  12.489
80856W        W42387  36.991  26.195   3.837
80857W        W42388   1.845  43.478   4.132
80858W        W42389   8.162   9.202  13.921
80859W        W42390  24.589  18.604  11.376
80860W        W42391  18.598  40.936   2.746
80861W        W42392   1.885   5.427  14.514
80862W        W42393   7.794  37.557  11.110
80863W        W42394  11.665  21.672  13.877
80864W        W42395  11.734   2.905   1.338
80865W        W42396   0.365   4.331   1.270
80866W        W42397  35.977  28.160   3.339
80867W        W42398  20.536  33.961   0.844
80868W        W42399  28.608  24.582  13.919
80869W        W42400   8.238  36.006  11.073
80870W        W42401  37.557  11.199   2.232
80871W        W42402  10.680  31.107   0.811
80872W        W42403  25.539  38.918   2.280
80873W        W42404   1.832  26.168  11.473
80874W        W42405  25.499  32.415   1.228
80875W        W42406   9.331   1.333   0.769
80876W        W42407  30.929  34.386   2.301
80877W        W42408   1.746  40.924   0.843
80878W        W42409   9.809  35.554  11.915
80879W        W42410  36.475  24.198  14.779
80880W        W42411  37.454   4.403  13.384
80881W        W42412  35.951  36.998   4.194
80882W        W42413   3.841  15.317  12.837
80883W        W42414   3.748  44.294  11.550
80884W        W42415   9.709  40.006  10.575
80885W        W42416  35.435   0.331  12.499
80886W        W42417  34.535   5.880  10.900
80887W        W42418   2.814   9.261  13.836
80888W        W42419   1.294  11.654  10.639
80889W        W42420  34.383   9.825  10.497
80890W        W42421   9.786  39.337   0.446
80891W        W42422  24.092  32.926  14.961
80892W        W42423  15.767   1.760   1.300
80893W        W42424  20.654   5.357   1.918
80894W        W42425   6.398  35.068   3.173
80895W        W42426   6.733  23.081  13.993
80896W        W42427  18.177   7.820   1.814
80897W        W42428  14.157  37.055   1.343
80898W        W42429  30.161  18.192   3.292
80899W        W42430  43.478  26.044   0.436
80900W        W42431  32.460  39.410  13.382
80901W        W42432  21.598  29.089   4.308
80902W        W42433  23.537  21.169  12.404
80903W        W42434  41.873  41.981   4.305
80904W        W42435   5.721  35.019  10.613
80905W        W42436  40.821   6.898  13.943
80906W        W42437  41.954  30.578  10.956
80907W        W42438  19.159  26.970  12.929
80908W        W42439  20.694  36.907  13.541
80909W        W42440  13.727  12.788   1.419
80910W        W42441  28.102  41.982   3.856
80911W        W42442  24.116  11.326  12.901
80912W        W42443  19.745  29.657  12.355
80913W        W42444   0.287  19.247   2.699
80914W        W42445  25.128  43.493  11.013
80915W        W42446  11.865  13.234   0.876
80916W        W42447  19.131  29.124  13.393
80917W        W42448  31.645  23.005   4.830
80918W        W42449  15.138  16.292  12.064
80919W        W42450  43.014   9.816   0.425
80920W        W42451   6.787  41.324  14.289
80921W        W42452  17.744   6.687  14.944
80922W        W42453  39.967   9.692   4.159
80923W        W42454  37.976  19.776  14.414
80924W        W42455  35.584  15.253  14.960
80925W        W42456   1.382   4.239  12.446
80926W        W42457  23.677  32.135   4.664
80927W        W42458  23.239  31.556   3.632
80928W        W42459   9.745  29.516   1.834
80929W        W42460   4.233   8.244   4.242
80930W        W42461  35.939  10.655   2.308
80931W        W42462  16.256   4.723   2.824
80932W        W42463  17.659  23.085   4.665
80933W        W42464  14.333  34.926  14.426
80934W        W42465  35.888  14.305   2.778
80935W        W42466  40.474   6.391   2.891
80936W        W42467  17.162  36.000  13.534
80937W        W42468  18.607   5.755   1.896
80938W        W42469  43.010   7.361   3.829
80939W        W42470  22.248  22.701   1.291
80940W        W42471  35.372  37.953   2.314
80941W        W42472   4.295  34.570   0.320
80942W        W42473  31.968  24.024   1.705
80943W        W42474   3.928  41.511   0.379
80944W        W42475  34.566  43.486  13.434
80945W        W42476  13.685  35.397  14.019
80946W        W42477  10.175  12.183   0.816
80947W        W42478   0.745  11.278  14.816
80948W        W42479  31.939   1.951   1.790
80949W        W42480  12.700  20.162  14.933
80950W        W42481  16.077  14.273   0.449
80951W        W42482  28.654   5.333   2.765
80952W        W42483  17.289  12.638   2.280
80953W        W42484  30.133  39.349  14.491
80954W        W42485   4.436  32.609   1.354
80955W        W42486  22.149  42.522   5.741
80956W        W42487  24.044  24.209  12.074
80957W        W42488  14.642  30.914   0.439
80958W        W42489  23.647  27.518   3.172
80959W        W42490  18.092  19.263   0.877
80960W        W42491  22.730   2.832  13.507
80961W        W42492  19.272  10.197   3.828
80962W        W42493  39.527  38.343  12.408
80963W        W42494  20.730   6.270   1.726
80964W        W42495  17.773  29.170  10.501
80965W        W42496  36.969  13.109  14.882
80966W        W42497  43.841  24.580  10.499
80967W        W42498  41.524   1.302  12.533
80968W        W42499  34.398  15.122  13.350
80969W        W42500  33.443  36.937  13.019
80970W        W42501  28.100  11.798   2.406
80971W        W42502  43.942  40.464   2.316
80972W        W42503  42.885  24.520  14.817
80973W        W42504  37.361  29.059  10.453
80974W        W42505  21.740  27.513   2.694
80975W        W42506  19.115  27.688   0.300
80976W        W42507  43.393  41.806  13.472
80977W        W42508  11.824  43.990  13.018
80978W        W42509  20.638  39.846   1.828
80979W        W42510  22.595  25.544   2.396
80980W        W42511   6.866   9.857  12.824
80981W        W42512  44.753   8.341  13.038
80982W        W42513  15.611  12.689   4.321
80983W        W42514  35.406  29.470  14.318
80984W        W42515   1.852  25.595  14.301
80985W        W42516  11.854  19.222  11.907
80986W        W42517   1.875  33.615  12.068
80987W        W42518  33.958  11.754  14.442
80988W        W42519   3.386  18.277   4.619
80989W        W42520   3.755  18.245  14.488
80990W        W42521  31.513  35.022  13.965
80991W        W42522   8.184  21.681  14.924
80992W        W42523  36.416  28.182   0.421
80993W        W42524  33.896  20.535   3.320
80994W        W42525  16.249  12.795  14.963
80995W        W42526  20.634  21.571  12.471
80996W        W42527  22.136  19.552   1.281
80997W        W42528  39.893  25.076  13.402
80998W        W42529  41.851  21.660   1.902
80999W        W42530  44.371   8.814   2.699
81000W        W42531  13.224  37.977  14.278
81001W        W42532  27.522  17.703  11.121
81002W        W42533  34.961  23.592  10.998
81003W        W42534  20.062  23.049  14.378
81004W        W42535  42.458   9.297   2.697
81005W        W42536  23.670  27.172   2.704
81006W        W42537  17.579   5.798  12.525
81007W        W42538  31.904  19.112  14.031
81008W        W42539  20.104  20.754   2.278
81009W        W42540  32.107  33.427   0.366
81010W        W42541  16.595  30.099   1.363
81011W        W42542  19.703  44.975  10.451
81012W        W42543  16.253  12.622   0.933
81013W        W42544   0.307   9.361  13.326
81014W        W42545  42.292  15.578   0.780
81015W        W42546   8.341  18.604   0.294
81016W        W42547  20.576  16.574  10.446
81017W        W42548   2.349   6.733   2.700
81018W        W42549  18.678  26.120   1.844
81019W        W42550  10.330  31.088   0.908
81020W        W42551   5.288  18.565   0.311
81021W        W42552  28.087  21.038   4.793
81022W        W42553  27.607  40.856   4.598
81023W        W42554   9.741   8.797   1.801
81024W        W42555   6.325  22.743  10.005
81025W        W42556  41.891  34.396   5.319
81026W        W42557  28.561  18.204   2.718
81027W        W42558  42.315  16.621  11.986
81028W        W42559   9.325   4.910  14.380
81029W        W42560  24.185  43.978   0.780
81030W        W42561  42.906  43.278  13.955
81031W        W42562  12.265  19.131  14.769
81032W        W42563  19.704  13.679   1.356
81033W        W42564   4.815   4.410  11.880
81034W        W42565  12.799  40.525   4.710
81035W        W42566  19.086  14.130   2.312
81036W        W42567  43.893   5.785  14.959
81037W        W42568  44.504  42.285   0.439
81038W        W42569  35.891  10.638   0.871
81039W        W42570   3.841  32.082  13.987
81040W        W42571  13.784   9.757  14.481
81041W        W42572  38.401   1.734  12.903
81042W        W42573  34.915  34.003  11.962
81043W        W42574  17.709  19.707  13.825
81044W        W42575  38.004   1.287   4.722
81045W        W42576  23.093  13.626   1.227
81046W        W42577  15.623  24.640  12.894
81047W        W42578  38.541  29.094  11.403
81048W        W42579  42.496  44.916  13.327
81049W        W42580  20.643   0.262   0.295
81050W        W42581   8.181  16.731  11.486
81051W        W42582  34.111   6.805  11.083
81052W        W42583  38.840  39.998   3.192
81053W        W42584   1.889  36.490  10.496
81054W        W42585  15.581  20.704   2.880
81055W        W42586  33.029  17.735  10.415
81056W        W42587  22.016  35.460  14.002
81057W        W42588  24.054  14.101   3.323
81058W        W42589  20.147  35.604   0.444
81059W        W42590  12.616   3.304  13.901
81060W        W42591  22.137  35.920   1.345
81061W        W42592  12.788  18.712  10.517
81062W        W42593  33.514  22.241  11.603
81063W        W42594  22.015  41.484  11.121
81064W        W42595  40.909   5.288  13.330
81065W        W42596  39.556  19.705   1.397
81066W        W42597  27.980  38.414  14.933
81067W        W42598   6.233  26.184   2.245
81068W        W42599   4.338   7.364   4.306
81069W        W42600  23.678  27.487  10.562
81070W        W42601   6.347  27.449  11.437
81071W        W42602   1.481   0.439  12.902
81072W        W42603  40.547  39.011  11.111
81073W        W42604  43.321  11.690   2.262
81074W        W42605  35.408   2.281  14.768
81075W        W42606   8.729  19.639   4.258
81076W        W42607  29.154   6.676   2.284
81077W        W42608  20.691  25.607   3.198
81078W        W42609  10.376  34.912  10.931
81079W        W42610  29.444  42.500   3.861
81080W        W42611  29.609  34.519   4.341
81081W        W42612  26.059   9.863  10.420
81082W        W42613  13.639  36.950   0.861
81083W        W42614  40.388  33.014  10.643
81084W        W42615   8.286   8.169   3.200
81085W        W42616  44.266  39.023  12.896
81086W        W42617  18.555  42.339   3.195
81087W        W42618  11.771  41.848   0.953
81088W        W42619  17.222  12.286   0.818
81089W        W42620  33.486  23.038  13.847
81090W        W42621   4.418  36.947   1.929
81091W        W42622  25.666  35.910   5.187
81092W        W42623  42.404  42.868  11.069
81093W        W42624  40.406  13.759  12.922
81094W        W42625  10.655  27.652   2.349
81095W        W42626  37.015  24.494   0.243
81096W        W42627   1.352  25.523  13.363
81097W        W42628   0.949   0.313   2.860
81098W        W42629   8.273  36.397  11.044
81099W        W42630  40.908  44.483   0.372
81100W        W42631  43.347  30.456   3.775
81101W        W42632  11.728  20.695  11.878
81102W        W42633   8.310   0.399   2.824
81103W        W42634  33.472  11.840   4.814
81104W        W42635  44.949   0.275   4.767
81105W        W42636  27.499  19.269  11.548
81106W        W42637  17.231   9.294   3.180
81107W        W42638  40.371  31.901  12.065
81108W        W42639   8.223  40.334  12.904
81109W        W42640  13.119   7.300  14.787
81110W        W42641  18.701  19.129   1.712
81111W        W42642  15.190   4.834  13.426
81112W        W42643   7.678  29.607  13.036
81113W        W42644  14.126  34.886   4.796
81114W        W42645  10.298  43.937  12.044
81115W        W42646  14.173  21.712   4.609
81116W        W42647   2.406  13.119  11.078
81117W        W42648  24.548  19.106   0.474
81118W        W42649  37.351  40.443   0.736
81119W        W42650  38.042  44.454   9.922
81120W        W42651  41.965  16.130   1.740
81121W        W42652  17.213  38.392  10.409
81122W        W42653  25.487   5.209   3.288
81123W        W42654  29.950  15.242   1.790
81124W        W42655  10.640  19.708   2.796
81125W        W42656  44.840  29.624  13.905
81126W        W42657  13.681  20.243   4.696
81127W        W42658  12.614  37.028  13.308
81128W        W42659  10.637  35.972  10.415
81129W        W42660  33.974  10.144   1.364
81130W        W42661  17.068  21.518  13.335
81131W        W42662  42.505   7.890  10.588
81132W        W42663  14.703  13.314  12.846
81133W        W42664  16.088   9.657  14.393
81134W        W42665  25.071   9.163  11.066
81135W        W42666  15.162   0.942  11.040
81136W        W42667  42.903   0.417  12.457
81137W        W42668  26.102  11.691   4.236
81138W        W42669  16.593  20.147  11.006
81139W        W42670   7.358  26.187   3.318
81140W        W42671  37.976  17.659  13.902
81141W        W42672  39.501  34.508  12.031
81142W        W42673  44.801  11.672   3.695
81143W        W42674  39.930  13.653  14.804
81144W        W42675   5.740  33.017  10.543
81145W        W42676  30.924   9.710  11.112
81146W        W42677  29.940  29.165   1.329
81147W        W42678  43.386  12.191  10.443
81148W        W42679   2.450  44.372  11.927
81149W        W42680  27.022  11.698  13.815
81150W        W42681  44.945  16.194   1.882
81151W        W42682   4.359  44.490   3.374
81152W        W42683  44.882  29.955   1.407
81153W        W42684   4.281  30.621  14.425
81154W        W42685  21.523  10.862  14.779
81155W        W42686   2.320  30.140  12.497
81156W        W42687  15.591  43.428   1.450
81157W        W42688  29.594  32.537   0.935
81158W        W42689  36.949  24.034  11.126
81159W        W42690  29.142   6.798   3.282
81160W        W42691   6.899   0.757  13.482
81161W        W42692  40.995  22.221  13.997
81162W        W42693  34.966  27.965  12.423
81163W        W42694  13.256  12.757  13.005
81164W        W42695   6.889  35.969   2.220
81165W        W42696   8.399  14.633  13.420
81166W        W42697  17.157   5.817   0.958
81167W        W42698  35.492   8.781  14.495
81168W        W42699   4.242  31.452  14.942
81169W        W42700  31.907   0.474   1.375
81170W        W42701  43.782  15.762  13.856
81171W        W42702   8.775  27.106  12.888
81172W        W42703  40.901  30.508  12.569
81173W        W42704  24.495  19.060  12.860
81174W        W42705  19.162  31.420  13.900
81175W        W42706   2.351  15.723  14.325
81176W        W42707  41.317  16.784   4.742
81177W        W42708  15.298  37.412  14.866
81178W        W42709  36.061   8.895  13.963
81179W        W42710  44.321  41.418   2.337
81180W        W42711  35.925  18.647   1.262
81181W        W42712   6.328  26.090   4.808
81182W        W42713  44.303  20.047   0.379
81183W        W42714  22.659  41.863  12.973
81184W        W42715  36.028  44.891  12.461
81185W        W42716  24.485   6.846  13.438
81186W        W42717  31.615   2.934   1.299
81187W        W42718   7.728  30.995  12.484
81188W        W42719   2.462  16.718  11.114
81189W        W42720  27.134  15.711   4.796
81190W        W42721   1.976  15.819  10.126
81191W        W42722  18.706  32.605  14.389
81192W        W42723  41.515  20.661   4.119
81193W        W42724  18.068  12.219   4.626
81194W        W42725  40.430  30.471   2.279
81195W        W42726   3.344  26.964   1.836
81196W        W42727  17.257  39.060  13.545
81197W        W42728  36.391  35.492   2.810
81198W        W42729  18.223  30.490  11.426
81199W        W42730  40.525  15.652  13.840
81200W        W42731  38.409   5.797   0.362
81201W        W42732  41.298  11.628  11.450
81202W        W42733  34.950   2.286  13.410
81203W        W42734   4.298  19.544  11.058
81204W        W42735   3.397   8.899  11.066
81205W        W42736  21.213  29.994   0.324
81206W        W42737  44.447   5.347  12.547
81207W        W42738  34.000  19.753  11.604
81208W        W42739   7.221  21.207   4.154
81209W        W42740  30.508  31.604  13.513
81210W        W42741  38.465   0.415   2.765
81211W        W42742  11.709   2.832   4.740
81212W        W42743  41.502  23.206  14.993
81213W        W42744  17.219  40.489  10.462
81214W        W42745  17.592  40.543   1.855
81215W        W42746  19.083  31.421  10.518
81216W        W42747  18.714  34.543   4.175
81217W        W42748  30.523  12.207   3.686
81218W        W42749  30.929  19.042   0.898
81219W        W42750  28.634  13.180  11.977
81220W        W42751  40.307   8.876  11.510
81221W        W42752  39.851  16.770   4.256
81222W        W42753  42.915  25.527  14.941
81223W        W42754  27.524   3.824   1.420
81224W        W42755  34.092  11.834  10.897
81225W        W42756  29.954  44.896  13.405
81226W        W42757  40.896  10.729  14.933
81227W        W42758   4.783  15.094   0.893
81228W        W42759   4.702  27.970   2.765
81229W        W42760  43.516  18.148  11.529
81230W        W42761  16.095   0.832   0.399
81231W        W42762  31.134  17.178  10.418
81232W        W42763   8.830   3.743   0.843
81233W        W42764  43.852   8.747  11.476
81234W        W42765  11.786  26.019  13.368
81235W        W42766   9.340  22.055  13.517
81236W        W42767  40.425  18.221  12.510
81237W        W42768   0.436  31.425   1.319
81238W        W42769  20.070  34.870   4.318
81239W        W42770  19.707  31.547  11.871
81240W        W42771  34.403  29.583   1.318
81241W        W42772  22.223  37.461  10.950
81242W        W42773  14.324  39.421   0.285
81243W        W42774  17.705  10.759  11.044
81244W        W42775  33.069  23.154  13.415
81245W        W42776  15.675   7.789   3.262
81246W        W42777   5.818  27.546   1.890
81247W        W42778  39.945  17.662  12.879
81248W        W42779  18.551  38.998   0.812
81249W        W42780  43.931  13.275   4.333
81250W        W42781   6.816  38.910  13.478
81251W        W42782  24.554  38.923  12.837
81252W        W42783  37.839  40.493   3.156
81253W        W42784  39.453  42.839  11.565
81254W        W42785  41.458  20.037   1.898
81255W        W42786  15.229  44.338  14.027
81256W        W42787   3.346  37.834   4.213
81257W        W42788  39.455  12.305   1.229
81258W        W42789   1.869  33.053  10.509
81259W        W42790  28.940   4.269  11.585
81260W        W42791  29.592   3.381   1.392
81261W        W42792  21.751  34.992  14.761
81262W        W42793  11.713  44.779  11.027
81263W        W42794  29.123  43.859   1.258
81264W        W42795  40.948  16.793  14.440
81265W        W42796  38.562  42.808   2.279
81266W        W42797  11.637  26.517  13.008
81267W        W42798  44.376  37.436  11.580
81268W        W42799  27.654  17.616   3.376
81269W        W42800  31.480  20.184   3.700
81270W        W42801  33.875  11.227  13.312
81271W        W42802  38.522  12.357   5.087
81272W        W42803   9.293  34.433  12.034
81273W        W42804  31.149  38.855   4.157
81274W        W42805   8.380  15.302  11.378
81275W        W42806  10.228   7.307  10.637
81276W        W42807  38.553   8.283  10.481
81277W        W42808  42.945  27.117   0.350
81278W        W42809  11.342  32.544   1.246
81279W        W42810  37.365  25.031  10.015
81280W        W42811   8.234   5.763   1.923
81281W        W42812  13.107  14.621  10.436
81282W        W42813  33.591  40.910   4.726
81283W        W42814   1.249  35.866  13.460
81284W        W42815   2.827  36.354   2.264
81285W        W42816  34.425  13.225  11.442
81286W        W42817   7.409  22.147  14.995
81287W        W42818  18.580  35.405   2.846
81288W        W42819  37.495  36.044   2.898
81289W        W42820   0.825  32.622  14.410
81290W        W42821  13.105  29.081   3.285
81291W        W42822  13.668  25.112   4.149
81292W        W42823  31.034  36.489   3.633
81293W        W42824  42.297  22.192   4.328
81294W        W42825  29.129   2.234  12.976
81295W        W42826  19.613  35.547  13.309
81296W        W42827  24.647  24.160   4.199
81297W        W42828  29.087  37.070  10.455
81298W        W42829  21.740  18.237   3.777
81299W        W42830  27.120   8.234  14.395
81300W        W42831  23.517  40.405   0.263
81301W        W42832  41.313   5.849   4.159
81302W        W42833  37.419  13.171  12.440
81303W        W42834  28.947  15.234  11.527
81304W        W42835  23.630  40.538  12.552
81305W        W42836  41.377   6.785  13.904
81306W        W42837  36.565  41.408   0.443
81307W        W42838  39.496  27.051  11.057
81308W        W42839  34.412  38.965  11.977
81309W        W42840  23.131  37.999  12.360
81310W        W42841  27.016  41.849  14.372
81311W        W42842   2.343  19.598  13.888
81312W        W42843  28.607   4.913   1.751
81313W        W42844   8.807   9.286   0.325
81314W        W42845   1.766  12.126  12.408
81315W        W42846  44.502  21.741  11.901
81316W        W42847  42.331  10.710  13.002
81317W        W42848  38.907  30.052  14.397
81318W        W42849  30.575  31.639   0.747
81319W        W42850  43.871  13.666  13.959
81320W        W42851   9.713  29.602   4.641
81321W        W42852   2.940  22.065   3.270
81322W        W42853  24.611  24.616  14.365
81323W        W42854  39.386  41.375   0.326
81324W        W42855  15.152  42.460   4.671
81325W        W42856  30.973  14.711  13.520
81326W        W42857  36.347  17.168   0.844
81327W        W42858   7.860  18.095   2.748
81328W        W42859  43.876  26.207   4.191
81329W        W42860  17.071   5.722   4.684
81330W        W42861  13.220   2.284  14.457
81331W        W42862  28.134   6.892   5.138
81332W        W42863  23.567  43.799  13.020
81333W        W42864  27.036  30.599   3.712
81334W        W42865  42.906  42.026   3.287
81335W        W42866  35.856  18.769  14.510
81336W        W42867  36.539  37.060   5.601
81337W        W42868  26.017  17.139   4.171
81338W        W42869  23.152  42.282  11.562
81339W        W42870  22.187   2.321  13.376
81340W        W42871  17.251  21.535   3.381
81341W        W42872  27.073  12.180  12.553
81342W        W42873   9.860   1.464   0.910
81343W        W42874   9.758  21.104   3.148
81344W        W42875   2.836  38.393   1.712
81345W        W42876  41.986   7.831  14.796
81346W        W42877  24.621  12.698   0.867
81347W        W42878  28.456  10.167   3.832
81348W        W42879  27.096  29.082  13.399
81349W        W42880  10.825  15.774   0.325
81350W        W42881  40.367  10.211   1.234
81351W        W42882  17.770   3.307  13.892
81352W        W42883  19.537  12.742  10.987
81353W        W42884  20.651  17.594  12.553
81354W        W42885   0.476   8.882  11.555
81355W        W42886  28.532  28.962  10.467
81356W        W42887   2.345  11.332  10.606
81357W        W42888  14.192  22.617   4.666
81358W        W42889  23.608  34.113   2.745
81359W        W42890  41.005  32.910  11.956
81360W        W42891   1.453  39.865  12.529
81361W        W42892   1.268   4.865   2.865
81362W        W42893  19.698  36.537  12.349
81363W        W42894  22.248  42.380   0.297
81364W        W42895  29.051  19.119   2.247
81365W        W42896   6.690  38.841   0.810
81366W        W42897  20.522  40.887  12.454
81367W        W42898   2.731   5.872  11.000
81368W        W42899  37.398   5.398  12.534
81369W        W42900   6.389  25.707  11.985
81370W        W42901  42.456  41.360   2.818
81371W        W42902  18.081  44.976   1.865
81372W        W42903   8.244  29.566  12.385
81373W        W42904  34.922  42.874  11.529
81374W        W42905  12.212  34.870   2.194
81375W        W42906  29.175  31.047  13.485
81376W        W42907   6.397  27.989  11.607
81377W        W42908  30.455  22.719   1.754
81378W        W42909  31.955  14.240  14.357
81379W        W42910  19.626  17.077  13.819
81380W        W42911   1.936  29.007   0.873
81381W        W42912  16.138  43.809  12.894
81382W        W42913  42.425  38.028   3.684
81383W        W42914  17.099   9.692   3.801
81384W        W42915  44.386  37.848  13.362
81385W        W42916  32.053   9.864  10.549
81386W        W42917  18.217  23.228   2.390
81387W        W42918   1.307  30.524  12.906
81388W        W42919  11.650  37.429   3.782
81389W        W42920  15.669  39.542  12.525
81390W        W42921  29.626  21.182  14.354
81391W        W42922  43.334   0.333  11.538
81392W        W42923   1.973   9.837  14.928
81393W        W42924  26.508  39.486   4.173
81394W        W42925  32.987  20.706  11.083
81395W        W42926  37.499  42.435   2.262
81396W        W42927  12.337   5.251   3.206
81397W        W42928  41.840  18.086   0.773
81398W        W42929   6.263  39.971   0.407
81399W        W42930  41.019  34.466   1.300
81400W        W42931  43.423   8.171   4.613
81401W        W42932  10.722  23.599  12.036
81402W        W42933  13.661  13.286   0.911
81403W        W42934   1.293  30.037  11.928
81404W        W42935  27.616  26.184   3.741
81405W        W42936  37.088  26.972  11.612
81406W        W42937  14.656  19.281   1.889
81407W        W42938  15.601  17.794  13.534
81408W        W42939  18.115   1.812   0.832
81409W        W42940  44.931  44.336   3.292
81410W        W42941  42.032  11.347  14.814
81411W        W42942  19.283  42.507   2.744
81412W        W42943  40.407  13.632  11.391
81413W        W42944  41.874  25.498   1.419
81414W        W42945  24.545  22.074  12.510
81415W        W42946  38.445  44.776  10.610
81416W        W42947  35.593  30.648  14.287
81417W        W42948   1.855  10.714   0.878
81418W        W42949  17.789   0.454   4.252
81419W        W42950  19.130  15.140  10.430
81420W        W42951  12.651  16.643   0.939
81421W        W42952  20.587  22.233  14.929
81422W        W42953  15.636  39.555   0.738
81423W        W42954   7.207  29.600  12.967
81424W        W42955  28.451  37.018  10.472
81425W        W42956   2.967  28.505  10.557
81426W        W42957  38.867  17.230  11.892
81427W        W42958  15.115  35.442  14.982
81428W        W42959  33.094  19.163  14.771
81429W        W42960  28.655  34.457   2.322
81430W        W42961  20.061  31.006   3.215
81431W        W42962   2.334  41.531   0.421
81432W        W42963  19.127  34.410  10.421
81433W        W42964  43.411  32.000   4.174
81434W        W42965  27.176  42.454  10.639
81435W        W42966  14.607  29.047   2.270
81436W        W42967  11.648  16.202   3.750
81437W        W42968  36.940  12.219   1.859
81438W        W42969   4.419  36.993   0.258
81439W        W42970  10.324  29.525  11.373
81440W        W42971  22.087  36.040  10.633
81441W        W42972  11.779   8.812  14.030
81442W        W42973  14.307  41.910   2.291
81443W        W42974  31.016  11.146  12.078
81444W        W42975  12.782  21.552   4.705
81445W        W42976  27.959  29.990   0.837
81446W        W42977  20.617  34.414  13.426
81447W        W42978  21.025  37.843   0.878
81448W        W42979  26.696  34.513   2.190
81449W        W42980  39.384  17.224  10.471
81450W        W42981   3.910   0.825   1.263
81451W        W42982  10.295  22.515  11.612
81452W        W42983  35.455  33.061   4.296
81453W        W42984   8.325  12.826  12.553
81454W        W42985   0.339  21.674  13.408
81455W        W42986   9.757   5.333   2.813
81456W        W42987  11.687   4.833  13.895
81457W        W42988  20.712   8.386  10.923
81458W        W42989  23.098  29.609   3.286
81459W        W42990  29.667  39.481  12.920
81460W        W42991  33.888  34.380   4.826
81461W        W42992  27.983  10.336  11.028
81462W        W42993   7.391  15.089   0.321
81463W        W42994  20.757  30.614  11.458
81464W        W42995  17.254  27.492   2.798
81465W        W42996  11.646  12.326  13.427
81466W        W42997   3.348  28.176   3.788
81467W        W42998  42.470  15.591   3.191
81468W        W42999   7.835  42.002   3.280
81469W        W43000  41.396   9.867   2.392
81470W        W43001  29.636  28.033  11.099
81471W        W43002  26.006  31.437  10.042
81472W        W43003  25.653  16.597  10.898
81473W        W43004  22.545  28.564   0.778
81474W        W43005  12.185  17.284  10.409
81475W        W43006  24.042  15.256   0.248
81476W        W43007  25.967  21.528   3.268
81477W        W43008  13.682  37.027  14.935
81478W        W43009  15.155  40.798  14.889
81479W        W43010   9.183  24.164  11.941
81480W        W43011  18.193   1.820  11.561
81481W        W43012   7.255  37.348   0.824
81482W        W43013  17.095   2.791   1.855
81483W        W43014  42.401  14.828  10.616
81484W        W43015   7.286  34.437   0.404
81485W        W43016  10.173  24.149   2.322
81486W        W43017  14.260  21.194  14.460
81487W        W43018   9.656  44.380  13.493
81488W        W43019  35.957   7.299   0.348
81489W        W43020  30.062  15.134  10.440
81490W        W43021  33.572  35.031   4.342
81491W        W43022   1.382   8.789   1.368
81492W        W43023   3.412   4.894  14.505
81493W        W43024  39.539  44.455   2.356
81494W        W43025  33.414  12.120  10.922
81495W        W43026  35.976  13.838   4.157
81496W        W43027  42.471  15.326  14.765
81497W        W43028  14.830  18.129  11.857
81498W        W43029   2.437  43.804   1.760
81499W        W43030   1.259   6.183  13.988
81500W        W43031  14.816  34.604  11.016
81501W        W43032  30.029  19.772  13.021
81502W        W43033  27.624  44.350   2.312
81503W        W43034  25.693  30.603   3.867
81504W        W43035   2.922  42.860  13.483
81505W        W43036   6.898  10.657  12.546
81506W        W43037  43.387  40.934   2.756
81507W        W43038  34.506  26.458  12.526
81508W        W43039  12.769  38.820   0.299
81509W        W43040  30.116  16.753   4.325
81510W        W43041  30.488   1.362  14.783
81511W        W43042  12.656  21.526   1.879
81512W        W43043  13.214  16.175   3.726
81513W        W43044  31.626  39.847   2.212
81514W        W43045  12.615  18.748   0.374
81515W        W43046  19.089  17.142   3.319
81516W        W43047  24.069   3.242  12.969
81517W        W43048  10.142   5.303   3.223
81518W        W43049  34.468  29.437  10.510
81519W        W43050  36.561  33.590   0.902
81520W        W43051  33.440  41.466   0.259
81521W        W43052  22.746  40.394   2.785
81522W        W43053   2.444  40.313  10.463
81523W        W43054  18.280   9.383  14.850
81524W        W43055   5.334  26.198  14.938
81525W        W43056  18.717   7.357   1.826
81526W        W43057   0.270  27.660  14.358
81527W        W43058  36.054  21.024  10.912
81528W        W43059  39.396  36.501   4.283
81529W        W43060  20.539  37.520  10.152
81530W        W43061  17.792  29.933   3.150
81531W        W43062  16.182  42.522  14.304
81532W        W43063  40.376   5.730  14.783
81533W        W43064  31.534   1.900  13.540
81534W        W43065  29.566   5.369   3.372
81535W        W43066  23.127  35.443  10.531
81536W        W43067  17.096  29.669   4.294
81537W        W43068  27.109  39.940  11.602
81538W        W43069  24.563  33.023  14.429
81539W        W43070  28.524  21.062  11.605
81540W        W43071  42.969  33.037  11.432
81541W        W43072  23.642   9.842  12.927
81542W        W43073  41.409   7.791  10.981
81543W        W43074  13.762  28.942  13.880
81544W        W43075  38.014  29.539  10.908
81545W        W43076   3.780  20.084  12.957
81546W        W43077  18.654  35.484   4.668
81547W        W43078   7.735  27.958  14.999
81548W        W43079  40.812   2.938   0.910
81549W        W43080   1.401  16.735   0.349
81550W        W43081   2.897  35.033  13.812
81551W        W43082  25.580  40.346   4.761
81552W        W43083   0.324  20.589  12.350
81553W        W43084  29.595  11.209  14.005
81554W        W43085   7.208  21.545   4.205
81555W        W43086   6.382   8.894  13.543
81556W        W43087  26.504  27.633   3.652
81557W        W43088  44.298  36.450   1.899
81558W        W43089  24.567  41.008   0.267
81559W        W43090  12.233   0.435   2.875
81560W        W43091  22.539  26.069   4.813
81561W        W43092   4.251  22.009  12.553
81562W        W43093  34.436   7.228  11.475
81563W        W43094  34.865  36.522  10.993
81564W        W43095  15.227  27.454  13.500
81565W        W43096  22.655  20.761   3.297
81566W        W43097   1.291   8.768   3.737
81567W        W43098   4.233  24.634   2.296
81568W        W43099  42.407  33.103  12.898
81569W        W43100  10.878  27.520   1.853
81570W        W43101  22.515  14.328   2.690
81571W        W43102  12.651  23.227   2.882
81572W        W43103  31.539  35.456  11.545
81573W        W43104   4.448  37.548   3.731
81574W        W43105  26.109  44.004  13.329
81575W        W43106  25.671  43.823   2.883
81576W        W43107  34.370  21.711  11.411
81577W        W43108  22.697   4.441  10.412
81578W        W43109  39.832  13.215  12.395
81579W        W43110  33.405   2.920   2.816
81580W        W43111   1.858   7.728   3.719
81581W        W43112   6.869   1.448   2.315
81582W        W43113  37.375  18.159   1.249
81583W        W43114  44.395  15.605  11.436
81584W        W43115  31.130  29.084   4.826
81585W        W43116   8.830   9.754   4.702
81586W        W43117  21.640  37.905  12.530
81587W        W43118  24.577  28.570  13.478
81588W        W43119  22.095  37.055  14.786
81589W        W43120  33.431   2.278   3.755
81590W        W43121   8.286  39.014   0.947
81591W        W43122  41.453  32.437  11.459
81592W        W43123   2.471   5.915   4.605
81593W        W43124  43.916  41.943  10.552
81594W        W43125  37.075   6.720  10.929
81595W        W43126  38.843  41.468  11.004
81596W        W43127  30.628  29.981   4.271
81597W        W43128  19.631  29.130   1.788
81598W        W43129  33.011  41.329   1.272
81599W        W43130  36.032  12.851  10.959
81600W        W43131  37.575  23.550   0.364
81601W        W43132  42.838  39.465  14.483
81602W        W43133   7.237  42.385  10.417
81603W        W43134  42.009  10.171  14.300
81604W        W43135   0.904   9.232  14.944
81605W        W43136   0.489   4.800  11.059
81606W        W43137  19.576   3.823  10.597
81607W        W43138  32.445  41.041  12.931
81608W        W43139  44.963   5.201  10.921
81609W        W43140   5.251   4.242  11.900
81610W        W43141  27.069  33.475   4.296
81611W        W43142  44.936  12.265   3.277
81612W        W43143  24.597   2.297  12.516
81613W        W43144  23.615  19.159   0.809
81614W        W43145   4.923  35.956  10.573
81615W        W43146  18.757  17.738   0.455
81616W        W43147  19.154  13.706  12.960
81617W        W43148  43.017  12.831   2.760
81618W        W43149  44.859  18.196   0.914
81619W        W43150   7.693  38.942  13.929
81620W        W43151   6.262  21.681   2.845
81621W        W43152  28.012   4.279   4.173
81622W        W43153  21.628  20.120  10.906
81623W        W43154   7.726   8.712  12.505
81624W        W43155   0.287   2.455   1.854
81625W        W43156  18.550   6.752   2.359
81626W        W43157  10.150  42.937  13.310
81627W        W43158  25.628  44.918   4.302
81628W        W43159  39.944   4.436   4.322
81629W        W43160  26.174  34.515   3.252
81630W        W43161   5.696  44.299   4.287
81631W        W43162  40.844  41.786  14.355
81632W        W43163  23.155  17.768  10.437
81633W        W43164  18.679  24.189   2.182
81634W        W43165  14.163  23.516   4.636
81635W        W43166   5.208   1.371   0.280
81636W        W43167  15.155  39.499   1.356
81637W        W43168   8.321  20.189  14.770
81638W        W43169  16.319  24.646   0.923
81639W        W43170  33.606   0.469   4.775
81640W        W43171  29.641  22.076   2.257
81641W        W43172  24.174  37.500  14.928
81642W        W43173  13.246   5.726   2.820
81643W        W43174  19.220  37.833  14.358
81644W        W43175  40.832   9.274   2.746
81645W        W43176  19.728  20.153  12.923
81646W        W43177   9.365  10.304  14.810
81647W        W43178  21.131  20.536  13.992
81648W        W43179  43.280  13.273  13.025
81649W        W43180   0.983  18.638   0.397
81650W        W43181  34.480  44.989   0.259
81651W        W43182   4.796  21.179  12.483
81652W        W43183  35.528  25.647   4.700
81653W        W43184  42.470   5.899  13.343
81654W        W43185   2.732  44.441   3.223
81655W        W43186  14.230  20.633   4.210
81656W        W43187  21.062  20.068   1.345
81657W        W43188  27.592  28.070  14.854
81658W        W43189  39.401  22.542   2.349
81659W        W43190   7.199   0.940   2.379
81660W        W43191   4.820  39.819   1.421
81661W        W43192  17.616  42.793  12.509
81662W        W43193  31.503  43.865   4.284
81663W        W43194  37.412  41.523  14.483
81664W        W43195  42.021  20.257   1.342
81665W        W43196  14.143  20.701  12.348
81666W        W43197   0.769   1.956  10.523
81667W        W43198  29.628  25.119  11.987
81668W        W43199   7.794  33.572   3.742
81669W        W43200   1.242   5.759  12.489
81670W        W43201   6.793  33.543   2.869
81671W        W43202  27.506  17.086  11.109
81672W        W43203  21.154  38.941  14.013
81673W        W43204  43.864   4.315   1.211
81674W        W43205  40.485  40.958  13.981
81675W        W43206   0.415  20.632   2.388
81676W        W43207  33.959  27.584  13.044
81677W        W43208  30.414  29.444   1.716
81678W        W43209  13.772  37.456  12.450
81679W        W43210  22.641  31.563   3.207
81680W        W43211  40.544  28.183  14.401
81681W        W43212  43.863  37.582   2.887
81682W        W43213  33.547   0.821  14.924
81683W        W43214  15.624  20.186  11.040
81684W        W43215   6.900   2.910  11.090
81685W        W43216  12.703  37.388   1.255
81686W        W43217  34.052   9.293   3.175
81687W        W43218  40.485  10.756  12.367
81688W        W43219  39.384  20.683   3.238
81689W        W43220  39.917   5.278   3.704
81690W        W43221  43.863  10.267   1.754
81691W        W43222   4.711   3.380  10.961
81692W        W43223  22.108  29.586  11.095
81693W        W43224  26.638  19.226   1.279
81694W        W43225   0.277  19.744  12.489
81695W        W43226  11.825  30.037  14.863
81696W        W43227  40.828  27.035  12.429
81697W        W43228  39.403  41.514  11.524
81698W        W43229  25.563  39.867   1.311
81699W        W43230  18.245  16.694   0.299
81700W        W43231  31.996  27.083   3.642
81701W        W43232  16.801  16.085   2.211
81702W        W43233  23.106  26.555   4.153
81703W        W43234   3.272  23.510   2.762
81704W        W43235  18.203  33.567  12.418
81705W        W43236  40.021   5.233   2.855
81706W        W43237  20.172  11.286   2.364
81707W        W43238  32.583  40.392  12.343
81708W        W43239  39.357  15.582  12.094
81709W        W43240  44.282  23.670   3.840
81710W        W43241  37.944   4.885  13.048
81711W        W43242  41.044  27.975   4.615
81712W        W43243  16.242  44.445   3.680
81713W        W43244  24.990  43.985  11.097
81714W        W43245  39.032  11.209   5.113
81715W        W43246  36.386  22.617  10.932
81716W        W43247  23.224  42.306   1.797
81717W        W43248  19.702  43.816   3.685
81718W        W43249  18.767  39.025  14.998
81719W        W43250  22.043  27.964  12.415
81720W        W43251  36.347  22.676   9.920
81721W        W43252  25.701   6.828   4.319
81722W        W43253  33.947  37.431   0.373
81723W        W43254  29.058  36.094  10.950
81724W        W43255  35.371  34.937  13.868
81725W        W43256   0.959  12.286   3.208
81726W        W43257  14.237  16.702  12.902
81727W        W43258  20.044  41.313   1.728
81728W        W43259  40.522  36.396   4.816
81729W        W43260  17.604  40.539  12.489
81730W        W43261   1.241  14.711   4.215
81731W        W43262  28.650  38.511  14.945
81732W        W43263  15.094  29.556   1.885
81733W        W43264  20.043  41.026   1.359
81734W        W43265  28.084   9.384  13.828
81735W        W43266   5.274  40.430   0.317
81736W        W43267   6.915  30.040   2.713
81737W        W43268   1.842  17.251   1.266
81738W        W43269  12.234  25.624   0.445
81739W        W43270  35.062  30.036   4.665
81740W        W43271  17.699  12.723  12.577
81741W        W43272  34.083  11.707   0.879
81742W        W43273  26.512  15.135  10.465
81743W        W43274  33.516  14.635  10.407
81744W        W43275  23.584  41.946  10.968
81745W        W43276  37.489   2.456  11.058
81746W        W43277  30.151  17.668   3.387
81747W        W43278  10.247  23.082  13.488
81748W        W43279   8.834  15.646   3.651
81749W        W43280  18.583  29.589  13.961
81750W        W43281  33.006  14.229  11.590
81751W        W43282  19.213   4.243  12.049
81752W        W43283   0.347  36.522   2.392
81753W        W43284  10.222  15.629  12.036
81754W        W43285  34.042  23.501   3.817
81755W        W43286  38.470  14.615   2.408
81756W        W43287  40.950  14.742  13.499
81757W        W43288  39.912  18.715   4.696
81758W        W43289  40.055  19.612  13.063
81759W        W43290  25.631  33.458   4.639
81760W        W43291  11.234   2.826   0.391
81761W        W43292  19.271  40.015   3.793
81762W        W43293  15.295  35.394   1.926
81763W        W43294  19.773  19.545   4.257
81764W        W43295  33.502  13.229  14.967
81765W        W43296  14.763  39.391  10.946
81766W        W43297  34.019  42.521   1.725
81767W        W43298  12.799  34.992  13.500
81768W        W43299  34.994  23.984  12.008
81769W        W43300  38.438  11.650  12.944
81770W        W43301   8.314  32.529  14.315
81771W        W43302  32.594  29.638  14.785
81772W        W43303  13.165  33.069   3.731
81773W        W43304   7.801  11.225  11.127
81774W        W43305  26.119  19.778  13.884
81775W        W43306  22.577   0.484  11.062
81776W        W43307  15.641   7.176   2.773
81777W        W43308  32.598   0.356   0.394
81778W        W43309   4.808  28.629  14.811
81779W        W43310  32.906   2.371   1.300
81780W        W43311   7.782  10.839   2.721
81781W        W43312  19.123   3.733  11.103
81782W        W43313  42.398  36.031   2.761
81783W        W43314  12.307  14.183   2.345
81784W        W43315  40.838   5.775   4.221
81785W        W43316   9.698   1.809  11.390
81786W        W43317  43.509   9.837   1.856
81787W        W43318  17.623  21.161  14.332
81788W        W43319  23.984   5.228   4.148
81789W        W43320  39.520  39.547  13.383
81790W        W43321  39.421   7.353  13.946
81791W        W43322  43.276  37.569  10.002
81792W        W43323  25.576  37.570   3.316
81793W        W43324   3.386  16.288  12.418
81794W        W43325  38.414  44.941  14.371
81795W        W43326  44.449   5.852  10.444
81796W        W43327  18.052  23.145   1.349
81797W        W43328   9.736  16.313  11.909
81798W        W43329   4.807  14.237  14.937
81799W        W43330  29.574  34.024   1.777
81800W        W43331  33.033  22.237  10.587
81801W        W43332  36.569   8.776   0.960
81802W        W43333   5.412  37.422  12.994
81803W        W43334  18.117  30.494   0.303
81804W        W43335  30.154  30.658  13.414
81805W        W43336  34.538  18.580   0.910
81806W        W43337  33.494  21.697   0.745
81807W        W43338  18.716  13.157  14.960
81808W        W43339  25.521  31.945  10.113
81809W        W43340  11.638  28.530   1.697
81810W        W43341  22.071  32.994  14.975
81811W        W43342  30.059  42.839  14.785
81812W        W43343  11.360   1.373   3.185
81813W        W43344   8.328   2.755  13.449
81814W        W43345  20.241  11.285   4.600
81815W        W43346  38.868  28.977   4.245
81816W        W43347  17.689   2.759  11.094
81817W        W43348   9.263   6.729  14.856
81818W        W43349   1.735  39.455   3.641
81819W        W43350  25.187  23.986   0.370
81820W        W43351   5.400  11.706   2.265
81821W        W43352  42.309  33.934   2.710
81822W        W43353  43.420  32.521   0.843
81823W        W43354  25.555  26.097   0.360
81824W        W43355  30.585  42.331  14.497
81825W        W43356  20.683  18.745   1.703
81826W        W43357  11.164  39.525  14.440
81827W        W43358   8.807   9.313  11.611
81828W        W43359   8.665  11.350   2.182
81829W        W43360  26.143   5.413  11.394
81830W        W43361  43.844  13.126  13.515
81831W        W43362  24.114  35.978   3.299
81832W        W43363   4.783   3.398  13.983
81833W        W43364  26.063  22.552  10.535
81834W        W43365  11.232  24.149   1.433
81835W        W43366  31.972  16.196  12.561
81836W        W43367  16.672  10.833  11.940
81837W        W43368  41.967  10.217   4.712
81838W        W43369  33.115   1.434   0.310
81839W        W43370  40.808  22.625  10.611
81840W        W43371  24.492   2.936  14.934
81841W        W43372  38.821   0.289   4.703
81842W        W43373  16.807  14.602  10.442
81843W        W43374   3.351  26.141   3.297
81844W        W43375  24.222  40.024   9.559
81845W        W43376   0.827  32.115   1.695
81846W        W43377   8.767  37.862   1.293
81847W        W43378   6.858  14.270   3.240
81848W        W43379  19.219  25.191  12.896
81849W        W43380  23.515   2.887  13.529
81850W        W43381  44.827  37.922  12.358
81851W        W43382  25.698  22.179   3.360
81852W        W43383  19.540  20.052   4.820
81853W        W43384   0.925  12.684  13.309
81854W        W43385  32.935  35.022  14.766
81855W        W43386  30.611  31.529   2.727
81856W        W43387  12.337   1.458   3.256
81857W        W43388  31.543  39.843  13.889
81858W        W43389  32.407  28.619   3.339
81859W        W43390  38.975  35.447  11.058
81860W        W43391  22.693  41.919   1.870
81861W        W43392  26.057  36.423   2.364
81862W        W43393  27.027   6.849  12.535
81863W        W43394  16.317  33.042   2.892
81864W        W43395  24.134   7.680  13.010
81865W        W43396  38.562  38.838  13.889
81866W        W43397  43.416  39.371  13.994
81867W        W43398  43.940   4.270   1.716
81868W        W43399  31.648   4.346  11.990
81869W        W43400   8.227  30.438  12.070
81870W        W43401  31.933  16.594  12.526
81871W        W43402  18.294  21.734   0.434
81872W        W43403  13.825  16.247   1.862
81873W        W43404  15.175  41.038   4.288
81874W        W43405  22.567  18.241  12.398
81875W        W43406  23.505  17.724   3.815
81876W        W43407   0.293   5.363  12.837
81877W        W43408  42.343  13.770   4.231
81878W        W43409   3.816  10.749   3.641
81879W        W43410  30.925  15.140   2.726
81880W        W43411   9.723   4.337   2.701
81881W        W43412   8.781  15.758  12.504
81882W        W43413  37.871   5.238   1.754
81883W        W43414   7.273   5.904   0.453
81884W        W43415  15.760  41.301   3.367
81885W        W43416  40.008   9.314  10.932
81886W        W43417   2.913  44.311   2.807
81887W        W43418  18.090  34.491   1.303
81888W        W43419  20.664  41.506   1.283
81889W        W43420   8.274   5.296  11.506
81890W        W43421  23.193  39.533  12.851
81891W        W43422   4.388  41.918  14.339
81892W        W43423  16.753   6.272   2.276
81893W        W43424  31.090  22.512  14.846
81894W        W43425  22.669  29.553  10.917
81895W        W43426  18.771  15.633   4.740
81896W        W43427   0.459   1.977   0.910
81897W        W43428   7.392  34.472   4.637
81898W        W43429  37.940  36.448   2.419
81899W        W43430  12.705  27.099  11.402
81900W        W43431   0.327   2.315  12.039
81901W        W43432  25.524  42.291  10.529
81902W        W43433   7.193  26.092   2.834
81903W        W43434   4.908  30.525   3.327
81904W        W43435  27.062   9.279  12.399
81905W        W43436  21.644  33.892  11.591
81906W        W43437  26.629  36.031  14.808
81907W        W43438  39.377  17.191   4.743
81908W        W43439  44.875  12.752   0.946
81909W        W43440  43.862  18.205  12.453
81910W        W43441  32.549  26.174  10.944
81911W        W43442  15.607  28.045   0.749
81912W        W43443  33.497  32.402   1.401
81913W        W43444   3.261  27.668  14.920
81914W        W43445  40.864  37.496   0.326
81915W        W43446   5.846  28.588  12.474
81916W        W43447  39.863  36.490  11.409
81917W        W43448   7.261  12.694  13.890
81918W        W43449  13.154  41.820   0.777
81919W        W43450  37.577  18.640   0.411
81920W        W43451  35.553  10.359   0.299
81921W        W43452  14.294  39.056  12.442
81922W        W43453  44.425  38.473   3.754
81923W        W43454   1.883  44.983   1.248
81924W        W43455  38.867  44.909   1.727
81925W        W43456  33.533   0.273  12.054
81926W        W43457   1.406  28.605  12.983
81927W        W43458  44.832  31.930   3.704
81928W        W43459  19.639   7.342  12.496
81929W        W43460  41.043   6.401   3.691
81930W        W43461  20.060  27.094   4.294
81931W        W43462  29.948  40.521  10.994
81932W        W43463  36.573  38.927  13.930
81933W        W43464   1.280  24.069  12.487
81934W        W43465  30.441  35.981   4.345
81935W        W43466  42.365  39.934  13.510
81936W        W43467  22.179  41.845   3.289
81937W        W43468   2.822   5.382   1.386
81938W        W43469  18.725  11.641   5.262
81939W        W43470  27.677  43.979  10.983
81940W        W43471  24.133   6.239   0.804
81941W        W43472  11.187  42.309  13.419
81942W        W43473  13.822  41.896   1.894
81943W        W43474  39.447  40.019   3.281
81944W        W43475  20.748  13.298  11.539
81945W        W43476   7.871   7.744  14.868
81946W        W43477  18.647  38.449   1.373
81947W        W43478  40.982   4.242   1.444
81948W        W43479   6.830  19.117   2.770
81949W        W43480  12.203  11.634  14.023
81950W        W43481   7.738  15.219  11.481
81951W        W43482  30.414   9.882   3.794
81952W        W43483   2.814   8.731  11.406
81953W        W43484  14.221   2.892   2.732
81954W        W43485   2.355  15.709  13.418
81955W        W43486  37.438   5.212   1.703
81956W        W43487  15.647  39.015   0.948
81957W        W43488   2.963   9.219   4.768
81958W        W43489  16.602  42.505   4.821
81959W        W43490  22.238  18.105   1.834
81960W        W43491  19.648  44.006   0.290
81961W        W43492  32.601   3.911  12.088
81962W        W43493  22.205  28.515  12.577
81963W        W43494  14.798  25.635  12.915
81964W        W43495   7.779  25.973   0.788
81965W        W43496  22.069   4.336   2.840
81966W        W43497  17.782  40.517  10.415
81967W        W43498  22.569  19.056   3.655
81968W        W43499  12.683  20.073   3.684
81969W        W43500  28.126  22.656   1.724
81970W        W43501  18.076  13.825  10.460
81971W        W43502  34.060  13.259   1.858
81972W        W43503  12.318  10.156   3.351
81973W        W43504  26.655  28.487   3.845
81974W        W43505  15.676  16.566   1.261
81975W        W43506   9.377   0.389  10.159
81976W        W43507  13.146   3.222  14.994
81977W        W43508  42.777  27.464  14.000
81978W        W43509  20.251  41.349  12.482
81979W        W43510  12.285   6.186  10.604
81980W        W43511  10.838  39.059  12.891
81981W        W43512   8.827  15.653  14.955
81982W        W43513  26.170  38.075  13.922
81983W        W43514  36.554  33.562  12.385
81984W        W43515  11.672   8.839   3.361
81985W        W43516  40.535   0.950  13.439
81986W        W43517  27.017  30.529   3.251
81987W        W43518  33.519  17.285  13.885
81988W        W43519  36.095  35.470  14.855
81989W        W43520  14.608  16.608  14.331
81990W        W43521  27.520  16.194   2.403
81991W        W43522  14.235   2.466   3.202
81992W        W43523  30.433  40.377   2.798
81993W        W43524  24.221  19.044  12.531
81994W        W43525  36.072  18.756  11.533
81995W        W43526   8.403  22.695   2.755
81996W        W43527   4.850  13.633  12.965
81997W        W43528   6.295   3.418  14.786
81998W        W43529   0.413  33.481   4.220
81999W        W43530   9.202  14.709  14.375
82000W        W43531  26.595  28.114  13.042
82001W        W43532   5.354  29.548   1.249
82002W        W43533  11.802  38.994   0.733
82003W        W43534  11.272  17.117   0.963
82004W        W43535   9.367  25.073   4.217
82005W        W43536  29.651  14.259  11.074
82006W        W43537  10.830   6.205  14.494
82007W        W43538  25.050   9.154   2.856
82008W        W43539  22.567  36.867  10.644
82009W        W43540  35.957  14.741  13.830
82010W        W43541  34.575   4.941  10.436
82011W        W43542   4.784  22.631  14.879
82012W        W43543   5.759  34.418   3.632
82013W        W43544   7.858  37.482  12.993
82014W        W43545   8.718  32.572   2.870
82015W        W43546  38.494  12.147   3.713
82016W        W43547  39.459  13.108  12.406
82017W        W43548  35.995   5.357   0.882
82018W        W43549   5.877  41.327   2.402
82019W        W43550  11.219  19.139  10.933
82020W        W43551  29.044  12.164  13.846
82021W        W43552  35.392   2.892  10.442
82022W        W43553   1.405  39.880  14.329
82023W        W43554  44.789  25.673   3.283
82024W        W43555  29.473   9.733   1.260
82025W        W43556  33.594  16.097   0.773
82026W        W43557  36.434  18.782  12.061
82027W        W43558  41.800  12.226   9.992
82028W        W43559   7.823  30.536   0.748
82029W        W43560   9.699  20.532   4.674
82030W        W43561  43.367  18.610   0.906
82031W        W43562   2.902  43.318   1.416
82032W        W43563  15.808  13.164  10.551
82033W        W43564  25.608   8.752  13.987
82034W        W43565  15.780  24.644  13.900
82035W        W43566  29.947  12.235   1.359
82036W        W43567  35.454  16.700  10.904
82037W        W43568  32.396  11.139  13.050
82038W        W43569  11.729  14.135  14.332
82039W        W43570  24.535  25.572  12.403
82040W        W43571  16.253   6.258   2.179
82041W        W43572  28.162  28.023   1.717
82042W        W43573   8.833   8.306   3.378
82043W        W43574   8.387   5.722   4.759
82044W        W43575  29.470  39.845   4.792
82045W        W43576  32.070  39.427  10.620
82046W        W43577  35.915  20.198   3.182
82047W        W43578   1.900  38.421   0.277
82048W        W43579  13.266  35.446  14.968
82049W        W43580   2.799  35.013   1.827
82050W        W43581  40.537  32.584  13.810
82051W        W43582  15.759  35.930  10.987
82052W        W43583   9.282  32.410  13.934
82053W        W43584   2.858  16.710  10.968
82054W        W43585  43.386  40.499  13.386
82055W        W43586   1.443   2.923  12.828
82056W        W43587  15.793  29.924   2.184
82057W        W43588  31.422  44.425  10.991
82058W        W43589  26.107   3.357  11.470
82059W        W43590  41.362   4.730   3.714
82060W        W43591  36.347  24.696  10.634
82061W        W43592  35.958   3.767   2.184
82062W        W43593  41.039   8.167   0.949
82063W        W43594  32.428  14.229   1.378
82064W        W43595  37.568   1.832  10.127
82065W        W43596   2.341  26.065   4.153
82066W        W43597   8.865  32.601  13.972
82067W        W43598   2.727  30.449   0.742
82068W        W43599   4.329  42.283   2.707
82069W        W43600  20.230  26.105  12.467
82070W        W43601  40.522  11.368   4.619
82071W        W43602   4.712  10.183  14.980
82072W        W43603  25.094  14.777   4.352
82073W        W43604  14.278  36.082  14.410
82074W        W43605  27.652   2.808  11.388
82075W        W43606  11.228   9.170   2.215
82076W        W43607  24.720   4.398   3.258
82077W        W43608  41.975  32.081   5.306
82078W        W43609  13.347  40.435   3.690
82079W        W43610  20.539  15.655   0.407
82080W        W43611  23.133  11.145  14.947
82081W        W43612  27.963  34.887   3.341
82082W        W43613   8.161   4.294   3.318
82083W        W43614  15.328   8.757   3.818
82084W        W43615  24.582   7.348   0.407
82085W        W43616   6.251  43.797  14.861
82086W        W43617  40.032  13.136  11.981
82087W        W43618  42.917  28.062   2.242
82088W        W43619  35.022  31.935  12.346
82089W        W43620  20.617  12.323   0.433
82090W        W43621  14.766  15.608  11.029
82091W        W43622  31.005  31.014  13.441
82092W        W43623   0.859  20.618  12.861
82093W        W43624  21.662  21.224  14.393
82094W        W43625  36.424  43.814  12.985
82095W        W43626  19.753  19.140   0.329
82096W        W43627  34.976  15.220  11.909
82097W        W43628  31.407  31.474  14.484
82098W        W43629  30.489  10.779   2.184
82099W        W43630  40.002   3.723  13.348
82100W        W43631  38.016  30.467  12.492
82101W        W43632  15.180  24.520   0.900
82102W        W43633   9.375  42.362  15.000
82103W        W43634   3.938  28.487  12.055
82104W        W43635  44.487   6.687  11.896
82105W        W43636  20.677   8.766   4.683
82106W        W43637   4.317  14.744   2.373
82107W        W43638  30.957  10.765   2.691
82108W        W43639  28.024  24.089   0.253
82109W        W43640   2.792   9.786   4.189
82110W        W43641  28.973  18.147  12.877
82111W        W43642  43.932  33.498  13.022
82112W        W43643  43.805  33.968   3.199
82113W        W43644  18.083  15.756   2.222
82114W        W43645  28.984  34.489  11.983
82115W        W43646  19.654  25.089   3.351
82116W        W43647  24.542  23.649   0.835
82117W        W43648  34.874   5.891  14.826
82118W        W43649  35.474   2.443   4.195
82119W        W43650  19.124  13.728  12.567
82120W        W43651  40.862  12.758   4.792
82121W        W43652   3.441  11.677   5.175
82122W        W43653  39.354  15.330  13.886
82123W        W43654  25.962  10.163  12.400
82124W        W43655  25.154  43.422  11.431
82125W        W43656  28.581  22.047  10.506
82126W        W43657   9.247  43.348  12.922
82127W        W43658   8.684   0.742   3.262
82128W        W43659  14.723  22.625  12.034
82129W        W43660  33.087   3.840   2.901
82130W        W43661  25.521  35.368  11.005
82131W        W43662  36.922  34.980  11.019
82132W        W43663  26.075  14.690   3.333
82133W        W43664  44.319  42.496   4.827
82134W        W43665  35.500   9.314   3.743
82135W        W43666  22.038  44.367   4.164
82136W        W43667  20.267  29.608  12.832
82137W        W43668   1.382   8.693   4.688
82138W        W43669  38.370  44.348   3.674
82139W        W43670  36.584   0.385   2.694
82140W        W43671  21.067   6.329   3.791
82141W        W43672   9.704   6.298   4.138
82142W        W43673  43.003  23.541  11.408
82143W        W43674  16.670  39.397  13.953
82144W        W43675  15.187  42.023  12.578
82145W        W43676   2.946   0.439   2.346
82146W        W43677   5.911  12.243  12.935
82147W        W43678  36.938  31.080  11.419
82148W        W43679   4.933  25.137  14.482
82149W        W43680  26.542  40.888   2.196
82150W        W43681  13.830  42.891   2.230
82151W        W43682   6.819  27.477  13.935
82152W        W43683   2.908  21.661   1.872
82153W        W43684   7.348  37.354   4.342
82154W        W43685   2.738  17.254   3.854
82155W        W43686  16.141  28.031  10.022
82156W        W43687  24.663   3.921  12.873
82157W        W43688  34.423   7.741  12.363
82158W        W43689   1.955   8.712  10.635
82159W        W43690   0.402  22.729   4.163
82160W        W43691  27.120  44.867   2.278
82161W        W43692   3.407   7.411   3.686
82162W        W43693  19.609   3.324  12.514
82163W        W43694  22.131  32.052  10.996
82164W        W43695  44.273  43.379   4.143
82165W        W43696  14.241  35.913  14.819
82166W        W43697  34.086  23.146   4.281
82167W        W43698  25.505  30.572   1.442
82168W        W43699  29.629  12.741  13.059
82169W        W43700  38.068  24.610  14.481
82170W        W43701  38.851  16.604   0.846
82171W        W43702   8.260  43.764  12.493
82172W        W43703  39.054  25.527  12.427
82173W        W43704   7.857  33.611  13.006
82174W        W43705   6.258   8.202  13.910
82175W        W43706   3.800  33.458  10.068
82176W        W43707  27.495  38.401  11.372
82177W        W43708   5.402  21.181   3.785
82178W        W43709  18.617  28.438  12.525
82179W        W43710  12.675  23.501  10.918
82180W        W43711   4.279   6.887   2.413
82181W        W43712  41.292  13.315  13.480
82182W        W43713  43.378   7.860   0.961
82183W        W43714  43.766  12.135  10.546
82184W        W43715  29.556  10.375   5.675
82185W        W43716   2.317   6.298   2.387
82186W        W43717  24.498  40.021   1.291
82187W        W43718   6.360  23.733   1.854
82188W        W43719  32.463  13.112  11.871
82189W        W43720  44.820  17.246   3.713
82190W        W43721  41.355  42.374  11.546
82191W        W43722   2.287  42.820  12.880
82192W        W43723  41.010   6.184   0.939
82193W        W43724  14.768   3.411   5.220
82194W        W43725  32.637   6.426   3.200
82195W        W43726  10.376  15.178   3.756
82196W        W43727  39.963  33.904  10.937
82197W        W43728  23.505  18.640  13.898
82198W        W43729   1.244  18.127   0.758
82199W        W43730  21.185   8.222   1.762
82200W        W43731  21.220  40.383   5.308
82201W        W43732   2.843  27.986   3.265
82202W        W43733  36.593  27.134   2.264
82203W        W43734   8.747  11.252  12.090
82204W        W43735  15.250  25.161  12.836
82205W        W43736  42.928  44.267   0.246
82206W        W43737  21.620  20.187   0.408
82207W        W43738   3.450  22.540  13.054
82208W        W43739  17.158  11.825  14.789
82209W        W43740  39.978  41.825   0.921
82210W        W43741  30.525  20.240   1.815
82211W        W43742  26.192  14.138   2.312
82212W        W43743  13.233   4.797   0.859
82213W        W43744  13.248  21.674  12.568
82214W        W43745  38.895   5.409   0.761
82215W        W43746  21.711  11.851  12.883
82216W        W43747  33.078  26.179   4.661
82217W        W43748  44.456  31.428   2.318
82218W        W43749   1.401   3.799  11.448
82219W        W43750  27.602  38.008   1.353
82220W        W43751   3.864  21.137   0.377
82221W        W43752  27.685   3.807   1.765
82222W        W43753  41.402   6.676  12.427
82223W        W43754  41.478  38.372  10.958
82224W        W43755   5.422  23.714   2.337
82225W        W43756  27.517  40.445  10.993
82226W        W43757  21.687  23.075  11.944
82227W        W43758  16.613  43.407   4.338
82228W        W43759   5.696  44.923  11.027
82229W        W43760  20.547  38.022   2.303
82230W        W43761  44.851  38.352  12.918
82231W        W43762  31.414   5.349   3.870
82232W        W43763  34.936  43.458   4.328
82233W        W43764   6.206  24.996  14.786
82234W        W43765  44.926  36.500  12.445
82235W        W43766  34.067  44.455  10.895
82236W        W43767  18.743  14.788   0.303
82237W        W43768  29.985  26.143   2.403
82238W        W43769  41.391  41.347  11.027
82239W        W43770  37.404  44.771  10.541
82240W        W43771  29.164  20.738   3.212
82241W        W43772  33.552   1.416   2.771
82242W        W43773   5.374  23.523  10.527
82243W        W43774  20.581  14.597  12.452
82244W        W43775  30.600  38.872  11.868
82245W        W43776  18.546  12.818   0.733
82246W        W43777   0.801  33.111   1.874
82247W        W43778  36.947   2.266  14.281
82248W        W43779  34.025  28.993  12.031
82249W        W43780  40.318  41.444   1.371
82250W        W43781   4.430  13.655   2.383
82251W        W43782  30.478  35.918   3.702
82252W        W43783  26.701   5.914   2.779
82253W        W43784  38.455  36.421  13.458
82254W        W43785  43.962  38.922  13.371
82255W        W43786   8.399  40.321  13.414
82256W        W43787  37.084  29.574   0.331
82257W        W43788  37.407  17.736  13.849
82258W        W43789  16.277   7.380  11.875
82259W        W43790   6.330  22.672   0.445
82260W        W43791  12.779  36.571  14.433
82261W        W43792  38.399  39.821   4.708
82262W        W43793  27.014   1.436  12.428
82263W        W43794  17.740   7.245   3.641
82264W        W43795  18.662  15.790  14.820
82265W        W43796   4.253  27.042   2.183
82266W        W43797  21.186  13.235  11.003
82267W        W43798  33.504  15.116  11.538
82268W        W43799  28.490  28.483  12.475
82269W        W43800  28.647  39.520   0.753
82270W        W43801  28.630   5.329   3.694
82271W        W43802  25.660  30.060  12.972
82272W        W43803   2.338  30.959  11.890
82273W        W43804  42.808  14.309   0.398
82274W        W43805  25.545  22.695   2.867
82275W        W43806  36.443  23.034  11.611
82276W        W43807   8.875   3.317  11.950
82277W        W43808  19.110  28.123  11.045
82278W        W43809  34.410  17.223  11.871
82279W        W43810  16.581   7.797   4.146
82280W        W43811  25.651  18.189  13.341
82281W        W43812  43.871  20.762  10.984
82282W        W43813   4.253  17.127  14.968
82283W        W43814  15.257  38.878  14.788
82284W        W43815  28.469  27.068  14.451
82285W        W43816  22.176  38.057  13.809
82286W        W43817  35.520  43.303  13.365
82287W        W43818  38.047  11.286   2.795
82288W        W43819  25.504   2.736  10.418
82289W        W43820  10.706  36.398  12.055
82290W        W43821  11.661  15.180  10.933
82291W        W43822  27.663  23.633  10.909
82292W        W43823  39.909  43.304   2.228
82293W        W43824  36.873  20.169   3.164
82294W        W43825   1.952   2.742   0.447
82295W        W43826   8.812  14.794  14.343
82296W        W43827  10.318  21.041   4.669
82297W        W43828  16.712  25.028  12.946
82298W        W43829  15.627  39.912  13.427
82299W        W43830  21.747  35.862  12.946
82300W        W43831   5.310   4.729  14.495
82301W        W43832   3.956  19.569   4.776
82302W        W43833  13.742   7.911  14.979
82303W        W43834  20.167  44.809  14.810
82304W        W43835  29.075   6.193  11.949
82305W        W43836   7.765  30.071  14.814
82306W        W43837  43.916  31.626   1.827
82307W        W43838   8.861  15.729   0.260
82308W        W43839  26.617  16.672   4.662
82309W        W43840   5.703   8.313   3.249
82310W        W43841  36.498  27.540  13.870
82311W        W43842   3.314  18.732  11.545
82312W        W43843  29.665  12.155   4.132
82313W        W43844  36.390   5.201   1.241
82314W        W43845  37.885  13.627   0.310
82315W        W43846  14.246   2.863   1.909
82316W        W43847  34.104  19.165  14.442
82317W        W43848   4.864  36.377   3.310
82318W        W43849  23.032  19.601   1.299
82319W        W43850  22.145  16.249  12.076
82320W        W43851  37.905  20.045  13.039
82321W        W43852  41.009  10.265  10.488
82322W        W43853  35.077  15.648   2.667
82323W        W43854  13.271   4.725  12.928
82324W        W43855  37.076  15.225  12.905
82325W        W43856  10.878  23.667   0.818
82326W        W43857  41.448  17.587  11.114
82327W        W43858  27.149  21.525  14.945
82328W        W43859  17.064  29.945   2.324
82329W        W43860   4.945   9.715   2.372
82330W        W43861  25.515  27.971  13.500
82331W        W43862  18.690  44.758  10.972
82332W        W43863  11.790  44.842  12.370
82333W        W43864  17.778  12.344  10.942
82334W        W43865  17.177  24.997  12.857
82335W        W43866  34.552  27.029  11.955
82336W        W43867  19.231  13.264   2.693
82337W        W43868  36.066  11.753   1.334
82338W        W43869  35.937  14.228   1.387
82339W        W43870  44.298  44.009   1.371
82340W        W43871  16.767   6.423  11.120
82341W        W43872  25.191  13.175  11.060
82342W        W43873  16.784  14.766   1.843
82343W        W43874  25.173   0.307  11.556
82344W        W43875   2.247   2.848   4.754
82345W        W43876  32.079  32.071   2.374
82346W        W43877  43.432  38.022   4.812
82347W        W43878  16.271  27.143  11.883
82348W        W43879  29.450  29.062   3.723
82349W        W43880   1.327  29.461   0.857
82350W        W43881  21.705  30.919   0.870
82351W        W43882  36.088  21.625   4.177
82352W        W43883  10.235  13.274  10.899
82353W        W43884  26.094  21.126   1.753
82354W        W43885  25.505   4.293  12.421
82355W        W43886   5.294  34.100   1.852
82356W        W43887  42.317  22.630  11.457
82357W        W43888  27.977  31.448  14.925
82358W        W43889  30.036  23.653   2.305
82359W        W43890  25.085  22.735   4.802
82360W        W43891  43.431  43.926  14.791
82361W        W43892  41.879  41.824  11.051
82362W        W43893  43.428  15.130  11.112
82363W        W43894  31.483  10.683   3.146
82364W        W43895  27.617  19.679   2.288
82365W        W43896  12.224   5.356  12.446
82366W        W43897  35.017  13.278   3.741
82367W        W43898  26.207  28.441   2.298
82368W        W43899  17.630  14.247   2.221
82369W        W43900  14.816  13.721   4.819
82370W        W43901  16.234  40.473   2.861
82371W        W43902  12.285  24.533  10.987
82372W        W43903   9.306  39.928  11.603
82373W        W43904  11.740   8.875   0.741
82374W        W43905  13.250   9.858  11.072
82375W        W43906  12.749  39.481   4.145
82376W        W43907   3.917  28.050   3.274
82377W        W43908  38.860   4.832  11.405
82378W        W43909  13.303  16.649  10.599
82379W        W43910  24.633  34.576   1.899
82380W        W43911  13.338  44.322  14.431
82381W        W43912   7.826   1.254  11.492
82382W        W43913  32.606  40.985  13.431
82383W        W43914  25.973  29.170  12.986
82384W        W43915  23.135   7.358   1.278
82385W        W43916  23.113  29.964  13.803
82386W        W43917   8.860   2.728  13.415
82387W        W43918  29.471  43.339  13.316
82388W        W43919  25.574   7.709   1.389
82389W        W43920  17.089  18.252   4.707
82390W        W43921   2.823   8.266   1.907
82391W        W43922  41.356  16.663  12.006
82392W        W43923  26.087  15.667   4.355
82393W        W43924   8.882  43.931   3.830
82394W        W43925  34.024   0.838  12.861
82395W        W43926  10.347  15.721   1.764
82396W        W43927  39.539   9.718  13.901
82397W        W43928   2.385   2.825  11.529
82398W        W43929  42.005   1.950   0.871
82399W        W43930  20.052  41.030   1.714
82400W        W43931  27.536   4.397  11.484
82401W        W43932  25.493  39.382  12.080
82402W        W43933  15.087  44.753   1.237
82403W        W43934   1.378  35.046  13.487
82404W        W43935   7.346  36.885  14.864
82405W        W43936   0.885  30.497   2.864
82406W        W43937  34.501  13.677  12.965
82407W        W43938  31.403  40.535  14.776
82408W        W43939  33.420  12.216   5.121
82409W        W43940  11.791  28.558  11.910
82410W        W43941   3.237  23.649   5.640
82411W        W43942  33.407   3.789  14.771
82412W        W43943  10.323  40.973   4.714
82413W        W43944  39.043  20.173   3.204
82414W        W43945   2.364   2.348   2.198
82415W        W43946  17.245  36.852  12.058
82416W        W43947  26.540   6.390  10.493
82417W        W43948  42.955  18.551  13.935
82418W        W43949  22.212   9.343   4.201
82419W        W43950  35.559  23.142  12.018
82420W        W43951  12.228  38.928   1.290
82421W        W43952  36.059   5.752   0.798
82422W        W43953  42.858  23.998   4.634
82423W        W43954  31.049  33.523  10.416
82424W        W43955  26.173   1.857   4.149
82425W        W43956  31.413  39.041  14.926
82426W        W43957  12.637  41.371  13.015
82427W        W43958  11.146  44.280  10.537
82428W        W43959  44.360  25.583   1.706
82429W        W43960  14.150  14.660  14.344
82430W        W43961  17.730  39.506   4.214
82431W        W43962  29.098  40.827   0.893
82432W        W43963  24.634  28.670   4.632
82433W        W43964  19.180  10.658   1.424
82434W        W43965  15.637  25.148   0.294
82435W        W43966  38.480  16.286   3.770
82436W        W43967  32.589  31.489   4.244
82437W        W43968  23.184  35.503   3.827
82438W        W43969   6.876  43.764  12.975
82439W        W43970  15.154  43.337  11.560
82440W        W43971  20.033  32.518  11.571
82441W        W43972  27.648  17.787   1.277
82442W        W43973   2.359  28.103  11.419
82443W        W43974  34.478  26.980  12.408
82444W        W43975  34.444  18.669  11.908
82445W        W43976   6.313  39.903   2.352
82446W        W43977   4.932  42.898   3.379
82447W        W43978  33.903  21.116   1.288
82448W        W43979   5.395   2.876  12.441
82449W        W43980  42.889  23.135  14.030
82450W        W43981  29.465  20.190   1.253
82451W        W43982  13.619  25.493  14.869
82452W        W43983   4.904  14.301  10.041
82453W        W43984   3.443   2.358   1.860
82454W        W43985  40.517  28.107  11.603
82455W        W43986  24.496   4.351  13.345
82456W        W43987  38.443  16.739  12.352
82457W        W43988  29.601  15.760  14.449
82458W        W43989   0.808   0.813  12.576
82459W        W43990  19.563  15.797   3.367
82460W        W43991  24.516  14.744   4.678
82461W        W43992  42.378  21.562  11.500
82462W        W43993   8.401  37.536  12.094
82463W        W43994  31.020  22.114   2.703
82464W        W43995  43.905  15.634   1.304
82465W        W43996  23.997   3.709  14.296
82466W        W43997  12.656   7.666  13.432
82467W        W43998  30.610   2.888  13.337
82468W        W43999  25.185  11.275  11.935
82469W        W44000  15.318  30.032   3.369
82470W        W44001   8.886  41.965   3.282
82471W        W44002  43.346  31.919   4.764
82472W        W44003  31.969  35.420  12.504
82473W        W44004   8.670   8.308   4.803
82474W        W44005  42.914  18.093  13.884
82475W        W44006  23.112  41.811  12.423
82476W        W44007  39.920  27.583   1.276
82477W        W44008  12.779  13.659   1.820
82478W        W44009  12.854  35.455   0.797
82479W        W44010  28.129  10.852  14.796
82480W        W44011  38.905  35.059   2.723
82481W        W44012  10.230  30.104   3.801
82482W        W44013   7.202  44.266  13.837
82483W        W44014  35.982  33.944  11.445
82484W        W44015  33.961  33.453  10.594
82485W        W44016   7.771  27.010  13.497
82486W        W44017  41.522   1.262   2.332
82487W        W44018  13.222  39.523  14.439
82488W        W44019  33.569  30.521   4.299
82489W        W44020  32.952   8.713  11.521
82490W        W44021  42.878  29.536   5.254
82491W        W44022  42.452  17.593  11.450
82492W        W44023  11.755  26.498  13.996
82493W        W44024  15.750   4.782   1.363
82494W        W44025  44.832  36.579   1.795
82495W        W44026   3.398  20.266   1.700
82496W        W44027  14.105  24.175  14.352
82497W        W44028  39.440  42.427   1.924
82498W        W44029  19.568  15.313   0.466
82499W        W44030  32.064  19.268   4.253
82500W        W44031   4.442  12.341   1.256
82501W        W44032   1.438  11.672  12.911
82502W        W44033  31.044  17.675   2.686
82503W        W44034  28.524  22.654  11.528
82504W        W44035  18.740  27.056  11.443
82505W        W44036  32.020  37.965   2.677
82506W        W44037   5.881  14.095  14.869
82507W        W44038  10.148  37.360  13.405
82508W        W44039   5.395  12.210   4.175
82509W        W44040   2.364  19.668  12.523
82510W        W44041  36.504  42.299  12.464
82511W        W44042   5.867  22.086   2.697
82512W        W44043   8.213  15.253  11.916
82513W        W44044  16.307  43.776  11.480
82514W        W44045   0.858  28.009   4.812
82515W        W44046  36.043  29.441  14.421
82516W        W44047  20.144   6.292  12.482
82517W        W44048  42.455  44.499  13.360
82518W        W44049   2.857  28.645  14.364
82519W        W44050  27.480   7.892  12.947
82520W        W44051   5.782  31.505   1.263
82521W        W44052  39.958  37.976   3.282
82522W        W44053  30.597  26.150   4.266
82523W        W44054   6.760  32.927   4.150
82524W        W44055   5.392  40.519  14.883
82525W        W44056  40.359  23.544   0.963
82526W        W44057  28.144  19.575  10.453
82527W        W44058  37.032   0.344  13.439
82528W        W44059   8.217  22.531  10.545
82529W        W44060  29.536  41.474   4.693
82530W        W44061   4.228  26.063  14.890
82531W        W44062  36.947  14.735   1.242
82532W        W44063  31.046   8.672   5.757
82533W        W44064   4.406   4.782  13.505
82534W        W44065  11.649  40.951  11.041
82535W        W44066  18.720  23.081   1.339
82536W        W44067  14.249  11.719  12.830
82537W        W44068  34.934  26.119  13.924
82538W        W44069  16.193  27.167   2.279
82539W        W44070  10.812  23.580  11.603
82540W        W44071  25.579  10.802   3.184
82541W        W44072  23.984  34.600   0.435
82542W        W44073  19.069   1.461  11.109
82543W        W44074  17.151  17.124   0.788
82544W        W44075  40.857   2.745   3.168
82545W        W44076  23.694  29.524  11.871
82546W        W44077   6.376  22.736   2.272
82547W        W44078   7.366  10.720  11.382
82548W        W44079  11.651   7.671  14.787
82549W        W44080  14.647  20.253   3.710
82550W        W44081   4.293  10.764  11.111
82551W        W44082  42.945  28.620  14.844
82552W        W44083  26.485   5.785  10.588
82553W        W44084  22.573  40.818  11.569
82554W        W44085  17.094   8.354   1.245
82555W        W44086  43.312  40.432   4.677
82556W        W44087  43.504  11.801  11.107
82557W        W44088  11.166  16.599  11.439
82558W        W44089  23.025  23.505   4.195
82559W        W44090   2.831   6.380   0.385
82560W        W44091  38.821  13.711  12.027
82561W        W44092   2.797   8.856  12.394
82562W        W44093  40.861   6.789   1.743
82563W        W44094  39.322  24.597   1.341
82564W        W44095  39.037   8.713   5.205
82565W        W44096   8.798   9.202  14.928
82566W        W44097   7.251  16.660   1.804
82567W        W44098  14.098  36.536  12.865
82568W        W44099  16.286  25.075  13.516
82569W        W44100  22.133  19.636  12.022
82570W        W44101   0.478  10.725   1.702
82571W        W44102  29.111  17.591  13.808
82572W        W44103   2.457  35.055   5.247
82573W        W44104  18.095  42.790  14.826
82574W        W44105   0.351  28.590   2.377
82575W        W44106  26.604   1.297  14.295
82576W        W44107   5.727  38.833  12.067
82577W        W44108  13.257  35.391  10.906
82578W        W44109  10.368  32.489   1.837
82579W        W44110   3.908  36.005  14.905
82580W        W44111  26.110  12.238  14.892
82581W        W44112  18.134   1.827  12.049
82582W        W44113  29.049  40.805   3.244
82583W        W44114  24.592   0.368   3.349
82584W        W44115   0.743  25.665   4.722
82585W        W44116  30.139  35.377   2.377
82586W        W44117  10.287  39.322   3.177
82587W        W44118   7.189  26.037  13.043
82588W        W44119  32.590  25.668   0.383
82589W        W44120  30.111  35.369   1.921
82590W        W44121  38.934  25.115  13.055
82591W        W44122   3.319  22.134   2.733
82592W        W44123  20.748  26.474   3.274
82593W        W44124  31.070  23.170   3.697
82594W        W44125  22.524   6.387  12.840
82595W        W44126  13.695   0.864   3.316
82596W        W44127  17.065  32.080   4.230
82597W        W44128  34.080   9.276  11.450
82598W        W44129  29.454  44.395   3.235
82599W        W44130  15.603   4.378  14.915
82600W        W44131  44.282  22.030  10.493
82601W        W44132  11.206  22.664  14.416
82602W        W44133  10.184  21.098   2.393
82603W        W44134  44.836   4.817   3.712
82604W        W44135   3.815  43.920  10.635
82605W        W44136  11.278  29.595   3.804
82606W        W44137  17.644  10.775  14.291
82607W        W44138   4.218  10.664   0.842
82608W        W44139  20.264   2.836   2.743
82609W        W44140  16.306  37.340   0.346
82610W        W44141  12.179  23.131   3.170
82611W        W44142  40.799  22.236   1.729
82612W        W44143  36.036  39.508  12.556
82613W        W44144  40.979  34.034   3.361
82614W        W44145  37.963  44.916   4.219
82615W        W44146  33.533  14.316   1.770
82616W        W44147  35.393  41.299  12.832
82617W        W44148  39.972  29.425  12.031
82618W        W44149  22.153  19.091   1.851
82619W        W44150  28.469  32.065  14.891
82620W        W44151  36.373  16.286   0.373
82621W        W44152  24.625  36.992  13.386
82622W        W44153  33.538   8.274  13.843
82623W        W44154   5.323   2.366  13.839
82624W        W44155   4.722  19.044  13.922
82625W        W44156  34.433  18.723   4.825
82626W        W44157   0.777  23.096   1.232
82627W        W44158  42.948  28.630   4.323
82628W        W44159  31.504  24.033   2.866
82629W        W44160  28.080  14.217   1.879
82630W        W44161   8.179  44.998   0.274
82631W        W44162   2.393   5.207   2.393
82632W        W44163  22.547  26.531   4.799
82633W        W44164   5.749  44.462  11.405
82634W        W44165   0.296   3.758  10.586
82635W        W44166  35.384  38.919  13.546
82636W        W44167  30.942   8.883   1.409
82637W        W44168  35.564   8.872   0.332
82638W        W44169  28.558  42.507  13.057
82639W        W44170  10.746  12.772   4.612
82640W        W44171  44.311  23.581   1.450
82641W        W44172  17.163   5.413   3.640
82642W        W44173  25.011   0.364  14.938
82643W        W44174  44.473  23.109   0.343
82644W        W44175   3.890  31.589   2.293
82645W        W44176  20.681  33.946   4.245
82646W        W44177  22.532  25.547  11.542
82647W        W44178  38.065  18.171  12.452
82648W        W44179  16.714  38.494   1.215
82649W        W44180  43.432   2.799   3.636
82650W        W44181  40.044  44.937  10.531
82651W        W44182   2.852  33.039  14.414
82652W        W44183  11.745  40.963   4.312
82653W        W44184  42.349  35.406  14.846
82654W        W44185  37.960  29.583  11.964
82655W        W44186  42.825   1.482  11.116
82656W        W44187  23.074  11.301   3.268
82657W        W44188  36.083   4.208  13.054
82658W        W44189   1.304  10.378  10.905
82659W        W44190   3.221  42.843   0.837
82660W        W44191  22.539   4.754  11.003
82661W        W44192  44.398  25.123   1.216
82662W        W44193  26.015  43.765  11.915
82663W        W44194   0.875  31.457   4.188
82664W        W44195   8.898  40.017  14.907
82665W        W44196   1.799  12.785  11.995
82666W        W44197   7.818  18.601   1.696
82667W        W44198  12.335  23.610   3.652
82668W        W44199  43.320  34.529  14.479
82669W        W44200  26.010   4.320  11.969
82670W        W44201   4.231  38.406  14.790
82671W        W44202  10.226  44.919  14.441
82672W        W44203  30.919  20.221  13.000
82673W        W44204  19.130   3.241   2.681
82674W        W44205   6.197  13.809  13.539
82675W        W44206  44.918  15.090   0.295
82676W        W44207  18.181  15.615   0.415
82677W        W44208  19.631  37.052   3.200
82678W        W44209  37.956   4.856   9.955
82679W        W44210   7.890  30.991   0.838
82680W        W44211  33.123   7.839  11.083
82681W        W44212  20.529  36.579  10.627
82682W        W44213  25.559  44.774   2.411
82683W        W44214  33.416  17.153   2.181
82684W        W44215  15.238   2.887   4.247
82685W        W44216  16.768  34.577   1.739
82686W        W44217  24.038   8.833  12.573
82687W        W44218   2.384  17.642   1.909
82688W        W44219  38.995  23.227   1.395
82689W        W44220  32.888  28.145   3.193
82690W        W44221   4.814   6.251   4.777
82691W        W44222  13.216  34.935  13.834
82692W        W44223  16.746   0.774   2.241
82693W        W44224  26.043  21.645  14.493
82694W        W44225  13.344  30.629   2.733
82695W        W44226  40.974  41.437  11.902
82696W        W44227  33.945   4.280  10.957
82697W        W44228   5.861  44.408   4.644
82698W        W44229  17.571  19.120   2.306
82699W        W44230  15.160   3.346   3.721
82700W        W44231   9.164  28.968  11.128
82701W        W44232  28.621  15.089  10.592
82702W        W44233  24.150  19.160   3.331
82703W        W44234  17.789  15.163  14.806
82704W        W44235  14.228  36.869   0.403
82705W        W44236  20.635  23.161  14.027
82706W        W44237   1.475  36.885   2.732
82707W        W44238  42.405  40.937  13.406
82708W        W44239  35.516  39.015   1.385
82709W        W44240  16.608  24.564   2.343
82710W        W44241  17.236  35.561  13.486
82711W        W44242  43.937  15.702  10.460
82712W        W44243  19.124  29.962  14.450
82713W        W44244  16.235  33.983   2.214
82714W        W44245   6.867  44.275   0.799
82715W        W44246  28.022  39.819   3.300
82716W        W44247  40.917  12.327   2.762
82717W        W44248  18.710   0.368  11.561
82718W        W44249  40.882  32.116   1.251
82719W        W44250   0.430  43.962  14.023
82720W        W44251  28.450   5.214  11.391
82721W        W44252   4.798  30.582  10.155
82722W        W44253  32.003  26.209  14.963
82723W        W44254  12.717  25.139  14.366
82724W        W44255   8.229  23.609   4.232
82725W        W44256  32.407  26.559   1.821
82726W        W44257  14.722   8.224   2.254
82727W        W44258   4.206  34.370   2.216
82728W        W44259   2.947   0.977  12.476
82729W        W44260  19.548   4.709  13.965
82730W        W44261  41.537  35.107   0.444
82731W        W44262  13.752  39.559  11.029
82732W        W44263  36.517  10.275  12.065
82733W        W44264  38.550   3.800   2.211
82734W        W44265  40.844  33.399   2.806
82735W        W44266  14.681  22.664  10.074
82736W        W44267  41.979  38.561  14.384
82737W        W44268   8.885  44.380  12.507
82738W        W44269   5.757  30.971  14.351
82739W        W44270   0.779  37.424   5.274
82740W        W44271  26.112   3.438   4.191
82741W        W44272  28.037  21.529  10.891
82742W        W44273  35.495   4.929  12.945
82743W        W44274  25.677  12.171  13.517
82744W        W44275  35.588  11.859   2.309
82745W        W44276  21.163  38.544  13.423
82746W        W44277  34.117  16.606   1.228
82747W        W44278  16.159  10.651  14.767
82748W        W44279  21.664   4.378  11.435
82749W        W44280  40.341  16.700  13.442
82750W        W44281  41.306  31.446  12.551
82751W        W44282  21.645  41.017  13.056
82752W        W44283  15.820   1.976   1.797
82753W        W44284  30.501  13.263  11.005
82754W        W44285   6.274   7.200   3.156
82755W        W44286   4.444  20.624   2.252
82756W        W44287  26.109  16.746   4.353
82757W        W44288  27.055  25.541   1.876
82758W        W44289  19.045  42.374   3.351
82759W        W44290  40.830  17.267  14.949
82760W        W44291  14.253  24.991   1.755
82761W        W44292  40.473  27.062  12.404
82762W        W44293  23.071  35.923   2.315
82763W        W44294  40.873  39.374  10.627
82764W        W44295  14.313  43.407  12.415
82765W        W44296   2.453   4.226   1.342
82766W        W44297  43.796  17.100  12.564
82767W        W44298   7.299  29.506  11.070
82768W        W44299  25.203  25.475  13.541
82769W        W44300  29.106  40.354   4.127
82770W        W44301   6.423  19.694   3.270
82771W        W44302   6.872   2.926  10.592
82772W        W44303  17.185  36.906   3.288
82773W        W44304  18.212  27.945   1.891
82774W        W44305  18.088  23.525  14.325
82775W        W44306  24.590  22.080   2.319
82776W        W44307  32.990  20.165   2.387
82777W        W44308   4.810  30.525   3.759
82778W        W44309  41.810  42.793  13.424
82779W        W44310   1.356  30.641  11.095
82780W        W44311  13.756  16.161  11.595
82781W        W44312  16.663  32.996   4.157
82782W        W44313  38.397  17.189  12.056
82783W        W44314  26.571  16.798  13.798
82784W        W44315  34.561  20.147   4.599
82785W        W44316  26.996  22.124  11.880
82786W        W44317  37.384  29.592   2.876
82787W        W44318  22.039  44.290   1.369
82788W        W44319   3.836  28.679   5.787
82789W        W44320  31.459  34.905   2.897
82790W        W44321  42.352  39.032   3.209
82791W        W44322  37.899  33.579  11.501
82792W        W44323  23.049  38.416   0.855
82793W        W44324  32.597  18.245   0.480
82794W        W44325  35.882  40.423  12.079
82795W        W44326  39.935   8.672  10.473
82796W        W44327  37.852  14.157   1.935
82797W        W44328   7.797  38.340  10.475
82798W        W44329   5.854  18.122  10.936
82799W        W44330   3.794  40.824   1.398
82800W        W44331   1.480   7.879  12.893
82801W        W44332   7.193  42.328   4.327
82802W        W44333  37.061  39.511   2.343
82803W        W44334  19.567   6.697  13.992
82804W        W44335  34.048  44.488  12.515
82805W        W44336  29.456  32.136   2.848
82806W        W44337  38.540   5.317  13.418
82807W        W44338   6.876  30.158   3.218
82808W        W44339  32.050  15.295  11.951
82809W        W44340   3.903  13.695   2.735
82810W        W44341   5.197  23.511   0.366
82811W        W44342  35.368  31.982  13.883
82812W        W44343  41.848  26.553  13.024
82813W        W44344  35.434  19.549  13.528
82814W        W44345  43.425  13.753   0.802
82815W        W44346   7.680  22.216   3.743
82816W        W44347  12.754  21.251  14.382
82817W        W44348  11.197  29.058   4.615
82818W        W44349  27.644  11.277   2.824
82819W        W44350  16.628  40.978  11.043
82820W        W44351  26.993  26.618   4.713
82821W        W44352  26.645  31.464   2.220
82822W        W44353  28.075  32.505   3.767
82823W        W44354   5.378  17.649  12.920
82824W        W44355   7.753  30.144   2.233
82825W        W44356  40.409  25.177  14.486
82826W        W44357  22.069   6.188  12.517
82827W        W44358  42.375  42.913  14.785
82828W        W44359  18.637   6.260   5.193
82829W        W44360  42.315  21.552   3.272
82830W        W44361  34.435  40.964  12.551
82831W        W44362  10.262  44.383   2.193
82832W        W44363  32.922  29.442   3.659
82833W        W44364  13.276  35.889  12.927
82834W        W44365  25.554  28.642  11.553
82835W        W44366  35.458  17.561   1.357
82836W        W44367  39.558  16.184  13.500
82837W        W44368  26.537  27.096   2.828
82838W        W44369  13.718  20.268  10.411
82839W        W44370   8.801  37.367   3.850
82840W        W44371  23.052  23.111   3.174
82841W        W44372  10.809  42.001   4.216
82842W        W44373  37.342  24.670   2.290
82843W        W44374  19.639   5.305  12.078
82844W        W44375  14.173   1.953  12.363
82845W        W44376  31.082  10.655   4.342
82846W        W44377  42.427  21.660  14.914
82847W        W44378   7.257  43.955  11.048
82848W        W44379  11.134  24.702   1.800
82849W        W44380  28.986   7.320   5.790
82850W        W44381  20.162  28.488  11.507
82851W        W44382  44.324  40.891  10.483
82852W        W44383   1.369  44.293  11.939
82853W        W44384   9.881   4.873   0.482
82854W        W44385  44.489  31.075  11.897
82855W        W44386  10.707  29.426   0.750
82856W        W44387  22.139   3.918   0.830
82857W        W44388   8.723   1.890   2.221
82858W        W44389  14.234   8.673  14.887
82859W        W44390  11.330  13.348  11.593
82860W        W44391  42.497   1.392  12.879
82861W        W44392  31.020  10.286   2.715
82862W        W44393  25.096  22.101  12.385
82863W        W44394  38.478  37.445  10.489
82864W        W44395  15.729  27.489   2.235
82865W        W44396  22.187  16.221   4.832
82866W        W44397   6.734  38.352   3.203
82867W        W44398  30.517   2.331  14.828
82868W        W44399   1.894  22.699   1.805
82869W        W44400  16.600  28.650   4.177
82870W        W44401  33.947  29.510  12.921
82871W        W44402  18.696  37.562  10.561
82872W        W44403  35.579  11.696   0.291
82873W        W44404  30.485  30.617  13.803
82874W        W44405   3.397  26.024   5.303
82875W        W44406  10.820  18.165   2.354
82876W        W44407   9.702  22.199   2.788
82877W        W44408  36.844   4.266   2.198
82878W        W44409  36.062  28.987   1.734
82879W        W44410  38.390   7.369   5.141
82880W        W44411  33.514  16.800   4.829
82881W        W44412  26.164  13.634   2.730
82882W        W44413  10.237  41.440   0.905
82883W        W44414  19.713  41.977  14.511
82884W        W44415  20.116  17.769  13.053
82885W        W44416  22.660  31.556   2.345
82886W        W44417   4.209  21.699  12.964
82887W        W44418  39.875  13.777  11.508
82888W        W44419  27.070  11.291  13.994
82889W        W44420  43.490   4.245   4.789
82890W        W44421   7.203  17.592  13.403
82891W        W44422  20.561  35.008   4.268
82892W        W44423  24.614  31.067   3.171
82893W        W44424  14.594   4.262  14.479
82894W        W44425  28.001  13.263   1.817
82895W        W44426  34.943  29.453  11.043
82896W        W44427  33.101  13.788   4.794
82897W        W44428  27.183   6.874   2.211
82898W        W44429   7.906  23.562   2.698
82899W        W44430   1.809  25.219  13.456
82900W        W44431   1.340  24.196   3.318
82901W        W44432  34.505  23.659   1.221
82902W        W44433  42.981  26.669  12.477
82903W        W44434  37.489  36.463   4.258
82904W        W44435  20.101  33.973   4.706
82905W        W44436  16.226   9.364   2.371
82906W        W44437  44.961  31.993  12.505
82907W        W44438  42.496  40.441  10.963
82908W        W44439  33.388  23.163  14.334
82909W        W44440  35.858  18.064   3.277
82910W        W44441  21.527  14.209   3.345
82911W        W44442  44.406  13.194   4.137
82912W        W44443  21.756  27.579   4.314
82913W        W44444   9.753  10.272   4.744
82914W        W44445  17.720  26.610  12.827
82915W        W44446   0.823  26.578   2.789
82916W        W44447  41.999  39.863   1.822
82917W        W44448   0.452  21.130   1.395
82918W        W44449   0.856  40.389  11.889
82919W        W44450   1.328  29.083  13.429
82920W        W44451  10.338  26.046   4.695
82921W        W44452  44.417   1.847   2.351
82922W        W44453   1.818  31.100  12.058
82923W        W44454  41.902   4.793   4.646
82924W        W44455  24.192  21.050  13.024
82925W        W44456  10.793  21.176   4.297
82926W        W44457  38.898  44.893  12.013
82927W        W44458  24.987  11.305  13.020
82928W        W44459  16.698  32.510  11.043
82929W        W44460   5.826   9.159  13.011
82930W        W44461  13.689  32.460   3.814
82931W        W44462  29.583   6.805  11.465
82932W        W44463   9.288  20.273  13.428
82933W        W44464   0.390  40.051   1.734
82934W        W44465  39.978  24.077  11.552
82935W        W44466  43.975  30.986  14.417
82936W        W44467  18.164  37.525   4.627
82937W        W44468  19.190  16.673   0.887
82938W        W44469  11.819  27.048   2.671
82939W        W44470   1.788   0.847  11.559
82940W        W44471   7.397   6.703  11.903
82941W        W44472  27.661   4.774   0.400
82942W        W44473  23.596  14.199   2.197
82943W        W44474  35.515  30.974   3.193
82944W        W44475  36.891  36.861  13.433
82945W        W44476  33.475  25.651   4.353
82946W        W44477  36.974  31.402  11.373
82947W        W44478  13.109  34.454   2.398
82948W        W44479  15.270  15.301   3.721
82949W        W44480  23.502  19.543   1.284
82950W        W44481  33.526  30.561  10.115
82951W        W44482  40.499   6.797  13.493
82952W        W44483   1.256  20.574   3.153
82953W        W44484  41.455  42.804  11.876
82954W        W44485  10.318   1.383   3.310
82955W        W44486  18.148  44.881   2.772
82956W        W44487  44.010  28.436  14.774
82957W        W44488  21.666  21.515   3.682
82958W        W44489  41.793   5.709  11.434
82959W        W44490  37.051  42.377  13.944
82960W        W44491   3.826  43.302   2.741
82961W        W44492   1.369  34.094  12.350
82962W        W44493  26.556   4.940  12.886
82963W        W44494   5.900  37.027  12.351
82964W        W44495  22.637  31.914  14.899
82965W        W44496  37.077  15.214   5.129
82966W        W44497  34.598   6.750   0.881
82967W        W44498  25.621   4.814  10.995
82968W        W44499  16.659  34.570  12.015
82969W        W44500  20.174  41.303  11.016
82970W        W44501  26.995  21.626  12.942
82971W        W44502   4.784  41.340   1.440
82972W        W44503  16.152   9.296   3.375
82973W        W44504   7.395  21.650  13.029
82974W        W44505  42.832  41.942  14.310
82975W        W44506  26.122  36.455  14.934
82976W        W44507  33.977  31.963  14.797
82977W        W44508   0.266   7.854  10.989
82978W        W44509  40.312   2.931   1.710
82979W        W44510  10.348  43.301   0.367
82980W        W44511  35.066  17.797   0.421
82981W        W44512  12.355   2.337  13.469
82982W        W44513  26.490   9.798  11.993
82983W        W44514  39.922  19.755   3.259
82984W        W44515   5.762   2.776   1.293
82985W        W44516  26.037  23.082   0.254
82986W        W44517  37.019   6.207   3.656
82987W        W44518   0.492  31.647   3.348
82988W        W44519  38.389  16.081  11.128
82989W        W44520  23.055   4.379   0.762
82990W        W44521   7.382   8.238  13.392
82991W        W44522   5.369  37.579   1.314
82992W        W44523  34.404   1.847   1.215
82993W        W44524  11.633  22.045   1.340
82994W        W44525  43.799   4.251  12.566
82995W        W44526   6.388   1.402   1.328
82996W        W44527  23.644  38.388   3.707
82997W        W44528  16.687  27.173   4.676
82998W        W44529  39.891   1.873   3.177
82999W        W44530  41.798  32.993  13.056
83000W        W44531   0.435  17.212  13.936
83001W        W44532  36.375  11.323  14.010
83002W        W44533  34.054  13.300   3.848
83003W        W44534  22.085  10.332  12.563
83004W        W44535   6.717   9.861   4.700
83005W        W44536  31.600  39.057   4.150
83006W        W44537  33.398  16.719   2.320
83007W        W44538  42.305   3.715   1.707
83008W        W44539   9.178  37.913  14.920
83009W        W44540  36.026  32.989   1.247
83010W        W44541  17.633  25.979  10.095
83011W        W44542  41.899  30.057   2.291
83012W        W44543  21.700  26.606  11.897
83013W        W44544  37.998   2.875  11.006
83014W        W44545  36.351  22.037  10.951
83015W        W44546  14.687  25.552  10.106
83016W        W44547  18.763  28.104   5.204
83017W        W44548  30.083   0.292  11.076
83018W        W44549  38.037  37.438   3.742
83019W        W44550  13.826  39.461   1.369
83020W        W44551   1.748  38.956   2.307
83021W        W44552  33.097  19.075   5.636
83022W        W44553  44.932   6.241  13.419
83023W        W44554   1.906  24.204   0.921
83024W        W44555  22.011   2.431   3.695
83025W        W44556  29.006  37.087  11.043
83026W        W44557  39.452  13.690  13.324
83027W        W44558  40.934  10.647   2.811
83028W        W44559   6.404  27.069   0.856
83029W        W44560  43.012   1.928  13.797
83030W        W44561  37.039   3.256  11.034
83031W        W44562  37.413  42.330  10.931
83032W        W44563  10.151  27.585  10.956
83033W        W44564   6.696  40.355  11.008
83034W        W44565  11.671  31.914   2.729
83035W        W44566  42.956  39.502   3.659
83036W        W44567   5.788  43.347  12.575
83037W        W44568  17.121   1.781  11.885
83038W        W44569  13.840  22.591  11.513
83039W        W44570  39.880  25.538   2.236
83040W        W44571  29.129   7.667  11.967
83041W        W44572  27.684   5.354  10.553
83042W        W44573   1.409   2.916  12.403
83043W        W44574  22.534  26.189  10.570
83044W        W44575  35.414  24.224  10.898
83045W        W44576  22.148   4.925  12.068
83046W        W44577  13.229  31.560  10.583
83047W        W44578  39.869  42.778   1.756
83048W        W44579  40.024  35.520   2.789
83049W        W44580  26.140  36.005   0.365
83050W        W44581  26.990  43.429   3.629
83051W        W44582   8.224  26.570  10.560
83052W        W44583  11.156  36.567  10.538
83053W        W44584   3.315  35.060   0.286
83054W        W44585  12.678  16.581   0.251
83055W        W44586  37.505   4.331   0.464
83056W        W44587  26.131  13.262  13.423
83057W        W44588  41.908  34.600  12.081
83058W        W44589  10.661  28.009  10.951
83059W        W44590  21.532  37.947  14.780
83060W        W44591  26.180   7.811   1.925
83061W        W44592  44.866  11.817  10.951
83062W        W44593  26.626   7.189  13.978
83063W        W44594  21.084  39.540  12.435
83064W        W44595   8.777  28.489  11.454
83065W        W44596  24.025  24.614   2.847
83066W        W44597  31.055  23.166   1.351
83067W        W44598  33.550   7.888  11.092
83068W        W44599  44.469  17.075  11.408
83069W        W44600  35.021   8.778  11.932
83070W        W44601   3.754  21.514   5.671
83071W        W44602  27.670   1.434   0.890
83072W        W44603   6.217  38.428  10.613
83073W        W44604  41.886  13.685  14.492
83074W        W44605  42.490  34.452   2.705
83075W        W44606  33.441   2.251   2.379
83076W        W44607  44.919  18.071   3.799
83077W        W44608  30.156   6.264   1.409
83078W        W44609  18.237  28.096   1.415
83079W        W44610   1.283   0.844   3.177
83080W        W44611   3.946   1.816   1.718
83081W        W44612   3.222  28.039  10.930
83082W        W44613  23.171  20.585   4.156
83083W        W44614  12.214  19.619  10.469
83084W        W44615  18.729  36.919  10.998
83085W        W44616  41.363  21.083   2.383
83086W        W44617  39.924  25.990  14.763
83087W        W44618  33.617  25.529  11.431
83088W        W44619  39.536   0.781  11.020
83089W        W44620  42.376  29.928  13.884
83090W        W44621  15.696  36.984  13.456
83091W        W44622  25.528  24.033   0.887
83092W        W44623  36.539  10.715  12.039
83093W        W44624   6.695  34.588  12.514
83094W        W44625  40.518  24.179  10.612
83095W        W44626  36.034  23.679  13.343
83096W        W44627  35.952  42.796   3.318
83097W        W44628  31.098  40.038   2.308
83098W        W44629  44.498  15.202   1.326
83099W        W44630  12.333  12.177   0.770
83100W        W44631  42.400  29.168   2.390
83101W        W44632  14.150  29.123  10.415
83102W        W44633  30.451  28.170  13.382
83103W        W44634  27.987  17.712   1.923
83104W        W44635  14.101  26.153   3.812
83105W        W44636  34.119  36.491  14.373
83106W        W44637  14.150  20.557  10.504
83107W        W44638  24.990  29.947   1.442
83108W        W44639   9.772  27.167   4.714
83109W        W44640  41.422   8.232  12.399
83110W        W44641  30.564  24.009  12.076
83111W        W44642   5.275  23.031   0.920
83112W        W44643  24.515  27.588   0.919
83113W        W44644   9.683  44.429   4.167
83114W        W44645   9.797  25.162  12.385
83115W        W44646  32.954  33.011   1.219
83116W        W44647  40.861  25.555   3.737
83117W        W44648   7.685  19.095   2.237
83118W        W44649  39.486  29.098   2.395
83119W        W44650  27.468  29.028   9.999
83120W        W44651   4.921   7.347  14.930
83121W        W44652  37.845  19.250  12.456
83122W        W44653  42.833  40.006  11.913
83123W        W44654   1.795  22.184   2.296
83124W        W44655  39.473  44.935  14.951
83125W        W44656   3.266  16.115   2.248
83126W        W44657  23.500  42.018  14.974
83127W        W44658  23.134  32.956   3.797
83128W        W44659  39.472  42.402  14.991
83129W        W44660  43.303   4.315  11.480
83130W        W44661   7.677  39.322   0.881
83131W        W44662  24.988  43.012  13.446
83132W        W44663  21.153  28.092   0.353
83133W        W44664   5.281  43.799  12.965
83134W        W44665  44.381  14.702  11.401
83135W        W44666   3.753  21.605   5.104
83136W        W44667   4.877   5.714  13.830
83137W        W44668  20.208  44.832  14.465
83138W        W44669   0.823   1.265   3.777
83139W        W44670  14.108  14.284  14.781
83140W        W44671  43.819  44.876  13.467
83141W        W44672  26.471  20.658  11.497
83142W        W44673  27.637  19.658  10.469
83143W        W44674  30.604  26.078  10.616
83144W        W44675   1.828  22.574   0.820
83145W        W44676   5.854   3.398   4.785
83146W        W44677  22.066   8.271  12.339
83147W        W44678  44.782   9.763  13.511
83148W        W44679  18.172  18.725   1.334
83149W        W44680  15.112  29.488  13.963
83150W        W44681  12.307   8.787  11.038
83151W        W44682  26.541  16.231   4.340
83152W        W44683  42.974  24.584   0.766
83153W        W44684  22.576  11.710  12.912
83154W        W44685  16.145  29.115  13.878
83155W        W44686  18.171   3.800  10.445
83156W        W44687   2.226  28.601   4.803
83157W        W44688  12.308  21.090   2.772
83158W        W44689  24.976   3.909  12.992
83159W        W44690  35.543  23.068   4.716
83160W        W44691  37.083  19.674  11.053
83161W        W44692  16.208  26.031   4.227
83162W        W44693  42.832   9.840   1.344
83163W        W44694  32.625  37.401  11.570
83164W        W44695  40.394  39.445  12.444
83165W        W44696  27.066  17.589   2.713
83166W        W44697  23.179  31.106  10.529
83167W        W44698  28.457  17.796   3.308
83168W        W44699   7.336  13.240  13.867
83169W        W44700  15.791  40.904   1.437
83170W        W44701  43.955   8.711   0.259
83171W        W44702  31.966   0.289   3.220
83172W        W44703  27.661   7.795  14.434
83173W        W44704  17.279  20.175  13.330
83174W        W44705   1.740  35.067  14.944
83175W        W44706  26.061  24.536   4.818
83176W        W44707  16.143  30.014   3.803
83177W        W44708  14.312   6.213  10.422
83178W        W44709  44.478  39.402   0.438
83179W        W44710  34.373   3.285   3.772
83180W        W44711   0.843  16.209   4.679
83181W        W44712  28.597   2.842  12.070
83182W        W44713   9.371  42.448   0.755
83183W        W44714  44.304  31.061   4.222
83184W        W44715   9.165  10.668  12.991
83185W        W44716  35.491  20.677   0.844
83186W        W44717  40.306   7.767  11.484
83187W        W44718  40.798  41.368   1.358
83188W        W44719  40.977  12.765   1.697
83189W        W44720  34.603  17.265   4.300
83190W        W44721  27.491  35.368  10.981
83191W        W44722  24.009  35.885   2.291
83192W        W44723  22.599  12.342   2.732
83193W        W44724   8.163  42.426  11.584
83194W        W44725  11.858  15.138   4.808
83195W        W44726  15.776   8.858  13.909
83196W        W44727  30.927  24.582  13.816
83197W        W44728   9.311  32.491   0.482
83198W        W44729  22.026  23.695  14.837
83199W        W44730  44.984  21.093  12.352
83200W        W44731  11.831  10.263  14.976
83201W        W44732   7.706  23.603  13.522
83202W        W44733  13.673  32.913   0.730
83203W        W44734  42.376   7.397   3.647
83204W        W44735  12.678  25.138  12.065
83205W        W44736  11.714   1.367  13.994
83206W        W44737  30.109  23.065  11.905
83207W        W44738   9.871  16.647   1.382
83208W        W44739  30.934  38.422  13.542
83209W        W44740  13.146  10.698   3.816
83210W        W44741   9.166   6.383   4.641
83211W        W44742   2.384   5.418  13.885
83212W        W44743  29.532  42.849  14.446
83213W        W44744  15.208  40.387   1.919
83214W        W44745  21.559  16.689   1.701
83215W        W44746  11.787  36.931  10.497
83216W        W44747   6.832  36.912   4.658
83217W        W44748   4.246  41.972  11.105
83218W        W44749  16.301  15.201   1.794
83219W        W44750   2.255  41.306  11.393
83220W        W44751  28.658   4.262   0.773
83221W        W44752  38.531  11.365   5.257
83222W        W44753   9.827  38.930   2.273
83223W        W44754  20.544  41.315  11.860
83224W        W44755  29.005  43.021  13.426
83225W        W44756  20.038  25.007  10.994
83226W        W44757   3.215  21.633   0.929
83227W        W44758  41.502  23.660   1.900
83228W        W44759  40.470  27.666  11.957
83229W        W44760  25.694  15.698   2.391
83230W        W44761   5.728   3.850  12.355
83231W        W44762  11.663  28.068   3.328
83232W        W44763  12.702  11.181   3.299
83233W        W44764  15.810  35.864   0.750
83234W        W44765  22.134  32.583   2.392
83235W        W44766  37.971  27.668  13.379
83236W        W44767  39.491  25.040   2.756
83237W        W44768  17.177  35.029   1.302
83238W        W44769  10.775   4.859  14.871
83239W        W44770  23.698  12.791   1.752
83240W        W44771   4.882  34.472   4.210
83241W        W44772  40.921  22.730  12.488
83242W        W44773  12.139  22.613  14.864
83243W        W44774  23.566   2.758   3.747
83244W        W44775  10.768  36.540   0.826
83245W        W44776  23.718   9.316  11.004
83246W        W44777  40.886  22.598  14.467
83247W        W44778   7.204   5.276   1.895
83248W        W44779   9.289  40.051   3.691
83249W        W44780  13.334  21.519  14.965
83250W        W44781   6.911  23.573   1.258
83251W        W44782  24.207   9.680   1.397
83252W        W44783  28.036   3.223  13.541
83253W        W44784  29.564  40.402   0.439
83254W        W44785  41.427  21.651  13.974
83255W        W44786  42.022  40.901   1.872
83256W        W44787  19.071  27.117   2.336
83257W        W44788  35.031  12.220   4.837
83258W        W44789  18.292   7.683  12.465
83259W        W44790  20.634   9.173   2.894
83260W        W44791  29.521  24.158  10.576
83261W        W44792   7.814  38.934   1.848
83262W        W44793  30.083  11.625   3.848
83263W        W44794  23.108  22.739   0.458
83264W        W44795  32.135  15.219   2.398
83265W        W44796   6.823  20.765   1.733
83266W        W44797  22.519  33.891  11.407
83267W        W44798  12.675  44.283   2.198
83268W        W44799  26.104   2.808   2.780
83269W        W44800   7.223   0.980   4.259
83270W        W44801  29.656  14.325  14.872
83271W        W44802  28.933  12.637  14.894
83272W        W44803  26.155   4.401  14.846
83273W        W44804  33.440  29.544   3.796
83274W        W44805   9.827  26.669   0.764
83275W        W44806  24.547  15.655   2.405
83276W        W44807   9.164  18.740  11.501
83277W        W44808  18.673  37.882  13.407
83278W        W44809  26.622  26.623   1.393
83279W        W44810  10.269   7.283   0.791
83280W        W44811  10.769  10.662  11.382
83281W        W44812  37.983  42.934  10.919
83282W        W44813  14.220  39.333   4.826
83283W        W44814  30.140   8.778   2.326
83284W        W44815  43.461   8.750   2.751
83285W        W44816  28.438   7.418   0.464
83286W        W44817  16.730  13.121  14.405
83287W        W44818   5.344  27.066   2.783
83288W        W44819  41.803   6.402  12.824
83289W        W44820  14.128  32.587   5.189
83290W        W44821  20.118  27.620   4.204
83291W        W44822  27.539  31.406  13.834
83292W        W44823   3.818  17.686  13.809
83293W        W44824  35.919  25.981   1.367
83294W        W44825  24.614   0.880  13.505
83295W        W44826   2.394  21.154  12.971
83296W        W44827  29.952  21.651  10.898
83297W        W44828  30.645   9.184   5.757
83298W        W44829   3.424   8.672   3.753
83299W        W44830  17.105  17.274   1.239
83300W        W44831  42.020  40.897  13.846
83301W        W44832  28.511  37.461   0.932
83302W        W44833  24.522  29.048   3.639
83303W        W44834  40.340   0.829   9.977
83304W        W44835  38.472  23.593  11.954
83305W        W44836  19.242  23.115  11.087
83306W        W44837  41.495  14.660   2.783
83307W        W44838  36.086   2.380  14.827
83308W        W44839  38.372  16.159   4.310
83309W        W44840  27.549  34.378  10.983
83310W        W44841   2.444  22.163  12.532
83311W        W44842  44.809   9.885   3.854
83312W        W44843  23.709  21.734  10.988
83313W        W44844  17.149  39.317   4.724
83314W        W44845  34.883  28.178   2.778
83315W        W44846  42.852  21.210  14.767
83316W        W44847   8.323  22.031   1.827
83317W        W44848  32.958  31.032   1.805
83318W        W44849  29.934   2.883   1.921
83319W        W44850  30.152  33.469  14.310
83320W        W44851  22.690  43.383   4.804
83321W        W44852  41.902   1.447   2.899
83322W        W44853   7.814   1.837  14.478
83323W        W44854  35.367  21.726  12.481
83324W        W44855  22.050   0.285   1.384
83325W        W44856  18.770  38.340   9.513
83326W        W44857   0.976  12.121   2.871
83327W        W44858  43.444   3.264   1.702
83328W        W44859   2.840  13.143  11.954
83329W        W44860  31.537  42.374   1.233
83330W        W44861  33.978  15.321   3.185
83331W        W44862  26.131  40.016  14.491
83332W        W44863  44.321  12.828  10.102
83333W        W44864  18.550  38.568  12.003
83334W        W44865  23.185  15.757  10.070
83335W        W44866  43.480  25.707   4.628
83336W        W44867   8.374  43.387  12.399
83337W        W44868  40.029  44.834  13.523
83338W        W44869  41.801   0.954  12.347
83339W        W44870  43.965  44.758   1.283
83340W        W44871  22.218  10.749   0.316
83341W        W44872  15.203  11.362  11.541
83342W        W44873  13.621  15.185   0.869
83343W        W44874   2.788  14.176   3.653
83344W        W44875  32.989   0.776  12.921
83345W        W44876  23.555  42.377   3.371
83346W        W44877  34.960   4.221  13.414
83347W        W44878   5.268  10.318  11.971
83348W        W44879   6.359  27.625   2.664
83349W        W44880   9.643  35.098   1.731
83350W        W44881  22.128  28.123  11.456
83351W        W44882   0.355  15.321  11.542
83352W        W44883  16.283  35.518   1.731
83353W        W44884  44.373   7.789  11.932
83354W        W44885  41.528   7.233  11.012
83355W        W44886  14.271  41.018  12.853
83356W        W44887  43.476   5.209  12.476
83357W        W44888   5.218  30.543   4.683
83358W        W44889  26.494  33.922   3.381
83359W        W44890  22.517  35.591  10.589
83360W        W44891  33.499  10.668   0.282
83361W        W44892   4.869  30.092  14.961
83362W        W44893  17.718  39.937  14.897
83363W        W44894  25.471  31.012   2.388
83364W        W44895  30.972   7.390  13.806
83365W        W44896  19.195  12.755   4.818
83366W        W44897   1.267   8.689  12.392
83367W        W44898  27.588   6.316   0.807
83368W        W44899  35.938   3.919  11.577
83369W        W44900  17.680   6.882  10.468
83370W        W44901  27.502  29.452   3.777
83371W        W44902  20.157  35.590  14.812
83372W        W44903   0.896  22.641  10.520
83373W        W44904  20.032  11.644  14.326
83374W        W44905  11.745  16.570   3.789
83375W        W44906  20.147   3.228  10.610
83376W        W44907  44.265  19.206   0.812
83377W        W44908   7.682  32.540   0.480
83378W        W44909  41.460  43.300   0.841
83379W        W44910  27.599  44.264  11.121
83380W        W44911  35.922  39.489  11.573
83381W        W44912   7.356  39.041   2.403
83382W        W44913   0.867  15.235  11.950
83383W        W44914   3.378   9.777   1.839
83384W        W44915  31.465   5.865  11.556
83385W        W44916  11.688   1.248   3.353
83386W        W44917  44.411  38.372   1.724
83387W        W44918  24.514   4.767   4.765
83388W        W44919  42.001  37.385   4.821
83389W        W44920  31.579  44.998   3.314
83390W        W44921  32.123  24.118   5.103
83391W        W44922  19.181  34.989  11.857
83392W        W44923  20.122  24.597   4.257
83393W        W44924   8.758   8.774   3.722
83394W        W44925  13.750  35.100   3.673
83395W        W44926   8.167   5.730  11.006
83396W        W44927  25.180   9.286   3.692
83397W        W44928   0.460  26.574  12.003
83398W        W44929  24.696  40.929  14.501
83399W        W44930   1.741   2.350   4.803
83400W        W44931  42.525  28.587   3.739
83401W        W44932  30.110  13.614   3.212
83402W        W44933  19.769  26.699   2.200
83403W        W44934   9.661  12.781  11.890
83404W        W44935   6.194  23.044   3.829
83405W        W44936  16.614   2.788   0.798
83406W        W44937  36.527   6.874  12.442
83407W        W44938  27.986   5.784  13.394
83408W        W44939  12.189   2.913  10.612
83409W        W44940  20.140  44.438  10.102
83410W        W44941  25.139   1.941  14.491
83411W        W44942  14.810  10.704  13.059
83412W        W44943  28.474  31.138  10.899
83413W        W44944  37.390   3.447   1.233
83414W        W44945  41.915  14.269   5.168
83415W        W44946  11.159  29.946   3.228
83416W        W44947   3.215  16.647   3.356
83417W        W44948  11.731  33.016   3.303
83418W        W44949  35.982   3.282   4.151
83419W        W44950   4.217  11.158   0.285
83420W        W44951  20.635  16.723   1.439
83421W        W44952  40.958  22.118  14.383
83422W        W44953   5.909   8.260   1.766
83423W        W44954  35.454   2.797  11.975
83424W        W44955  14.823   6.380  12.472
83425W        W44956  19.723  12.679   3.154
83426W        W44957   3.396   9.715  13.307
83427W        W44958   1.295  43.882   0.918
83428W        W44959   0.837  29.474   2.330
83429W        W44960   6.889   3.867  10.501
83430W        W44961  24.614  24.987   4.731
83431W        W44962  42.961   0.461   4.827
83432W        W44963  41.388  29.928  14.766
83433W        W44964  10.279  35.453  13.044
83434W        W44965  19.099   7.825  10.517
83435W        W44966  14.624  27.150  13.838
83436W        W44967  13.296  35.539   4.633
83437W        W44968  40.858   1.801   3.323
83438W        W44969  17.768  22.123  11.515
83439W        W44970  17.275  20.043  12.865
83440W        W44971  24.047  31.998   3.202
83441W        W44972  12.770  25.611   2.183
83442W        W44973  36.549  16.610   2.303
83443W        W44974  21.724  15.630   1.743
83444W        W44975  13.658  33.883   1.812
83445W        W44976   1.811   5.716  13.370
83446W        W44977  25.975  44.426   3.732
83447W        W44978   3.781  20.140   1.820
83448W        W44979  37.069  15.774   1.813
83449W        W44980  18.664  39.918  10.077
83450W        W44981  27.068   0.843  11.076
83451W        W44982  15.131  24.548   1.712
83452W        W44983   5.220  27.170   0.312
83453W        W44984  23.140  43.962   4.140
83454W        W44985   5.303   0.297   2.707
83455W        W44986   7.907  33.528  11.539
83456W        W44987  28.140  41.855  12.380
83457W        W44988  31.122  27.075   4.345
83458W        W44989  24.572  27.117  10.572
83459W        W44990  23.157   1.961   1.262
83460W        W44991  42.970   8.740   0.802
83461W        W44992  26.618  27.125  13.433
83462W        W44993  18.763  37.541   1.857
83463W        W44994  24.554  19.764  13.381
83464W        W44995   5.246  36.480   4.765
83465W        W44996  38.953  37.458   3.742
83466W        W44997   4.753   6.253   2.379
83467W        W44998  22.689  29.034   1.326
83468W        W44999  21.213  12.325   4.113
83469W        W45000  39.331  26.575   1.891
83470W        W45001   5.396   9.206  12.401
83471W        W45002  29.966  41.924  11.035
83472W        W45003  18.725   4.283   0.804
83473W        W45004  28.176  10.810   0.334
83474W        W45005  10.741   5.393  13.424
83475W        W45006   0.273  35.038   4.625
83476W        W45007  39.042  26.120   1.216
83477W        W45008  42.924  35.920   1.444
83478W        W45009  12.281  11.245  11.418
83479W        W45010  43.985  36.441  14.761
83480W        W45011  39.866  10.774  11.083
83481W        W45012   6.863  33.068   0.751
83482W        W45013  30.579   2.897   0.253
83483W        W45014  16.595  22.010   2.721
83484W        W45015  13.608  31.088  13.913
83485W        W45016  35.535  32.133  14.937
83486W        W45017  28.494  39.314  12.466
83487W        W45018   8.674  22.578   3.661
83488W        W45019   0.359  25.704   1.228
83489W        W45020  21.142  35.958   0.877
83490W        W45021  30.537  35.446  14.484
83491W        W45022  20.747  32.142   0.747
83492W        W45023  31.937   3.228  12.509
83493W        W45024  34.497  20.633  12.890
83494W        W45025  37.076  27.174   0.475
83495W        W45026  27.567  43.317   2.792
83496W        W45027  17.576  39.490   0.745
83497W        W45028  33.050   5.777   2.698
83498W        W45029  25.107  43.277  13.922
83499W        W45030   6.424  38.391  14.418
83500W        W45031  38.037  30.657  13.820
83501W        W45032  29.006   7.268  12.428
83502W        W45033  13.329   5.692  12.956
83503W        W45034  15.762  27.101   0.753
83504W        W45035   6.842  28.046   4.341
83505W        W45036  18.220  10.292  11.090
83506W        W45037   0.270  30.462   1.353
83507W        W45038  24.098  18.142  14.816
83508W        W45039  43.786  30.449   4.696
83509W        W45040  28.072  31.483   3.171
83510W        W45041  11.243  35.953  14.493
83511W        W45042  42.443  31.471   3.244
83512W        W45043  10.368  11.699   0.928
83513W        W45044  33.959  26.174  10.487
83514W        W45045   5.325  32.610  11.947
83515W        W45046  12.345  27.512  10.957
83516W        W45047  22.630  26.031   4.355
83517W        W45048  44.756  43.885  12.828
83518W        W45049  31.455   9.682   3.190
83519W        W45050  27.542  12.161   4.218
83520W        W45051  37.842  17.690  13.471
83521W        W45052  28.935  14.762  12.958
83522W        W45053  30.076  21.041  12.425
83523W        W45054  11.160  19.711  13.446
83524W        W45055  30.556  11.344  11.565
83525W        W45056  22.018  31.542   9.642
83526W        W45057  30.045   9.655   1.918
83527W        W45058   5.239  19.240   3.685
83528W        W45059  20.646   4.378  11.995
83529W        W45060  35.432   8.793  13.005
83530W        W45061  30.002  28.169   4.794
83531W        W45062  41.978  29.571   3.780
83532W        W45063  31.029   4.840  14.804
83533W        W45064  26.172  15.687   3.817
83534W        W45065  16.787  40.390   3.728
83535W        W45066  43.490  42.878   2.291
83536W        W45067  34.095   0.472  12.442
83537W        W45068  16.579  41.791   3.293
83538W        W45069   1.881  17.179   3.376
83539W        W45070  43.836   4.715  13.322
83540W        W45071  12.354  11.659  14.807
83541W        W45072  22.042   6.751   1.340
83542W        W45073  12.719  29.661   1.366
83543W        W45074  26.180  41.845  11.890
83544W        W45075   0.958   9.725   2.304
83545W        W45076  12.810  22.201   1.725
83546W        W45077   9.229  15.676   3.777
83547W        W45078  31.522   2.926   3.638
83548W        W45079  12.133  12.812  10.500
83549W        W45080  29.661  30.107  14.963
83550W        W45081  15.138  44.858   3.683
83551W        W45082   9.184   5.382  14.016
83552W        W45083  44.307   3.372  13.354
83553W        W45084  16.661   7.315  14.281
83554W        W45085  20.088  36.406  11.524
83555W        W45086  40.389  38.486  10.891
83556W        W45087  40.471  17.228  11.952
83557W        W45088  36.515   9.239   1.916
83558W        W45089   1.892   0.743   3.311
83559W        W45090  35.413   3.767   4.200
83560W        W45091  22.636  12.696  13.012
83561W        W45092   3.916  32.987   4.637
83562W        W45093  29.129   8.781   5.240
83563W        W45094  37.424  21.152   0.735
83564W        W45095  38.969   3.768   2.713
83565W        W45096  13.230  27.018  10.913
83566W        W45097  42.503  11.243   0.335
83567W        W45098  17.724  32.446  11.382
83568W        W45099  44.812  15.774  12.077
83569W        W45100   3.868  41.382  12.040
83570W        W45101  30.488   1.427  11.097
83571W        W45102   0.826  27.968  13.828
83572W        W45103  13.646   7.877  14.031
83573W        W45104  16.128  18.599   4.768
83574W        W45105  22.132   8.707   1.397
83575W        W45106  14.248  18.601   2.899
83576W        W45107   5.808  34.578   0.296
83577W        W45108  35.963  12.165  14.434
83578W        W45109  32.051  17.613  11.997
83579W        W45110  11.203  42.416  14.384
83580W        W45111  24.054  10.814  10.994
83581W        W45112  40.326   4.928  13.986
83582W        W45113  33.482  26.015  10.968
83583W        W45114  28.681  17.723   4.158
83584W        W45115  37.573  13.810  12.458
83585W        W45116   5.879  43.958  14.979
83586W        W45117  29.536  29.583   2.860
83587W        W45118  38.067   8.815  14.386
83588W        W45119  22.167   0.311   1.835
83589W        W45120  18.109  22.654  10.905
83590W        W45121  35.855  30.955   4.633
83591W        W45122   1.849  10.729  10.509
83592W        W45123  31.135  15.202   1.924
83593W        W45124   6.315  10.298   0.899
83594W        W45125  27.124  18.755   1.761
83595W        W45126  27.193  27.046   2.718
83596W        W45127  29.966  36.863  12.097
83597W        W45128  11.624  11.349   4.772
83598W        W45129   0.336  23.581   0.845
83599W        W45130  21.198  41.987   4.707
83600W        W45131  33.565   2.396  12.381
83601W        W45132  33.460  26.591   4.625
83602W        W45133  26.544  14.695   3.185
83603W        W45134  44.474   1.774  13.330
83604W        W45135  25.645   5.862  10.944
83605W        W45136  14.817  15.297   2.779
83606W        W45137  27.503  16.173   4.628
83607W        W45138  29.468  31.558   0.797
83608W        W45139  22.246  13.162   4.721
83609W        W45140  39.443  29.534   2.717
83610W        W45141  11.737   6.380   2.267
83611W        W45142  17.653  36.091  12.348
83612W        W45143  30.608  30.474   4.336
83613W        W45144  27.981  27.682   2.706
83614W        W45145  12.784  21.699   1.356
83615W        W45146  15.156  22.522   4.628
83616W        W45147  43.430   3.410   0.344
83617W        W45148  36.499  26.659  10.493
83618W        W45149  44.856  27.940   3.855
83619W        W45150  26.556  30.110   2.809
83620W        W45151   6.236  37.369   5.086
83621W        W45152  17.682  39.859  13.921
83622W        W45153  36.996  23.168  12.974
83623W        W45154  26.960   9.304   0.267
83624W        W45155  12.151  37.538  13.006
83625W        W45156   3.860   1.827  11.520
83626W        W45157  19.594   8.237  14.294
83627W        W45158  27.176  28.150   1.444
83628W        W45159  40.979   8.390  12.460
83629W        W45160  20.164   1.750   2.740
83630W        W45161   7.270  28.058  13.446
83631W        W45162  22.092  33.972  13.816
83632W        W45163  39.864  41.493  13.529
83633W        W45164   6.832  33.985  13.929
83634W        W45165  10.185  42.857   4.647
83635W        W45166  16.188  20.667   0.347
83636W        W45167  29.584   2.341   0.847
83637W        W45168  26.522  30.496   3.340
83638W        W45169   4.441  17.769   3.231
83639W        W45170  12.611  38.831  11.942
83640W        W45171  19.195  32.548  10.643
83641W        W45172  27.051  12.721   4.165
83642W        W45173  29.518  34.390   4.794
83643W        W45174  38.411   8.709   9.660
83644W        W45175  40.391  33.951   2.887
83645W        W45176  34.558  20.664  14.477
83646W        W45177  28.672  30.037   0.880
83647W        W45178   6.903  21.082   4.171
83648W        W45179  21.718   4.904   3.676
83649W        W45180  42.311  36.404  11.915
83650W        W45181  30.932  16.227  13.816
83651W        W45182  21.100  44.404   3.784
83652W        W45183  40.832  15.215  14.942
83653W        W45184  32.471   7.807   1.800
83654W        W45185  38.325  36.953  11.029
83655W        W45186  21.098  31.503  12.568
83656W        W45187  30.946   2.824  11.602
83657W        W45188  11.707  32.009   0.248
83658W        W45189  38.943  32.469   1.866
83659W        W45190  36.871  28.515   0.817
83660W        W45191  36.894  39.369   1.301
83661W        W45192  15.138   2.848   0.783
83662W        W45193  28.665  35.059   1.291
83663W        W45194   9.740  41.428  10.941
83664W        W45195  34.461  32.472  13.392
83665W        W45196   6.233  11.312   0.336
83666W        W45197  27.001  19.162  13.000
83667W        W45198   5.278  26.487  11.484
83668W        W45199  11.357  34.586  10.982
83669W        W45200  27.633   4.774   4.226
83670W        W45201  12.710  24.092   4.240
83671W        W45202  10.689  30.149  13.519
83672W        W45203  15.213   6.856   2.777
83673W        W45204  40.459   1.914   2.318
83674W        W45205  17.257  22.017   9.591
83675W        W45206  27.959  23.029  11.596
83676W        W45207  43.912  29.557  12.024
83677W        W45208  13.198  28.026  12.072
83678W        W45209  26.953   1.424   4.711
83679W        W45210  38.008  19.647  14.767
83680W        W45211  44.410  39.007  13.356
83681W        W45212  44.372  16.139   1.918
83682W        W45213  40.921  16.210   4.691
83683W        W45214   4.434  30.066  14.949
83684W        W45215  19.638  18.743   5.134
83685W        W45216  14.242  23.569   5.313
83686W        W45217  24.045   9.303  14.955
83687W        W45218  30.042  24.715  12.936
83688W        W45219  10.819  13.712  11.561
83689W        W45220   4.407  27.104  13.994
83690W        W45221  26.508  31.955  13.415
83691W        W45222  22.539   7.791  11.869
83692W        W45223   3.827   5.798   4.279
83693W        W45224  44.425  23.091   5.095
83694W        W45225   9.820  18.236  11.452
83695W        W45226  38.439  41.040  14.490
83696W        W45227  36.055  10.788  12.077
83697W        W45228   0.261  23.104   3.743
83698W        W45229  17.071  25.194   3.323
83699W        W45230  10.224   3.241   4.700
83700W        W45231  11.186   9.815   4.598
83701W        W45232  37.552  35.416   4.732
83702W        W45233   8.716  14.633   4.611
83703W        W45234  39.051  20.151   3.856
83704W        W45235  23.660  40.832  11.903
83705W        W45236  28.037  34.519   4.170
83706W        W45237  13.243   2.263   0.462
83707W        W45238   5.853   1.463  12.901
83708W        W45239  24.599  14.126   5.139
83709W        W45240  37.347  39.334   1.235
83710W        W45241  35.035  35.482   2.400
83711W        W45242  26.643  23.030  13.927
83712W        W45243  22.171   3.779  13.878
83713W        W45244  26.471  19.197   2.825
83714W        W45245  18.700  25.206   5.259
83715W        W45246  32.129  27.478  11.456
83716W        W45247   4.441   3.825   3.205
83717W        W45248  26.488  18.139   0.877
83718W        W45249  40.828  38.001   2.761
83719W        W45250  34.110  42.869   0.880
83720W        W45251  24.980  36.935  12.931
83721W        W45252  40.916  32.040   4.706
83722W        W45253   9.724  32.458  12.823
83723W        W45254   0.770  16.233   0.389
83724W        W45255  26.501  30.573   5.655
83725W        W45256  37.527  32.531   1.781
83726W        W45257  38.393   9.711  13.312
83727W        W45258  13.163  17.136   4.172
83728W        W45259  42.507  37.554  10.637
83729W        W45260  36.353  38.351  12.869
83730W        W45261  22.137  35.084  12.877
83731W        W45262  28.062   8.198  12.893
83732W        W45263  20.107  20.659   0.826
83733W        W45264  31.131  25.987   4.647
83734W        W45265   6.920   1.962   4.729
83735W        W45266  25.582  43.334  12.865
83736W        W45267   8.233  14.204   2.733
83737W        W45268  36.091  31.539   1.314
83738W        W45269  21.610  11.782   1.831
83739W        W45270   2.462  26.638   2.400
83740W        W45271   3.452  19.144  14.929
83741W        W45272  22.998  16.809  11.409
83742W        W45273  20.221  16.793   3.155
83743W        W45274  35.901  10.384   5.125
83744W        W45275  18.730  44.859   4.303
83745W        W45276   1.387  36.447  13.061
83746W        W45277  13.686  21.062   4.282
83747W        W45278  11.786  23.507   2.878
83748W        W45279  20.179  11.185   0.252
83749W        W45280   6.355  42.910   3.800
83750W        W45281  41.435  28.974   4.158
83751W        W45282  14.667   2.247  11.522
83752W        W45283  24.722  35.089  12.895
83753W        W45284  39.913   0.483   2.797
83754W        W45285  43.351  31.038   3.148
83755W        W45286  40.001  18.758  12.008
83756W        W45287  36.481  42.952   4.814
83757W        W45288  20.655  12.301  14.415
83758W        W45289  11.771  27.558  11.042
83759W        W45290  29.931  24.534  13.359
83760W        W45291  37.075  30.909  11.914
83761W        W45292  32.406  20.548   1.761
83762W        W45293  35.859  19.109   1.754
83763W        W45294  19.604   7.874   1.263
83764W        W45295  34.053  12.633   4.718
83765W        W45296   1.753  24.632   3.822
83766W        W45297  37.917  21.570  14.387
83767W        W45298  35.526  33.415   2.739
83768W        W45299   7.791   6.393  10.492
83769W        W45300  42.030  32.498  14.466
83770W        W45301  25.070  31.932  12.994
83771W        W45302   7.876  11.730   5.242
83772W        W45303  40.928  42.965   2.773
83773W        W45304  17.241   9.874  12.470
83774W        W45305  10.382  22.113   0.844
83775W        W45306  29.652  28.121  14.315
83776W        W45307  16.775   5.439   2.323
83777W        W45308   8.743  11.803   1.427
83778W        W45309  25.530  25.475   2.299
83779W        W45310  33.125   9.645   3.863
83780W        W45311  22.152  13.644  11.931
83781W        W45312  32.102   4.938   2.289
83782W        W45313   1.748  17.204  13.930
83783W        W45314  38.382  21.184  12.950
83784W        W45315  13.737  10.321   1.302
83785W        W45316  20.610  26.660   3.692
83786W        W45317   2.276  31.518  10.598
83787W        W45318   0.823  20.054   1.923
83788W        W45319  33.093  42.946   3.740
83789W        W45320  33.922  29.109  14.325
83790W        W45321  36.361  13.734   0.925
83791W        W45322  36.964  22.598   0.858
83792W        W45323  24.707  20.159  10.956
83793W        W45324   3.403  43.329  13.458
83794W        W45325  32.621   0.425   1.818
83795W        W45326   2.334  32.905   0.426
83796W        W45327  19.719  15.255   4.291
83797W        W45328   0.484   1.872   1.857
83798W        W45329  20.765  36.518  14.366
83799W        W45330  37.875   3.346  14.788
83800W        W45331  43.819  32.134   4.825
83801W        W45332  29.097   3.860   3.226
83802W        W45333  24.499  27.161  13.816
83803W        W45334  20.718  36.845   4.779
83804W        W45335  44.009  15.578  13.328
83805W        W45336   9.347  21.672  10.491
83806W        W45337  41.824  39.867   4.806
83807W        W45338   2.448  38.877   1.703
83808W        W45339  19.096  27.638  10.582
83809W        W45340  43.840  30.151   1.731
83810W        W45341  19.053  20.235   1.401
83811W        W45342  36.996  18.566   3.659
83812W        W45343  21.250   8.883   3.251
83813W        W45344  38.337  33.889  10.509
83814W        W45345  44.469  36.847  14.353
83815W        W45346  24.623   3.801   1.237
83816W        W45347   7.408  10.788   2.730
83817W        W45348  32.118  35.905   4.159
83818W        W45349  34.872  31.531  12.454
83819W        W45350  18.615  25.627   2.881
83820W        W45351  13.167  32.606   5.239
83821W        W45352  15.669   3.327   2.290
83822W        W45353  21.263  21.627  11.453
83823W        W45354  15.759  32.917   4.233
83824W        W45355  21.618  10.760   1.708
83825W        W45356  22.544  12.841  11.436
83826W        W45357  16.175  39.957   3.349
83827W        W45358  38.344  24.229  11.567
83828W        W45359  13.298  21.204  10.602
83829W        W45360   6.863  41.981   4.599
83830W        W45361  27.103  43.976  11.424
83831W        W45362  24.629  13.265  14.767
83832W        W45363  18.629  24.169   3.796
83833W        W45364  27.560  43.956  12.962
83834W        W45365  13.154  18.276   1.234
83835W        W45366   6.770  21.646  14.782
83836W        W45367  35.461  11.668   3.841
83837W        W45368   0.906  21.220  12.066
83838W        W45369   5.850   4.409   1.882
83839W        W45370  29.139  17.270   3.812
83840W        W45371  39.877  36.099   2.207
83841W        W45372  34.999  44.779   1.326
83842W        W45373  31.604  29.159  11.001
83843W        W45374   2.396  13.760  12.380
83844W        W45375  29.573  20.216  10.906
83845W        W45376  19.638  36.882  11.898
83846W        W45377  34.517  10.368   1.249
83847W        W45378  30.133  40.895  14.449
83848W        W45379  13.783  29.954  14.380
83849W        W45380  43.278  33.881   1.851
83850W        W45381  18.208  29.078  11.983
83851W        W45382  44.395  27.632  14.822
83852W        W45383  27.658  33.083  11.098
83853W        W45384  39.531  40.451  11.118
83854W        W45385   1.311  26.018   0.811
83855W        W45386  31.607  11.754  12.996
83856W        W45387  20.660  13.350   1.331
83857W        W45388  35.497  29.545  12.026
83858W        W45389  32.520  19.702   0.867
83859W        W45390  26.488  31.957   3.326
83860W        W45391  30.016  33.046   1.882
83861W        W45392  26.996  15.099   1.277
83862W        W45393  20.638  22.614  13.346
83863W        W45394   1.907  11.186  14.321
83864W        W45395  42.890   6.775  11.042
83865W        W45396  32.062   8.777  10.036
83866W        W45397  14.730  20.714   2.211
83867W        W45398  35.861  29.468   0.935
83868W        W45399  23.588   0.357  10.521
83869W        W45400  30.491  30.015   3.796
83870W        W45401  23.146  17.127  12.543
83871W        W45402  24.984   1.876   2.228
83872W        W45403  38.861  32.523   3.801
83873W        W45404  15.742   8.759  13.369
83874W        W45405  20.593  36.412  14.790
83875W        W45406  13.122  10.280   4.230
83876W        W45407   2.793  42.429   0.914
83877W        W45408   6.785  31.413   0.243
83878W        W45409   0.982   7.772   4.130
83879W        W45410  18.245  10.161   3.260
83880W        W45411  15.208  17.558  13.354
83881W        W45412  30.444  38.931  12.523
83882W        W45413  13.109  13.288  10.096
83883W        W45414  23.220   8.796   5.308
83884W        W45415  30.957  31.910   2.710
83885W        W45416   7.321  21.684   1.802
83886W        W45417  17.170   3.268  11.460
83887W        W45418   3.757  40.342   0.738
83888W        W45419  34.579  12.314   0.849
83889W        W45420  39.027  43.775  12.872
83890W        W45421  31.599  22.598  13.845
83891W        W45422  24.005   9.864  14.453
83892W        W45423  18.774   4.229   0.321
83893W        W45424  43.802  34.872   0.790
83894W        W45425   2.463   3.807   2.399
83895W        W45426  10.660  18.547  11.114
83896W        W45427  30.602  30.156   0.429
83897W        W45428  23.058   0.317  14.409
83898W        W45429  28.068  34.379   2.802
83899W        W45430  41.877   3.419  13.957
83900W        W45431  15.770  19.548  14.352
83901W        W45432  42.519  31.051  14.813
83902W        W45433  18.214  11.690   3.154
83903W        W45434  25.057   9.176  12.862
83904W        W45435  14.601   5.713  13.486
83905W        W45436  20.194  12.633  12.988
83906W        W45437  35.378   0.378  14.889
83907W        W45438  31.118  40.991  11.440
83908W        W45439  24.053  10.816   4.276
83909W        W45440  27.584  31.952  14.428
83910W        W45441  38.009  39.829   0.319
83911W        W45442  31.469  37.030   1.371
83912W        W45443  30.624  10.782   2.746
83913W        W45444   6.821  38.843   0.339
83914W        W45445  10.277   7.674   1.727
83915W        W45446  26.535  38.347  13.496
83916W        W45447   6.229  12.756   4.717
83917W        W45448  30.628  37.080  10.508
83918W        W45449  17.286  41.336  12.826
83919W        W45450  30.042  10.148   0.935
83920W        W45451  39.369  19.737   2.683
83921W        W45452  14.329   9.251  11.067
83922W        W45453  17.638   9.217   4.265
83923W        W45454  16.169   6.722   0.277
83924W        W45455  10.822  30.618   3.224
83925W        W45456  23.034  40.007  10.417
83926W        W45457  30.570  18.613   0.735
83927W        W45458  41.520  42.008  14.803
83928W        W45459  20.091  19.584   4.646
83929W        W45460  23.192   3.389   3.632
83930W        W45461  33.897  21.043   4.760
83931W        W45462  17.801  18.110   4.693
83932W        W45463  32.008  21.600  14.903
83933W        W45464  20.660  14.322  10.456
83934W        W45465   1.414   7.780  13.485
83935W        W45466  17.160  31.956  14.374
83936W        W45467  27.600  10.660   1.825
83937W        W45468  27.052   6.701  13.023
83938W        W45469  19.758  22.557  14.509
83939W        W45470   4.424   6.329   0.784
83940W        W45471  22.187  31.957   3.216
83941W        W45472  24.990  19.641   1.743
83942W        W45473  32.536  16.158   1.835
83943W        W45474  11.149  20.601  11.866
83944W        W45475  26.009  19.265  14.325
83945W        W45476   7.670  24.518   0.287
83946W        W45477  28.095  18.289   3.756
83947W        W45478  37.428  38.946  11.561
83948W        W45479  14.170  26.608   1.359
83949W        W45480  10.222  31.050   5.674
83950W        W45481  36.462  27.106  14.862
83951W        W45482  12.258   6.881   3.684
83952W        W45483  20.094  37.362   0.806
83953W        W45484  41.465  21.257  14.846
83954W        W45485  33.923   1.824   3.753
83955W        W45486   7.754  30.061   0.330
83956W        W45487  30.570  30.432  12.948
83957W        W45488  22.191  31.622  12.524
83958W        W45489   1.818  39.352   0.371
83959W        W45490   4.862  15.706   2.849
83960W        W45491  24.604  15.819   4.257
83961W        W45492  18.641  10.194  10.019
83962W        W45493  32.508  34.044   0.863
83963W        W45494   9.173  42.304  14.332
83964W        W45495  32.453  38.839   0.892
83965W        W45496  15.247  23.616  14.896
83966W        W45497  20.095  15.738   1.859
83967W        W45498  21.207  36.941   1.747
83968W        W45499  41.442  34.559  13.485
83969W        W45500   9.769  44.259  13.052
83970W        W45501  44.937  29.503  14.911
83971W        W45502  28.160   7.329   3.230
83972W        W45503  38.463  31.489   4.605
83973W        W45504  16.775  20.192  12.043
83974W        W45505  29.514   3.376  10.971
83975W        W45506  32.476  28.531  11.932
83976W        W45507  10.827  18.201  10.486
83977W        W45508   1.758  37.033   0.942
83978W        W45509  15.591  43.872  10.081
83979W        W45510   6.781  32.891  10.893
83980W        W45511  18.767  31.074   3.317
83981W        W45512  33.505   2.471  12.095
83982W        W45513  37.355  26.962   4.717
83983W        W45514  35.078  36.992   1.884
83984W        W45515  16.306  36.939   2.819
83985W        W45516  36.389  44.471  11.035
83986W        W45517  33.608  11.239  14.934
83987W        W45518  29.123  34.562   0.341
83988W        W45519  29.121  29.945   2.696
83989W        W45520   0.257  30.953   3.723
83990W        W45521   0.942  44.995  11.092
83991W        W45522  26.638  35.400  10.404
83992W        W45523   4.228  24.136  13.431
83993W        W45524  24.975  10.660   0.252
83994W        W45525  16.136  10.811   3.169
83995W        W45526   9.703  40.032  11.977
83996W        W45527  16.184  39.419   0.951
83997W        W45528  39.001  37.014  12.963
83998W        W45529  12.151   0.471   3.191
83999W        W45530  40.971   3.323  13.404
84000W        W45531   1.925  14.249  14.477
84001W        W45532  31.413   7.817   0.864
84002W        W45533   9.275  41.926   2.417
84003W        W45534   9.339  20.725  11.972
84004W        W45535  15.788   7.822  12.097
84005W        W45536  27.476  24.217  11.032
84006W        W45537  33.946  34.022  12.880
84007W        W45538   9.354  10.234   4.277
84008W        W45539  10.228  21.213  10.132
84009W        W45540  35.599  39.447  13.008
84010W        W45541  21.521   7.353  11.379
84011W        W45542  24.485  14.638  13.038
84012W        W45543  37.551  33.909  14.361
84013W        W45544   8.882  15.215   2.749
84014W        W45545  40.920  36.081  12.823
84015W        W45546   8.685   7.810   3.823
84016W        W45547  34.898  24.697   3.655
84017W        W45548  13.807  44.954   2.710
84018W        W45549  11.144   1.466  13.970
84019W        W45550   2.252  18.690  14.468
84020W        W45551   0.345  12.628  13.509
84021W        W45552  15.241   3.282   2.788
84022W        W45553  18.065  38.347  13.919
84023W        W45554   3.791  20.072  10.896
84024W        W45555  43.298  17.699   3.743
84025W        W45556  31.994  30.522  14.989
84026W        W45557  33.490   6.358  14.849
84027W        W45558  25.708  18.214   3.843
84028W        W45559  39.038  29.662  12.938
84029W        W45560  21.237  15.197   3.741
84030W        W45561  17.108  13.136  12.407
84031W        W45562  20.131   3.260   0.312
84032W        W45563  23.112  41.454   0.411
84033W        W45564  36.861  13.199   2.793
84034W        W45565  28.499  28.967  13.454
84035W        W45566  16.603  11.259  13.806
84036W        W45567  29.016  28.483  13.307
84037W        W45568  22.732   4.702   0.768
84038W        W45569   8.209  29.006  11.469
84039W        W45570  25.710   3.815  14.803
84040W        W45571  20.615  30.924  14.799
84041W        W45572   3.849  26.137   3.696
84042W        W45573  41.525   8.735   4.282
84043W        W45574   9.765  25.558  11.947
84044W        W45575   5.324  10.855  13.425
84045W        W45576  11.727  22.135  14.931
84046W        W45577   0.494   8.231  11.505
84047W        W45578  41.866  17.143   2.705
84048W        W45579  30.085  35.071  12.082
84049W        W45580  13.721  32.399  14.877
84050W        W45581  32.129  40.859  14.459
84051W        W45582  17.777  22.209   5.285
84052W        W45583  42.349  22.555  13.525
84053W        W45584   6.231  31.998  13.493
84054W        W45585  17.653   6.880   3.799
84055W        W45586  15.305  18.063  11.017
84056W        W45587  22.231   1.398   1.409
84057W        W45588  41.926  35.570  14.010
84058W        W45589  40.931   3.240  12.008
84059W        W45590  39.046  40.877   3.258
84060W        W45591  41.885  23.992   4.273
84061W        W45592  16.689   2.455   4.718
84062W        W45593  26.170  20.126  13.846
84063W        W45594  34.461  29.438  12.544
84064W        W45595  17.063  41.503   3.146
84065W        W45596  29.965  17.291   4.120
84066W        W45597  28.951  19.131   0.331
84067W        W45598  29.429  30.918   0.419
84068W        W45599   0.790  22.055   2.197
84069W        W45600   5.764  14.230  11.575
84070W        W45601  24.040  20.100  13.816
84071W        W45602  11.813  27.064  10.951
84072W        W45603   3.340  29.014  14.404
84073W        W45604  28.620   6.388  11.896
84074W        W45605   6.346  33.005  11.411
84075W        W45606  26.988  32.054   0.439
84076W        W45607  29.147   5.246   1.741
84077W        W45608  15.144  28.163   3.174
84078W        W45609  29.593  36.431   2.700
84079W        W45610   3.898  24.051  12.480
84080W        W45611  36.427  32.090   2.698
84081W        W45612  35.927  21.607  13.495
84082W        W45613  18.056   5.777  11.594
84083W        W45614  10.840  37.998   0.368
84084W        W45615  38.534  26.175   1.215
84085W        W45616  19.108  28.548   0.734
84086W        W45617  23.623  32.461   1.774
84087W        W45618  38.045  23.055  10.566
84088W        W45619  39.455   5.773   2.697
84089W        W45620   3.711  43.474  10.638
84090W        W45621  19.255  21.721  11.018
84091W        W45622  18.692  31.562   4.704
84092W        W45623  18.658  12.260   4.698
84093W        W45624   6.194  33.441   4.120
84094W        W45625  14.256   2.456   0.843
84095W        W45626  40.946  16.770   4.781
84096W        W45627  33.563  21.252   0.482
84097W        W45628  36.426   1.841   2.831
84098W        W45629  15.714   8.718   4.274
84099W        W45630  30.502  19.776  15.000
84100W        W45631  38.871  31.944  13.370
84101W        W45632  20.654  12.207   2.706
84102W        W45633  14.260   2.964   1.291
84103W        W45634  13.717  40.303  14.277
84104W        W45635  25.636  35.947  10.924
84105W        W45636  25.963  43.903  14.025
84106W        W45637  39.853   8.668  13.507
84107W        W45638   8.183   2.957  14.349
84108W        W45639  10.157  35.942  13.997
84109W        W45640  28.134   6.424  13.936
84110W        W45641   1.367   5.208  14.479
84111W        W45642   0.916  36.945   0.773
84112W        W45643  22.065   8.681   5.136
84113W        W45644   1.915  35.371  11.470
84114W        W45645  24.984  39.818  12.567
84115W        W45646  22.713   5.273  11.613
84116W        W45647  15.630   0.463  12.444
84117W        W45648  33.045  19.637  10.462
84118W        W45649  43.842  17.598   4.649
84119W        W45650  16.092  21.218   2.413
84120W        W45651   2.868  18.729  13.975
84121W        W45652  34.007  32.015  13.863
84122W        W45653  37.533  10.268   1.859
84123W        W45654   9.656   0.444   3.665
84124W        W45655  15.137  21.536   2.801
84125W        W45656   1.306  17.265  13.899
84126W        W45657   1.754  43.844  14.940
84127W        W45658  31.576  30.542  12.850
84128W        W45659  18.552  39.026   2.234
84129W        W45660  23.575  34.449  13.418
84130W        W45661  20.085  31.596   0.289
84131W        W45662  25.618  22.721  12.579
84132W        W45663  44.790  40.329  13.371
84133W        W45664  10.806  10.145  14.294
84134W        W45665  27.171  36.437  12.963
84135W        W45666  19.070  31.586  13.484
84136W        W45667  16.663  25.689  14.389
84137W        W45668  43.902  28.633   4.698
84138W        W45669  36.986  44.998   3.680
84139W        W45670   7.804  31.912  13.873
84140W        W45671  10.742  32.524  12.843
84141W        W45672   8.238  14.675  11.595
84142W        W45673  34.116   9.272  10.888
84143W        W45674  32.439  33.906  12.892
84144W        W45675  34.528  34.867  14.934
84145W        W45676  25.007   6.733  10.502
84146W        W45677   6.319  37.909   1.243
84147W        W45678  30.495  37.481  12.565
84148W        W45679  13.732   1.948  13.473
84149W        W45680  32.939  23.034  11.921
84150W        W45681   3.931  13.205  14.758
84151W        W45682  38.345  34.470   3.766
84152W        W45683  30.576  23.080   3.747
84153W        W45684  16.310  16.797  11.002
84154W        W45685  33.945  21.683  14.817
84155W        W45686  15.676  39.820  10.026
84156W        W45687  30.976  15.601   5.257
84157W        W45688  43.389   4.369  12.847
84158W        W45689  35.983  10.376   3.202
84159W        W45690   2.285  43.803  12.457
84160W        W45691  25.111  29.982   3.847
84161W        W45692   8.764  34.022   2.892
84162W        W45693  36.525  32.503  11.013
84163W        W45694  19.620   0.420   0.850
84164W        W45695  20.230  19.184  14.488
84165W        W45696  12.754  32.563   4.211
84166W        W45697  16.749  32.934   1.733
84167W        W45698   9.221  27.945   2.419
84168W        W45699  37.570  41.411  11.903
84169W        W45700  40.903  23.077  13.044
84170W        W45701   0.796  25.502   3.284
84171W        W45702   7.892   5.705   3.659
84172W        W45703  28.980  16.170   3.673
84173W        W45704  26.964  27.006   2.272
84174W        W45705  27.654  32.407   2.340
84175W        W45706  18.056  24.480   1.370
84176W        W45707  33.951  21.194   0.458
84177W        W45708  25.645  36.533  11.890
84178W        W45709  37.452  37.479  10.949
84179W        W45710   7.821  43.297  14.447
84180W        W45711  14.726  30.587  10.444
84181W        W45712   9.696  14.162  14.031
84182W        W45713  23.211  11.688   4.158
84183W        W45714  10.848  33.478  12.424
84184W        W45715  16.744  16.248   3.261
84185W        W45716   3.900  10.150  10.104
84186W        W45717   6.407  16.689   0.368
84187W        W45718  28.465  25.670  10.961
84188W        W45719  13.831  14.112   2.391
84189W        W45720   3.344  42.885  13.463
84190W        W45721  28.077  34.918   1.361
84191W        W45722   9.885  18.631   2.381
84192W        W45723  16.666   8.713  10.613
84193W        W45724  42.419  11.292  13.052
84194W        W45725  34.401  33.906  12.005
84195W        W45726  21.709  17.302  12.053
84196W        W45727  28.016  33.029   3.649
84197W        W45728   0.446  23.176  14.486
84198W        W45729  42.426   9.875  12.884
84199W        W45730  10.786  41.317   0.393
84200W        W45731  20.100  37.518   2.707
84201W        W45732  43.406  39.323  12.987
84202W        W45733   7.829   5.728  11.970
84203W        W45734  36.850  18.564   1.431
84204W        W45735   3.864  39.960   1.379
84205W        W45736  33.386  26.955  13.485
84206W        W45737  14.282  14.306   3.697
84207W        W45738   9.650  37.042   4.222
84208W        W45739   7.329  26.689   1.368
84209W        W45740  37.412   0.778  13.000
84210W        W45741  41.925  14.651  10.549
84211W        W45742  20.159   6.853  14.801
84212W        W45743  39.954  34.884   1.323
84213W        W45744  43.771  23.721   2.703
84214W        W45745  38.880  30.489   3.777
84215W        W45746  38.841  14.099  10.635
84216W        W45747  43.907  36.953  13.957
84217W        W45748  38.369  44.456  11.100
84218W        W45749  37.857   0.857   0.414
84219W        W45750  31.506  23.558  14.279
84220W        W45751   5.251  39.555   3.166
84221W        W45752  42.917  17.715   0.367
84222W        W45753   7.262  23.020   0.482
84223W        W45754  23.733  16.258  12.922
84224W        W45755  24.702  24.099  12.004
84225W        W45756  27.507  43.439   4.686
84226W        W45757  30.120  12.774   0.743
84227W        W45758  18.267  17.706  12.063
84228W        W45759  25.553  34.457   0.287
84229W        W45760  35.476  36.422   3.275
84230W        W45761  35.541  30.561  11.947
84231W        W45762   3.293   8.874  13.926
84232W        W45763  28.565   8.787  14.325
84233W        W45764  29.649  22.237  13.939
84234W        W45765  32.400  20.253  12.446
84235W        W45766  28.498  32.960  14.811
84236W        W45767   8.668  29.652   4.306
84237W        W45768  22.579  14.207   0.868
84238W        W45769  34.114   2.381  14.922
84239W        W45770  41.366   2.407   2.332
84240W        W45771  14.303  38.034  11.524
84241W        W45772  34.984  43.796  14.901
84242W        W45773  38.034  38.061  13.938
84243W        W45774  44.814  29.599  13.364
84244W        W45775  26.552  25.668  11.076
84245W        W45776   6.749   2.865   1.792
84246W        W45777  23.999  42.853   1.315
84247W        W45778  27.495   7.738   3.319
84248W        W45779  33.125   3.862   1.763
84249W        W45780  31.604  31.908  12.572
84250W        W45781  34.024  18.130   0.755
84251W        W45782  13.288  40.527  12.012
84252W        W45783  36.910   6.768   1.325
84253W        W45784   0.838  25.992  13.351
84254W        W45785  25.969  31.624   0.821
84255W        W45786  15.088  21.041   1.258
84256W        W45787   3.295   3.410   4.148
84257W        W45788  21.574   9.324   3.334
84258W        W45789  25.073  23.208   1.868
84259W        W45790   3.223  21.545  14.020
84260W        W45791  13.649  41.976   3.277
84261W        W45792  40.484   4.793  10.121
84262W        W45793   6.386  24.524   3.638
84263W        W45794   6.701  34.884  11.918
84264W        W45795  39.810  27.504   2.355
84265W        W45796  28.065  34.107   1.935
84266W        W45797  23.223  31.568  10.618
84267W        W45798  43.977  21.088  14.466
84268W        W45799  23.537  44.842   2.218
84269W        W45800  43.915  33.904   4.324
84270W        W45801  37.540  42.971   2.840
84271W        W45802  12.134  44.452  13.872
84272W        W45803   8.333  19.553   1.398
84273W        W45804   7.840  30.496  13.058
84274W        W45805  28.657   6.866   2.363
84275W        W45806  16.259  14.340   0.874
84276W        W45807  12.124  35.387  13.875
84277W        W45808   9.803  10.364  13.307
84278W        W45809  36.471  37.908  12.867
84279W        W45810  25.552  25.614   0.313
84280W        W45811   6.910   6.365  11.497
84281W        W45812  40.509  31.978   3.323
84282W        W45813  25.084  26.670  12.372
84283W        W45814   2.760  25.051   0.387
84284W        W45815  30.112   8.698   3.675
84285W        W45816  19.654  27.951   3.838
84286W        W45817   6.755  25.508   0.302
84287W        W45818  16.184  10.863  11.503
84288W        W45819  37.024  38.890  12.918
84289W        W45820  35.604  24.022  10.625
84290W        W45821   9.289   2.821  10.112
84291W        W45822  15.329  43.890  14.887
84292W        W45823   1.377  31.567   4.660
84293W        W45824  32.988  26.617  10.581
84294W        W45825  11.800   1.756   0.249
84295W        W45826  20.227  27.963   2.839
84296W        W45827  22.739  25.557   4.646
84297W        W45828  38.992  24.212   0.796
84298W        W45829  17.618  44.912  14.028
84299W        W45830  20.102   0.429   2.802
84300W        W45831  13.117  35.558  11.443
84301W        W45832  40.375  40.989  11.861
84302W        W45833  21.590   1.891  14.828
84303W        W45834  43.882  17.771   0.835
84304W        W45835   4.341   2.324   0.477
84305W        W45836  17.268  35.935  10.965
84306W        W45837  20.604  10.369  13.840
84307W        W45838  33.414  41.412   0.786
84308W        W45839  22.631  37.493   3.163
84309W        W45840  23.086  25.680   3.741
84310W        W45841  18.126  10.723   2.344
84311W        W45842  43.307  25.996   4.215
84312W        W45843  21.672  24.102   4.665
84313W        W45844  10.655  25.192  12.395
84314W        W45845  41.344  26.504  12.539
84315W        W45846  44.903  24.063  10.522
84316W        W45847  18.746   8.296  12.411
84317W        W45848  40.820  32.408  10.573
84318W        W45849   3.860  42.989   2.387
84319W        W45850  32.954  11.330  12.518
84320W        W45851  35.467  23.004  14.968
84321W        W45852  13.649   3.740  10.632
84322W        W45853  10.797  12.267  14.852
84323W        W45854   0.292  31.008  10.916
84324W        W45855   8.301  26.154  12.881
84325W        W45856  30.925  11.347   1.921
84326W        W45857  37.061  25.215   3.366
84327W        W45858   7.410  27.968  14.949
84328W        W45859  21.702  22.233  13.887
84329W        W45860  14.719   1.817   4.670
84330W        W45861   3.315  22.588   2.851
84331W        W45862  28.562  17.594   1.788
84332W        W45863  11.333   4.220   4.776
84333W        W45864   9.362  33.384  13.986
84334W        W45865  44.771  13.247   3.385
84335W        W45866  34.938  20.264  10.439
84336W        W45867  38.895  11.212   1.799
84337W        W45868   4.840  17.690  10.439
84338W        W45869  13.200  25.195   4.138
84339W        W45870  16.760  38.353   1.711
84340W        W45871  40.415  35.376   2.358
84341W        W45872  16.628   9.771  13.308
84342W        W45873  37.423  12.731  12.847
84343W        W45874  43.944  12.284  11.384
84344W        W45875  22.663  31.007  13.921
84345W        W45876  20.246  16.086   1.802
84346W        W45877  16.640  16.121  14.411
84347W        W45878  30.653   5.308  11.028
84348W        W45879   6.263  42.459   4.681
84349W        W45880  25.600   8.814  13.386
84350W        W45881  12.675  39.381  12.528
84351W        W45882  18.160  15.248   3.215
84352W        W45883  22.651   1.928   4.162
84353W        W45884  33.884  29.995  14.875
84354W        W45885  44.291   3.874  14.434
84355W        W45886   4.209  34.053  12.420
84356W        W45887   4.210   6.184   3.786
84357W        W45888  20.030   7.844  10.930
84358W        W45889  21.711   5.389  14.339
84359W        W45890  21.643  42.383   3.259
84360W        W45891  29.477   3.912  10.507
84361W        W45892   2.340  37.883   4.122
84362W        W45893  22.595  36.009   1.804
84363W        W45894   2.767  31.034   4.202
84364W        W45895  15.674  29.476  12.894
84365W        W45896  16.235   0.288  14.958
84366W        W45897  32.593  36.365  11.551
84367W        W45898   6.232  10.382  14.784
84368W        W45899  37.517  27.128  13.009
84369W        W45900   2.441  22.612   1.318
84370W        W45901   5.798   6.737   4.328
84371W        W45902   3.921  11.864   3.382
84372W        W45903  23.618  35.978   0.915
84373W        W45904   1.460   3.445   4.285
84374W        W45905   3.892  32.514  11.008
84375W        W45906  37.841  14.333  11.960
84376W        W45907  12.755   1.297   1.306
84377W        W45908   2.755  26.002  11.502
84378W        W45909  26.472  40.855   2.798
84379W        W45910   5.257  34.458  11.862
84380W        W45911  42.472  13.601   1.791
84381W        W45912  42.490  21.701  14.327
84382W        W45913  37.482  38.960   4.702
84383W        W45914  44.443  38.973  10.985
84384W        W45915   8.683   0.365   3.641
84385W        W45916   0.749  21.597   1.315
84386W        W45917   7.706  36.983   3.702
84387W        W45918   7.247  14.667   3.654
84388W        W45919  11.212  22.569  12.937
84389W        W45920   3.913  27.167   9.938
84390W        W45921  24.975  34.976  12.060
84391W        W45922  16.605  17.750  13.821
84392W        W45923  30.134  20.594  13.497
84393W        W45924   9.261  13.269  14.474
84394W        W45925   7.336   4.873   3.846
84395W        W45926  32.446   7.381  11.070
84396W        W45927  29.109  35.412  11.415
84397W        W45928   4.939  41.416   2.787
84398W        W45929   8.880  29.102   0.469
84399W        W45930  42.393  34.096  14.296
84400W        W45931  20.181  26.068   4.630
84401W        W45932  19.140  30.095   0.846
84402W        W45933   5.397  10.226  14.283
84403W        W45934   1.969  16.305   1.411
84404W        W45935  21.058  27.178   0.770
84405W        W45936  44.830  18.555  10.532
84406W        W45937  20.522  43.502  12.983
84407W        W45938  17.168  18.108   4.125
84408W        W45939  14.101  22.112  10.942
84409W        W45940  32.550  27.998   3.857
84410W        W45941   8.704  44.381  11.099
84411W        W45942  25.102   0.483  14.309
84412W        W45943   4.249  35.420  13.039
84413W        W45944   0.266  17.251  10.603
84414W        W45945  37.532  28.672   2.772
84415W        W45946  26.596   6.290   3.849
84416W        W45947  34.449  44.329  12.996
84417W        W45948  35.568  27.647   0.286
84418W        W45949  13.217  39.479   0.834
84419W        W45950  28.445  23.105  13.840
84420W        W45951  33.002  43.871   3.750
84421W        W45952  28.529   0.334   3.227
84422W        W45953   8.325   9.225   2.217
84423W        W45954  17.727  22.513   2.697
84424W        W45955  40.032  21.124   2.799
84425W        W45956   7.740  16.214  11.482
84426W        W45957  11.746  39.029   2.886
84427W        W45958  26.542  11.722  12.009
84428W        W45959   8.208   5.371  13.490
84429W        W45960  30.545   6.393  11.382
84430W        W45961  36.949  42.443   2.390
84431W        W45962  23.629  32.043   0.959
84432W        W45963  44.824  27.140   3.249
84433W        W45964  39.360  12.744   0.247
84434W        W45965  18.248  15.130  12.990
84435W        W45966   7.705  44.816   1.724
84436W        W45967   8.167  18.227  14.423
84437W        W45968  35.906  20.180   2.704
84438W        W45969  12.813  23.533   3.258
84439W        W45970  39.009  40.354  10.985
84440W        W45971  35.390   8.337  10.902
84441W        W45972  26.521  12.849  10.000
84442W        W45973  29.045  27.590  14.505
84443W        W45974  27.479  40.323   4.599
84444W        W45975  21.733  35.518   3.655
84445W        W45976   5.885  35.457  10.551
84446W        W45977  42.856   7.707   3.859
84447W        W45978  40.395  33.035   2.254
84448W        W45979  19.696  13.783  11.448
84449W        W45980  12.362   8.824   2.736
84450W        W45981   3.359  15.610   1.887
84451W        W45982  23.553  17.146  10.910
84452W        W45983  15.226  29.438  12.549
84453W        W45984   2.313  15.659  13.879
84454W        W45985  31.504   7.281   3.832
84455W        W45986  41.411  13.810  11.573
84456W        W45987   7.185  21.544  13.790
84457W        W45988   9.224  29.450  11.899
84458W        W45989  32.071  24.668  12.578
84459W        W45990  20.159  17.634   3.244
84460W        W45991  12.276  39.983  13.968
84461W        W45992  35.015  26.154  14.849
84462W        W45993  42.372   8.836  13.811
84463W        W45994  44.909   1.791  12.486
84464W        W45995  42.923  29.135   3.782
84465W        W45996   0.745  35.032  10.603
84466W        W45997  12.346  17.772   0.741
84467W        W45998   2.342  19.077  11.102
84468W        W45999  44.324  27.059  13.355
84469W        W46000   0.385  41.992   4.355
84470W        W46001  41.309   2.743   1.890
84471W        W46002   3.712  19.774   1.804
84472W        W46003  38.348  10.242  10.507
84473W        W46004   9.364  37.061  11.970
84474W        W46005   0.819   9.285  10.924
84475W        W46006  16.217  11.326   1.862
84476W        W46007  19.739  41.378   1.848
84477W        W46008   6.254   8.311   1.775
84478W        W46009   0.433  30.909  10.595
84479W        W46010  43.998  31.092   2.212
84480W        W46011  27.960  42.392   0.856
84481W        W46012  37.850  12.205  12.827
84482W        W46013  28.103  26.120  14.017
84483W        W46014   3.794  25.470   5.309
84484W        W46015  14.797  16.126   1.416
84485W        W46016  35.489   9.843   1.925
84486W        W46017  19.086  18.225   3.348
84487W        W46018  25.687  39.006  12.394
84488W        W46019  29.581  40.373   2.285
84489W        W46020   7.815  31.000   2.355
84490W        W46021  25.136  27.179  11.128
84491W        W46022  37.026  10.760   1.352
84492W        W46023   1.928  15.798   2.244
84493W        W46024  40.884  23.601  11.379
84494W        W46025  15.781   2.859   2.723
84495W        W46026  34.949  18.629   0.316
84496W        W46027  24.226  15.119   1.745
84497W        W46028   7.391  17.264  10.925
84498W        W46029  44.354  20.235   2.670
84499W        W46030  26.534  28.622   4.679
84500W        W46031  11.295  35.429  10.912
84501W        W46032  28.981  36.391  10.484
84502W        W46033  19.702  30.931  12.397
84503W        W46034   0.838  36.035   3.229
84504W        W46035   0.858  19.706   5.131
84505W        W46036  17.721  19.270   4.766
84506W        W46037  22.736  11.296  14.826
84507W        W46038  25.008   8.387  13.863
84508W        W46039  27.095  37.400  10.888
84509W        W46040  32.973   5.251  14.820
84510W        W46041  10.158   5.874  14.309
84511W        W46042  33.595  14.591  11.550
84512W        W46043  37.344  42.445  13.406
84513W        W46044   8.883  38.875  14.495
84514W        W46045   5.852  44.781  12.556
84515W        W46046   4.235   7.781  12.349
84516W        W46047   5.305  24.146   4.221
84517W        W46048  32.392  23.655  13.526
84518W        W46049   6.235  30.490  12.959
84519W        W46050  14.728  29.524   2.181
84520W        W46051  24.998  36.573  12.544
84521W        W46052  41.010  21.677  11.412
84522W        W46053  22.126  33.617  13.324
84523W        W46054  25.029  21.547  11.525
84524W        W46055  41.488   8.175  13.443
84525W        W46056  31.100  26.502  14.339
84526W        W46057  27.108  27.000  14.881
84527W        W46058  26.665  18.290   0.396
84528W        W46059  23.240  35.379  12.998
84529W        W46060   6.420  44.010  13.853
84530W        W46061  44.924  10.842  11.386
84531W        W46062  26.605  16.152   4.607
84532W        W46063   6.367  27.061  14.426
84533W        W46064  14.760  21.258  10.594
84534W        W46065  32.438  32.598  10.979
84535W        W46066  43.463  39.318   0.290
84536W        W46067  40.842  33.598  14.967
84537W        W46068  11.680   6.921   3.789
84538W        W46069  41.810  15.271   4.627
84539W        W46070  33.047  11.265  11.947
84540W        W46071   2.873  44.855   4.161
84541W        W46072  23.491   6.823  10.590
84542W        W46073   8.167  14.181   3.715
84543W        W46074  34.934  16.306   0.290
84544W        W46075  10.222  36.577   2.682
84545W        W46076  12.312  39.440  12.571
84546W        W46077  21.218   2.239  11.513
84547W        W46078   5.421  10.778   1.351
84548W        W46079   2.943  34.436  14.410
84549W        W46080  15.693  14.331  13.971
84550W        W46081   0.279   9.843   2.263
84551W        W46082  40.460  36.453  10.442
84552W        W46083   3.303  25.704  13.376
84553W        W46084   9.391  43.460  11.553
84554W        W46085   0.274  14.672  14.465
84555W        W46086  41.000  15.764   2.865
84556W        W46087  25.537  36.028   3.789
84557W        W46088   2.841  18.622   0.966
84558W        W46089  40.445  41.480   0.730
84559W        W46090   3.950  33.064  14.889
84560W        W46091  41.319  29.599   0.261
84561W        W46092  24.197   0.977  11.918
84562W        W46093   0.956   2.259   4.124
84563W        W46094  18.697   4.723   3.239
84564W        W46095   5.742  23.551   1.381
84565W        W46096  31.605  13.821  12.097
84566W        W46097   2.770  32.123  12.923
84567W        W46098  37.398  34.019   3.146
84568W        W46099  19.751  14.178  13.842
84569W        W46100  44.391  15.688   3.277
84570W        W46101   9.651  16.291  12.538
84571W        W46102  34.482  29.984   0.455
84572W        W46103   1.286  16.616   4.255
84573W        W46104  12.758  12.264   2.203
84574W        W46105  26.534  14.603  10.897
84575W        W46106  36.468   0.362  11.511
84576W        W46107  41.336  35.008  12.943
84577W        W46108  23.588   2.899   1.434
84578W        W46109  18.719   1.443   0.768
84579W        W46110  40.876  13.647   1.744
84580W        W46111  17.772  21.647   0.906
84581W        W46112  25.064  30.525   1.729
84582W        W46113  39.454   9.210   3.830
84583W        W46114  20.738  12.645   3.827
84584W        W46115  40.386  12.742   2.239
84585W        W46116  40.053  15.200   3.802
84586W        W46117  13.210  14.785   0.939
84587W        W46118  32.996  32.469  10.451
84588W        W46119  43.331   3.364   0.905
84589W        W46120  14.300  12.753  12.363
84590W        W46121  17.282   3.936  12.840
84591W        W46122  17.751  32.543   3.185
84592W        W46123  41.880  36.955   2.720
84593W        W46124   2.452   6.331   0.943
84594W        W46125  20.634  17.088   1.355
84595W        W46126  33.449   6.811   3.356
84596W        W46127  15.321  28.032   4.324
84597W        W46128  34.512  35.885  10.436
84598W        W46129   7.744  43.982  11.919
84599W        W46130  24.700  22.678  11.964
84600W        W46131  33.548  35.028   3.691
84601W        W46132  11.133  33.972  14.985
84602W        W46133   7.338  14.625   1.787
84603W        W46134  26.507   3.845  10.541
84604W        W46135  43.776  34.436  10.415
84605W        W46136  13.126  27.475   2.720
84606W        W46137  12.132   9.817   2.698
84607W        W46138  16.783   6.284  11.970
84608W        W46139   1.943  41.996   0.457
84609W        W46140  34.983  14.650   2.206
84610W        W46141  28.121  17.716  10.630
84611W        W46142  12.217  44.446   4.677
84612W        W46143  13.781  31.406   9.610
84613W        W46144   3.718  43.422  13.843
84614W        W46145  27.604   5.234   2.238
84615W        W46146   8.237  19.046  14.490
84616W        W46147  34.502  20.711   0.909
84617W        W46148   5.710  25.590  11.999
84618W        W46149   5.403  25.673   0.310
84619W        W46150  34.534   3.422  10.567
84620W        W46151  17.585  25.039  12.536
84621W        W46152  15.249   6.863  11.994
84622W        W46153  29.105  23.670   1.255
84623W        W46154  44.887  10.160  13.536
84624W        W46155  41.350  29.556  12.522
84625W        W46156  32.490   2.276   0.898
84626W        W46157  36.043   1.396  13.453
84627W        W46158  36.415   0.379  11.899
84628W        W46159   3.828  21.520  14.776
84629W        W46160  39.923  38.373  14.415
84630W        W46161  36.989  27.499   4.147
84631W        W46162  30.659   0.769   2.210
84632W        W46163   9.368  11.190  12.015
84633W        W46164  37.992   9.361   1.828
84634W        W46165  43.844  32.559   1.389
84635W        W46166   8.759  14.772   4.197
84636W        W46167  22.623   2.852  11.120
84637W        W46168  30.983  37.529   0.476
84638W        W46169   7.193  17.558   0.742
84639W        W46170   6.704  21.187  11.458
84640W        W46171  37.030   5.408   4.182
84641W        W46172  41.322  35.023  11.557
84642W        W46173  21.065  44.797  14.290
84643W        W46174  39.832   4.213   2.385
84644W        W46175  22.675  36.573  10.530
84645W        W46176   0.462  38.968   1.384
84646W        W46177  43.331  36.036  11.076
84647W        W46178  29.998  19.223  11.962
84648W        W46179  41.946  19.717  12.917
84649W        W46180  42.522  10.711   3.299
84650W        W46181   9.860  29.597   2.821
84651W        W46182  35.384  17.765   0.908
84652W        W46183  21.626  12.665  12.442
84653W        W46184  40.455  43.294   1.718
84654W        W46185  40.880  11.196   2.693
84655W        W46186  30.588  18.244   2.847
84656W        W46187  25.574  20.639   4.232
84657W        W46188   0.395  25.102  13.319
84658W        W46189   7.875  24.516   4.139
84659W        W46190  10.793  17.138   4.335
84660W        W46191  17.686  20.555  13.896
84661W        W46192  27.473  21.258   4.191
84662W        W46193  12.266  16.807   0.471
84663W        W46194  40.316   1.400   3.357
84664W        W46195  38.892  33.126   0.758
84665W        W46196  16.243   2.775  13.483
84666W        W46197  43.366  37.426  10.569
84667W        W46198  20.161   0.948   1.875
84668W        W46199  44.339  19.669   3.276
84669W        W46200  25.069  41.970  14.344
84670W        W46201   8.760  16.791  10.641
84671W        W46202   4.419  23.020  11.952
84672W        W46203  21.169  25.980  12.373
84673W        W46204  18.548  43.478   3.699
84674W        W46205   7.362  40.450  11.091
84675W        W46206  36.917  34.502   4.174
84676W        W46207  13.625  24.616  14.452
84677W        W46208   1.931  19.553  13.534
84678W        W46209  25.555  10.769  14.887
84679W        W46210  15.796  11.830  12.865
84680W        W46211  37.950   9.359   1.210
84681W        W46212  18.076  21.681   5.715
84682W        W46213   8.775  25.638   4.787
84683W        W46214   4.419  34.435   4.130
84684W        W46215   4.279  27.685  13.451
84685W        W46216   1.959   1.876   2.407
84686W        W46217  25.581  26.128   2.389
84687W        W46218  30.145  34.457  11.039
84688W        W46219  11.864   8.342  13.450
84689W        W46220   6.242   4.759  12.013
84690W        W46221  11.324  31.122   9.477
84691W        W46222  36.025  30.986  12.520
84692W        W46223  26.650  27.628   1.894
84693W        W46224  29.584  11.359  13.369
84694W        W46225  33.079  32.457   4.246
84695W        W46226  33.102  40.979   1.438
84696W        W46227   2.920  35.915  13.959
84697W        W46228  24.486  10.190   3.781
84698W        W46229   4.357  34.893  14.452
84699W        W46230  37.886  39.354   0.806
84700W        W46231  35.596   7.409   3.803
84701W        W46232   4.369  20.622   1.398
84702W        W46233  13.685  39.963   0.273
84703W        W46234  33.603  24.146   4.782
84704W        W46235  21.694  22.644   1.222
84705W        W46236  12.813  27.150   2.347
84706W        W46237  26.031  14.661  12.482
84707W        W46238  29.611   9.836   1.828
84708W        W46239   2.411  31.903  14.776
84709W        W46240  37.830   0.409   3.272
84710W        W46241   5.888  21.637   4.779
84711W        W46242  32.616  38.464  10.958
84712W        W46243  35.492  35.084   1.847
84713W        W46244  17.175  18.255  11.486
84714W        W46245  25.116   8.218   3.778
84715W        W46246   3.709  25.197  13.815
84716W        W46247  15.162  35.074  13.910
84717W        W46248   3.838  20.154   3.645
84718W        W46249   4.815  34.537  13.457
84719W        W46250   4.245  16.103  11.935
84720W        W46251  40.430  30.088  12.376
84721W        W46252  25.041  35.594   0.398
84722W        W46253  32.015  44.468   3.297
84723W        W46254  11.860   7.284   2.744
84724W        W46255  34.904  40.377  10.120
84725W        W46256  33.957  41.912   2.735
84726W        W46257  42.959   6.370  12.058
84727W        W46258  20.071  39.387  14.503
84728W        W46259  12.616  33.896   4.738
84729W        W46260  32.409  11.186   2.256
84730W        W46261  20.027   7.803  13.872
84731W        W46262  24.501  15.721  11.452
84732W        W46263  19.223  14.316   1.430
84733W        W46264   4.721  35.491  11.565
84734W        W46265  24.220  17.203  12.016
84735W        W46266  10.306  31.405  12.439
84736W        W46267  36.051  13.654  14.441
84737W        W46268  26.617   9.191   3.376
84738W        W46269   4.365  10.716   4.660
84739W        W46270  35.902  26.185   0.378
84740W        W46271  22.237   6.294  14.315
84741W        W46272  20.550  34.058  12.949
84742W        W46273  14.742  34.037   2.354
84743W        W46274   4.412  10.684   1.830
84744W        W46275  23.612  23.194  14.803
84745W        W46276  25.638  32.971   2.815
84746W        W46277  41.798  21.217  14.929
84747W        W46278   1.836  42.522   0.364
84748W        W46279  37.556  12.611   1.360
84749W        W46280  20.050  20.623   0.375
84750W        W46281  38.975   5.433   3.866
84751W        W46282  15.658  30.970   9.981
84752W        W46283  34.445  26.499   3.157
84753W        W46284  42.290   3.799   4.236
84754W        W46285  16.214   6.867   2.281
84755W        W46286  34.971  31.450   0.269
84756W        W46287   6.315   7.297  13.838
84757W        W46288  13.637   1.798   0.810
84758W        W46289  21.253   5.206  11.011
84759W        W46290  29.480   6.411  11.974
84760W        W46291  43.317  10.339  13.808
84761W        W46292  25.078  21.195   5.209
84762W        W46293  38.339  15.240  13.803
84763W        W46294  43.777   2.913  13.534
84764W        W46295  10.868  36.084  12.054
84765W        W46296  42.033   4.407  14.375
84766W        W46297  19.584  41.402   2.853
84767W        W46298  35.459  44.975  14.763
84768W        W46299  16.124   7.665   4.138
84769W        W46300  33.421  41.974   1.424
84770W        W46301   1.432  39.367  12.829
84771W        W46302   5.428  22.021  10.559
84772W        W46303  16.612  23.180   4.676
84773W        W46304  43.810  32.916  14.825
84774W        W46305  25.646  40.817   3.299
84775W        W46306  39.986  35.590  10.520
84776W        W46307  25.529  43.281   3.154
84777W        W46308  12.696  44.412  12.908
84778W        W46309  27.949  42.022  13.363
84779W        W46310  21.064  14.715  10.463
84780W        W46311  38.421  35.411  10.447
84781W        W46312  18.205  28.575   1.897
84782W        W46313  23.646  17.120  14.004
84783W        W46314   6.387  33.401  12.553
84784W        W46315  37.505  19.746   3.195
84785W        W46316   1.411  30.525   0.274
84786W        W46317  24.595  26.583  10.955
84787W        W46318  24.550  21.025   3.842
84788W        W46319  11.624   3.888   3.169
84789W        W46320  27.689  44.412   4.299
84790W        W46321  40.320  12.266  12.870
84791W        W46322  11.155  19.074  10.573
84792W        W46323  25.683  23.698   3.225
84793W        W46324  41.401  37.520  13.808
84794W        W46325   3.858   1.385   3.668
84795W        W46326  20.635  40.359  13.538
84796W        W46327   1.819  19.710  10.950
84797W        W46328  33.540  16.072  14.948
84798W        W46329  27.464   8.222  11.573
84799W        W46330  26.972  19.100  12.055
84800W        W46331  44.484   6.757   3.356
84801W        W46332  12.267   5.707  13.008
84802W        W46333   9.171   0.289   9.445
84803W        W46334  32.030  17.565   2.374
84804W        W46335  39.929  41.820  10.419
84805W        W46336  14.616  22.681   3.231
84806W        W46337  10.350  16.788  10.081
84807W        W46338  19.669  14.114  13.052
84808W        W46339   6.707  21.542   0.436
84809W        W46340   4.902   3.874   0.941
84810W        W46341   3.942  19.107   3.866
84811W        W46342  31.031  34.410  13.949
84812W        W46343  26.005  37.978  11.922
84813W        W46344  33.929  33.468   9.971
84814W        W46345  40.032  38.888   3.761
84815W        W46346  22.557  17.096  10.535
84816W        W46347  29.439  22.226   0.319
84817W        W46348  28.011  18.772   4.780
84818W        W46349  23.089  34.087  14.929
84819W        W46350  13.724  19.540   4.789
84820W        W46351  13.797   4.899  14.951
84821W        W46352  23.182  22.648   4.774
84822W        W46353  43.859  26.970   0.336
84823W        W46354  17.765  31.948   1.251
84824W        W46355  29.487  36.860  14.794
84825W        W46356  31.430  19.144  13.327
84826W        W46357  34.009  44.446   3.768
84827W        W46358   0.954  12.328  14.403
84828W        W46359  22.662   1.250  14.433
84829W        W46360  24.601   3.886   1.751
84830W        W46361  14.120  13.129   2.774
84831W        W46362  21.554  28.614   3.766
84832W        W46363  28.085  21.742  13.885
84833W        W46364   5.932  14.188   4.747
84834W        W46365  21.682  14.251   4.144
84835W        W46366  26.118  40.834  11.908
84836W        W46367  20.612  43.391   1.265
84837W        W46368  11.621  15.236   0.439
84838W        W46369   1.735  34.385  12.379
84839W        W46370  36.361  21.713  14.027
84840W        W46371  34.099  26.032  13.003
84841W        W46372  43.884   9.652  11.600
84842W        W46373  37.012  11.347  10.075
84843W        W46374  35.537  44.002   4.688
84844W        W46375   8.260  21.734   1.360
84845W        W46376   6.738  17.678  12.510
84846W        W46377  26.545   5.295   3.759
84847W        W46378  30.908  11.176  14.368
84848W        W46379  14.691  30.441   4.264
84849W        W46380  20.169   6.829   4.339
84850W        W46381  40.846  22.609   0.860
84851W        W46382  28.093   0.375  12.979
84852W        W46383  26.151  24.651  12.995
84853W        W46384   4.268  44.793  12.549
84854W        W46385  16.235  43.352   4.671
84855W        W46386   8.892  23.045  11.399
84856W        W46387  29.612   6.412   1.403
84857W        W46388  11.182  42.886   1.805
84858W        W46389  31.142  35.443   0.731
84859W        W46390  30.424  23.056   4.274
84860W        W46391   6.863  35.381   1.852
84861W        W46392  19.117   2.894   3.301
84862W        W46393   7.828   5.727   4.833
84863W        W46394  43.433  26.513   1.863
84864W        W46395  23.184  39.502   2.774
84865W        W46396  37.578   3.333   1.877
84866W        W46397   9.811  16.292  12.828
84867W        W46398  18.110   1.958  13.382
84868W        W46399  17.181  40.386  14.834
84869W        W46400   6.411  14.226   0.329
84870W        W46401  36.998  13.653   4.303
84871W        W46402  13.199   2.281   4.130
84872W        W46403   5.878   0.489  10.965
84873W        W46404   0.964  31.151   1.921
84874W        W46405   6.886  16.209   2.696
84875W        W46406  34.959  35.441  10.922
84876W        W46407  17.080   6.723   4.320
84877W        W46408  12.344  21.167   4.160
84878W        W46409  20.567  17.153  11.028
84879W        W46410   3.828  34.395   1.302
84880W        W46411  32.894   0.430  13.876
84881W        W46412  31.074  43.818  11.975
84882W        W46413  16.747  44.432   1.331
84883W        W46414  21.661  12.780   1.337
84884W        W46415  41.944  15.155  14.347
84885W        W46416  20.107  35.106  14.298
84886W        W46417   0.859   8.693   3.689
84887W        W46418  19.749  17.230   3.239
84888W        W46419  19.668   9.727  12.060
84889W        W46420  25.982  44.964  13.819
84890W        W46421  12.745  16.159   0.858
84891W        W46422  27.661   7.726  11.483
84892W        W46423  19.714  26.488   3.173
84893W        W46424  22.056   8.754   3.690
84894W        W46425   4.368  36.503  13.459
84895W        W46426  44.379   7.187   4.312
84896W        W46427   0.399   7.362  11.429
84897W        W46428  35.364  33.990   0.815
84898W        W46429  21.539  36.443   2.819
84899W        W46430   9.160   8.167  12.452
84900W        W46431  40.424   7.666   4.339
84901W        W46432  27.674   1.917   3.852
84902W        W46433  14.094   6.426   3.234
84903W        W46434  22.682   6.367  11.087
84904W        W46435  36.414  41.437  14.426
84905W        W46436   6.193  44.376  14.892
84906W        W46437  11.661  13.743   2.339
84907W        W46438  36.003  20.083   1.303
84908W        W46439  33.088  30.556   2.354
84909W        W46440  10.786   8.835  14.298
84910W        W46441  16.608  16.311  13.455
84911W        W46442  19.622   8.870   4.737
84912W        W46443  32.471  39.838   4.652
84913W        W46444  28.523  23.018   3.793
84914W        W46445  35.048   9.335  13.970
84915W        W46446  25.684  40.836  10.910
84916W        W46447   7.721   8.344  14.464
84917W        W46448  29.623  26.012   2.682
84918W        W46449  31.415  21.197   1.886
84919W        W46450  15.800  26.542  13.474
84920W        W46451   9.367  23.637   1.344
84921W        W46452  29.093  19.754   4.237
84922W        W46453  12.351  21.194   1.842
84923W        W46454   2.907  34.493  11.917
84924W        W46455  16.244  43.940   0.327
84925W        W46456  25.569  16.306   1.432
84926W        W46457  23.192  30.510   2.737
84927W        W46458   2.455  41.911   3.288
84928W        W46459  21.263  18.293  14.904
84929W        W46460   7.279  28.535   3.648
84930W        W46461   5.737  28.002   2.294
84931W        W46462   6.196  16.615   3.656
84932W        W46463   5.772   4.357   2.183
84933W        W46464  19.534  22.594  13.908
84934W        W46465  11.296   7.246  11.403
84935W        W46466   3.330  30.592  14.407
84936W        W46467  31.483  44.953  12.579
84937W        W46468   2.778  18.218  11.123
84938W        W46469   1.749  17.743  10.602
84939W        W46470  38.955  26.684   3.367
84940W        W46471  38.491  28.929  13.932
84941W        W46472  21.699  41.431   2.401
84942W        W46473  30.449  29.919   2.812
84943W        W46474  42.797  25.676   4.812
84944W        W46475  36.387  18.292  12.050
84945W        W46476  18.073  32.543  10.936
84946W        W46477   0.768  40.893  11.037
84947W        W46478  13.220  13.263  11.434
84948W        W46479  28.142  39.354  12.994
84949W        W46480  10.692   9.812  11.583
84950W        W46481  23.510  15.085   4.739
84951W        W46482  31.454  28.648   1.816
84952W        W46483  43.969  42.506   2.229
84953W        W46484  21.050  26.646   9.958
84954W        W46485  25.705  42.971   1.408
84955W        W46486  24.029  25.036  14.903
84956W        W46487  25.631  25.685  12.531
84957W        W46488  35.507  41.294   4.602
84958W        W46489  13.637  11.196  12.509
84959W        W46490   0.273  38.430  13.315
84960W        W46491  32.077  19.608  11.397
84961W        W46492   3.302   4.699   0.803
84962W        W46493  30.137  25.117  10.973
84963W        W46494  40.462   6.368   1.330
84964W        W46495  28.529   4.927   0.802
84965W        W46496  40.992  33.409   0.449
84966W        W46497  22.549  21.666   3.849
84967W        W46498  12.269  19.690  13.490
84968W        W46499  31.982  42.934  10.484
84969W        W46500   2.318  14.609  11.451
84970W        W46501  26.110  33.536   4.323
84971W        W46502  28.468   2.457  12.064
84972W        W46503  25.667   9.650  13.466
84973W        W46504  33.614  37.035  13.878
84974W        W46505  16.151  34.119  14.862
84975W        W46506  18.714  43.411  12.378
84976W        W46507  17.706  42.498   3.309
84977W        W46508   5.256  13.305  12.961
84978W        W46509   0.421  12.782  12.839
84979W        W46510  39.379  21.555  13.979
84980W        W46511  32.038   1.367  13.373
84981W        W46512   5.868  25.653  10.995
84982W        W46513  15.801  18.253  10.413
84983W        W46514  32.973   8.331  11.918
84984W        W46515  36.589  13.157  14.466
84985W        W46516  35.009  22.512  14.885
84986W        W46517  38.562  27.509  11.867
84987W        W46518  13.309  23.112   4.231
84988W        W46519  15.822  29.482   3.755
84989W        W46520  22.739  42.517  12.996
84990W        W46521  11.791   7.696   1.273
84991W        W46522  27.486  35.908   0.243
84992W        W46523  12.649  24.542  10.640
84993W        W46524  14.128   6.225  11.572
84994W        W46525  35.918  30.629  13.516
84995W        W46526  27.556  31.978   3.249
84996W        W46527  14.794   9.783  13.510
84997W        W46528  24.171  25.507   0.363
84998W        W46529  16.128  13.651  12.398
84999W        W46530  36.469  41.522   5.806
85000W        W46531  34.904  36.073  11.113
85001W        W46532  43.999  25.515   0.940
85002W        W46533   2.796  19.700   2.243
85003W        W46534  37.901  12.192  14.758
85004W        W46535   9.165  40.976  14.898
85005W        W46536  17.631  35.862   2.279
85006W        W46537  14.228  25.015   4.688
85007W        W46538   7.260  38.371  13.810
85008W        W46539  36.540  22.736   4.195
85009W        W46540  12.117  34.480  10.614
85010W        W46541  21.159  17.102   4.746
85011W        W46542  39.830  37.896   1.378
85012W        W46543  28.445  41.825  12.447
85013W        W46544  28.508  33.386   4.230
85014W        W46545  23.192  24.160   1.314
85015W        W46546  29.116  33.116   2.754
85016W        W46547   6.693   8.260   4.682
85017W        W46548  19.745  28.128  10.542
85018W        W46549  43.822  14.815  10.443
85019W        W46550  23.184  27.049  13.376
85020W        W46551  14.216  17.247  13.407
85021W        W46552  18.576  25.023  11.864
85022W        W46553  24.057  20.540  13.936
85023W        W46554  16.077  23.636   5.145
85024W        W46555  13.347  14.125   3.195
85025W        W46556  13.794   1.273   1.697
85026W        W46557  35.898  35.919   2.793
85027W        W46558  44.500  14.635  10.133
85028W        W46559  22.536  10.816   1.432
85029W        W46560  11.220   0.834  11.931
85030W        W46561  30.074  10.274   4.236
85031W        W46562   0.760  17.081   1.284
85032W        W46563  12.205  13.176  12.048
85033W        W46564  21.084  34.055   1.845
85034W        W46565  17.063  27.161   4.156
85035W        W46566  23.534  17.794   0.442
85036W        W46567  41.387  19.623  10.581
85037W        W46568  23.696  39.004   5.087
85038W        W46569   8.376  18.656  14.390
85039W        W46570  11.768  26.616  11.047
85040W        W46571  36.942  19.255   3.325
85041W        W46572  33.564   5.760   0.797
85042W        W46573  13.132  28.951  12.019
85043W        W46574  25.984   0.823   2.834
85044W        W46575  19.732  24.007   5.786
85045W        W46576  17.301  35.937  12.997
85046W        W46577   7.353   9.781   0.890
85047W        W46578   7.231   4.844  14.994
85048W        W46579  25.014   0.486  13.316
85049W        W46580   2.788   6.713  13.402
85050W        W46581  23.675  32.593  12.561
85051W        W46582  31.642   8.371  11.537
85052W        W46583  35.501  18.258  14.828
85053W        W46584  30.558  36.087   3.275
85054W        W46585  13.320   8.366  14.326
85055W        W46586   9.868  13.606   0.958
85056W        W46587  32.081  29.614  13.013
85057W        W46588  27.450   6.784  10.950
85058W        W46589   9.311  32.895   1.884
85059W        W46590   1.731   6.859  14.997
85060W        W46591  40.496  34.487   3.321
85061W        W46592  25.502  12.621   1.265
85062W        W46593  11.848  18.085  14.378
85063W        W46594   5.806  37.562  12.898
85064W        W46595   6.687  37.387   1.842
85065W        W46596   3.912  10.309  11.435
85066W        W46597   4.735  11.193  12.364
85067W        W46598  23.132  27.654  13.888
85068W        W46599  28.062  40.487  11.918
85069W        W46600  25.028  44.981  14.323
85070W        W46601  41.401  10.210  14.874
85071W        W46602   9.347  44.305  11.402
85072W        W46603  35.941   0.318   4.292
85073W        W46604  22.253  35.457   3.647
85074W        W46605  30.490   0.821  14.460
85075W        W46606   4.264  15.199   0.253
85076W        W46607   8.803  17.143   2.765
85077W        W46608  39.365   8.750  13.982
85078W        W46609  42.827   7.195  13.511
85079W        W46610   3.358   7.875   5.249
85080W        W46611   8.846  21.102   1.919
85081W        W46612   0.252  28.157  13.042
85082W        W46613  10.716  33.890   0.743
85083W        W46614  17.094  33.070   3.352
85084W        W46615  43.845  31.434   3.206
85085W        W46616   3.751  24.694   1.251
85086W        W46617  38.448  26.020  14.343
85087W        W46618  21.150   1.792   3.166
85088W        W46619  30.997  11.327  11.536
85089W        W46620  14.331   6.780  13.346
85090W        W46621   2.445  13.619   1.819
85091W        W46622  34.049  40.471  10.903
85092W        W46623  42.787  24.537  12.061
85093W        W46624   8.868   2.413   1.400
85094W        W46625  26.465  39.870  11.896
85095W        W46626  23.026   1.823   4.651
85096W        W46627  28.103  42.287   2.327
85097W        W46628  30.571   1.459   3.355
85098W        W46629  21.604  18.135  13.992
85099W        W46630   3.269   4.246  12.041
85100W        W46631  15.753   6.871  11.065
85101W        W46632  32.490  32.542  13.456
85102W        W46633  15.139  27.049  11.573
85103W        W46634  31.584  13.350  13.355
85104W        W46635  19.219  39.862   2.382
85105W        W46636  28.471   0.910  10.597
85106W        W46637   2.732  20.128  12.551
85107W        W46638  22.645  31.087  12.070
85108W        W46639  23.594  14.819   4.352
85109W        W46640  14.332  13.685   2.204
85110W        W46641   8.304  30.622  11.543
85111W        W46642  32.466  25.071  12.048
85112W        W46643  25.091  16.298  12.845
85113W        W46644  24.172   1.357  13.478
85114W        W46645  32.985  16.730  13.915
85115W        W46646   4.383  37.546  11.424
85116W        W46647  40.406   4.712   5.136
85117W        W46648   5.350  22.550  14.867
85118W        W46649   1.959   9.172  10.952
85119W        W46650  17.171  35.896  14.307
85120W        W46651  26.966  43.894   2.823
85121W        W46652   9.386  33.592  13.029
85122W        W46653  30.443  16.720   3.385
85123W        W46654  24.552  19.039   2.816
85124W        W46655  34.957  31.109   3.380
85125W        W46656  37.980   4.941  10.451
85126W        W46657   1.328   7.356   3.630
85127W        W46658   8.661  14.778   3.654
85128W        W46659  17.630  40.890  11.051
85129W        W46660  15.808  24.219   2.755
85130W        W46661   7.414  25.004  14.867
85131W        W46662  14.693  26.691   1.406
85132W        W46663  27.542  39.938   1.261
85133W        W46664   5.414  34.905  11.595
85134W        W46665  29.526  21.031  12.924
85135W        W46666   9.223  26.013   4.598
85136W        W46667  12.634  23.206   0.246
85137W        W46668   4.717  17.067  14.378
85138W        W46669  44.976  25.639  12.908
85139W        W46670   5.772  30.006   4.754
85140W        W46671  23.227  36.374  10.582
85141W        W46672  43.355  36.403  12.382
85142W        W46673  28.602  10.337  11.060
85143W        W46674  38.990  19.246  10.492
85144W        W46675   2.790   0.776  10.510
85145W        W46676  33.051  40.006   4.255
85146W        W46677  34.067  32.936   2.818
85147W        W46678  13.148  30.151  11.072
85148W        W46679  24.037  44.283   0.262
85149W        W46680  34.073  41.314   2.350
85150W        W46681   7.195  10.750   1.219
85151W        W46682   1.391  19.565   2.688
85152W        W46683  28.961  26.018   1.894
85153W        W46684  12.349  37.037   1.728
85154W        W46685   1.895   7.253   0.448
85155W        W46686  14.220  41.429   1.295
85156W        W46687  26.657  23.521  12.443
85157W        W46688  16.119  31.482   0.311
85158W        W46689  25.629  19.214   4.666
85159W        W46690  15.102  27.606   3.855
85160W        W46691   3.872  42.789  10.629
85161W        W46692  43.398  22.690  13.407
85162W        W46693  28.160   1.851  12.465
85163W        W46694  16.086  32.920  10.523
85164W        W46695  13.285  19.046  12.059
85165W        W46696   1.450  36.593  11.546
85166W        W46697  33.072   2.402   2.752
85167W        W46698  27.465   3.810  14.943
85168W        W46699  44.939  40.515   2.290
85169W        W46700  36.492  11.833  14.993
85170W        W46701  11.819  27.593   0.388
85171W        W46702  38.540   7.790   2.669
85172W        W46703  12.344   7.337  13.351
85173W        W46704  19.684  28.066  12.540
85174W        W46705  36.085   9.653   3.254
85175W        W46706  38.848  34.076   3.670
85176W        W46707   7.246  13.269  11.517
85177W        W46708  13.265  30.006  14.936
85178W        W46709  36.502  39.987   2.840
85179W        W46710  43.981  10.689  14.293
85180W        W46711  40.801  43.848  12.505
85181W        W46712  24.553   0.274  11.986
85182W        W46713   5.785  28.171   0.426
85183W        W46714  38.340  15.222   3.855
85184W        W46715  11.362  18.656   2.694
85185W        W46716   4.886  35.894  12.447
85186W        W46717  42.318  33.424  11.893
85187W        W46718  20.153  20.028   2.733
85188W        W46719  22.593  34.024   1.394
85189W        W46720   2.965   4.853   0.333
85190W        W46721  34.420  14.750   4.129
85191W        W46722   8.759  22.551   4.740
85192W        W46723  43.846  19.736   0.829
85193W        W46724  12.155   4.278  12.531
85194W        W46725   3.414  38.857   1.857
85195W        W46726  13.634  41.823   2.311
85196W        W46727  24.069  26.627   0.890
85197W        W46728   9.772  26.074   1.348
85198W        W46729  22.028  16.281  10.560
85199W        W46730  15.275  39.948   2.891
85200W        W46731   0.320  35.409  12.556
85201W        W46732  18.229   2.745   2.875
85202W        W46733  17.569  21.168   4.227
85203W        W46734  24.156  26.134   4.131
85204W        W46735  32.049  38.902   2.673
85205W        W46736  17.796  18.620   0.853
85206W        W46737  42.361  34.417   1.916
85207W        W46738   7.768  17.218  11.491
85208W        W46739   3.400   1.910  11.860
85209W        W46740  18.670   8.217   3.848
85210W        W46741   8.735   3.754   0.445
85211W        W46742  37.044  10.281   0.478
85212W        W46743  22.134  25.018   1.809
85213W        W46744   8.185  36.890   3.671
85214W        W46745  17.145  18.574  12.501
85215W        W46746  20.646  22.148  13.411
85216W        W46747  33.574   5.848   0.280
85217W        W46748  42.381  33.425  14.846
85218W        W46749   8.291  25.999   1.711
85219W        W46750   7.261  15.130  13.985
85220W        W46751  26.531  43.352   1.889
85221W        W46752  25.076  26.976  12.455
85222W        W46753  18.731  42.404   4.646
85223W        W46754  17.222  37.986  13.469
85224W        W46755   6.748  34.947  14.954
85225W        W46756  34.113  35.019   1.892
85226W        W46757   4.322  25.986   4.225
85227W        W46758  26.130  42.923   4.196
85228W        W46759  30.623  27.563   1.302
85229W        W46760  11.274   8.208  13.966
85230W        W46761  38.002  16.178   3.247
85231W        W46762  28.567  32.909  10.626
85232W        W46763  11.298  41.318  13.329
85233W        W46764  18.141  33.101  13.916
85234W        W46765  22.552  21.108  12.503
85235W        W46766  34.588  32.549   4.619
85236W        W46767  42.900  39.901  10.100
85237W        W46768  14.661  20.616   1.752
85238W        W46769  33.581  22.147   3.838
85239W        W46770  43.902   1.743  12.898
85240W        W46771  38.526  44.805   3.364
85241W        W46772  31.078   1.808  10.434
85242W        W46773  36.526  19.579  13.797
85243W        W46774  20.547  26.646   1.822
85244W        W46775  11.673  23.521  14.477
85245W        W46776  17.628  15.599  13.349
85246W        W46777  43.956   0.454  12.375
85247W        W46778  36.558  12.261   1.818
85248W        W46779  27.019  31.971   1.738
85249W        W46780  16.740  21.019  10.137
85250W        W46781  39.325  18.708   0.446
85251W        W46782   0.801   6.363   0.949
85252W        W46783  38.992   3.867   3.821
85253W        W46784  22.139  37.527  11.865
85254W        W46785  17.687  33.436  13.373
85255W        W46786   6.713  42.934  13.064
85256W        W46787  30.974   1.443   0.895
85257W        W46788  15.719  24.150   9.656
85258W        W46789   6.341  34.511   0.859
85259W        W46790  40.951   4.401  13.058
85260W        W46791  27.661  26.483   3.271
85261W        W46792  28.455   7.214   3.800
85262W        W46793  31.478  24.600  11.900
85263W        W46794   0.969  17.801   2.264
85264W        W46795  35.454  35.507   0.904
85265W        W46796   2.227   4.742  14.992
85266W        W46797  42.919  13.650   4.622
85267W        W46798  13.661  25.561   2.703
85268W        W46799   8.287   6.413   3.162
85269W        W46800  13.834  28.680   2.410
85270W        W46801  43.822   7.747   1.897
85271W        W46802  26.180  19.648   4.143
85272W        W46803  11.815  31.103   1.732
85273W        W46804  10.306  13.185   4.831
85274W        W46805  24.581  14.604  14.428
85275W        W46806  31.144  29.669   3.793
85276W        W46807  24.583  35.933   4.763
85277W        W46808  40.003  40.033   4.174
85278W        W46809  37.420  17.693   4.199
85279W        W46810   6.918   8.767  14.820
85280W        W46811  14.108  16.285   1.756
85281W        W46812  11.233  19.579   0.375
85282W        W46813   2.297  22.537  13.374
85283W        W46814  20.263  29.034  12.397
85284W        W46815  19.686  12.634  12.920
85285W        W46816   0.924   0.962  10.552
85286W        W46817  32.129  39.326   4.788
85287W        W46818  42.963  22.740  12.918
85288W        W46819  22.717  32.497   4.210
85289W        W46820  31.119  33.943  14.805
85290W        W46821  34.939   0.335   1.810
85291W        W46822  31.130  29.430  13.320
85292W        W46823   0.811  19.129  14.435
85293W        W46824   7.739  15.584  13.826
85294W        W46825  20.109   3.402   4.620
85295W        W46826  37.860  34.459  14.025
85296W        W46827  26.191  24.993  14.460
85297W        W46828  36.936  14.338  10.573
85298W        W46829   8.754  36.384   2.788
85299W        W46830  41.892   6.798   3.788
85300W        W46831  41.839  27.032  10.529
85301W        W46832  26.075  32.523   3.385
85302W        W46833  28.484  18.279   1.880
85303W        W46834   1.391  41.943  13.334
85304W        W46835   8.350  40.930   1.319
85305W        W46836  39.428   5.305   0.263
85306W        W46837   2.323  31.406  13.904
85307W        W46838  30.059  11.209  12.391
85308W        W46839  34.947  42.366  10.497
85309W        W46840  17.134  12.264  12.006
85310W        W46841  32.621  38.825   2.731
85311W        W46842  37.044  22.115  14.397
85312W        W46843   2.922  22.036  13.370
85313W        W46844   2.841  29.629  12.040
85314W        W46845   4.924   9.323   0.928
85315W        W46846   9.860  28.956  12.469
85316W        W46847   9.226  30.611   5.210
85317W        W46848  17.751   2.442   2.190
85318W        W46849  23.574  21.112  10.540
85319W        W46850  28.437  28.936   0.344
85320W        W46851   6.209   7.818  13.400
85321W        W46852  13.693  40.314   3.723
85322W        W46853   2.897  38.337  10.605
85323W        W46854   9.791   5.323   5.305
85324W        W46855  37.997   2.376  13.010
85325W        W46856  29.013  32.581   2.739
85326W        W46857  34.434  35.969   5.113
85327W        W46858   6.797  11.788   0.795
85328W        W46859  17.760  44.495   1.886
85329W        W46860  16.792  40.531  11.877
85330W        W46861  29.594  11.134   4.654
85331W        W46862   7.859  39.020  14.977
85332W        W46863   5.437   7.396   5.224
85333W        W46864  26.077  18.290   3.264
85334W        W46865  44.832  20.767  10.640
85335W        W46866   5.421  18.662   3.360
85336W        W46867  24.212   0.417  13.463
85337W        W46868  42.392  23.584   2.692
85338W        W46869   1.880   8.259   0.803
85339W        W46870  21.712   2.776   3.721
85340W        W46871   7.753  32.001   1.732
85341W        W46872  11.272  27.493  11.378
85342W        W46873  28.453   0.988  12.404
85343W        W46874  18.213  38.001   2.307
85344W        W46875  32.458  10.690   9.574
85345W        W46876  33.442  23.665  10.516
85346W        W46877  27.675  10.767   2.410
85347W        W46878  21.689  14.613  14.920
85348W        W46879  38.952  24.605  13.548
85349W        W46880   2.931  28.053  13.793
85350W        W46881   5.329  19.069  10.431
85351W        W46882  38.038   1.368  14.333
85352W        W46883   9.808  35.973   1.745
85353W        W46884  25.974  36.532  10.537
85354W        W46885  21.598  31.438  10.535
85355W        W46886   2.900   6.883   2.184
85356W        W46887  15.172  40.508  13.848
85357W        W46888   3.766  44.479  10.924
85358W        W46889  23.511  39.472   2.837
85359W        W46890  11.696  41.881  10.966
85360W        W46891  17.557   9.265  10.929
85361W        W46892  44.472  27.641  12.084
85362W        W46893  42.967   5.214   4.622
85363W        W46894  32.077  11.757   4.270
85364W        W46895   6.235  44.441   2.764
85365W        W46896  34.117   7.864  11.056
85366W        W46897  42.945  25.192   0.780
85367W        W46898   2.294   7.831   1.701
85368W        W46899  28.940  36.076  13.940
85369W        W46900  20.150   6.342  12.912
85370W        W46901  40.973  21.066   4.674
85371W        W46902  35.082  29.963   0.770
85372W        W46903  37.430  38.008  12.981
85373W        W46904  41.910  22.593  10.079
85374W        W46905  25.978  13.290   4.152
85375W        W46906  18.234  27.091  12.356
85376W        W46907  29.539  33.443   2.832
85377W        W46908  42.441  22.627  12.388
85378W        W46909  26.470  27.075  12.037
85379W        W46910  26.638  33.612  12.963
85380W        W46911  19.549  11.705  10.547
85381W        W46912  22.500   7.907   4.305
85382W        W46913  42.459  38.447   3.341
85383W        W46914  32.053   1.369   3.277
85384W        W46915  39.061  13.195  10.010
85385W        W46916  10.743  35.475  11.918
85386W        W46917  44.845  13.248  14.830
85387W        W46918  25.494  44.505  13.426
85388W        W46919  34.484  14.231  11.415
85389W        W46920  23.704  38.463   5.194
85390W        W46921  15.806  15.676   3.742
85391W        W46922  14.778  34.504   3.168
85392W        W46923  32.507  19.578  11.926
85393W        W46924   3.348  31.116  11.965
85394W        W46925  23.131   3.907   0.775
85395W        W46926   7.701  26.501  11.945
85396W        W46927   9.281  19.639   0.447
85397W        W46928   3.303  44.426   1.324
85398W        W46929  44.880  32.090  10.520
85399W        W46930   3.746  12.663   2.750
85400W        W46931  32.977  31.127  11.428
85401W        W46932  14.629  24.973  11.079
85402W        W46933   2.247  32.416   2.667
85403W        W46934   7.385  11.622  12.521
85404W        W46935  30.434  14.811   1.305
85405W        W46936  35.000  28.079  13.985
85406W        W46937   5.765  21.027   0.727
85407W        W46938  15.130  16.236   1.931
85408W        W46939  17.269   1.258   3.772
85409W        W46940  41.995  16.584  12.513
85410W        W46941   7.806  39.408   1.264
85411W        W46942  12.613   5.710  11.566
85412W        W46943  18.672  19.537  13.538
85413W        W46944   1.471   0.826  11.029
85414W        W46945  38.064  16.090   4.721
85415W        W46946   1.732  23.497   5.314
85416W        W46947   0.290   1.459   0.410
85417W        W46948  10.152  10.327  11.017
85418W        W46949  15.603  32.542  11.897
85419W        W46950  41.522  12.643   3.234
85420W        W46951  13.833   0.875   0.889
85421W        W46952  30.085  21.512   1.211
85422W        W46953  22.228   2.963   0.853
85423W        W46954  40.030  23.573   1.397
85424W        W46955   4.342  29.998   3.237
85425W        W46956  22.119  42.381   1.331
85426W        W46957   2.252  14.601  12.973
85427W        W46958   3.293  29.522   4.147
85428W        W46959  34.429  39.875  10.474
85429W        W46960  19.574  10.269   2.340
85430W        W46961  13.606  42.421  14.495
85431W        W46962  38.856  31.037   3.711
85432W        W46963  36.941   1.256   3.678
85433W        W46964  12.246  42.884   3.771
85434W        W46965  27.960   5.302   4.172
85435W        W46966  35.925  26.014   2.394
85436W        W46967   3.219  44.296  14.345
85437W        W46968  28.078   4.410   0.277
85438W        W46969  10.270   1.924   0.951
85439W        W46970  37.538  32.597   3.313
85440W        W46971  44.416  15.231  11.017
85441W        W46972  13.324  25.543  13.868
85442W        W46973   5.907  19.551   0.940
85443W        W46974  44.310  40.809  12.570
85444W        W46975  21.165  44.779  12.498
85445W        W46976   2.404  12.856   4.308
85446W        W46977  40.012  44.456  11.971
85447W        W46978   5.411  23.013   3.748
85448W        W46979  37.991   8.840   2.706
85449W        W46980  31.929   3.251   4.821
85450W        W46981  29.143   5.719   2.849
85451W        W46982  36.899  38.563  11.905
85452W        W46983   5.790  10.666  14.824
85453W        W46984  44.478  35.448   2.284
85454W        W46985  13.184  26.131   0.310
85455W        W46986   1.764   4.323   2.778
85456W        W46987  25.013  44.466   0.843
85457W        W46988   8.306   5.716   3.832
85458W        W46989  10.178   3.306  14.317
85459W        W46990   3.315   2.263   2.742
85460W        W46991  25.983  37.850   2.826
85461W        W46992  15.234  28.090  11.987
85462W        W46993  40.520  22.153   0.408
85463W        W46994  38.523  13.159  12.542
85464W        W46995  33.607  35.974   0.776
85465W        W46996  28.439  26.026   3.266
85466W        W46997  30.993  27.496  14.988
85467W        W46998   1.479   9.378   3.190
85468W        W46999  42.997  25.014   4.607
85469W        W47000  16.252  23.010  10.556
85470W        W47001  40.964   3.327   2.326
85471W        W47002  43.780   5.889   4.178
85472W        W47003  39.017  29.661   2.740
85473W        W47004   5.268  22.720  14.004
85474W        W47005  28.086  17.226  13.839
85475W        W47006  16.263   3.826  13.919
85476W        W47007   1.391  31.535   2.789
85477W        W47008  42.865  41.375   3.710
85478W        W47009  13.818  22.502   2.856
85479W        W47010   2.880  17.225  13.496
85480W        W47011  32.565  13.266   1.411
85481W        W47012  24.055  32.568  14.449
85482W        W47013  30.069  37.981  11.905
85483W        W47014  26.664  17.218   3.162
85484W        W47015  18.767  32.029  13.904
85485W        W47016  44.772  10.295   4.148
85486W        W47017  24.154  44.957   3.212
85487W        W47018  30.025  21.067   2.758
85488W        W47019  10.247  33.120   1.286
85489W        W47020  11.776   9.698  13.940
85490W        W47021  41.414   6.417  13.388
85491W        W47022  23.676  43.996  12.002
85492W        W47023   3.351  44.378   0.870
85493W        W47024  30.110  24.094  10.539
85494W        W47025  29.056  43.436  14.280
85495W        W47026  13.247   7.793  14.925
85496W        W47027  11.362  34.596   1.859
85497W        W47028  28.968  24.988  14.841
85498W        W47029  21.032  16.143   1.282
85499W        W47030   5.385  14.734  14.416
85500W        W47031   7.737   9.307  12.507
85501W        W47032  18.122   5.803  11.950
85502W        W47033  19.585  12.162   3.682
85503W        W47034  36.874  25.604  13.527
85504W        W47035  16.223  39.827  14.956
85505W        W47036  16.297  13.700   2.310
85506W        W47037  41.364   3.391  11.917
85507W        W47038   1.911  12.746  12.376
85508W        W47039  20.632  15.606  13.820
85509W        W47040  19.254  29.995   2.369
85510W        W47041  23.190   1.880  13.423
85511W        W47042  26.544  41.949   2.185
85512W        W47043  35.480  20.525   0.374
85513W        W47044  24.523   1.297   2.246
85514W        W47045  12.263   0.394   4.262
85515W        W47046  13.125  31.143  12.048
85516W        W47047  21.734  15.628  13.345
85517W        W47048  42.834  28.517   2.885
85518W        W47049  16.276  43.813   2.371
85519W        W47050  29.109   7.689   5.673
85520W        W47051  17.686  37.469  13.834
85521W        W47052  13.810  14.738   2.201
85522W        W47053   0.291   6.798   4.729
85523W        W47054  22.007   8.341  14.403
85524W        W47055  16.269  10.211   3.839
85525W        W47056  28.590  31.504   2.897
85526W        W47057   3.715  11.717  13.524
85527W        W47058  29.058  37.013   4.283
85528W        W47059  20.760  42.944  11.098
85529W        W47060  12.650  27.564  11.432
85530W        W47061  13.269  44.335  12.856
85531W        W47062  15.681  17.252  12.031
85532W        W47063  38.902   4.709  10.627
85533W        W47064  14.700  44.388  13.844
85534W        W47065  31.030  41.511   0.484
85535W        W47066  18.257  15.235  12.555
85536W        W47067  22.047  19.592  13.993
85537W        W47068  39.428  43.866   0.320
85538W        W47069  39.332  24.712  10.488
85539W        W47070  29.117  34.992   2.253
85540W        W47071  14.711  11.224   1.765
85541W        W47072  22.660  26.638   0.352
85542W        W47073  10.664  37.833  14.503
85543W        W47074  15.219   8.776   2.699
85544W        W47075  40.962  17.117   1.305
85545W        W47076  39.317   5.774  12.835
85546W        W47077   6.193  16.163   3.764
85547W        W47078   1.763  20.147  13.505
85548W        W47079  10.811   0.471  13.057
85549W        W47080  18.754  41.538   2.805
85550W        W47081  43.482   1.456   4.307
85551W        W47082   0.412  26.601  12.964
85552W        W47083  42.406  38.428  13.427
85553W        W47084  12.644   3.459   1.815
85554W        W47085  16.123  40.857   4.688
85555W        W47086  19.588   0.363  10.569
85556W        W47087  24.026  22.517   3.241
85557W        W47088  10.170   6.848  11.915
85558W        W47089  10.142  15.742  11.380
85559W        W47090  29.031  10.361   3.744
85560W        W47091  30.955  16.254   1.299
85561W        W47092  44.841  29.950   3.162
85562W        W47093   0.331  44.372  11.512
85563W        W47094  33.975  15.713  10.952
85564W        W47095  18.725  26.143   4.823
85565W        W47096  42.972  25.116  12.405
85566W        W47097  22.995  33.469   1.435
85567W        W47098  36.968  20.123   0.885
85568W        W47099  12.691  26.639  14.372
85569W        W47100   5.208  10.301   1.255
85570W        W47101  27.470  19.722   3.652
85571W        W47102  26.957   2.420  12.824
85572W        W47103  14.696  34.028  12.020
85573W        W47104  34.961  14.272  14.297
85574W        W47105   8.173  31.638  14.388
85575W        W47106  14.619  29.978  10.024
85576W        W47107   5.382  40.857  14.845
85577W        W47108  19.174  11.685   4.247
85578W        W47109  18.545   2.721   4.154
85579W        W47110  36.401  27.500   3.306
85580W        W47111  17.206  14.781  11.930
85581W        W47112  29.032  15.702  14.345
85582W        W47113  14.708  32.511   1.341
85583W        W47114  44.921  40.027  14.511
85584W        W47115  10.196  16.195   3.172
85585W        W47116  29.629  36.906   2.849
85586W        W47117   7.705  20.132  14.302
85587W        W47118   7.334   5.228   2.715
85588W        W47119  26.605  14.166  11.548
85589W        W47120  39.510   4.777  11.487
85590W        W47121  22.113   6.903   4.274
85591W        W47122  16.075   1.812   3.730
85592W        W47123  37.081   4.289  13.409
85593W        W47124  29.941  12.753   3.261
85594W        W47125   5.901  23.222   2.291
85595W        W47126  23.084   8.824  10.983
85596W        W47127  28.146  40.491   3.232
85597W        W47128  19.219  17.271  14.800
85598W        W47129  33.626   8.164  11.091
85599W        W47130  22.682  39.873   1.746
85600W        W47131  12.332  29.956  11.589
85601W        W47132  31.153  22.674   1.740
85602W        W47133  11.732   7.751  14.493
85603W        W47134  20.579  30.004   4.794
85604W        W47135  24.497  40.500   0.359
85605W        W47136  27.522   1.446  10.466
85606W        W47137  31.452   3.403  12.537
85607W        W47138  10.338  23.037   3.771
85608W        W47139  42.412   4.288   0.342
85609W        W47140  26.102  35.955  10.968
85610W        W47141  37.386  42.504   0.904
85611W        W47142  42.853   0.902   5.299
85612W        W47143  44.260  43.786  11.405
85613W        W47144  17.175  10.699   2.365
85614W        W47145   7.680   2.739   5.292
85615W        W47146  44.768  16.580  14.291
85616W        W47147   8.878   5.267  12.862
85617W        W47148  13.192   3.252  11.972
85618W        W47149  41.444   3.742  11.908
85619W        W47150  44.966  25.687   3.799
85620W        W47151  27.618   3.293  10.920
85621W        W47152  35.890  22.718  10.505
85622W        W47153   3.244  19.623  13.505
85623W        W47154  44.460  34.965  12.433
85624W        W47155  25.702  27.982  12.857
85625W        W47156  36.395  25.559   4.617
85626W        W47157  13.652   9.812  10.469
85627W        W47158  30.039  10.823   2.673
85628W        W47159  39.528  27.595   2.782
85629W        W47160  44.419  27.107   3.689
85630W        W47161  23.068  10.383  12.348
85631W        W47162  35.905  29.595  10.957
85632W        W47163  16.782  11.328   4.243
85633W        W47164  36.554  18.203   0.790
85634W        W47165  28.060  36.062   4.658
85635W        W47166  31.485  38.428  11.907
85636W        W47167  31.403  16.116   2.740
85637W        W47168  21.583  14.105  10.564
85638W        W47169  21.698  18.237  14.476
85639W        W47170  41.334  33.474  14.761
85640W        W47171  37.386   8.305   2.289
85641W        W47172   3.344  15.761  13.829
85642W        W47173  39.514  29.989  12.903
85643W        W47174  29.482  44.328  12.520
85644W        W47175  34.422  27.576  12.825
85645W        W47176  43.021  30.527  14.938
85646W        W47177  17.228  37.524  11.579
85647W        W47178  27.187  29.583   4.827
85648W        W47179  15.268   0.758   2.862
85649W        W47180  36.858   7.303   1.830
85650W        W47181  28.632  20.179   2.772
85651W        W47182  21.517  20.166   1.377
85652W        W47183  26.121   8.263   9.934
85653W        W47184  42.885   0.373   3.824
85654W        W47185  25.162  24.155   3.219
85655W        W47186  18.640  20.215   3.814
85656W        W47187   7.384  22.222   1.370
85657W        W47188  30.063   6.798   0.336
85658W        W47189   6.818  28.523  11.046
85659W        W47190   7.840  17.723  10.945
85660W        W47191  23.210  36.962   2.342
85661W        W47192  12.230  37.971   2.313
85662W        W47193  17.657  19.053  11.414
85663W        W47194  23.207  34.508  14.963
85664W        W47195   2.731  29.041  11.564
85665W        W47196  29.994  17.568  14.792
85666W        W47197  14.615   3.723   4.728
85667W        W47198  43.411  12.252  14.839
85668W        W47199   4.290  20.617  11.033
85669W        W47200  40.508  26.533   4.604
85670W        W47201   3.882   3.915  13.940
85671W        W47202  37.849  22.684   2.218
85672W        W47203   6.719  12.833  14.417
85673W        W47204   3.261  20.273  13.816
85674W        W47205  18.622  30.094  12.047
85675W        W47206  29.098  37.013  13.453
85676W        W47207  12.833   1.950   1.328
85677W        W47208  38.074   1.318   3.332
85678W        W47209  13.777   8.163  12.466
85679W        W47210  42.376  13.300  13.348
85680W        W47211  11.770  23.228  10.492
85681W        W47212  43.784   2.258  13.005
85682W        W47213   5.774  37.360   1.732
85683W        W47214  22.052  13.621  10.527
85684W        W47215  27.510  41.953   4.293
85685W        W47216  12.791  28.042  14.401
85686W        W47217  28.629   8.766  12.469
85687W        W47218  42.442   8.733  12.450
85688W        W47219  35.914  38.838  13.321
85689W        W47220  36.487  14.628  10.436
85690W        W47221   4.242  23.691  11.449
85691W        W47222  36.098  22.017  13.027
85692W        W47223   0.977   8.840  14.956
85693W        W47224  31.521  37.043   0.964
85694W        W47225   0.857  15.802  12.489
85695W        W47226  18.558   4.303  10.930
85696W        W47227  44.909  21.565   3.212
85697W        W47228  12.139  29.160  12.863
85698W        W47229  34.472  37.938  12.824
85699W        W47230  24.974  25.579  10.414
85700W        W47231  31.053   6.289   0.284
85701W        W47232   2.728  26.552  11.391
85702W        W47233  13.687  36.993  13.886
85703W        W47234   0.327   8.191   0.741
85704W        W47235   5.838   4.745   3.799
85705W        W47236  19.668  26.676  14.336
85706W        W47237  16.731   1.292   2.867
85707W        W47238   7.737  24.186   3.352
85708W        W47239  13.659  13.211   3.222
85709W        W47240   6.308  33.909   4.198
85710W        W47241  20.068  41.029   4.256
85711W        W47242  26.157  35.441  12.849
85712W        W47243  35.869  42.800  13.411
85713W        W47244  44.308  13.653  11.985
85714W        W47245   9.171   7.219   0.946
85715W        W47246   9.378   6.788   0.394
85716W        W47247  36.056  23.605   2.814
85717W        W47248  16.587  28.127   3.787
85718W        W47249  42.863  41.502  13.846
85719W        W47250  35.428   0.462  11.067
85720W        W47251  19.101  44.942   1.387
85721W        W47252  33.543  29.665  12.472
85722W        W47253   0.347  15.287  14.952
85723W        W47254  40.361  32.524  11.522
85724W        W47255   3.291  33.577   3.370
85725W        W47256  18.702  32.567  10.613
85726W        W47257  19.749  43.383   0.468
85727W        W47258   1.810  27.970   3.201
85728W        W47259  44.795  29.424   1.449
85729W        W47260  12.758  33.440   4.254
85730W        W47261  17.701  22.619   0.897
85731W        W47262  13.319  34.586   2.796
85732W        W47263  15.145   9.687  13.548
85733W        W47264  17.605  37.420   2.834
85734W        W47265   7.355  19.152  13.055
85735W        W47266   8.702  30.525  10.543
85736W        W47267  20.152   1.332  11.418
85737W        W47268  17.631  28.086  11.559
85738W        W47269  30.521  41.825   3.340
85739W        W47270  20.566   4.317   0.385
85740W        W47271  25.070  11.711  12.450
85741W        W47272  35.433  35.595   3.370
85742W        W47273  35.483  26.595   1.859
85743W        W47274   5.211  22.581  12.366
85744W        W47275   2.756   3.403  14.408
85745W        W47276  33.088  17.590  11.538
85746W        W47277  22.055  24.658  13.422
85747W        W47278  14.638  23.094  12.828
85748W        W47279  20.123   8.777   0.728
85749W        W47280  20.236  17.795  11.610
85750W        W47281  14.197  35.470   4.695
85751W        W47282  21.202   7.339   3.301
85752W        W47283  11.843  40.507   5.083
85753W        W47284  30.576  15.802  13.062
85754W        W47285  12.251  32.423   0.935
85755W        W47286  27.607  33.111   2.271
85756W        W47287  14.822  17.769  14.469
85757W        W47288   1.290  38.434   3.218
85758W        W47289  14.594  13.109   1.729
85759W        W47290  20.184   0.752  12.830
85760W        W47291  29.562  26.686  14.786
85761W        W47292  22.234   0.431   0.952
85762W        W47293  18.143  42.285  13.837
85763W        W47294  38.922  41.471  13.968
85764W        W47295  24.648  43.454   4.352
85765W        W47296   6.350   3.814   4.158
85766W        W47297   7.863  42.331   0.789
85767W        W47298   2.733  24.668  11.985
85768W        W47299  43.822  16.145   1.904
85769W        W47300  34.551  35.419   4.732
85770W        W47301   2.284   0.251   0.762
85771W        W47302  17.185  33.927  13.323
85772W        W47303   2.825   8.354  11.887
85773W        W47304   9.265  25.612   4.733
85774W        W47305  17.239  20.231  10.904
85775W        W47306  27.070   3.459  13.510
85776W        W47307  36.842   0.441  14.498
85777W        W47308  25.532  26.460   3.272
85778W        W47309  13.791  30.065  11.569
85779W        W47310  19.196  26.973  12.558
85780W        W47311  41.292  33.480  13.340
85781W        W47312   1.297  32.570  10.892
85782W        W47313  37.899  19.553  12.913
85783W        W47314   1.358  26.573   4.597
85784W        W47315  32.972  41.443  11.519
85785W        W47316  42.844  33.915   3.202
85786W        W47317  24.053  12.266   4.190
85787W        W47318   9.739  15.778  14.782
85788W        W47319  28.600  35.459   0.913
85789W        W47320   2.262   9.882  10.598
85790W        W47321   6.292  43.880   2.308
85791W        W47322  35.058  11.783   0.784
85792W        W47323  42.861  19.632   0.450
85793W        W47324  30.048   7.702  12.034
85794W        W47325  26.192  21.647   1.324
85795W        W47326  27.664   1.840   0.769
85796W        W47327  35.399  37.543   3.157
85797W        W47328  40.403   1.758   4.157
85798W        W47329  10.644  19.544  12.866
85799W        W47330   2.379  22.610  11.422
85800W        W47331  38.957  23.037  12.419
85801W        W47332  39.969  37.574  14.007
85802W        W47333   2.338   9.677   0.411
85803W        W47334  27.469  36.379  11.033
85804W        W47335  19.083  19.270  11.564
85805W        W47336  38.993  16.258   0.945
85806W        W47337   7.364  32.393   2.719
85807W        W47338  31.980  16.777   3.194
85808W        W47339   9.828  10.250   2.351
85809W        W47340  24.143  30.143  13.897
85810W        W47341  12.241   6.784  13.802
85811W        W47342   3.829   9.660  12.032
85812W        W47343  25.135  31.453   3.146
85813W        W47344  43.418  29.499   2.372
85814W        W47345  43.411   0.334  10.944
85815W        W47346  40.356  37.362   3.258
85816W        W47347  43.926  23.225   4.837
85817W        W47348  42.521  18.729  11.598
85818W        W47349  35.920  12.204  11.587
85819W        W47350  11.833  19.626  14.482
85820W        W47351  22.103  31.402  11.433
85821W        W47352  10.726  17.640  12.342
85822W        W47353  30.493   4.349   0.379
85823W        W47354   0.470  38.055   4.137
85824W        W47355   2.348  34.596  10.496
85825W        W47356  20.581  41.912   4.607
85826W        W47357   8.740   2.467   0.795
85827W        W47358  18.766  40.450  13.859
85828W        W47359  42.490  13.163  11.903
85829W        W47360   5.324  37.971   0.272
85830W        W47361   6.916  37.410   1.404
85831W        W47362  31.419  32.580   2.694
85832W        W47363  19.063  35.893   1.884
85833W        W47364  16.265  15.790  13.906
85834W        W47365   4.886   9.676   0.781
85835W        W47366  19.124  20.150   2.345
85836W        W47367  41.873  13.209   5.246
85837W        W47368  29.170  28.041  13.910
85838W        W47369  23.627  39.360  13.912
85839W        W47370  41.403  28.094  12.381
85840W        W47371  23.562  26.145   1.383
85841W        W47372   6.244  18.610  11.908
85842W        W47373  34.883  10.330   1.394
85843W        W47374   7.696  27.618  14.807
85844W        W47375  25.070  32.429   2.861
85845W        W47376  23.098  22.064   0.872
85846W        W47377  11.767  28.162   4.780
85847W        W47378   5.761  19.228  11.968
85848W        W47379  43.492   4.844   1.888
85849W        W47380   5.801  11.804  12.385
85850W        W47381  32.575   0.326  13.427
85851W        W47382  39.320   5.752  10.905
85852W        W47383  32.131  43.794  12.046
85853W        W47384   0.970   0.362  12.044
85854W        W47385   4.434  35.097   4.354
85855W        W47386   5.195  41.460  13.511
85856W        W47387  16.130   1.343  12.580
85857W        W47388  34.981  38.840  13.952
85858W        W47389  24.688  12.837  12.419
85859W        W47390   1.454  32.079   2.737
85860W        W47391  39.975   9.804   1.384
85861W        W47392  35.028  10.367   3.232
85862W        W47393  10.724  30.502  12.892
85863W        W47394   4.800   0.251   1.389
85864W        W47395   3.460  19.747  14.903
85865W        W47396  12.198  22.732   1.440
85866W        W47397  10.339  39.527   0.441
85867W        W47398  40.946  31.413  14.761
85868W        W47399  38.392  23.719   2.309
85869W        W47400  16.266  15.309  14.928
85870W        W47401  16.131  21.142  14.005
85871W        W47402  14.164  34.569   4.137
85872W        W47403  14.823  36.920   2.833
85873W        W47404   0.770  44.008   1.861
85874W        W47405  14.129  18.708   3.256
85875W        W47406   0.919  40.915  10.422
85876W        W47407  33.526  25.702   2.303
85877W        W47408  32.046  42.831   2.708
85878W        W47409  35.991  40.407  14.296
85879W        W47410  39.994  33.545   9.939
85880W        W47411   5.713  16.578  11.901
85881W        W47412  32.522   1.410  11.977
85882W        W47413  13.312  31.439   1.320
85883W        W47414  29.521  22.719   9.940
85884W        W47415  26.608  41.878   4.140
85885W        W47416   9.659  34.115  10.923
85886W        W47417  22.597  34.948  10.924
85887W        W47418   2.750  28.004   2.804
85888W        W47419  27.016   2.383   0.848
85889W        W47420  19.108  26.164   4.763
85890W        W47421   6.291  15.100  13.848
85891W        W47422  31.115  32.910   4.283
85892W        W47423  23.010  16.782  12.077
85893W        W47424  18.742  43.881   1.774
85894W        W47425  18.176  17.667  14.929
85895W        W47426  24.528  15.135   1.227
85896W        W47427  43.917   0.247   2.840
85897W        W47428  13.685  25.523  14.467
85898W        W47429   9.719   4.226  11.456
85899W        W47430  32.502  28.656  11.510
85900W        W47431  37.918  30.487  10.589
85901W        W47432  16.288  25.025  12.905
85902W        W47433  38.833  26.146  13.875
85903W        W47434  44.273  37.959  13.942
85904W        W47435  38.375   4.289  11.977
85905W        W47436  22.700   5.689   4.160
85906W        W47437   0.918   6.824  11.431
85907W        W47438   7.689  38.951   2.664
85908W        W47439   1.475  15.295  10.636
85909W        W47440  20.274  26.092   2.823
85910W        W47441  38.986  28.483   3.777
85911W        W47442   5.255  41.308   1.371
85912W        W47443  31.633  23.529  11.539
85913W        W47444  44.383  37.404  10.551
85914W        W47445  22.014  35.045  14.428
85915W        W47446  44.900  38.877   2.267
85916W        W47447  30.955  36.508  10.995
85917W        W47448  35.549  33.099   2.854
85918W        W47449  26.044  14.598  11.556
85919W        W47450  15.116  13.815   1.898
85920W        W47451  29.506  18.099  10.918
85921W        W47452  25.643  23.621   4.619
85922W        W47453  35.965  24.014   3.630
85923W        W47454   7.253  10.283   1.272
85924W        W47455  37.529  22.537   5.215
85925W        W47456  29.136  13.290   1.889
85926W        W47457  14.136  25.147  11.583
85927W        W47458  28.488   6.256  12.427
85928W        W47459  29.458  37.004  12.072
85929W        W47460  27.038  15.171  13.879
85930W        W47461  14.643  20.564  13.801
85931W        W47462  16.075   4.263  14.375
85932W        W47463   3.735  27.485   3.740
85933W        W47464   9.257   1.779  11.408
85934W        W47465  39.402  36.499  13.020
85935W        W47466  17.671  23.020   1.698
85936W        W47467  36.057  32.420   4.253
85937W        W47468   4.776  25.210   9.615
85938W        W47469   9.188  17.794   2.806
85939W        W47470  23.603  41.366  12.905
85940W        W47471  11.735  35.060   4.831
85941W        W47472  32.140   2.723  11.068
85942W        W47473  24.654  21.559   4.248
85943W        W47474  26.080  11.188  13.331
85944W        W47475  44.846   5.257  11.947
85945W        W47476  38.544   0.333   3.238
85946W        W47477  30.157   0.804   1.223
85947W        W47478   7.883   2.287   0.283
85948W        W47479   2.423  13.781   4.614
85949W        W47480  37.833  37.503  10.483
85950W        W47481  23.657  37.069  12.394
85951W        W47482  24.122   1.914   4.649
85952W        W47483  20.070  40.325  11.065
85953W        W47484  42.949  25.508  13.064
85954W        W47485   9.237  37.366  11.484
85955W        W47486  11.797  22.519   5.291
85956W        W47487   9.386  28.577   3.688
85957W        W47488  42.364  11.317   2.899
85958W        W47489  27.659  19.165   3.297
85959W        W47490  26.539  40.484   0.313
85960W        W47491  29.002  30.482  12.513
85961W        W47492  24.649  35.014   4.838
85962W        W47493  19.722  35.959   2.200
85963W        W47494   7.888  37.452   0.389
85964W        W47495  36.900  36.349  14.338
85965W        W47496  29.445  10.806   5.283
85966W        W47497  32.597  26.481   0.915
85967W        W47498   9.373  14.236  10.522
85968W        W47499  33.985  31.923   1.863
85969W        W47500  14.123  20.729  14.917
85970W        W47501  26.480  42.984  14.356
85971W        W47502   0.469  11.838  13.977
85972W        W47503  23.558  41.434   0.822
85973W        W47504  32.907  17.232   3.725
85974W        W47505  21.537  40.006  14.407
85975W        W47506  30.934   6.309  11.934
85976W        W47507  24.652  26.563   1.242
85977W        W47508  18.270  23.538   1.705
85978W        W47509  36.496   5.750   4.264
85979W        W47510  14.303   0.855   2.841
85980W        W47511  30.468  30.425   1.775
85981W        W47512  16.254  31.419   4.643
85982W        W47513   9.233  30.013  12.862
85983W        W47514  35.006  27.691  13.423
85984W        W47515  32.417  22.722   1.730
85985W        W47516  24.631  10.710   0.442
85986W        W47517  28.027  33.391  12.927
85987W        W47518  35.920  20.651   2.270
85988W        W47519  20.221   0.331  11.581
85989W        W47520  30.623   0.427   2.670
85990W        W47521  16.178  15.813  11.105
85991W        W47522  38.355  30.114  13.970
85992W        W47523  23.653  37.032  12.928
85993W        W47524  19.604  31.146  11.903
85994W        W47525  43.430  20.141   0.824
85995W        W47526  27.497  25.689  14.804
85996W        W47527  38.500   8.333   1.793
85997W        W47528  19.192  36.963  11.970
85998W        W47529   3.923  44.923  10.976
85999W        W47530  24.706  11.818   1.227
86000W        W47531  24.089   1.359  14.885
86001W        W47532   7.352  28.457  12.079
86002W        W47533  23.691  31.562  11.985
86003W        W47534  41.951  16.125   2.797
86004W        W47535  33.479  36.593  14.477
86005W        W47536  29.984  28.024   1.404
86006W        W47537  31.495  14.238   0.763
86007W        W47538  32.058   0.420  12.823
86008W        W47539  14.170  28.497  12.533
86009W        W47540  21.069   5.216  11.475
86010W        W47541  13.788  34.466  12.449
86011W        W47542  12.703   2.963  11.926
86012W        W47543  26.151   4.768   1.447
86013W        W47544  43.394  21.249   1.383
86014W        W47545  23.644  16.166  12.484
86015W        W47546   6.697  42.295  14.282
86016W        W47547   6.679  41.325  11.921
86017W        W47548  22.180  29.925  12.358
86018W        W47549  32.430  20.200  11.457
86019W        W47550  31.505  21.077  14.401
86020W        W47551  18.192  18.765  12.548
86021W        W47552   5.875  31.896   2.298
86022W        W47553  30.908   3.267  12.977
86023W        W47554  17.738  14.700  13.806
86024W        W47555  29.667  16.139   0.398
86025W        W47556  25.053  25.019   2.213
86026W        W47557  16.615  43.797  12.494
86027W        W47558   2.439  18.072   2.385
86028W        W47559   9.783  11.720  12.345
86029W        W47560  16.599  16.628  12.073
86030W        W47561  38.865  23.149   3.279
86031W        W47562  29.509  27.521   0.879
86032W        W47563  31.138   6.686   0.807
86033W        W47564  12.294  43.408  12.481
86034W        W47565  19.128  27.452  10.911
86035W        W47566   7.389   2.399   4.652
86036W        W47567  30.924  40.052  14.383
86037W        W47568  25.538  41.885   2.353
86038W        W47569  18.662  39.341  14.303
86039W        W47570  32.578  38.057   2.390
86040W        W47571   8.842  34.398  14.921
86041W        W47572  39.898   2.878   4.670
86042W        W47573  31.116  19.236  13.795
86043W        W47574  21.711  16.132   3.853
86044W        W47575   5.211  32.891   0.792
86045W        W47576  14.275   8.728   0.912
86046W        W47577  13.657  18.198   3.807
86047W        W47578  43.505  11.161   2.414
86048W        W47579  22.647  23.623  13.457
86049W        W47580  41.383  26.564   5.216
86050W        W47581   1.759  16.811  11.373
86051W        W47582  37.957  37.526  11.423
86052W        W47583  13.164  13.646   4.124
86053W        W47584  32.527  12.685   2.385
86054W        W47585  29.564   5.202   2.780
86055W        W47586  15.731  14.805  11.415
86056W        W47587  22.032  22.605   4.625
86057W        W47588  22.573   7.300  11.937
86058W        W47589  30.613  16.636   2.350
86059W        W47590  44.968  42.831   0.759
86060W        W47591  27.597   3.753  11.895
86061W        W47592   0.334  17.177   1.758
86062W        W47593  34.384  41.799   4.279
86063W        W47594  25.018  35.873  10.025
86064W        W47595  38.364   2.917   4.252
86065W        W47596  32.529   2.954   1.882
86066W        W47597  18.128  12.621  13.044
86067W        W47598  29.549  22.638  14.933
86068W        W47599  20.119  43.471  13.397
86069W        W47600  18.148  32.124   4.314
86070W        W47601  30.021  29.954   4.245
86071W        W47602  22.742  41.523  10.891
86072W        W47603  26.673  39.875  13.442
86073W        W47604  28.137  34.970  12.998
86074W        W47605   2.290  20.539   3.353
86075W        W47606  29.973  32.448   1.898
86076W        W47607   5.723  43.506   4.169
86077W        W47608  17.094  34.421  14.008
86078W        W47609  10.142  32.042   1.799
86079W        W47610  38.975  42.457   3.634
86080W        W47611  16.313  27.053   4.163
86081W        W47612  16.074   8.216   0.375
86082W        W47613  35.894  27.097   4.271
86083W        W47614   0.467   3.240  13.393
86084W        W47615   1.843  25.138   3.778
86085W        W47616  42.289  31.471   1.308
86086W        W47617   8.848   2.861   0.747
86087W        W47618   5.876  19.745  11.426
86088W        W47619  36.991  40.812   4.772
86089W        W47620  33.038  19.732   2.293
86090W        W47621  38.368  18.127  13.942
86091W        W47622  21.746  42.472   2.233
86092W        W47623  25.106  13.803  10.968
86093W        W47624  22.612  35.509   1.826
86094W        W47625  16.711  40.823   4.114
86095W        W47626  12.129  23.159  14.801
86096W        W47627  33.516  24.722  10.975
86097W        W47628   6.700  29.503  13.347
86098W        W47629  12.337  12.248  11.501
86099W        W47630   6.365  24.641   2.342
86100W        W47631  23.502  25.509   1.843
86101W        W47632  22.556  38.405   1.932
86102W        W47633  22.039   7.832   0.364
86103W        W47634   0.282   2.746  12.395
86104W        W47635  32.435  26.102  12.422
86105W        W47636  28.633  40.349   1.405
86106W        W47637  42.988  25.022  14.869
86107W        W47638  19.200  20.202  11.067
86108W        W47639  18.720  27.552  10.030
86109W        W47640  32.062  22.183  14.490
86110W        W47641  39.496  20.155  14.381
86111W        W47642  43.892  14.632  14.275
86112W        W47643  20.040  30.052   0.777
86113W        W47644  12.683  40.547  10.492
86114W        W47645  30.610   0.455   4.124
86115W        W47646  17.110  28.483   0.954
86116W        W47647  37.900   6.248  10.944
86117W        W47648   5.246  30.025   0.822
86118W        W47649   9.274  11.847  10.009
86119W        W47650  20.201   6.214   1.293
86120W        W47651  32.891  15.610   3.815
86121W        W47652  18.137  18.261   2.776
86122W        W47653  13.171  43.516   0.403
86123W        W47654  44.936  25.152  14.780
86124W        W47655  23.525  31.506  13.808
86125W        W47656  36.992  41.306  10.420
86126W        W47657  21.035  41.437   3.206
86127W        W47658   2.431  22.043   0.260
86128W        W47659  24.179  30.482  14.886
86129W        W47660  23.518  42.784  12.411
86130W        W47661  36.841   7.349   3.284
86131W        W47662  42.417  39.964  12.982
86132W        W47663  12.289  41.866   4.811
86133W        W47664  30.027   8.695   0.770
86134W        W47665  18.199  42.366   2.376
86135W        W47666  15.776   7.828   0.302
86136W        W47667  13.167   2.868   3.178
86137W        W47668  26.076  41.867   2.813
86138W        W47669  37.391  31.440   2.670
86139W        W47670   1.788  23.051   2.862
86140W        W47671  21.198  27.625   2.881
86141W        W47672  27.664  15.318   4.118
86142W        W47673   3.445  16.695   1.434
86143W        W47674  17.692  18.083  13.846
86144W        W47675  23.522  22.011   3.332
86145W        W47676  22.146  32.886   1.745
86146W        W47677  44.480  43.998   4.644
86147W        W47678  15.115  27.627   4.308
86148W        W47679  21.212  12.655   2.737
86149W        W47680   5.870  27.986   1.809
86150W        W47681  13.333  30.559   3.187
86151W        W47682   7.282  30.630  13.871
86152W        W47683  44.419  14.209   4.284
86153W        W47684  36.387   7.866  13.930
86154W        W47685   0.472  38.498   2.242
86155W        W47686  43.332  26.483  10.982
86156W        W47687   2.471   8.279   1.263
86157W        W47688  34.016  11.831   2.722
86158W        W47689  37.512  13.156  12.865
86159W        W47690   5.809  27.980   3.691
86160W        W47691   9.799   8.726   2.742
86161W        W47692  31.065  29.478  12.493
86162W        W47693  27.147  28.172   4.663
86163W        W47694   5.751  20.719   2.368
86164W        W47695  27.962  17.307   2.737
86165W        W47696  28.490  29.575  14.507
86166W        W47697  18.602  39.918  13.443
86167W        W47698  39.870  27.132   3.217
86168W        W47699  38.998  42.029   0.940
86169W        W47700   6.269  20.215  10.913
86170W        W47701  24.123   8.176   3.689
86171W        W47702  36.490  41.443  13.900
86172W        W47703  26.673   7.173  12.457
86173W        W47704  33.056  16.153  12.086
86174W        W47705  31.428  37.407   3.360
86175W        W47706  43.485   2.838  11.947
86176W        W47707  33.874  34.947   2.333
86177W        W47708  13.293  32.086   5.761
86178W        W47709  44.312  22.199   3.729
86179W        W47710  28.628  11.632  11.499
86180W        W47711  18.294  14.791   4.284
86181W        W47712  24.694  36.392   0.935
86182W        W47713  43.310  15.668  10.093
86183W        W47714   1.756   5.362  10.458
86184W        W47715  44.356   0.826   1.268
86185W        W47716  31.518  33.036  11.600
86186W        W47717  23.100   9.281  11.129
86187W        W47718  13.310  20.764   1.325
86188W        W47719  35.061  22.724   1.313
86189W        W47720  23.491  20.153   0.878
86190W        W47721   5.358  35.385   3.839
86191W        W47722  42.789  39.522   1.252
86192W        W47723  31.440  24.995  14.799
86193W        W47724  41.793   1.875   5.237
86194W        W47725  41.882   0.815  11.023
86195W        W47726   4.846  28.177  13.423
86196W        W47727  33.407  22.614   5.247
86197W        W47728  25.053  32.103   9.575
86198W        W47729   6.287  31.481  13.942
86199W        W47730   2.308  41.419  12.452
86200W        W47731  38.961  18.153  10.944
86201W        W47732  37.493  11.724   0.769
86202W        W47733   3.394  40.459   1.225
86203W        W47734  33.978  19.778   4.220
86204W        W47735  19.137  24.669   0.873
86205W        W47736  28.958  31.013   0.918
86206W        W47737  43.783  35.956   3.664
86207W        W47738   7.181  35.018  12.002
86208W        W47739  28.460  41.956  13.816
86209W        W47740  42.786  38.907  13.337
86210W        W47741  22.029  15.297   0.410
86211W        W47742   5.837  29.525  11.122
86212W        W47743  43.448  43.833  11.036
86213W        W47744  14.252  44.274  11.980
86214W        W47745  31.076  20.111  11.954
86215W        W47746  17.709  24.224   0.760
86216W        W47747  17.634  44.362   2.196
86217W        W47748  38.904  18.632   3.800
86218W        W47749  17.636  42.792  14.759
86219W        W47750   7.749  38.520  12.486
86220W        W47751  17.765  32.073   4.147
86221W        W47752   9.753  14.194   0.460
86222W        W47753   0.403   0.813  14.005
86223W        W47754  25.692  31.538  12.992
86224W        W47755  19.647  37.467  11.868
86225W        W47756  32.513  35.007   1.890
86226W        W47757  33.936  16.801   5.731
86227W        W47758  15.726  42.824   2.208
86228W        W47759  10.777  10.383   4.617
86229W        W47760   0.296  13.300  10.603
86230W        W47761  44.975   6.782   0.825
86231W        W47762   5.782  21.225  11.867
86232W        W47763   9.243  32.129  11.972
86233W        W47764  17.753  19.748   3.851
86234W        W47765  10.294  44.307  14.781
86235W        W47766  42.795   6.293   1.447
86236W        W47767  11.273  42.399  11.916
86237W        W47768  26.189  11.704  14.945
86238W        W47769  39.355  14.304   2.237
86239W        W47770  40.311   0.326   4.313
86240W        W47771  29.014  32.489  12.946
86241W        W47772  30.087  17.589  11.125
86242W        W47773  17.187  30.932   5.182
86243W        W47774   2.345  35.862  10.971
86244W        W47775   8.324  14.678   4.306
86245W        W47776  33.962  36.926   9.617
86246W        W47777  37.477  10.170  12.063
86247W        W47778  16.073  15.619  12.899
86248W        W47779  17.106  26.159   3.711
86249W        W47780  39.915  24.200  11.088
86250W        W47781  26.138  25.624  14.446
86251W        W47782   4.926  23.616  10.546
86252W        W47783   8.280  22.522   3.658
86253W        W47784   3.309  10.700   1.805
86254W        W47785  29.644   3.955   4.347
86255W        W47786  19.178  13.156  14.828
86256W        W47787  30.552  42.507  13.449
86257W        W47788  30.603  28.953  12.027
86258W        W47789  15.161  26.570  10.127
86259W        W47790  43.327  14.185  14.949
86260W        W47791   7.779  26.570   2.281
86261W        W47792   7.329  31.914   2.808
86262W        W47793  34.499  29.024   0.862
86263W        W47794  26.118  24.033  11.887
86264W        W47795   2.804  29.098  12.938
86265W        W47796  33.565  27.078   0.910
86266W        W47797  26.462  13.187  11.953
86267W        W47798  40.905  42.469  10.457
86268W        W47799  17.193  11.779  13.344
86269W        W47800  31.621   9.882  11.008
86270W        W47801  12.768  24.496   2.705
86271W        W47802  28.609   3.830  10.406
86272W        W47803  33.900   5.290   2.823
86273W        W47804   2.838  36.565  14.422
86274W        W47805   6.353  40.804  10.963
86275W        W47806  30.082  19.048   3.276
86276W        W47807  41.366  39.430   1.240
86277W        W47808  30.480  27.064   1.326
86278W        W47809   3.732  29.173  12.907
86279W        W47810   6.321   6.312   9.990
86280W        W47811  36.509  22.163   1.413
86281W        W47812  39.017  44.330  12.440
86282W        W47813  34.406  35.499   4.262
86283W        W47814  22.081  19.129   2.868
86284W        W47815  21.036   5.757  12.365
86285W        W47816  10.641  35.484  14.495
86286W        W47817  44.009   0.969  12.541
86287W        W47818  28.630  26.204  13.882
86288W        W47819  37.880  26.994  10.912
86289W        W47820  16.104   5.844   1.355
86290W        W47821  12.683  39.816  10.644
86291W        W47822  44.995  38.498  11.988
86292W        W47823   4.310  16.272   4.836
86293W        W47824  35.565  14.243   3.374
86294W        W47825  13.637  24.081  13.485
86295W        W47826   8.721  18.621   0.793
86296W        W47827  33.505  41.898  12.496
86297W        W47828  42.412   7.214  13.903
86298W        W47829  12.281  37.881  10.925
86299W        W47830   8.278  40.333  12.023
86300W        W47831  39.963   6.255   0.893
86301W        W47832  22.616  17.304   3.717
86302W        W47833  20.704  34.401   3.215
86303W        W47834  39.827  19.110  14.298
86304W        W47835  17.649  11.169  13.399
86305W        W47836   1.891  35.436   1.783
86306W        W47837  27.507   0.946   4.812
86307W        W47838  30.606  42.963  13.938
86308W        W47839   1.929   0.772  14.442
86309W        W47840  41.932  18.662   1.328
86310W        W47841   4.705  20.746   1.278
86311W        W47842  25.688  12.742   3.172
86312W        W47843  28.016   0.261  10.889
86313W        W47844  31.507  34.874  14.865
86314W        W47845   2.361  30.152   4.350
86315W        W47846  22.616  25.027  12.006
86316W        W47847  27.984  24.573  13.329
86317W        W47848   9.680  22.531   1.285
86318W        W47849  42.356  31.977  10.643
86319W        W47850  11.175  16.704   0.318
86320W        W47851  43.965  20.729   2.700
86321W        W47852  13.350  30.433  13.354
86322W        W47853  13.155  24.123  14.367
86323W        W47854   7.726  15.292   2.296
86324W        W47855  13.741  38.550  13.440
86325W        W47856   3.832  28.939   3.822
86326W        W47857  37.065  43.386   3.229
86327W        W47858   1.374  30.654  12.372
86328W        W47859   2.965   3.714   0.742
86329W        W47860  10.733   1.388   2.724
86330W        W47861  36.070   5.258  13.323
86331W        W47862  28.647  43.920   3.377
86332W        W47863  31.612   2.841  10.981
86333W        W47864  20.154   4.219   0.361
86334W        W47865  22.035  25.192   2.669
86335W        W47866  30.956  32.594   0.738
86336W        W47867   9.874   7.667   1.910
86337W        W47868  16.611   2.316  11.012
86338W        W47869  33.090   7.887   3.321
86339W        W47870   8.709  14.171  11.908
86340W        W47871  28.656  31.973   0.483
86341W        W47872  17.204  42.422  11.936
86342W        W47873  13.745  27.475  13.967
86343W        W47874   7.788  37.913  10.419
86344W        W47875   5.724  43.859   2.840
86345W        W47876   4.916  15.641  11.857
86346W        W47877  28.932  44.946  10.637
86347W        W47878  18.170  23.195  13.822
86348W        W47879   9.347  16.278   2.365
86349W        W47880  44.950   0.414  13.818
86350W        W47881  11.769   3.349  10.493
86351W        W47882  24.070   8.830   9.973
86352W        W47883  44.911  23.729  10.924
86353W        W47884  38.399   7.912  10.955
86354W        W47885  16.236   5.832  10.908
86355W        W47886  31.977   1.941  12.058
86356W        W47887  13.808   4.846  13.353
86357W        W47888  21.150  24.168   4.815
86358W        W47889   6.922   8.830   3.836
86359W        W47890  27.492  12.649  14.275
86360W        W47891  26.473  43.772   3.353
86361W        W47892  28.021   0.952  13.964
86362W        W47893  30.651  31.122  12.559
86363W        W47894  32.965  33.389   0.425
86364W        W47895   1.471  25.681  11.908
86365W        W47896  40.352  11.659   3.829
86366W        W47897   4.439   3.397   4.287
86367W        W47898   8.861  13.175  11.413
86368W        W47899  25.516  30.155   3.277
86369W        W47900  20.265  24.096   5.197
86370W        W47901  19.153  34.410   0.416
86371W        W47902  11.222  34.380  11.568
86372W        W47903  16.675  30.952  14.353
86373W        W47904  31.927  24.134   4.763
86374W        W47905  30.083   4.759   4.600
86375W        W47906  35.883  41.327   0.836
86376W        W47907  24.038  18.559  13.373
86377W        W47908  27.990  15.584  11.460
86378W        W47909  39.483  29.434   2.249
86379W        W47910   1.949   1.338  14.389
86380W        W47911  26.135  11.757   3.655
86381W        W47912  15.781  37.371  11.062
86382W        W47913   1.283  44.448  14.489
86383W        W47914  14.153  44.986  12.457
86384W        W47915  31.148   6.352  13.321
86385W        W47916  36.919  37.370  12.385
86386W        W47917   3.789  21.160   3.330
86387W        W47918  42.874  26.575   3.261
86388W        W47919  35.580  29.107   3.313
86389W        W47920  21.191  13.845  13.838
86390W        W47921  32.010  34.547  10.985
86391W        W47922   3.904  32.465   1.422
86392W        W47923  26.618  37.339   1.746
86393W        W47924  39.938  17.769  13.379
86394W        W47925  43.815  38.495  12.091
86395W        W47926  31.550  18.084  11.526
86396W        W47927  37.338  19.700  11.424
86397W        W47928  16.705  20.535   3.170
86398W        W47929  30.645  25.611  14.485
86399W        W47930  36.931  12.768   2.740
86400W        W47931  39.527  39.404   2.764
86401W        W47932  30.954  10.189   0.952
86402W        W47933  25.141  20.194   0.957
86403W        W47934  19.085   4.350  13.441
86404W        W47935  38.888  12.359   1.334
86405W        W47936  33.446  34.466   2.888
86406W        W47937  38.412  18.733  14.393
86407W        W47938  15.596  33.975   0.893
86408W        W47939  10.678  34.977   0.814
86409W        W47940  42.405   6.854   1.699
86410W        W47941   6.209  16.692  11.930
86411W        W47942  41.958  24.152  13.039
86412W        W47943  18.775  10.657   1.905
86413W        W47944   4.802  13.109   0.359
86414W        W47945  30.120  28.581  11.040
86415W        W47946   6.914  13.663  12.025
86416W        W47947  34.493  24.662   2.184
86417W        W47948  14.619   1.854   3.280
86418W        W47949  21.242   9.244   4.167
86419W        W47950  17.284   3.369  14.322
86420W        W47951  24.644   3.910   3.251
86421W        W47952  32.030  36.999  12.877
86422W        W47953  36.454  44.926  12.025
86423W        W47954  40.344   2.847   2.892
86424W        W47955   2.951  36.938   0.778
86425W        W47956   6.830   2.249  12.383
86426W        W47957  24.137  40.399  12.877
86427W        W47958  22.658   8.887   3.289
86428W        W47959  17.296  22.581   0.287
86429W        W47960  10.256  17.761   3.667
86430W        W47961  29.446   2.894   3.232
86431W        W47962  35.962  29.143  11.102
86432W        W47963  30.557  29.063   2.259
86433W        W47964  41.986   9.692  11.543
86434W        W47965   8.815  21.656  11.906
86435W        W47966  37.050  12.709  14.293
86436W        W47967   9.281  40.876  12.904
86437W        W47968  11.804  17.080   0.460
86438W        W47969   3.902  42.948   3.277
86439W        W47970  38.477  37.451   4.762
86440W        W47971  36.948   5.414  11.092
86441W        W47972  40.422   2.324  11.086
86442W        W47973  30.054  37.973   2.298
86443W        W47974  42.335  16.267   3.160
86444W        W47975   1.755   1.916   0.442
86445W        W47976  42.384  44.839   4.147
86446W        W47977  14.663  31.996  13.998
86447W        W47978  12.218   9.279   3.189
86448W        W47979  19.236  21.170  14.790
86449W        W47980  33.031  28.479  12.988
86450W        W47981  20.078  21.226   4.649
86451W        W47982  34.525   0.950   4.182
86452W        W47983  12.737  25.507  11.958
86453W        W47984   1.346   6.282   2.314
86454W        W47985  12.338  35.570  11.561
86455W        W47986  13.148  29.633   5.138
86456W        W47987  32.968  12.119   2.756
86457W        W47988  36.500  13.250  10.471
86458W        W47989   8.394  20.714  14.963
86459W        W47990  44.798   4.236  11.404
86460W        W47991  17.245  14.291  13.500
86461W        W47992  32.398   8.288  11.569
86462W        W47993  14.123   4.790  12.474
86463W        W47994   3.883  36.492  12.940
86464W        W47995   0.856   0.438  13.976
86465W        W47996   7.683  15.632   1.836
86466W        W47997  12.257  24.115  11.595
86467W        W47998  29.172  35.918  13.025
86468W        W47999  43.397  34.987  13.978
86469W        W48000   1.326   1.837  13.434
86470W        W48001  26.152  38.433   1.247
86471W        W48002  21.190  21.570  13.967
86472W        W48003  12.751  41.347   2.696
86473W        W48004  13.299  12.275  12.509
86474W        W48005  20.130   3.919   2.400
86475W        W48006  33.082  39.422   1.280
86476W        W48007  38.072  30.067   1.269
86477W        W48008  25.081  15.182  14.871
86478W        W48009  12.795  30.655  12.046
86479W        W48010   4.255  28.506  14.958
86480W        W48011  14.265  15.659   0.887
86481W        W48012  27.049  41.847  12.564
86482W        W48013  36.484  18.162   3.249
86483W        W48014  10.342  11.137  14.922
86484W        W48015  43.333   3.444  11.906
86485W        W48016  15.695  33.091   2.752
86486W        W48017  29.497  28.645   0.291
86487W        W48018  36.928  31.591   3.364
86488W        W48019  35.540  43.996   2.719
86489W        W48020  21.252  30.513  14.460
86490W        W48021  14.264  31.438  13.486
86491W        W48022   9.699   9.206  12.877
86492W        W48023  37.540   8.222   0.784
86493W        W48024  21.552  19.771  13.018
86494W        W48025  28.476  31.457  14.889
86495W        W48026  35.585  20.531  14.508
86496W        W48027   9.254  43.496  14.328
86497W        W48028  40.478  43.009   5.260
86498W        W48029  34.985  10.862   2.327
86499W        W48030   4.917  23.035   4.205
86500W        W48031  26.549  19.093  13.320
86501W        W48032  38.487  23.721  13.443
86502W        W48033   8.334  35.918   3.839
86503W        W48034  27.138  40.506  12.938
86504W        W48035  32.401  30.618   1.423
86505W        W48036  16.651  37.972   4.806
86506W        W48037  27.519   4.847   4.726
86507W        W48038  28.463  37.505  12.042
86508W        W48039  15.795  27.626   1.360
86509W        W48040  17.062  22.704   0.799
86510W        W48041  33.398  30.607  14.781
86511W        W48042  44.764  28.678   3.731
86512W        W48043  38.503   4.259   0.392
86513W        W48044   6.733  27.186   2.863
86514W        W48045  28.471  38.455  12.846
86515W        W48046   4.708   8.704   2.890
86516W        W48047  14.286  23.075   3.685
86517W        W48048  38.959  10.286  14.310
86518W        W48049  22.028  42.030   3.741
86519W        W48050  33.076   3.943   0.388
86520W        W48051  37.078  24.194   3.762
86521W        W48052  31.938   1.893   4.760
86522W        W48053  44.005   9.753  14.410
86523W        W48054  10.645   6.311   4.172
86524W        W48055   5.285  18.611  11.513
86525W        W48056  18.732  30.463   5.134
86526W        W48057   4.928  43.843   0.760
86527W        W48058  40.801  44.371   2.671
86528W        W48059  40.026  41.537  10.413
86529W        W48060  15.270   3.887   1.314
86530W        W48061  39.962  30.643  11.568
86531W        W48062  21.245  24.706  12.947
86532W        W48063  36.528  29.495   5.185
86533W        W48064  25.475  41.943   3.751
86534W        W48065  40.832   7.239   3.300
86535W        W48066  34.568  41.802   3.386
86536W        W48067  38.976   3.272  10.527
86537W        W48068  41.377  22.717   3.356
86538W        W48069   8.745  11.218  11.049
86539W        W48070  42.307  30.614   3.792
86540W        W48071  15.604  21.026   3.639
86541W        W48072  34.517  19.081   0.411
86542W        W48073   6.381  16.667  10.911
86543W        W48074  24.608   5.348  10.968
86544W        W48075  33.944  39.060   0.271
86545W        W48076  32.577   8.708  14.807
86546W        W48077  19.662  28.157   2.399
86547W        W48078  13.195  29.448   1.239
86548W        W48079  33.537  36.009   3.640
86549W        W48080  38.927  30.577  12.927
86550W        W48081  29.660  30.485   4.813
86551W        W48082   8.767  43.937  14.449
86552W        W48083  28.162  10.384  13.804
86553W        W48084  13.168   5.321   1.816
86554W        W48085  27.947  17.113  14.342
86555W        W48086   4.218  38.931  12.048
86556W        W48087   1.767   2.938  11.422
86557W        W48088  13.231  44.816  10.995
86558W        W48089  33.596  20.720   3.379
86559W        W48090   5.919  38.868   4.656
86560W        W48091  35.975  33.430   4.603
86561W        W48092  33.972  17.570   0.798
86562W        W48093  17.587   8.216  14.402
86563W        W48094  35.417  44.805   3.281
86564W        W48095  13.149  42.426  12.024
86565W        W48096   0.926  25.633  12.973
86566W        W48097  17.197   6.841   3.330
86567W        W48098  21.716  27.525  11.378
86568W        W48099   2.442  15.256   4.246
86569W        W48100  36.089  38.564   3.728
86570W        W48101  27.001  34.084  13.314
86571W        W48102   3.797  17.737  12.094
86572W        W48103   6.243  31.427  12.504
86573W        W48104  21.622  12.850   2.692
86574W        W48105  12.246  11.246  13.814
86575W        W48106  25.089  20.131   4.246
86576W        W48107   7.393  14.730  10.928
86577W        W48108  22.036   4.919   4.281
86578W        W48109   3.454  22.063   3.304
86579W        W48110   3.239  32.095   4.189
86580W        W48111  33.040  10.180   1.809
86581W        W48112  44.772  16.244  14.811
86582W        W48113  34.371   0.305  12.889
86583W        W48114  34.499   4.419   4.124
86584W        W48115  17.775  29.661   2.226
86585W        W48116   0.248  24.098   2.788
86586W        W48117  24.577  35.559  10.621
86587W        W48118   5.831  31.074   3.645
86588W        W48119  39.939  41.526   2.673
86589W        W48120  27.501  31.038  11.002
86590W        W48121  29.606   7.358  14.935
86591W        W48122   1.263  14.650   3.641
86592W        W48123  34.903  27.510   0.255
86593W        W48124  31.412  32.562  13.515
86594W        W48125  23.634  36.412   2.903
86595W        W48126   9.765  20.028   1.271
86596W        W48127  33.977   6.776   0.425
86597W        W48128  37.890  30.586  13.385
86598W        W48129  43.426  33.960  14.950
86599W        W48130  38.395  13.210  11.929
86600W        W48131  11.308  36.090  11.521
86601W        W48132  35.432  17.233  13.864
86602W        W48133  32.635  19.568   2.668
86603W        W48134  12.344  35.037  11.536
86604W        W48135   6.684  37.525   3.314
86605W        W48136  11.128  32.102   4.275
86606W        W48137  10.753  29.071   0.951
86607W        W48138   9.826  13.833  11.917
86608W        W48139  34.891  36.928  11.407
86609W        W48140   9.880  10.166   0.774
86610W        W48141  16.140   4.311  14.864
86611W        W48142  31.549  23.187  10.917
86612W        W48143  43.359  33.945   4.154
86613W        W48144  36.458  36.570   1.319
86614W        W48145  12.246  42.355  11.110
86615W        W48146  43.387  10.229   3.214
86616W        W48147  31.075  12.133   2.204
86617W        W48148   5.732  19.249  14.828
86618W        W48149  20.147  39.383  14.870
86619W        W48150  13.285   2.762   3.695
86620W        W48151  24.094  19.761   1.881
86621W        W48152  22.251   0.749  12.986
86622W        W48153  13.229  28.012  13.344
86623W        W48154  16.199  19.229  14.920
86624W        W48155  41.839  39.857  14.837
86625W        W48156  17.671  10.852  11.998
86626W        W48157  13.216  42.909  13.504
86627W        W48158  27.527  39.020  12.342
86628W        W48159  35.546  10.234  12.541
86629W        W48160  20.700  22.743   0.879
86630W        W48161  18.560  41.394   4.789
86631W        W48162  10.372  35.031  10.497
86632W        W48163  44.854  13.638   0.808
86633W        W48164   9.171  33.575   2.240
86634W        W48165  26.114   5.236  12.976
86635W        W48166   1.276  44.311   3.676
86636W        W48167  10.750   8.250   0.391
86637W        W48168  12.347  20.744   0.944
86638W        W48169  20.673   8.321  11.577
86639W        W48170  13.176  44.460   9.952
86640W        W48171  44.938  37.938   2.322
86641W        W48172  44.812  44.356  12.542
86642W        W48173   9.367  35.928   4.728
86643W        W48174  26.994  20.053  10.968
86644W        W48175  34.027  26.170   1.231
86645W        W48176   2.275   0.793  11.120
86646W        W48177  26.146  19.533   1.315
86647W        W48178  29.978   5.926   2.716
86648W        W48179  36.485   1.951   9.990
86649W        W48180  15.743  10.679   1.816
86650W        W48181  10.185  17.587  12.079
86651W        W48182  20.029  26.101  14.867
86652W        W48183  14.109  12.637   0.882
86653W        W48184  20.646   8.877   0.906
86654W        W48185  22.039  23.513   0.410
86655W        W48186   7.402   6.320   2.863
86656W        W48187  44.349  37.367  14.836
86657W        W48188  32.113  19.065   0.944
86658W        W48189  41.920  33.476   3.632
86659W        W48190  34.445  32.580   2.887
86660W        W48191  31.903  36.513   4.193
86661W        W48192  19.093  36.945   5.094
86662W        W48193   0.917  24.593   1.766
86663W        W48194   2.941  30.976  10.928
86664W        W48195   3.924  16.607  12.857
86665W        W48196  10.690  39.534   4.808
86666W        W48197   4.376  33.494  10.894
86667W        W48198  31.111  31.513   2.855
86668W        W48199   1.877  20.117   0.411
86669W        W48200  18.702  18.553   0.761
86670W        W48201  36.994  26.182  12.460
86671W        W48202   7.218  28.485   1.317
86672W        W48203  27.515  17.215  13.026
86673W        W48204  29.163  28.519  10.916
86674W        W48205  30.462  38.457  14.303
86675W        W48206  43.898   9.385   3.315
86676W        W48207   9.296  22.229   1.349
86677W        W48208  34.569  32.633  14.944
86678W        W48209  18.586  31.966   0.842
86679W        W48210  19.592   3.428  10.625
86680W        W48211  25.684  41.375  12.427
86681W        W48212   0.896  19.092   0.303
86682W        W48213   0.905  28.185   4.311
86683W        W48214  40.018  10.701  12.451
86684W        W48215  37.052  37.377  13.447
86685W        W48216  36.533  43.433  12.876
86686W        W48217  19.080  18.112  10.549
86687W        W48218  44.875  11.166  10.565
86688W        W48219  12.630  43.914   0.393
86689W        W48220  11.368  15.608   2.209
86690W        W48221  35.093  40.840  12.827
86691W        W48222  43.279  33.009   1.308
86692W        W48223   7.781  34.933  14.467
86693W        W48224   4.427  33.909   2.234
86694W        W48225  11.204  31.578  11.883
86695W        W48226  25.069  40.385   3.336
86696W        W48227  31.424   1.457  13.444
86697W        W48228  38.936   5.777  14.895
86698W        W48229  29.001  13.669   0.268
86699W        W48230  43.452  22.105  11.016
86700W        W48231  13.148  27.662   1.888
86701W        W48232  13.736  27.595  12.951
86702W        W48233   5.394  32.586   4.619
86703W        W48234  18.684  22.122   0.478
86704W        W48235  13.301  20.721   0.789
86705W        W48236   5.812  30.558  14.005
86706W        W48237  13.221  23.093  14.275
86707W        W48238  16.185  17.765  12.965
86708W        W48239  41.959  11.194   3.715
86709W        W48240  14.329  24.148   0.912
86710W        W48241   2.464  40.332   2.414
86711W        W48242  19.266  24.057   3.189
86712W        W48243  24.036   1.936   3.647
86713W        W48244   0.773  30.105  13.837
86714W        W48245  34.530  42.884   2.760
86715W        W48246   7.204  38.386   2.726
86716W        W48247  18.173   0.913  11.104
86717W        W48248  14.732  28.635  13.017
86718W        W48249  18.695  21.668   0.287
86719W        W48250  21.531  14.103   0.378
86720W        W48251  31.477  18.202   3.302
86721W        W48252  44.461  31.062   0.369
86722W        W48253   1.440  23.223  13.493
86723W        W48254  17.081  42.002   3.276
86724W        W48255  37.947  32.064   0.401
86725W        W48256  28.681  12.125  14.935
86726W        W48257  29.520  23.069  11.060
86727W        W48258  35.548  36.916  11.065
86728W        W48259  23.078   8.170  14.830
86729W        W48260   6.326  16.587   2.681
86730W        W48261  18.653  42.878   0.404
86731W        W48262  24.154  40.528  13.317
86732W        W48263   7.861  37.494  14.504
86733W        W48264  22.199  40.312   5.601
86734W        W48265  39.380  19.085  12.069
86735W        W48266  38.017  12.655   9.460
86736W        W48267  43.423  29.482  13.887
86737W        W48268  16.217  30.600   0.895
86738W        W48269   9.778   3.804  13.381
86739W        W48270   4.366  29.658   1.751
86740W        W48271  27.957  32.558   2.180
86741W        W48272  41.436  28.087  13.540
86742W        W48273  22.232   1.820  11.547
86743W        W48274   0.777  44.307   4.247
86744W        W48275  38.936  25.018  14.991
86745W        W48276  26.522  37.429  10.581
86746W        W48277  25.056  25.539  12.913
86747W        W48278   2.893  31.029  10.471
86748W        W48279   8.774  20.542  10.597
86749W        W48280  44.368  12.337   2.871
86750W        W48281  43.315  14.175  12.057
86751W        W48282  19.537  21.646  14.313
86752W        W48283  36.365   9.662   2.187
86753W        W48284   5.894  29.488  11.426
86754W        W48285  23.559   9.313   0.393
86755W        W48286  13.600  42.427   1.763
86756W        W48287  25.489  22.615  14.478
86757W        W48288  32.418   9.324   2.383
86758W        W48289  10.749  38.386  10.629
86759W        W48290  36.003  35.441   4.210
86760W        W48291  43.845  12.769   1.357
86761W        W48292  16.685  27.595  12.502
86762W        W48293  44.948  33.119  11.984
86763W        W48294  37.885   2.848   4.208
86764W        W48295  11.155  22.160   1.399
86765W        W48296  30.104  26.469  11.122
86766W        W48297  13.291  42.856   2.332
86767W        W48298   7.323   1.473  14.314
86768W        W48299   3.854  15.148  13.475
86769W        W48300  10.144  11.274   3.158
86770W        W48301  21.670  31.552   2.750
86771W        W48302  28.500  37.971  10.912
86772W        W48303  23.129  42.475   3.788
86773W        W48304   4.384  34.971  13.988
86774W        W48305  26.687  14.743  12.367
86775W        W48306   8.298   1.237   4.119
86776W        W48307   0.793  16.300  14.998
86777W        W48308  15.154  43.302   4.243
86778W        W48309  33.878  13.663  10.535
86779W        W48310  13.692  34.048  14.467
86780W        W48311  31.078  25.064   3.286
86781W        W48312  23.072  39.316  13.962
86782W        W48313  27.038  42.967  10.526
86783W        W48314  18.565   1.749   0.850
86784W        W48315  16.684  16.700   2.810
86785W        W48316  31.095  35.513  13.337
86786W        W48317  11.696  41.885  13.029
86787W        W48318  12.208  31.498   3.354
86788W        W48319   7.695  36.096  11.931
86789W        W48320  30.986  22.574  10.051
86790W        W48321  37.355  20.258   1.331
86791W        W48322  14.594  39.371  13.972
86792W        W48323  19.083   4.420   0.869
86793W        W48324   3.270  41.846   0.871
86794W        W48325  13.815  12.726  14.419
86795W        W48326   1.358  19.091   1.700
86796W        W48327  31.462  17.574  11.428
86797W        W48328   6.319  12.226   2.816
86798W        W48329  21.230  22.220  11.095
86799W        W48330  42.877   8.809  11.507
86800W        W48331   1.839  43.906   3.362
86801W        W48332  34.576   9.804  14.017
86802W        W48333  14.620  21.151  12.376
86803W        W48334   7.829   3.722   0.945
86804W        W48335  42.459  29.922   0.441
86805W        W48336  22.606  27.943  14.458
86806W        W48337  33.035  10.366   4.694
86807W        W48338  24.609  31.610  10.900
86808W        W48339  26.150  38.470   4.810
86809W        W48340  32.449  16.792  14.821
86810W        W48341  13.618  10.330  12.361
86811W        W48342   3.238   5.232  10.451
86812W        W48343  10.273  37.441  10.122
86813W        W48344  29.014  31.948   0.315
86814W        W48345   2.410  13.787   4.217
86815W        W48346  35.985  36.429   2.340
86816W        W48347  13.322  15.662   4.778
86817W        W48348   5.767  28.174  12.469
86818W        W48349  34.526  30.982  13.902
86819W        W48350  27.584  36.465   2.666
86820W        W48351  39.053  20.740  14.428
86821W        W48352  17.791  14.252  10.921
86822W        W48353   1.375  25.594   5.289
86823W        W48354  40.879   7.387  13.005
86824W        W48355   9.769  41.887  13.963
86825W        W48356  36.565  19.213   4.600
86826W        W48357  40.830   5.850  10.464
86827W        W48358  16.572  43.329  13.877
86828W        W48359  29.609   3.886   0.260
86829W        W48360  24.649  11.818   3.297
86830W        W48361  43.932  36.046   2.682
86831W        W48362  10.834  32.919   3.757
86832W        W48363  18.613  16.719   4.786
86833W        W48364   0.961  28.040  10.632
86834W        W48365  41.879   3.358   9.943
86835W        W48366  11.840   8.179  14.808
86836W        W48367  12.618  23.523   3.653
86837W        W48368  17.109  41.802   4.803
86838W        W48369  21.054  15.757  10.576
86839W        W48370  21.199  33.008  13.379
86840W        W48371  41.833   6.192   1.795
86841W        W48372  26.684  43.795   0.891
86842W        W48373   2.765   7.207   1.280
86843W        W48374   5.808  24.637   1.244
86844W        W48375  17.720  10.157  13.822
86845W        W48376  40.049  21.705   0.846
86846W        W48377   7.877  39.993  12.421
86847W        W48378  14.834  10.339   1.770
86848W        W48379   2.316  31.584   2.744
86849W        W48380  28.029  12.647  12.486
86850W        W48381  37.533  33.932   4.206
86851W        W48382  16.675  27.606  14.408
86852W        W48383  35.569   0.977   1.356
86853W        W48384   6.747  32.978  13.002
86854W        W48385   8.201  38.963   1.836
86855W        W48386  20.585  34.071   0.243
86856W        W48387  33.119   7.373  10.586
86857W        W48388  33.877  32.542   3.343
86858W        W48389  43.481  22.214   3.214
86859W        W48390  36.387  39.436   0.463
86860W        W48391   9.221   4.321   0.479
86861W        W48392  31.074  18.077   3.366
86862W        W48393  25.540   2.758   2.222
86863W        W48394  42.790   3.816   3.267
86864W        W48395  33.052   8.366  13.838
86865W        W48396   9.363  13.619  12.075
86866W        W48397  35.370  27.016  12.004
86867W        W48398   5.705  30.060  12.402
86868W        W48399  36.528  32.412   3.720
86869W        W48400   8.236   8.850  11.447
86870W        W48401  16.140  36.375   1.433
86871W        W48402  43.916  25.587   0.458
86872W        W48403   5.725   7.890  12.875
86873W        W48404  34.091  23.159   0.856
86874W        W48405  21.566  30.953   3.790
86875W        W48406  21.701  37.028  10.072
86876W        W48407  21.515  31.508  13.333
86877W        W48408  24.201  30.578  13.922
86878W        W48409  17.687  39.439   3.240
86879W        W48410   1.871   8.388   2.416
86880W        W48411  14.157  11.766   1.923
86881W        W48412   6.349  33.993  13.796
86882W        W48413  42.789  38.416   1.268
86883W        W48414  34.878  17.307   3.232
86884W        W48415   2.262  12.332  10.569
86885W        W48416   9.209  21.131   4.639
86886W        W48417  23.013  42.433  13.858
86887W        W48418   8.199  43.890  14.504
86888W        W48419  21.195  19.610   4.614
86889W        W48420  37.427  40.860  10.949
86890W        W48421  29.123  10.869   0.374
86891W        W48422  17.634   4.367  13.433
86892W        W48423  16.132  34.868   1.210
86893W        W48424  17.290  39.059  12.000
86894W        W48425  12.291  36.058  11.424
86895W        W48426  29.535  38.511  13.056
86896W        W48427  27.680  36.402   3.360
86897W        W48428  12.797  35.583   1.272
86898W        W48429   6.206  14.265  10.554
86899W        W48430  10.193  19.061   3.685
86900W        W48431  38.827   7.364  12.014
86901W        W48432  40.894  32.637  13.374
86902W        W48433   4.834  31.913   1.361
86903W        W48434  18.227  35.938   3.350
86904W        W48435   6.915  23.504   4.272
86905W        W48436  40.044  31.932   3.727
86906W        W48437  36.001  22.228   0.442
86907W        W48438  36.039  10.657   0.422
86908W        W48439  26.100   4.447   2.732
86909W        W48440  38.961   2.445   1.849
86910W        W48441  22.537   2.750  14.477
86911W        W48442   7.766  25.642   4.673
86912W        W48443  27.024  10.770   4.122
86913W        W48444  40.846   7.905   4.737
86914W        W48445  14.698  31.460  11.384
86915W        W48446  27.062  31.899  14.508
86916W        W48447  26.127  22.080  13.064
86917W        W48448  26.089  26.135   0.309
86918W        W48449  10.739  35.503   3.748
86919W        W48450  42.451  15.170  13.522
86920W        W48451  18.642  14.717  13.532
86921W        W48452   7.733  10.829  14.813
86922W        W48453   0.384  35.874   1.778
86923W        W48454  15.750  43.276  10.441
86924W        W48455  43.915  14.268  13.332
86925W        W48456  35.979   0.277  14.784
86926W        W48457   1.873  43.443  10.528
86927W        W48458  21.066  37.372   1.385
86928W        W48459  27.946  19.069  12.362
86929W        W48460   1.819  33.507   4.700
86930W        W48461  12.693  31.473   3.283
86931W        W48462  29.053  29.955   1.307
86932W        W48463  40.375  13.680   2.768
86933W        W48464  25.626  18.620  12.564
86934W        W48465  35.421  36.434   5.680
86935W        W48466  24.033  32.038   4.730
86936W        W48467  18.581  15.668   0.790
86937W        W48468   6.715   8.394  12.877
86938W        W48469  22.501  18.140   3.327
86939W        W48470  39.849  25.512  11.965
86940W        W48471  15.809  37.838   0.464
86941W        W48472   2.387   2.304   0.332
86942W        W48473  10.681  18.086   1.809
86943W        W48474  29.074  17.149  13.328
86944W        W48475  15.250   1.913  13.314
86945W        W48476  40.451  31.983   0.441
86946W        W48477   2.906   4.792   1.276
86947W        W48478   4.723  43.957   2.728
86948W        W48479   0.274  12.756  11.540
86949W        W48480  18.055  40.326   3.285
86950W        W48481  34.965  42.498   0.436
86951W        W48482  17.703   0.462   2.385
86952W        W48483  31.470  34.979  13.488
86953W        W48484  15.580   0.349  11.599
86954W        W48485  20.619  42.975   2.901
86955W        W48486  35.936  10.261   1.430
86956W        W48487   1.472  36.356  13.323
86957W        W48488   4.775   1.824  10.619
86958W        W48489  14.303  26.024  14.357
86959W        W48490  28.616  10.361  13.400
86960W        W48491  42.850  15.289   1.435
86961W        W48492   2.329  27.531  14.821
86962W        W48493  16.214  32.024   3.184
86963W        W48494  30.428  25.110   0.756
86964W        W48495  18.692  17.159   1.850
86965W        W48496  11.800   2.837  11.564
86966W        W48497  44.816  10.854   0.884
86967W        W48498   0.766  34.461  10.539
86968W        W48499  35.544  32.453  14.307
86969W        W48500  27.548   9.332  14.874
86970W        W48501   0.417  24.573   5.590
86971W        W48502  37.863  31.957  12.418
86972W        W48503   7.345  16.738   0.900
86973W        W48504  40.467   3.780   2.820
86974W        W48505  33.394  16.809  13.354
86975W        W48506  43.507  11.815   0.397
86976W        W48507  11.199  19.689   2.194
86977W        W48508  22.651  35.084   4.309
86978W        W48509  40.376  20.141  10.918
86979W        W48510  29.026  36.919   0.471
86980W        W48511   7.203  19.129   4.299
86981W        W48512  10.276  44.920   1.864
86982W        W48513  37.859  24.617  12.078
86983W        W48514  15.145  42.924   2.863
86984W        W48515  17.236  33.001  11.541
86985W        W48516   2.312  29.642  12.495
86986W        W48517  29.979   6.793  14.854
86987W        W48518   9.854   4.858  14.472
86988W        W48519  34.874   5.865   3.681
86989W        W48520  31.080  28.096   2.259
86990W        W48521  13.273  41.445   4.352
86991W        W48522  37.952  33.392  10.609
86992W        W48523  20.073  18.624   0.966
86993W        W48524   1.308   2.232  11.473
86994W        W48525   9.743  38.963  14.510
86995W        W48526   5.724  34.959  14.394
86996W        W48527  19.266  38.867   0.274
86997W        W48528  21.176  16.587  14.996
86998W        W48529  32.525   9.294  11.492
86999W        W48530  43.387  32.942  10.995
87000W        W48531  42.498  31.140   1.869
87001W        W48532  13.222  29.074   1.294
87002W        W48533  16.719  34.606  13.345
87003W        W48534   3.718   2.314  13.459
87004W        W48535  17.574  20.640   0.285
87005W        W48536   0.909  21.232   3.185
87006W        W48537  29.113  18.131   3.859
87007W        W48538   4.322  40.860   1.761
87008W        W48539  37.832  43.851  12.038
87009W        W48540  32.007   7.402  12.390
87010W        W48541  16.610   7.219  12.010
87011W        W48542  43.513   5.222  11.011
87012W        W48543  13.627  16.681  14.876
87013W        W48544  37.992  18.200   3.698
87014W        W48545  16.574  20.728  14.365
87015W        W48546  13.292   8.827   2.689
87016W        W48547  27.130  25.114  14.901
87017W        W48548  42.290  41.837   3.751
87018W        W48549  43.797  29.574   3.147
87019W        W48550  38.433  41.939  14.015
87020W        W48551   8.358   4.754  13.796
87021W        W48552   9.868   9.251   4.783
87022W        W48553   7.324  37.480  11.923
87023W        W48554   5.900  32.482   2.871
87024W        W48555  23.659  34.510  14.412
87025W        W48556  40.952  25.521   4.692
87026W        W48557  34.067  24.075   0.780
87027W        W48558  16.758  11.840   0.885
87028W        W48559   8.302  35.854  14.277
87029W        W48560   5.843  38.478   2.817
87030W        W48561  18.605  40.546  11.395
87031W        W48562   6.922  31.014   0.836
87032W        W48563  32.092   6.799  13.435
87033W        W48564  10.854  43.778  12.465
87034W        W48565  28.010  44.797  13.915
87035W        W48566   1.369  23.566   9.987
87036W        W48567  26.493  11.655   2.238
87037W        W48568  21.529  25.591  10.458
87038W        W48569   0.860  19.088   1.229
87039W        W48570  13.239  26.480  11.110
87040W        W48571  38.548   5.354  12.827
87041W        W48572  34.915   4.817  14.791
87042W        W48573  31.116  42.385  14.768
87043W        W48574  11.281  12.694   3.673
87044W        W48575  13.152  14.649  14.852
87045W        W48576  27.471  33.959  14.436
87046W        W48577   9.368  31.461   0.738
87047W        W48578  36.902  10.298  14.877
87048W        W48579  31.586  16.630   4.327
87049W        W48580  32.025  34.977   2.672
87050W        W48581  41.012  29.046   4.171
87051W        W48582  11.765   9.806   3.324
87052W        W48583  22.557  10.223   1.338
87053W        W48584  25.046  31.434   0.314
87054W        W48585  44.007  11.852  11.112
87055W        W48586  23.717  24.188   3.781
87056W        W48587  38.055  17.080  11.448
87057W        W48588  31.991  43.956  14.861
87058W        W48589  41.512  37.525  11.935
87059W        W48590  35.489   6.773   4.312
87060W        W48591  30.067   8.820  13.433
87061W        W48592  39.375  30.926   2.191
87062W        W48593  16.761  15.239  13.488
87063W        W48594  19.728  25.041   2.347
87064W        W48595  15.303   8.189  11.557
87065W        W48596  20.147  37.561  12.849
87066W        W48597  37.859  41.317   3.802
87067W        W48598  11.266  20.251  10.518
87068W        W48599  23.028  42.940  14.336
87069W        W48600  41.834   2.458   4.313
87070W        W48601  30.965  38.953  14.393
87071W        W48602  27.023  36.485   1.858
87072W        W48603  38.355   6.807  12.043
87073W        W48604  10.678   9.370   1.392
87074W        W48605  13.663   7.769  13.482
87075W        W48606  34.949  34.526   0.378
87076W        W48607  15.735   4.371  10.926
87077W        W48608  41.964  40.007  12.920
87078W        W48609  20.088  16.167  14.829
87079W        W48610  23.058   9.327  13.475
87080W        W48611  27.176  41.479  11.561
87081W        W48612  33.580  35.423   1.298
87082W        W48613   7.778  28.039  12.918
87083W        W48614  40.378  32.500   4.118
87084W        W48615  29.055  35.360  12.998
87085W        W48616   2.886  41.891   1.239
87086W        W48617   6.886  18.589   3.351
87087W        W48618   7.745  10.225   0.863
87088W        W48619  11.712   5.729   3.751
87089W        W48620   2.262  25.476   2.310
87090W        W48621  17.561  44.779  14.353
87091W        W48622  19.142   0.831   3.257
87092W        W48623  25.176   3.867   2.834
87093W        W48624  36.972  39.460   4.627
87094W        W48625  25.981   3.791   1.717
87095W        W48626  17.096  13.141  14.464
87096W        W48627   1.847  40.909   1.884
87097W        W48628  40.856   5.872  14.292
87098W        W48629  17.295  10.176  14.875
87099W        W48630  23.082  20.258   3.657
87100W        W48631  28.460  35.565  12.579
87101W        W48632  43.377  44.482  11.928
87102W        W48633  33.523   4.823  14.996
87103W        W48634  18.661  33.994  11.396
87104W        W48635   0.314  36.427   3.866
87105W        W48636  36.930  26.197   4.337
87106W        W48637  18.554  41.397  13.503
87107W        W48638  16.670  23.992   0.846
87108W        W48639  27.455   9.201   1.434
87109W        W48640   1.399  11.334   3.858
87110W        W48641  35.085   6.760  12.991
87111W        W48642  42.454  41.295  13.438
87112W        W48643   5.710  12.303   4.116
87113W        W48644  22.629  24.633  11.433
87114W        W48645   6.881  30.933   3.642
87115W        W48646  24.009  38.503   4.685
87116W        W48647  35.599  10.357   3.682
87117W        W48648  35.074  13.296  12.996
87118W        W48649  22.508  29.485  11.510
87119W        W48650  30.420   0.327   3.371
87120W        W48651  39.494  44.329   4.295
87121W        W48652  16.140  38.537   0.829
87122W        W48653  32.592   3.920  12.368
87123W        W48654  38.468  15.270   3.288
87124W        W48655  26.468   4.784  14.832
87125W        W48656  27.191  34.453   0.341
87126W        W48657   0.940   3.768  12.553
87127W        W48658  23.501  18.173  13.045
87128W        W48659  43.469  15.228   1.396
87129W        W48660  17.118  26.063   0.761
87130W        W48661  21.188  21.743   0.922
87131W        W48662   5.728  25.969   4.194
87132W        W48663  32.453  16.615  12.827
87133W        W48664  19.738   9.749  14.913
87134W        W48665  36.441  23.630  12.574
87135W        W48666  31.605  22.584  12.933
87136W        W48667  28.486  34.048   0.798
87137W        W48668  16.279  31.062   1.794
87138W        W48669  24.132   0.438  10.420
87139W        W48670  26.189  29.505  10.638
87140W        W48671  11.849   3.218   3.793
87141W        W48672  20.055  23.600   2.416
87142W        W48673   2.929  18.645  10.420
87143W        W48674  15.142  40.323   0.389
87144W        W48675  39.928  41.940   4.334
87145W        W48676   9.749   2.315   2.784
87146W        W48677   0.988  43.795  13.453
87147W        W48678  41.036  38.881   0.322
87148W        W48679  29.436   3.328   4.279
87149W        W48680  38.029  33.475   3.304
87150W        W48681  26.208  33.473  13.334
87151W        W48682  37.554   4.894  14.793
87152W        W48683  15.237  12.196   3.631
87153W        W48684  29.426  18.157   4.755
87154W        W48685  27.633  37.558  14.450
87155W        W48686  24.196  33.973   4.804
87156W        W48687   2.263  22.654  10.039
87157W        W48688  20.682  10.314   1.344
87158W        W48689   6.886  32.135   2.215
87159W        W48690  13.658  35.362   4.629
87160W        W48691  38.432  35.568   2.323
87161W        W48692   7.731  19.069  12.888
87162W        W48693   3.893  13.733  10.946
87163W        W48694  29.059  34.581   2.413
87164W        W48695  32.607  35.522   4.314
87165W        W48696  25.504   8.331  14.780
87166W        W48697  22.620  38.874  11.470
87167W        W48698  28.071  22.608   0.306
87168W        W48699  13.235  39.408  11.074
87169W        W48700   0.799  16.165   4.241
87170W        W48701  15.632  35.956  12.370
87171W        W48702  32.523  40.541   1.765
87172W        W48703  21.240  27.580  12.074
87173W        W48704  24.148  20.624   0.942
87174W        W48705   8.878  28.481  11.992
87175W        W48706  39.522  31.445  12.491
87176W        W48707   3.848   4.943   0.476
87177W        W48708   7.218  30.009   0.788
87178W        W48709  24.983  39.902  13.511
87179W        W48710  31.414  28.985  13.968
87180W        W48711  34.112  25.648  10.931
87181W        W48712   2.429   7.297  12.563
87182W        W48713  11.657  36.377   0.930
87183W        W48714  29.105  36.869  12.973
87184W        W48715   9.714   6.697  11.372
87185W        W48716  17.296  35.888  14.913
87186W        W48717  28.973  36.951   4.683
87187W        W48718   1.452  42.472   4.804
87188W        W48719  43.971  26.108  11.394
87189W        W48720  27.999  13.197  10.544
87190W        W48721  23.097  18.252   0.306
87191W        W48722   4.872  25.679   3.347
87192W        W48723   0.369  27.127   2.827
87193W        W48724  23.110  16.305  13.456
87194W        W48725  35.474  34.545  14.870
87195W        W48726   0.925  20.185  14.953
87196W        W48727   7.723   7.250  12.527
87197W        W48728  32.108  11.356  13.039
87198W        W48729  26.469  39.993   4.664
87199W        W48730  33.505  18.232  14.404
87200W        W48731  30.117  35.970  12.825
87201W        W48732  12.304  17.654  12.476
87202W        W48733   3.748   1.316   1.433
87203W        W48734  37.400  25.639   4.301
87204W        W48735  44.856   2.900   1.795
87205W        W48736   5.319   8.269   4.127
87206W        W48737  23.061   3.820  14.398
87207W        W48738  10.202  26.180  14.822
87208W        W48739  31.591   1.347   2.192
87209W        W48740  43.417  33.892   2.730
87210W        W48741  19.042   6.713  14.420
87211W        W48742  15.712  20.634  14.877
87212W        W48743   1.338  35.092  11.938
87213W        W48744  38.057  30.914  12.495
87214W        W48745   5.787  36.353   2.211
87215W        W48746   2.467   2.820   3.680
87216W        W48747  44.270   4.363   1.843
87217W        W48748   2.822   2.766  14.308
87218W        W48749  28.620   0.371   1.832
87219W        W48750  20.254  44.463   4.210
87220W        W48751  34.995  31.636   3.723
87221W        W48752   6.389   1.334   4.188
87222W        W48753  23.537  17.085  11.444
87223W        W48754  42.397   4.881   2.837
87224W        W48755  17.705   4.309  14.956
87225W        W48756   1.400  25.220   0.405
87226W        W48757  31.484  38.914   0.801
87227W        W48758  42.330  41.025   3.158
87228W        W48759   4.258  16.631   1.743
87229W        W48760  14.239  21.720   0.832
87230W        W48761  37.987  34.610  13.309
87231W        W48762   5.375  23.093   1.363
87232W        W48763   1.960  15.800  11.883
87233W        W48764  39.361  39.820   1.875
87234W        W48765  22.233  44.320  13.531
87235W        W48766  18.197   2.460   0.944
87236W        W48767  19.757  13.222  10.474
87237W        W48768  13.801  25.712   1.450
87238W        W48769  14.802  15.306  10.574
87239W        W48770   6.921  20.526  10.971
87240W        W48771   6.765  21.702   2.848
87241W        W48772  19.593  13.235   1.905
87242W        W48773  17.275  12.288   0.261
87243W        W48774  12.798  43.925   3.842
87244W        W48775   6.774  11.761  14.392
87245W        W48776  23.666  43.951  13.854
87246W        W48777  44.817  20.167   0.817
87247W        W48778  39.895   8.335   4.197
87248W        W48779   7.813  36.877  11.093
87249W        W48780  40.463  15.221   2.357
87250W        W48781  17.125  28.969  11.474
87251W        W48782  24.642   9.191   1.816
87252W        W48783  37.836   4.280  14.857
87253W        W48784   6.690  42.365   3.821
87254W        W48785  32.617  41.893   0.256
87255W        W48786   7.376  43.949  13.969
87256W        W48787  16.117  33.057  12.988
87257W        W48788   3.731  11.248   4.759
87258W        W48789  22.549  11.240  13.040
87259W        W48790  11.320  18.228   3.773
87260W        W48791  24.506  19.739  12.902
87261W        W48792  18.067  12.718  14.444
87262W        W48793  42.906  37.515  14.996
87263W        W48794  34.901  26.671  13.033
87264W        W48795  10.728  15.676  11.972
87265W        W48796  23.633  39.916   9.941
87266W        W48797   7.715  28.614  12.912
87267W        W48798   7.845  20.073   3.291
87268W        W48799   5.797  34.439   4.691
87269W        W48800  44.858  11.133  11.567
87270W        W48801   3.832  34.047  13.506
87271W        W48802   1.275  10.325  12.877
87272W        W48803  20.257   0.874  13.938
87273W        W48804  40.053  40.497   0.868
87274W        W48805  30.078  44.899   4.706
87275W        W48806  13.842  15.794  10.595
87276W        W48807  21.243   2.721   1.251
87277W        W48808  42.833  14.266   3.311
87278W        W48809  40.303  42.805  12.998
87279W        W48810  40.500  24.119  12.828
87280W        W48811  23.702  32.986   4.239
87281W        W48812  14.716  13.315  11.960
87282W        W48813  28.076  27.000   1.403
87283W        W48814  22.627  33.960  13.337
87284W        W48815  40.865  20.237  13.993
87285W        W48816   5.885  19.547   1.783
87286W        W48817  29.992  28.511  13.945
87287W        W48818  40.951   8.267  13.442
87288W        W48819  25.499  35.496   2.727
87289W        W48820  24.055  43.381  14.369
87290W        W48821  37.923  41.998  10.503
87291W        W48822  13.181  35.961  13.893
87292W        W48823  20.116  10.174   3.745
87293W        W48824   7.877  18.664  14.287
87294W        W48825  20.134   2.458   0.339
87295W        W48826  21.153   7.728  14.884
87296W        W48827  26.537  42.378  11.548
87297W        W48828  17.592   9.656   1.329
87298W        W48829  28.537  25.575  11.393
87299W        W48830  23.686  28.052   9.992
87300W        W48831  13.234  33.951  10.452
87301W        W48832  34.884  34.970   3.332
87302W        W48833  36.051  32.405  12.454
87303W        W48834  26.037  41.344   1.275
87304W        W48835  40.023   1.420  12.053
87305W        W48836  27.948  29.571   0.347
87306W        W48837   9.162  18.084  11.028
87307W        W48838  16.707  41.949   3.664
87308W        W48839   4.305  13.656   0.315
87309W        W48840  21.600  33.874  14.370
87310W        W48841  28.096  17.168   0.767
87311W        W48842  25.963   5.339   0.772
87312W        W48843   3.744  44.851   3.780
87313W        W48844   1.971   4.390  13.013
87314W        W48845  41.980  42.778   1.304
87315W        W48846  13.236  28.168  12.545
87316W        W48847  30.011   3.459  13.345
87317W        W48848  34.111  28.183  11.379
87318W        W48849  32.436  27.090   3.843
87319W        W48850  26.131  42.998  12.396
87320W        W48851   0.842  41.321   1.441
87321W        W48852  18.716  43.771   4.328
87322W        W48853   4.317  19.199   1.794
87323W        W48854   0.860  24.517  12.091
87324W        W48855  20.151  29.088  14.358
87325W        W48856  30.069  41.994   4.723
87326W        W48857  26.619  23.617  11.488
87327W        W48858   2.898  41.824   1.874
87328W        W48859  18.254  31.974   2.766
87329W        W48860   3.447  25.965  14.442
87330W        W48861  36.015  31.646   2.750
87331W        W48862   6.269  16.238   0.297
87332W        W48863  26.082  27.456   4.273
87333W        W48864  11.302   7.177   0.245
87334W        W48865  22.052  15.098  10.491
87335W        W48866  39.453  21.569  11.972
87336W        W48867  40.954   9.360  11.474
87337W        W48868  26.614  42.341  13.400
87338W        W48869  24.611  41.889   1.756
87339W        W48870   9.355  32.395  13.307
87340W        W48871  16.667   5.775   3.150
87341W        W48872  11.354  37.504  10.918
87342W        W48873  40.858  15.803  14.314
87343W        W48874  35.047  43.996  12.911
87344W        W48875  31.553  35.448  11.943
87345W        W48876  35.096  22.537  12.420
87346W        W48877  24.127  19.247  14.949
87347W        W48878  27.024   3.911  13.497
87348W        W48879  30.525  44.334   0.404
87349W        W48880  16.233   2.328   3.728
87350W        W48881  33.993  41.466   2.770
87351W        W48882  31.629  37.442  14.451
87352W        W48883  32.979   9.269  12.546
87353W        W48884  34.089   7.733  13.520
87354W        W48885  15.152   1.384   3.769
87355W        W48886  24.221   7.359   0.960
87356W        W48887  43.927  38.426   4.677
87357W        W48888  22.640  16.766  14.361
87358W        W48889  41.845  33.922   3.859
87359W        W48890  39.035  13.208  10.914
87360W        W48891   1.310   7.197  11.398
87361W        W48892  41.014  21.631  14.424
87362W        W48893   9.790  19.681  13.461
87363W        W48894  42.980   0.810   1.826
87364W        W48895  24.214  33.928  11.454
87365W        W48896   5.213  19.706  14.338
87366W        W48897  14.203  14.714   4.688
87367W        W48898  21.082  22.677   1.783
87368W        W48899  39.318   7.766  14.861
87369W        W48900  41.313   7.188  14.832
87370W        W48901  20.672  14.132  13.836
87371W        W48902  24.526  16.248  10.938
87372W        W48903  34.894  11.202  10.634
87373W        W48904  37.048  36.930   0.389
87374W        W48905   8.389   2.786   3.291
87375W        W48906  29.993  16.732  12.445
87376W        W48907   5.873  37.958   2.340
87377W        W48908  32.988   3.711  12.530
87378W        W48909   6.365  35.855   1.714
87379W        W48910   9.651  21.752   2.817
87380W        W48911  43.840  40.942  10.587
87381W        W48912   9.851  15.263   0.277
87382W        W48913  18.789  34.988   2.404
87383W        W48914  15.232   5.359  12.473
87384W        W48915   0.302  39.995   3.364
87385W        W48916   7.367   5.762   4.301
87386W        W48917   4.943  15.241  14.013
87387W        W48918  18.243  14.824  13.869
87388W        W48919  28.980  41.909   2.773
87389W        W48920  43.273   0.294   3.180
87390W        W48921  10.177   5.905   1.419
87391W        W48922  38.998  32.617   4.720
87392W        W48923  16.645  34.539   2.827
87393W        W48924  32.125  28.568  12.939
87394W        W48925  31.497  20.742   4.341
87395W        W48926  26.583  13.173   0.782
87396W        W48927   6.847  21.731   3.680
87397W        W48928  32.905  34.548   2.708
87398W        W48929  39.543  25.166  12.412
87399W        W48930  43.893  23.138  12.977
87400W        W48931  11.830  31.623   1.784
87401W        W48932  20.131  13.805  11.540
87402W        W48933  38.037  20.763  11.463
87403W        W48934  17.757  17.802  11.545
87404W        W48935  35.445   5.223   3.182
87405W        W48936  27.182  21.694   1.384
87406W        W48937  41.323  43.404   4.335
87407W        W48938  23.585  42.460  13.811
87408W        W48939  39.559  13.811   9.992
87409W        W48940  30.510  37.914  10.617
87410W        W48941  41.452  43.825   2.812
87411W        W48942  20.721  24.111   4.306
87412W        W48943  40.856  36.397   4.307
87413W        W48944   6.392  43.356   1.847
87414W        W48945  22.516   4.371  14.456
87415W        W48946  10.176  30.481  11.413
87416W        W48947  29.005  26.699  13.978
87417W        W48948  35.446  43.293   0.442
87418W        W48949  15.627   8.857  12.535
87419W        W48950  39.350  27.509   2.276
87420W        W48951   4.761  40.335   3.274
87421W        W48952   6.702  13.282   1.449
87422W        W48953  29.143   5.753  13.821
87423W        W48954  16.684  35.877   2.270
87424W        W48955  20.538  35.917   5.229
87425W        W48956  13.609  12.793   2.192
87426W        W48957  23.700  25.656  14.859
87427W        W48958  29.103  44.908   3.729
87428W        W48959   2.304  22.507  11.006
87429W        W48960  33.400  14.699  13.045
87430W        W48961  14.713  32.421  10.516
87431W        W48962  38.422   0.966  14.989
87432W        W48963  14.825  23.233   9.926
87433W        W48964  23.735   3.803  12.907
87434W        W48965  19.153  37.575   2.802
87435W        W48966  19.103  17.123  12.890
87436W        W48967  38.064  36.042   3.727
87437W        W48968   9.375   3.731   3.161
87438W        W48969  15.224  41.965  11.530
87439W        W48970   8.862  15.085  12.340
87440W        W48971   4.254  15.661   3.697
87441W        W48972  13.615   0.446  11.052
87442W        W48973   5.703  26.161  13.387
87443W        W48974   7.760   4.896  12.940
87444W        W48975  12.178  10.845   4.774
87445W        W48976   4.826  19.215  14.781
87446W        W48977  28.671  32.440   3.246
87447W        W48978   3.911  42.838  11.580
87448W        W48979  43.490   6.868   4.183
87449W        W48980   6.323  38.944   1.437
87450W        W48981  27.140  38.856  13.375
87451W        W48982  13.683  28.130  10.644
87452W        W48983  38.959  10.753  11.564
87453W        W48984   7.223   0.301   1.901
87454W        W48985  35.942   0.420   0.270
87455W        W48986  41.816  35.994  12.071
87456W        W48987  36.093  15.726   5.624
87457W        W48988  14.668  42.018  12.851
87458W        W48989  18.723  36.911  14.762
87459W        W48990  27.504  16.208   4.205
87460W        W48991  34.086  27.593  14.395
87461W        W48992  14.742  31.975   5.093
87462W        W48993  23.987   3.851   2.318
87463W        W48994  29.518  35.876   5.090
87464W        W48995  23.155  25.053  12.059
87465W        W48996   9.872   9.718   1.339
87466W        W48997  41.979  18.290  14.912
87467W        W48998  37.046  10.146   1.221
87468W        W48999   5.792   3.867  12.955
87469W        W49000  37.875  18.762   1.812
87470W        W49001  43.917  43.490  14.785
87471W        W49002   4.826  20.086   1.697
87472W        W49003   2.940   9.153   0.933
87473W        W49004  38.895  28.048  13.918
87474W        W49005  43.012   0.471  13.404
87475W        W49006  32.511  10.209  13.883
87476W        W49007  32.120   1.932  14.497
87477W        W49008  44.285  27.643  10.054
87478W        W49009   4.721   6.759  10.474
87479W        W49010  17.714  31.084  14.022
87480W        W49011  31.401  29.918  13.449
87481W        W49012  21.179  10.775  11.016
87482W        W49013  24.017  26.173   1.409
87483W        W49014  10.230  13.745   2.689
87484W        W49015   4.289  17.188   1.326
87485W        W49016  37.372   9.868   3.681
87486W        W49017  26.492  39.861   4.244
87487W        W49018  43.433  29.668  12.377
87488W        W49019  24.530  21.525  14.843
87489W        W49020  36.879  20.546   0.799
87490W        W49021  21.692   7.824  12.422
87491W        W49022  36.502  42.440  11.952
87492W        W49023  28.099  10.797   2.713
87493W        W49024  19.151   6.224   0.434
87494W        W49025  38.365  42.388  11.890
87495W        W49026  41.957   4.316   1.230
87496W        W49027   0.959   6.917   3.685
87497W        W49028  31.040   8.740  12.373
87498W        W49029  29.536  22.996  11.589
87499W        W49030  40.008  18.130  14.357
87500W        W49031  44.416  28.009   2.314
87501W        W49032  38.025  40.335  13.502
87502W        W49033  40.382  40.019  10.058
87503W        W49034  22.252  11.182   0.393
87504W        W49035  15.284  42.928   1.296
87505W        W49036  41.481  33.097  13.985
87506W        W49037  38.488  35.891  11.486
87507W        W49038  30.561  16.176  13.376
87508W        W49039   9.712  30.952   5.684
87509W        W49040  43.831   2.234   0.822
87510W        W49041   4.848  11.775  11.527
87511W        W49042   5.839  21.582  13.977
87512W        W49043  44.770  44.842  13.963
87513W        W49044  38.570  16.802  10.564
87514W        W49045   9.333   3.731  14.497
87515W        W49046  40.394  13.742  10.557
87516W        W49047  41.985  28.475   4.230
87517W        W49048  15.627  10.263  11.057
87518W        W49049  30.923  42.810  10.441
87519W        W49050  30.111   3.433  12.376
87520W        W49051   4.784   7.818   2.251
87521W        W49052  14.595  11.347   2.242
87522W        W49053  44.933   5.885   2.334
87523W        W49054  40.416  15.153  11.505
87524W        W49055  22.607   9.200  12.515
87525W        W49056  34.558  22.575  11.975
87526W        W49057  38.442   2.277  12.824
87527W        W49058  22.144  24.658   0.726
87528W        W49059  22.222  42.777  13.829
87529W        W49060  42.877  26.493  11.481
87530W        W49061   8.811  17.289   3.152
87531W        W49062  35.937  28.007   0.313
87532W        W49063  14.275  17.800  14.782
87533W        W49064  25.554   4.281   1.216
87534W        W49065  34.504  34.895   2.395
87535W        W49066  10.317  19.217   0.782
87536W        W49067  27.091  26.035  10.611
87537W        W49068   8.894  43.350   1.870
87538W        W49069   4.742   1.463   4.700
87539W        W49070   3.918  37.057  11.104
87540W        W49071  39.935   5.811  14.311
87541W        W49072  12.180  19.643   4.280
87542W        W49073  24.111  34.502   3.848
87543W        W49074  36.466  19.268   2.379
87544W        W49075  22.710  11.750  10.459
87545W        W49076  18.599  15.819   0.333
87546W        W49077  11.766  17.226  11.465
87547W        W49078  18.583   7.370  12.092
87548W        W49079   6.400   7.368   4.712
87549W        W49080  14.709  18.676  11.091
87550W        W49081  35.003  14.671   9.633
87551W        W49082  31.896  16.163   5.600
87552W        W49083  40.362  11.309  13.816
87553W        W49084   1.754   9.191  12.910
87554W        W49085  38.013  28.498   1.334
87555W        W49086  14.139  44.496   2.213
87556W        W49087  31.971  35.937  11.585
87557W        W49088  42.849  30.447   1.828
87558W        W49089  33.447  31.907   2.225
87559W        W49090  27.100  35.907   3.829
87560W        W49091  16.128  42.896  12.452
87561W        W49092  44.992  31.903  13.328
87562W        W49093  38.529  24.219   3.769
87563W        W49094   1.272  16.302  10.478
87564W        W49095  21.133  28.471  13.503
87565W        W49096  33.510  28.998   0.789
87566W        W49097   2.363  41.005   0.738
87567W        W49098  19.272  34.401  14.971
87568W        W49099   6.832  22.211   2.192
87569W        W49100  35.066   9.881   9.619
87570W        W49101  28.951   1.254   2.334
87571W        W49102  43.921  24.060  13.925
87572W        W49103  14.302   5.774  13.979
87573W        W49104  27.063  17.277   0.331
87574W        W49105  19.150  15.713  13.931
87575W        W49106  27.604   0.454   3.293
87576W        W49107   4.396  15.801   4.330
87577W        W49108  40.402   5.749   3.347
87578W        W49109  12.151  44.838  13.885
87579W        W49110  38.520   7.298   0.829
87580W        W49111  41.357  23.649   3.679
87581W        W49112  38.493   6.283   2.845
87582W        W49113  31.926  23.015  10.512
87583W        W49114  17.127  10.827  13.428
87584W        W49115  18.267  33.402  13.509
87585W        W49116   2.464  17.625  14.890
87586W        W49117  44.266  40.339  10.433
87587W        W49118  18.269  36.864   2.861
87588W        W49119  17.788  19.122  14.017
87589W        W49120   2.838  43.401   3.746
87590W        W49121  34.059  19.081  10.523
87591W        W49122  13.190  29.948  12.088
87592W        W49123  11.742  22.561  14.772
87593W        W49124   5.846  28.022   4.208
87594W        W49125  34.427  23.554  11.066
87595W        W49126  14.238  37.030  11.045
87596W        W49127   6.915   4.728  10.512
87597W        W49128  24.571  10.657   4.719
87598W        W49129  18.719  24.010   2.676
87599W        W49130  19.151  27.098  13.312
87600W        W49131   3.426   2.814   4.796
87601W        W49132  32.632  38.996   4.132
87602W        W49133  23.984  20.272   2.249
87603W        W49134  28.554  20.563  12.527
87604W        W49135  17.629  23.157   2.231
87605W        W49136  29.501  24.713  11.441
87606W        W49137  25.978   3.795  13.981
87607W        W49138  41.330   8.275  11.972
87608W        W49139  24.044  43.455  12.484
87609W        W49140  24.150   5.724  14.303
87610W        W49141  41.977  28.628   2.751
87611W        W49142  15.151  44.993  11.520
87612W        W49143  14.694   4.849  14.000
87613W        W49144  31.580  39.550   2.198
87614W        W49145   7.762  34.097   1.857
87615W        W49146  18.293  16.570  12.421
87616W        W49147  31.433  37.364  13.956
87617W        W49148  40.040  39.531  13.414
87618W        W49149   0.382  39.390  12.580
87619W        W49150  30.429  28.620  11.469
87620W        W49151  19.552   4.894   3.247
87621W        W49152   6.682  17.305  11.937
87622W        W49153  30.973  14.297  14.998
87623W        W49154   1.819   9.669   4.755
87624W        W49155  13.602  19.079   2.191
87625W        W49156  16.773  10.809   1.812
87626W        W49157   7.417  26.656  14.460
87627W        W49158   4.707   7.362  11.875
87628W        W49159  19.193  10.336   3.350
87629W        W49160   6.750   8.219   3.744
87630W        W49161  11.670  15.611  12.382
87631W        W49162  35.431  43.313   2.328
87632W        W49163  35.374  33.052  14.820
87633W        W49164  16.105  37.483   4.632
87634W        W49165   2.282  20.064  13.015
87635W        W49166   2.412  31.545  13.407
87636W        W49167  20.133  32.568   2.235
87637W        W49168  28.582   7.704  13.898
87638W        W49169  43.800  25.063   2.776
87639W        W49170   7.321   6.344  12.447
87640W        W49171  15.590  39.364   3.314
87641W        W49172   8.717  10.291  11.459
87642W        W49173  25.652   1.833  11.579
87643W        W49174   0.860  12.840   2.385
87644W        W49175   1.905  25.124   2.393
87645W        W49176  27.630  27.099   2.664
87646W        W49177  15.227  10.230  12.387
87647W        W49178  24.537   3.807   0.789
87648W        W49179  43.771  14.149   4.127
87649W        W49180  24.708  11.172  11.929
87650W        W49181  30.426  34.018  12.077
87651W        W49182  26.585  44.843  13.473
87652W        W49183  16.801  38.563  14.953
87653W        W49184  10.663  44.281   4.667
87654W        W49185  43.372  15.767  13.328
87655W        W49186  20.115  29.055   2.183
87656W        W49187  37.357  18.694  13.792
87657W        W49188   2.867   9.763  11.935
87658W        W49189  11.745  34.418  13.537
87659W        W49190  25.093  18.121   2.727
87660W        W49191   8.728  12.227   4.342
87661W        W49192   6.743   7.338  14.376
87662W        W49193  13.824  14.297   4.640
87663W        W49194  19.105  39.872  12.069
87664W        W49195  39.517  33.431  10.582
87665W        W49196  14.259  38.888   1.320
87666W        W49197   9.209  37.403   4.767
87667W        W49198   8.692  14.105  14.498
87668W        W49199  42.877  38.017  11.541
87669W        W49200  29.529  15.626   2.318
87670W        W49201  36.044   1.738   3.735
87671W        W49202  10.237  26.116   2.768
87672W        W49203  21.568  33.107  12.074
87673W        W49204  12.805   2.796   9.659
87674W        W49205   7.175  19.202  13.440
87675W        W49206  41.986   4.880  12.020
87676W        W49207  34.102   5.316   0.385
87677W        W49208  25.055   3.778   4.305
87678W        W49209   5.713  34.934   4.293
87679W        W49210  17.088  20.043  13.936
87680W        W49211  12.611   4.939  10.937
87681W        W49212  44.317  12.807   0.805
87682W        W49213  27.069  14.329  12.487
87683W        W49214  30.909   7.244  11.030
87684W        W49215   9.364  19.258  14.501
87685W        W49216  11.161  24.183   0.476
87686W        W49217   9.763  13.186  14.968
87687W        W49218  39.330  17.077  10.047
87688W        W49219  37.966  38.994  10.920
87689W        W49220  38.544  41.506   2.780
87690W        W49221   0.421  34.040   2.330
87691W        W49222  30.967  28.961   3.703
87692W        W49223  37.526  20.049  14.956
87693W        W49224  13.180   8.392   4.624
87694W        W49225  33.567  10.735   3.336
87695W        W49226   0.883  29.925   3.768
87696W        W49227  23.564  35.560   4.757
87697W        W49228  21.261  12.323  13.014
87698W        W49229  43.945  10.754  11.099
87699W        W49230  31.542  27.997  10.586
87700W        W49231   8.776   2.811  10.115
87701W        W49232  14.662  23.075  13.514
87702W        W49233  33.913  34.995  11.459
87703W        W49234  32.431  24.192  12.567
87704W        W49235  21.517  39.837   3.837
87705W        W49236   0.777  22.633  12.361
87706W        W49237  37.990  12.757  10.016
87707W        W49238  33.485   8.387  12.852
87708W        W49239  36.000  29.514   0.331
87709W        W49240  38.568  11.135  12.378
87710W        W49241   2.889  35.075  12.951
87711W        W49242  31.141  23.057   3.167
87712W        W49243  23.200  20.056  14.312
87713W        W49244  20.533  25.559   4.736
87714W        W49245  44.328  21.028   4.730
87715W        W49246  41.791   0.938   0.480
87716W        W49247  36.980  23.007   0.304
87717W        W49248   3.458  19.078  12.878
87718W        W49249  22.094  36.917  11.016
87719W        W49250  33.515  41.877   1.756
87720W        W49251   5.400   0.465  13.027
87721W        W49252   9.697  20.054   4.737
87722W        W49253  16.795  43.007   3.249
87723W        W49254   1.381  36.453   1.265
87724W        W49255  32.571   8.167   4.660
87725W        W49256  13.105  35.023  14.788
87726W        W49257  29.139   4.923   4.284
87727W        W49258  10.708  17.762  14.358
87728W        W49259  15.228  16.735  12.407
87729W        W49260   5.761  16.191   0.752
87730W        W49261  39.899  11.220   1.441
87731W        W49262  24.082  14.268   3.761
87732W        W49263  13.660  41.858  14.484
87733W        W49264  35.868  42.859   1.429
87734W        W49265  14.716  38.555   2.371
87735W        W49266  18.765   2.900   0.265
87736W        W49267   9.207  29.610  10.607
87737W        W49268  20.580  42.335   4.126
87738W        W49269  33.950  29.004   1.411
87739W        W49270  28.543  27.621  10.535
87740W        W49271  39.358  29.086  14.513
87741W        W49272  20.687   2.950   1.322
87742W        W49273  28.978  44.819   2.766
87743W        W49274  20.755  13.186  11.031
87744W        W49275  37.371  44.501  12.545
87745W        W49276   3.755  10.307   4.718
87746W        W49277   6.323  23.542  13.000
87747W        W49278  25.017  17.283   3.740
87748W        W49279  16.616  25.687  12.861
87749W        W49280   5.788  24.203  14.816
87750W        W49281  22.612  16.209   1.401
87751W        W49282  42.816  15.296   2.875
87752W        W49283  21.230  28.074   4.825
87753W        W49284  39.906   4.385  12.963
87754W        W49285  20.525  28.635   1.740
87755W        W49286  28.560   5.225  12.060
87756W        W49287   4.369  11.668  11.007
87757W        W49288  24.690   2.773  10.516
87758W        W49289  25.010  18.283  13.974
87759W        W49290  42.354  41.408   1.902
87760W        W49291  18.739  22.035  10.503
87761W        W49292  20.619  25.053  13.336
87762W        W49293   6.750  17.264  14.774
87763W        W49294  36.348  42.850   3.701
87764W        W49295   8.869  42.850   3.644
87765W        W49296  10.636  14.678  11.876
87766W        W49297  26.082  41.336   3.261
87767W        W49298   2.318  28.016  13.346
87768W        W49299  25.627  34.877  12.984
87769W        W49300  12.284  31.419  11.894
87770W        W49301  36.580   9.856   2.774
87771W        W49302  30.574  27.006   3.737
87772W        W49303  14.742  43.955   3.682
87773W        W49304  36.905   3.831   2.241
87774W        W49305  40.889  12.310   3.696
87775W        W49306  12.305  29.938  11.070
87776W        W49307  12.277  30.084  10.583
87777W        W49308  18.621  27.997   3.344
87778W        W49309  42.018  43.368   2.677
87779W        W49310   9.199  11.143   4.771
87780W        W49311  32.495   6.318   3.692
87781W        W49312  19.244  25.193  14.450
87782W        W49313  11.155  39.960   0.403
87783W        W49314   2.348  42.810  12.518
87784W        W49315  28.006  23.000   4.805
87785W        W49316  14.596  22.603   0.300
87786W        W49317  16.194  44.332  12.503
87787W        W49318  29.963  29.134   4.284
87788W        W49319  12.166  39.973   1.777
87789W        W49320  26.000   3.458  12.559
87790W        W49321  30.951  35.856   3.658
87791W        W49322  25.584  16.271  13.509
87792W        W49323   6.682   3.446  11.476
87793W        W49324   8.242  43.406  13.014
87794W        W49325  19.715   3.715   1.727
87795W        W49326  16.777  43.912  13.389
87796W        W49327  24.597  22.713   1.933
87797W        W49328  32.431  28.534   0.361
87798W        W49329  27.615  31.524   0.459
87799W        W49330  28.642  28.143   4.817
87800W        W49331  25.701  32.468   4.249
87801W        W49332  44.891  34.013   1.881
87802W        W49333  27.943  33.008  11.025
87803W        W49334  15.587   7.773  10.472
87804W        W49335   5.841   0.459  12.073
87805W        W49336   6.402  38.955   0.869
87806W        W49337  14.737   7.772   1.338
87807W        W49338  39.329  23.529  11.446
87808W        W49339  12.753  27.565   2.667
87809W        W49340  15.209   6.766  14.931
87810W        W49341   5.876  40.333   3.658
87811W        W49342   6.809  28.614  14.997
87812W        W49343  41.413  39.386   4.354
87813W        W49344  26.969  33.383  11.488
87814W        W49345  32.604  34.913  14.988
87815W        W49346   1.367  31.936  14.449
87816W        W49347  40.324  39.843   2.221
87817W        W49348  33.050   5.778   1.258
87818W        W49349  21.201  28.005   3.185
87819W        W49350   9.223   8.216   0.280
87820W        W49351  37.360   2.926  14.961
87821W        W49352  15.276  15.667  12.349
87822W        W49353  30.631  16.081  11.050
87823W        W49354  13.328   8.384   3.856
87824W        W49355  34.994  33.982   3.318
87825W        W49356  43.964  33.414   2.348
87826W        W49357  30.163   7.689   4.346
87827W        W49358  24.712  11.149  14.442
87828W        W49359  21.521   6.427  13.053
87829W        W49360  30.438  41.368  12.844
87830W        W49361   8.364  21.647   2.776
87831W        W49362  43.886  20.172  12.395
87832W        W49363  36.067  39.855   1.731
87833W        W49364   4.350  44.757   0.385
87834W        W49365   2.319  37.359  12.400
87835W        W49366   0.943  17.233  12.521
87836W        W49367  40.881   3.338   0.950
87837W        W49368  17.174  36.525   3.816
87838W        W49369  33.123   5.403   0.364
87839W        W49370   0.410  14.631  13.008
87840W        W49371  11.713   6.222   5.177
87841W        W49372  14.599  36.880  13.502
87842W        W49373  14.626  21.666   0.443
87843W        W49374  36.406  43.906   2.900
87844W        W49375  30.056  10.761   1.304
87845W        W49376  38.503  38.994   5.099
87846W        W49377  44.006   1.811   1.907
87847W        W49378  19.685  33.964  12.420
87848W        W49379  27.622   6.311  11.575
87849W        W49380  12.657  14.731   3.861
87850W        W49381  16.295  33.516  14.775
87851W        W49382  35.590  23.189  11.407
87852W        W49383  27.013   0.368  11.933
87853W        W49384  11.814  44.900   4.192
87854W        W49385  37.529  21.585  14.380
87855W        W49386  37.566  44.852   4.271
87856W        W49387  35.101  12.647  14.408
87857W        W49388   3.289  15.216   1.749
87858W        W49389   6.380  12.671  13.860
87859W        W49390  38.361  15.313  14.823
87860W        W49391  39.854  20.590   0.825
87861W        W49392   3.835   9.208  12.436
87862W        W49393  35.603  16.605   1.324
87863W        W49394  36.853  17.213  13.874
87864W        W49395  42.020   5.385  11.959
87865W        W49396  33.018  35.028  11.375
87866W        W49397  38.951  25.989   2.256
87867W        W49398  32.613   3.294  13.942
87868W        W49399  18.716  41.357  11.072
87869W        W49400  23.612  26.604  12.450
87870W        W49401   8.325  34.065   0.950
87871W        W49402  39.551  13.721   3.761
87872W        W49403  24.131  24.044   4.691
87873W        W49404   9.308   9.692   3.831
87874W        W49405  11.715  14.748   2.282
87875W        W49406  19.138  41.431  11.475
87876W        W49407  29.949   2.844   4.151
87877W        W49408   9.247  44.454  10.432
87878W        W49409  43.798  23.559  13.542
87879W        W49410  20.178  26.032   4.222
87880W        W49411   1.905  30.536  12.485
87881W        W49412  24.564  13.784   2.902
87882W        W49413  22.197  34.495   3.766
87883W        W49414  28.046  11.765  13.361
87884W        W49415  33.578   0.829   2.195
87885W        W49416  42.389  21.563   2.231
87886W        W49417  20.698  32.919   0.301
87887W        W49418  38.552  12.646  12.973
87888W        W49419  15.818  44.413  12.857
87889W        W49420  37.086  39.953  13.410
87890W        W49421  29.022   2.253  14.296
87891W        W49422  39.980   9.165   1.272
87892W        W49423  32.042  24.013  13.995
87893W        W49424   9.851  27.997   0.755
87894W        W49425  27.626   3.954  11.535
87895W        W49426   2.449  42.358  13.044
87896W        W49427  15.256   7.727   2.291
87897W        W49428  20.700  22.081  10.985
87898W        W49429  32.423  31.000   4.275
87899W        W49430  22.520  27.504   0.844
87900W        W49431  36.902  24.210  13.865
87901W        W49432  34.559  27.032  10.416
87902W        W49433  30.656   8.191   4.797
87903W        W49434  25.175  32.452  13.992
87904W        W49435  27.078  16.199  12.914
87905W        W49436  43.956  10.741  12.084
87906W        W49437  13.140  29.480  14.883
87907W        W49438  41.883  16.285  13.041
87908W        W49439  32.637  11.778  13.981
87909W        W49440   5.312  18.653  10.034
87910W        W49441  17.166  40.848  12.027
87911W        W49442  28.077  35.551   1.409
87912W        W49443   1.262  41.028  14.335
87913W        W49444  21.018   3.775   4.227
87914W        W49445   0.478  19.090  12.963
87915W        W49446  36.046   3.728   4.233
87916W        W49447  26.476   3.324   4.788
87917W        W49448  12.642  35.952  11.929
87918W        W49449   3.787  17.065  14.895
87919W        W49450  13.264  10.713  12.371
87920W        W49451  43.816  18.220   4.268
87921W        W49452  23.003  17.188  14.955
87922W        W49453  40.876  43.917   0.434
87923W        W49454  34.436  30.596   1.911
87924W        W49455   6.236   7.711  11.105
87925W        W49456   9.240  15.328  12.515
87926W        W49457  43.473  16.654   3.690
87927W        W49458  12.691  44.960  13.924
87928W        W49459   0.910  40.814  14.959
87929W        W49460   9.728  44.459  14.340
87930W        W49461  12.211  16.307  10.898
87931W        W49462  18.225   9.815  12.476
87932W        W49463   8.854  26.617   2.727
87933W        W49464  30.116  14.697   3.215
87934W        W49465  41.358  31.575   3.729
87935W        W49466  22.018  15.238  11.047
87936W        W49467  38.339  20.198  13.515
87937W        W49468  19.084   8.723  14.870
87938W        W49469  44.754  38.504  14.845
87939W        W49470   9.767   0.824  13.541
87940W        W49471  31.024  23.735  14.021
87941W        W49472  30.946   3.776  12.465
87942W        W49473  16.791  41.424   3.145
87943W        W49474   7.827  32.601   3.661
87944W        W49475  42.446  35.378   3.791
87945W        W49476  44.866  19.237  13.530
87946W        W49477  14.293  20.688   2.674
87947W        W49478  12.768  24.512   3.815
87948W        W49479   4.410  41.897  12.852
87949W        W49480   2.817  15.302  10.609
87950W        W49481  10.785  42.288  13.926
87951W        W49482   3.802  21.205   2.294
87952W        W49483  16.602  11.142   3.201
87953W        W49484   7.841  28.632   0.840
87954W        W49485  13.107  27.162   2.234
87955W        W49486  31.419  30.412  12.433
87956W        W49487  34.908  16.728  11.493
87957W        W49488   6.350  40.304  13.976
87958W        W49489   8.317  18.561   0.775
87959W        W49490   7.387  36.475  10.536
87960W        W49491   2.448  30.504  11.579
87961W        W49492  39.050  12.155   5.183
87962W        W49493   2.954  27.467  11.909
87963W        W49494  20.694   0.879  11.898
87964W        W49495  10.791  40.393   2.680
87965W        W49496  43.790  16.278  14.919
87966W        W49497  35.941  17.595   4.682
87967W        W49498  40.381  28.997  13.029
87968W        W49499   6.418  27.067   2.213
87969W        W49500  34.089   4.320  11.573
87970W        W49501  11.712   6.773  13.807
87971W        W49502   2.263  25.175   3.159
87972W        W49503  10.202  29.517  14.301
87973W        W49504  12.660  17.567  11.995
87974W        W49505   8.658  31.629  12.482
87975W        W49506   2.950  12.344   1.831
87976W        W49507  13.799   7.674   0.883
87977W        W49508  38.507  43.387   3.338
87978W        W49509  15.253  37.853   2.219
87979W        W49510  10.861  25.130  13.814
87980W        W49511   1.743  36.967   4.287
87981W        W49512  22.160  29.019  10.976
87982W        W49513  32.393   4.352   2.339
87983W        W49514  28.651  20.618   1.351
87984W        W49515  30.920   1.765  11.460
87985W        W49516  27.127   5.217  10.963
87986W        W49517  18.207  29.069  14.806
87987W        W49518  16.713  42.967   1.215
87988W        W49519  36.890  29.087   1.810
87989W        W49520  27.649  30.618   5.244
87990W        W49521  16.305   8.774   1.214
87991W        W49522  32.050  14.275   0.947
87992W        W49523  15.775  33.470   4.327
87993W        W49524  26.132  39.395  13.955
87994W        W49525  12.678  31.410   1.890
87995W        W49526   7.783  37.041   0.455
87996W        W49527   8.728  27.052  13.469
87997W        W49528  11.634  33.049  13.464
87998W        W49529   2.272  33.522  12.514
87999W        W49530  17.239  24.123  13.445
88000W        W49531  30.934   7.806   2.865
88001W        W49532  10.791  44.819  10.482
88002W        W49533  18.757  12.233  12.439
88003W        W49534  16.632  31.043   5.567
88004W        W49535   9.689  24.107  10.453
88005W        W49536  18.084  14.612   0.355
88006W        W49537  29.049  41.860  12.454
88007W        W49538  44.396  38.470  13.902
88008W        W49539  34.097   5.298   1.414
88009W        W49540   2.227  43.455   3.731
88010W        W49541   5.776  16.209   1.749
88011W        W49542  35.106  13.663  11.959
88012W        W49543  43.325  40.821  14.364
88013W        W49544  30.136  18.571  10.519
88014W        W49545   3.853  35.498   2.354
88015W        W49546  42.448  18.583  10.472
88016W        W49547  33.449   5.907   3.194
88017W        W49548  18.206  41.364  11.943
88018W        W49549  15.261  30.020   0.940
88019W        W49550   4.860  33.113   2.698
88020W        W49551  25.478  16.072  12.524
88021W        W49552  13.299  35.013  10.506
88022W        W49553   1.842  33.564   4.303
88023W        W49554   6.812  41.805  11.058
88024W        W49555   0.282  16.252   1.345
88025W        W49556   4.393  30.919   0.316
88026W        W49557  41.819   8.360  12.444
88027W        W49558   8.805  36.398  13.896
88028W        W49559  30.474  13.806   0.951
88029W        W49560  41.363   1.474  13.416
88030W        W49561  30.494   1.825   0.318
88031W        W49562   7.401   8.185   4.232
88032W        W49563  18.289  37.009  13.344
88033W        W49564  19.078  42.325   3.726
88034W        W49565  19.089  39.498   2.187
88035W        W49566  35.377  33.885   4.607
88036W        W49567  17.781   7.690  13.418
88037W        W49568  15.763  42.829  13.324
88038W        W49569  17.557  16.150  12.901
88039W        W49570  10.195  22.502   2.778
88040W        W49571  24.989  14.700  14.349
88041W        W49572   4.805  37.352  10.406
88042W        W49573   0.371  23.102  14.929
88043W        W49574  24.008  18.719   5.090
88044W        W49575  27.640  33.061   0.348
88045W        W49576  17.612  31.903  14.488
88046W        W49577  43.435  39.328  11.036
88047W        W49578   7.367  38.829  11.611
88048W        W49579   6.825   9.330  11.870
88049W        W49580  21.017  39.411  11.581
88050W        W49581  10.728  40.548  11.461
88051W        W49582  39.028  21.738   3.372
88052W        W49583  11.841  17.649  13.439
88053W        W49584  23.702  11.198  11.009
88054W        W49585   1.866   7.694   2.744
88055W        W49586  19.061  14.242  12.954
88056W        W49587  34.095   4.379  12.423
88057W        W49588  36.496  16.624   5.280
88058W        W49589  15.119  40.012   2.383
88059W        W49590   7.674  24.710  10.939
88060W        W49591  25.015  24.984   5.260
88061W        W49592  24.104  24.595  12.090
88062W        W49593  25.191  12.848  13.956
88063W        W49594   5.346  14.728   1.802
88064W        W49595  35.899   5.922  10.938
88065W        W49596  26.483  37.403  14.360
88066W        W49597  29.138  23.222   4.611
88067W        W49598  25.540  36.880  13.540
88068W        W49599  25.576  44.286  10.108
88069W        W49600  11.276   2.883   3.275
88070W        W49601  37.581  15.296  11.041
88071W        W49602   5.742  41.967  12.012
88072W        W49603  36.869   5.925   1.749
88073W        W49604  30.098  13.141   3.727
88074W        W49605  41.424  11.764  12.871
88075W        W49606  23.564  16.588  14.431
88076W        W49607   4.921  21.742   2.874
88077W        W49608  25.562  30.489  13.050
88078W        W49609   5.233  42.499  13.324
88079W        W49610   1.320  22.021   5.243
88080W        W49611  33.125  12.642  10.926
88081W        W49612   6.703  35.480  14.504
88082W        W49613   1.742  15.662   1.722
88083W        W49614   9.796  19.256  13.382
88084W        W49615  22.689  37.517   4.781
88085W        W49616   2.773   4.863  13.368
88086W        W49617  14.784  41.006   3.833
88087W        W49618  31.505  38.458   3.294
88088W        W49619  15.115   8.703  13.908
88089W        W49620   8.295  34.416  13.951
88090W        W49621  16.580  10.743   3.240
88091W        W49622  44.276  12.630  11.052
88092W        W49623  11.722  10.801   2.827
88093W        W49624  44.271  37.872   2.331
88094W        W49625  27.139  35.518  11.497
88095W        W49626   8.679   5.424  12.055
88096W        W49627  26.637  16.635   0.870
88097W        W49628  15.236   5.789  13.861
88098W        W49629   1.810  13.149  13.819
88099W        W49630  35.483  34.448   3.856
88100W        W49631   5.847  36.469  13.470
88101W        W49632  24.070  18.223   2.196
88102W        W49633  18.264   4.415  11.576
88103W        W49634  31.420  11.331  12.507
88104W        W49635  28.944  27.477   3.675
88105W        W49636  32.057   5.309  11.855
88106W        W49637  39.897   2.420   4.600
88107W        W49638  20.266  18.615  14.501
88108W        W49639  32.893  40.386  11.482
88109W        W49640   5.201  32.466  10.443
88110W        W49641  41.931  34.117  13.314
88111W        W49642  12.733  35.585  14.926
88112W        W49643  16.568  24.973   2.835
88113W        W49644  19.696  21.652  12.864
88114W        W49645   3.724  34.882  10.912
88115W        W49646   4.370  44.363  14.763
88116W        W49647  42.326  34.108   1.814
88117W        W49648   8.811  13.239  13.013
88118W        W49649  41.789  44.275  12.960
88119W        W49650   7.185  19.164   0.333
88120W        W49651  25.502   0.437  11.469
88121W        W49652  13.829  10.658   0.422
88122W        W49653   1.325   5.304  11.951
88123W        W49654  33.920  23.229  11.003
88124W        W49655  40.001  41.510   1.932
88125W        W49656  43.802  27.684   2.224
88126W        W49657  26.697  35.023  12.829
88127W        W49658   2.813  32.122   2.204
88128W        W49659  19.583   5.319  10.985
88129W        W49660  29.536  11.262  14.979
88130W        W49661  30.532  32.965   4.254
88131W        W49662  21.559  19.541  12.472
88132W        W49663  28.004  12.186  14.382
88133W        W49664  20.208  40.499  14.769
88134W        W49665  43.930  10.153  12.868
88135W        W49666  24.626  36.579  14.470
88136W        W49667   8.295  15.747   2.244
88137W        W49668  26.147  28.543  12.961
88138W        W49669  37.864   8.662   2.219
88139W        W49670  12.836   3.278  10.453
88140W        W49671  13.603   9.820   0.922
88141W        W49672  12.317  32.622  12.376
88142W        W49673  34.928  29.478   0.415
88143W        W49674   1.252  13.212  12.892
88144W        W49675  31.615  31.463  14.832
88145W        W49676  30.109  22.549   4.827
88146W        W49677  33.874  30.088   1.768
88147W        W49678  29.613  13.321   4.629
88148W        W49679  21.129  25.033  11.859
88149W        W49680  36.519  16.104   3.673
88150W        W49681  22.628  25.161   4.279
88151W        W49682  23.059  41.978  11.442
88152W        W49683  20.268   1.429  14.846
88153W        W49684   3.294  28.624   2.209
88154W        W49685   0.838   3.859   2.757
88155W        W49686  31.544  28.045   3.377
88156W        W49687  42.999  31.006   0.277
88157W        W49688  11.743  16.728  13.882
88158W        W49689   4.255  42.010   4.609
88159W        W49690  15.146  43.914   4.647
88160W        W49691   4.231  23.723  10.559
88161W        W49692   4.747  38.920   4.238
88162W        W49693  35.077  18.098   0.343
88163W        W49694  32.990  32.110   4.225
88164W        W49695  10.277  35.387  13.389
88165W        W49696   2.442  11.145   1.738
88166W        W49697  11.839   3.377  11.105
88167W        W49698  20.068  20.614   1.855
88168W        W49699   7.347  23.514   4.789
88169W        W49700  19.255  29.507   4.161
88170W        W49701   6.690  33.463  13.855
88171W        W49702  39.989  25.035  14.850
88172W        W49703  39.985  33.935  13.377
88173W        W49704   6.333  18.221   1.854
88174W        W49705  22.040  38.398  13.364
88175W        W49706   0.833  42.874  14.287
88176W        W49707  21.746  32.954   2.827
88177W        W49708  28.159  13.810   2.414
88178W        W49709  23.656  40.980   3.249
88179W        W49710  31.642   2.297   3.754
88180W        W49711   2.955  29.108   2.687
88181W        W49712  21.160   1.888  12.045
88182W        W49713  23.167  11.646   1.869
88183W        W49714  13.631  18.702  12.060
88184W        W49715  14.802  14.651   1.701
88185W        W49716  11.285  10.296   3.691
88186W        W49717  19.181  14.814   1.391
88187W        W49718  24.989  18.162  11.464
88188W        W49719  36.851  13.200   1.347
88189W        W49720  39.867  26.599   2.823
88190W        W49721  31.632  30.936  11.597
88191W        W49722  17.576   9.768   2.386
88192W        W49723  32.448  15.174   0.874
88193W        W49724  17.189  22.723  12.350
88194W        W49725  40.500   5.271   3.320
88195W        W49726  18.711  16.747   3.374
88196W        W49727  25.208  34.003   5.202
88197W        W49728  13.328   2.269   2.344
88198W        W49729   1.801  16.111   4.619
88199W        W49730   9.758  17.663  12.936
88200W        W49731  21.207  22.140  10.136
88201W        W49732  27.126  31.118   2.814
88202W        W49733  39.386  39.827  13.481
88203W        W49734  44.830  26.046   0.256
88204W        W49735   2.417   9.282   0.786
88205W        W49736  40.486  39.045  14.371
88206W        W49737  19.134  30.634   2.703
88207W        W49738  32.104  16.728   2.758
88208W        W49739  22.185   0.287  12.510
88209W        W49740   0.840  42.837  10.562
88210W        W49741   6.810  35.474  12.555
88211W        W49742   2.299  30.469   3.829
88212W        W49743  36.534  30.973  10.432
88213W        W49744   9.294  32.465  13.037
88214W        W49745  22.999  22.669  10.025
88215W        W49746  14.282  15.590  10.539
88216W        W49747  26.156  15.115   4.611
88217W        W49748  29.139  42.952  11.574
88218W        W49749  13.149  23.029   1.820
88219W        W49750  11.146  12.318   3.322
88220W        W49751   9.257  24.669   3.232
88221W        W49752  23.659   2.874  10.558
88222W        W49753  37.891  38.408  10.431
88223W        W49754  19.099  43.417  11.571
88224W        W49755  17.173  28.022   4.704
88225W        W49756  32.455  44.846  12.003
88226W        W49757  18.083  17.780   2.265
88227W        W49758  10.242  19.662  14.958
88228W        W49759  18.790  38.468  10.565
88229W        W49760  33.425  22.118  10.608
88230W        W49761  34.604  31.046  11.499
88231W        W49762   0.846  33.013   2.878
88232W        W49763  34.408   5.741  10.563
88233W        W49764   9.862  24.675   2.224
88234W        W49765  16.317  36.426  10.954
88235W        W49766  40.839  18.550   3.196
88236W        W49767  22.076  20.213   1.405
88237W        W49768  28.989  29.127  13.792
88238W        W49769  37.516  13.806   2.885
88239W        W49770  20.541  17.206  11.510
88240W        W49771   0.425  31.026  11.505
88241W        W49772   8.229  15.816   3.162
88242W        W49773   5.329  38.933  11.010
88243W        W49774  15.672  12.290   2.407
88244W        W49775   8.324  37.341   2.723
88245W        W49776  44.499  14.825   0.414
88246W        W49777  41.842  26.668   4.229
88247W        W49778  26.179  19.637  13.016
88248W        W49779   5.809  16.239  10.518
88249W        W49780  27.680   3.366   4.226
88250W        W49781  13.132   0.785  11.080
88251W        W49782   9.201  11.844  11.128
88252W        W49783  43.283   4.853   1.320
88253W        W49784  12.627  30.910  11.375
88254W        W49785  12.188   1.336  14.809
88255W        W49786  14.614  22.194  14.493
88256W        W49787  19.581  20.206  10.417
88257W        W49788  12.320  44.003   4.679
88258W        W49789  23.007  16.708   1.801
88259W        W49790  33.884  39.920  13.460
88260W        W49791  22.121  33.092   1.308
88261W        W49792   4.394   5.247   2.749
88262W        W49793  12.799  26.045   0.368
88263W        W49794  38.511   5.224   1.890
88264W        W49795   8.675  36.881  10.478
88265W        W49796   3.713  40.492   2.352
88266W        W49797  26.660  44.852   3.869
88267W        W49798  40.315  31.076  13.858
88268W        W49799  18.057  11.272  12.509
88269W        W49800  24.603  34.551  14.487
88270W        W49801  40.352  40.332  11.427
88271W        W49802  12.772  32.948   3.277
88272W        W49803  22.205   2.826  14.774
88273W        W49804   1.255  42.914   2.837
88274W        W49805  11.743  35.425   2.333
88275W        W49806  31.635   6.281   1.336
88276W        W49807  31.434  20.675  12.358
88277W        W49808  25.037  35.388  10.999
88278W        W49809  34.526  44.498   3.636
88279W        W49810  33.921  25.027  13.369
88280W        W49811   7.190   5.824   2.672
88281W        W49812  15.774  18.223  14.482
88282W        W49813  23.558   9.194  13.324
88283W        W49814  33.402  43.886   1.342
88284W        W49815  38.413  33.590   4.806
88285W        W49816   8.835  42.358   4.172
88286W        W49817   5.933  41.366  14.010
88287W        W49818  35.909  31.639  14.004
88288W        W49819  30.460   8.366  13.446
88289W        W49820  34.948  30.443  13.380
88290W        W49821  10.174  11.218   0.369
88291W        W49822  29.159  17.251   1.281
88292W        W49823  10.659   3.429   4.176
88293W        W49824  17.119  25.673   1.800
88294W        W49825  43.274  29.428  10.482
88295W        W49826   1.321  15.802   3.813
88296W        W49827  21.527  25.159   5.286
88297W        W49828  24.545  26.971  14.498
88298W        W49829  27.020  25.095   1.432
88299W        W49830  32.505  33.380  12.035
88300W        W49831  21.610  11.651   0.787
88301W        W49832  40.499   2.816   4.268
88302W        W49833  21.755  34.463  14.951
88303W        W49834  20.574  22.036   3.732
88304W        W49835  22.243   2.731   3.712
88305W        W49836  39.378  13.810  10.522
88306W        W49837  27.961  20.258   1.896
88307W        W49838  30.080   1.335   3.244
88308W        W49839  28.007   0.747  11.600
88309W        W49840  29.918  40.431   1.866
88310W        W49841  23.107  23.054  11.977
88311W        W49842  20.687  28.516  13.040
88312W        W49843  34.451  24.195  11.957
88313W        W49844  27.690  34.486   4.824
88314W        W49845  35.590   2.741  10.929
88315W        W49846  26.485  16.765   1.308
88316W        W49847  29.480  34.087   1.425
88317W        W49848  34.035  32.132  14.441
88318W        W49849  37.854  42.479   1.894
88319W        W49850  40.886  27.592   3.381
88320W        W49851  18.235  20.620   3.165
88321W        W49852  28.641  26.559   0.331
88322W        W49853  37.960   9.696   1.292
88323W        W49854  34.982  44.463  12.342
88324W        W49855  40.905   8.259   2.861
88325W        W49856  42.967  13.633   1.245
88326W        W49857  14.807  18.781  12.060
88327W        W49858  19.608  16.655   0.438
88328W        W49859   0.421  11.683   2.218
88329W        W49860  16.794  10.338  10.904
88330W        W49861  34.534  26.176  14.344
88331W        W49862  38.365  29.930  12.443
88332W        W49863   8.675  43.310  10.446
88333W        W49864  21.185  21.692   3.827
88334W        W49865  43.903   7.207  11.014
88335W        W49866  39.430  13.652   9.549
88336W        W49867  40.035  39.421   0.325
88337W        W49868   0.847  19.618  11.533
88338W        W49869   6.911  12.211   0.353
88339W        W49870  37.495  31.910  14.884
88340W        W49871  14.771   2.781   1.232
88341W        W49872  17.084  15.228  11.900
88342W        W49873  27.550  35.416   2.234
88343W        W49874  35.002  37.084   4.679
88344W        W49875  22.029  37.014   2.249
88345W        W49876  21.670  15.083   0.847
88346W        W49877  37.871  27.550   1.248
88347W        W49878  22.672  38.372  13.005
88348W        W49879  19.689  10.774  11.109
88349W        W49880  33.968  26.643   5.316
88350W        W49881  20.271  44.345  13.973
88351W        W49882  31.587  36.497   1.415
88352W        W49883   1.249  21.227  13.501
88353W        W49884  24.032  37.582  12.547
88354W        W49885  29.546  11.644  11.601
88355W        W49886  30.581  35.094  12.344
88356W        W49887  30.549  32.479   0.820
88357W        W49888  23.568  30.414  11.560
88358W        W49889  43.390   3.242   3.789
88359W        W49890  27.974  27.006   2.318
88360W        W49891  38.538   6.228  10.495
88361W        W49892  40.942   8.362   1.765
88362W        W49893  41.534   8.254  14.429
88363W        W49894   0.325  28.108   1.411
88364W        W49895   3.233  17.067  14.303
88365W        W49896   1.327   4.751  11.943
88366W        W49897  19.710   9.771  10.565
88367W        W49898  42.364  26.673   3.848
88368W        W49899   2.729  32.602  11.987
88369W        W49900  26.999  15.644   3.180
88370W        W49901  26.532   3.320  12.440
88371W        W49902   8.673  31.058   3.260
88372W        W49903  14.129   8.712   3.834
88373W        W49904  37.344  26.671  14.388
88374W        W49905  18.565  39.483   0.905
88375W        W49906  21.744   9.746   4.631
88376W        W49907  42.884   7.834   0.316
88377W        W49908  21.095  39.346  11.983
88378W        W49909  25.134  29.497   0.433
88379W        W49910   6.278  29.001  13.025
88380W        W49911  41.315  13.826  13.526
88381W        W49912  15.262  15.664   0.448
88382W        W49913  36.881  37.403  13.920
88383W        W49914  20.647  25.006   0.357
88384W        W49915  15.651  13.608   0.825
88385W        W49916  21.656  20.119   2.694
88386W        W49917  19.271  17.306  10.411
88387W        W49918  16.088  39.471  14.318
88388W        W49919  21.084  20.739  13.345
88389W        W49920  37.400  14.620   0.404
88390W        W49921  32.454   0.977   1.811
88391W        W49922  12.154  25.203  12.393
88392W        W49923  29.971  16.643   0.373
88393W        W49924  24.522  34.042   1.745
88394W        W49925  18.692  26.981  13.505
88395W        W49926   5.213   4.287  11.005
88396W        W49927   9.372  22.249  14.927
88397W        W49928  31.056  34.091   4.821
88398W        W49929   5.380   2.323  13.530
88399W        W49930  30.096  31.920  13.499
88400W        W49931  23.026  16.812  13.807
88401W        W49932   7.273   1.358   0.425
88402W        W49933  41.460  25.474  13.968
88403W        W49934  27.947  25.677  14.945
88404W        W49935  38.844  38.490  13.359
88405W        W49936  40.406  35.079   1.220
88406W        W49937  25.181  22.995  14.381
88407W        W49938  14.734  28.089   2.305
88408W        W49939  35.046  14.734  10.897
88409W        W49940  25.171  19.592   3.207
88410W        W49941  20.556  37.424   5.219
88411W        W49942  20.532   4.749   3.365
88412W        W49943   9.888  28.567   0.271
88413W        W49944  42.921  20.713  13.023
88414W        W49945  15.128  30.913  14.786
88415W        W49946  27.092  38.414   3.823
88416W        W49947  31.031  29.016  10.023
88417W        W49948  40.510  23.161  14.511
88418W        W49949  14.334  44.488  12.832
88419W        W49950   3.241  15.595  13.355
88420W        W49951  20.634   0.836   2.351
88421W        W49952  39.435  36.528  13.318
88422W        W49953  28.522   7.276   1.348
88423W        W49954   1.813  37.898  11.606
88424W        W49955  26.165  24.158   1.784
88425W        W49956   4.742  19.600   4.205
88426W        W49957  35.032   8.293   2.386
88427W        W49958   0.744  41.874  12.557
88428W        W49959  36.509  30.021   2.242
88429W        W49960  11.230  40.048  10.487
88430W        W49961  44.423   2.724   3.158
88431W        W49962  14.130  13.154   2.246
88432W        W49963  35.979  29.598   3.238
88433W        W49964  40.400  24.722   3.649
88434W        W49965  19.668  40.975  14.308
88435W        W49966  37.452  35.433  12.086
88436W        W49967  39.900  35.535   2.204
88437W        W49968   2.243  14.099   2.332
88438W        W49969  29.932  17.581  13.439
88439W        W49970  35.572  15.806   0.803
88440W        W49971   9.863  33.610   3.196
88441W        W49972  18.783  32.065   1.729
88442W        W49973  38.542  26.166   0.483
88443W        W49974  29.018   8.781   2.854
88444W        W49975  40.999  19.716   4.345
88445W        W49976  36.538  32.131   3.813
88446W        W49977  11.683  37.480  14.835
88447W        W49978  16.638   3.895   2.720
88448W        W49979   8.764  34.464   3.200
88449W        W49980   0.816  31.506  14.474
88450W        W49981  29.924   7.251   2.211
88451W        W49982  23.615  41.456  13.978
88452W        W49983  12.704   2.951  13.851
88453W        W49984  25.566   4.742  14.970
88454W        W49985   1.290  18.163  12.472
88455W        W49986  42.913  19.194   3.165
88456W        W49987  34.573  21.622  11.103
88457W        W49988  10.257  25.200  10.531
88458W        W49989   5.251  12.238  14.869
88459W        W49990  21.137   1.474   3.733
88460W        W49991  31.429  25.676   4.790
88461W        W49992  26.508  43.825   2.222
88462W        W49993  32.409  23.987  11.529
88463W        W49994  14.823  23.010   1.828
88464W        W49995  17.572  10.828   0.825
88465W        W49996  17.193  18.662   1.750
88466W        W49997  35.600  27.661  14.345
88467W        W49998   5.204  28.027   0.471
88468W        W49999  33.959  20.578  14.777
88469W        W50000  19.050  21.644   4.120
88470W        W50001   5.227   6.857  10.933
88471W        W50002   5.306  28.027  10.136
88472W        W50003  14.828   6.704   0.363
88473W        W50004  31.108   0.834  14.771
88474W        W50005  26.959  14.695   3.643
88475W        W50006  38.394  21.240   4.232
88476W        W50007  16.796  19.745   3.656
88477W        W50008  42.780  14.724  12.014
88478W        W50009  14.231  41.893   3.341
88479W        W50010  11.350  12.715   4.672
88480W        W50011  14.625  34.903  12.892
88481W        W50012  23.527   1.948  11.390
88482W        W50013   8.380   6.415  14.966
88483W        W50014  27.052  42.509   4.286
88484W        W50015  22.591  22.233  10.887
88485W        W50016   8.690   6.692   2.293
88486W        W50017  31.059  15.213   3.755
88487W        W50018  34.926  22.584   2.672
88488W        W50019  23.708  11.140   1.698
88489W        W50020  14.263  11.129   4.198
88490W        W50021   9.310   9.340   2.234
88491W        W50022  31.515   8.397   5.789
88492W        W50023  22.009  12.624   4.133
88493W        W50024   1.900  37.438   4.649
88494W        W50025   2.392  12.837  13.526
88495W        W50026  43.493  23.010   3.713
88496W        W50027  34.984  27.135   4.120
88497W        W50028  26.680   9.662   2.886
88498W        W50029  41.324   6.893  11.003
88499W        W50030  12.833   6.271  12.035
88500W        W50031  44.823  33.440   1.261
88501W        W50032  44.783  42.389  13.925
88502W        W50033  21.108  18.745   3.680
88503W        W50034  18.693  34.978   0.299
88504W        W50035  17.595  24.570   2.794
88505W        W50036  30.986   4.299  12.968
88506W        W50037  19.127  22.252  14.278
88507W        W50038  19.735  28.666  12.047
88508W        W50039  11.248  41.468   2.364
88509W        W50040   2.907  30.081  14.919
88510W        W50041  37.377  29.645   3.703
88511W        W50042   7.390   9.391   3.856
88512W        W50043  17.234  19.139  12.460
88513W        W50044  30.070   4.331  11.562
88514W        W50045  19.712   2.927  10.501
88515W        W50046  42.854  18.722  14.315
88516W        W50047  13.350  25.104   1.767
88517W        W50048  41.808   5.690   3.385
88518W        W50049  34.932  20.620  11.103
88519W        W50050  29.952  42.005  12.387
88520W        W50051   7.372  17.240   2.705
88521W        W50052  17.589  37.346  14.349
88522W        W50053  21.527  12.218   2.734
88523W        W50054  32.098   5.718   1.798
88524W        W50055  43.983  30.637  13.460
88525W        W50056  31.088  35.585   4.623
88526W        W50057   6.907  17.590   4.339
88527W        W50058   0.879  22.119   3.175
88528W        W50059  43.983  27.125  13.865
88529W        W50060   2.953  15.301  11.419
88530W        W50061  22.225  34.405   1.231
88531W        W50062  44.980   1.978  11.504
88532W        W50063   0.294  42.839  13.419
88533W        W50064   9.226  40.544   0.470
88534W        W50065  30.129  40.464   0.254
88535W        W50066  19.626  22.635  13.377
88536W        W50067  19.728   3.793   2.896
88537W        W50068  32.983  20.134  12.340
88538W        W50069  32.010  44.787   0.435
88539W        W50070  15.794  11.640   4.141
88540W        W50071   6.914  33.077   2.281
88541W        W50072  30.139  42.853   4.218
88542W        W50073  41.969   0.485   4.687
88543W        W50074  29.119  40.872   2.316
88544W        W50075   9.835  26.544  14.359
88545W        W50076  12.284  18.106  12.883
88546W        W50077  42.033  37.490  14.350
88547W        W50078  42.021  14.246  11.523
88548W        W50079  34.559  22.656   1.802
88549W        W50080  37.525  13.298  13.489
88550W        W50081   6.798  36.047  14.965
88551W        W50082  25.970  23.047   1.818
88552W        W50083  40.019  35.854   3.385
88553W        W50084  19.776  35.523   4.283
88554W        W50085   9.156  20.576  14.915
88555W        W50086   3.744  27.062  13.324
88556W        W50087  29.022  24.627   4.653
88557W        W50088  16.258  25.003   1.210
88558W        W50089   6.769  17.759   2.730
88559W        W50090  40.965  41.423  10.415
88560W        W50091  44.957   5.436  13.918
88561W        W50092   9.643  43.377   1.722
88562W        W50093  26.596   2.922  11.873
88563W        W50094  44.440   1.282  11.435
88564W        W50095  43.768  38.465   1.929
88565W        W50096   5.851  20.046  13.534
88566W        W50097  39.541   6.287  10.462
88567W        W50098  10.858   0.763   1.359
88568W        W50099  14.336  44.272  10.607
88569W        W50100   6.363  20.738  10.571
88570W        W50101  34.377  10.832   0.444
88571W        W50102  29.466  21.065  11.497
88572W        W50103  22.516   9.369   0.795
88573W        W50104   4.425  33.927  11.410
88574W        W50105  24.532  15.647  11.984
88575W        W50106  11.761  17.300   4.233
88576W        W50107  41.953  37.416   1.734
88577W        W50108  12.698  41.500   3.687
88578W        W50109  18.231  13.801   3.237
88579W        W50110   2.246  27.653  13.906
88580W        W50111  33.105  10.154  13.977
88581W        W50112  35.082  10.734  14.406
88582W        W50113   0.302  34.537  10.956
88583W        W50114  10.339   6.287  13.038
88584W        W50115  40.525   4.282  11.886
88585W        W50116  14.752   8.209   2.902
88586W        W50117  22.632  12.160  12.554
88587W        W50118  27.144  31.561   3.292
88588W        W50119  31.533  10.189  13.019
88589W        W50120  44.864  16.117  11.000
88590W        W50121   5.892  17.194   4.227
88591W        W50122  26.540  23.029   3.295
88592W        W50123   0.314  15.274  13.509
88593W        W50124  39.902  35.464  11.488
88594W        W50125  24.200  18.768   0.938
88595W        W50126  36.908   0.813  10.409
88596W        W50127  40.886  22.224   0.331
88597W        W50128  31.454   7.742   2.764
88598W        W50129  44.829  34.869  13.495
88599W        W50130  33.919  40.880   4.145
88600W        W50131  41.395  30.472  12.947
88601W        W50132  39.446   9.154   0.826
88602W        W50133  30.009   3.401  10.504
88603W        W50134  41.491  22.589  13.996
88604W        W50135  20.222  35.510   0.833
88605W        W50136  12.847   2.291   2.858
88606W        W50137  17.145   4.906  12.958
88607W        W50138  41.020  28.974   2.311
88608W        W50139  30.613  38.037  11.888
88609W        W50140  15.250  26.975   2.740
88610W        W50141  39.322  41.510   1.320
88611W        W50142  35.071  11.744  13.375
88612W        W50143  27.167   7.819   2.882
88613W        W50144  23.131  18.650   1.308
88614W        W50145  24.582  37.415   0.251
88615W        W50146  16.586  21.568   2.360
88616W        W50147  33.960  40.911   4.765
88617W        W50148  10.334   4.422  10.151
88618W        W50149  37.473  43.871  14.314
88619W        W50150  11.662   0.936   2.712
88620W        W50151  24.989   4.326   1.391
88621W        W50152  23.572  38.907   5.764
88622W        W50153  12.255  25.133  13.964
88623W        W50154  14.613  39.442   0.782
88624W        W50155  24.719   7.895  11.595
88625W        W50156  10.334  22.107   4.791
88626W        W50157  37.471  22.089   4.657
88627W        W50158  42.948  10.169  11.896
88628W        W50159  38.937   0.776  12.422
88629W        W50160   7.376  32.486   0.870
88630W        W50161  25.014  16.207   0.930
88631W        W50162  21.099  13.336   2.345
88632W        W50163  19.278  30.593   4.833
88633W        W50164   6.213  34.002  14.982
88634W        W50165  42.854   8.397   0.752
88635W        W50166  36.996  34.897  13.853
88636W        W50167   3.948  12.685   5.263
88637W        W50168  36.575  42.026  14.014
88638W        W50169   0.265  43.771  11.052
88639W        W50170  39.314  18.548   1.425
88640W        W50171  35.399  10.140   5.151
88641W        W50172   2.378  23.501  12.548
88642W        W50173  24.478  22.687  14.382
88643W        W50174  44.914  30.426  14.003
88644W        W50175  18.603   5.793   2.241
88645W        W50176  37.928  42.464  12.452
88646W        W50177  13.225   7.309  11.073
88647W        W50178  39.554  11.629  13.863
88648W        W50179   7.193  25.651   4.735
88649W        W50180  17.297  39.939  13.854
88650W        W50181  38.939  13.224  14.873
88651W        W50182   8.855  28.644   4.817
88652W        W50183  25.651  42.477  13.973
88653W        W50184  37.066   8.291   2.382
88654W        W50185  35.568  13.262   0.475
88655W        W50186  12.857   7.787  13.843
88656W        W50187  26.972   5.774  10.529
88657W        W50188  10.709  11.322  10.566
88658W        W50189  24.658   0.867  13.844
88659W        W50190  39.411  39.822  11.066
88660W        W50191  29.584  31.948   3.209
88661W        W50192  23.652  31.996   0.457
88662W        W50193  24.090  32.926  13.503
88663W        W50194  33.449  11.849  11.122
88664W        W50195  14.111   7.322   3.803
88665W        W50196   4.885   8.836   0.909
88666W        W50197  39.536  37.904   0.865
88667W        W50198  33.998   3.738  11.040
88668W        W50199  25.116  19.097  12.935
88669W        W50200   3.934  31.097  13.342
88670W        W50201  42.288   9.179  10.478
88671W        W50202  19.566  33.987  12.013
88672W        W50203  35.896  34.948  11.938
88673W        W50204  13.337  31.472   2.886
88674W        W50205  32.043  31.925  14.896
88675W        W50206  19.088   7.682   0.375
88676W        W50207  31.107  28.158  10.573
88677W        W50208  11.360   0.957  13.868
88678W        W50209  33.005   2.313   2.402
88679W        W50210  10.855  33.396   1.713
88680W        W50211  36.990  35.421  13.810
88681W        W50212  26.104  12.716   3.239
88682W        W50213  21.100   2.308  12.465
88683W        W50214  14.095   4.444   0.320
88684W        W50215   6.184  30.992  14.805
88685W        W50216  19.166  17.068   3.660
88686W        W50217   8.338  40.903   1.704
88687W        W50218  13.633  36.507  11.452
88688W        W50219  22.552  42.021   3.203
88689W        W50220  28.034  22.652   1.299
88690W        W50221  25.206  28.052  13.839
88691W        W50222  28.933  17.746  14.936
88692W        W50223  35.895  24.546  14.767
88693W        W50224  12.761  39.556   0.291
88694W        W50225  11.266   4.699   1.741
88695W        W50226  11.298   1.291  14.497
88696W        W50227  37.504   7.753   2.804
88697W        W50228  43.831  40.941  10.991
88698W        W50229  18.146  43.943   2.791
88699W        W50230  37.443  13.717   5.317
88700W        W50231  24.725  31.464  14.874
88701W        W50232  19.249  18.142  13.905
88702W        W50233  15.630  13.686  13.415
88703W        W50234  19.647  15.790  13.508
88704W        W50235  11.306  40.338  13.866
88705W        W50236  42.846   4.784  10.000
88706W        W50237  28.035  26.569   1.847
88707W        W50238  29.050  35.005   2.669
88708W        W50239  36.461  18.226   2.194
88709W        W50240   2.884  13.703  14.830
88710W        W50241  22.061  35.861  11.076
88711W        W50242  43.336  26.014  10.637
88712W        W50243   5.362  31.522  12.474
88713W        W50244  39.430   9.652  11.576
88714W        W50245  28.183  19.165   2.203
88715W        W50246  38.919  19.239  13.924
88716W        W50247  26.513  15.148  14.959
88717W        W50248  18.147   1.383  13.898
88718W        W50249  12.299  28.548  11.090
88719W        W50250  12.248   3.268   1.853
88720W        W50251  13.187  13.832  14.328
88721W        W50252  22.730  28.467   3.642
88722W        W50253  33.999  26.067  13.855
88723W        W50254   0.950  33.896  12.947
88724W        W50255  34.389  14.694   1.349
88725W        W50256  15.623  13.203   2.259
88726W        W50257  19.770  35.048   4.239
88727W        W50258  27.117  22.545   2.866
88728W        W50259   5.923   7.667   4.748
88729W        W50260  33.614  33.556  12.342
88730W        W50261  43.789  19.696  13.872
88731W        W50262  17.265  35.919   4.155
88732W        W50263   6.331  19.276  14.834
88733W        W50264  43.386  33.031  10.599
88734W        W50265   3.864  42.439   1.838
88735W        W50266   4.312  42.399  13.851
88736W        W50267  42.290  42.444  13.355
88737W        W50268  10.282  24.170  13.505
88738W        W50269  22.179  24.712   3.668
88739W        W50270  25.046  17.085  14.454
88740W        W50271  40.985   9.251  12.078
88741W        W50272  38.953  29.469   4.216
88742W        W50273  38.916  18.224   4.173
88743W        W50274  30.067  27.565   4.765
88744W        W50275   4.722  34.472  13.953
88745W        W50276   7.836  44.912   2.251
88746W        W50277  11.847  36.488   3.664
88747W        W50278  34.083  19.270   4.194
88748W        W50279  37.397   0.381  14.778
88749W        W50280  10.348  17.577   1.365
88750W        W50281   7.683  11.819  14.877
88751W        W50282  14.161  26.053  10.046
88752W        W50283  36.865  34.993   2.736
88753W        W50284   2.888   1.760   0.364
88754W        W50285  23.615  36.528  14.487
88755W        W50286   5.387  11.705  12.962
88756W        W50287  31.472  10.673  10.888
88757W        W50288   9.229  29.017  13.920
88758W        W50289  41.481  10.173  10.919
88759W        W50290  12.623   0.951  13.915
88760W        W50291  15.246  35.910   3.738
88761W        W50292  12.792  20.222   3.328
88762W        W50293  10.253  23.118  12.538
88763W        W50294  11.167   9.385  14.970
88764W        W50295  19.776   1.748  13.829
88765W        W50296   1.387  35.600   2.808
88766W        W50297  37.456   0.982   3.661
88767W        W50298  16.664  18.567   0.427
88768W        W50299  37.864  32.403   4.780
88769W        W50300   5.885   7.222   1.764
88770W        W50301  41.359   9.211   9.439
88771W        W50302   8.209  30.539   1.772
88772W        W50303  36.441  26.042   3.170
88773W        W50304  27.123  31.073  11.475
88774W        W50305   6.679  19.080   0.831
88775W        W50306  21.594  40.894   5.159
88776W        W50307  17.235  10.138   0.275
88777W        W50308  35.918  33.948  10.566
88778W        W50309  43.292  20.090  13.535
88779W        W50310  27.634   3.946   0.442
88780W        W50311   1.274   9.185   4.326
88781W        W50312  28.153  33.471  14.812
88782W        W50313  15.327  39.877  11.955
88783W        W50314   4.361  39.950  14.768
88784W        W50315  40.847  23.075  11.911
88785W        W50316  23.026   6.370   2.777
88786W        W50317   1.885   3.855  13.457
88787W        W50318  35.524  11.830  14.514
88788W        W50319  32.001  38.415   3.153
88789W        W50320  10.198  20.719  11.548
88790W        W50321  29.592  10.201  14.375
88791W        W50322  16.235   1.255  12.019
88792W        W50323  22.554  32.987  10.907
88793W        W50324   5.867  27.671   3.781
88794W        W50325  25.583  41.509   0.363
88795W        W50326  29.552  13.197   5.299
88796W        W50327  44.962  20.233   1.805
88797W        W50328   6.409  37.837   2.352
88798W        W50329  27.098  13.792  11.514
88799W        W50330  30.956  13.806  14.933
88800W        W50331  34.378  16.568   3.294
88801W        W50332  41.432  41.004  14.472
88802W        W50333  20.666  17.600   4.743
88803W        W50334  35.467  25.207   0.422
88804W        W50335  37.488  16.596  14.888
88805W        W50336  36.022  29.654  10.469
88806W        W50337  27.101  21.712   3.798
88807W        W50338  32.945  16.735  14.437
88808W        W50339  14.626  20.246   2.894
88809W        W50340  15.789  14.221  14.453
88810W        W50341  12.215  10.237   2.268
88811W        W50342   3.846  36.490  11.122
88812W        W50343  39.357   1.311   3.172
88813W        W50344   8.771   8.344  10.473
88814W        W50345  28.159   2.962  13.863
88815W        W50346  24.721  35.985   2.197
88816W        W50347  26.048  30.616  13.442
88817W        W50348   1.964  26.576   1.375
88818W        W50349  38.896  39.858  11.608
88819W        W50350  32.914  22.095  13.998
88820W        W50351  40.422  11.773   1.434
88821W        W50352  26.551  38.006   1.334
88822W        W50353  28.976  18.101  12.088
88823W        W50354  13.679  31.408  12.954
88824W        W50355  25.487  27.603   4.787
88825W        W50356   1.354  40.341   2.290
88826W        W50357  11.866  41.808  11.906
88827W        W50358  37.490  37.338   1.814
88828W        W50359  20.140  35.434   1.909
88829W        W50360  33.054   3.332  11.488
88830W        W50361   3.270  24.482  14.846
88831W        W50362  17.621   6.697   0.271
88832W        W50363   4.347  39.337   0.368
88833W        W50364  29.621  40.900   4.351
88834W        W50365  20.227  14.316  12.901
88835W        W50366  25.986  21.744  10.465
88836W        W50367  33.493  13.345   3.248
88837W        W50368   0.389  21.143   0.306
88838W        W50369  37.961  43.431  14.383
88839W        W50370  25.020  42.459  14.463
88840W        W50371  25.622  36.908   4.622
88841W        W50372  33.101   1.955   2.307
88842W        W50373  28.991  17.221   4.606
88843W        W50374  17.595  36.866  11.381
88844W        W50375  29.132   0.434   2.845
88845W        W50376  15.325  16.626   1.427
88846W        W50377  39.427  10.323  14.308
88847W        W50378  21.654  22.641   0.361
88848W        W50379   8.214  19.657  11.940
88849W        W50380   5.359   7.870  12.400
88850W        W50381   7.349  15.276  12.886
88851W        W50382  28.662  28.523  10.930
88852W        W50383   6.250  14.322  12.342
88853W        W50384  34.928   9.866  13.819
88854W        W50385  15.655   3.797  12.024
88855W        W50386  21.229   5.748  10.160
88856W        W50387  37.846  36.021   3.204
88857W        W50388   5.334  44.277   9.976
88858W        W50389  12.796  32.938   1.417
88859W        W50390  42.014   6.881  12.943
88860W        W50391  30.491  34.088  10.517
88861W        W50392   9.835  44.916   4.141
88862W        W50393   2.731  36.496   4.601
88863W        W50394  38.482  28.675  13.802
88864W        W50395  21.227  31.916  12.467
88865W        W50396  42.022  44.789  13.898
88866W        W50397  20.695  20.134   0.305
88867W        W50398  24.038   5.339  12.496
88868W        W50399  28.449  33.508  11.979
88869W        W50400  40.929  22.231  10.992
88870W        W50401  26.647  41.834   1.733
88871W        W50402  17.216  28.603   3.784
88872W        W50403  34.906  27.989   4.223
88873W        W50404   3.394  27.602  12.896
88874W        W50405   9.681  33.005  14.944
88875W        W50406  43.955  24.993   1.214
88876W        W50407   6.345  22.122  10.617
88877W        W50408  29.082  43.325   1.898
88878W        W50409   4.821  23.072  13.441
88879W        W50410   8.863   4.205  11.009
88880W        W50411  15.631  25.636   1.792
88881W        W50412  27.636   1.947   0.366
88882W        W50413  37.338  42.420   0.392
88883W        W50414   5.758  39.321  13.506
88884W        W50415  10.698  33.461   0.820
88885W        W50416  17.711  15.708  10.048
88886W        W50417  24.091  16.630   0.301
88887W        W50418  22.125  17.763   1.324
88888W        W50419  31.641  13.666   1.227
88889W        W50420  35.981   0.382   4.724
88890W        W50421  40.479  18.236   3.815
88891W        W50422  13.693  14.630  10.515
88892W        W50423  12.703  36.898   0.778
88893W        W50424  13.243  37.341  10.476
88894W        W50425  16.764  40.531   2.353
88895W        W50426   8.176  25.703   2.221
88896W        W50427   3.436  20.164   3.259
88897W        W50428  17.791  21.048  13.495
88898W        W50429  27.479  19.723   4.776
88899W        W50430  38.400  15.584  11.428
88900W        W50431  42.780  11.822  14.325
88901W        W50432  30.444  44.903   3.320
88902W        W50433  37.464  16.812  11.565
88903W        W50434  26.657  34.391  10.633
88904W        W50435  31.114  33.439  12.478
88905W        W50436  21.071   8.406   2.211
88906W        W50437  22.248   1.275   2.376
88907W        W50438   2.286   9.886  13.445
88908W        W50439  32.486  29.972  13.353
88909W        W50440  43.986  39.926   2.703
88910W        W50441  39.419  41.818  13.942
88911W        W50442   4.736  38.429  13.966
88912W        W50443   2.289  30.062   2.262
88913W        W50444  29.983  43.497   0.459
88914W        W50445  24.209  10.311   5.195
88915W        W50446  24.621  22.730   3.699
88916W        W50447   0.915  18.610  12.517
88917W        W50448   2.903  41.508   3.255
88918W        W50449   8.221  31.978   3.189
88919W        W50450  19.539  34.954   2.288
88920W        W50451  14.714   8.670   0.878
88921W        W50452   4.708  35.440  12.435
88922W        W50453  24.069  13.643   3.279
88923W        W50454  16.769   0.428  10.889
88924W        W50455   7.786  40.860   2.287
88925W        W50456  42.506  27.525   3.336
88926W        W50457  23.204  21.059  10.611
88927W        W50458  10.266  30.972  13.342
88928W        W50459  31.145  31.443  13.321
88929W        W50460  23.568  35.473  10.952
88930W        W50461  41.866  30.441  12.911
88931W        W50462  14.263   1.328  13.478
88932W        W50463  44.308   7.824   1.354
88933W        W50464  22.036   9.259   0.439
88934W        W50465  16.212   3.449   3.713
88935W        W50466  28.044  32.436  14.932
88936W        W50467  31.593  32.548  14.485
88937W        W50468  35.936   6.244  13.005
88938W        W50469  33.888   8.271  13.929
88939W        W50470   5.328  31.068   0.420
88940W        W50471  30.471   4.732  14.410
88941W        W50472  21.708  29.918  11.522
88942W        W50473  42.398  38.401  11.981
88943W        W50474  34.590  42.329   3.194
88944W        W50475  32.917  24.507   1.932
88945W        W50476  19.560  41.515  12.033
88946W        W50477  10.724  17.587  13.878
88947W        W50478  21.674  19.205  12.535
88948W        W50479  26.555   8.691  12.519
88949W        W50480   3.712  30.505   1.792
88950W        W50481  38.901  29.559   4.645
88951W        W50482  25.702  40.468  14.826
88952W        W50483  10.138   7.359  14.391
88953W        W50484  12.164  16.072  10.535
88954W        W50485  11.315  44.293  10.028
88955W        W50486  16.799  36.456  14.461
88956W        W50487  37.014   8.711   0.872
88957W        W50488  20.663  20.711   2.330
88958W        W50489  33.973  18.617   1.916
88959W        W50490  25.519  11.718  14.025
88960W        W50491  28.480   4.812   3.347
88961W        W50492   9.206  12.713  11.561
88962W        W50493  14.337   2.326   2.717
88963W        W50494   5.429  17.202   2.237
88964W        W50495  29.923  23.202  14.378
88965W        W50496  33.592  38.898  12.828
88966W        W50497   6.254  41.019   3.777
88967W        W50498  13.292   2.786   1.354
88968W        W50499   9.661  15.296   4.682
88969W        W50500  43.019  25.084  13.840
88970W        W50501  38.838  44.480  12.064
88971W        W50502  44.426   0.967   4.713
88972W        W50503  40.954   0.869   3.827
88973W        W50504  13.246   9.699   2.723
88974W        W50505  13.270  37.889   4.289
88975W        W50506  23.547  44.816  10.941
88976W        W50507  10.369  34.576  10.615
88977W        W50508   4.308  33.545  10.422
88978W        W50509  25.031  26.672  13.533
88979W        W50510  24.219  10.696   0.355
88980W        W50511  38.388  19.693   4.296
88981W        W50512  42.843  34.068  11.070
88982W        W50513  40.836  26.191  11.965
88983W        W50514   8.747  41.402   2.368
88984W        W50515  35.859  10.679   4.231
88985W        W50516  16.205  32.628   2.891
88986W        W50517   2.762  42.982  14.933
88987W        W50518  10.314  43.472  13.039
88988W        W50519  23.993   1.340   4.272
88989W        W50520   3.712  29.126  13.998
88990W        W50521  22.177   3.320   1.384
88991W        W50522  22.041  36.050  11.570
88992W        W50523   3.340  29.528   0.880
88993W        W50524  10.189  36.024   3.779
88994W        W50525  42.853  24.671  10.416
88995W        W50526  35.927  44.332   4.209
88996W        W50527   8.839  22.560   3.191
88997W        W50528  34.993   7.265   4.609
88998W        W50529  18.256  14.128  13.930
88999W        W50530   1.241  27.100  10.927
89000W        W50531  19.236  17.215   2.276
89001W        W50532  21.159  30.602   0.732
89002W        W50533  29.532  44.471  12.865
89003W        W50534  26.065  32.446   2.326
89004W        W50535  23.145  28.137  11.388
89005W        W50536  39.053  44.330   2.388
89006W        W50537   9.752  13.628   2.191
89007W        W50538  29.452  26.635   0.446
89008W        W50539  27.182   1.768  11.587
89009W        W50540  31.567  16.082   2.401
89010W        W50541  44.449   6.788  12.833
89011W        W50542   3.841  41.793  14.847
89012W        W50543  36.018   4.324  14.455
89013W        W50544  12.749  25.002  10.550
89014W        W50545  19.776   8.164   0.249
89015W        W50546  11.233  20.129   0.262
89016W        W50547  32.465  15.224  12.906
89017W        W50548  36.041  20.166  11.450
89018W        W50549  27.061  38.427   4.698
89019W        W50550  34.615  13.660  12.078
89020W        W50551  39.526   2.303   3.805
89021W        W50552  44.967   2.838  11.536
89022W        W50553  29.610  11.173   9.966
89023W        W50554   2.242  20.116   2.810
89024W        W50555   4.711  37.574  13.546
89025W        W50556  31.449  36.555  11.933
89026W        W50557  14.713   8.335   3.773
89027W        W50558  22.166  29.049  13.434
89028W        W50559   0.456   0.289  10.640
89029W        W50560   7.171  38.839   1.327
89030W        W50561  41.822  14.155  14.891
89031W        W50562  43.012  40.368  12.084
89032W        W50563  35.403  42.867  13.331
89033W        W50564  35.881  37.040  11.971
89034W        W50565  30.542   6.416   2.686
89035W        W50566  17.236  40.008   2.400
89036W        W50567  26.196  14.704   2.783
89037W        W50568  16.750  23.557   0.369
89038W        W50569   9.739   1.805   0.457
89039W        W50570  28.132  18.246  13.028
89040W        W50571   7.369  18.691   1.406
89041W        W50572   7.308   0.378   2.704
89042W        W50573  26.093  29.526   1.328
89043W        W50574  24.498   5.324   0.251
89044W        W50575  35.065  40.888  10.413
89045W        W50576  26.968   6.196  12.862
89046W        W50577  29.106  42.406   1.250
89047W        W50578  23.568  34.375   3.638
89048W        W50579  40.938   0.486   3.765
89049W        W50580  25.664  23.620   2.757
89050W        W50581  27.074  31.613   1.769
89051W        W50582  35.102  18.714   4.189
89052W        W50583  14.099   5.734   2.867
89053W        W50584   6.205  21.017   1.417
89054W        W50585  23.599  37.560   3.167
89055W        W50586  26.582  25.657   1.221
89056W        W50587  10.805  15.770   1.315
89057W        W50588  29.542   7.786  13.358
89058W        W50589  27.949   8.166   3.338
89059W        W50590   3.327  32.885  13.038
89060W        W50591  10.171   9.378  10.968
89061W        W50592  12.279  41.522   2.866
89062W        W50593  43.999   8.750  12.065
89063W        W50594   8.750   2.464   0.266
89064W        W50595  39.508  25.089  13.470
89065W        W50596  14.676  39.478  14.389
89066W        W50597  19.668  11.358  10.631
89067W        W50598   3.266  21.523  12.011
89068W        W50599  23.662   7.227  10.572
89069W        W50600  31.126  42.408   2.706
89070W        W50601  26.096  43.292  12.851
89071W        W50602  24.685   8.864  10.058
89072W        W50603  32.397  11.708  11.097
89073W        W50604   7.850  14.594   1.361
89074W        W50605  35.994   4.313  13.816
89075W        W50606  26.479  17.183  13.063
89076W        W50607  20.076   1.407  13.970
89077W        W50608   4.765  20.528  11.028
89078W        W50609  30.597  29.950  13.366
89079W        W50610  44.463  25.180   4.283
89080W        W50611  23.605   0.825   4.195
89081W        W50612  35.060  44.810   2.681
89082W        W50613  26.494  42.300  11.938
89083W        W50614  20.206  34.470   0.920
89084W        W50615  11.838   0.367   3.775
89085W        W50616  16.645  35.959   0.899
89086W        W50617  21.679  23.231   2.353
89087W        W50618  42.006  33.951   0.397
89088W        W50619  39.506  18.076  13.457
89089W        W50620  23.038  37.352  14.475
89090W        W50621  39.933  31.610   4.645
89091W        W50622  12.315  41.855   2.321
89092W        W50623  25.650  29.575  12.514
89093W        W50624  38.850   4.327   1.806
89094W        W50625   4.372  18.636  14.435
89095W        W50626  25.560  28.501   2.739
89096W        W50627  20.658  25.687   0.945
89097W        W50628   0.420  40.376  13.338
89098W        W50629  13.662  39.361   4.707
89099W        W50630  39.459  23.603   1.448
89100W        W50631  14.699  41.918  11.912
89101W        W50632   7.279  33.412  10.550
89102W        W50633  12.635  12.793   2.862
89103W        W50634   1.302  43.446   1.350
89104W        W50635  44.887  19.582  11.020
89105W        W50636  13.661  25.126  12.549
89106W        W50637  20.558  35.440  14.884
89107W        W50638   3.361  33.011  13.403
89108W        W50639  25.650  12.796   2.193
89109W        W50640   8.179  28.679   0.477
89110W        W50641  42.002  42.483  12.964
89111W        W50642  35.035  39.888  13.487
89112W        W50643   7.312   6.756   3.279
89113W        W50644  24.683  25.495   4.339
89114W        W50645  25.060  33.027   1.858
89115W        W50646  39.414  40.984   1.742
89116W        W50647   7.848  43.436  13.963
89117W        W50648  22.648  23.535  13.989
89118W        W50649  36.426  25.037   4.328
89119W        W50650   3.292  20.248   3.750
89120W        W50651   4.855  27.094  13.400
89121W        W50652  34.539  35.477  13.001
89122W        W50653  25.002  15.280   0.735
89123W        W50654  44.361  21.550   4.297
89124W        W50655  40.345  18.050  13.051
89125W        W50656  11.650  17.204   3.246
89126W        W50657   0.754  19.598   3.850
89127W        W50658  10.748  33.093   1.324
89128W        W50659  26.076  13.780  12.030
89129W        W50660  10.299  10.799  11.057
89130W        W50661   2.255   7.263   4.610
89131W        W50662  13.156   7.876   4.748
89132W        W50663  28.971   0.869   0.735
89133W        W50664  15.301   5.854  13.365
89134W        W50665  12.614  22.729  10.554
89135W        W50666  31.540  36.386   3.352
89136W        W50667  14.230  37.490   1.927
89137W        W50668  25.699  23.136  13.543
89138W        W50669  26.956   4.917  13.375
89139W        W50670   8.859  43.962   4.269
89140W        W50671  13.240  42.798   0.352
89141W        W50672  30.492   9.200   1.267
89142W        W50673  16.800  34.938  13.955
89143W        W50674  12.745   6.743  11.569
89144W        W50675  15.087  29.146   2.890
89145W        W50676  20.722  19.252   1.705
89146W        W50677  26.128  27.037  13.509
89147W        W50678   7.768  20.689  13.030
89148W        W50679   0.378   9.838   0.922
89149W        W50680   6.292  27.976  10.095
89150W        W50681  25.986  17.745   4.664
89151W        W50682  35.012  19.668  12.374
89152W        W50683   7.722  32.119  11.417
89153W        W50684  24.599   7.689  10.427
89154W        W50685  12.644  16.091   2.402
89155W        W50686  42.926  36.348   4.317
89156W        W50687  18.737  23.636  11.969
89157W        W50688  23.502  41.812  10.599
89158W        W50689   2.731  35.936  12.417
89159W        W50690   2.290  21.250   2.815
89160W        W50691  34.083  17.140   5.760
89161W        W50692  14.685  33.428   2.796
89162W        W50693  17.666  20.593  13.527
89163W        W50694  14.611  19.617   3.820
89164W        W50695  13.190   8.395   1.383
89165W        W50696  32.593  25.612  12.858
89166W        W50697  38.918  13.736   2.705
89167W        W50698  13.605  39.943  10.634
89168W        W50699   0.975   8.240  12.341
89169W        W50700   9.193  37.915  12.847
89170W        W50701  10.837  18.242   2.872
89171W        W50702  27.110  38.863   4.231
89172W        W50703  43.393  36.495  11.861
89173W        W50704  32.115  12.752  13.978
89174W        W50705  23.987   3.772  10.498
89175W        W50706  30.534   1.294   2.686
89176W        W50707  14.319  38.446   4.746
89177W        W50708  41.791  11.345   0.363
89178W        W50709  16.802  34.587   0.938
89179W        W50710  35.546  44.932  11.115
89180W        W50711  10.702  32.073  14.783
89181W        W50712   9.377  24.621  14.463
89182W        W50713  34.089  22.182   3.371
89183W        W50714  16.191  20.204   0.262
89184W        W50715  34.992  20.714   4.203
89185W        W50716  42.913  10.763  10.978
89186W        W50717  18.789  23.547  12.993
89187W        W50718  16.693   5.368   1.232
89188W        W50719  41.292  23.722   4.712
89189W        W50720  28.136  20.088   0.251
89190W        W50721  30.055   8.723  14.824
89191W        W50722   0.874  23.515  13.886
89192W        W50723  14.099  32.026   2.322
89193W        W50724  30.117  20.594   1.359
89194W        W50725  12.236   9.151  14.338
89195W        W50726   3.436  17.765  13.035
89196W        W50727  12.285  39.940  10.484
89197W        W50728  37.549  34.866   5.296
89198W        W50729  24.560  36.487  13.916
89199W        W50730  29.028  10.761  10.071
89200W        W50731  16.264  22.745  11.012
89201W        W50732  35.596  24.030   2.178
89202W        W50733  17.730  19.091  12.999
89203W        W50734  24.073   3.752   4.713
89204W        W50735  24.499   7.304   3.785
89205W        W50736  16.692   7.833   1.747
89206W        W50737  35.551  12.322   4.611
89207W        W50738  28.591  30.966   2.184
89208W        W50739  11.358  20.728  10.485
89209W        W50740  26.590  23.037   1.897
89210W        W50741   9.794  15.632   0.331
89211W        W50742   1.355  36.376  13.992
89212W        W50743  38.910  11.729   2.216
89213W        W50744  11.717  28.494  11.416
89214W        W50745  18.694   5.282  14.334
89215W        W50746  11.215  41.029   4.646
89216W        W50747  20.092  32.924   2.416
89217W        W50748  12.350  13.737   0.305
89218W        W50749  17.271  11.683   2.694
89219W        W50750   3.383  38.944  14.994
89220W        W50751  12.725   0.831  11.517
89221W        W50752  37.570  34.414  12.366
89222W        W50753   4.802  36.845   4.190
89223W        W50754   4.347  11.642   0.440
89224W        W50755  14.708  37.032   3.365
89225W        W50756  15.299   7.416   3.662
89226W        W50757  44.431  10.142  13.454
89227W        W50758  20.583  36.975  10.897
89228W        W50759  43.465  18.075   0.786
89229W        W50760  33.098   9.735  12.857
89230W        W50761  14.217  35.438  10.618
89231W        W50762  38.850  10.164   3.841
89232W        W50763  21.070  14.821  12.053
89233W        W50764  12.283   6.769   0.394
89234W        W50765  31.117  41.869  10.956
89235W        W50766  34.438  27.957   4.817
89236W        W50767  23.523   0.814  13.944
89237W        W50768  23.528  16.288  14.022
89238W        W50769  15.279  44.298  12.547
89239W        W50770  28.653  27.578   0.966
89240W        W50771  44.008  24.144  14.849
89241W        W50772  24.660  33.896   0.276
89242W        W50773  26.131  36.929   0.480
89243W        W50774  36.567   3.256  13.471
89244W        W50775  17.608   5.353   4.351
89245W        W50776  35.102  31.080   4.234
89246W        W50777  21.115  18.070   4.657
89247W        W50778  10.369  11.737   1.337
89248W        W50779  18.562  35.894  13.315
89249W        W50780  19.047   5.202  13.043
89250W        W50781  36.098   5.782   2.337
89251W        W50782  21.116  17.280  12.424
89252W        W50783   8.298  44.317  11.393
89253W        W50784  36.976  30.446   3.674
89254W        W50785  41.334   9.708   1.912
89255W        W50786  15.606   8.267   4.341
89256W        W50787  20.052  32.023  13.932
89257W        W50788  10.349  33.920   4.341
89258W        W50789  37.870  11.157   0.878
89259W        W50790  24.507  23.096   2.854
89260W        W50791  43.815  20.228  14.792
89261W        W50792  43.860  20.528  12.422
89262W        W50793  13.774  30.118  12.450
89263W        W50794  13.337  41.881  14.337
89264W        W50795  37.555  44.904   2.307
89265W        W50796  39.393  12.127  13.524
89266W        W50797  37.440  16.182   1.274
89267W        W50798  18.621  42.305  14.805
89268W        W50799  33.103  37.358  14.333
89269W        W50800  18.585  40.959   1.229
89270W        W50801   1.292  40.033   2.855
89271W        W50802   6.731  17.593  14.029
89272W        W50803  19.596   3.414   2.399
89273W        W50804  17.247   9.804  10.965
89274W        W50805  43.817  42.307   2.762
89275W        W50806   8.167  28.514   4.240
89276W        W50807  43.011   1.359  14.880
89277W        W50808  31.962  11.670   2.345
89278W        W50809   0.794  39.814  10.982
89279W        W50810  35.889  18.253  10.576
89280W        W50811  19.737  18.084   2.372
89281W        W50812  17.210  41.442   2.706
89282W        W50813  28.109  19.235   0.893
89283W        W50814  28.675   8.342  12.953
89284W        W50815   9.200  13.774  14.811
89285W        W50816  12.825  43.385   2.800
89286W        W50817  38.566  40.843   4.341
89287W        W50818  12.332  32.897  10.969
89288W        W50819  28.564  38.480   4.270
89289W        W50820  11.786  36.992   3.812
89290W        W50821  26.009  44.492   1.270
89291W        W50822  10.841  28.024  14.864
89292W        W50823   8.262  12.840   0.830
89293W        W50824   3.860  14.339   0.281
89294W        W50825   8.716  34.062  11.111
89295W        W50826   0.814  39.453  14.022
89296W        W50827  34.378  12.244   2.861
89297W        W50828  17.082  43.349  13.978
89298W        W50829   2.841  43.867   3.834
89299W        W50830  22.714  27.591   3.816
89300W        W50831   3.452  31.083   0.341
89301W        W50832  11.153  24.050  14.921
89302W        W50833  29.655  12.664   1.759
89303W        W50834   7.187  30.010  14.459
89304W        W50835  13.747  20.222   1.725
89305W        W50836  40.429  28.576  14.293
89306W        W50837  34.596  28.152  11.060
89307W        W50838  11.223   9.810  12.870
89308W        W50839   9.264  43.889   0.249
89309W        W50840   4.316  38.570  11.436
89310W        W50841  28.633   8.818  11.978
89311W        W50842  16.290   2.309  11.114
89312W        W50843  39.479  30.965   2.801
89313W        W50844  21.191  21.185   1.242
89314W        W50845  28.571  18.098  13.939
89315W        W50846  29.569  17.114   2.839
89316W        W50847  26.533  10.815   4.308
89317W        W50848  34.590  20.696   1.903
89318W        W50849   0.865  42.837  11.452
89319W        W50850   9.315  38.446  12.524
89320W        W50851  32.018  24.719  11.947
89321W        W50852  38.511   4.333   0.803
89322W        W50853  27.576   1.732   2.248
89323W        W50854   9.394   3.372   2.188
89324W        W50855  13.227   5.893  10.992
89325W        W50856   0.876  41.028   1.910
89326W        W50857  36.997  44.397   2.387
89327W        W50858  24.716  15.665   1.808
89328W        W50859   9.162  25.677  14.284
89329W        W50860  16.201  36.959  13.510
89330W        W50861  21.630  20.183   4.667
89331W        W50862  23.698  33.436  14.776
89332W        W50863  14.187   3.225   1.391
89333W        W50864  11.208  20.537   3.690
89334W        W50865  25.558  23.698   1.438
89335W        W50866  21.607  20.028  11.514
89336W        W50867   6.724  34.588  14.387
89337W        W50868  19.725  13.796  13.977
89338W        W50869  24.683  24.500   4.204
89339W        W50870   2.458  42.794  14.424
89340W        W50871  13.607  37.948  12.095
89341W        W50872  32.591   9.852  13.445
89342W        W50873  21.709   7.391  10.893
89343W        W50874  25.471   1.467   4.625
89344W        W50875  24.187  16.169   4.208
89345W        W50876  11.748   5.287  13.895
89346W        W50877  13.646  31.420  14.759
89347W        W50878  40.415  21.141   2.694
89348W        W50879   6.342  11.254   4.326
89349W        W50880  18.232  36.459  11.466
89350W        W50881  15.823   2.419  14.374
89351W        W50882  19.666   3.459   1.717
89352W        W50883  23.513  11.329  11.371
89353W        W50884   8.701   1.470  13.804
89354W        W50885  42.824   9.755  11.121
89355W        W50886  41.494  37.976  10.464
89356W        W50887  18.265   8.164  11.899
89357W        W50888  25.020  22.040   3.851
89358W        W50889  25.497   1.829  11.012
89359W        W50890  38.497  27.150   4.116
89360W        W50891   3.281   1.888  13.021
89361W        W50892   3.319  17.596   2.743
89362W        W50893  17.785  40.953   0.481
89363W        W50894   3.719   0.323   3.712
89364W        W50895  32.620  26.062   1.269
89365W        W50896  29.986  31.038   3.751
89366W        W50897  10.298   8.175  14.984
89367W        W50898  34.090  27.602   1.892
89368W        W50899  44.774  33.990  12.366
89369W        W50900  14.192   5.414  11.114
89370W        W50901  23.665  42.962  12.858
89371W        W50902   5.389  26.474   1.350
89372W        W50903  40.318  30.123   1.754
89373W        W50904   1.263  15.801   0.300
89374W        W50905  10.759   0.339  11.990
89375W        W50906  29.647  18.233   0.924
89376W        W50907  25.650  44.279   4.612
89377W        W50908   0.359   3.815   0.331
89378W        W50909  15.128  17.100   0.364
89379W        W50910  18.667  44.816  13.006
89380W        W50911  10.849  25.191   2.385
89381W        W50912   9.221  35.457  13.930
89382W        W50913  27.010   7.725   3.360
89383W        W50914  27.171  19.111  13.836
89384W        W50915  30.072  44.488  12.459
89385W        W50916  26.511   8.173  13.051
89386W        W50917  41.437  12.255   3.806
89387W        W50918  31.899  44.937   2.393
89388W        W50919  28.539  43.491  13.420
89389W        W50920  15.245  34.428  11.387
89390W        W50921  20.143  42.431  14.782
89391W        W50922   3.442   0.427  11.962
89392W        W50923  28.083  39.818   2.761
89393W        W50924  37.057  42.494  14.365
89394W        W50925  32.446  14.143   0.390
89395W        W50926  32.516  21.630  12.035
89396W        W50927  25.666  26.094   4.667
89397W        W50928  22.542  18.559   2.866
89398W        W50929   0.304   6.760   3.221
89399W        W50930  11.861  18.703  14.802
89400W        W50931  44.981  29.995  12.074
89401W        W50932  36.992  31.501   0.304
89402W        W50933  17.128  13.234  11.050
89403W        W50934  14.299  11.655   2.834
89404W        W50935  42.384  27.113   1.829
89405W        W50936   4.872  15.687   3.339
89406W        W50937  22.714  24.576   9.986
89407W        W50938   0.916  19.174  13.520
89408W        W50939  40.869   2.461  12.502
89409W        W50940   9.211  36.361  11.981
89410W        W50941  41.926   9.686  11.998
89411W        W50942  38.509  13.760  10.429
89412W        W50943  22.723   4.215  13.439
89413W        W50944  34.973  37.970  14.285
89414W        W50945  28.584  38.928  10.568
89415W        W50946  18.064   9.174   4.260
89416W        W50947  25.585  23.684  13.492
89417W        W50948   2.236  30.914   1.299
89418W        W50949  38.511  27.970  13.340
89419W        W50950  15.113   1.972  11.527
89420W        W50951   3.729  40.841  12.567
89421W        W50952   1.901  19.734  14.330
89422W        W50953   8.332  36.504   4.649
89423W        W50954  25.074  26.489  13.902
89424W        W50955   2.274  34.073   0.443
89425W        W50956  24.637  10.793  14.765
89426W        W50957  35.370  14.761  10.586
89427W        W50958   8.747  31.149  11.944
89428W        W50959  18.219  38.062  14.904
89429W        W50960  35.452   7.416  11.040
89430W        W50961  24.655  33.059   0.779
89431W        W50962  34.064  20.646   1.251
89432W        W50963   2.742   2.409   4.750
89433W        W50964  21.716   0.977  11.535
89434W        W50965   8.237  32.549   4.232
89435W        W50966  41.327  42.963   0.264
89436W        W50967  40.951  39.402   0.330
89437W        W50968  34.372  18.136  14.948
89438W        W50969  37.855  24.615  13.819
89439W        W50970  12.646  34.865   4.273
89440W        W50971  38.344  34.991   4.330
89441W        W50972  33.512   6.771   4.825
89442W        W50973   6.875   6.881   3.861
89443W        W50974  17.105  19.562   1.766
89444W        W50975  40.378  37.389  12.568
89445W        W50976  22.015  41.294  11.989
89446W        W50977  44.279  26.173  10.083
89447W        W50978   7.822   7.693  10.450
89448W        W50979   5.867  43.812   2.183
89449W        W50980   1.963  39.992  14.028
89450W        W50981   5.721  14.112  12.934
89451W        W50982  33.411  15.817  13.332
89452W        W50983   4.888  18.127  11.470
89453W        W50984  40.904  38.940  14.499
89454W        W50985  35.888  21.128   5.115
89455W        W50986   4.263   8.230   2.857
89456W        W50987  35.525  27.521  12.435
89457W        W50988  31.144  28.503  14.447
89458W        W50989  12.650  35.491  14.020
89459W        W50990  41.338  41.908   1.360
89460W        W50991  30.042  20.216   3.645
89461W        W50992  34.943  29.469   1.329
89462W        W50993  11.682  34.073   2.281
89463W        W50994  13.845   6.818   1.241
89464W        W50995  32.598  44.357   0.365
89465W        W50996  44.990  37.510   3.376
89466W        W50997   5.397  12.349   0.917
89467W        W50998   5.435  41.941  10.995
89468W        W50999  43.416  14.324   1.359
89469W        W51000  30.983  34.418  13.445
89470W        W51001  17.273  15.628  11.477
89471W        W51002   9.196  15.810   1.433
89472W        W51003  37.020  27.523  11.599
89473W        W51004  28.491  20.153   3.189
89474W        W51005  39.952  22.088   1.725
89475W        W51006  12.800  31.465  11.871
89476W        W51007   7.248  27.451   0.888
89477W        W51008  42.475  27.596  11.855
89478W        W51009  27.977  33.540   3.384
89479W        W51010  12.280   9.153  11.049
89480W        W51011  18.239  30.512   4.828
89481W        W51012  43.825  19.276   3.846
89482W        W51013   2.459   7.294   2.270
89483W        W51014  35.978  18.605  13.879
89484W        W51015   2.289  12.846   5.221
89485W        W51016  43.465  23.606   0.820
89486W        W51017  12.773  35.482  13.047
89487W        W51018  32.974  36.502  14.792
89488W        W51019   0.303  22.622  10.485
89489W        W51020   9.362  33.512  10.630
89490W        W51021  21.545  33.927   2.318
89491W        W51022  39.830  32.429   2.810
89492W        W51023   9.257  20.757  10.405
89493W        W51024  33.063  23.221   4.672
89494W        W51025  35.062  11.655   3.748
89495W        W51026  22.216  18.246  13.009
89496W        W51027  21.600  43.513  13.968
89497W        W51028  29.481  13.337   3.673
89498W        W51029  26.614  14.646  10.416
89499W        W51030  18.211  30.638   3.793
89500W        W51031  19.686  13.340   3.793
89501W        W51032  24.685   8.860   1.328
89502W        W51033  28.141  39.481  12.352
89503W        W51034  26.637  16.291   1.717
89504W        W51035  21.731   9.164   4.312
89505W        W51036   4.882   4.301  10.991
89506W        W51037  14.759  25.213   3.668
89507W        W51038  25.045  36.992  11.589
89508W        W51039  28.164  42.362   3.871
89509W        W51040  30.923  13.195  10.986
89510W        W51041  14.261  44.967  14.895
89511W        W51042  41.420  13.137   3.194
89512W        W51043  36.518  25.134   0.742
89513W        W51044  26.106  35.471   1.333
89514W        W51045  33.512  35.529  11.975
89515W        W51046  17.573  33.994  14.382
89516W        W51047   7.326  42.839  12.420
89517W        W51048  35.480  10.242  13.470
89518W        W51049  39.377  29.103  12.523
89519W        W51050  35.562  34.580   3.146
89520W        W51051  14.098  16.103   3.769
89521W        W51052  21.062  35.416  12.578
89522W        W51053  41.419  24.679  11.002
89523W        W51054  18.276  43.893  13.408
89524W        W51055   2.818  38.820  12.922
89525W        W51056  11.634   7.339  14.882
89526W        W51057  27.656  32.551   1.872
89527W        W51058  38.912  29.625  14.428
89528W        W51059  32.960  22.716  13.973
89529W        W51060  28.155  21.630  10.583
89530W        W51061  39.912  44.468  13.464
89531W        W51062  43.383   7.209  11.092
89532W        W51063  30.471  29.020   2.695
89533W        W51064  41.995  13.714   1.375
89534W        W51065  14.731  17.717   4.221
89535W        W51066  10.217  31.564  11.989
89536W        W51067   1.458   9.250   3.687
89537W        W51068   9.272  37.936   0.737
89538W        W51069  36.585  12.780   4.148
89539W        W51070   3.920  17.673   1.388
89540W        W51071  21.647  30.591  12.381
89541W        W51072  10.373  28.948  11.567
89542W        W51073  21.207  21.514   1.703
89543W        W51074  24.008  15.303   0.781
89544W        W51075  33.384  34.968  11.378
89545W        W51076  42.795  21.169   4.755
89546W        W51077  28.077  11.777   3.771
89547W        W51078   6.815  11.342   3.713
89548W        W51079  27.094  13.166   3.379
89549W        W51080   2.760  19.127  11.448
89550W        W51081  12.658  27.012  13.438
89551W        W51082  30.568   0.936   1.394
89552W        W51083  42.327   1.333   1.412
89553W        W51084  28.513  37.465   2.236
89554W        W51085  32.558  42.970   3.347
89555W        W51086  21.620  37.482   0.795
89556W        W51087  32.449  21.623   4.211
89557W        W51088  27.131  33.901   2.204
89558W        W51089  14.589  44.284   2.294
89559W        W51090  34.548  26.989   4.666
89560W        W51091  37.454  18.763   3.222
89561W        W51092  21.600  18.223  10.437
89562W        W51093  12.769  21.568   3.165
89563W        W51094  25.541   4.838  10.506
89564W        W51095  37.448  16.109  10.907
89565W        W51096  30.102  12.309   2.761
89566W        W51097  27.650  38.958   2.834
89567W        W51098  38.395  27.059   1.845
89568W        W51099   2.295   3.946   2.792
89569W        W51100   0.858  37.987  13.055
89570W        W51101  28.488  39.377   4.229
89571W        W51102  11.638  40.857  12.072
89572W        W51103  21.542  43.003  13.815
89573W        W51104  31.505  41.522  12.345
89574W        W51105  16.098  26.610   3.334
89575W        W51106   8.862  28.548   3.272
89576W        W51107  29.163  11.305   3.754
89577W        W51108  38.557  40.409   4.665
89578W        W51109  35.965  37.910   1.422
89579W        W51110  37.919   4.811   2.764
89580W        W51111  37.422   1.291   0.764
89581W        W51112  11.330  38.005   0.291
89582W        W51113  34.118  10.176  13.530
89583W        W51114  16.172  30.915  13.429
89584W        W51115  12.741  34.522   2.859
89585W        W51116  18.711  11.842  11.127
89586W        W51117  36.564  38.426   2.259
89587W        W51118  25.017  41.365   0.813
89588W        W51119  43.330  22.592   2.692
89589W        W51120  37.375  23.182   3.651
89590W        W51121  43.843  35.034  13.819
89591W        W51122   9.661  15.660   2.333
89592W        W51123   9.299  29.455  14.331
89593W        W51124  38.489  33.561   0.829
89594W        W51125   9.856  38.394   2.705
89595W        W51126  25.567  14.644   4.764
89596W        W51127  35.854  31.080   3.739
89597W        W51128  24.569   8.404  11.508
89598W        W51129  32.516  22.747  10.952
89599W        W51130  35.512  34.547  10.976
89600W        W51131  13.735  36.904   2.225
89601W        W51132   1.393  34.034  11.530
89602W        W51133  37.931  44.320   3.229
89603W        W51134  14.179  23.064   4.718
89604W        W51135   3.330  25.103   0.339
89605W        W51136  34.390  30.458  14.513
89606W        W51137   3.232   1.838  14.403
89607W        W51138  36.373   1.970  14.382
89608W        W51139  31.086  35.882  14.001
89609W        W51140  20.036  21.033  11.524
89610W        W51141  40.053  12.357   4.235
89611W        W51142   0.945  30.617  10.539
89612W        W51143  41.310  15.716  12.536
89613W        W51144   9.866  35.531  13.343
89614W        W51145  40.971   4.867  10.906
89615W        W51146   9.852  19.114  12.921
89616W        W51147  27.110  37.453   3.203
89617W        W51148  25.206   1.894  10.476
89618W        W51149  22.672   6.280   9.921
89619W        W51150   8.270   7.323  14.352
89620W        W51151   0.885  23.723   3.239
89621W        W51152  29.447  20.708   3.291
89622W        W51153  23.003  20.144   3.284
89623W        W51154  19.195   7.238   2.896
89624W        W51155  16.267   3.346   2.329
89625W        W51156  34.939  23.650   1.431
89626W        W51157  32.410  12.678   1.351
89627W        W51158   4.876   3.379   3.245
89628W        W51159  21.714  19.098   1.917
89629W        W51160  16.266  37.908   2.885
89630W        W51161   4.725   6.357  10.420
89631W        W51162  26.169  16.291  13.844
89632W        W51163  15.630  15.791  11.072
89633W        W51164   6.695  10.821   2.340
89634W        W51165  37.337   1.873  14.458
89635W        W51166  24.003  20.557   2.260
89636W        W51167  32.900  44.275   3.374
89637W        W51168  21.521  34.916  14.436
89638W        W51169  24.096  31.445   2.335
89639W        W51170  21.120  12.834   4.794
89640W        W51171   9.833   0.799   0.957
89641W        W51172  14.597  29.958   1.694
89642W        W51173  41.791  13.657  14.005
89643W        W51174   8.397  37.008  13.960
89644W        W51175   6.295   8.724  11.577
89645W        W51176  42.360  34.034  12.889
89646W        W51177  43.864  15.577   4.208
89647W        W51178  19.177  26.963   2.852
89648W        W51179   8.329  14.110   1.753
89649W        W51180  41.451  31.084  11.451
89650W        W51181   0.897  24.041   3.249
89651W        W51182  40.830  18.164  10.558
89652W        W51183  39.369  16.655   4.759
89653W        W51184  24.708   2.350   3.346
89654W        W51185  37.877   7.798   4.820
89655W        W51186   3.265  30.042   2.394
89656W        W51187  41.788   7.795   1.403
89657W        W51188  31.482  40.401   3.174
89658W        W51189  17.204  40.813  10.583
89659W        W51190  39.970  39.008  11.859
89660W        W51191  24.224  20.166   1.434
89661W        W51192  21.199  36.423   3.345
89662W        W51193  16.621  30.518  10.146
89663W        W51194   3.842  10.301  13.541
89664W        W51195   6.867  31.937   1.730
89665W        W51196  43.987   6.410  11.040
89666W        W51197  33.915  35.427  12.886
89667W        W51198  43.507  33.432   3.812
89668W        W51199  37.016   2.745  13.371
89669W        W51200  32.137  22.239   0.319
89670W        W51201   0.753  29.572  12.082
89671W        W51202   6.856  26.011   2.242
89672W        W51203  10.338  18.244  11.374
89673W        W51204  39.392  38.869   2.746
89674W        W51205  26.066  27.556  14.935
89675W        W51206   8.796  30.922   4.651
89676W        W51207  24.190  42.476  14.984
89677W        W51208  15.084  40.866  12.016
89678W        W51209   8.693  11.245   3.199
89679W        W51210  17.692  32.061   3.635
89680W        W51211  11.311   3.816   3.247
89681W        W51212  29.630  20.731   0.476
89682W        W51213  28.083  15.083  10.448
89683W        W51214   2.390  28.647   3.636
89684W        W51215  17.603  37.852   2.382
89685W        W51216  32.921  13.248   2.192
89686W        W51217  38.399  31.432   0.375
89687W        W51218  18.103  40.802  10.558
89688W        W51219   3.832  17.264   1.266
89689W        W51220  38.028  27.500  10.412
89690W        W51221   3.739   6.324   0.740
89691W        W51222   8.199  40.936  12.514
89692W        W51223  26.648  25.218  14.026
89693W        W51224  41.868  19.716   0.475
89694W        W51225  39.359  11.674  14.335
89695W        W51226  28.073   2.379  14.923
89696W        W51227  10.835  22.598   0.302
89697W        W51228  13.753   4.837   2.755
89698W        W51229  20.102  34.866  10.534
89699W        W51230  44.425  43.850   2.792
89700W        W51231  24.723  37.916   3.858
89701W        W51232  24.562  17.306  12.477
89702W        W51233  20.273   8.796   1.388
89703W        W51234  36.497  41.496   4.721
89704W        W51235  26.595  31.458  12.002
89705W        W51236  22.065  22.594  11.865
89706W        W51237  43.377  37.057   2.877
89707W        W51238  39.052  42.822   4.296
89708W        W51239   8.725   4.908   2.224
89709W        W51240  44.276   3.861  12.363
89710W        W51241  13.613  23.573   0.455
89711W        W51242  43.373  21.157  10.101
89712W        W51243  37.073  26.055  11.576
89713W        W51244   9.888   2.728  14.386
89714W        W51245   9.179  42.977  10.633
89715W        W51246  38.548   7.732  11.901
89716W        W51247  38.525  27.610   3.233
89717W        W51248  33.945  34.608   0.362
89718W        W51249  40.378   2.256  13.913
89719W        W51250  10.228  16.677  13.456
89720W        W51251   5.249  31.135   4.635
89721W        W51252  23.077  20.597   2.418
89722W        W51253  32.396  31.553   1.840
89723W        W51254  34.994  12.801   3.362
89724W        W51255  31.054   0.489   2.391
89725W        W51256   4.883   0.455  13.920
89726W        W51257   3.295  31.022  13.002
89727W        W51258   1.883  11.764   3.258
89728W        W51259  22.214  18.270  11.896
89729W        W51260   4.434  27.657  10.548
89730W        W51261  20.035  22.998   4.248
89731W        W51262  24.051  22.044  11.059
89732W        W51263  30.034  16.077   0.255
89733W        W51264  18.653  10.239  12.496
89734W        W51265  24.144   7.294  10.595
89735W        W51266   4.907  27.485   4.825
89736W        W51267   7.836  36.056  13.399
89737W        W51268  23.610   9.808   2.290
89738W        W51269  13.171  11.848   1.782
89739W        W51270  27.590   5.767   3.808
89740W        W51271   5.375  16.267   3.381
89741W        W51272  21.086  41.316   2.275
89742W        W51273  15.238  23.091   4.700
89743W        W51274  25.663  42.460  14.972
89744W        W51275  37.968  28.989   3.222
89745W        W51276   9.175   6.853  13.318
89746W        W51277  15.226   1.318  14.826
89747W        W51278  27.100  30.001   2.719
89748W        W51279  18.630  28.559  14.006
89749W        W51280  32.929  36.372   3.209
89750W        W51281  22.643  35.005  13.385
89751W        W51282   7.277  25.683   2.854
89752W        W51283  25.681  38.350  10.944
89753W        W51284  11.794  30.593   3.333
89754W        W51285  29.501  13.827  14.318
89755W        W51286  17.696  38.996   2.385
89756W        W51287  40.956  31.624  12.833
89757W        W51288  20.710  27.557   1.259
89758W        W51289  16.782  26.562   1.853
89759W        W51290  34.552  24.555  12.869
89760W        W51291   4.834  41.841   5.191
89761W        W51292  44.409  15.296  13.482
89762W        W51293  35.508   9.871   0.929
89763W        W51294  28.167   3.361  11.442
89764W        W51295   1.342  37.481  11.071
89765W        W51296  38.881   6.358   1.866
89766W        W51297  20.587  17.142   3.757
89767W        W51298  33.540   4.448  11.438
89768W        W51299  10.848  42.438  11.462
89769W        W51300  39.926  12.830   1.401
89770W        W51301  15.285  15.095   2.777
89771W        W51302  36.403  34.574  11.531
89772W        W51303   7.410  38.017  11.439
89773W        W51304   1.251   2.934  10.504
89774W        W51305  27.460  34.890  10.935
89775W        W51306  10.725  40.367  12.542
89776W        W51307   8.180  26.981  12.968
89777W        W51308   5.432  15.678   1.312
89778W        W51309   4.702  37.365   4.325
89779W        W51310  34.468  41.458  11.479
89780W        W51311   7.332  22.242   2.183
89781W        W51312  15.228  42.796   2.294
89782W        W51313  26.070  14.834  11.122
89783W        W51314  22.630  20.628   0.449
89784W        W51315  35.068   2.400   0.951
89785W        W51316  19.215  30.426   1.278
89786W        W51317  12.829  27.489  11.945
89787W        W51318  19.597  10.375   4.671
89788W        W51319  30.466  25.106   2.222
89789W        W51320  27.482  44.379  14.768
89790W        W51321  39.558  39.001  12.475
89791W        W51322   2.852  27.133  14.944
89792W        W51323  21.038   3.428   4.604
89793W        W51324  14.753  10.755  14.923
89794W        W51325  12.181  35.555   2.715
89795W        W51326   3.921  29.454   4.727
89796W        W51327  14.738  24.606  11.559
89797W        W51328  19.211  23.685   3.386
89798W        W51329  42.777   1.958   4.119
89799W        W51330   6.326  21.638  13.425
89800W        W51331   0.829   8.778  10.893
89801W        W51332   5.336  21.705   2.803
89802W        W51333  35.936  16.082  14.471
89803W        W51334  26.626  41.922  10.630
89804W        W51335  37.576  39.060   4.188
89805W        W51336  18.763   1.977  12.089
89806W        W51337  22.251  17.665  11.560
89807W        W51338  12.617  18.777  14.863
89808W        W51339  16.682  27.129   3.677
89809W        W51340  33.558  29.022   4.283
89810W        W51341  19.610  19.679  12.956
89811W        W51342   1.781  12.778   0.964
89812W        W51343   2.465  43.349  12.477
89813W        W51344  32.614   2.956  14.933
89814W        W51345  24.090   7.741  14.457
89815W        W51346  27.651  39.389   1.376
89816W        W51347   1.964  11.251  12.875
89817W        W51348  22.650  23.570  12.464
89818W        W51349  26.977  39.456  14.349
89819W        W51350  30.562   1.249  12.343
89820W        W51351  23.198  16.134   0.425
89821W        W51352  38.962  33.050  14.970
89822W        W51353  16.236  27.636   4.786
89823W        W51354   2.410  31.602   4.114
89824W        W51355   7.849   9.754   2.773
89825W        W51356  17.597   6.713  11.437
89826W        W51357  25.593  13.286   3.771
89827W        W51358   2.724  38.521   0.268
89828W        W51359  13.675  31.078  14.894
89829W        W51360  13.113  20.526  13.378
89830W        W51361  16.745  13.200   4.709
89831W        W51362  28.950  21.535  11.486
89832W        W51363  36.570  42.943  11.939
89833W        W51364  11.200  18.789  13.384
89834W        W51365  35.464  22.107   1.757
89835W        W51366  40.041  11.256  13.027
89836W        W51367  13.663   5.834  14.823
89837W        W51368  25.085  10.734   1.416
89838W        W51369  15.794   5.358  14.355
89839W        W51370  20.039  39.925   1.770
89840W        W51371  42.396  22.704  13.891
89841W        W51372   8.796  15.290  14.413
89842W        W51373  34.111  36.978   4.187
89843W        W51374   4.770  17.603  11.963
89844W        W51375  25.562  10.633  10.609
89845W        W51376  22.608  40.956   3.181
89846W        W51377  23.068  24.991   3.315
89847W        W51378  10.841   3.371   1.267
89848W        W51379   0.902  23.561   3.828
89849W        W51380  34.921  19.585   1.283
89850W        W51381  35.021   9.775  14.870
89851W        W51382  19.728  20.760   3.307
89852W        W51383  14.224  10.757  12.073
89853W        W51384  26.101  17.262   0.340
89854W        W51385   7.331  40.341  14.929
89855W        W51386   5.310   2.820  14.001
89856W        W51387  43.278  41.796  11.518
89857W        W51388  42.900  28.635   3.698
89858W        W51389  24.592  43.938   2.396
89859W        W51390  11.624  12.808  11.870
89860W        W51391  19.700  40.546  13.999
89861W        W51392   4.741  35.920   4.315
89862W        W51393  32.451  17.644  12.347
89863W        W51394  37.359  24.089  12.070
89864W        W51395  31.438  14.686  13.419
89865W        W51396  26.042  27.013  13.833
89866W        W51397  33.454   3.366  13.364
89867W        W51398  14.624   3.885  13.474
89868W        W51399  17.599  36.391   3.310
89869W        W51400   5.298  21.203  12.048
89870W        W51401  31.564  43.284  12.083
89871W        W51402  32.522  12.184   0.314
89872W        W51403  16.769  27.502   1.312
89873W        W51404   4.882  27.488  13.888
89874W        W51405  16.123  44.472   1.266
89875W        W51406  23.190   1.316  12.047
89876W        W51407  34.406  28.448   4.830
89877W        W51408  22.067  26.951  14.925
89878W        W51409  24.090  41.446  11.537
89879W        W51410  30.564   6.363  10.485
89880W        W51411  38.505  18.681   4.760
89881W        W51412   2.362   6.204  11.572
89882W        W51413  34.426   1.461   2.378
89883W        W51414  34.096  23.661  10.888
89884W        W51415  34.051   5.928  12.445
89885W        W51416  17.757  15.704  14.965
89886W        W51417   7.356  20.145   1.787
89887W        W51418   9.676  12.160   1.217
89888W        W51419  31.579  43.505   2.806
89889W        W51420  16.289   5.836  14.863
89890W        W51421  28.554  22.530  10.408
89891W        W51422  37.464  33.424   2.730
89892W        W51423   0.979  41.441  14.759
89893W        W51424  30.625  11.350  14.457
89894W        W51425  17.208  33.401  11.043
89895W        W51426  22.109  16.680  14.804
89896W        W51427   3.310  32.131   5.094
89897W        W51428  20.208  28.122   3.714
89898W        W51429  16.191  38.047   3.642
89899W        W51430  14.768  38.378   4.705
89900W        W51431  42.344  41.531  13.915
89901W        W51432  15.778  14.229   3.162
89902W        W51433  38.552  27.495   3.650
89903W        W51434   4.769  25.472   1.935
89904W        W51435  21.235   7.196   2.276
89905W        W51436  24.629  30.143   4.758
89906W        W51437  43.498  43.462  13.424
89907W        W51438   8.279  24.557  10.545
89908W        W51439  27.154  30.039  14.821
89909W        W51440  28.116  20.633  12.493
89910W        W51441  22.692   4.922  14.350
89911W        W51442  32.887   2.727   1.934
89912W        W51443   3.427  14.146   4.239
89913W        W51444  32.927  39.520  10.994
89914W        W51445  31.454   4.261  14.903
89915W        W51446  35.444  33.558   4.256
89916W        W51447  37.985  23.721   0.860
89917W        W51448  26.971   2.797  11.052
89918W        W51449   4.930  44.438  13.355
89919W        W51450   3.272  18.221   3.254
89920W        W51451  15.646   6.682  12.422
89921W        W51452  20.571  33.543  11.122
89922W        W51453  34.915  15.701  11.523
89923W        W51454  39.038  25.038   0.470
89924W        W51455  25.586  29.919  12.559
89925W        W51456   8.747  37.344  13.005
89926W        W51457  23.989  20.555   3.801
89927W        W51458  24.010  36.571  11.866
89928W        W51459  43.275  12.222  11.123
89929W        W51460   1.389  30.059  13.448
89930W        W51461   2.948  39.949   3.176
89931W        W51462   4.807  23.187   2.862
89932W        W51463  14.225  18.258  11.084
89933W        W51464  18.716  20.710   1.210
89934W        W51465   7.794  13.819   2.865
89935W        W51466   3.222   3.460   0.885
89936W        W51467  29.459  28.615   1.231
89937W        W51468  24.101   5.426  10.461
89938W        W51469   7.316  35.876   2.387
89939W        W51470  15.145   8.199  12.367
89940W        W51471   4.789  36.535  13.888
89941W        W51472  40.805   3.371  12.984
89942W        W51473  36.968  38.840   4.751
89943W        W51474  10.815  18.208   3.329
89944W        W51475  25.034  12.158   0.833
89945W        W51476  29.456  24.172   2.392
89946W        W51477   5.694  21.602   4.179
89947W        W51478  31.008  33.919  11.089
89948W        W51479  31.414  15.686  13.839
89949W        W51480  16.243  36.027   3.171
89950W        W51481  13.192  18.622   4.777
89951W        W51482  35.898  21.220   2.355
89952W        W51483  14.773  27.109   0.255
89953W        W51484   1.810   1.436  11.413
89954W        W51485  30.965  21.717  14.351
89955W        W51486   3.915  13.117   4.838
89956W        W51487   0.898  26.558  12.923
89957W        W51488  35.017  25.014   2.271
89958W        W51489   4.227   9.832   4.607
89959W        W51490  16.157  42.989   1.816
89960W        W51491   6.373  33.035   3.683
89961W        W51492  11.183  37.998  13.998
89962W        W51493  14.605  44.375  10.642
89963W        W51494  14.790  35.003  13.896
89964W        W51495  39.968  40.039   2.262
89965W        W51496  16.651  36.876  12.033
89966W        W51497  33.066  31.437  11.107
89967W        W51498  27.019  30.485  10.087
89968W        W51499  27.147   1.315   4.128
89969W        W51500  13.708  11.841   3.166
89970W        W51501  43.965  28.034  12.076
89971W        W51502  41.034   4.282  12.032
89972W        W51503  19.055   7.219   1.863
89973W        W51504  30.495  24.534   4.772
89974W        W51505   0.292  16.166  14.833
89975W        W51506  31.568  36.465  11.020
89976W        W51507   6.352  29.156  14.509
89977W        W51508  26.605   1.819  14.995
89978W        W51509  40.802  44.925   2.855
89979W        W51510  43.839   7.782  14.771
89980W        W51511  41.804  42.912  13.909
89981W        W51512  38.460   7.383   2.663
89982W        W51513  41.432  13.608   4.710
89983W        W51514  19.740  21.557   3.669
89984W        W51515  32.054  13.702   0.948
89985W        W51516  39.847  16.793  13.893
89986W        W51517  28.441  42.958  11.430
89987W        W51518  27.014  24.191  10.990
89988W        W51519   2.386  21.582  12.455
89989W        W51520  29.634  14.805  13.452
89990W        W51521   5.242   3.725  14.844
89991W        W51522   3.948  13.319  14.327
89992W        W51523  14.172  29.101  11.916
89993W        W51524  22.220  19.155  14.464
89994W        W51525  38.879  15.249   4.799
89995W        W51526  34.438   7.859  11.595
89996W        W51527   4.242  36.440   2.274
89997W        W51528  20.633   7.295   4.228
89998W        W51529   5.329   0.849  10.972
89999W        W51530   3.438  30.655  11.041
90000W        W51531  25.977  11.840  14.511
90001W        W51532  23.705  13.105  11.391
90002W        W51533  25.191   2.270  14.781
90003W        W51534   7.313   7.233   1.779
90004W        W51535  34.587   0.455  14.468
90005W        W51536  41.299  41.933   4.287
90006W        W51537  17.578  10.306  14.510
90007W        W51538   4.761  10.852  10.973
90008W        W51539   6.222   9.707  14.984
90009W        W51540  27.570  30.133  10.627
90010W        W51541  18.772  42.345  10.948
90011W        W51542  12.651  26.134  12.958
90012W        W51543   9.797  27.038   1.222
90013W        W51544  16.567   6.698  12.006
90014W        W51545  15.715  14.180  11.932
90015W        W51546  42.893  16.611   3.653
90016W        W51547  29.555   2.450   3.668
90017W        W51548   9.729   7.309   4.628
90018W        W51549  37.905  40.909   5.659
90019W        W51550  10.864   6.755  10.590
90020W        W51551   8.250  17.788   1.252
90021W        W51552   0.906  27.984  12.554
90022W        W51553  11.244  34.003   9.957
90023W        W51554  13.601  41.986   0.940
90024W        W51555  34.030  11.822   0.276
90025W        W51556  15.633   6.235   1.904
90026W        W51557  13.304  13.659   0.327
90027W        W51558  17.202  13.740  10.566
90028W        W51559  20.237  39.962  14.789
90029W        W51560  39.983  27.964  11.027
90030W        W51561  18.060  16.228   3.164
90031W        W51562   9.384   5.211  12.979
90032W        W51563  16.628  30.440  13.450
90033W        W51564  17.137  24.067   2.408
90034W        W51565  18.201  21.251   2.884
90035W        W51566   2.848  10.253  13.443
90036W        W51567  27.014   2.722  10.607
90037W        W51568  22.703   3.232   0.964
90038W        W51569  16.177  36.501  12.951
90039W        W51570  43.897  21.103   2.768
90040W        W51571  17.078  25.008   2.779
90041W        W51572   4.223   3.294   0.967
90042W        W51573  26.692  26.045  14.028
90043W        W51574  39.866  43.274   3.344
90044W        W51575  36.090  15.811   5.239
90045W        W51576  31.090  32.031  14.766
90046W        W51577  22.664   1.317   0.779
90047W        W51578  44.399  28.475  13.444
90048W        W51579  18.114   2.330   2.895
90049W        W51580  22.661   2.759  10.620
90050W        W51581  12.313  14.748  11.951
90051W        W51582  24.642  37.850  13.001
90052W        W51583  23.682  33.018   1.913
90053W        W51584   4.787   6.894  13.509
90054W        W51585   1.431   2.313   1.807
90055W        W51586  17.191  36.492   2.189
90056W        W51587  34.492  29.552  11.546
90057W        W51588   4.414   5.898  11.899
90058W        W51589   2.277  41.840   0.884
90059W        W51590  27.085   6.921  11.442
90060W        W51591  17.205   2.815   4.785
90061W        W51592  17.634  30.502  12.349
90062W        W51593  35.601  25.573   0.958
90063W        W51594  33.578  23.720   2.667
90064W        W51595  44.441  16.737  11.063
90065W        W51596  35.473  12.201  12.476
90066W        W51597  38.837  14.643   2.870
90067W        W51598  19.582  18.767  12.878
90068W        W51599   7.213  11.141  12.519
90069W        W51600  13.268  13.176   3.226
90070W        W51601  27.561  34.879   2.408
90071W        W51602  27.021  14.203  10.614
90072W        W51603  10.347  39.326   4.242
90073W        W51604   8.676  31.516   3.329
90074W        W51605   0.954   0.463   2.263
90075W        W51606  19.768  24.499   9.921
90076W        W51607  38.504   9.228  14.446
90077W        W51608  41.394   5.918  12.553
90078W        W51609  17.069  32.024   0.813
90079W        W51610   8.359  17.666   4.813
90080W        W51611  37.018  11.688  13.314
90081W        W51612  13.233   7.378  10.433
90082W        W51613  23.075  23.194  13.309
90083W        W51614  31.130   8.262   3.263
90084W        W51615  22.507  25.503   4.283
90085W        W51616   4.782   0.381   3.783
90086W        W51617  34.104  22.028   0.461
90087W        W51618  13.703   6.226  10.464
90088W        W51619   0.909  18.181   2.739
90089W        W51620  28.602  26.020  14.930
90090W        W51621  25.593  18.181  11.427
90091W        W51622  41.510   6.422   4.783
90092W        W51623   0.304  38.484   2.820
90093W        W51624   6.898  30.414  14.950
90094W        W51625  22.541  40.997  12.495
90095W        W51626  34.401   7.206   4.783
90096W        W51627  29.111  43.990  10.449
90097W        W51628  14.245  13.766  13.315
90098W        W51629  23.642  27.052   2.183
90099W        W51630  27.636  25.020   1.223
90100W        W51631  22.136  10.699  11.385
90101W        W51632  41.917   5.205   3.358
90102W        W51633  39.421  31.487   0.949
90103W        W51634  32.041  17.267  10.508
90104W        W51635  42.794  37.056   1.760
90105W        W51636  37.418   6.904  10.576
90106W        W51637  26.634  34.090  12.576
90107W        W51638  21.045  16.711  11.114
90108W        W51639  34.921  39.052   1.752
90109W        W51640  37.018  42.834  12.928
90110W        W51641  25.503  37.857  10.928
90111W        W51642   3.807  20.229   1.277
90112W        W51643  35.474   7.342   4.170
90113W        W51644  39.448  29.635   3.290
90114W        W51645   9.176  10.712  11.948
90115W        W51646  42.420  40.482  13.483
90116W        W51647  14.118  42.308  14.493
90117W        W51648  22.097  43.410   1.849
90118W        W51649  30.117  43.396  11.086
90119W        W51650  18.108  21.068  13.478
90120W        W51651  17.139  11.724   3.345
90121W        W51652  20.181   7.848  12.358
90122W        W51653   3.216  34.509  10.644
90123W        W51654  29.929  18.080   2.857
90124W        W51655  28.536  13.115  14.902
90125W        W51656   6.382  19.549  12.495
90126W        W51657  29.928   2.752  13.504
90127W        W51658   2.860  30.625   3.305
90128W        W51659  44.267   5.732  11.586
90129W        W51660  35.443  15.109   2.855
90130W        W51661   9.358  19.183  12.472
90131W        W51662  44.897  41.339  11.909
90132W        W51663  32.907   0.898  11.468
90133W        W51664  36.454   8.730  14.963
90134W        W51665   6.829   8.247   1.929
90135W        W51666  27.578  21.148  13.025
90136W        W51667   2.935  18.157   0.297
90137W        W51668   2.252   4.431  13.489
90138W        W51669   5.296  43.953  11.057
90139W        W51670  28.541  18.762   4.314
90140W        W51671  28.067  28.648  10.481
90141W        W51672  30.090  35.585  13.480
90142W        W51673  14.319  43.800  10.447
90143W        W51674   5.248  10.806   3.789
90144W        W51675   6.703   8.700   2.397
90145W        W51676  27.067  37.392  13.017
90146W        W51677  40.306  23.046   1.256
90147W        W51678   9.280  11.635  14.395
90148W        W51679  35.425  38.952   0.875
90149W        W51680  11.364  25.052   3.372
90150W        W51681  44.468  11.663   2.772
90151W        W51682  19.696  21.623  13.953
90152W        W51683   9.268  41.499   4.780
90153W        W51684  32.066  37.344   1.210
90154W        W51685  26.180  39.879   4.620
90155W        W51686  21.237  42.001  14.343
90156W        W51687   9.203  20.685   1.319
90157W        W51688  12.121  23.193   3.822
90158W        W51689  16.099   9.289   4.837
90159W        W51690  26.994  42.424   1.920
90160W        W51691  14.115  31.928  13.482
90161W        W51692  42.837  35.588   0.852
90162W        W51693  42.379  20.169  13.915
90163W        W51694  43.375  28.557  11.909
90164W        W51695  25.131  42.410   1.255
90165W        W51696   4.272   3.394   3.346
90166W        W51697  34.456  34.390  11.864
90167W        W51698   2.771  10.164  14.900
90168W        W51699  38.398   7.232  13.860
90169W        W51700  31.501  35.074   3.677
90170W        W51701  35.494  43.494   4.732
90171W        W51702  10.228  18.675   3.864
90172W        W51703  16.096  38.989  13.013
90173W        W51704  19.275   1.474   2.792
90174W        W51705  15.185  40.976  14.456
90175W        W51706  16.796   2.376  11.913
90176W        W51707   6.681  35.097   0.451
90177W        W51708   5.223  28.133   3.272
90178W        W51709  38.564   8.286  11.921
90179W        W51710  22.721   7.677  12.833
90180W        W51711  30.024  24.555   3.808
90181W        W51712  25.711  21.154  13.353
90182W        W51713  29.428  40.527  13.442
90183W        W51714  33.011   4.211  12.955
90184W        W51715  29.036   1.832   1.800
90185W        W51716  42.422  43.876   1.789
90186W        W51717  23.012  10.274   2.326
90187W        W51718  13.345  29.508  12.895
90188W        W51719  10.353  39.015  13.373
90189W        W51720  14.730  11.248  14.961
90190W        W51721  10.347  18.704  14.800
90191W        W51722   3.452  34.482   0.812
90192W        W51723  11.811  43.324  10.428
90193W        W51724  19.150  20.217  11.533
90194W        W51725   5.777  31.908  10.550
90195W        W51726  19.042  42.983   1.422
90196W        W51727  41.485   8.294   2.803
90197W        W51728  19.080  17.729  12.549
90198W        W51729  14.265  42.953   3.673
90199W        W51730  14.260  15.799   2.818
90200W        W51731  14.629  43.811   0.961
90201W        W51732  35.058  14.114  12.997
90202W        W51733  43.889  11.796   1.777
90203W        W51734  21.596  39.813  13.060
90204W        W51735  22.626   5.797   3.251
90205W        W51736  25.984  22.041  14.932
90206W        W51737  39.489  22.244   0.415
90207W        W51738  38.022  11.710  14.400
90208W        W51739  28.037  13.731  14.899
90209W        W51740  16.156  34.574  10.558
90210W        W51741  28.493  11.755  13.546
90211W        W51742   7.282  32.440   1.259
90212W        W51743  44.774  35.543   4.606
90213W        W51744  33.088   3.385   1.814
90214W        W51745  12.256  22.012  13.935
90215W        W51746  10.793  24.216  14.005
90216W        W51747  40.012  13.189   4.113
90217W        W51748   4.225   6.213   2.401
90218W        W51749   3.944   6.775   4.328
90219W        W51750  10.368  10.644   0.378
90220W        W51751  36.884  30.598   0.402
90221W        W51752  23.712  15.317  11.611
90222W        W51753   5.349  31.413  13.453
90223W        W51754  19.558  38.426   0.301
90224W        W51755   7.870  38.348  12.862
90225W        W51756  25.591  42.349   1.244
90226W        W51757   4.279   8.699   1.711
90227W        W51758  31.910  20.034   1.275
90228W        W51759  13.239  28.059   2.706
90229W        W51760  22.579   7.696  14.471
90230W        W51761   6.692  36.974  14.479
90231W        W51762  13.336  25.608   4.606
90232W        W51763  33.383   9.762  13.419
90233W        W51764   9.813   8.859   0.290
90234W        W51765  26.667   1.779   3.335
90235W        W51766  28.540   4.435  13.955
90236W        W51767  18.253  38.845  10.524
90237W        W51768   7.871   8.666  11.964
90238W        W51769  34.600  42.477  13.433
90239W        W51770  27.610  28.628   4.747
90240W        W51771   8.861   5.773   4.206
90241W        W51772  27.640   7.262   2.754
90242W        W51773  16.630  44.809   3.764
90243W        W51774  32.557  12.815  11.532
90244W        W51775  35.372  38.819   4.193
90245W        W51776  26.050   3.281   3.666
90246W        W51777  12.170  12.790   2.741
90247W        W51778  27.990   6.853  12.081
90248W        W51779  27.164  17.790  14.482
90249W        W51780   6.730  32.572   2.787
90250W        W51781  23.160  15.603  14.898
90251W        W51782   3.827  31.049  14.924
90252W        W51783  20.058  13.783  10.641
90253W        W51784  12.772  12.646  12.437
90254W        W51785  38.063  24.720   1.935
90255W        W51786  41.841  40.956  13.308
90256W        W51787  29.959  20.551   2.280
90257W        W51788   9.756  30.050   2.794
90258W        W51789  39.472  20.218  12.389
90259W        W51790  29.450   1.410   2.399
90260W        W51791  44.871  19.240   3.691
90261W        W51792   1.335  32.468   1.277
90262W        W51793  41.913  29.943   0.421
90263W        W51794  19.127   0.440  14.366
90264W        W51795  35.003  37.359  14.394
90265W        W51796   4.759   0.408   4.305
90266W        W51797  17.703  24.566  12.983
90267W        W51798  34.080  16.606   2.204
90268W        W51799  18.695  28.600  14.819
90269W        W51800  40.484  17.705  11.921
90270W        W51801   2.769  29.640  13.804
90271W        W51802  11.643  23.606  11.521
90272W        W51803  11.287  21.097  12.964
90273W        W51804  19.234   6.770   4.751
90274W        W51805   7.311   9.871  10.900
90275W        W51806  34.927  16.803  11.898
90276W        W51807  24.062   9.666  10.499
90277W        W51808  31.071  16.713   5.710
90278W        W51809  27.564  14.834  11.604
90279W        W51810  37.878  19.169   0.313
90280W        W51811  31.556   3.422   5.116
90281W        W51812  22.706   5.923   4.745
90282W        W51813  16.623  31.512  11.465
90283W        W51814   3.253  16.315  10.409
90284W        W51815  25.050  27.166  13.808
90285W        W51816  16.293   8.211  11.509
90286W        W51817   4.936  28.966  10.999
90287W        W51818  28.633  23.210   4.199
90288W        W51819  44.397   9.694  12.392
90289W        W51820  20.052  12.301   1.790
90290W        W51821  21.125   6.773   2.898
90291W        W51822  21.202  30.541  11.414
90292W        W51823  25.178  20.567  10.974
90293W        W51824  44.954  21.041   4.609
90294W        W51825  40.818  18.147  13.924
90295W        W51826  43.361   1.731   4.766
90296W        W51827  26.636  44.445   1.265
90297W        W51828  41.911  35.379  11.529
90298W        W51829  18.622  22.182   4.727
90299W        W51830   9.176  29.137  12.017
90300W        W51831  36.071  16.738   1.742
90301W        W51832   3.726  32.423  14.022
90302W        W51833   0.879  32.547   2.779
90303W        W51834  13.611  21.215   0.266
90304W        W51835  33.917  38.058   2.371
90305W        W51836  29.061  29.426   1.266
90306W        W51837  34.426  19.232   3.385
90307W        W51838  16.575  43.371  12.085
90308W        W51839  40.935  38.031  13.424
90309W        W51840  39.058  39.509   0.967
90310W        W51841  28.577  14.705  13.038
90311W        W51842  28.085  39.973  14.983
90312W        W51843  33.939  29.088  14.901
90313W        W51844  13.816  43.460   2.218
90314W        W51845  12.146  25.145   3.243
90315W        W51846  29.102   9.777   0.318
90316W        W51847   0.843  15.253  10.934
90317W        W51848  42.313  44.374   1.370
90318W        W51849  31.520   8.737   3.785
90319W        W51850   6.290  20.568   0.826
90320W        W51851  41.913  26.046  13.408
90321W        W51852  13.293  18.573  13.934
90322W        W51853  24.565   1.462   3.321
90323W        W51854  13.702   0.351   3.350
90324W        W51855  13.658  42.306   3.278
90325W        W51856  18.216  41.404   4.738
90326W        W51857  21.697  31.943  12.491
90327W        W51858  23.035   8.696   3.262
90328W        W51859  25.660  18.619   4.817
90329W        W51860  39.337  37.438  12.349
90330W        W51861  20.744  35.512   2.899
90331W        W51862   2.939  21.754  10.998
90332W        W51863  38.916  40.852   4.778
90333W        W51864  18.193  29.499   2.707
90334W        W51865  22.615  37.486  10.573
90335W        W51866   0.798  22.665  13.366
90336W        W51867  37.864  11.827   5.320
90337W        W51868  40.924   7.377  11.488
90338W        W51869   6.240  35.008   2.890
90339W        W51870  33.518  33.020   2.408
90340W        W51871   8.803  43.917   3.180
90341W        W51872  11.285  36.002  13.829
90342W        W51873   4.797  38.918  13.017
90343W        W51874  40.530  28.968  12.071
90344W        W51875   9.367  13.238   2.410
90345W        W51876  27.621  24.518   4.752
90346W        W51877  26.668   9.881   4.646
90347W        W51878  42.373  13.634  14.453
90348W        W51879  24.151  18.050  10.978
90349W        W51880  41.492  13.327  13.799
90350W        W51881  32.600  18.222  11.042
90351W        W51882  44.876   6.683  13.831
90352W        W51883  35.000   3.780   0.376
90353W        W51884  27.064  18.074  10.892
90354W        W51885   0.327   9.168   4.725
90355W        W51886  41.882  19.076  13.888
90356W        W51887  28.065  37.571  10.578
90357W        W51888   9.668   6.899   2.399
90358W        W51889   3.231  39.416   0.256
90359W        W51890  31.441  22.553   2.201
90360W        W51891  22.575  43.354  11.100
90361W        W51892  29.018   5.332   4.687
90362W        W51893  28.649   1.419  13.877
90363W        W51894  14.800   0.818   3.287
90364W        W51895  33.483  24.614   1.237
90365W        W51896  23.707  12.788  11.402
90366W        W51897  33.536  11.797  11.926
90367W        W51898  37.914  12.771   4.673
90368W        W51899  20.737  15.327   2.204
90369W        W51900   3.247  15.634   2.271
90370W        W51901  29.066  31.940  14.981
90371W        W51902   7.322  28.597  13.499
90372W        W51903  30.080  19.738   0.744
90373W        W51904  21.043  11.832  14.940
90374W        W51905  41.424  32.013   3.645
90375W        W51906   5.752  13.221   1.933
90376W        W51907  37.485  36.487  11.997
90377W        W51908  21.686  37.880   3.150
90378W        W51909   5.825   8.396  11.119
90379W        W51910  23.591  16.795   2.358
90380W        W51911  26.075  42.978  10.444
90381W        W51912   5.420  44.294   3.693
90382W        W51913  22.239  31.088  13.502
90383W        W51914  16.705  19.209  12.071
90384W        W51915   9.327  42.434   1.291
90385W        W51916   9.352  15.791  12.978
90386W        W51917  21.206  41.403  12.450
90387W        W51918  25.064  41.936   4.656
90388W        W51919  36.504   0.762   2.661
90389W        W51920  36.006   3.335  11.383
90390W        W51921  30.067   7.720   2.866
90391W        W51922  24.191  42.958  10.462
90392W        W51923  42.895   1.311   2.823
90393W        W51924  29.665   8.256  11.383
90394W        W51925  40.463  13.827  13.946
90395W        W51926   0.469   6.854  13.849
90396W        W51927  44.464  38.504   2.236
90397W        W51928  12.624  17.275  12.899
90398W        W51929  13.213  18.179  11.903
90399W        W51930  11.717  28.133  10.890
90400W        W51931   6.360   5.423  14.490
90401W        W51932  16.268  15.232  10.430
90402W        W51933  19.138   2.754  12.920
90403W        W51934   0.461  38.353   3.684
90404W        W51935   2.847  20.153  10.453
90405W        W51936  28.543  40.983  14.399
90406W        W51937  34.606  44.772   3.375
90407W        W51938  31.949  20.070  12.355
90408W        W51939  18.285   7.809  11.126
90409W        W51940  11.170  31.578  13.794
90410W        W51941  26.491  26.970   1.796
90411W        W51942  31.531  20.571   1.381
90412W        W51943  15.805  22.654  10.941
90413W        W51944  25.689  25.027  12.453
90414W        W51945  43.837  39.998  13.033
90415W        W51946  34.603  14.118   2.727
90416W        W51947   4.213  44.805  11.431
90417W        W51948  32.554  18.780   2.895
90418W        W51949  41.017  11.285   3.767
90419W        W51950  28.636   5.432  13.915
90420W        W51951   5.388  21.147  10.408
90421W        W51952  37.515  40.537  14.293
90422W        W51953  33.587   4.280   4.734
90423W        W51954   9.739  13.237   0.922
90424W        W51955  37.425  31.530   4.326
90425W        W51956   2.827   1.418   2.230
90426W        W51957  29.937  14.823  14.352
90427W        W51958   8.310  22.239  10.586
90428W        W51959  42.795  43.278   2.211
90429W        W51960   9.706  26.088   2.405
90430W        W51961  44.955   6.345   4.644
90431W        W51962  39.447   2.446  14.832
90432W        W51963  20.153  39.410  12.404
90433W        W51964  36.032  33.932   2.783
90434W        W51965  22.553  23.515  10.450
90435W        W51966  10.849  21.618   1.217
90436W        W51967  13.180   0.850  14.914
90437W        W51968  16.158  25.628  11.047
90438W        W51969  40.882  16.684  14.999
90439W        W51970  28.445  32.499   1.717
90440W        W51971   2.266  25.628  14.974
90441W        W51972   5.302  17.714  12.013
90442W        W51973  31.427  34.957   0.420
90443W        W51974   2.288   1.257  14.305
90444W        W51975  31.497   6.764   3.738
90445W        W51976  19.712   6.247   3.368
90446W        W51977  10.154  14.748  12.479
90447W        W51978   9.694   9.757  12.994
90448W        W51979  43.326  37.464  13.494
90449W        W51980  33.049  29.553   2.800
90450W        W51981  40.515  31.906  12.886
90451W        W51982  28.082  18.580  11.537
90452W        W51983  11.743   2.266   0.424
90453W        W51984  33.048  40.891  12.458
90454W        W51985   6.220  25.511   2.856
90455W        W51986  30.134  14.292   2.875
90456W        W51987  19.567  25.547   3.282
90457W        W51988  11.329   7.777  14.983
90458W        W51989  24.212  10.742  14.501
90459W        W51990  42.919  18.154  12.457
90460W        W51991  32.928  40.416   3.843
90461W        W51992  40.363  17.697  10.534
90462W        W51993  43.291  39.356  11.427
90463W        W51994  17.625  39.055   4.261
90464W        W51995  23.542  40.803  11.546
90465W        W51996  20.177  24.048  14.495
90466W        W51997  14.271   2.897  12.572
90467W        W51998   1.253  12.267   2.410
90468W        W51999  16.096   5.720   2.233
90469W        W52000  35.962  23.672   1.343
90470W        W52001  31.949  17.267  11.108
90471W        W52002   8.897   9.816   3.172
90472W        W52003  41.022   6.222  14.397
90473W        W52004  33.437  31.040   3.722
90474W        W52005   6.212  17.599  11.468
90475W        W52006  11.764  38.379   4.246
90476W        W52007  14.600  12.663  12.524
90477W        W52008  10.781   6.419   1.356
90478W        W52009  38.069   3.716  12.083
90479W        W52010   1.331   7.206  11.069
90480W        W52011   4.273  12.802   1.934
90481W        W52012   9.761   4.738   5.280
90482W        W52013   7.829  14.134   3.366
90483W        W52014  35.008  35.546  13.938
90484W        W52015  38.829  31.500  12.890
90485W        W52016   0.929  18.291   3.652
90486W        W52017  10.877  36.403  12.841
90487W        W52018  27.150  11.266   1.320
90488W        W52019  37.896  24.215   1.385
90489W        W52020  43.891   6.318  10.641
90490W        W52021  35.971  43.767   1.217
90491W        W52022  20.667   3.270  14.970
90492W        W52023   0.463  26.587   2.727
90493W        W52024  12.611  39.461   1.449
90494W        W52025  28.056   8.360  13.328
90495W        W52026  21.084  28.156  12.481
90496W        W52027  21.066  17.613   2.751
90497W        W52028  38.073  29.956  12.917
90498W        W52029  27.570  38.009  12.354
90499W        W52030  24.499  20.155  12.559
90500W        W52031  21.235   3.730   4.816
90501W        W52032  18.558  41.514  12.975
90502W        W52033  18.100  30.013  10.985
90503W        W52034  40.812  21.514  12.360
90504W        W52035  19.703  35.906  13.505
90505W        W52036  20.112  23.014   1.293
90506W        W52037  17.244  18.091  13.964
90507W        W52038   6.281  15.693  14.810
90508W        W52039  21.178  16.802  12.074
90509W        W52040  33.996  28.577   1.447
90510W        W52041  32.071  11.739  14.409
90511W        W52042  28.679   8.734  11.429
90512W        W52043  11.367  38.930  14.943
90513W        W52044  35.911   2.294   2.842
90514W        W52045  28.667  39.023  13.501
90515W        W52046  23.666  28.035  12.007
90516W        W52047  12.708  22.695  11.597
90517W        W52048  31.462  34.105   0.736
90518W        W52049   5.308  30.121   0.387
90519W        W52050  12.201  34.396   3.302
90520W        W52051  12.192   8.360   1.411
90521W        W52052   1.789  27.501  12.849
90522W        W52053  13.281  34.505   3.329
90523W        W52054  34.497   2.309   1.828
90524W        W52055  23.229   1.378  14.470
90525W        W52056  23.120  44.795   0.788
90526W        W52057   7.224  24.540   2.354
90527W        W52058  30.574  25.620  10.510
90528W        W52059  42.954   9.190   0.765
90529W        W52060  20.547   8.726   0.436
90530W        W52061  35.580  31.430  10.518
90531W        W52062  39.499  32.429   4.632
90532W        W52063  31.565  43.357   3.853
90533W        W52064  11.773   3.871  12.852
90534W        W52065  28.164  25.149  14.284
90535W        W52066  33.046  20.717   4.638
90536W        W52067   9.305   2.466   0.264
90537W        W52068   1.446   5.761   0.757
90538W        W52069  41.793  44.760   3.284
90539W        W52070  31.001  32.510   2.408
90540W        W52071  38.351  39.504   3.749
90541W        W52072   7.717  17.274   3.759
90542W        W52073   1.297  28.171   2.383
90543W        W52074   6.828  35.512  14.802
90544W        W52075  10.362  29.613   3.346
90545W        W52076  12.289  25.520   3.866
90546W        W52077  32.073  34.004   4.790
90547W        W52078  34.998  13.197  12.512
90548W        W52079  10.843  38.380   1.378
90549W        W52080   7.261  10.216   3.219
90550W        W52081   6.781  29.019  14.355
90551W        W52082  27.564  36.468   1.790
90552W        W52083  38.486  40.900   1.428
90553W        W52084   3.444   2.761  12.462
90554W        W52085   4.881  34.533   3.858
90555W        W52086  43.791  23.626  12.040
90556W        W52087  14.761  14.699   1.252
90557W        W52088   1.351   6.368  12.361
90558W        W52089  21.153  20.558  11.893
90559W        W52090   6.777   1.808   2.355
90560W        W52091  44.917  22.081  11.107
90561W        W52092  30.656  25.194  12.477
90562W        W52093  35.856  31.977   4.627
90563W        W52094  33.905  25.101   3.824
90564W        W52095  31.019  29.156   2.720
90565W        W52096  37.387  41.388   0.447
90566W        W52097  16.605  27.658   1.792
90567W        W52098  38.950  17.638  10.519
90568W        W52099   7.722  36.590  12.444
90569W        W52100  21.749  24.706  11.443
90570W        W52101  14.290  41.474   3.696
90571W        W52102  32.633   4.260  14.335
90572W        W52103  23.547  19.653  11.478
90573W        W52104  18.273  31.409   3.251
90574W        W52105  32.104  22.537  14.890
90575W        W52106   6.917   1.302   4.833
90576W        W52107  11.820  14.727   1.397
90577W        W52108  33.969  12.645  10.449
90578W        W52109  17.164   8.655  12.439
90579W        W52110  31.142  19.627   5.259
90580W        W52111  16.143  22.140   2.783
90581W        W52112  40.838  32.614   4.327
90582W        W52113  20.189   6.875  14.431
90583W        W52114  24.488  40.821   2.788
90584W        W52115   2.946   2.783   2.808
90585W        W52116   2.810  27.024   3.790
90586W        W52117  14.793   8.663  13.422
90587W        W52118   0.259  19.706  14.336
90588W        W52119  32.912  40.976  11.107
90589W        W52120  11.761  29.431   1.423
90590W        W52121  24.174  30.519  12.459
90591W        W52122   7.784  40.453   3.290
90592W        W52123  28.094  38.983   4.308
90593W        W52124  18.569  21.085  13.483
90594W        W52125   4.278  29.563   3.271
90595W        W52126  14.595  44.870   3.850
90596W        W52127  35.898  11.790  11.413
90597W        W52128  39.390  19.731  10.410
90598W        W52129  19.681  34.875   3.284
90599W        W52130  21.676  41.519   1.766
90600W        W52131  42.364   1.904  12.565
90601W        W52132  21.020  41.968   2.839
90602W        W52133  29.146  23.508  10.466
90603W        W52134  40.368  31.939  13.500
90604W        W52135   8.691  28.149   4.248
90605W        W52136  41.942   2.452   0.793
90606W        W52137  22.224  17.613  13.457
90607W        W52138  32.043   8.227   2.197
90608W        W52139   0.855  43.515   3.743
90609W        W52140   6.369   0.458   4.837
90610W        W52141  27.499  39.400  10.957
90611W        W52142  12.150  28.443   4.300
90612W        W52143  29.431   0.900   3.149
90613W        W52144  11.341  25.556  13.528
90614W        W52145   4.294  23.053   3.651
90615W        W52146  32.439  13.280   3.867
90616W        W52147  31.546  16.178  10.038
90617W        W52148  44.756  33.384   0.434
90618W        W52149  39.919  43.438  11.111
90619W        W52150  31.003  32.124  13.021
90620W        W52151  16.632  30.577   0.928
90621W        W52152  12.638  28.462   3.178
90622W        W52153  15.271  31.971  14.478
90623W        W52154  18.121  33.459   3.819
90624W        W52155  33.029  17.211  10.537
90625W        W52156   6.750  32.915   4.762
90626W        W52157   0.908   4.411   4.252
90627W        W52158  33.911  39.319   2.686
90628W        W52159  42.030   3.719  10.469
90629W        W52160   8.696  13.754   4.748
90630W        W52161  30.156  29.642  10.983
90631W        W52162  34.048  16.607  14.803
90632W        W52163  34.115  16.207  14.395
90633W        W52164  13.671  42.379  11.529
90634W        W52165   2.843  43.823  10.568
90635W        W52166  40.881  39.334   3.327
90636W        W52167  37.347  17.128   2.299
90637W        W52168  14.150   9.344   2.190
90638W        W52169  36.935  15.133   2.840
90639W        W52170  24.659  39.857   2.899
90640W        W52171   7.817   7.413   0.734
90641W        W52172  18.099  13.149  12.566
90642W        W52173  20.722   6.711   3.230
90643W        W52174   2.372  23.225  10.079
90644W        W52175  21.620  44.403  10.437
90645W        W52176  43.420   0.480   4.339
90646W        W52177  35.598  11.176  10.047
90647W        W52178  13.753  44.894  12.396
90648W        W52179  20.095  23.602   1.321
90649W        W52180  18.600   5.704   0.265
90650W        W52181  21.680  39.316   4.619
90651W        W52182   6.247  33.043  14.465
90652W        W52183  21.229  15.807  13.819
90653W        W52184  37.942  10.852  12.827
90654W        W52185  43.427  12.786  13.053
90655W        W52186   0.440   5.390   1.906
90656W        W52187   9.778   6.812  14.361
90657W        W52188  39.358  40.344   0.301
90658W        W52189   0.768   7.823  11.413
90659W        W52190  41.922  25.700   3.867
90660W        W52191  43.497  10.661  14.968
90661W        W52192  20.050  31.927  13.382
90662W        W52193  40.949  27.665   4.717
90663W        W52194  13.743  38.415  14.339
90664W        W52195  36.083   1.946   1.344
90665W        W52196  44.403  18.549  10.012
90666W        W52197  33.914  42.975  14.941
90667W        W52198  16.705  27.558  10.528
90668W        W52199  36.853   5.262   2.288
90669W        W52200   8.224  17.111  12.957
90670W        W52201   5.909  16.568   3.787
90671W        W52202   5.753   2.964  11.080
90672W        W52203   3.282  14.296  14.000
90673W        W52204  31.933  28.126  11.890
90674W        W52205  21.582  33.517  13.995
90675W        W52206  29.011  41.440   3.656
90676W        W52207   1.805  44.789   3.851
90677W        W52208  35.962  31.902   2.275
90678W        W52209  36.444  29.139   2.412
90679W        W52210  12.684  14.633  14.916
90680W        W52211  27.578  22.612  12.380
90681W        W52212  27.064  43.461  14.457
90682W        W52213   7.324  24.496  12.060
90683W        W52214   7.413   3.217   1.335
90684W        W52215   3.760  19.186  11.013
90685W        W52216  38.408  29.563  10.548
90686W        W52217  42.336   7.274   1.729
90687W        W52218   4.733   5.328   0.816
90688W        W52219  34.592  33.937  12.936
90689W        W52220  22.185  25.157  13.502
90690W        W52221   5.284  24.578  12.922
90691W        W52222  32.050  11.211   0.919
90692W        W52223  30.580  43.997   2.662
90693W        W52224  43.344  39.931   2.343
90694W        W52225  15.763  41.917  11.374
90695W        W52226   1.348  37.571   4.162
90696W        W52227  31.526  30.459   2.739
90697W        W52228  35.492  11.168  11.384
90698W        W52229  44.808   0.874   2.728
90699W        W52230  16.666  36.530   0.774
90700W        W52231  15.668  13.788   4.164
90701W        W52232  36.041   6.771  10.524
90702W        W52233  28.135  38.330  12.535
90703W        W52234   4.220   2.838  11.575
90704W        W52235   0.468  31.104  12.428
90705W        W52236  23.734  31.075  13.540
90706W        W52237  26.589  11.367  12.363
90707W        W52238  23.582   3.294  13.944
90708W        W52239   2.884  14.677   3.639
90709W        W52240  30.005  17.742   4.753
90710W        W52241  28.676  34.599   1.786
90711W        W52242   1.793   3.356  14.423
90712W        W52243   3.452  15.277   1.252
90713W        W52244   5.915  10.251   0.946
90714W        W52245  37.478  26.588  10.044
90715W        W52246  10.146  44.936  13.051
90716W        W52247  29.500  33.511  10.981
90717W        W52248  22.043  29.468  13.356
90718W        W52249  23.202  19.692   0.343
90719W        W52250   1.350  32.989   3.161
90720W        W52251  43.818  15.631   2.401
90721W        W52252  11.697  39.511   4.666
90722W        W52253   1.960  10.270   3.685
90723W        W52254  30.996  38.948   2.329
90724W        W52255  11.715  41.960   2.773
90725W        W52256  23.607  42.804  13.312
90726W        W52257   2.961  25.213  14.371
90727W        W52258  25.603  42.410  12.547
90728W        W52259  26.502  26.484   0.896
90729W        W52260  32.026  29.542  13.826
90730W        W52261  19.740  35.006  12.827
90731W        W52262  21.541   7.359  14.481
90732W        W52263  39.557   5.862   0.357
90733W        W52264   8.342  20.609  12.062
90734W        W52265  42.350  27.997  13.827
90735W        W52266   2.877  13.829   3.192
90736W        W52267  20.143  16.753   2.328
90737W        W52268  32.499   7.755   0.442
90738W        W52269  29.621  14.804  13.878
90739W        W52270  13.158   4.700  14.030
90740W        W52271   1.378  38.408   1.292
90741W        W52272  34.104  15.162  14.497
90742W        W52273  18.545  18.751   4.255
90743W        W52274  36.449   7.836  13.482
90744W        W52275  22.237  27.566  12.554
90745W        W52276   5.337  18.701  13.306
90746W        W52277  30.123  44.848  11.427
90747W        W52278  38.848  10.174  10.634
90748W        W52279  34.041   9.847  12.470
90749W        W52280   4.784   1.922  13.353
90750W        W52281   8.293   6.277  11.541
90751W        W52282  22.212  44.978  11.927
90752W        W52283  10.206   1.768   1.371
90753W        W52284  11.704  32.891   2.710
90754W        W52285  15.157  33.411   1.863
90755W        W52286   0.367  18.702   3.806
90756W        W52287   8.159   7.228  12.537
90757W        W52288   5.818  11.807  12.091
90758W        W52289  21.757  39.064  13.344
90759W        W52290  14.817  29.044  14.962
90760W        W52291  34.554  33.567  11.112
90761W        W52292  25.495  43.975   0.879
90762W        W52293   9.306  35.907  13.875
90763W        W52294   2.398  22.095  11.409
90764W        W52295  38.874  13.267  11.574
90765W        W52296  26.085   1.954  10.464
90766W        W52297  23.722   4.809   0.355
90767W        W52298  30.953  27.122  12.517
90768W        W52299  40.004  27.632  10.547
90769W        W52300  26.094  11.647  13.512
90770W        W52301  40.537   1.376  13.447
90771W        W52302  32.562  38.852  10.150
90772W        W52303  19.279  43.284  11.895
90773W        W52304  17.567  42.965  11.003
90774W        W52305  29.110   9.286  11.079
90775W        W52306  31.536  18.284   3.767
90776W        W52307  39.064   9.316   0.388
90777W        W52308  43.294  31.995  13.394
90778W        W52309  13.783  37.471   4.626
90779W        W52310  16.186  38.051  14.828
90780W        W52311  29.017  16.813   4.245
90781W        W52312  44.764   1.412  10.909
90782W        W52313  36.410  38.507  11.858
90783W        W52314  34.056  39.004  14.438
90784W        W52315  20.249  29.536  12.013
90785W        W52316   4.279  19.264  11.027
90786W        W52317  38.966  24.636  12.560
90787W        W52318   3.717  37.910  14.890
90788W        W52319   3.245  17.239   3.259
90789W        W52320  38.833  33.923  13.011
90790W        W52321  36.876  14.163   4.801
90791W        W52322  11.743  10.789   3.812
90792W        W52323   7.870  30.601   5.173
90793W        W52324  11.802  35.853   2.818
90794W        W52325  10.777  13.767   1.285
90795W        W52326  27.192  28.095  14.382
90796W        W52327  34.883   6.691  11.989
90797W        W52328  16.702  15.704  12.917
90798W        W52329  33.572  12.236  13.866
90799W        W52330  34.451  15.644   1.224
90800W        W52331   6.763  32.986   2.836
90801W        W52332  42.813  44.313  12.473
90802W        W52333  29.085  33.908   4.194
90803W        W52334  26.047  11.319  14.954
90804W        W52335  14.326   7.776   4.769
90805W        W52336  19.202   9.663  12.862
90806W        W52337  30.505  18.710   2.190
90807W        W52338  34.370  23.652   3.839
90808W        W52339  22.707  29.661   4.682
90809W        W52340  43.988  43.898   4.706
90810W        W52341  22.581  17.672  11.085
90811W        W52342  23.206  32.119  13.052
90812W        W52343   5.332   5.875  10.901
90813W        W52344   6.201  19.694   3.821
90814W        W52345  35.495  19.083  14.938
90815W        W52346  36.998  23.101  12.424
90816W        W52347   1.821  12.849  13.803
90817W        W52348  42.898  36.980   2.206
90818W        W52349  30.160  42.388  11.892
90819W        W52350   4.347  25.556  14.314
90820W        W52351  15.801  11.751   0.935
90821W        W52352  18.087  25.115   5.264
90822W        W52353  13.296   2.365  10.967
90823W        W52354  37.028  27.018   2.703
90824W        W52355   4.291  43.470  11.441
90825W        W52356   1.834   4.778   4.289
90826W        W52357   4.717  12.319   0.738
90827W        W52358  35.076  17.749   1.870
90828W        W52359   0.448   2.900  11.970
90829W        W52360  13.651  15.762   4.656
90830W        W52361   4.846   9.707  12.554
90831W        W52362  40.035  28.036  12.034
90832W        W52363  31.123  15.610   1.313
90833W        W52364  19.643  31.613   1.829
90834W        W52365  44.451  37.458  14.378
90835W        W52366  36.965  10.152  10.937
90836W        W52367  20.193  21.754  12.080
90837W        W52368   2.228  39.868   4.765
90838W        W52369   2.359   8.171  13.950
90839W        W52370  24.119   5.759  14.943
90840W        W52371  41.794  14.148   1.336
90841W        W52372  29.092  21.064   3.808
90842W        W52373   1.853   9.318   0.850
90843W        W52374   7.892   5.203   1.854
90844W        W52375   2.323   7.675   4.672
90845W        W52376  18.735  39.483   1.391
90846W        W52377  13.839   8.864   4.636
90847W        W52378  19.243  28.010  13.399
90848W        W52379  35.454  18.103   2.663
90849W        W52380   8.323  44.315  13.397
90850W        W52381  39.369  16.177   1.765
90851W        W52382   6.291  24.231   4.135
90852W        W52383   5.338  15.711   1.864
90853W        W52384  24.003  35.943  11.384
90854W        W52385  32.526   2.792   4.745
90855W        W52386  44.290  40.423   4.681
90856W        W52387  19.734   0.964  10.490
90857W        W52388   1.389  31.068   0.782
90858W        W52389  12.701  26.981  11.055
90859W        W52390  30.945  40.816  13.922
90860W        W52391  29.486  41.300   0.423
90861W        W52392   8.162  39.485  14.408
90862W        W52393  43.434  35.514  12.350
90863W        W52394   7.296  39.962   0.343
90864W        W52395  28.464   6.723   1.809
90865W        W52396   9.806   4.338  12.915
90866W        W52397  13.703  27.609  12.050
90867W        W52398  10.273  37.548   1.722
90868W        W52399  22.122   6.308   1.303
90869W        W52400   0.801  35.855  11.089
90870W        W52401  42.291   1.291  12.366
90871W        W52402  30.969  33.031  11.451
90872W        W52403  25.032  29.619   2.716
90873W        W52404  12.118  39.322   1.832
90874W        W52405  18.617  40.993  14.473
90875W        W52406   5.851  38.870   3.646
90876W        W52407  40.457  37.551  11.942
90877W        W52408  44.403   3.421   3.232
90878W        W52409  28.636  36.091   0.349
90879W        W52410  15.281  18.545   0.881
90880W        W52411   3.914   8.316   2.703
90881W        W52412  19.266  17.597  14.927
90882W        W52413   0.965  10.349   4.173
90883W        W52414   5.233  30.936   3.867
90884W        W52415  10.382  24.643  13.977
90885W        W52416  27.052  32.986  11.026
90886W        W52417  26.660  21.550  12.439
90887W        W52418  11.858   4.713   9.986
90888W        W52419  44.395  23.605   1.784
90889W        W52420  39.444  29.130  10.584
90890W        W52421  27.989   6.730  11.603
90891W        W52422  18.248  30.133   0.813
90892W        W52423  33.035  34.877   0.366
90893W        W52424  20.644   9.178   2.328
90894W        W52425  11.286  14.652  14.758
90895W        W52426  44.007  28.055  13.822
90896W        W52427  19.044  38.370  11.490
90897W        W52428  14.205   0.416   2.257
90898W        W52429  22.094   7.248   3.804
90899W        W52430  27.163  19.644  11.951
90900W        W52431  25.496   8.851   2.856
90901W        W52432  25.088  38.561   3.764
90902W        W52433  25.082   7.367   2.866
90903W        W52434  32.442  17.673  11.026
90904W        W52435   8.694  41.493   4.822
90905W        W52436  35.487   1.276  11.047
90906W        W52437  28.155  37.348   5.249
90907W        W52438  30.149  10.641  12.088
90908W        W52439   9.712   0.392   0.860
90909W        W52440  30.066  38.021  14.347
90910W        W52441  33.482  35.591   4.204
90911W        W52442  37.548  30.448  12.565
90912W        W52443   6.691   1.879  12.884
90913W        W52444  10.332  13.339   2.400
90914W        W52445   5.839  23.516  13.831
90915W        W52446  32.132  33.517   3.240
90916W        W52447  14.655  17.251   2.702
90917W        W52448  29.557   5.837  11.498
90918W        W52449  18.583  25.052   1.283
90919W        W52450  27.503  44.488   1.435
90920W        W52451  31.946  22.132  10.494
90921W        W52452   6.303  44.764   0.243
90922W        W52453  44.262  39.551  10.435
90923W        W52454  42.806   4.905   2.307
90924W        W52455  13.234  13.351  13.335
90925W        W52456   5.378  17.614   0.266
90926W        W52457   1.257  20.554   0.753
90927W        W52458  17.729  23.553   2.263
90928W        W52459  40.543  35.898  10.434
90929W        W52460   3.931  37.840  10.993
90930W        W52461   4.750  31.491  12.364
90931W        W52462  11.680  42.465   4.762
90932W        W52463   4.859  39.864   0.392
90933W        W52464  43.919  40.008   3.704
90934W        W52465  40.547   0.269  14.320
90935W        W52466  10.779  14.240   2.691
90936W        W52467   9.318  23.987   2.843
90937W        W52468  12.185  18.152   1.894
90938W        W52469  26.157  18.717   0.864
90939W        W52470  11.646  23.092  13.529
90940W        W52471   3.317  24.092   4.309
90941W        W52472  32.402  22.153  12.975
90942W        W52473  21.565  30.122   9.955
90943W        W52474   3.893  36.571  14.009
90944W        W52475  24.101  43.449  10.553
90945W        W52476  22.210  37.955  12.506
90946W        W52477  38.488  31.516   3.809
90947W        W52478  23.086  33.963  10.456
90948W        W52479  37.337  25.142   2.762
90949W        W52480  15.280  25.990   0.255
90950W        W52481  28.569  12.628   2.309
90951W        W52482   3.430  20.247   0.943
90952W        W52483  21.070  38.967   1.300
90953W        W52484  18.054  38.523  14.893
90954W        W52485  35.572  25.120  10.542
90955W        W52486   2.890  10.660   1.358
90956W        W52487  26.645  24.103  13.902
90957W        W52488  28.455  41.414  14.928
90958W        W52489   5.323  43.898   4.640
90959W        W52490  14.149   8.850  11.995
90960W        W52491  10.685  26.625   3.705
90961W        W52492   8.683  41.500   0.460
90962W        W52493  27.612  18.085   0.776
90963W        W52494  29.158   7.779  10.127
90964W        W52495  22.244  12.186  10.994
90965W        W52496   8.823  42.505   1.239
90966W        W52497  20.760  26.034  11.978
90967W        W52498   4.357  11.784  10.423
90968W        W52499  38.893  37.406   1.321
90969W        W52500  34.973  37.844  12.409
90970W        W52501  12.309  30.435  12.826
90971W        W52502  33.111   3.901  13.513
90972W        W52503  10.220  32.406  10.129
90973W        W52504   6.356  43.844  10.407
90974W        W52505  38.890  18.753   4.780
90975W        W52506  13.725  23.527   2.214
90976W        W52507  22.075   8.706   1.731
90977W        W52508  44.913  30.627  10.443
90978W        W52509  19.771   8.672  12.438
90979W        W52510  16.212  27.059  10.579
90980W        W52511  10.651  43.396  11.113
90981W        W52512  12.635  40.321  13.923
90982W        W52513   4.373   2.905   1.421
90983W        W52514  43.364  24.211  10.544
90984W        W52515  26.042   3.719  11.560
90985W        W52516  26.158   0.846  14.303
90986W        W52517  29.965  25.080   0.388
90987W        W52518  37.047   3.380   0.456
90988W        W52519  18.740   8.682  14.485
90989W        W52520  43.823  10.845  14.890
90990W        W52521  17.238  32.083  13.946
90991W        W52522  23.520  14.175   1.742
90992W        W52523  39.482  14.119  11.963
90993W        W52524   8.286  37.985  13.494
90994W        W52525   4.300  31.484  10.641
90995W        W52526  13.616  15.089  12.961
90996W        W52527  15.640  20.036   3.372
90997W        W52528  35.439  29.605   3.835
90998W        W52529  10.873  11.157   1.842
90999W        W52530  38.870  42.387  12.459
91000W        W52531   4.223  27.662   0.401
91001W        W52532  10.205  42.501  13.417
91002W        W52533   0.350  13.622   2.195
91003W        W52534  22.076   8.194  11.052
91004W        W52535  29.984  35.943   0.343
91005W        W52536   0.801  31.406   3.815
91006W        W52537  39.829  29.592   0.323
91007W        W52538  11.695  10.313   2.294
91008W        W52539   4.256  24.479  13.942
91009W        W52540  31.461  35.056  11.097
91010W        W52541  40.508  22.156   1.701
91011W        W52542  11.815   0.444  14.996
91012W        W52543   8.382  39.063  13.411
91013W        W52544  14.717  31.018   0.941
91014W        W52545  41.970  44.784  12.901
91015W        W52546  23.672  20.630   3.662
91016W        W52547  15.629  20.759   3.827
91017W        W52548   0.912   1.434  12.525
91018W        W52549   7.230  18.732   0.830
91019W        W52550  33.519  43.308  11.449
91020W        W52551  15.695  20.686   0.479
91021W        W52552  43.939  33.122   3.810
91022W        W52553  43.812   0.799  14.395
91023W        W52554  38.419  14.691  11.065
91024W        W52555  33.933  41.986  13.441
91025W        W52556  14.268  33.875   4.196
91026W        W52557  42.297  19.119  13.985
91027W        W52558  34.025  23.654   1.782
91028W        W52559  17.677  14.720  12.568
91029W        W52560   6.241  44.464  14.462
91030W        W52561  17.306  39.463  14.784
91031W        W52562  15.277   0.968   2.192
91032W        W52563  23.137  18.126  11.381
91033W        W52564  38.347  32.140   3.842
91034W        W52565  26.971  23.178   0.275
91035W        W52566  39.460  20.756  12.577
91036W        W52567  38.854  38.852  14.472
91037W        W52568  44.948  36.984   2.221
91038W        W52569   5.709   2.756   2.283
91039W        W52570  31.645  15.724  14.901
91040W        W52571  14.336  42.849   3.281
91041W        W52572  30.957  12.792   4.194
91042W        W52573  29.960  38.045  13.999
91043W        W52574  43.834  41.481  10.433
91044W        W52575  28.444  37.430  14.382
91045W        W52576  41.861  28.533  13.818
91046W        W52577  14.289   5.826  14.445
91047W        W52578  28.517   2.255  11.386
91048W        W52579  29.659  28.562   4.599
91049W        W52580   3.773  41.494  14.786
91050W        W52581  36.906   7.265   0.960
91051W        W52582  35.395  23.702  14.439
91052W        W52583  26.475  11.143  14.808
91053W        W52584   9.716  16.780  14.304
91054W        W52585  33.976  24.137   3.774
91055W        W52586  27.119  35.958   4.834
91056W        W52587  34.037  16.775   2.885
91057W        W52588   2.275  28.667  12.054
91058W        W52589  28.140  32.633  13.392
91059W        W52590  18.578  36.935  11.469
91060W        W52591  36.961  36.867  10.911
91061W        W52592  27.051  31.483  12.374
91062W        W52593   8.337   8.689  11.958
91063W        W52594  39.809  17.564  11.435
91064W        W52595  36.029   3.348   0.884
91065W        W52596  37.465   5.222  10.506
91066W        W52597  14.726  37.899   1.887
91067W        W52598  37.038  18.159   4.326
91068W        W52599  24.052  18.246   2.827
91069W        W52600   8.888  44.874  10.586
91070W        W52601  37.491   3.801   2.370
91071W        W52602  27.535  40.427   3.762
91072W        W52603   5.405   4.775   3.645
91073W        W52604  24.571  20.153  10.645
91074W        W52605  36.481  30.012   2.786
91075W        W52606  31.991   4.943  14.416
91076W        W52607   3.353  27.617   4.808
91077W        W52608   5.764  41.985   1.703
91078W        W52609  17.690  40.911  12.975
91079W        W52610  21.202   2.943   2.387
91080W        W52611  10.720  38.954   1.789
91081W        W52612  25.172   8.752   3.340
91082W        W52613  39.444  31.991  14.013
91083W        W52614  23.624   3.429   4.752
91084W        W52615  42.412  23.195   1.263
91085W        W52616   8.299  41.299  12.474
91086W        W52617  13.105  39.929  13.428
91087W        W52618  32.055  26.484   2.266
91088W        W52619   2.854  34.010  12.958
91089W        W52620  40.373  27.680  12.571
91090W        W52621   8.886  26.116  14.284
91091W        W52622  41.379  32.002   3.185
91092W        W52623   4.907  21.649   4.237
91093W        W52624  11.128  25.670  11.901
91094W        W52625  32.057  21.236   1.370
91095W        W52626   0.872   5.339   1.242
91096W        W52627  37.369   4.385  11.606
91097W        W52628  38.525  35.446   0.766
91098W        W52629  10.214  42.802   0.745
91099W        W52630  24.189  39.049  10.890
91100W        W52631  43.500  15.301  14.468
91101W        W52632  22.079  25.183  12.466
91102W        W52633  32.060  39.844  11.382
91103W        W52634   4.874  39.523   2.825
91104W        W52635  34.593  31.117   1.418
91105W        W52636  36.435   4.333   1.299
91106W        W52637   4.830  30.130  14.294
91107W        W52638  28.044  19.566   2.762
91108W        W52639  11.740   7.203   3.270
91109W        W52640  13.649  15.306   3.670
91110W        W52641   6.316  17.305  11.880
91111W        W52642  35.568  44.943  14.284
91112W        W52643  39.512  11.178   2.707
91113W        W52644  44.389   4.734  11.495
91114W        W52645   8.796  34.495  13.843
91115W        W52646  32.910  24.631   3.818
91116W        W52647  32.888  33.602   4.255
91117W        W52648   0.781   2.911   1.734
91118W        W52649  24.096   7.787   3.267
91119W        W52650  19.666  14.136   4.663
91120W        W52651  38.861  10.644  12.527
91121W        W52652   2.384  30.444   0.882
91122W        W52653  11.625  42.928   4.787
91123W        W52654  11.351  43.826   2.251
91124W        W52655   0.817  33.946  11.505
91125W        W52656  30.071  29.061   3.869
91126W        W52657  33.071   7.180   4.657
91127W        W52658  20.596  39.855   9.943
91128W        W52659  29.473  13.663  11.378
91129W        W52660  18.582  20.234  13.934
91130W        W52661  13.754   7.297  12.881
91131W        W52662  10.344   2.820  11.979
91132W        W52663   7.367  40.947  10.965
91133W        W52664  22.115  43.981  14.335
91134W        W52665  20.254   6.293   3.736
91135W        W52666   8.176  42.943   3.175
91136W        W52667   6.780  27.578  13.057
91137W        W52668  12.342  33.000   2.361
91138W        W52669   6.713  31.534  11.972
91139W        W52670   1.380   1.253  12.877
91140W        W52671  38.511  17.615  12.528
91141W        W52672  37.998  13.195  11.081
91142W        W52673  10.658  39.408  13.489
91143W        W52674  18.688  21.122   2.718
91144W        W52675   8.804  44.992   0.869
91145W        W52676  32.416  34.004  14.872
91146W        W52677  16.635  35.058  12.894
91147W        W52678  22.202  38.398   1.357
91148W        W52679  30.129  24.161   0.462
91149W        W52680  42.292  25.540  13.873
91150W        W52681  22.995  34.478  11.557
91151W        W52682  17.559  42.823  11.470
91152W        W52683  17.257  42.485  11.042
91153W        W52684   1.418  18.789  10.407
91154W        W52685  36.986  34.089  12.080
91155W        W52686  27.582  38.406   0.419
91156W        W52687  13.661  44.758  14.471
91157W        W52688   9.782   7.855  14.883
91158W        W52689   2.728  41.928   2.303
91159W        W52690  15.094   7.896  13.864
91160W        W52691  28.486  10.161  12.856
91161W        W52692  35.065  28.958   4.817
91162W        W52693  22.578  36.401  14.800
91163W        W52694  21.548  21.210   3.298
91164W        W52695  19.283  10.645  13.437
91165W        W52696  33.549  38.070  14.883
91166W        W52697   2.405  34.444  14.921
91167W        W52698   2.906  36.053   0.899
91168W        W52699  23.158  36.534   3.678
91169W        W52700  29.989  14.663  10.580
91170W        W52701  11.733  39.383  12.839
91171W        W52702  30.528   6.424   4.821
91172W        W52703  25.567  11.764   5.176
91173W        W52704  38.386  43.806  13.511
91174W        W52705  28.670  28.991  12.074
91175W        W52706   1.297  13.604   2.741
91176W        W52707   4.438   1.773  14.008
91177W        W52708   6.820   1.925  11.889
91178W        W52709  40.336  23.736   3.712
91179W        W52710  43.882  28.518   3.325
91180W        W52711   0.937  21.113  12.340
91181W        W52712  10.820  35.506  11.400
91182W        W52713  13.238  32.398   0.792
91183W        W52714  14.101  24.706   1.703
91184W        W52715  22.742  23.618   0.782
91185W        W52716  35.459  22.559  11.952
91186W        W52717  30.557  18.090   4.169
91187W        W52718  10.711  12.166   2.271
91188W        W52719  31.061  31.462  11.518
91189W        W52720  21.074   5.847  10.905
91190W        W52721  11.282  11.163  11.587
91191W        W52722  35.969  20.597  11.540
91192W        W52723  41.844  10.836   2.745
91193W        W52724   1.933  42.848  11.922
91194W        W52725  36.366  39.409  12.886
91195W        W52726  26.639  21.218  12.998
91196W        W52727  18.263  31.494   0.327
91197W        W52728   3.225  12.723   4.720
91198W        W52729   3.393  17.593   4.675
91199W        W52730  41.420  22.569   0.888
91200W        W52731   7.185   9.783   1.751
91201W        W52732  29.982  37.428  11.988
91202W        W52733  16.674  11.271  11.544
91203W        W52734  15.144  14.696   3.154
91204W        W52735  31.434  25.984  14.977
91205W        W52736  44.409  18.056   4.253
91206W        W52737  34.956  40.373  10.532
91207W        W52738  15.101  24.568   4.269
91208W        W52739  38.411  36.865  12.534
91209W        W52740   0.403  38.849  10.566
91210W        W52741   6.709  11.771  12.403
91211W        W52742  36.459  28.579   1.731
91212W        W52743   2.808  34.512  13.378
91213W        W52744  44.352  30.037  10.404
91214W        W52745  14.710  37.990   2.393
91215W        W52746  36.089  30.518   4.721
91216W        W52747  33.929  21.227   4.214
91217W        W52748  42.350  12.660  11.567
91218W        W52749  27.941  32.589   4.670
91219W        W52750  44.451  11.345  10.906
91220W        W52751  22.997  27.988  11.937
91221W        W52752  28.572  44.351  12.410
91222W        W52753  33.533  24.975   0.772
91223W        W52754  30.160  15.319  13.355
91224W        W52755  43.360  10.835  10.564
91225W        W52756  39.975  29.425  14.995
91226W        W52757   0.253  16.642  14.478
91227W        W52758  39.867  27.521  12.580
91228W        W52759  35.906  40.397  13.329
91229W        W52760  29.625  17.793  12.519
91230W        W52761  31.618  44.001   1.844
91231W        W52762  20.607  12.645  13.362
91232W        W52763  12.816   1.277  11.931
91233W        W52764   7.410  38.356   2.287
91234W        W52765  30.634  19.671   1.355
91235W        W52766  40.325  20.544   3.849
91236W        W52767  19.554   1.365  13.981
91237W        W52768  24.526  37.084   2.731
91238W        W52769  21.557   8.181   4.127
91239W        W52770   9.836  10.278  14.020
91240W        W52771  20.134  22.015   1.892
91241W        W52772   8.682  21.554   3.275
91242W        W52773  24.103  33.130   3.782
91243W        W52774  38.348  12.770   2.774
91244W        W52775  24.711  37.056   1.866
91245W        W52776  31.982  19.758   0.770
91246W        W52777  44.922  32.997  12.350
91247W        W52778  23.576  33.533  10.913
91248W        W52779  23.655   7.676  11.377
91249W        W52780  18.555  16.615   3.770
91250W        W52781  44.389   4.747   1.359
91251W        W52782  37.340  15.215   3.355
91252W        W52783   0.955  27.186   3.762
91253W        W52784  23.168   5.903   2.797
91254W        W52785  34.876  30.647  12.929
91255W        W52786  33.503   4.845   2.876
91256W        W52787  15.216  39.010  12.572
91257W        W52788  31.112  36.411   1.280
91258W        W52789   5.293  17.635   3.185
91259W        W52790   6.880  10.151  10.487
91260W        W52791  27.533   3.407  14.782
91261W        W52792  19.152  13.748  11.551
91262W        W52793  42.966  34.919   3.281
91263W        W52794  11.366  18.132  14.921
91264W        W52795  33.569   7.366  13.416
91265W        W52796  19.207  35.950   4.738
91266W        W52797  19.170  20.528   1.361
91267W        W52798  21.712  42.387  10.960
91268W        W52799  39.848  28.543   4.233
91269W        W52800  31.068  42.910  14.770
91270W        W52801  11.139  41.420   2.698
91271W        W52802  33.457  38.020   3.660
91272W        W52803  22.079   6.905  14.876
91273W        W52804  28.516  35.365  11.378
91274W        W52805  36.528   9.204  10.096
91275W        W52806  25.568  17.248   3.820
91276W        W52807  29.571  35.582   1.928
91277W        W52808  15.320  37.058  14.398
91278W        W52809  35.871  28.955   3.704
91279W        W52810  15.603  31.014  10.972
91280W        W52811  35.909  41.008  13.517
91281W        W52812  23.097  35.494   1.731
91282W        W52813   6.295   8.855  12.391
91283W        W52814  16.164   3.258  11.511
91284W        W52815  27.496   8.391   1.713
91285W        W52816  31.478  21.256   1.365
91286W        W52817  24.156  21.086   4.795
91287W        W52818  40.316  25.532  10.540
91288W        W52819   7.364  15.117  14.441
91289W        W52820  23.002  27.981   2.707
91290W        W52821  14.337   2.292  10.948
91291W        W52822  13.616  33.058  13.480
91292W        W52823  43.369  25.557  14.919
91293W        W52824  44.940  12.296   0.437
91294W        W52825  34.059  25.612   1.931
91295W        W52826  14.190  23.731   2.376
91296W        W52827  32.635   3.812  14.376
91297W        W52828  44.866  44.775   1.285
91298W        W52829  34.603  37.371  13.821
91299W        W52830  13.273  43.360  11.942
91300W        W52831  26.016  39.912   4.225
91301W        W52832  35.011  32.927   2.353
91302W        W52833   0.897  28.180  10.969
91303W        W52834  29.946  28.539  11.511
91304W        W52835  26.970  11.167  12.353
91305W        W52836  23.062  11.221   0.879
91306W        W52837   6.340  40.483   3.366
91307W        W52838  11.868   0.892  10.469
91308W        W52839   2.834  25.570  10.952
91309W        W52840  35.596  37.458  13.472
91310W        W52841  34.884   3.789   4.186
91311W        W52842  28.135   0.888   2.401
91312W        W52843   6.807  21.086   3.255
91313W        W52844   0.461   8.182   4.616
91314W        W52845  24.658   3.256   4.230
91315W        W52846  33.427  20.140   3.372
91316W        W52847  40.924   1.875  14.422
91317W        W52848  32.511  29.537   3.739
91318W        W52849  25.100  44.825   2.205
91319W        W52850   0.903   2.316  10.474
91320W        W52851  34.590  29.554  12.922
91321W        W52852  11.834   6.249  14.861
91322W        W52853   7.333  27.064  10.995
91323W        W52854  27.552  36.849  10.584
91324W        W52855  26.478  23.115  10.489
91325W        W52856  28.484  19.614   4.237
91326W        W52857   0.754   3.365  14.494
91327W        W52858  23.017   6.734  13.876
91328W        W52859  24.589   9.747   2.188
91329W        W52860  22.120  35.053   1.402
91330W        W52861  14.626  43.802   1.726
91331W        W52862  20.147  27.176  11.984
91332W        W52863  37.360  43.878  10.423
91333W        W52864  19.105  26.203  14.814
91334W        W52865  29.551   4.874   1.224
91335W        W52866   1.870  16.257  11.047
91336W        W52867  12.767  13.114   1.425
91337W        W52868  29.980  12.241   3.374
91338W        W52869   0.294  43.421   4.780
91339W        W52870  29.072  17.572  10.643
91340W        W52871  37.035  20.208  14.021
91341W        W52872  36.538  22.743   0.859
91342W        W52873  27.133   7.175  10.610
91343W        W52874  31.987  41.374   3.358
91344W        W52875  10.241  22.184   5.279
91345W        W52876   7.671   4.322  12.515
91346W        W52877  38.928  33.918   4.725
91347W        W52878   7.804  37.380  13.843
91348W        W52879  43.334  14.285  10.433
91349W        W52880  35.000  30.644  11.386
91350W        W52881  16.318  12.170   2.792
91351W        W52882   9.391   7.678  14.936
91352W        W52883  14.660   1.836  10.602
91353W        W52884  26.598   0.483   3.261
91354W        W52885   7.829  25.575   0.819
91355W        W52886  44.417  39.465  12.870
91356W        W52887  16.785  14.722  10.999
91357W        W52888  39.384  34.980   4.681
91358W        W52889  30.638   6.914   0.734
91359W        W52890   9.364  37.899   4.295
91360W        W52891   3.930  41.463   1.274
91361W        W52892  36.845  18.594  14.792
91362W        W52893  21.101  24.555   0.399
91363W        W52894   3.321  35.054   4.283
91364W        W52895  11.765  12.181   4.680
91365W        W52896  10.808  13.341  12.921
91366W        W52897  11.321  10.801  14.905
91367W        W52898  11.803   8.844  13.371
91368W        W52899  28.008  35.585   3.145
91369W        W52900  30.126  16.240  14.000
91370W        W52901  31.911   2.391   0.893
91371W        W52902   6.770  31.553  12.562
91372W        W52903  26.509  24.174   0.312
91373W        W52904  22.675  20.563  14.823
91374W        W52905  22.534  32.036  14.022
91375W        W52906  15.797  27.191  12.926
91376W        W52907  35.581  37.437   1.876
91377W        W52908  28.673  38.065   2.771
91378W        W52909  18.761  20.081   0.789
91379W        W52910  26.084  27.473   1.393
91380W        W52911  34.876  26.474   0.881
91381W        W52912  23.606  10.800   3.166
91382W        W52913   7.187   4.256   3.805
91383W        W52914  20.179  43.958  11.104
91384W        W52915  19.178  15.114  11.396
91385W        W52916   8.250  39.058   3.358
91386W        W52917   7.305  39.031  13.915
91387W        W52918  18.752  10.199   3.201
91388W        W52919  26.099  24.555  14.987
91389W        W52920  23.534   6.877  13.526
91390W        W52921   4.712  33.105   1.419
91391W        W52922  11.770  26.087   3.187
91392W        W52923  14.133  42.340  10.442
91393W        W52924   1.406  21.174  12.998
91394W        W52925  30.992  14.182   0.958
91395W        W52926   7.894  34.972   0.851
91396W        W52927   8.227   0.828   2.842
91397W        W52928  12.691  19.713  12.440
91398W        W52929  33.900  33.446   2.852
91399W        W52930  26.012  37.526  10.121
91400W        W52931  27.005  44.864  11.539
91401W        W52932  23.137  26.636  11.553
91402W        W52933  21.116  36.435   4.787
91403W        W52934   6.188  17.640   2.893
91404W        W52935  39.494  21.580  10.416
91405W        W52936  14.189   0.268  12.956
91406W        W52937  30.621  43.860  14.281
91407W        W52938   1.404  24.573  14.434
91408W        W52939  35.361  28.592  11.920
91409W        W52940  27.070  30.526   1.225
91410W        W52941  41.870  27.559  12.503
91411W        W52942   2.779  35.475   1.697
91412W        W52943  27.654   6.708   4.203
91413W        W52944  41.392  23.988  11.090
91414W        W52945   1.290  33.428   2.197
91415W        W52946  38.405  30.529  14.453
91416W        W52947  10.253  14.169  10.644
91417W        W52948  29.997  11.280   0.285
91418W        W52949  33.506   3.741   3.713
91419W        W52950  28.170  29.089  12.478
91420W        W52951  27.121  24.724   0.348
91421W        W52952  29.463  15.661  11.012
91422W        W52953  31.982  32.130   2.700
91423W        W52954  41.401  22.622  14.976
91424W        W52955  35.964  25.701   4.276
91425W        W52956   6.283  27.570  13.329
91426W        W52957   4.827   0.366   2.676
91427W        W52958   3.224  21.155  12.900
91428W        W52959  33.132   3.321   4.703
91429W        W52960   3.412  24.678  11.999
91430W        W52961  19.174   1.964  14.328
91431W        W52962   0.847  43.890   2.718
91432W        W52963  25.081  23.717   0.745
91433W        W52964   5.373   7.887  14.775
91434W        W52965  32.590  10.318   4.713
91435W        W52966  24.036   8.803   0.753
91436W        W52967  11.281  22.027   4.706
91437W        W52968  26.649  17.249  12.405
91438W        W52969  32.573   6.250   4.267
91439W        W52970   3.298   8.295   0.400
91440W        W52971  37.363  34.569  11.876
91441W        W52972  21.174   2.737  11.010
91442W        W52973  38.000  31.111  11.958
91443W        W52974  43.349  24.161   1.263
91444W        W52975  41.449  36.906  13.447
91445W        W52976  13.131   1.445   3.848
91446W        W52977  18.774  12.841   1.747
91447W        W52978  17.783  25.662  13.480
91448W        W52979   6.349   1.322  13.019
91449W        W52980  18.201   1.816  14.514
91450W        W52981  41.951   3.368  11.072
91451W        W52982  10.370  18.271   1.923
91452W        W52983  14.753  17.617   2.384
91453W        W52984   9.171  20.251  10.421
91454W        W52985  14.263  37.865  13.374
91455W        W52986  19.098  29.623   1.778
91456W        W52987  12.289  20.123  11.094
91457W        W52988  31.508  28.058   3.711
91458W        W52989  10.381  17.249   1.420
91459W        W52990  10.376  40.324  13.501
91460W        W52991   7.171   2.882  14.515
91461W        W52992  18.625  13.323  13.808
91462W        W52993  13.658  39.863  12.499
91463W        W52994  19.170  30.108  11.434
91464W        W52995  37.870  36.870  12.863
91465W        W52996  28.567  29.613   3.779
91466W        W52997  43.467  21.665   1.695
91467W        W52998  15.197  13.681   2.184
91468W        W52999  14.751  39.444  12.043
91469W        W53000   6.866   3.795   2.892
91470W        W53001   9.165  42.509   2.808
91471W        W53002  18.658  17.094  11.925
91472W        W53003  28.589  42.015  12.906
91473W        W53004  22.578   4.945  14.848
91474W        W53005  23.995  23.054  10.576
91475W        W53006  40.486  25.512   4.221
91476W        W53007  39.965   5.761   4.201
91477W        W53008  16.579   4.386  13.833
91478W        W53009  20.530   6.733   1.798
91479W        W53010  26.175  18.770   3.796
91480W        W53011  40.448  18.146   0.274
91481W        W53012  18.267   9.681   2.669
91482W        W53013   5.763   4.930  11.452
91483W        W53014  16.729  22.078   3.379
91484W        W53015  25.651  28.032  13.881
91485W        W53016   4.814  21.125   0.285
91486W        W53017  22.187  39.440  14.856
91487W        W53018  33.407  33.052   4.697
91488W        W53019  38.046   0.817   4.807
91489W        W53020  24.227   0.432   4.835
91490W        W53021  33.121  13.813  10.587
91491W        W53022  25.112   8.655   4.715
91492W        W53023  22.109  12.808   3.208
91493W        W53024  42.967  16.259   1.873
91494W        W53025   1.419  30.916  12.904
91495W        W53026  10.187  38.410  11.390
91496W        W53027  27.111  42.504   3.325
91497W        W53028  30.655  41.866  13.917
91498W        W53029  16.180  19.775  13.859
91499W        W53030  20.236  25.070  12.914
91500W        W53031  28.533  36.361   4.333
91501W        W53032  14.156  32.400  13.933
91502W        W53033   7.338  30.449   0.794
91503W        W53034  15.164  26.990  13.374
91504W        W53035  28.935  28.013   3.306
91505W        W53036  28.047  10.770   2.337
91506W        W53037  37.000   9.765  14.784
91507W        W53038  25.619  19.253  13.309
91508W        W53039  25.964   2.409   3.231
91509W        W53040  18.176  33.588  14.965
91510W        W53041  27.690  36.589   1.300
91511W        W53042  19.156   7.752  11.388
91512W        W53043   5.336  17.626  13.332
91513W        W53044  35.483  20.668  11.494
91514W        W53045  12.272  38.365   0.892
91515W        W53046  26.486  39.822   1.784
91516W        W53047  34.889   1.313   1.375
91517W        W53048  19.585   3.413  11.004
91518W        W53049  36.907  20.620  10.915
91519W        W53050  31.115  42.922   4.351
91520W        W53051   3.249  38.497  14.475
91521W        W53052   4.762  15.585  12.575
91522W        W53053  32.404  40.967   1.696
91523W        W53054  41.487  32.627   4.730
91524W        W53055  30.924  28.962  13.924
91525W        W53056  36.960  36.545   2.316
91526W        W53057  35.450   7.213   0.419
91527W        W53058  21.018  40.396  14.873
91528W        W53059  30.950  36.964   2.310
91529W        W53060   5.881  32.501   1.265
91530W        W53061  31.402  43.909  11.115
91531W        W53062  18.141  34.078   2.299
91532W        W53063  15.197  21.692   3.708
91533W        W53064   9.194  30.516   1.931
91534W        W53065  12.842  28.123   3.838
91535W        W53066  37.917  14.121   4.738
91536W        W53067  35.500   9.737   3.212
91537W        W53068   7.198  34.439  11.938
91538W        W53069  33.400   8.202  14.434
91539W        W53070  24.545  41.398   0.845
91540W        W53071   1.298  26.952   1.828
91541W        W53072  43.409   7.759  11.437
91542W        W53073  44.415  16.316  13.937
91543W        W53074  27.652   6.828  13.545
91544W        W53075  18.622  33.102  12.528
91545W        W53076  14.739  15.746  11.480
91546W        W53077  23.718   6.680   0.882
91547W        W53078  30.963  34.429  12.078
91548W        W53079  25.075   9.270   3.369
91549W        W53080  28.129  16.097   0.382
91550W        W53081   1.326  41.536  14.470
91551W        W53082  23.546  44.964   2.685
91552W        W53083  18.748  30.991  13.434
91553W        W53084  12.257  33.492   2.699
91554W        W53085  43.959  39.418  14.770
91555W        W53086  34.418  16.299   3.846
91556W        W53087  36.440  41.444   5.141
91557W        W53088  29.130   5.806  11.539
91558W        W53089  10.363   7.388   1.337
91559W        W53090  12.665  12.698  11.920
91560W        W53091  37.850  14.689   3.223
91561W        W53092   2.781   2.777  13.370
91562W        W53093   6.764  30.999   1.361
91563W        W53094   6.348  44.399  10.641
91564W        W53095  15.141   3.361  11.454
91565W        W53096  16.160   5.740  11.457
91566W        W53097  24.070  31.080   1.790
91567W        W53098  18.596  24.500   0.375
91568W        W53099  43.883  11.166  12.367
91569W        W53100   1.920  40.874  13.886
91570W        W53101  42.445  39.902  14.379
91571W        W53102   1.421  30.090   4.293
91572W        W53103   5.762   2.295  10.922
91573W        W53104   5.817  15.612   1.431
91574W        W53105  18.288  34.103   3.164
91575W        W53106   8.792  38.429   0.349
91576W        W53107  44.293   4.397   4.243
91577W        W53108  16.223  24.661  12.538
91578W        W53109  31.008   6.829  10.082
91579W        W53110   9.848  43.013   1.272
91580W        W53111   0.915  30.974   1.317
91581W        W53112  19.668   1.879   3.854
91582W        W53113   4.720  21.047  13.470
91583W        W53114   2.383  34.563   1.376
91584W        W53115   0.286  31.429   2.245
91585W        W53116   4.421  22.210   4.634
91586W        W53117  29.555  25.639   0.872
91587W        W53118   0.771  27.125   2.764
91588W        W53119  17.629   6.416  12.385
91589W        W53120   9.859   5.782   2.401
91590W        W53121   5.881  10.785   3.728
91591W        W53122  40.416   2.900  12.473
91592W        W53123  21.750  29.499   3.178
91593W        W53124  24.501   9.358  11.400
91594W        W53125   8.253  27.661  12.492
91595W        W53126   1.276  27.557  11.464
91596W        W53127  43.459  32.945  13.814
91597W        W53128  32.020  11.282   4.691
91598W        W53129  12.728  31.402  10.935
91599W        W53130  26.997   8.202   2.335
91600W        W53131  40.323  28.076   4.651
91601W        W53132  22.593  20.751  12.042
91602W        W53133  44.390  36.491   4.232
91603W        W53134  30.522  13.174  12.872
91604W        W53135  34.881   7.853   0.259
91605W        W53136  35.433  40.398  13.845
91606W        W53137   3.791  10.673   1.880
91607W        W53138   2.786  20.147   1.377
91608W        W53139  21.718  29.945   4.746
91609W        W53140  32.486  27.964   1.766
91610W        W53141  23.044  39.007  13.390
91611W        W53142   7.401  38.377   3.653
91612W        W53143  27.967   1.251  14.470
91613W        W53144  11.818  20.739  13.881
91614W        W53145  43.473   9.224   0.770
91615W        W53146  21.236  23.525   4.833
91616W        W53147  33.057  24.493   4.146
91617W        W53148  35.999  35.087   4.154
91618W        W53149  22.100  39.332  13.995
91619W        W53150  36.853   0.873   0.355
91620W        W53151  27.068  14.724  11.049
91621W        W53152  28.628   2.334   2.766
91622W        W53153  41.479   8.294   4.241
91623W        W53154  16.248   8.684  14.973
91624W        W53155   7.739  32.138   9.927
91625W        W53156  18.723  28.448   4.651
91626W        W53157   9.317   5.333  13.436
91627W        W53158  44.831  39.538   3.241
91628W        W53159  25.075  37.428   4.264
91629W        W53160  32.577  27.002  13.372
91630W        W53161  36.400  31.407   0.357
91631W        W53162  41.484  20.663  14.507
91632W        W53163  40.885  13.190   1.258
91633W        W53164  28.615  41.394   1.808
91634W        W53165  23.521   6.236   4.773
91635W        W53166  21.228  25.061   1.886
91636W        W53167   1.954  21.103   3.266
91637W        W53168  25.636  30.022   1.262
91638W        W53169  40.953  34.037  13.509
91639W        W53170   0.815  19.600   9.998
91640W        W53171  36.585  13.636  12.070
91641W        W53172   0.787  41.312  12.882
91642W        W53173  42.004  15.655   3.792
91643W        W53174  24.517   7.710   3.847
91644W        W53175  14.740  21.629   1.253
91645W        W53176   4.317  23.555  12.550
91646W        W53177  44.397  40.438   3.775
91647W        W53178  31.530  26.189  12.537
91648W        W53179  29.099  32.412  10.992
91649W        W53180  44.940  33.457  11.591
91650W        W53181   6.755  21.575   4.212
91651W        W53182  33.111  27.683   1.887
91652W        W53183  19.561  12.837  12.092
91653W        W53184  15.627  40.900  14.379
91654W        W53185  30.934  34.963  11.046
91655W        W53186  16.274   7.282   3.257
91656W        W53187   8.671  44.940   2.800
91657W        W53188  30.068   7.826   0.731
91658W        W53189  12.236  10.798  11.595
91659W        W53190  27.975  34.571  14.999
91660W        W53191  21.643  27.178   4.748
91661W        W53192   0.817  24.546  14.946
91662W        W53193  36.587  23.611   3.223
91663W        W53194  33.056   3.785  14.015
91664W        W53195  20.205  21.549   1.909
91665W        W53196  11.295  35.522  13.929
91666W        W53197  44.845  10.181   3.722
91667W        W53198  22.662  42.896   1.215
91668W        W53199  13.141  38.928   0.352
91669W        W53200   4.302  24.037  12.074
91670W        W53201  18.573  43.396  11.471
91671W        W53202  31.054  31.516   4.207
91672W        W53203  28.084  17.785   0.829
91673W        W53204   1.747  35.914   2.876
91674W        W53205  14.755   6.412   2.824
91675W        W53206   7.855  36.484  13.043
91676W        W53207  34.069  41.979   1.731
91677W        W53208  29.968  35.876   1.699
91678W        W53209  41.438  41.480  12.071
91679W        W53210   3.247   1.255  14.477
91680W        W53211  32.541  24.535   0.913
91681W        W53212  14.779   7.911   2.208
91682W        W53213  19.187  10.172  13.977
91683W        W53214  38.468  40.381  11.911
91684W        W53215   3.386  17.068   3.845
91685W        W53216  34.465  36.396  12.480
91686W        W53217  17.063  39.476   3.708
91687W        W53218  36.380  15.656   4.600
91688W        W53219  39.357  16.665  13.464
91689W        W53220  43.890  19.728  14.785
91690W        W53221  12.765   9.217  11.388
91691W        W53222  15.181   3.252   3.292
91692W        W53223   5.858   7.892  13.960
91693W        W53224   3.284  19.191   2.330
91694W        W53225   8.700  38.327  12.410
91695W        W53226  13.632  33.444   0.453
91696W        W53227  13.254  21.207   0.247
91697W        W53228   8.867   1.406   2.707
91698W        W53229  14.834  12.846  11.041
91699W        W53230  26.495  26.117   4.294
91700W        W53231   4.932  37.371  13.007
91701W        W53232   6.783  32.962   3.348
91702W        W53233  26.495  40.983   0.837
91703W        W53234   5.893  13.327   2.787
91704W        W53235  17.753  20.579   4.835
91705W        W53236  37.007  41.037  14.364
91706W        W53237  28.459  34.369  14.330
91707W        W53238  39.429  37.048  12.381
91708W        W53239  23.041   1.833  11.498
91709W        W53240   9.645  22.142  14.936
91710W        W53241  39.322  37.579   5.203
91711W        W53242  39.316  36.041  12.984
91712W        W53243  29.525  22.696  13.400
91713W        W53244  30.049  39.036  12.047
91714W        W53245  19.577  34.502   4.759
91715W        W53246  18.124  41.880   4.823
91716W        W53247  25.686  16.122  12.071
91717W        W53248  14.331  28.668   1.784
91718W        W53249  19.188  39.857  13.443
91719W        W53250  35.367  29.665  14.864
91720W        W53251  34.903  44.939  13.899
91721W        W53252  26.085   1.444   3.306
91722W        W53253   8.212   6.801  14.791
91723W        W53254  37.337   5.720  12.878
91724W        W53255  36.493  27.047   1.225
91725W        W53256  33.066  16.666  13.397
91726W        W53257  43.772  42.291  11.919
91727W        W53258  12.153   7.405   0.877
91728W        W53259  43.369  30.522  11.541
91729W        W53260  30.504  26.074   0.305
91730W        W53261  34.465   3.308   4.269
91731W        W53262  39.828  43.311  14.439
91732W        W53263  36.915  23.547   0.308
91733W        W53264  44.002   3.320  11.384
91734W        W53265  10.793  16.209  11.409
91735W        W53266   3.368  30.469   0.955
91736W        W53267  36.507   3.421  11.920
91737W        W53268   3.950  24.101   3.633
91738W        W53269  35.058  40.988  14.001
91739W        W53270  40.446   3.823  13.876
91740W        W53271   2.941  39.866  12.572
91741W        W53272  11.654  30.030   0.904
91742W        W53273  17.255  29.485   5.126
91743W        W53274  23.515   1.292  11.381
91744W        W53275   2.372  27.091  12.987
91745W        W53276  25.152  27.125  11.571
91746W        W53277  14.612   6.340   1.410
91747W        W53278   7.840  18.165  13.831
91748W        W53279  44.823   4.307   2.374
91749W        W53280  42.003  12.824  13.829
91750W        W53281  30.937  20.596  13.404
91751W        W53282  35.993   5.205  12.850
91752W        W53283  35.024  26.516   1.232
91753W        W53284  16.693  37.899   0.744
91754W        W53285  28.996  33.532   4.269
91755W        W53286  23.716  14.239  11.425
91756W        W53287  26.083   4.891   2.798
91757W        W53288   4.783  41.439  11.086
91758W        W53289  40.833  24.195   2.896
91759W        W53290   0.873  21.232   2.302
91760W        W53291   0.325  31.939  10.916
91761W        W53292  35.544  30.090   4.208
91762W        W53293  13.114   5.909   0.812
91763W        W53294  16.610  30.038  11.548
91764W        W53295  42.506  19.158   1.337
91765W        W53296   9.749  33.974  12.538
91766W        W53297   7.362  16.638  11.884
91767W        W53298  26.693  32.942  13.511
91768W        W53299  27.674  13.272   1.776
91769W        W53300  21.046   0.269   3.207
91770W        W53301  41.514  23.530  11.106
91771W        W53302  34.503   5.254   2.809
91772W        W53303  42.322   1.953   1.226
91773W        W53304   6.360  34.459  12.900
91774W        W53305  32.106  19.642   3.328
91775W        W53306  20.275  28.480   3.339
91776W        W53307  24.191  43.798  14.341
91777W        W53308   7.708  13.158  14.308
91778W        W53309  31.112   6.802  14.763
91779W        W53310   7.815   6.730  12.549
91780W        W53311   2.824  15.195   0.930
91781W        W53312   8.759   4.931  13.839
91782W        W53313   5.734  19.772  12.048
91783W        W53314   9.239  13.712   0.383
91784W        W53315  33.440  15.632  10.940
91785W        W53316   8.756  21.035   4.682
91786W        W53317  34.582  14.715  14.932
91787W        W53318  21.247  18.586  14.324
91788W        W53319  25.053   8.227   5.132
91789W        W53320  37.448   9.684  13.843
91790W        W53321   6.765   0.377   3.790
91791W        W53322  30.964  30.071  14.777
91792W        W53323  39.338   3.440  12.823
91793W        W53324  24.697  38.846   4.266
91794W        W53325  36.550  32.013   1.838
91795W        W53326  29.980  12.678   1.779
91796W        W53327  31.906   2.752  11.516
91797W        W53328  37.488  44.806  13.855
91798W        W53329  30.016  42.929   4.724
91799W        W53330  40.826   4.850  13.506
91800W        W53331   8.296  32.060  14.334
91801W        W53332   5.876   0.287  10.442
91802W        W53333  35.951  32.096  14.873
91803W        W53334  16.108  30.162   3.207
91804W        W53335  12.747  23.034  11.388
91805W        W53336  42.456  26.670  13.386
91806W        W53337  19.199  17.791  14.285
91807W        W53338  39.478   2.784   2.806
91808W        W53339  42.401  11.279  14.867
91809W        W53340   1.271   2.775   3.734
91810W        W53341  16.314  18.666   1.212
91811W        W53342   3.716  28.054   2.417
91812W        W53343   1.433  23.636  10.554
91813W        W53344  27.510  33.609  11.573
91814W        W53345  34.106  21.070  12.502
91815W        W53346   2.462  33.585   0.832
91816W        W53347   9.190   9.249  14.393
91817W        W53348  18.058  25.642  12.068
91818W        W53349  13.260  35.867   9.971
91819W        W53350  42.307  43.297  14.489
91820W        W53351  17.247  42.786   1.258
91821W        W53352  11.841  12.167   0.845
91822W        W53353  42.309  43.883   0.823
91823W        W53354  24.721  27.540   4.335
91824W        W53355  43.356  30.979  11.951
91825W        W53356  12.814  23.517  11.581
91826W        W53357  33.088   3.930  14.773
91827W        W53358  31.065  29.455   0.749
91828W        W53359  16.245   4.204   1.446
91829W        W53360  16.094   7.810  11.587
91830W        W53361   0.949   8.212   1.901
91831W        W53362   5.747  41.411  12.865
91832W        W53363  25.680  19.200  12.547
91833W        W53364  36.439  16.286  13.039
91834W        W53365  24.636  42.485   2.314
91835W        W53366   2.360  34.893   1.803
91836W        W53367   1.395  40.978  10.923
91837W        W53368  17.771  27.667   3.173
91838W        W53369  21.124   3.433   0.878
91839W        W53370  35.024  22.164  14.300
91840W        W53371  40.843   0.839   2.844
91841W        W53372  31.503  18.165  11.894
91842W        W53373  34.434  13.604  14.334
91843W        W53374   0.415  21.648  11.124
91844W        W53375  30.609  16.660  11.013
91845W        W53376  35.427  44.855  12.410
91846W        W53377  28.533   6.270   3.183
91847W        W53378  14.176  44.817   2.187
91848W        W53379  34.038  37.545  13.942
91849W        W53380  40.348  33.613   2.842
91850W        W53381   7.734  18.110  10.901
91851W        W53382  35.367  13.144  13.892
91852W        W53383   8.783   0.482  14.396
91853W        W53384  39.882  18.097  11.009
91854W        W53385   2.332  12.656   4.818
91855W        W53386  37.042  31.498  13.432
91856W        W53387  11.328  21.579   4.633
91857W        W53388  11.146  36.440   0.866
91858W        W53389  13.124   8.901   1.883
91859W        W53390  19.568  11.311  11.910
91860W        W53391  37.526  19.647  14.364
91861W        W53392  15.623  44.815   2.271
91862W        W53393  35.553  43.857   3.264
91863W        W53394  25.175  42.318  13.492
91864W        W53395  39.501  25.192  11.871
91865W        W53396  21.182  37.046  11.939
91866W        W53397   5.881  12.128  13.422
91867W        W53398   3.720  39.321  10.966
91868W        W53399   9.312  26.164   0.308
91869W        W53400  15.738  33.591  11.508
91870W        W53401   6.391  35.874   5.138
91871W        W53402  40.845   2.268   3.280
91872W        W53403  39.551  19.583  11.080
91873W        W53404  44.996  34.421  13.399
91874W        W53405  38.024  36.097  11.454
91875W        W53406  41.821  18.777   0.326
91876W        W53407   7.750  19.677   2.346
91877W        W53408  12.703  19.155  11.871
91878W        W53409   2.343  10.184  13.377
91879W        W53410  24.531  23.611  11.917
91880W        W53411  12.119  24.176   2.215
91881W        W53412  33.620  28.046   0.931
91882W        W53413  20.204  38.367   1.844
91883W        W53414  26.108  25.095   2.705
91884W        W53415  22.679  34.570   1.428
91885W        W53416  16.206   3.880  12.345
91886W        W53417   4.326  38.335  11.993
91887W        W53418  44.806  20.157  14.020
91888W        W53419  32.484  20.637  14.834
91889W        W53420   4.922   4.218  12.500
91890W        W53421  37.459   7.343   2.705
91891W        W53422  35.551  27.677   3.262
91892W        W53423  15.297  25.147   4.156
91893W        W53424  44.424  16.282  14.331
91894W        W53425  21.619  14.216  11.087
91895W        W53426  22.213  32.518   1.920
91896W        W53427  42.894   7.832   2.194
91897W        W53428   8.190  17.078  12.092
91898W        W53429  16.262  37.006   4.631
91899W        W53430  30.447  19.263  13.030
91900W        W53431  35.447   6.733   0.390
91901W        W53432   4.883  13.843  14.513
91902W        W53433  21.596   4.711   0.378
91903W        W53434  31.935   4.377   4.738
91904W        W53435  41.985   3.722   4.610
91905W        W53436  15.678  38.561   2.230
91906W        W53437  44.460  43.366   1.902
91907W        W53438  28.978   1.777   0.801
91908W        W53439   8.727  14.208   4.320
91909W        W53440   3.265  36.395   0.346
91910W        W53441   6.375  27.579  12.965
91911W        W53442   3.455  28.458   9.936
91912W        W53443  26.001   7.282   3.230
91913W        W53444  37.428  37.884  14.992
91914W        W53445   7.719  23.735  13.851
91915W        W53446  20.050  34.113  11.580
91916W        W53447  23.044  30.470  13.834
91917W        W53448  25.202  42.515   0.349
91918W        W53449  27.550  20.185   1.388
91919W        W53450  43.971  29.523   0.466
91920W        W53451  10.692  18.615  10.619
91921W        W53452   7.258   2.395   0.842
91922W        W53453   7.308  10.656   3.681
91923W        W53454  14.202   1.363   0.885
91924W        W53455  11.652   6.426  12.541
91925W        W53456  21.029  15.177  13.542
91926W        W53457  16.200  26.619   0.256
91927W        W53458  44.881  27.661  11.597
91928W        W53459  18.073  32.972   2.766
91929W        W53460  33.439  31.912   4.116
91930W        W53461  29.463   2.763   1.730
91931W        W53462  21.161   3.407  10.569
91932W        W53463  31.945  32.979  10.507
91933W        W53464  17.692  41.904  10.916
91934W        W53465  41.839  44.314   2.843
91935W        W53466   7.791  17.597  14.279
91936W        W53467  17.132  14.198  12.344
91937W        W53468  36.481  28.095   2.827
91938W        W53469  39.370  20.082  13.029
91939W        W53470  15.758  26.140  13.879
91940W        W53471  26.557  32.967  10.608
91941W        W53472  10.243   2.762   4.298
91942W        W53473  43.389   2.962  14.317
91943W        W53474  10.322  41.944  14.888
91944W        W53475   6.853  17.558   2.343
91945W        W53476   1.777  19.697  13.966
91946W        W53477   7.805  43.787   2.393
91947W        W53478  29.437  23.725   3.368
91948W        W53479  15.302   5.693  14.388
91949W        W53480  30.014  25.627  10.891
91950W        W53481  25.094  27.599  12.567
91951W        W53482   0.776  35.407  13.502
91952W        W53483  26.130  31.629  12.511
91953W        W53484  40.015  28.938  11.497
91954W        W53485   0.796  42.424  13.390
91955W        W53486   1.949  35.523   1.396
91956W        W53487   8.748  10.300   2.837
91957W        W53488  10.652   3.711  10.062
91958W        W53489   3.356  36.452  13.345
91959W        W53490  12.843  20.710   1.224
91960W        W53491  35.026  20.608  12.059
91961W        W53492  36.046  21.152  13.426
91962W        W53493  14.220   7.723   2.748
91963W        W53494  39.061  26.489  12.065
91964W        W53495  39.881   2.747   2.211
91965W        W53496   1.280  19.126   3.155
91966W        W53497   6.233  23.721  13.866
91967W        W53498   6.232  17.585   3.839
91968W        W53499  29.585  42.952   2.675
91969W        W53500  14.697  14.819  12.367
91970W        W53501   6.193   5.856  13.360
91971W        W53502  31.495   9.332  14.283
91972W        W53503  37.501  35.944  14.006
91973W        W53504  32.050  28.110   3.630
91974W        W53505   4.264  38.431   2.818
91975W        W53506  13.164  10.217   4.837
91976W        W53507  30.956  24.006   1.831
91977W        W53508  21.516  12.283   4.233
91978W        W53509  16.632  36.951  12.489
91979W        W53510  25.026   0.911   2.729
91980W        W53511  15.086  42.929  14.378
91981W        W53512   2.867  23.661   5.792
91982W        W53513  36.483  14.771  13.951
91983W        W53514  44.367  14.137   3.656
91984W        W53515  37.043  34.973  11.922
91985W        W53516  42.481  32.044  13.050
91986W        W53517  42.994  43.473  11.467
91987W        W53518   4.412   4.855   1.792
91988W        W53519   8.861   0.750  10.623
91989W        W53520  23.073  13.335   3.775
91990W        W53521  44.347  30.080   3.673
91991W        W53522  26.649   8.818   0.851
91992W        W53523  24.231  25.184   3.182
91993W        W53524   7.875  15.597  13.004
91994W        W53525  44.464  38.849   3.379
91995W        W53526  20.151  36.030   2.235
91996W        W53527  11.661  16.218  12.527
91997W        W53528  35.523  34.959  12.982
91998W        W53529  24.157  30.135   3.776
91999W        W53530  33.552  44.910  12.401
92000W        W53531   8.661  27.981  11.423
92001W        W53532   0.768   5.391   2.283
92002W        W53533   1.354  32.965   1.822
92003W        W53534  26.575   3.728   1.348
92004W        W53535  41.470  42.304   4.219
92005W        W53536  25.672   5.813  11.480
92006W        W53537   5.829  25.542  11.515
92007W        W53538  43.516  42.307   1.927
92008W        W53539  33.947  32.536  10.565
92009W        W53540  27.073  22.614  12.946
92010W        W53541   1.438  32.057  11.582
92011W        W53542  16.302  13.199   3.649
92012W        W53543  20.159   5.300   4.693
92013W        W53544  32.527  18.663   2.193
92014W        W53545  29.045  43.484  13.039
92015W        W53546   5.889  38.834   1.336
92016W        W53547  39.007  13.295   0.415
92017W        W53548   6.769  13.206  14.498
92018W        W53549   9.325  22.220  10.433
92019W        W53550  43.424  14.160  14.366
92020W        W53551   0.816  36.907   3.861
92021W        W53552  38.513  40.944   3.199
92022W        W53553  33.975   4.272  11.976
92023W        W53554  17.743  33.938  11.507
92024W        W53555  34.572   2.761   4.229
92025W        W53556  18.637  10.259   5.197
92026W        W53557  22.517  30.148   0.372
92027W        W53558   0.782  25.137  14.381
92028W        W53559  36.481  36.897  14.373
92029W        W53560  13.105  33.942   3.209
92030W        W53561  43.864  23.232  11.946
92031W        W53562  31.960  11.309   1.442
92032W        W53563  20.132  34.460  14.300
92033W        W53564   5.313  41.456   4.141
92034W        W53565   8.881  42.925   1.885
92035W        W53566  32.410  41.333  11.904
92036W        W53567   9.792  16.767   0.336
92037W        W53568   2.387  12.819  13.933
92038W        W53569  39.063  35.424   4.802
92039W        W53570  36.981  40.433  13.479
92040W        W53571   8.301  37.996   1.261
92041W        W53572  27.166  34.444  10.005
92042W        W53573  34.401   2.797   3.233
92043W        W53574  25.609  28.486  12.997
92044W        W53575  23.686  44.958   4.683
92045W        W53576  24.057  19.545  13.386
92046W        W53577  36.364  15.279   1.438
92047W        W53578   9.264   4.252   2.724
92048W        W53579   7.344  11.778  14.510
92049W        W53580  30.552  19.537  11.021
92050W        W53581  38.069  18.752  14.934
92051W        W53582  22.148   5.905  13.517
92052W        W53583  28.610  20.539   4.126
92053W        W53584   3.459   6.425   0.773
92054W        W53585   6.813  11.787   2.796
92055W        W53586  29.609  23.581  11.005
92056W        W53587  34.466   9.380  11.011
92057W        W53588  35.971  27.523   2.734
92058W        W53589  17.714  22.213  13.512
92059W        W53590  18.770  30.492  14.850
92060W        W53591  13.720  27.108   1.261
92061W        W53592  20.705  23.172   0.902
92062W        W53593  43.986   1.864  10.483
92063W        W53594   1.846   4.253   0.271
92064W        W53595   9.878  24.562  10.573
92065W        W53596  32.081   0.840   3.191
92066W        W53597   4.339  31.034   3.210
92067W        W53598  12.815  28.464   4.835
92068W        W53599  22.099  36.577   1.447
92069W        W53600  38.979   1.952  11.409
92070W        W53601  10.149   2.373  14.483
92071W        W53602  29.134  29.072  10.456
92072W        W53603  17.252   7.887  13.826
92073W        W53604  26.623  32.104  12.967
92074W        W53605   9.724  42.776   3.704
92075W        W53606  22.222   1.740   1.724
92076W        W53607  30.599  34.060  11.540
92077W        W53608  25.487   9.330  14.434
92078W        W53609   7.231   7.173  10.518
92079W        W53610  43.478  19.123   0.821
92080W        W53611  23.159  29.600  13.895
92081W        W53612   5.869  28.655  10.552
92082W        W53613  40.935   9.359   4.664
92083W        W53614  18.204  32.049  14.762
92084W        W53615  14.818  12.665   0.753
92085W        W53616  38.049  23.531  14.001
92086W        W53617  43.929  20.683   0.942
92087W        W53618  39.861  21.258  14.415
92088W        W53619   3.319  10.376  11.052
92089W        W53620  13.698  13.820  14.947
92090W        W53621   5.249   3.444   1.337
92091W        W53622   4.919  15.213  12.404
92092W        W53623  13.137  24.631  12.914
92093W        W53624  13.824  41.297  10.639
92094W        W53625  37.580   4.880  11.437
92095W        W53626  22.733  43.982   3.800
92096W        W53627   2.471  25.547  14.445
92097W        W53628  34.930  28.651  10.629
92098W        W53629   4.734  24.531  13.929
92099W        W53630  34.960  39.481  13.419
92100W        W53631   4.930  34.866   5.127
92101W        W53632  17.100  11.820  10.934
92102W        W53633  19.666  29.077  11.900
92103W        W53634  15.587  44.468  14.493
92104W        W53635   4.699  35.049  11.420
92105W        W53636  26.074  35.559   1.838
92106W        W53637  16.076   0.965   4.330
92107W        W53638  35.414  38.047   0.914
92108W        W53639  27.941  29.485   5.182
92109W        W53640  19.171  32.611   1.313
92110W        W53641  37.961   1.760   3.733
92111W        W53642  25.483  24.693   4.828
92112W        W53643  30.419  10.853   0.812
92113W        W53644   6.914   0.324   4.666
92114W        W53645  38.340  38.962   9.615
92115W        W53646   5.731  33.519   4.614
92116W        W53647  40.452  38.410   2.242
92117W        W53648   4.711  24.558   3.821
92118W        W53649   6.389   4.298   1.805
92119W        W53650  13.231  38.338  11.419
92120W        W53651  20.649  41.522  14.821
92121W        W53652  39.412  38.948   3.359
92122W        W53653  40.313   1.871  10.029
92123W        W53654  38.915  19.100  13.005
92124W        W53655  39.316   3.852   2.182
92125W        W53656  32.578  28.467  10.558
92126W        W53657  36.428  28.625  12.348
92127W        W53658   4.281   1.886   0.266
92128W        W53659  30.084  18.664   0.734
92129W        W53660  39.851  32.113   4.261
92130W        W53661   9.700  30.092   9.518
92131W        W53662   5.809  25.483   4.628
92132W        W53663  11.706  21.092  13.379
92133W        W53664  18.586  22.589  13.032
92134W        W53665  12.720  16.724   4.778
92135W        W53666  20.715  32.475   3.680
92136W        W53667  25.674  25.695   1.307
92137W        W53668  19.640  19.673   3.731
92138W        W53669  22.249   9.311  11.562
92139W        W53670  36.350   1.959   0.306
92140W        W53671   1.303  31.070   1.720
92141W        W53672  34.453   4.323  13.363
92142W        W53673  36.423  18.213  11.051
92143W        W53674  13.821   8.682  13.039
92144W        W53675  37.392  30.501   1.732
92145W        W53676  31.644  30.084  10.954
92146W        W53677  35.412  14.100  12.082
92147W        W53678  13.256  42.010   4.666
92148W        W53679  26.019  40.417  13.020
92149W        W53680  25.692  11.750  12.060
92150W        W53681  16.285  40.355   1.764
92151W        W53682  31.038  25.674   3.329
92152W        W53683  39.339  32.028   1.242
92153W        W53684  29.044   2.296   4.690
92154W        W53685   2.838  33.900  12.374
92155W        W53686  40.526  39.972  11.437
92156W        W53687  34.511  30.033   3.841
92157W        W53688  33.934  11.700  10.479
92158W        W53689  32.056  43.839  10.457
92159W        W53690   7.875   2.762   9.644
92160W        W53691  44.271  17.621   0.407
92161W        W53692  23.557  39.016  13.523
92162W        W53693  34.600  42.378   4.611
92163W        W53694  18.659  29.152  10.455
92164W        W53695   0.846   9.347   2.306
92165W        W53696   8.735   6.204   1.838
92166W        W53697   1.768  21.246   2.237
92167W        W53698  28.125  28.114   4.244
92168W        W53699  28.085   1.382  14.936
92169W        W53700  35.581  34.877  14.511
92170W        W53701  17.267  31.076  14.382
92171W        W53702  19.613  32.414   0.777
92172W        W53703  39.029   3.219  11.529
92173W        W53704  34.588   1.457   4.190
92174W        W53705  10.363  18.217  11.053
92175W        W53706  23.184  26.570  11.009
92176W        W53707  22.591  17.172   4.306
92177W        W53708  13.687   6.243   0.781
92178W        W53709  13.812   2.451  13.404
92179W        W53710  16.811  21.159  11.464
92180W        W53711  34.593   1.775  12.042
92181W        W53712  27.565  26.086   0.251
92182W        W53713  15.198  11.692   1.739
92183W        W53714  10.799  28.672  14.975
92184W        W53715   9.668  36.400  14.309
92185W        W53716  20.265  21.037   0.260
92186W        W53717  14.147  34.064   2.264
92187W        W53718  29.989  26.155  14.494
92188W        W53719   0.441  23.627   1.439
92189W        W53720  42.794  10.854  14.927
92190W        W53721  27.638  37.455   2.232
92191W        W53722   9.720   2.249   0.793
92192W        W53723  26.048  30.433   3.822
92193W        W53724  14.107  24.138   3.186
92194W        W53725  35.475  38.915   5.782
92195W        W53726  33.589   6.269  10.540
92196W        W53727  29.452  16.791   3.196
92197W        W53728  30.138  21.251   1.220
92198W        W53729   2.300   7.857   3.233
92199W        W53730   0.447  19.111   0.444
92200W        W53731  41.344  20.081  12.343
92201W        W53732  38.569  44.417   3.232
92202W        W53733  42.879  35.392  10.570
92203W        W53734  42.381   8.359   4.780
92204W        W53735  31.406  28.618   2.279
92205W        W53736   9.283  12.265  14.481
92206W        W53737  21.566  30.425   3.744
92207W        W53738  30.478  24.602   2.697
92208W        W53739  42.030   4.919   2.832
92209W        W53740   8.314  36.564   2.413
92210W        W53741  19.265   8.681   2.408
92211W        W53742  44.808  26.664  14.882
92212W        W53743  16.813  23.535  12.980
92213W        W53744   0.283  13.816   3.700
92214W        W53745  32.039   7.703   4.601
92215W        W53746  26.466  33.599  14.348
92216W        W53747  43.924  35.444  10.451
92217W        W53748  10.737  44.881  11.409
92218W        W53749  27.972  16.207   2.412
92219W        W53750  22.202  31.024  10.497
92220W        W53751  17.143  22.232  14.294
92221W        W53752  26.067  22.543  12.074
92222W        W53753  39.354  21.571   0.811
92223W        W53754  39.445   5.333  11.027
92224W        W53755  21.091  33.457   3.694
92225W        W53756  25.014  26.489  14.505
92226W        W53757   9.394   2.341   0.763
92227W        W53758  44.924   6.206   1.701
92228W        W53759  20.579   1.781  12.342
92229W        W53760  36.019  30.547  14.469
92230W        W53761  43.930   8.790  10.903
92231W        W53762  10.877  31.482  12.527
92232W        W53763  20.525  37.344   0.945
92233W        W53764  22.093   9.215   2.332
92234W        W53765  43.986  17.660   1.853
92235W        W53766  19.115  41.810  10.978
92236W        W53767  41.362   2.788   3.669
92237W        W53768  12.181   9.866  10.428
92238W        W53769  33.508  37.345   2.323
92239W        W53770  43.991  31.055   2.754
92240W        W53771  25.617   3.770   0.931
92241W        W53772  37.386   6.259   5.189
92242W        W53773  40.491   4.868   0.940
92243W        W53774  15.749  10.230   9.992
92244W        W53775  24.991  33.920   2.195
92245W        W53776   4.940   6.184   2.672
92246W        W53777  42.474  13.836  12.072
92247W        W53778  18.755  15.772   9.967
92248W        W53779  25.033  20.550   0.886
92249W        W53780  40.906  43.787   2.195
92250W        W53781  44.804  31.523  12.502
92251W        W53782  35.527  28.630   1.798
92252W        W53783  41.423  43.856  10.573
92253W        W53784  15.180  21.021  12.060
92254W        W53785  36.527   6.910   4.195
92255W        W53786  13.694  38.875  12.439
92256W        W53787  11.323  32.901   4.152
92257W        W53788   3.415  24.504   3.183
92258W        W53789  42.898   1.899   2.880
92259W        W53790   6.857   9.325  12.903
92260W        W53791  33.003   5.802   1.831
92261W        W53792   2.362   8.813   3.190
92262W        W53793  37.558  41.003  13.344
92263W        W53794  37.525  14.205  12.460
92264W        W53795  22.010   3.754   3.257
92265W        W53796  43.878  32.904  13.936
92266W        W53797  17.151   3.381  12.454
92267W        W53798   5.258  30.064   4.787
92268W        W53799  14.102  33.919   3.167
92269W        W53800  10.703  13.749  14.376
92270W        W53801  17.567  43.354   3.202
92271W        W53802  42.814   3.771  14.975
92272W        W53803   6.710   6.310   4.245
92273W        W53804   1.890  20.071   1.410
92274W        W53805  34.583   7.406   4.217
92275W        W53806  13.177  36.934  14.429
92276W        W53807  37.396  29.481  13.947
92277W        W53808  16.708  10.237   4.825
92278W        W53809  30.519   7.695   5.227
92279W        W53810   9.390  14.124  11.065
92280W        W53811  17.601  43.416  14.931
92281W        W53812  44.881   8.712  11.976
92282W        W53813   8.857  38.559   3.320
92283W        W53814  20.579   6.830   0.274
92284W        W53815   5.763  35.088  11.932
92285W        W53816  23.139  16.257   1.227
92286W        W53817  16.637  38.502  14.508
92287W        W53818  33.595  22.635  12.978
92288W        W53819  39.363  40.346   2.337
92289W        W53820  38.392  18.253   1.793
92290W        W53821  12.243  16.591  11.993
92291W        W53822  39.544  31.601  14.338
92292W        W53823  41.391  25.527   5.281
92293W        W53824  27.671  33.978   2.381
92294W        W53825   6.830  40.412   4.125
92295W        W53826   5.926  14.588  12.532
92296W        W53827  42.977  44.933  13.519
92297W        W53828   1.779  20.525   3.299
92298W        W53829  42.825  20.580  13.475
92299W        W53830  22.181  34.464   1.724
92300W        W53831   0.266  23.241   0.847
92301W        W53832  36.073  16.291   4.309
92302W        W53833  10.648  17.639  12.066
92303W        W53834  18.271   7.762   4.763
92304W        W53835  35.489  32.937  14.500
92305W        W53836  13.663  31.139   3.668
92306W        W53837   0.425  16.301   1.844
92307W        W53838  42.418  17.628  13.049
92308W        W53839  33.540  21.088   5.142
92309W        W53840  39.877  34.404  12.839
92310W        W53841  35.399  13.697   0.793
92311W        W53842   4.322  27.193   4.654
92312W        W53843  25.584   9.664  14.447
92313W        W53844   9.353  31.001   2.682
92314W        W53845  17.137  13.183   3.355
92315W        W53846  10.256  33.055   4.812
92316W        W53847  17.165  28.447  13.888
92317W        W53848  22.205  11.865   3.786
92318W        W53849  17.275   6.705  11.946
92319W        W53850  40.442  12.737  11.008
92320W        W53851  24.693  39.919  10.918
92321W        W53852   1.395  21.092   2.197
92322W        W53853  30.121  40.859   4.801
92323W        W53854   5.197  15.091   2.819
92324W        W53855  36.476  39.341   0.893
92325W        W53856  33.890   4.794   2.838
92326W        W53857  38.873  12.142  13.462
92327W        W53858  31.618  13.841  11.392
92328W        W53859   8.851  18.670   1.328
92329W        W53860  39.856  22.247   1.219
92330W        W53861  42.934  33.504  13.325
92331W        W53862  16.643   2.305  14.936
92332W        W53863  14.716   9.664  10.505
92333W        W53864  28.964  23.206   2.686
92334W        W53865   0.461  34.008  12.915
92335W        W53866  32.967  31.993  12.524
92336W        W53867  17.612  38.368  11.468
92337W        W53868   7.894  40.001   2.224
92338W        W53869   5.299   6.399  14.016
92339W        W53870  24.075  42.370   1.866
92340W        W53871  26.064  25.485   0.933
92341W        W53872  16.257   6.355   4.817
92342W        W53873  35.436  24.509  14.501
92343W        W53874   1.339  21.700  13.361
92344W        W53875   8.221   1.302   4.653
92345W        W53876  38.993  30.015   3.855
92346W        W53877   0.979   3.772  13.499
92347W        W53878  10.200   0.814  10.570
92348W        W53879  33.396  25.105  14.404
92349W        W53880   6.321   8.382   0.851
92350W        W53881  36.591  39.993  14.473
92351W        W53882   5.352   1.261  14.015
92352W        W53883  18.691  35.418   1.226
92353W        W53884   1.295  18.619   2.662
92354W        W53885  34.037  40.924  12.830
92355W        W53886  17.721  39.981   4.137
92356W        W53887  41.881  17.109  11.109
92357W        W53888  10.243  14.188   0.266
92358W        W53889  32.895  17.296   2.896
92359W        W53890  39.972  38.350   3.225
92360W        W53891  25.710  43.274  14.907
92361W        W53892  37.578  10.634  14.489
92362W        W53893   9.198   4.327   3.299
92363W        W53894   6.907   7.799   1.287
92364W        W53895   7.792  12.804   2.893
92365W        W53896  19.077   8.357  10.932
92366W        W53897  43.501  28.478  10.557
92367W        W53898   8.340  42.467   3.211
92368W        W53899   5.840  31.555  12.835
92369W        W53900  42.411   8.367   3.212
92370W        W53901  29.515  23.695   3.702
92371W        W53902  33.468  24.190   2.882
92372W        W53903  15.209  21.614   4.736
92373W        W53904   7.771  26.039   3.189
92374W        W53905  37.339  39.464  11.475
92375W        W53906   7.285  30.965  11.898
92376W        W53907   5.399  34.946   1.389
92377W        W53908  27.142  16.658   3.661
92378W        W53909  28.664  36.445   1.849
92379W        W53910  32.621  42.288  11.509
92380W        W53911  34.487   3.269   2.310
92381W        W53912  37.369   1.832  13.882
92382W        W53913  15.591  31.496  14.279
92383W        W53914   8.401  32.887   4.309
92384W        W53915  42.493  32.089  14.364
92385W        W53916  34.100  32.000  12.474
92386W        W53917  39.812  19.193   4.318
92387W        W53918  42.987  34.576   4.176
92388W        W53919  35.066   4.753  14.405
92389W        W53920   4.701  18.764  10.498
92390W        W53921  23.634   1.284   4.711
92391W        W53922  14.658  17.749  10.621
92392W        W53923  32.514  20.273  10.457
92393W        W53924  24.573  22.661  10.887
92394W        W53925  10.367  11.368   4.244
92395W        W53926  15.215  20.703   3.160
92396W        W53927  25.601  17.102  13.433
92397W        W53928   0.275  44.950  14.846
92398W        W53929  26.561  32.629  12.348
92399W        W53930  29.069  27.126  12.470
92400W        W53931  22.038  27.561   1.770
92401W        W53932   6.371   5.696  11.860
92402W        W53933  36.388  37.338  11.595
92403W        W53934  32.564   6.205   0.815
92404W        W53935   0.301  40.310   4.605
92405W        W53936  23.073  35.521  14.930
92406W        W53937  41.871   2.228  11.553
92407W        W53938  38.880  19.734   4.318
92408W        W53939   6.229  12.337  11.529
92409W        W53940  29.173  41.825  11.926
92410W        W53941  20.199  19.694   0.915
92411W        W53942  29.122  24.597   2.354
92412W        W53943  39.819  26.025   1.283
92413W        W53944   0.810   5.385  11.458
92414W        W53945  14.132  35.022   5.135
92415W        W53946  31.462  43.356   3.337
92416W        W53947  39.480  19.220  14.794
92417W        W53948  18.283  27.678   2.793
92418W        W53949  11.298   4.753  13.428
92419W        W53950   1.268  38.486  12.574
92420W        W53951   0.357  17.247   2.755
92421W        W53952  16.782  31.935   0.270
92422W        W53953  29.595  18.606  11.551
92423W        W53954  13.837  40.960  13.436
92424W        W53955  20.054  27.057  12.453
92425W        W53956  35.944  38.906   3.193
92426W        W53957  23.567  42.903  11.493
92427W        W53958  32.536  19.757   3.309
92428W        W53959   1.902  16.149   1.744
92429W        W53960  44.875  29.096  14.436
92430W        W53961  12.616   7.764  11.572
92431W        W53962  26.518  11.843  11.038
92432W        W53963  13.688  38.469   2.324
92433W        W53964  38.029  22.566  13.313
92434W        W53965  33.412  31.461   4.629
92435W        W53966  16.579   0.333  12.519
92436W        W53967  21.710  30.003  12.376
92437W        W53968  14.205   5.205   4.801
92438W        W53969   5.894  19.644   2.230
92439W        W53970  28.626  43.010  10.052
92440W        W53971  33.508   5.726  13.052
92441W        W53972  43.909  24.027  13.451
92442W        W53973   2.324  39.322  14.758
92443W        W53974   7.905  24.484   3.786
92444W        W53975   6.291  12.342  10.125
92445W        W53976  32.956  16.185  14.807
92446W        W53977  44.974  16.289   3.770
92447W        W53978  19.724  30.609   3.298
92448W        W53979   0.970   3.750   0.867
92449W        W53980  28.988  11.238  14.471
92450W        W53981  23.720  29.167   2.379
92451W        W53982   8.704  20.608  14.421
92452W        W53983  42.471   6.842   3.210
92453W        W53984   7.403  44.821  10.494
92454W        W53985   2.407  10.183  13.800
92455W        W53986  43.786   1.967  11.030
92456W        W53987   0.971  25.565   1.807
92457W        W53988  15.130  22.686  12.872
92458W        W53989  32.916  44.802  10.626
92459W        W53990  43.353  38.401   3.761
92460W        W53991   9.821  34.934  13.957
92461W        W53992   7.249  20.591   0.321
92462W        W53993  43.858  21.237   0.355
92463W        W53994  13.651   3.800   4.697
92464W        W53995  25.991  43.400  10.612
92465W        W53996   6.806   0.868  12.919
92466W        W53997  11.777  25.073  12.918
92467W        W53998  21.238  15.739   5.244
92468W        W53999  40.838  20.110   1.430
92469W        W54000   4.806   6.696   1.425
92470W        W54001  24.599  12.829  13.864
92471W        W54002  33.094   1.452   1.835
92472W        W54003   7.181  21.632   2.395
92473W        W54004   7.882  29.658   3.737
92474W        W54005  33.970  33.424  14.967
92475W        W54006  19.722  22.220  11.083
92476W        W54007  23.614  14.835   0.804
92477W        W54008  17.567  37.968   3.258
92478W        W54009  23.676  19.655  12.432
92479W        W54010  24.638   3.875  11.953
92480W        W54011   4.816  36.586  10.478
92481W        W54012   5.251   6.345  12.063
92482W        W54013  38.924  35.398   0.852
92483W        W54014  10.801  40.957  13.977
92484W        W54015  44.280   1.787   0.917
92485W        W54016  39.975  15.765  11.530
92486W        W54017  18.106  22.076  10.057
92487W        W54018  19.723  30.952   2.184
92488W        W54019  10.775  24.626   2.363
92489W        W54020  11.703   8.806   4.291
92490W        W54021   3.842  23.142  11.460
92491W        W54022  41.934  17.203   0.285
92492W        W54023  12.676   0.387  11.561
92493W        W54024  26.473  36.415   1.891
92494W        W54025  12.850  31.988   1.428
92495W        W54026  31.090  38.339   3.836
92496W        W54027  44.404  26.162  11.906
92497W        W54028  32.064  15.712  12.514
92498W        W54029  14.312  29.144   1.392
92499W        W54030  30.005  43.466  10.406
92500W        W54031   1.834  23.626  11.002
92501W        W54032   1.328  42.448   1.706
92502W        W54033  35.013   6.717  12.359
92503W        W54034  21.124  38.402  11.924
92504W        W54035   7.788   4.276  10.582
92505W        W54036   6.783  42.977   4.328
92506W        W54037  28.619  15.605   0.771
92507W        W54038  34.874   9.276  14.927
92508W        W54039  20.666  18.076  11.389
92509W        W54040   4.920  10.833  13.797
92510W        W54041  30.037  35.373  13.006
92511W        W54042   9.169  37.475   1.349
92512W        W54043  42.776   8.828   4.302
92513W        W54044  10.205   0.837  12.442
92514W        W54045  35.016  12.277  11.892
92515W        W54046  34.521  32.992  13.432
92516W        W54047  31.095   6.688   3.642
92517W        W54048  21.718   7.341   4.619
92518W        W54049  36.064  25.700  14.306
92519W        W54050  24.606  44.822   1.713
92520W        W54051  29.012  22.618   4.698
92521W        W54052  40.452   9.689   4.210
92522W        W54053  10.376  23.089   3.157
92523W        W54054  28.530  36.407   3.260
92524W        W54055  22.087  20.625  14.391
92525W        W54056  15.655  32.051   0.314
92526W        W54057  20.108  42.955   4.341
92527W        W54058  44.875   1.299  14.806
92528W        W54059  23.096  23.013   0.747
92529W        W54060  11.821   3.408   3.386
92530W        W54061  27.491  14.266  14.865
92531W        W54062   5.429  38.841  11.437
92532W        W54063  27.133  19.105   2.684
92533W        W54064   1.408  20.105   4.208
92534W        W54065  44.289  35.921   3.366
92535W        W54066  18.623  32.118  13.465
92536W        W54067   9.183  42.923   1.904
92537W        W54068  30.971  22.176   4.759
92538W        W54069  40.008  15.313   1.892
92539W        W54070  16.106  40.384   4.321
92540W        W54071  23.143  40.820  14.874
92541W        W54072  24.701  34.964  10.953
92542W        W54073  39.030  29.053   1.726
92543W        W54074  25.494  16.174  14.832
92544W        W54075  20.636   8.206   3.862
92545W        W54076  36.449   4.801   4.665
92546W        W54077  24.143  11.710   1.266
92547W        W54078  42.964  10.716   1.249
92548W        W54079  42.355  28.658  14.356
92549W        W54080  12.332  38.011  12.415
92550W        W54081  19.111  42.415  11.519
92551W        W54082   7.813  15.147  12.860
92552W        W54083  23.241  30.942  10.910
92553W        W54084  44.954  17.136  13.963
92554W        W54085  25.170   3.427   0.930
92555W        W54086  28.942   6.735  14.334
92556W        W54087  40.816  38.048  14.858
92557W        W54088  34.997  14.598   9.997
92558W        W54089  17.740  14.319  12.536
92559W        W54090  42.451  39.053  13.885
92560W        W54091   8.299   4.416   2.886
92561W        W54092  41.474  26.651   1.899
92562W        W54093  25.629  43.389   4.144
92563W        W54094  10.261  44.909  10.052
92564W        W54095  36.405  20.122  13.354
92565W        W54096  36.565   9.234  13.994
92566W        W54097   8.212  42.520  12.363
92567W        W54098  18.129  38.525  11.574
92568W        W54099  17.202   3.931  10.502
92569W        W54100  12.141  16.077  11.950
92570W        W54101  18.699  21.031   3.316
92571W        W54102  34.970  11.135   4.668
92572W        W54103  42.288  23.538   4.642
92573W        W54104  33.570  22.052   3.203
92574W        W54105   4.399   4.854   4.637
92575W        W54106  36.945  42.825  13.843
92576W        W54107  12.270  33.463   3.734
92577W        W54108  15.639  41.520   0.755
92578W        W54109  30.452  13.783  14.278
92579W        W54110  19.281  15.185  12.346
92580W        W54111  42.340  19.280  10.576
92581W        W54112  14.664  33.965   4.683
92582W        W54113  32.967  16.710  12.359
92583W        W54114  20.624   2.406  13.399
92584W        W54115  34.572  43.509  13.873
92585W        W54116  35.069  34.937   1.839
92586W        W54117  37.956  18.197   2.882
92587W        W54118  16.653  28.082  13.807
92588W        W54119  34.038  11.845  12.013
92589W        W54120  33.389  27.150  12.947
92590W        W54121  23.537  35.388   2.737
92591W        W54122  44.362  40.375   1.711
92592W        W54123  32.021  16.144   3.185
92593W        W54124  14.099  10.246  13.386
92594W        W54125  37.551  15.780  13.333
92595W        W54126   8.241   7.911   4.691
92596W        W54127  42.895  32.959   3.166
92597W        W54128  14.665  17.117   0.409
92598W        W54129   5.740  13.272  14.798
92599W        W54130   0.466   7.900   4.196
92600W        W54131  39.548  32.564   1.289
92601W        W54132  12.726  27.187   4.129
92602W        W54133  16.697  19.098   1.726
92603W        W54134  27.446  29.508   2.697
92604W        W54135   7.899   1.794  13.838
92605W        W54136   8.863  15.738  13.898
92606W        W54137  26.696  40.306   1.854
92607W        W54138  13.333  34.573  12.899
92608W        W54139  22.130  11.713   1.818
92609W        W54140  31.144  34.987  12.933
92610W        W54141  21.599  30.541  14.360
92611W        W54142  37.456  15.097   4.714
92612W        W54143  12.690  14.698   0.770
92613W        W54144  30.443  35.448  11.409
92614W        W54145  38.436  20.129  12.567
92615W        W54146   2.372  32.940  14.344
92616W        W54147   5.843  36.054  12.414
92617W        W54148   8.798  20.067  14.447
92618W        W54149  32.484  43.812   0.384
92619W        W54150  12.126  42.483   1.817
92620W        W54151  38.832  37.083   0.837
92621W        W54152  38.326  15.156   0.963
92622W        W54153  21.532  12.740  12.895
92623W        W54154   3.809   8.302  11.542
92624W        W54155  28.482   6.216  10.580
92625W        W54156   6.215  39.534  12.518
92626W        W54157  15.794  22.190   1.330
92627W        W54158  39.317  27.624   0.953
92628W        W54159  32.109  13.779   2.185
92629W        W54160  11.221   5.387   2.817
92630W        W54161  38.512  36.076  14.970
92631W        W54162  13.632  32.481   4.165
92632W        W54163  29.559  19.141   0.370
92633W        W54164  10.250  28.441  12.987
92634W        W54165  36.879  14.175   2.267
92635W        W54166  42.502   7.372  11.867
92636W        W54167  26.966  33.944   3.769
92637W        W54168  43.295  41.954  11.079
92638W        W54169  38.422  34.485   4.276
92639W        W54170  35.060   6.794   4.817
92640W        W54171  23.073  34.418  13.849
92641W        W54172  12.228  13.634   4.129
92642W        W54173  26.034  27.989   0.268
92643W        W54174   4.935  40.364  13.448
92644W        W54175   9.221  36.002   2.760
92645W        W54176  44.912  18.124  12.438
92646W        W54177  14.628  43.939  12.908
92647W        W54178  44.873   8.834   3.632
92648W        W54179   3.243  22.547   1.325
92649W        W54180  30.150   3.416  11.059
92650W        W54181   3.948  39.955   3.694
92651W        W54182   3.355   0.441  13.467
92652W        W54183   5.826  12.856   1.758
92653W        W54184   1.341  16.579  12.342
92654W        W54185   7.850   7.791   2.178
92655W        W54186  44.357   4.339   0.794
92656W        W54187  22.577  11.627   4.672
92657W        W54188  11.283   5.875   4.767
92658W        W54189  28.474  15.643  14.970
92659W        W54190  44.912  38.852  13.364
92660W        W54191   9.668  42.850  11.859
92661W        W54192  34.483  10.306   1.904
92662W        W54193  39.870   0.389  14.977
92663W        W54194  17.710  20.175  10.605
92664W        W54195   9.194  38.453   3.293
92665W        W54196  39.316  33.544   3.281
92666W        W54197  14.207  15.197   3.659
92667W        W54198  11.133  39.967  14.484
92668W        W54199  29.026  27.672   4.317
92669W        W54200  20.103  24.113   1.295
92670W        W54201   9.174  36.059  13.390
92671W        W54202  23.052  29.587  10.976
92672W        W54203  34.611  35.919   3.187
92673W        W54204  32.959   5.323   2.677
92674W        W54205  26.117  26.693  13.942
92675W        W54206  32.028  26.535   4.231
92676W        W54207  23.633  32.613  10.902
92677W        W54208  40.350  27.526   4.756
92678W        W54209  33.011  34.984   4.208
92679W        W54210  21.034   4.758   3.656
92680W        W54211  43.512   4.780   0.844
92681W        W54212   3.921   5.292   3.349
92682W        W54213  12.348  41.002   1.897
92683W        W54214  11.646  28.451   1.235
92684W        W54215  19.690  19.776   2.801
92685W        W54216   3.377   7.681   0.833
92686W        W54217  37.944  26.202  10.530
92687W        W54218  40.326  41.437   1.892
92688W        W54219   7.292   0.956  10.045
92689W        W54220  32.940  37.431   5.121
92690W        W54221  27.145  36.936   0.847
92691W        W54222  41.799   1.933   1.312
92692W        W54223   5.696   0.855  14.792
92693W        W54224  43.889  19.041   2.254
92694W        W54225  23.591  19.078  11.491
92695W        W54226  12.840   5.219  14.498
92696W        W54227  32.122  10.260  11.979
92697W        W54228  16.784  32.977   0.921
92698W        W54229  27.658  32.526   2.683
92699W        W54230  27.585   8.669   0.800
92700W        W54231  28.136  31.070  10.538
92701W        W54232  24.717   2.908  14.422
92702W        W54233   9.836  37.473  13.935
92703W        W54234  26.043  13.109   0.264
92704W        W54235  37.528  31.637  14.978
92705W        W54236   9.662   7.386   3.770
92706W        W54237  24.079  41.385   9.958
92707W        W54238  26.521  27.007  12.928
92708W        W54239  30.469  42.792  10.607
92709W        W54240  29.004  12.193  12.937
92710W        W54241  17.681  34.095  12.847
92711W        W54242   7.367  35.998  10.553
92712W        W54243  31.116  39.935  11.528
92713W        W54244   2.352   2.400   4.766
92714W        W54245   7.815   3.348   4.635
92715W        W54246  40.451  28.000   3.710
92716W        W54247   7.375  29.563   1.859
92717W        W54248   9.779  31.139  11.433
92718W        W54249  39.530  28.614   2.691
92719W        W54250  38.918  28.483  10.632
92720W        W54251   1.289  31.621  11.380
92721W        W54252  34.497  23.027   0.400
92722W        W54253   7.819   5.294  13.025
92723W        W54254  23.611  22.203  14.990
92724W        W54255  18.120  37.903   1.858
92725W        W54256   2.899   8.238   4.248
92726W        W54257  18.690  32.486  14.919
92727W        W54258  40.972  20.756   0.423
92728W        W54259  35.078  33.966  12.382
92729W        W54260  42.864   7.308  11.029
92730W        W54261   9.225  26.555   3.670
92731W        W54262  34.112  33.384   0.305
92732W        W54263  21.710  33.597  10.527
92733W        W54264  30.047  20.638  10.422
92734W        W54265   7.327  15.662  12.095
92735W        W54266   3.279   3.910   0.286
92736W        W54267  34.891  31.506   3.155
92737W        W54268  31.038  25.010  11.480
92738W        W54269   1.335  10.773   4.152
92739W        W54270   6.725  21.154  12.459
92740W        W54271  35.004   7.895   2.834
92741W        W54272  14.296   5.414  12.845
92742W        W54273  13.235  25.152  10.003
92743W        W54274   9.760  29.620  11.006
92744W        W54275  41.470  39.935  11.889
92745W        W54276   0.752  10.699   0.826
92746W        W54277  19.159   6.203  11.514
92747W        W54278  39.370  12.183  11.549
92748W        W54279  32.073  24.186  14.386
92749W        W54280  28.658  28.140  11.017
92750W        W54281  29.469  11.813  13.950
92751W        W54282  10.204   8.357   1.227
92752W        W54283  34.435  36.048  12.071
92753W        W54284   1.843   7.864  12.872
92754W        W54285  36.412  16.135   1.843
92755W        W54286  39.481  13.250   1.758
92756W        W54287  37.350  28.525   1.288
92757W        W54288  33.889  28.535  13.923
92758W        W54289  17.096  28.153  12.379
92759W        W54290  37.477  27.469   0.461
92760W        W54291   8.685   3.729  13.402
92761W        W54292  44.336   1.929  10.445
92762W        W54293  16.800  24.002   0.480
92763W        W54294   1.467  29.436  12.951
92764W        W54295  26.531  29.056   0.380
92765W        W54296  25.588   7.777   1.740
92766W        W54297  31.050  41.327   3.153
92767W        W54298  40.399  16.705  14.827
92768W        W54299  10.294  31.043  14.878
92769W        W54300  28.154  39.991  14.411
92770W        W54301  26.506  30.982  14.787
92771W        W54302   0.342  39.975   4.656
92772W        W54303   5.748   5.894   0.749
92773W        W54304  41.293  21.541   4.266
92774W        W54305  19.568  14.765  13.873
92775W        W54306  36.010  23.130  12.357
92776W        W54307  30.463   1.282   0.279
92777W        W54308   8.755  35.387  11.534
92778W        W54309  21.111   8.405  10.946
92779W        W54310  30.098  13.640   0.371
92780W        W54311  40.948   3.870   4.146
92781W        W54312  24.034  38.855  12.390
92782W        W54313  40.962   9.153   0.792
92783W        W54314  17.731  28.982   0.920
92784W        W54315  34.919  26.186   0.858
92785W        W54316   0.418   6.862   3.747
92786W        W54317  23.013  33.111  11.127
92787W        W54318  14.724  42.371  14.808
92788W        W54319  23.648  40.994  14.437
92789W        W54320  14.165   3.816   2.811
92790W        W54321  19.726   2.320   4.241
92791W        W54322  24.720  30.120  11.478
92792W        W54323   5.209  39.482  14.492
92793W        W54324  14.829  26.471  11.954
92794W        W54325  40.546   8.401   5.318
92795W        W54326  11.848  42.801   0.913
92796W        W54327  43.386  35.957  11.514
92797W        W54328  39.006  44.378   4.648
92798W        W54329   8.180   4.778  12.008
92799W        W54330  41.901  11.133  12.494
92800W        W54331   3.856  31.605   2.840
92801W        W54332   6.374  25.560   4.154
92802W        W54333  38.480  26.660   4.304
92803W        W54334  28.661   2.420   0.792
92804W        W54335  41.967  21.538   3.689
92805W        W54336  42.434   4.918   4.647
92806W        W54337   0.355  33.402  13.913
92807W        W54338  11.717   3.848  14.994
92808W        W54339   4.754   0.935   4.233
92809W        W54340  37.031  21.637   0.277
92810W        W54341   9.682  28.551  11.426
92811W        W54342  24.225  38.844   0.352
92812W        W54343   1.482  28.142   1.379
92813W        W54344  16.169  31.538  14.974
92814W        W54345  11.239  18.622  11.399
92815W        W54346  38.509  25.048  13.350
92816W        W54347  10.642   0.276  11.463
92817W        W54348  43.304   1.914  10.913
92818W        W54349  21.606  14.726   2.742
92819W        W54350  24.483  19.614  11.945
92820W        W54351   5.710  24.625  10.490
92821W        W54352  27.991  36.020   4.150
92822W        W54353   4.204  10.854   4.195
92823W        W54354  28.490   7.799  13.504
92824W        W54355  34.879  11.287   0.340
92825W        W54356  13.693  22.154   4.299
92826W        W54357  35.561  32.440  11.959
92827W        W54358  22.646  34.510   4.332
92828W        W54359  11.715  28.049   4.326
92829W        W54360  29.053  27.138   2.397
92830W        W54361  43.318  33.395   2.869
92831W        W54362  36.956  17.712   1.797
92832W        W54363   6.349  23.586   4.782
92833W        W54364  29.570  35.414  10.472
92834W        W54365  19.278  16.585   3.361
92835W        W54366  13.240  29.032  10.995
92836W        W54367  15.175  25.000   1.327
92837W        W54368  30.136  25.989   4.149
92838W        W54369  24.048  18.270   3.669
92839W        W54370  33.526  22.722   4.349
92840W        W54371  20.693  15.806   3.806
92841W        W54372   5.296  24.015  10.992
92842W        W54373  12.169  21.512   1.790
92843W        W54374  15.745   8.210   0.944
92844W        W54375  23.045  42.956   4.236
92845W        W54376  12.723  19.268   4.153
92846W        W54377  37.502  42.798   2.294
92847W        W54378  30.038  43.921   4.769
92848W        W54379   2.233  32.570  10.517
92849W        W54380  12.268  16.204   3.785
92850W        W54381   6.401  30.030   4.280
92851W        W54382  41.788  13.648  14.844
92852W        W54383  11.748   0.885  13.812
92853W        W54384  37.051  37.932  14.847
92854W        W54385  11.336   8.700   0.861
92855W        W54386  22.713   8.288   2.851
92856W        W54387  28.952  30.112  12.883
92857W        W54388   0.821  29.081   3.346
92858W        W54389  40.526  18.066  14.000
92859W        W54390  28.576  12.833   4.319
92860W        W54391  36.879   6.192  11.947
92861W        W54392  22.240  42.970  13.313
92862W        W54393  30.919  26.973  14.955
92863W        W54394  16.759  23.071  14.918
92864W        W54395  27.488  42.813  11.517
92865W        W54396  24.004  41.394  13.419
92866W        W54397   5.742  30.106   4.331
92867W        W54398  23.188  22.504   2.198
92868W        W54399   7.246  30.978   0.251
92869W        W54400  24.131  21.529   4.175
92870W        W54401   1.333  27.997  13.499
92871W        W54402  21.080  12.316   4.759
92872W        W54403   8.720   2.279  14.501
92873W        W54404  20.587   2.440   3.751
92874W        W54405   5.366  39.395   4.300
92875W        W54406  30.962  44.828  11.932
92876W        W54407   1.265  16.267  12.511
92877W        W54408   0.313  29.920  13.470
92878W        W54409  35.451  19.576   2.208
92879W        W54410  28.184   8.177   1.412
92880W        W54411  31.643  26.972  13.477
92881W        W54412  34.563  36.921   2.271
92882W        W54413   3.789  26.509  14.995
92883W        W54414  42.442  38.015  11.447
92884W        W54415   0.972   7.337   2.336
92885W        W54416  15.806  24.714  14.770
92886W        W54417  22.204  25.989   1.411
92887W        W54418  42.822  35.435   4.747
92888W        W54419  17.602  18.149  14.983
92889W        W54420  38.406  11.792   2.324
92890W        W54421   2.904   1.861  12.006
92891W        W54422  20.575   8.222  14.801
92892W        W54423   6.327  39.313   1.253
92893W        W54424  35.870   6.229   2.202
92894W        W54425  23.571  35.084  10.905
92895W        W54426  15.152  42.378  14.367
92896W        W54427  28.599  11.352   0.809
92897W        W54428  11.649   7.758   0.851
92898W        W54429   3.853  16.674   4.235
92899W        W54430  38.984   4.856  13.342
92900W        W54431  17.148   7.391   0.914
92901W        W54432  38.918  34.887  10.039
92902W        W54433  17.188   2.265   1.695
92903W        W54434  26.479  35.597   1.714
92904W        W54435   9.209  24.568  13.502
92905W        W54436   4.375  12.656  10.439
92906W        W54437  12.828  21.088  10.976
92907W        W54438  39.838   5.710   2.806
92908W        W54439  17.564  20.560  14.977
92909W        W54440  12.201   9.717   0.291
92910W        W54441  28.187  44.789   3.790
92911W        W54442   0.379  12.693  14.400
92912W        W54443  30.592  27.964   1.771
92913W        W54444  33.617  38.469  13.447
92914W        W54445   9.721  13.686   4.782
92915W        W54446  12.695  19.283  10.639
92916W        W54447   3.416  16.583  14.893
92917W        W54448   1.860  21.633   4.767
92918W        W54449   2.405  12.360   1.822
92919W        W54450  35.087  24.981   4.172
92920W        W54451  42.353  34.445   4.670
92921W        W54452   7.253  13.736  14.943
92922W        W54453  30.019  33.466  13.007
92923W        W54454   1.738  23.637   1.249
92924W        W54455  12.701  10.349  14.436
92925W        W54456  20.037  17.111   2.868
92926W        W54457  20.695   3.866  11.983
92927W        W54458  11.791  27.110   1.790
92928W        W54459  20.615  42.400  13.873
92929W        W54460  32.618  39.843  11.878
92930W        W54461  25.142  28.463   4.218
92931W        W54462   7.703  25.665   2.748
92932W        W54463  19.659  40.376  12.934
92933W        W54464  22.534  14.329   3.180
92934W        W54465  43.879   8.304  13.427
92935W        W54466  35.471   8.807   4.203
92936W        W54467  32.987  34.583  13.007
92937W        W54468  17.178  39.955   1.348
92938W        W54469  42.375  19.736   4.661
92939W        W54470  31.537  40.431   2.336
92940W        W54471  11.349  42.291   2.885
92941W        W54472  11.192   3.713   4.178
92942W        W54473  20.090  44.766  13.455
92943W        W54474   5.715  25.616   1.701
92944W        W54475  16.170  12.618   3.305
92945W        W54476  14.642  41.808   4.247
92946W        W54477  20.530  25.698   1.319
92947W        W54478  17.575   9.723  13.993
92948W        W54479  10.347  10.341  12.419
92949W        W54480  19.693  42.365   4.152
92950W        W54481   7.375  30.466   1.829
92951W        W54482   2.317   2.316  13.353
92952W        W54483  25.568  10.727   1.706
92953W        W54484  18.191   3.715  13.317
92954W        W54485   9.285  42.835  14.293
92955W        W54486   2.457  22.021   9.965
92956W        W54487   4.266   0.455  12.050
92957W        W54488  13.600  23.711  11.855
92958W        W54489  33.439  42.316  12.437
92959W        W54490  27.070  40.899  11.481
92960W        W54491  16.243  13.152   1.762
92961W        W54492   2.947  13.628   2.713
92962W        W54493  27.639  32.626   3.188
92963W        W54494  32.520  16.247  12.833
92964W        W54495   5.417  16.597   0.909
92965W        W54496  24.536  11.836  13.430
92966W        W54497  11.146  44.759  13.949
92967W        W54498  31.132   4.913   5.281
92968W        W54499   5.908  17.272  14.473
92969W        W54500   7.361  32.403   1.819
92970W        W54501  35.938   9.335   0.283
92971W        W54502  36.983  32.565   2.704
92972W        W54503  40.844  21.699  10.904
92973W        W54504  41.928  18.125   3.766
92974W        W54505  43.443  27.137   1.372
92975W        W54506   6.755  44.857  13.864
92976W        W54507  31.414   3.753  12.865
92977W        W54508  22.126  31.465   5.638
92978W        W54509   7.245  23.133  11.118
92979W        W54510  16.148   4.849  11.534
92980W        W54511  39.425  38.509   1.812
92981W        W54512   2.299   8.311   0.944
92982W        W54513  12.723  26.688  11.559
92983W        W54514  39.881  13.284   9.946
92984W        W54515  18.052  36.498   4.200
92985W        W54516  44.333  13.744   2.372
92986W        W54517  10.721  32.620  12.495
92987W        W54518   5.821  26.499   2.280
92988W        W54519  34.595  21.704   4.178
92989W        W54520  25.071  19.662  10.964
92990W        W54521  34.492  36.852  13.423
92991W        W54522  33.412  35.408   0.792
92992W        W54523  31.514  24.074  11.533
92993W        W54524  22.125  42.996   2.299
92994W        W54525   8.808  40.013   3.161
92995W        W54526   8.216  33.475   2.841
92996W        W54527  24.556  12.211   2.845
92997W        W54528  33.041  37.413   0.269
92998W        W54529  13.335  37.503   3.273
92999W        W54530   5.752   3.429   1.390
93000W        W54531  30.642  25.544   1.784
93001W        W54532  35.549  25.519   3.370
93002W        W54533   5.914  34.912  12.827
93003W        W54534  37.073  44.406   9.985
93004W        W54535  25.047  30.591  14.424
93005W        W54536  10.787  39.550  12.088
93006W        W54537  37.501  41.974   5.147
93007W        W54538  30.552  12.234  12.892
93008W        W54539   8.306  42.444   2.198
93009W        W54540  27.564  11.670  12.856
93010W        W54541  31.153   9.230   2.666
93011W        W54542  16.265  23.646   1.290
93012W        W54543  20.197  43.404   2.864
93013W        W54544  16.605   9.387  14.459
93014W        W54545  35.510   0.755   2.371
93015W        W54546  16.764   4.875  14.389
93016W        W54547   7.244  16.808   2.275
93017W        W54548  27.104  34.095   1.296
93018W        W54549   9.199  27.983   2.883
93019W        W54550  11.778  10.822   1.316
93020W        W54551  22.651  38.470   2.683
93021W        W54552   3.777  40.370  14.837
93022W        W54553  11.236  16.637  14.409
93023W        W54554   2.790  36.562   3.648
93024W        W54555  33.490  26.077  14.867
93025W        W54556  27.107  11.136   1.887
93026W        W54557  18.546   6.715  14.514
93027W        W54558   7.322   0.757  13.014
93028W        W54559  14.127  24.163  12.859
93029W        W54560  21.729  44.788   4.761
93030W        W54561  15.785  10.643  13.036
93031W        W54562  11.762   7.685   4.728
93032W        W54563  21.622   2.413   1.820
93033W        W54564   3.449  30.928  12.442
93034W        W54565  22.624  38.851  12.517
93035W        W54566  14.613  16.157   4.115
93036W        W54567  33.890  16.229  15.000
93037W        W54568   5.741   3.741   1.310
93038W        W54569  12.782  28.531  11.382
93039W        W54570  36.084   8.313   2.268
93040W        W54571  43.967  41.881  14.811
93041W        W54572  29.615  34.589  14.799
93042W        W54573   0.873  30.573  14.305
93043W        W54574   3.316  11.637   4.771
93044W        W54575  29.427  42.496   0.790
93045W        W54576  30.007  38.011   4.281
93046W        W54577   9.696  14.663  13.889
93047W        W54578  40.806   5.204   1.448
93048W        W54579  44.892  13.218  12.453
93049W        W54580   5.755  41.818   4.688
93050W        W54581  16.154  27.593  10.644
93051W        W54582  29.450  28.505  13.049
93052W        W54583   3.887  15.140   3.165
93053W        W54584  38.544   4.369   2.331
93054W        W54585  15.682  23.102   2.692
93055W        W54586  13.817  23.089  10.907
93056W        W54587  10.715  16.666   3.831
93057W        W54588  42.910   2.452  10.925
93058W        W54589   9.656  44.487  11.867
93059W        W54590  38.995  41.943   2.225
93060W        W54591  30.562   4.770  12.388
93061W        W54592  21.187  32.633   3.823
93062W        W54593  26.595  29.073  13.353
93063W        W54594  11.655  31.135   3.179
93064W        W54595  33.410  19.655   4.786
93065W        W54596  30.518  42.333  10.546
93066W        W54597  23.493  17.264  13.311
93067W        W54598   2.954  17.267   2.807
93068W        W54599   2.730  25.528  14.810
93069W        W54600  25.545  12.308   0.826
93070W        W54601   3.240  20.672   1.399
93071W        W54602  30.923  15.780  14.764
93072W        W54603  26.982  26.550   1.285
93073W        W54604  12.630  19.104   0.759
93074W        W54605  35.600  10.642   3.762
93075W        W54606  18.288  17.147   1.797
93076W        W54607  17.114  36.380   1.419
93077W        W54608  18.175  10.726   1.411
93078W        W54609  34.468  17.716   2.792
93079W        W54610  22.691   2.780   0.327
93080W        W54611   8.797  24.548   4.154
93081W        W54612  44.491  20.696  11.377
93082W        W54613  40.963  33.008  10.934
93083W        W54614   5.856  15.316  10.485
93084W        W54615  40.307   7.353  13.949
93085W        W54616  27.512   9.756   0.922
93086W        W54617  43.779  35.549  11.442
93087W        W54618  23.593  21.207  13.989
93088W        W54619  31.957  36.507  12.554
93089W        W54620  28.471  19.692   0.871
93090W        W54621   4.805  33.455   3.866
93091W        W54622  40.431  32.517  11.857
93092W        W54623  30.112  37.448   3.704
93093W        W54624   5.883   5.905  12.357
93094W        W54625   2.248   9.294  11.546
93095W        W54626  14.657  29.564   4.787
93096W        W54627  21.673  29.471   4.797
93097W        W54628  21.208  10.783   0.429
93098W        W54629  11.230  11.819  11.892
93099W        W54630  33.983  15.605   3.638
93100W        W54631   6.214  20.143   3.760
93101W        W54632  10.372  19.086   3.348
93102W        W54633   0.295  28.622  12.881
93103W        W54634   3.843  26.505  14.423
93104W        W54635   6.712  32.557   2.247
93105W        W54636  40.522   6.218  14.458
93106W        W54637  27.571  30.992   9.673
93107W        W54638  22.096   4.274   3.818
93108W        W54639  30.103  13.668  13.389
93109W        W54640  29.545  26.200  14.774
93110W        W54641   6.265  41.032  13.405
93111W        W54642   9.739  17.300  11.085
93112W        W54643  25.039  16.159  12.011
93113W        W54644  38.994   7.414  12.827
93114W        W54645  17.096  30.561  14.389
93115W        W54646  21.204  14.259   3.222
93116W        W54647  42.350  43.969  12.995
93117W        W54648  31.543  28.676  12.874
93118W        W54649  35.982  23.999  10.457
93119W        W54650  21.063  25.029   1.212
93120W        W54651   2.294  42.923   4.719
93121W        W54652  40.315  11.361   4.284
93122W        W54653  36.486   9.395   5.081
93123W        W54654  27.668  34.919   2.839
93124W        W54655  23.071  36.567  11.588
93125W        W54656  32.032  24.710   2.775
93126W        W54657   9.361  19.210  12.077
93127W        W54658  14.676  12.300  11.053
93128W        W54659  12.338  42.883   2.823
93129W        W54660   9.754  36.088  13.918
93130W        W54661  32.626   8.823   1.252
93131W        W54662  43.880  12.643   3.162
93132W        W54663  14.145   1.842   2.286
93133W        W54664  32.564  44.388  11.499
93134W        W54665  34.021  42.987   2.331
93135W        W54666  14.645  21.027   2.266
93136W        W54667   2.422  35.968  10.102
93137W        W54668  13.151  12.356  11.585
93138W        W54669  37.352   2.233   4.298
93139W        W54670  25.665  33.028   1.895
93140W        W54671   6.393   2.354  11.445
93141W        W54672   1.392  18.077  10.560
93142W        W54673   2.839  26.608   1.334
93143W        W54674  35.087  18.731   4.811
93144W        W54675  43.777   8.894  14.808
93145W        W54676  17.716  26.983  13.897
93146W        W54677  10.786  39.500  14.788
93147W        W54678  14.788  43.820   2.263
93148W        W54679  14.594  38.501  14.358
93149W        W54680  31.907  14.305   3.866
93150W        W54681  18.772  14.261  11.534
93151W        W54682  22.693  12.310   2.296
93152W        W54683   8.373  39.428  10.420
93153W        W54684  31.581  27.966   2.216
93154W        W54685  21.092  35.450   5.322
93155W        W54686  23.184  12.777   3.286
93156W        W54687  27.161   6.923   3.373
93157W        W54688  36.482  13.800  13.804
93158W        W54689  22.634  27.605  12.420
93159W        W54690  11.866  29.991   2.231
93160W        W54691  12.307  10.786   0.339
93161W        W54692  30.944  19.283  13.061
93162W        W54693  16.792  43.000  11.035
93163W        W54694  11.338  29.170  10.504
93164W        W54695  12.341   3.794   3.196
93165W        W54696   4.940  29.664  12.017
93166W        W54697   9.310  40.396   1.379
93167W        W54698  30.593   7.227  12.570
93168W        W54699   6.799  33.421   4.149
93169W        W54700  19.682  39.022  14.407
93170W        W54701  37.043  38.455   1.405
93171W        W54702  40.860   5.907  12.355
93172W        W54703  13.212  15.609  10.609
93173W        W54704   2.960   5.260   2.847
93174W        W54705  28.662  14.612   0.397
93175W        W54706  24.698  36.439  11.000
93176W        W54707  25.671   9.868   2.740
93177W        W54708  18.629   4.722   1.391
93178W        W54709   2.400  41.847  13.895
93179W        W54710  31.570  21.107  14.959
93180W        W54711  10.151  24.717  11.125
93181W        W54712   1.884  34.051  14.910
93182W        W54713  35.405  32.439  13.519
93183W        W54714  37.925  18.620  13.928
93184W        W54715  22.161  18.620  12.908
93185W        W54716  26.588   0.286  12.389
93186W        W54717  13.327  41.346  12.832
93187W        W54718   8.249  34.883   0.298
93188W        W54719  42.776  23.662  13.327
93189W        W54720  33.615   1.479  12.852
93190W        W54721  19.627   6.864   1.846
93191W        W54722  15.271  42.827  11.913
93192W        W54723  26.079   4.335   1.841
93193W        W54724  12.270  34.384  12.347
93194W        W54725  11.367  24.088  11.561
93195W        W54726  30.646   6.871  14.303
93196W        W54727   4.914  31.899  10.957
93197W        W54728  27.613   6.705   1.709
93198W        W54729  23.702  16.310   1.701
93199W        W54730  22.676  21.122   3.719
93200W        W54731  41.870  28.462  12.977
93201W        W54732  23.143  39.382  14.984
93202W        W54733  22.674  44.931   0.881
93203W        W54734  27.957  38.026  13.516
93204W        W54735  33.491  17.796   2.415
93205W        W54736  33.979   5.210   2.418
93206W        W54737  44.970  32.471  12.022
93207W        W54738  37.943  43.380  13.346
93208W        W54739  16.809  26.498  13.053
93209W        W54740  15.232   3.718  10.959
93210W        W54741  23.495  32.478   4.262
93211W        W54742  25.009   9.188   1.718
93212W        W54743  24.102   8.204  11.538
93213W        W54744  40.849   2.800   3.660
93214W        W54745  37.454  25.492   0.439
93215W        W54746  21.722  35.021  11.915
93216W        W54747  36.960  39.392   2.829
93217W        W54748  31.483  36.866  14.340
93218W        W54749   8.297   1.284  10.538
93219W        W54750   1.278  41.800   0.284
93220W        W54751  38.051   5.712  12.082
93221W        W54752   5.904  42.835   3.846
93222W        W54753  40.419  18.724  11.378
93223W        W54754  40.036   0.330  13.915
93224W        W54755   1.359  34.599  14.360
93225W        W54756  33.417  24.497   4.736
93226W        W54757   2.792  17.085  14.013
93227W        W54758  16.239  28.938  12.444
93228W        W54759  32.076  25.566   4.183
93229W        W54760  29.129  36.538   0.811
93230W        W54761   9.714  26.029  10.924
93231W        W54762   4.373   8.276  14.357
93232W        W54763  17.566   3.887   4.179
93233W        W54764  43.903  32.088   2.196
93234W        W54765  41.534  30.936   2.249
93235W        W54766   2.340  24.502  14.937
93236W        W54767   5.861   4.935  11.062
93237W        W54768  42.882   6.349  12.440
93238W        W54769  13.836  23.106   4.626
93239W        W54770  30.041  21.217  14.334
93240W        W54771  14.277  14.804  13.851
93241W        W54772   4.754  12.700   4.783
93242W        W54773  41.537  18.247   2.340
93243W        W54774  22.052  15.234   2.324
93244W        W54775   3.401   2.354   3.194
93245W        W54776  43.825  26.608  13.893
93246W        W54777  11.174  40.364  12.890
93247W        W54778  31.043   0.989   3.750
93248W        W54779  28.515  13.802   0.946
93249W        W54780  17.669  29.454  14.908
93250W        W54781  22.654  13.300  12.938
93251W        W54782  12.849  38.336  14.332
93252W        W54783  30.081   4.283  10.554
93253W        W54784  29.172  18.660  12.888
93254W        W54785  38.481  11.127   1.781
93255W        W54786  23.560  24.099   0.330
93256W        W54787   9.233  21.221  11.914
93257W        W54788  30.971   6.910  14.347
93258W        W54789  22.509  22.151  13.863
93259W        W54790   8.278  15.118  13.843
93260W        W54791   6.794   8.406   4.236
93261W        W54792   2.904   4.944   0.738
93262W        W54793  23.095  44.911  13.367
93263W        W54794  35.036  20.621   3.149
93264W        W54795  21.649  43.419  14.835
93265W        W54796  14.137  37.363  10.024
93266W        W54797  18.274  31.644  13.541
93267W        W54798  43.452   7.330  12.360
93268W        W54799  26.650  16.268  12.904
93269W        W54800  18.779  34.063  13.978
93270W        W54801  44.400  41.875  12.052
93271W        W54802  12.233  37.408  10.589
93272W        W54803   3.332  17.170  11.422
93273W        W54804  15.639  35.498  12.025
93274W        W54805  20.689  20.686  12.492
93275W        W54806  18.250  38.501  11.882
93276W        W54807  36.495  18.578   4.807
93277W        W54808  41.024  26.478   1.439
93278W        W54809  14.758  15.821  13.311
93279W        W54810  12.851   7.804  14.989
93280W        W54811  24.096  15.644   0.474
93281W        W54812  24.501  30.150  10.602
93282W        W54813  39.478  41.850   3.786
93283W        W54814  16.692  10.269  11.532
93284W        W54815  24.720  40.498  12.003
93285W        W54816  26.487  26.003   3.348
93286W        W54817   2.873  25.998  12.517
93287W        W54818  43.399  30.074  12.387
93288W        W54819  14.193  14.320   0.305
93289W        W54820  25.188  27.984  10.438
93290W        W54821   5.893   2.897   4.235
93291W        W54822  19.049   8.315  14.894
93292W        W54823  30.440  40.406   1.313
93293W        W54824  13.661  36.586  12.060
93294W        W54825   8.765  17.583   3.639
93295W        W54826  25.619   6.415   0.812
93296W        W54827  25.705   3.259  11.052
93297W        W54828  23.168  19.735   1.927
93298W        W54829   8.768  29.606   2.679
93299W        W54830  43.311  42.890  12.493
93300W        W54831  31.635  38.892  13.811
93301W        W54832  42.917   2.782   1.770
93302W        W54833  15.281  22.060   3.226
93303W        W54834  31.925  37.578   0.338
93304W        W54835  38.566  10.286  11.862
93305W        W54836  21.681  21.729   0.271
93306W        W54837  21.115  41.923   0.367
93307W        W54838  29.968  23.092  13.318
93308W        W54839  38.547  10.789   1.716
93309W        W54840  13.315  38.464  10.912
93310W        W54841  32.971  39.949  12.838
93311W        W54842  37.994  13.137   4.295
93312W        W54843  41.803  42.349  14.282
93313W        W54844   3.271  20.588   4.351
93314W        W54845  35.440  39.062   5.170
93315W        W54846  37.036  25.516   3.319
93316W        W54847  29.003  37.946   3.317
93317W        W54848   6.766   0.944   0.301
93318W        W54849   7.774  35.993  13.852
93319W        W54850  35.054  26.157  13.331
93320W        W54851  30.926  14.256  10.979
93321W        W54852  24.167  17.249  10.144
93322W        W54853   1.268   0.295  11.503
93323W        W54854  38.554   3.931   4.155
93324W        W54855  15.193  27.945   0.924
93325W        W54856  11.689  30.413  12.841
93326W        W54857  19.750  30.044   4.809
93327W        W54858   0.316   0.470  11.380
93328W        W54859   6.320  30.588   5.312
93329W        W54860  28.465  27.496   4.279
93330W        W54861  18.705  17.141  14.897
93331W        W54862  27.124  35.934   2.344
93332W        W54863  44.431  41.463  13.389
93333W        W54864   1.887  20.605  13.402
93334W        W54865  42.523   6.799   3.855
93335W        W54866  35.370  27.098   4.118
93336W        W54867  42.866  38.378  13.999
93337W        W54868   4.752  24.094   3.270
93338W        W54869  16.273  33.088   0.405
93339W        W54870  40.423  44.360   4.198
93340W        W54871  35.537   6.317  13.928
93341W        W54872  26.575  23.557  11.894
93342W        W54873  40.881  25.163   2.320
93343W        W54874  41.787  15.140  11.943
93344W        W54875  29.047  13.732  12.012
93345W        W54876  27.072  32.570   0.889
93346W        W54877  24.058   4.737  14.899
93347W        W54878  39.555  12.770   9.449
93348W        W54879  36.405  15.677   0.251
93349W        W54880  30.609   6.393  11.956
93350W        W54881  17.181  40.339  12.476
93351W        W54882   1.951  17.583   3.689
93352W        W54883   7.384  14.247   0.285
93353W        W54884  14.731  29.064   2.852
93354W        W54885  24.666  27.050  13.340
93355W        W54886   2.353  38.979   3.782
93356W        W54887  20.110   6.219   4.354
93357W        W54888  39.872  42.817   0.925
93358W        W54889  39.353  21.660   3.631
93359W        W54890   5.363  39.913   2.785
93360W        W54891  11.708  34.462   3.233
93361W        W54892  24.674  20.218   0.830
93362W        W54893  25.609   8.336   3.250
93363W        W54894  19.255   1.342   1.434
93364W        W54895   8.717  35.438   2.237
93365W        W54896  11.833  24.607   1.700
93366W        W54897  22.077  31.135  12.011
93367W        W54898  13.346   6.397   2.688
93368W        W54899  24.033  20.246   0.895
93369W        W54900   7.772  17.197   0.360
93370W        W54901  38.877  37.399  14.506
93371W        W54902  11.357  40.419   2.241
93372W        W54903  21.622  34.888   0.781
93373W        W54904   6.294  28.662  11.053
93374W        W54905  42.779  23.553  12.522
93375W        W54906  33.935  44.781   4.814
93376W        W54907  43.379   0.279   0.889
93377W        W54908  26.071  27.475   3.869
93378W        W54909  20.613  40.370   2.766
93379W        W54910  37.043  21.194  13.538
93380W        W54911   6.189  21.261   4.230
93381W        W54912  23.068   4.423   0.473
93382W        W54913  31.613  28.940  12.357
93383W        W54914  33.543  44.997  10.987
93384W        W54915  11.352  27.027  12.573
93385W        W54916  11.334   4.786  13.984
93386W        W54917  31.513  44.802   4.343
93387W        W54918  19.248  29.560  14.912
93388W        W54919  31.600  13.817   9.449
93389W        W54920  10.181  20.650  11.856
93390W        W54921   9.356   6.364  13.978
93391W        W54922   7.876  23.220  12.988
93392W        W54923  14.757  43.942  10.916
93393W        W54924  16.573   9.161  10.964
93394W        W54925  20.604   3.456  13.487
93395W        W54926  23.155  31.935   1.440
93396W        W54927  10.649  31.470   4.735
93397W        W54928   2.231  34.073   0.754
93398W        W54929  26.525  38.935   4.753
93399W        W54930  19.700  41.906   1.318
93400W        W54931  11.312   9.390   4.144
93401W        W54932  16.625  21.184   2.876
93402W        W54933  33.526  26.996   3.805
93403W        W54934  36.502  30.050   1.312
93404W        W54935  14.823  34.488  14.300
93405W        W54936  13.192   9.353   3.684
93406W        W54937  23.614  41.327   3.154
93407W        W54938  24.108   6.735  13.414
93408W        W54939  33.606  20.702   2.235
93409W        W54940  29.152  21.597   3.677
93410W        W54941  31.501  35.482  14.920
93411W        W54942  17.121  42.516   1.777
93412W        W54943   8.711   6.378  10.603
93413W        W54944  30.148   6.215   4.796
93414W        W54945   6.726  15.119  13.978
93415W        W54946  13.626  26.082   2.853
93416W        W54947  15.237  17.797   4.703
93417W        W54948  17.284  10.663  13.995
93418W        W54949  42.370  14.265  13.982
93419W        W54950  15.663  28.507  11.048
93420W        W54951  44.952   9.791   0.472
93421W        W54952  30.085   9.343   2.408
93422W        W54953  37.042  14.758  11.890
93423W        W54954  42.893  25.132   0.289
93424W        W54955  38.424  25.511   3.750
93425W        W54956   7.176  43.406  12.449
93426W        W54957  29.023  17.692  14.350
93427W        W54958  13.746  41.927  14.990
93428W        W54959  18.196   5.369   0.863
93429W        W54960  13.806  36.373  10.641
93430W        W54961  27.519   5.375   2.862
93431W        W54962  22.510  38.001  14.962
93432W        W54963  20.744   5.396  13.833
93433W        W54964  40.948  21.112  13.358
93434W        W54965  19.737  23.186  11.042
93435W        W54966  23.168   1.813  12.828
93436W        W54967  19.779  16.740  13.468
93437W        W54968  19.131   3.741  12.051
93438W        W54969  23.137  36.535  12.035
93439W        W54970  24.000  42.968   1.838
93440W        W54971  14.782  14.671   2.805
93441W        W54972  11.689  38.836  10.968
93442W        W54973  29.976  17.716  12.535
93443W        W54974   1.800  43.466  11.095
93444W        W54975  33.932  24.176   4.729
93445W        W54976  24.159  29.078   2.335
93446W        W54977  15.161  30.490  13.907
93447W        W54978  12.200  42.952  11.954
93448W        W54979  10.320  19.692   2.765
93449W        W54980  32.594  39.436  14.792
93450W        W54981  43.299  30.635  12.554
93451W        W54982   6.402  31.996  14.483
93452W        W54983  32.131  13.123  11.014
93453W        W54984  19.755   2.917   0.446
93454W        W54985  12.856   5.812   0.788
93455W        W54986  13.634   4.927  10.644
93456W        W54987  44.919   4.219  10.980
93457W        W54988   9.195  23.136   3.833
93458W        W54989  10.661   1.406  12.011
93459W        W54990   3.443  17.625  10.969
93460W        W54991  28.482   5.838   4.317
93461W        W54992  44.010  38.924  12.882
93462W        W54993  17.586  29.937  10.943
93463W        W54994  17.191  43.945  12.873
93464W        W54995   1.971  16.225  10.481
93465W        W54996  12.209  35.593  13.493
93466W        W54997  28.576   1.874  11.410
93467W        W54998  21.651   0.894  13.480
93468W        W54999  35.598  21.025  14.773
93469W        W55000  23.734  44.801   0.920
93470W        W55001   7.857  26.558  14.969
93471W        W55002  33.585  23.219  11.994
93472W        W55003  17.742  18.654   2.263
93473W        W55004  36.409   1.405  11.954
93474W        W55005  24.222  19.549   4.826
93475W        W55006  34.951  30.071  13.467
93476W        W55007   5.859  11.154   2.210
93477W        W55008  16.775  17.590   3.342
93478W        W55009  27.501  38.505   2.406
93479W        W55010  37.518  17.619   3.370
93480W        W55011  34.525  43.835   0.428
93481W        W55012  34.475  26.064  13.941
93482W        W55013   2.427  19.087  12.536
93483W        W55014  36.858  38.390  14.405
93484W        W55015  11.864  39.389  10.909
93485W        W55016  30.064  34.601  11.943
93486W        W55017  33.011  33.024  14.331
93487W        W55018  33.496  43.384  13.440
93488W        W55019   4.412  27.072  11.397
93489W        W55020  44.366   3.263  11.929
93490W        W55021  38.024  43.272   3.703
93491W        W55022   8.759  39.377   4.781
93492W        W55023   5.283  17.630  14.995
93493W        W55024  11.348  18.593   0.301
93494W        W55025  33.468  17.147   4.161
93495W        W55026  44.775   5.698   4.216
93496W        W55027  23.709  34.444   2.305
93497W        W55028  28.090   6.289   4.351
93498W        W55029  26.508   9.660   3.636
93499W        W55030   1.321   1.417   3.794
93500W        W55031  35.084   9.379  12.979
93501W        W55032  15.823  26.963   1.324
93502W        W55033   4.227   9.809   0.793
93503W        W55034  32.583  30.136  14.385
93504W        W55035  17.563  24.160  14.328
93505W        W55036  29.152  42.394  14.936
93506W        W55037  20.644  42.361   3.370
93507W        W55038  20.615  36.475  11.431
93508W        W55039  10.374  23.490   1.897
93509W        W55040  23.659   0.291   4.666
93510W        W55041  38.899   8.725   3.842
93511W        W55042  36.466  34.397   1.286
93512W        W55043  29.060   2.293   0.726
93513W        W55044  38.928  44.768  13.432
93514W        W55045  25.600  20.711   3.337
93515W        W55046  36.915  14.129  11.892
93516W        W55047  39.535  10.860   9.535
93517W        W55048  18.696  18.759  11.588
93518W        W55049  16.702   4.286   3.217
93519W        W55050  21.097  33.899   0.864
93520W        W55051  41.039  29.988  12.497
93521W        W55052  19.695   5.287   4.324
93522W        W55053  32.997  34.374   0.873
93523W        W55054  27.649  28.174   1.918
93524W        W55055  43.858  21.603  10.640
93525W        W55056  44.382  44.322   1.241
93526W        W55057  11.790   6.328   3.855
93527W        W55058  21.629  36.479  14.771
93528W        W55059  21.742  37.960  10.046
93529W        W55060  30.991  44.941   2.180
93530W        W55061   5.398  40.822  12.538
93531W        W55062   8.345  16.242  13.021
93532W        W55063  18.591  39.559   0.347
93533W        W55064  21.723  28.488  11.950
93534W        W55065  27.037  39.445   0.934
93535W        W55066  41.896  33.080   4.267
93536W        W55067  13.250  28.500   1.797
93537W        W55068  12.618  27.621  14.312
93538W        W55069  12.618  12.610  14.439
93539W        W55070  32.028  21.085   5.150
93540W        W55071  21.196  14.635   1.759
93541W        W55072  13.177  35.918   1.732
93542W        W55073   9.738  29.574   3.654
93543W        W55074  25.659  36.043  11.478
93544W        W55075   8.796   1.946   1.233
93545W        W55076  44.460  28.107   4.276
93546W        W55077  17.252   0.878   3.283
93547W        W55078  34.461  19.171  12.510
93548W        W55079  13.709   3.267  13.395
93549W        W55080  35.022  41.294   4.788
93550W        W55081  34.500  11.247   5.805
93551W        W55082  39.560  13.746   5.217
93552W        W55083  22.658  30.094   9.929
93553W        W55084  27.135   0.902  12.037
93554W        W55085  30.025   6.833  12.957
93555W        W55086  14.185  16.639  14.827
93556W        W55087  26.049   1.295  13.437
93557W        W55088  36.853  23.689   2.201
93558W        W55089  44.421  43.466   2.868
93559W        W55090   4.764   0.818   2.827
93560W        W55091  12.148  24.668  14.988
93561W        W55092   3.268  19.604   4.648
93562W        W55093  27.597  39.354  10.604
93563W        W55094   4.284  30.621  10.468
93564W        W55095   8.851  22.040   4.613
93565W        W55096  16.258   7.867   1.345
93566W        W55097  38.445   0.449   4.727
93567W        W55098   6.914   8.290  10.435
93568W        W55099  40.314  44.261   3.816
93569W        W55100  34.516  40.012   3.363
93570W        W55101  14.307   1.449   3.674
93571W        W55102  21.111   2.899   1.794
93572W        W55103  30.457  34.867  14.394
93573W        W55104  31.494  29.084  14.304
93574W        W55105  17.713   6.395  11.905
93575W        W55106  44.441  27.503   1.735
93576W        W55107  12.269   4.371  14.830
93577W        W55108   1.278  22.140  11.545
93578W        W55109   6.388  34.530   1.246
93579W        W55110  28.488   1.360   3.721
93580W        W55111  16.191  29.158   3.847
93581W        W55112  17.202  12.846   0.427
93582W        W55113   6.825  21.748   0.867
93583W        W55114  30.621  32.090   1.445
93584W        W55115  27.512  28.660  13.825
93585W        W55116   9.202   6.713  10.487
93586W        W55117  23.993  14.290   2.757
93587W        W55118   0.458   3.859   2.898
93588W        W55119  25.583  31.087  13.436
93589W        W55120   1.250  35.562   0.919
93590W        W55121  43.894  23.703  10.898
93591W        W55122   4.252  19.550   1.303
93592W        W55123   0.303   2.415  14.883
93593W        W55124  38.381  35.488  13.337
93594W        W55125  40.369  40.411   5.167
93595W        W55126  16.285   0.854  13.996
93596W        W55127  44.297  29.552  11.084
93597W        W55128  16.596  23.193  10.485
93598W        W55129  31.490  31.992   1.908
93599W        W55130   9.171   7.749   3.233
93600W        W55131  18.588   0.830   0.818
93601W        W55132  16.792  35.358   0.310
93602W        W55133  42.791  14.113  14.863
93603W        W55134  30.629  30.639   2.809
93604W        W55135  18.095   3.373   1.251
93605W        W55136   4.277   6.699  14.305
93606W        W55137  14.833   9.751  12.080
93607W        W55138  29.497  12.308   9.998
93608W        W55139  28.452  14.143   2.781
93609W        W55140  23.083  13.615  12.533
93610W        W55141  10.345   9.173   2.895
93611W        W55142   5.768  43.505   3.209
93612W        W55143   9.247   4.393  13.475
93613W        W55144  36.038  36.848   0.864
93614W        W55145  13.282  32.537  11.960
93615W        W55146  40.009   7.408   1.871
93616W        W55147   7.347   3.907   2.337
93617W        W55148  11.760  38.398   2.195
93618W        W55149  23.546  30.050   0.764
93619W        W55150  10.240  12.309  14.368
93620W        W55151  41.895   0.380   1.358
93621W        W55152  42.492  36.448   1.857
93622W        W55153  41.384  34.045  12.937
93623W        W55154   8.378  15.754  12.394
93624W        W55155  15.155  41.821   0.816
93625W        W55156   2.756  18.591   2.309
93626W        W55157  36.959  35.535  10.131
93627W        W55158  12.793  18.200   3.844
93628W        W55159  17.227  17.734   4.839
93629W        W55160  18.112  36.893   4.772
93630W        W55161  22.572  38.338  14.011
93631W        W55162  29.657   4.368  11.086
93632W        W55163  19.598  11.197   1.845
93633W        W55164   9.762  35.961   4.775
93634W        W55165   5.696  15.577   0.361
93635W        W55166   2.317   5.193  14.879
93636W        W55167  13.805  27.155  13.885
93637W        W55168   4.794  29.637   1.822
93638W        W55169  21.077  23.048   0.823
93639W        W55170  40.053  35.558  14.921
93640W        W55171  14.677  25.992  13.471
93641W        W55172  44.816  35.472  13.347
93642W        W55173   2.812  39.040  14.928
93643W        W55174  18.283  20.050   1.359
93644W        W55175   1.347  12.260  11.541
93645W        W55176   3.243   4.299   2.838
93646W        W55177   1.772  17.684   1.375
93647W        W55178  12.120   9.698   3.653
93648W        W55179  43.833   2.335  11.519
93649W        W55180  26.011  37.472  10.959
93650W        W55181  25.674  12.698  13.889
93651W        W55182  30.940  25.655   2.417
93652W        W55183  18.776   1.898  11.514
93653W        W55184  43.398  34.996  11.886
93654W        W55185  13.175  13.122   4.809
93655W        W55186   0.778  39.431   4.698
93656W        W55187  28.444  20.670  11.413
93657W        W55188  15.766  38.030   3.378
93658W        W55189   6.903  40.441   3.246
93659W        W55190  39.980  30.083   3.868
93660W        W55191   5.378  38.025   4.287
93661W        W55192  43.501   1.867  12.349
93662W        W55193   6.290   8.806  13.875
93663W        W55194   9.345  41.377  13.043
93664W        W55195   7.742   3.920   3.817
93665W        W55196  41.532   4.291   4.682
93666W        W55197   5.408  17.105   4.720
93667W        W55198  18.556  25.179  13.902
93668W        W55199  19.748  12.339  10.960
93669W        W55200  31.540  13.238  14.396
93670W        W55201  37.354  43.307  14.481
93671W        W55202   1.360  15.705   4.180
93672W        W55203  16.614   2.928  12.994
93673W        W55204  16.089  30.576   3.786
93674W        W55205  23.182  21.568   2.743
93675W        W55206   7.289  13.108   4.787
93676W        W55207   0.388  23.660  12.414
93677W        W55208  22.614   2.280  12.942
93678W        W55209  32.990  36.536   3.728
93679W        W55210  31.061   1.815   3.779
93680W        W55211  27.648  29.032  13.404
93681W        W55212  14.273  40.870  12.484
93682W        W55213  12.808  14.614  12.941
93683W        W55214  31.068   3.331  14.437
93684W        W55215  38.501  19.277  14.814
93685W        W55216  10.330  30.131   1.867
93686W        W55217  10.325   4.826   0.435
93687W        W55218   8.206  21.045   4.698
93688W        W55219  22.595  33.997   4.608
93689W        W55220  21.218  31.595   5.215
93690W        W55221  10.870  39.537   2.299
93691W        W55222  34.064  44.835  10.603
93692W        W55223  31.088  41.918   3.330
93693W        W55224  36.545   2.427   2.851
93694W        W55225  11.298  23.018  12.351
93695W        W55226   1.869  43.394   1.340
93696W        W55227  12.771  42.878   1.340
93697W        W55228  33.104  36.923   0.763
93698W        W55229  24.042  17.203  14.464
93699W        W55230  35.009  17.167  10.606
93700W        W55231  13.638  17.686   1.290
93701W        W55232   7.314   4.254  11.980
93702W        W55233  32.416  15.763  12.060
93703W        W55234  19.230  24.992  13.944
93704W        W55235  39.946  22.593   3.847
93705W        W55236  14.280  36.079   3.274
93706W        W55237  15.660  40.962  14.949
93707W        W55238  28.013   6.778  10.102
93708W        W55239  41.333  25.017  10.608
93709W        W55240  33.380  24.043  11.111
93710W        W55241  20.168  12.612   3.198
93711W        W55242  34.455  30.566   4.218
93712W        W55243  28.066  36.467   4.321
93713W        W55244  10.197  43.338  10.445
93714W        W55245  41.929  17.079   1.836
93715W        W55246  14.136  34.412  12.935
93716W        W55247   7.403  28.935   3.685
93717W        W55248  13.692  24.197  12.916
93718W        W55249  17.132  23.713  11.425
93719W        W55250  27.471  25.694   3.710
93720W        W55251  25.692  44.348   2.363
93721W        W55252  28.580  38.403  12.512
93722W        W55253  30.505  24.131  12.358
93723W        W55254  13.675   0.906   4.623
93724W        W55255  42.352  34.867   3.665
93725W        W55256  15.115  43.294   2.213
93726W        W55257  36.548  31.635   1.367
93727W        W55258  41.942  15.290   2.776
93728W        W55259   3.806  26.098   4.818
93729W        W55260  31.996  13.319  11.606
93730W        W55261   0.338  30.039  10.453
93731W        W55262  13.267  11.811   0.462
93732W        W55263  27.989  31.515   1.287
93733W        W55264  12.292  28.930   0.911
93734W        W55265  37.904  10.342   2.258
93735W        W55266  37.837  21.213  11.056
93736W        W55267   7.276  41.488  14.421
93737W        W55268  42.800  17.144   3.639
93738W        W55269  15.175  44.818   2.794
93739W        W55270   0.763  16.611  13.358
93740W        W55271  22.633   8.735   4.626
93741W        W55272  38.337  20.163   1.427
93742W        W55273   4.386   8.164   1.814
93743W        W55274  34.484   0.849   0.383
93744W        W55275  41.417  16.661  13.802
93745W        W55276  17.303  31.410   2.849
93746W        W55277   8.223  10.270  14.838
93747W        W55278  25.630  38.856  11.572
93748W        W55279  33.087  27.145   0.806
93749W        W55280  21.713  34.468  11.883
93750W        W55281  31.612  41.847  13.929
93751W        W55282  23.016   8.221   3.205
93752W        W55283  13.652  24.665   4.284
93753W        W55284  41.486  39.452   3.172
93754W        W55285  23.572   9.360   3.309
93755W        W55286  26.558   7.812  11.969
93756W        W55287  25.627  26.634   5.168
93757W        W55288  42.350  18.582   1.914
93758W        W55289  19.762  15.659  13.040
93759W        W55290   3.924  15.684   4.134
93760W        W55291  37.866   0.332   5.105
93761W        W55292  40.390  28.635   3.223
93762W        W55293  28.996  25.209  14.434
93763W        W55294  19.769  31.937   4.820
93764W        W55295  21.057  18.211  10.079
93765W        W55296  22.597   4.896  12.375
93766W        W55297   6.679  42.342   4.684
93767W        W55298   4.707  14.339   4.293
93768W        W55299  33.503  31.972  10.439
93769W        W55300  23.163  33.486   4.650
93770W        W55301   4.216   6.216  14.873
93771W        W55302  28.547  29.011  14.770
93772W        W55303   9.380  37.064  11.031
93773W        W55304  17.269   6.747   4.659
93774W        W55305  40.503  25.000  11.585
93775W        W55306  31.427   2.316   0.354
93776W        W55307   0.854  25.173  13.984
93777W        W55308  30.484  36.510  12.980
93778W        W55309  42.017  37.049  10.438
93779W        W55310  27.457  35.019  10.639
93780W        W55311  38.953  26.666   1.794
93781W        W55312   0.425  21.027   4.144
93782W        W55313   2.283   8.867  14.479
93783W        W55314  18.098  40.307  10.489
93784W        W55315   6.343   8.760  11.880
93785W        W55316   8.729  15.306  11.128
93786W        W55317  18.645   3.941   1.382
93787W        W55318  28.008  38.425  10.606
93788W        W55319  29.126  20.542  11.420
93789W        W55320  15.130  10.704   1.841
93790W        W55321  22.686  44.362   9.957
93791W        W55322   9.856  39.833  14.380
93792W        W55323  37.453   6.308  10.995
93793W        W55324  10.237  18.293   3.650
93794W        W55325  27.994  41.471   2.684
93795W        W55326   5.307  19.141  11.456
93796W        W55327   2.279  26.119   2.736
93797W        W55328  27.529  30.558  11.930
93798W        W55329  40.519  14.165   2.725
93799W        W55330   0.943  41.965   5.112
93800W        W55331  16.743  13.296   4.251
93801W        W55332  27.103  19.770   0.264
93802W        W55333  31.051  20.268   0.355
93803W        W55334  41.406   5.317   4.224
93804W        W55335   5.868  14.693   3.863
93805W        W55336   0.367  24.049   5.696
93806W        W55337  39.410  20.242   1.387
93807W        W55338   5.812  42.368   1.741
93808W        W55339  36.587   5.281   4.318
93809W        W55340  44.379   0.816   3.300
93810W        W55341  37.061   3.386  10.472
93811W        W55342  27.622  39.819  11.513
93812W        W55343  21.678  31.411   4.642
93813W        W55344  23.705  37.025  14.978
93814W        W55345  31.954  17.663   3.150
93815W        W55346  29.973  28.645  11.913
93816W        W55347  36.009  21.741  10.444
93817W        W55348  10.214  44.376  10.455
93818W        W55349  37.037   6.839  13.058
93819W        W55350  18.565  14.286  14.929
93820W        W55351  37.944  11.794   4.173
93821W        W55352   3.426  27.190   3.656
93822W        W55353  10.698  17.281  13.477
93823W        W55354  26.051  31.519  11.383
93824W        W55355  20.580   2.754   4.681
93825W        W55356  37.402  17.119   0.307
93826W        W55357  33.909  13.723  14.983
93827W        W55358  12.693  30.160   9.965
93828W        W55359  19.651  20.237   2.729
93829W        W55360   0.762  26.702  13.995
93830W        W55361   4.821  33.903   2.200
93831W        W55362  18.120   2.393  10.557
93832W        W55363  14.678   0.313  13.918
93833W        W55364  28.495  21.661   1.387
93834W        W55365   8.714   6.882   0.428
93835W        W55366  42.837  23.183  11.951
93836W        W55367   7.796  15.285   4.666
93837W        W55368   0.743  24.011   0.374
93838W        W55369  16.715  21.051   2.415
93839W        W55370   5.927   9.781   1.864
93840W        W55371  15.135  43.998   1.790
93841W        W55372   8.205  31.467  12.464
93842W        W55373   2.285   5.279   1.890
93843W        W55374  26.972   4.822  10.533
93844W        W55375  19.649   2.264   2.202
93845W        W55376  23.221  18.281   0.956
93846W        W55377   3.241  18.563   0.868
93847W        W55378  20.137   3.836   4.758
93848W        W55379  17.725  24.546  13.528
93849W        W55380  30.072  32.595   4.155
93850W        W55381  26.478  27.642   2.661
93851W        W55382   3.374  40.372   1.830
93852W        W55383  43.985   4.926  11.918
93853W        W55384  28.962  43.006  12.512
93854W        W55385   3.775  28.602   5.091
93855W        W55386  21.625  37.508  14.423
93856W        W55387  33.006  25.189  10.536
93857W        W55388   1.262  11.774  14.912
93858W        W55389   8.796  43.951  14.944
93859W        W55390   7.734  14.292  13.865
93860W        W55391  36.055  24.707   2.257
93861W        W55392  29.106  15.609  12.471
93862W        W55393  43.494  14.269  10.907
93863W        W55394  23.657  28.097   4.148
93864W        W55395  36.968  30.004   3.732
93865W        W55396  31.405  35.494   4.279
93866W        W55397  41.446  15.164  11.029
93867W        W55398  32.462   6.759  12.014
93868W        W55399  13.259  35.439  12.934
93869W        W55400  17.161   5.347   4.712
93870W        W55401   6.388   0.312  14.336
93871W        W55402  19.210   7.828  12.466
93872W        W55403  29.056  27.650   0.954
93873W        W55404  38.486   0.474   1.739
93874W        W55405   9.267  36.064  11.951
93875W        W55406   4.935   3.415  10.565
93876W        W55407   8.283  28.044  11.942
93877W        W55408  34.034  22.172  11.011
93878W        W55409  14.175  23.185  11.874
93879W        W55410   9.207  40.489  13.359
93880W        W55411  29.555   4.940  12.347
93881W        W55412  15.162   2.897   3.331
93882W        W55413  33.481   3.783  11.055
93883W        W55414  24.608  32.574  13.547
93884W        W55415  22.745   5.779  14.316
93885W        W55416  21.082   6.238   2.339
93886W        W55417  38.458  19.601  13.515
93887W        W55418  26.494  39.430   2.388
93888W        W55419  18.551  38.893  10.460
93889W        W55420   4.808  30.935  12.972
93890W        W55421  14.304  40.910   3.850
93891W        W55422   3.803  22.570  14.319
93892W        W55423  38.498  14.686   1.850
93893W        W55424  26.042  33.540  11.888
93894W        W55425  35.008  15.157  14.395
93895W        W55426  25.153  42.025   2.726
93896W        W55427  26.046  20.713  11.074
93897W        W55428  17.711  12.181   1.263
93898W        W55429   4.226  27.995  13.008
93899W        W55430   1.329   8.812   0.305
93900W        W55431  16.616  21.653  11.599
93901W        W55432  27.159   5.796  11.598
93902W        W55433   5.411  24.987   9.942
93903W        W55434  17.223  40.526  11.050
93904W        W55435  24.226  40.385  11.488
93905W        W55436   5.272  37.970  14.919
93906W        W55437   9.207  17.705   1.440
93907W        W55438  19.224   9.843  14.378
93908W        W55439  14.676  15.690  10.055
93909W        W55440  32.629  35.439   4.681
93910W        W55441  27.466  29.010  10.417
93911W        W55442  34.374  39.404  12.985
93912W        W55443  18.646  41.937  14.413
93913W        W55444   0.440   7.274   2.206
93914W        W55445  14.808  31.936   2.758
93915W        W55446  33.622   7.221  11.077
93916W        W55447  40.328  22.706   2.410
93917W        W55448  37.575   4.719   4.745
93918W        W55449  18.772  40.426  12.828
93919W        W55450  40.874  29.495   3.221
93920W        W55451   1.446  25.661   3.795
93921W        W55452  19.091  42.843   4.723
93922W        W55453  33.981  44.762   3.635
93923W        W55454  29.044  35.536   0.270
93924W        W55455  10.804  23.128  10.572
93925W        W55456  26.628  29.073   3.707
93926W        W55457  40.900   2.307  13.804
93927W        W55458  15.689  39.817  12.435
93928W        W55459  12.146  10.348  14.372
93929W        W55460  18.636  43.401   4.710
93930W        W55461  22.155  42.852   1.427
93931W        W55462  34.090  37.951   1.825
93932W        W55463  40.473  16.214   0.868
93933W        W55464  21.692  16.096  13.345
93934W        W55465  16.673  36.970   4.690
93935W        W55466  25.575   2.746  12.987
93936W        W55467  37.052  28.610  13.372
93937W        W55468  17.221  37.393   3.850
93938W        W55469  39.991   3.356  12.414
93939W        W55470  38.515  16.221  13.972
93940W        W55471  34.909   2.852   1.751
93941W        W55472  24.525  28.461   0.341
93942W        W55473  13.669  10.243  13.927
93943W        W55474   5.321  20.556   1.224
93944W        W55475  19.546  15.651  14.908
93945W        W55476  35.939  38.492  11.968
93946W        W55477  35.092  20.749  12.454
93947W        W55478   3.750  41.301   2.378
93948W        W55479  30.060  12.834  11.435
93949W        W55480  33.116  36.554  10.012
93950W        W55481  15.667  36.007   3.306
93951W        W55482  20.713   2.907  13.806
93952W        W55483   5.761  39.316   1.743
93953W        W55484   4.215   3.236  11.419
93954W        W55485  41.408  18.162   1.369
93955W        W55486   8.266  29.113   3.344
93956W        W55487   4.838  23.100  11.415
93957W        W55488  13.265  34.869  10.965
93958W        W55489  40.933  33.028   1.759
93959W        W55490   0.973  19.691   2.866
93960W        W55491  26.982   9.358   5.803
93961W        W55492   1.818   5.255   3.383
93962W        W55493  25.062  19.197  10.500
93963W        W55494  16.788  10.298   2.242
93964W        W55495  13.309   6.708   0.902
93965W        W55496   5.768   9.221  14.447
93966W        W55497   6.904   6.189   3.757
93967W        W55498   8.305   7.816  11.868
93968W        W55499  30.029  43.355   2.397
93969W        W55500  41.958  13.190  11.453
93970W        W55501  19.050  32.406  14.910
93971W        W55502  44.993  38.343  12.512
93972W        W55503  30.603  16.235   4.338
93973W        W55504  27.514  39.349  12.357
93974W        W55505  41.303  44.503   4.626
93975W        W55506  13.158   8.332  10.508
93976W        W55507   9.324  42.449  13.387
93977W        W55508   9.719  42.813  12.472
93978W        W55509  14.777  34.956  10.573
93979W        W55510  15.157  30.536  14.857
93980W        W55511  21.139  43.358   3.693
93981W        W55512  22.734   7.836  13.424
93982W        W55513  17.576  20.642  10.471
93983W        W55514  11.160  32.425   4.611
93984W        W55515   0.923   3.323  10.512
93985W        W55516   3.389  31.514   0.358
93986W        W55517   0.904  30.444  12.050
93987W        W55518  39.842  33.509   3.295
93988W        W55519   8.212   2.406  14.971
93989W        W55520  18.260  24.613  12.572
93990W        W55521  18.564   0.489   4.134
93991W        W55522   9.670   3.439   3.245
93992W        W55523  15.179  35.853  11.991
93993W        W55524   5.898  27.636  14.988
93994W        W55525  39.003   1.433   4.329
93995W        W55526  21.046   4.234   4.804
93996W        W55527  30.102  39.478   3.348
93997W        W55528   0.888  22.084  14.990
93998W        W55529  41.937   7.907  13.388
93999W        W55530  15.111   1.977   1.224
94000W        W55531  44.326   2.895  13.318
94001W        W55532  13.188  22.702   2.766
94002W        W55533  37.892   4.244   1.902
94003W        W55534  37.518  44.471   4.832
94004W        W55535  22.596  10.354   0.263
94005W        W55536  21.693   0.973   3.148
94006W        W55537  15.264  40.031   0.380
94007W        W55538  17.088  25.182  13.332
94008W        W55539   5.879  27.055   3.858
94009W        W55540  43.811   3.869  12.869
94010W        W55541  40.496  24.646  13.932
94011W        W55542  43.767  19.249   3.176
94012W        W55543  11.721  36.858  14.760
94013W        W55544  25.993  24.022  10.543
94014W        W55545  15.809  42.886  10.105
94015W        W55546  40.916  11.780   0.825
94016W        W55547  14.315   8.862   5.133
94017W        W55548  25.078  42.477  12.066
94018W        W55549   9.688  30.521  13.949
94019W        W55550  28.619   7.760  14.312
94020W        W55551  31.511  32.931   1.433
94021W        W55552  34.014  27.133  10.542
94022W        W55553  27.671  34.918  11.949
94023W        W55554  20.230  15.700   2.329
94024W        W55555  27.184  30.433   9.448
94025W        W55556  26.597  43.937  14.505
94026W        W55557  30.921  32.424  11.113
94027W        W55558   3.379  38.540  10.076
94028W        W55559  25.656  22.222  14.796
94029W        W55560  31.452  18.187  10.616
94030W        W55561   1.451  11.317   1.448
94031W        W55562  40.831   6.256   2.795
94032W        W55563  25.661   6.794   4.642
94033W        W55564  25.136  11.757  13.370
94034W        W55565  14.099   2.392   2.233
94035W        W55566  40.849  31.606  11.396
94036W        W55567  41.394   9.714  13.342
94037W        W55568  38.459  44.357   2.882
94038W        W55569  26.180   5.896  11.538
94039W        W55570  38.471  20.645   3.767
94040W        W55571  20.577  39.023   1.326
94041W        W55572  23.569  44.992  11.599
94042W        W55573   5.823   9.878  11.586
94043W        W55574  21.516   5.338   0.308
94044W        W55575  17.120  22.553   9.547
94045W        W55576   4.709  14.231  12.968
94046W        W55577   3.798  28.098  14.902
94047W        W55578  24.553   1.352  10.951
94048W        W55579  44.397  41.988  12.535
94049W        W55580   7.399   4.829  13.844
94050W        W55581  44.006   0.372  10.543
94051W        W55582  43.283  20.675  10.600
94052W        W55583  27.476  19.232  11.910
94053W        W55584  11.334  17.218  10.519
94054W        W55585  13.273  42.808   2.688
94055W        W55586  29.426   4.803   2.709
94056W        W55587  19.066   9.364  11.076
94057W        W55588   8.165  42.502   4.735
94058W        W55589  31.094   2.450   3.733
94059W        W55590  36.952  25.014  12.877
94060W        W55591  12.210  26.462  10.531
94061W        W55592  30.924  14.675   2.846
94062W        W55593  28.105  14.626  13.407
94063W        W55594   6.303  16.775  12.354
94064W        W55595  36.571  12.613  13.057
94065W        W55596  35.528  21.569  13.976
94066W        W55597   3.341  39.043  12.962
94067W        W55598  27.477  42.373   3.737
94068W        W55599   2.448   5.865   1.300
94069W        W55600   8.719  32.090   4.346
94070W        W55601  12.673   3.341   3.175
94071W        W55602  12.257  15.136   3.801
94072W        W55603   2.470  20.590  14.890
94073W        W55604  17.269  15.678   1.891
94074W        W55605  40.461  33.548  10.085
94075W        W55606   5.239  37.394  12.505
94076W        W55607  44.435  41.892   9.955
94077W        W55608  33.934  11.210   2.691
94078W        W55609  38.430  38.478   9.630
94079W        W55610   9.216  30.636  12.028
94080W        W55611  11.220  15.236  14.833
94081W        W55612  19.553  18.600   0.385
94082W        W55613  39.429  10.807  10.155
94083W        W55614   0.939  39.980  12.074
94084W        W55615  22.013  30.969  12.956
94085W        W55616  40.462  41.299   2.355
94086W        W55617  25.637   8.215   2.391
94087W        W55618  29.658  27.981  13.320
94088W        W55619  41.499   9.212  12.847
94089W        W55620  33.943  10.339  11.089
94090W        W55621  20.215  24.539   4.713
94091W        W55622  22.081  21.115  12.929
94092W        W55623  16.613  22.602   4.800
94093W        W55624  10.810   1.401  12.497
94094W        W55625  26.490   9.720   2.410
94095W        W55626  22.235  12.167  13.897
94096W        W55627  33.477   3.456  12.569
94097W        W55628  33.092  33.410  14.767
94098W        W55629  18.061   6.838   1.338
94099W        W55630  19.566  34.530   0.291
94100W        W55631   9.295  17.219  14.782
94101W        W55632   5.265  39.965  12.481
94102W        W55633  43.456  27.606   3.367
94103W        W55634   2.756  23.572   1.801
94104W        W55635  41.910   3.322   3.820
94105W        W55636   2.785  21.062   1.360
94106W        W55637  25.203  10.668   4.684
94107W        W55638  30.496  39.001   0.294
94108W        W55639  16.754  41.451   0.744
94109W        W55640  17.613  11.223  13.976
94110W        W55641   3.903  36.499  11.464
94111W        W55642  39.047  17.184   1.435
94112W        W55643   5.892  28.441  13.874
94113W        W55644  30.928  10.246   4.771
94114W        W55645  41.798  30.639   5.110
94115W        W55646  19.649   7.802   4.248
94116W        W55647  26.000  30.996  14.454
94117W        W55648  33.917  19.223   1.911
94118W        W55649  31.075   9.655   5.287
94119W        W55650  26.149  25.167   4.186
94120W        W55651  12.641  14.172  14.478
94121W        W55652  31.932  14.244   0.415
94122W        W55653   5.346  15.241   0.742
94123W        W55654  41.459  14.621   0.909
94124W        W55655  20.220   5.356  14.279
94125W        W55656  37.947  40.800  10.935
94126W        W55657  43.283  19.716   2.372
94127W        W55658   7.814  23.059   2.740
94128W        W55659  31.143  16.633  11.432
94129W        W55660  13.315  18.645  14.762
94130W        W55661  20.755  15.167  12.412
94131W        W55662  30.556  39.405  13.054
94132W        W55663  41.520  21.032  12.563
94133W        W55664  33.060   6.701  13.450
94134W        W55665   1.932  30.952  14.434
94135W        W55666  11.685  38.928   5.304
94136W        W55667   1.473  41.439   1.375
94137W        W55668  28.440  17.264   4.833
94138W        W55669  28.976  12.761   0.909
94139W        W55670  39.541  27.101   4.790
94140W        W55671  36.849  35.577  14.857
94141W        W55672  22.680   3.452  11.458
94142W        W55673   3.432  37.458  11.468
94143W        W55674   4.376   6.795   3.273
94144W        W55675  27.537  13.600  12.903
94145W        W55676  23.636  36.515  10.419
94146W        W55677  21.024  43.289  14.948
94147W        W55678  23.553  28.608  14.789
94148W        W55679  26.590  42.935  10.897
94149W        W55680  40.833   2.931   2.215
94150W        W55681  40.946  35.072  13.515
94151W        W55682   2.307   8.865   5.101
94152W        W55683  40.016  11.850   4.231
94153W        W55684  30.580   5.337  14.838
94154W        W55685  22.545  16.161   3.307
94155W        W55686   6.861  29.969  12.070
94156W        W55687  20.700   0.942  14.866
94157W        W55688  12.715  39.418  10.488
94158W        W55689  19.231   2.736   3.841
94159W        W55690  32.938  22.673   3.364
94160W        W55691  27.011   9.740   4.189
94161W        W55692  41.379  15.184  12.960
94162W        W55693  40.327  39.343   4.284
94163W        W55694   8.776  15.736   1.426
94164W        W55695  34.964  30.604   4.633
94165W        W55696   3.268  34.397   2.730
94166W        W55697  41.895  17.216  12.400
94167W        W55698  13.333  32.596   1.924
94168W        W55699  10.353  11.300   4.619
94169W        W55700  35.366  35.516   4.122
94170W        W55701   4.299  33.471   2.326
94171W        W55702  38.855  21.716   1.302
94172W        W55703  23.682   7.186   1.875
94173W        W55704  37.857  15.802  12.340
94174W        W55705  39.955  17.235  11.517
94175W        W55706  15.266  11.180   3.148
94176W        W55707  37.064  35.496  10.956
94177W        W55708  38.336  33.432   3.671
94178W        W55709   8.202  34.539  11.949
94179W        W55710   6.294  15.787   3.383
94180W        W55711  34.954  33.043   0.793
94181W        W55712  38.011  44.496  14.301
94182W        W55713  14.611  18.231  12.397
94183W        W55714  35.565  19.655  13.894
94184W        W55715  13.742  29.961   3.738
94185W        W55716  10.225  32.990  10.591
94186W        W55717  23.991   9.797  11.023
94187W        W55718   3.830  14.801   2.814
94188W        W55719  22.077  17.666  12.829
94189W        W55720   6.902  39.420  14.939
94190W        W55721  27.518  17.724  14.311
94191W        W55722   7.793   0.750   2.292
94192W        W55723  28.554  12.711  12.450
94193W        W55724   1.902  31.454   1.878
94194W        W55725   6.403  37.851   0.843
94195W        W55726  34.968  23.550   4.699
94196W        W55727  44.871   6.728  13.012
94197W        W55728  24.146  36.029  12.367
94198W        W55729   9.252  30.589   1.386
94199W        W55730   5.922  38.997   2.194
94200W        W55731   5.427   5.858   3.686
94201W        W55732  35.371  30.495  12.998
94202W        W55733  13.800  33.979  12.083
94203W        W55734  20.613  19.700   0.333
94204W        W55735  23.641  40.415   4.660
94205W        W55736   7.698  13.211  10.637
94206W        W55737   6.893  22.744   3.223
94207W        W55738  20.145   0.982  10.962
94208W        W55739  27.965  35.953  14.365
94209W        W55740  29.538  31.429   4.801
94210W        W55741  25.607  16.759   3.344
94211W        W55742   0.488  41.384  12.418
94212W        W55743   8.880  18.228  12.871
94213W        W55744  44.864   5.823   5.270
94214W        W55745  40.493  19.279   2.375
94215W        W55746  19.209  39.061   3.176
94216W        W55747  43.791  17.074  13.396
94217W        W55748  36.560  28.964  14.896
94218W        W55749  34.009  18.590   5.085
94219W        W55750  17.289  42.460   4.793
94220W        W55751  14.138  36.558   2.217
94221W        W55752  40.336   3.733   4.821
94222W        W55753  37.413  36.546  10.633
94223W        W55754  32.438  21.162   3.159
94224W        W55755  15.158   9.878   1.439
94225W        W55756  33.441   7.842   5.271
94226W        W55757  37.061  22.599  12.532
94227W        W55758  41.321  31.514   4.621
94228W        W55759  18.667   1.308   3.851
94229W        W55760  22.243  42.432   4.756
94230W        W55761  42.960  41.519   2.302
94231W        W55762  19.218   7.344   3.188
94232W        W55763  40.451  12.817   3.296
94233W        W55764  25.668   3.930   2.807
94234W        W55765  28.557  36.920  13.991
94235W        W55766  23.019  44.437   2.179
94236W        W55767  43.834  43.392  11.054
94237W        W55768  22.145  19.674   4.783
94238W        W55769  35.418  36.401   3.852
94239W        W55770  33.088  25.005   3.285
94240W        W55771  14.188  41.860  11.918
94241W        W55772  34.007  33.011  13.950
94242W        W55773   6.911   6.780  11.046
94243W        W55774   8.730   2.938   2.312
94244W        W55775   3.405  36.912  14.938
94245W        W55776   4.363  21.523  11.386
94246W        W55777   2.430  44.448   2.776
94247W        W55778  10.651   1.859   3.226
94248W        W55779  13.704  37.897  13.800
94249W        W55780  28.060  39.059   4.623
94250W        W55781  44.956  39.966  11.545
94251W        W55782  38.846  21.565  11.528
94252W        W55783  31.112  30.155   0.366
94253W        W55784  41.974  29.052  14.370
94254W        W55785   0.771   6.833  12.467
94255W        W55786  21.716  39.930   1.419
94256W        W55787   2.315  28.076   1.888
94257W        W55788  25.687   3.950  12.460
94258W        W55789  19.174   2.428   3.781
94259W        W55790  30.023   0.356   0.886
94260W        W55791   6.770  26.984   1.367
94261W        W55792  43.950   7.803  11.119
94262W        W55793  31.471  11.827  13.387
94263W        W55794  18.210  19.627   1.254
94264W        W55795   7.730  40.341  10.481
94265W        W55796  22.234   4.916   3.760
94266W        W55797  42.896  34.431   0.354
94267W        W55798   9.682  12.702  11.039
94268W        W55799  11.241  39.950   0.737
94269W        W55800  35.434   7.905  13.375
94270W        W55801  10.654  30.020   3.762
94271W        W55802  24.642  13.184   1.731
94272W        W55803  23.681  41.031  12.537
94273W        W55804  23.524   1.814  12.911
94274W        W55805   7.708  28.465   4.633
94275W        W55806  33.482  17.780   1.380
94276W        W55807  26.585  22.646  13.886
94277W        W55808  26.670  25.706  14.998
94278W        W55809   6.400  37.404   3.163
94279W        W55810  36.428  27.066   4.210
94280W        W55811  13.139  26.035  11.411
94281W        W55812  17.782   6.257  13.844
94282W        W55813  28.144   2.792  13.492
94283W        W55814  13.706   3.365  11.913
94284W        W55815  10.675   0.932   2.282
94285W        W55816  33.049  15.704  13.834
94286W        W55817  22.252  14.269  14.944
94287W        W55818   6.825   2.887   9.606
94288W        W55819  30.962  24.520  12.935
94289W        W55820   3.314   0.311  11.423
94290W        W55821  15.328  26.013   4.681
94291W        W55822  25.704  17.138  12.047
94292W        W55823  36.892  11.701  11.058
94293W        W55824  33.570  41.378  11.097
94294W        W55825  10.826  29.523   1.827
94295W        W55826  15.323  11.195  13.310
94296W        W55827  18.625  24.723  14.783
94297W        W55828   1.325  25.564   1.770
94298W        W55829  10.258  28.934   1.418
94299W        W55830  30.103  24.542   0.745
94300W        W55831  31.622  19.597  14.312
94301W        W55832   3.395  34.456   0.457
94302W        W55833  29.100  38.834  14.386
94303W        W55834  11.173  29.966   1.744
94304W        W55835  11.241  42.826  12.384
94305W        W55836  16.813  33.449  13.838
94306W        W55837  19.180  39.445  12.027
94307W        W55838   0.891  17.581   4.248
94308W        W55839  31.436   6.267   0.768
94309W        W55840   9.244  37.405   1.899
94310W        W55841  32.623   6.753   1.300
94311W        W55842  32.584  25.572   2.836
94312W        W55843  30.161   8.787  14.293
94313W        W55844  21.071   3.888   2.299
94314W        W55845  11.357   7.812  13.415
94315W        W55846  36.488  18.125   4.810
94316W        W55847  22.522  39.463  11.995
94317W        W55848   5.439   8.676  14.900
94318W        W55849   5.732  12.803   4.327
94319W        W55850  34.510   2.276  10.610
94320W        W55851  41.978   1.830  14.981
94321W        W55852   7.195  15.788  11.604
94322W        W55853  15.322  18.694   2.331
94323W        W55854  20.036  14.828   0.481
94324W        W55855   8.306  21.695  11.386
94325W        W55856  32.938  32.592  12.849
94326W        W55857  11.647  24.215  13.013
94327W        W55858  38.975   2.934  14.972
94328W        W55859  19.539  32.408  10.531
94329W        W55860  28.631  11.651  14.489
94330W        W55861  32.941   1.942   4.803
94331W        W55862  41.789  30.974   4.726
94332W        W55863   9.859   9.719   2.186
94333W        W55864  24.011   4.772  13.326
94334W        W55865  25.597  16.744  13.889
94335W        W55866  26.684  20.180   1.803
94336W        W55867   7.708  10.242  14.490
94337W        W55868  17.677  15.588  11.938
94338W        W55869  11.810  15.775  13.851
94339W        W55870  44.956  43.390   3.857
94340W        W55871  25.646  39.954   0.346
94341W        W55872  26.600  18.079  10.547
94342W        W55873  30.642  31.141  12.843
94343W        W55874  36.513  17.713  10.915
94344W        W55875   8.872  13.294   4.643
94345W        W55876  31.612  36.455  13.449
94346W        W55877  30.964  19.722  11.008
94347W        W55878  27.461  17.575   3.856
94348W        W55879   8.728  40.355   3.265
94349W        W55880   4.214  11.660   0.782
94350W        W55881  28.070  11.761  10.602
94351W        W55882  32.496  27.589   3.239
94352W        W55883  24.534  34.523  14.776
94353W        W55884  30.140  35.487  11.967
94354W        W55885  41.452   5.354   0.948
94355W        W55886   5.704  27.579   2.816
94356W        W55887  33.610  31.042  11.431
94357W        W55888  35.995  15.138  10.074
94358W        W55889   1.473  39.498   3.356
94359W        W55890  11.328  38.932  11.016
94360W        W55891  35.375  25.077  12.932
94361W        W55892  23.569  20.579  13.428
94362W        W55893  14.246  16.594   4.156
94363W        W55894   5.325  25.690   2.847
94364W        W55895  37.564   0.910  10.608
94365W        W55896  19.703  26.060  13.388
94366W        W55897  40.867  14.681   0.400
94367W        W55898  25.211  39.384   4.803
94368W        W55899  17.758  31.495  14.349
94369W        W55900  14.302   5.923  12.976
94370W        W55901  41.948  18.256   9.944
94371W        W55902  44.962   6.232   2.257
94372W        W55903  30.453   1.450  11.421
94373W        W55904  20.063  27.090  10.983
94374W        W55905  29.519  38.441  13.898
94375W        W55906  34.558   4.326  13.910
94376W        W55907  31.553   3.257   1.225
94377W        W55908  29.969  13.222  14.496
94378W        W55909  26.160  23.087  14.911
94379W        W55910  14.206  11.286  12.543
94380W        W55911  36.566  33.451  10.406
94381W        W55912   9.312   6.820   1.766
94382W        W55913  30.483  35.438   4.788
94383W        W55914  16.203  35.958  11.523
94384W        W55915  18.256  13.258   0.470
94385W        W55916  25.552  12.633  14.483
94386W        W55917  15.252  17.749  14.912
94387W        W55918  24.181  37.447   0.740
94388W        W55919  20.145  39.509  13.860
94389W        W55920  18.677   3.786   2.722
94390W        W55921  43.765  25.969   3.853
94391W        W55922  18.623   5.291   3.770
94392W        W55923  44.831  23.669   3.227
94393W        W55924   9.154  24.219   1.341
94394W        W55925  25.188  25.032   1.910
94395W        W55926  41.492  18.653   5.144
94396W        W55927  12.670  33.575  11.478
94397W        W55928   5.284   2.811  14.848
94398W        W55929  21.726   7.706   1.841
94399W        W55930  44.394  10.863   0.776
94400W        W55931   0.877  33.084   4.204
94401W        W55932  43.901   2.336   2.212
94402W        W55933  21.703  27.471   1.262
94403W        W55934  19.627   0.923  14.466
94404W        W55935  18.726  17.593   2.900
94405W        W55936  15.588  16.640  13.807
94406W        W55937  36.027  35.383  13.310
94407W        W55938  39.823  41.850   2.850
94408W        W55939  34.447  13.823  12.564
94409W        W55940  23.529  35.365   0.258
94410W        W55941  29.601   3.943  11.012
94411W        W55942  32.594  12.269  12.443
94412W        W55943  43.764  22.623  13.547
94413W        W55944   0.385  42.930   1.892
94414W        W55945  19.534  26.619   0.737
94415W        W55946  33.980  36.087  11.976
94416W        W55947  20.089  11.309  13.035
94417W        W55948  10.656  22.083  14.497
94418W        W55949   2.267  27.999  11.059
94419W        W55950   3.273   2.291   0.449
94420W        W55951  34.910   8.364   3.646
94421W        W55952   8.249  33.606  11.527
94422W        W55953  14.228   3.249   2.889
94423W        W55954  33.103  17.639  14.935
94424W        W55955  33.073  18.248  13.544
94425W        W55956   5.790  34.371   3.258
94426W        W55957   4.408   3.813  14.001
94427W        W55958  34.029  21.614   3.292
94428W        W55959   0.321  39.525  12.938
94429W        W55960  19.770  18.656   1.925
94430W        W55961  33.463  11.868  14.418
94431W        W55962  16.758  22.620   1.761
94432W        W55963  23.060  14.328  12.975
94433W        W55964  40.801  12.724  12.503
94434W        W55965   1.294  25.995   4.683
94435W        W55966  12.204  26.098   0.766
94436W        W55967   8.371   7.843  12.886
94437W        W55968   4.354  10.641  12.091
94438W        W55969   8.657  15.266  13.909
94439W        W55970  41.910  44.501  11.922
94440W        W55971  43.909  28.503   1.839
94441W        W55972  22.042  18.176   4.679
94442W        W55973  29.106   9.367   2.266
94443W        W55974  17.717  43.932   4.216
94444W        W55975   3.446  43.941   3.279
94445W        W55976   7.400   8.683  11.539
94446W        W55977  19.260  15.723  10.984
94447W        W55978   2.800  31.933  13.419
94448W        W55979   0.743  30.613  12.851
94449W        W55980  41.788   0.817  13.435
94450W        W55981  28.119  15.815  14.935
94451W        W55982  32.117   2.345  11.895
94452W        W55983  38.455  37.557  11.101
94453W        W55984   4.757  12.308   1.843
94454W        W55985   6.326  13.115   3.296
94455W        W55986  29.118  32.523   1.802
94456W        W55987  25.619  40.371   2.703
94457W        W55988  11.268  15.816  12.006
94458W        W55989  39.532  31.641  10.478
94459W        W55990  12.251  32.905   1.829
94460W        W55991  22.234  19.229  13.890
94461W        W55992  39.556   4.873   3.852
94462W        W55993   2.766  33.551   0.438
94463W        W55994   0.391  40.890  14.918
94464W        W55995   5.822  39.361   3.243
94465W        W55996  28.152  25.527   1.251
94466W        W55997  10.831  40.511   0.442
94467W        W55998   7.889  39.005   4.615
94468W        W55999  18.204  23.588   1.305
94469W        W56000  20.567  12.228  11.034
94470W        W56001  17.648  22.147   2.822
94471W        W56002   8.184  42.476   4.208
94472W        W56003  13.719  27.079   1.874
94473W        W56004  38.873  27.550   0.301
94474W        W56005  29.149   8.228  13.057
94475W        W56006  34.460  24.209   3.230
94476W        W56007   2.445  15.732   3.672
94477W        W56008   9.366   7.397  12.021
94478W        W56009  44.781  18.548  12.892
94479W        W56010  40.979  41.362  13.470
94480W        W56011  29.022  17.752   3.835
94481W        W56012  20.041  26.578  11.567
94482W        W56013  13.722  30.575  14.845
94483W        W56014  44.414  12.304   3.255
94484W        W56015  18.269  22.625  13.957
94485W        W56016  13.707  10.747   1.822
94486W        W56017  26.179  10.696  11.036
94487W        W56018   4.730  43.928  12.045
94488W        W56019  21.081  17.585  11.986
94489W        W56020  27.682  12.795   3.189
94490W        W56021  39.937   2.382  10.622
94491W        W56022  34.956  24.048   3.216
94492W        W56023  29.560   4.325   2.875
94493W        W56024  16.757  34.092   4.260
94494W        W56025   9.762  41.966   1.405
94495W        W56026   9.671  39.485  14.993
94496W        W56027   9.797  37.419   1.730
94497W        W56028   6.714  13.707  14.301
94498W        W56029   1.267  35.375   3.642
94499W        W56030   1.806  41.534   3.781
94500W        W56031   4.908  14.652  10.983
94501W        W56032  10.189  34.956   4.706
94502W        W56033  31.638  16.158   3.855
94503W        W56034  12.813   9.297   3.193
94504W        W56035  27.067  37.844   4.615
94505W        W56036  25.600  26.170   3.829
94506W        W56037  13.161  34.612   1.934
94507W        W56038  40.041  16.271   2.221
94508W        W56039  39.352  33.045   0.377
94509W        W56040  39.036  41.525  13.311
94510W        W56041  22.085  36.357  10.423
94511W        W56042  10.296  24.087  11.938
94512W        W56043  31.510  25.980  12.976
94513W        W56044  19.051   8.389   2.780
94514W        W56045  14.720  32.423  13.032
94515W        W56046  18.652  34.973  11.029
94516W        W56047  14.149  12.818   1.403
94517W        W56048  21.651  32.575  14.453
94518W        W56049  37.987  39.888  14.508
94519W        W56050  33.110  26.561  12.414
94520W        W56051  24.567   8.855   4.327
94521W        W56052  13.174  11.820   0.948
94522W        W56053   1.886   5.829   0.290
94523W        W56054  29.602  17.146  11.410
94524W        W56055  33.950  19.758  13.481
94525W        W56056  43.324   3.373  10.462
94526W        W56057  30.084  36.428  12.824
94527W        W56058  43.895  20.093   4.343
94528W        W56059  31.978  34.376   4.171
94529W        W56060  13.148  27.505  14.848
94530W        W56061   8.820  39.902  14.297
94531W        W56062  15.722  25.079   1.357
94532W        W56063  39.345   3.758   4.714
94533W        W56064  24.609  33.987  10.966
94534W        W56065  31.619  25.105  14.482
94535W        W56066  10.214  15.817  13.407
94536W        W56067   0.482  29.073  10.437
94537W        W56068  13.222  24.135   1.276
94538W        W56069  17.683   1.463  11.377
94539W        W56070  33.902   4.858  11.429
94540W        W56071   8.337   5.913  14.429
94541W        W56072  10.659   4.263  14.903
94542W        W56073  17.161  27.148  14.300
94543W        W56074  29.960  43.375  11.608
94544W        W56075  40.526   4.277  11.459
94545W        W56076   7.687  43.480  14.815
94546W        W56077  13.682   4.816  11.027
94547W        W56078  40.997  37.449   3.778
94548W        W56079  36.557  28.045  14.943
94549W        W56080  22.082  26.672  11.381
94550W        W56081  35.094   2.368   1.326
94551W        W56082  13.797   5.209  10.425
94552W        W56083  17.149  43.803   4.310
94553W        W56084  37.888  19.685  12.569
94554W        W56085  13.124  44.354   1.365
94555W        W56086  35.061  34.982  11.432
94556W        W56087  37.518   7.267   5.152
94557W        W56088   3.852  26.658  10.050
94558W        W56089  26.581  21.230   3.684
94559W        W56090  42.342  42.307   3.207
94560W        W56091  10.294  17.659   1.885
94561W        W56092  19.663  21.257   2.702
94562W        W56093  18.628  42.918  12.095
94563W        W56094   2.902  24.032  14.960
94564W        W56095  31.143  34.579  14.323
94565W        W56096  17.296  30.924  12.513
94566W        W56097   6.415  24.591  11.933
94567W        W56098  16.754  42.009   2.280
94568W        W56099   6.709  28.152   2.894
94569W        W56100  14.645  44.974   4.690
94570W        W56101  21.114  16.698  11.393
94571W        W56102  30.043  22.045   1.331
94572W        W56103   3.246  39.316  12.918
94573W        W56104  29.594  37.030  12.342
94574W        W56105  26.649   5.409  14.821
94575W        W56106  22.177  37.455  13.489
94576W        W56107  28.139  41.484  10.946
94577W        W56108  36.023   2.445   2.273
94578W        W56109  28.021   5.370   3.368
94579W        W56110  12.633  43.444   2.264
94580W        W56111  26.522  13.193  14.484
94581W        W56112   7.381  31.635   2.217
94582W        W56113  31.020  41.977  11.457
94583W        W56114  40.904  32.618   2.229
94584W        W56115  25.122  38.497   3.205
94585W        W56116  13.792  43.440  11.387
94586W        W56117   2.903   7.732  12.480
94587W        W56118   0.334  10.384  11.493
94588W        W56119  44.830  16.080   3.382
94589W        W56120  28.099  29.591   2.336
94590W        W56121  26.536  44.007  10.468
94591W        W56122  43.820  17.298   2.742
94592W        W56123   0.356  19.778  13.877
94593W        W56124  36.849  14.810  10.934
94594W        W56125  37.937  31.904   3.226
94595W        W56126  18.725  13.658   4.159
94596W        W56127   0.354  23.651  12.047
94597W        W56128  39.927  20.234  13.463
94598W        W56129  44.299  24.611  11.486
94599W        W56130  35.386   7.696   0.275
94600W        W56131  30.471  10.305  13.793
94601W        W56132  17.248  32.056   9.969
94602W        W56133  38.903  31.515   5.157
94603W        W56134  43.915   4.417   0.272
94604W        W56135  34.379  18.226   3.724
94605W        W56136  22.099   3.350  13.861
94606W        W56137  16.123   5.205   4.140
94607W        W56138  38.893  16.153   2.699
94608W        W56139   7.192  14.599   0.735
94609W        W56140  36.897   9.736   0.463
94610W        W56141  26.460  19.213   1.762
94611W        W56142   2.945  17.078  12.540
94612W        W56143  28.980  13.667  14.490
94613W        W56144   9.832  13.612  12.576
94614W        W56145  24.052  34.445   4.657
94615W        W56146  40.465  43.362  11.541
94616W        W56147  22.650  36.582  13.530
94617W        W56148  16.568   9.323  14.902
94618W        W56149  22.243  24.221  10.559
94619W        W56150  37.495   1.732  11.948
94620W        W56151  24.661  27.571  11.464
94621W        W56152  25.199  23.025   4.654
94622W        W56153  25.969  37.354   1.882
94623W        W56154  17.796   6.712   1.361
94624W        W56155  22.064  43.299  11.536
94625W        W56156  23.149  37.944   5.237
94626W        W56157  34.456   6.784  11.903
94627W        W56158  39.542  28.506  11.032
94628W        W56159  15.663  38.534   3.815
94629W        W56160  33.522  29.613   0.250
94630W        W56161  31.038   3.822  13.949
94631W        W56162  37.077  36.958   2.347
94632W        W56163  16.106  18.258   4.795
94633W        W56164  26.494  21.084  14.372
94634W        W56165   5.813  43.299  14.939
94635W        W56166  24.141  37.539  11.532
94636W        W56167  39.911  27.614  14.475
94637W        W56168   2.928  11.363   4.606
94638W        W56169  27.513  29.481   0.862
94639W        W56170  33.412  13.627   0.286
94640W        W56171  35.500  39.034   3.666
94641W        W56172  37.840  44.959   1.247
94642W        W56173  17.746  10.677  11.478
94643W        W56174  35.454  28.521   2.224
94644W        W56175  39.398  13.215  12.044
94645W        W56176  26.677  13.811  10.960
94646W        W56177  27.191  35.554   4.836
94647W        W56178   1.843  10.332   4.636
94648W        W56179  26.576  41.313  14.954
94649W        W56180  26.703   5.383   3.308
94650W        W56181  42.909  18.609   1.884
94651W        W56182  11.748  35.576  11.039
94652W        W56183   8.713  13.613  10.469
94653W        W56184  40.435  33.503  12.971
94654W        W56185  15.101  25.198  12.387
94655W        W56186  20.623  37.542   3.822
94656W        W56187   0.377   7.894  12.053
94657W        W56188  15.678  18.750   2.711
94658W        W56189  36.948  10.159  13.547
94659W        W56190  40.418  44.851   4.148
94660W        W56191  35.937  12.689  14.384
94661W        W56192   9.666  10.737   4.797
94662W        W56193  23.581   1.267   2.381
94663W        W56194  38.033   9.307   4.656
94664W        W56195  40.492  35.962   4.283
94665W        W56196  44.796  27.157   1.450
94666W        W56197   9.718  26.565  13.028
94667W        W56198   5.328   6.678   3.238
94668W        W56199   8.241  19.622   2.378
94669W        W56200  42.782  18.616  11.437
94670W        W56201  21.024  17.281  14.901
94671W        W56202   3.225  31.104  14.429
94672W        W56203   2.248  39.359   1.212
94673W        W56204  22.622   8.175   4.196
94674W        W56205  32.088  43.855   0.265
94675W        W56206   1.947  44.759   4.274
94676W        W56207  30.078  14.727   2.410
94677W        W56208  39.840  18.156   3.862
94678W        W56209   9.256  18.282   3.250
94679W        W56210  11.166   3.899   2.782
94680W        W56211   4.343  14.744   1.720
94681W        W56212  33.903  31.136   1.341
94682W        W56213   5.324  10.862  11.492
94683W        W56214  17.745   4.285  13.939
94684W        W56215  44.435  34.065   1.820
94685W        W56216  15.108  14.250  11.554
94686W        W56217   8.828  18.270  12.415
94687W        W56218  13.170  15.180  12.060
94688W        W56219  42.789  17.723   1.421
94689W        W56220  29.561  43.396  12.954
94690W        W56221  15.239  28.674   0.775
94691W        W56222  19.064  35.006  10.542
94692W        W56223  32.142  39.054   4.118
94693W        W56224  35.878  20.760  10.950
94694W        W56225  32.485  13.683  13.507
94695W        W56226  35.473  20.614   2.813
94696W        W56227  21.175  14.227  13.902
94697W        W56228   8.335   6.296   1.300
94698W        W56229  16.774  10.358   3.257
94699W        W56230  12.338  35.563   0.901
94700W        W56231  12.692  34.101   1.905
94701W        W56232   5.398  23.147  10.448
94702W        W56233  27.976  35.507   3.672
94703W        W56234  36.920  28.944   3.838
94704W        W56235  22.207  25.182   2.293
94705W        W56236  23.050  17.753  13.824
94706W        W56237  44.959  36.070   3.744
94707W        W56238  39.367  29.026   0.922
94708W        W56239  38.393  43.457   0.959
94709W        W56240  40.386  24.548  14.443
94710W        W56241   0.766   3.402   0.449
94711W        W56242   1.337  43.871  11.868
94712W        W56243  34.610  26.113  10.453
94713W        W56244  39.535  32.610  10.474
94714W        W56245  17.775  44.388   0.843
94715W        W56246  44.501  41.981  14.918
94716W        W56247  23.049  34.908   0.872
94717W        W56248  21.724  32.051   1.718
94718W        W56249  31.635   5.898   2.892
94719W        W56250  42.784  38.415  11.893
94720W        W56251   1.427  18.737  14.459
94721W        W56252  41.969  29.463  14.974
94722W        W56253  14.281  22.651   1.801
94723W        W56254  20.038   5.250  13.973
94724W        W56255   5.693  25.963   0.325
94725W        W56256  41.802  29.119  11.479
94726W        W56257  29.930   7.688  11.492
94727W        W56258   3.845  33.614  12.985
94728W        W56259  27.956  18.712   2.875
94729W        W56260   4.792  31.943   0.790
94730W        W56261   3.313  13.655   1.294
94731W        W56262  41.297  35.916   4.349
94732W        W56263  18.740   0.293  14.905
94733W        W56264  23.015   1.384   1.700
94734W        W56265   0.874  38.464  14.761
94735W        W56266  28.100   0.442   4.762
94736W        W56267  14.207  43.911   2.861
94737W        W56268  35.454  33.935  12.865
94738W        W56269  37.050  15.722   2.901
94739W        W56270  34.478   8.657  10.613
94740W        W56271  17.588  41.864   2.312
94741W        W56272  21.259  19.066   4.131
94742W        W56273  27.055  35.515   1.304
94743W        W56274   2.300  23.671  14.838
94744W        W56275  42.869  44.971   4.819
94745W        W56276  17.698  35.933   0.784
94746W        W56277  42.442   9.759  14.878
94747W        W56278  20.537   3.728  10.522
94748W        W56279   3.856   5.888  13.388
94749W        W56280  25.593  26.485  10.020
94750W        W56281  25.630   1.778   4.292
94751W        W56282  28.007  29.147   2.215
94752W        W56283  37.549  32.086   1.223
94753W        W56284  28.677  28.134  12.516
94754W        W56285  10.642  10.806   1.336
94755W        W56286  43.399   4.898  13.354
94756W        W56287   6.894  34.924   2.234
94757W        W56288  22.020   0.806   1.724
94758W        W56289  33.909  16.729  13.043
94759W        W56290  23.650  42.883   4.646
94760W        W56291  34.066   4.774  10.078
94761W        W56292  35.395  44.978   0.289
94762W        W56293  24.203  37.043  11.855
94763W        W56294  44.778  13.257  10.609
94764W        W56295  27.473  12.653   2.819
94765W        W56296  27.489  28.634   3.800
94766W        W56297  15.588  16.213  14.344
94767W        W56298  23.016  41.863  13.927
94768W        W56299  40.465  11.715  14.836
94769W        W56300  20.734  23.712  12.867
94770W        W56301  42.514  40.895  10.425
94771W        W56302   6.425  26.608  12.534
94772W        W56303   1.886  41.367   1.311
94773W        W56304   3.822  11.682  10.092
94774W        W56305   7.227  18.736  10.444
94775W        W56306  35.499  25.521   3.794
94776W        W56307  35.499  37.921  13.457
94777W        W56308  28.509  26.075   2.857
94778W        W56309  33.419   9.651  12.064
94779W        W56310  42.287  18.252   1.766
94780W        W56311  16.093   1.759   4.797
94781W        W56312   0.317  19.148  12.575
94782W        W56313  40.474   7.232   0.468
94783W        W56314  41.005  28.053   1.358
94784W        W56315   3.716   5.856   0.795
94785W        W56316  12.340   2.455   1.720
94786W        W56317  44.342   4.374   3.150
94787W        W56318  29.965  44.941   3.794
94788W        W56319  18.578  33.571  13.859
94789W        W56320  22.186  20.218   3.295
94790W        W56321  32.928  28.483  13.488
94791W        W56322   8.657  26.700  10.446
94792W        W56323  13.220  37.881   2.248
94793W        W56324  18.172  12.771  12.495
94794W        W56325  11.191  13.349  13.896
94795W        W56326   7.665  40.510   2.302
94796W        W56327   6.291  43.442  10.025
94797W        W56328  28.180  11.145  13.049
94798W        W56329  29.662   2.958   0.911
94799W        W56330  33.419  22.579  14.359
94800W        W56331  33.042  32.469  13.413
94801W        W56332  23.121  23.156   0.291
94802W        W56333  28.521  29.143   0.908
94803W        W56334  15.775  43.449   4.297
94804W        W56335  17.279   8.339   2.383
94805W        W56336  15.088  26.185   3.157
94806W        W56337  22.012   9.867   2.211
94807W        W56338  40.307  12.219   4.649
94808W        W56339  33.061  42.489  13.019
94809W        W56340  14.825  36.000  11.050
94810W        W56341   4.290   0.308   2.370
94811W        W56342   5.703   5.341  11.093
94812W        W56343   5.391  38.368  13.805
94813W        W56344   1.248  37.397   0.317
94814W        W56345  43.381  36.499  14.821
94815W        W56346  40.410  10.809  13.356
94816W        W56347  26.954  27.984   3.771
94817W        W56348  20.758  16.267  14.323
94818W        W56349  43.422  44.778  10.414
94819W        W56350  10.199  33.936  10.638
94820W        W56351  34.013   6.199   0.365
94821W        W56352   7.850   5.271  14.278
94822W        W56353   4.753   2.740   1.253
94823W        W56354  35.459  31.426   0.863
94824W        W56355  15.294  14.147  12.834
94825W        W56356  12.147  28.999   1.867
94826W        W56357  31.524  32.054  13.955
94827W        W56358  40.881  30.534   1.824
94828W        W56359  27.451  25.564   3.270
94829W        W56360  26.002   2.470  12.823
94830W        W56361  43.298   5.900   0.309
94831W        W56362   9.191   4.762  11.037
94832W        W56363  10.826  41.975  11.983
94833W        W56364   0.959  32.967  14.409
94834W        W56365   4.876   5.757   4.113
94835W        W56366   1.239  31.616   3.294
94836W        W56367  22.725   4.715   2.681
94837W        W56368   2.826  18.617   2.835
94838W        W56369  11.240  11.685  13.055
94839W        W56370  15.632   0.835  10.639
94840W        W56371  13.274  32.542   3.809
94841W        W56372  44.269  44.493  10.984
94842W        W56373   9.320  30.569  11.600
94843W        W56374  19.731   8.405   3.160
94844W        W56375   3.737  20.549  11.545
94845W        W56376  18.114  21.627   4.620
94846W        W56377  31.092  29.632   1.294
94847W        W56378  27.563  23.141  12.432
94848W        W56379  31.591  34.562   4.174
94849W        W56380  40.344  11.312  11.015
94850W        W56381  37.337   8.841  12.906
94851W        W56382  17.760  15.704   1.877
94852W        W56383  17.188  42.383   2.339
94853W        W56384   0.418  25.033   4.193
94854W        W56385  21.568  35.037  12.874
94855W        W56386  28.528  14.677   3.329
94856W        W56387   4.861  25.980  11.078
94857W        W56388  40.383  12.122  11.095
94858W        W56389  39.492  16.629  14.786
94859W        W56390  15.119  37.922  12.341
94860W        W56391  13.674  14.298   0.845
94861W        W56392  35.414  34.944   2.205
94862W        W56393  18.679   8.308   0.738
94863W        W56394  11.201   6.868  13.353
94864W        W56395  18.113  28.663  12.886
94865W        W56396  19.069  10.173   4.298
94866W        W56397  39.417   3.420  12.571
94867W        W56398  38.974  27.548  11.077
94868W        W56399  34.114  11.158  14.996
94869W        W56400  23.532  22.142  11.012
94870W        W56401   4.381  20.742   3.794
94871W        W56402  10.760  30.658  11.378
94872W        W56403  23.042  35.947   2.863
94873W        W56404  35.598  16.081   2.389
94874W        W56405   5.912  31.480   0.920
94875W        W56406  17.665  38.505   4.274
94876W        W56407  33.417  44.922  11.860
94877W        W56408  23.721  11.867  11.885
94878W        W56409   8.379  23.998  14.942
94879W        W56410   4.721  26.615   4.785
94880W        W56411  13.163  36.489   0.381
94881W        W56412  43.274   1.827  11.578
94882W        W56413  36.051  41.801   1.266
94883W        W56414  20.640   1.364   2.698
94884W        W56415  14.320  12.256   2.892
94885W        W56416  42.002  16.571  10.982
94886W        W56417  13.122  28.011   5.204
94887W        W56418  44.991  12.345  14.290
94888W        W56419  19.103  42.812   0.906
94889W        W56420  13.125  31.126   1.442
94890W        W56421  38.885  34.533   3.372
94891W        W56422  32.513  40.440  13.460
94892W        W56423  18.647   6.394  14.029
94893W        W56424  16.201  42.864   2.765
94894W        W56425  31.007  32.996  12.946
94895W        W56426  17.151  10.223  11.095
94896W        W56427  19.554  43.437  10.996
94897W        W56428  27.013   6.685  13.403
94898W        W56429  33.065  32.130   1.450
94899W        W56430   4.321  31.131  11.046
94900W        W56431   1.925  32.413   2.190
94901W        W56432  38.548  19.542  14.299
94902W        W56433  27.156  30.080  10.445
94903W        W56434   6.326  11.800   2.290
94904W        W56435   6.218  18.073  10.421
94905W        W56436  37.062  23.600   2.863
94906W        W56437   8.852  12.655   4.679
94907W        W56438   7.367  20.168  11.486
94908W        W56439  19.146  28.030  11.434
94909W        W56440  17.245   1.315   1.790
94910W        W56441  19.552  34.450  11.965
94911W        W56442  28.103  20.641  13.319
94912W        W56443  38.500  39.921   2.719
94913W        W56444  42.987  39.416   0.447
94914W        W56445  12.237  37.489   1.365
94915W        W56446  19.659   0.290  13.017
94916W        W56447  34.452   2.840   0.412
94917W        W56448  23.642  27.047  14.333
94918W        W56449  13.770  12.748   0.410
94919W        W56450  19.588  39.529  13.410
94920W        W56451  38.026   3.272   1.892
94921W        W56452  26.461  21.710   3.184
94922W        W56453  30.007  41.386  11.503
94923W        W56454  37.502  29.004  10.936
94924W        W56455  31.540  13.739   1.736
94925W        W56456   1.774  29.130  12.875
94926W        W56457  39.313   3.934  13.491
94927W        W56458  34.533   6.222  11.891
94928W        W56459  20.041  42.501  12.550
94929W        W56460   4.407  35.003  11.993
94930W        W56461  44.477  16.765   1.696
94931W        W56462  29.048  44.451   3.175
94932W        W56463   3.302  17.579   1.722
94933W        W56464  15.245  10.267  11.464
94934W        W56465  33.391  28.526   1.849
94935W        W56466  35.553  38.379  13.941
94936W        W56467   1.970  13.798  14.802
94937W        W56468  41.429  22.704  14.382
94938W        W56469  30.026  11.203  14.327
94939W        W56470   6.772  33.126  12.007
94940W        W56471   7.717  34.562  11.983
94941W        W56472  23.238  28.169   3.810
94942W        W56473   0.312   9.744   3.177
94943W        W56474  28.107  30.565  11.930
94944W        W56475  38.059  44.362   2.802
94945W        W56476  25.712  24.174   3.373
94946W        W56477  36.540  20.111   3.697
94947W        W56478  17.589  16.124  10.936
94948W        W56479  14.260  16.081  12.911
94949W        W56480  42.322   0.260  12.029
94950W        W56481  30.155  14.740  12.005
94951W        W56482  31.913  37.473  13.393
94952W        W56483  22.011   9.762  14.864
94953W        W56484  28.553  43.846  14.429
94954W        W56485  10.140  39.362   4.729
94955W        W56486  12.293   4.358   0.296
94956W        W56487  34.984   0.488  12.380
94957W        W56488  37.043  25.141  11.479
94958W        W56489  34.107  40.454  14.489
94959W        W56490  26.975  27.469   2.776
94960W        W56491  14.332  40.923   3.294
94961W        W56492   0.797  11.780   1.242
94962W        W56493  25.528  27.946   5.240
94963W        W56494  39.351  44.269   2.692
94964W        W56495  32.449   3.252  12.951
94965W        W56496  23.038  18.549   3.670
94966W        W56497  14.636  41.889  12.479
94967W        W56498  14.182  36.391   3.218
94968W        W56499   3.875  19.156  13.900
94969W        W56500  43.968   3.875  11.976
94970W        W56501  10.175  21.601  13.919
94971W        W56502  42.491  24.524   2.731
94972W        W56503  24.492  20.732  13.853
94973W        W56504  10.248  27.558  10.494
94974W        W56505  29.570  40.913   2.712
94975W        W56506   1.845  42.481  12.041
94976W        W56507  16.146  30.464   9.951
94977W        W56508  42.991  28.029  14.298
94978W        W56509  14.106  38.044   1.425
94979W        W56510  31.965  38.522  13.973
94980W        W56511  39.899   3.723  13.970
94981W        W56512   0.481  39.471   2.393
94982W        W56513   8.318  27.534   3.825
94983W        W56514  33.435   7.242  11.386
94984W        W56515  33.529   0.904   2.782
94985W        W56516   5.833   3.427  12.078
94986W        W56517  40.889   3.735  12.481
94987W        W56518  36.868  43.803   0.469
94988W        W56519  17.668   7.390  14.919
94989W        W56520  21.263  25.646   5.241
94990W        W56521  39.909  13.618  12.501
94991W        W56522  43.373   1.779  13.420
94992W        W56523  19.049  12.136  10.531
94993W        W56524  33.421  43.468   1.830
94994W        W56525  40.038   8.802   1.803
94995W        W56526  29.615  32.430  13.800
94996W        W56527  28.544  34.374   0.280
94997W        W56528  29.148  20.553   0.876
94998W        W56529  12.196  44.420  12.399
94999W        W56530  40.384  34.533   4.147
95000W        W56531  26.529  24.147  12.388
95001W        W56532  39.330  24.988   4.703
95002W        W56533  40.830  24.054  12.426
95003W        W56534  43.474  16.134   2.235
95004W        W56535  18.093  21.716  11.396
95005W        W56536  13.106   3.288   4.762
95006W        W56537   7.896   0.809   3.796
95007W        W56538  14.108  27.566  13.024
95008W        W56539  26.159   8.879   4.679
95009W        W56540   0.887   4.845  10.484
95010W        W56541  38.913  31.144   1.235
95011W        W56542  18.131  44.947  14.001
95012W        W56543  12.649   9.176   1.784
95013W        W56544  30.077  23.719  11.946
95014W        W56545  42.422  36.003   0.326
95015W        W56546  26.973   5.929   2.286
95016W        W56547  33.431  29.569   2.691
95017W        W56548  24.016  32.069   2.316
95018W        W56549  22.192  17.125  10.963
95019W        W56550  23.548   4.440  11.999
95020W        W56551  28.967  24.143  14.781
95021W        W56552   4.794  18.649   0.314
95022W        W56553  24.204   1.744   2.324
95023W        W56554  17.175   7.286   5.255
95024W        W56555  39.960  30.557   1.898
95025W        W56556  27.660  32.087  14.764
95026W        W56557  38.410  23.023   1.220
95027W        W56558  11.672  25.605   4.291
95028W        W56559  17.699  13.177  11.490
95029W        W56560  28.143  12.314  10.923
95030W        W56561  40.881   9.793  13.995
95031W        W56562  36.884  39.442  14.505
95032W        W56563   1.972  29.104   1.248
95033W        W56564  23.525  10.716   1.426
95034W        W56565  16.200  38.950  10.481
95035W        W56566  44.293   8.806   1.856
95036W        W56567  24.651  38.924   3.151
95037W        W56568  28.989  14.593   0.419
95038W        W56569   6.837  33.530  11.506
95039W        W56570  28.053   0.416  11.979
95040W        W56571  27.979  43.491  14.769
95041W        W56572  30.095  37.474   4.678
95042W        W56573  13.105  43.431  10.926
95043W        W56574  17.715  11.737   2.322
95044W        W56575  35.600   7.756  11.897
95045W        W56576  18.109  13.274  14.406
95046W        W56577  18.245  17.600   3.826
95047W        W56578   4.331   2.377  14.482
95048W        W56579  33.444   8.897  11.563
95049W        W56580  39.946  26.588   2.183
95050W        W56581  19.251  22.252   2.778
95051W        W56582  28.154  27.552   0.272
95052W        W56583  34.095   7.304   4.335
95053W        W56584  36.453   2.352  14.277
95054W        W56585  39.471  36.047  13.922
95055W        W56586  38.456  16.590   4.657
95056W        W56587  10.832  31.987   1.745
95057W        W56588   8.760  41.500  12.974
95058W        W56589  31.113  15.118   9.987
95059W        W56590  40.861  36.954   4.801
95060W        W56591   2.923  34.935  11.880
95061W        W56592   2.236  11.226   4.772
95062W        W56593  43.854   4.208   2.410
95063W        W56594  19.243  31.135  10.950
95064W        W56595  11.205  11.690  10.906
95065W        W56596  36.450  14.293  10.054
95066W        W56597  28.145  34.041   3.711
95067W        W56598   1.455  26.568   1.371
95068W        W56599  38.440   4.750   1.795
95069W        W56600  24.682   4.276  12.533
95070W        W56601   0.278  16.706   2.663
95071W        W56602  41.034  37.984   0.755
95072W        W56603  44.900   0.879   1.804
95073W        W56604  37.383  44.853  11.413
95074W        W56605   0.930   8.188   0.476
95075W        W56606  30.101   1.905   4.332
95076W        W56607  22.224   4.217  13.809
95077W        W56608  37.021  13.111  12.519
95078W        W56609  22.587  44.941   3.146
95079W        W56610  11.678  26.160  12.507
95080W        W56611  38.434  38.936   4.659
95081W        W56612  37.565  20.049  14.342
95082W        W56613  13.147  39.841  11.536
95083W        W56614  43.508   0.289  14.402
95084W        W56615  14.250  19.242   3.333
95085W        W56616  34.589  18.076  13.827
95086W        W56617  10.650  36.850   0.458
95087W        W56618   7.857  25.588  13.852
95088W        W56619  23.003  26.659  14.342
95089W        W56620  20.078  26.504   2.683
95090W        W56621  34.024  37.548  14.505
95091W        W56622  25.523  10.140   5.178
95092W        W56623  25.570   4.711   4.721
95093W        W56624  18.276   1.262   2.871
95094W        W56625  23.003   2.921  12.578
95095W        W56626  32.503   5.928  14.496
95096W        W56627  28.025  22.575  14.372
95097W        W56628  29.937  41.495  11.905
95098W        W56629   8.319  16.585   3.383
95099W        W56630  43.941   9.181   3.679
95100W        W56631   5.717  17.738   1.293
95101W        W56632   8.354  39.397  11.585
95102W        W56633  41.829   2.298  10.485
95103W        W56634  38.018  33.577   1.802
95104W        W56635  15.690  37.988   2.729
95105W        W56636  41.946   4.926  10.906
95106W        W56637  44.277  35.105  14.892
95107W        W56638  37.880  33.622  12.439
95108W        W56639  20.690   2.742   3.649
95109W        W56640  25.193  43.370  13.032
95110W        W56641  35.909   2.756  10.420
95111W        W56642  44.898  11.271  14.399
95112W        W56643   9.394  44.386   1.399
95113W        W56644  40.966   6.902   1.297
95114W        W56645   3.358  35.486   4.308
95115W        W56646  20.721  28.961  10.593
95116W        W56647  33.966   6.810  11.404
95117W        W56648   1.338   2.376   1.373
95118W        W56649  11.153  17.124  13.904
95119W        W56650  44.341  34.025  10.594
95120W        W56651   5.421  33.972   2.762
95121W        W56652   1.908   7.275   2.895
95122W        W56653   2.890  33.574  11.895
95123W        W56654  27.023   3.918   2.286
95124W        W56655  39.983  40.328   4.700
95125W        W56656  20.595  23.132  12.920
95126W        W56657  16.131  37.540  14.001
95127W        W56658  22.110   7.739   2.268
95128W        W56659   9.317  15.782   0.440
95129W        W56660  21.049  12.293   1.755
95130W        W56661  34.597   8.232  14.901
95131W        W56662  37.558   0.822  11.442
95132W        W56663   4.446  24.550  11.397
95133W        W56664  41.970  20.100   1.749
95134W        W56665  34.460  31.432   3.816
95135W        W56666  31.560  23.053   2.338
95136W        W56667  12.635  32.002   0.772
95137W        W56668  17.209  24.133  11.475
95138W        W56669  33.112   3.749   1.352
95139W        W56670   5.411  44.866   0.735
95140W        W56671  11.629  22.020  14.455
95141W        W56672  23.086  10.709  10.591
95142W        W56673  24.213   4.278   0.371
95143W        W56674  12.266  21.701  13.476
95144W        W56675  37.858  39.377   2.862
95145W        W56676   9.365  12.750  12.391
95146W        W56677  29.927  30.570   3.740
95147W        W56678  41.318  26.141  11.856
95148W        W56679  16.174   1.963  13.042
95149W        W56680   7.288  43.321  12.954
95150W        W56681  25.521  44.778  12.996
95151W        W56682   2.810  14.337   2.407
95152W        W56683  34.559   6.722   1.791
95153W        W56684   7.905  38.885   1.382
95154W        W56685   4.414   1.372   4.682
95155W        W56686  10.335   8.253  13.906
95156W        W56687  13.284   6.383  10.514
95157W        W56688  21.195  22.695  12.018
95158W        W56689  33.128   2.389  12.456
95159W        W56690   8.884  25.602  13.802
95160W        W56691  37.930  24.033   4.255
95161W        W56692  19.723  18.108  13.991
95162W        W56693  16.731  14.784  14.776
95163W        W56694  28.466  40.538  13.910
95164W        W56695  38.930  12.707   0.433
95165W        W56696  19.219  14.163  14.915
95166W        W56697   1.956  16.744  12.571
95167W        W56698  44.865  15.590  10.096
95168W        W56699   9.281  20.611  14.356
95169W        W56700  43.307  17.250   0.770
95170W        W56701  22.585   6.790   4.675
95171W        W56702  36.434  16.782  12.015
95172W        W56703  33.894  36.548  13.517
95173W        W56704  23.985   1.907   2.665
95174W        W56705  35.963   1.878  13.471
95175W        W56706  40.821   8.658   4.670
95176W        W56707  38.936  38.473  12.930
95177W        W56708   3.275  36.934   1.780
95178W        W56709   3.453  19.643   1.841
95179W        W56710   3.753  15.183   1.222
95180W        W56711  11.212  20.139   2.794
95181W        W56712  19.703  22.676   0.449
95182W        W56713  40.033   0.924   3.868
95183W        W56714  15.154  32.945   3.807
95184W        W56715  19.626  38.476   2.234
95185W        W56716  41.997  10.812   3.169
95186W        W56717  38.049  12.356  14.363
95187W        W56718   3.791  23.600  12.040
95188W        W56719  27.656  40.539  10.522
95189W        W56720  35.872   2.890   3.216
95190W        W56721  37.052   4.841  10.435
95191W        W56722  25.055  38.043   3.799
95192W        W56723   3.413  13.661  11.515
95193W        W56724   2.422  38.015   3.233
95194W        W56725   3.919   8.704   2.198
95195W        W56726   5.318  40.529  14.515
95196W        W56727  23.220  11.220   3.678
95197W        W56728  40.435   1.953   3.251
95198W        W56729  28.489   1.257   2.209
95199W        W56730  39.342  24.048  13.026
95200W        W56731  38.473  32.630   4.256
95201W        W56732  13.811  13.160  14.774
95202W        W56733  41.407  23.052   4.300
95203W        W56734  37.449  33.082   4.312
95204W        W56735   0.283   9.163   2.376
95205W        W56736  23.653  11.168  13.794
95206W        W56737  34.562  14.173   4.168
95207W        W56738   4.943   6.803  12.931
95208W        W56739   8.216  24.624  11.966
95209W        W56740   0.897   9.368   2.780
95210W        W56741  25.644  14.204  13.357
95211W        W56742  18.068  20.667   3.658
95212W        W56743  14.097  39.850   1.795
95213W        W56744  25.977   4.932  11.007
95214W        W56745   3.334  22.157  11.081
95215W        W56746   2.227  10.197   2.235
95216W        W56747  18.150  27.447   0.959
95217W        W56748   1.841  33.922   0.302
95218W        W56749   2.235  33.949  13.998
95219W        W56750  28.947  14.182  14.921
95220W        W56751  39.448  35.543   3.345
95221W        W56752  15.160  42.346  13.806
95222W        W56753  20.167  15.801   5.173
95223W        W56754   0.401   9.681  11.988
95224W        W56755  40.420  14.179   1.856
95225W        W56756  32.089  33.580   4.212
95226W        W56757  39.486  16.806   4.319
95227W        W56758   8.286  12.773  13.393
95228W        W56759  23.188  37.462  10.971
95229W        W56760  37.973  28.147  11.938
95230W        W56761  43.427  15.698  11.931
95231W        W56762  39.389   7.285  11.870
95232W        W56763  16.618  44.392   3.799
95233W        W56764  23.123  36.087  11.956
95234W        W56765   9.741   5.286  11.426
95235W        W56766  21.140   7.251  14.465
95236W        W56767  36.842  19.614  13.956
95237W        W56768  23.049  31.920   0.299
95238W        W56769  38.435  32.090  12.438
95239W        W56770   4.769  43.405   0.866
95240W        W56771   4.725  27.055   2.821
95241W        W56772  39.356  44.274  14.454
95242W        W56773  17.277  29.074  13.487
95243W        W56774  10.642  25.535   2.832
95244W        W56775  17.084  27.649   3.753
95245W        W56776   0.449  13.117  11.017
95246W        W56777  36.096  10.379   3.833
95247W        W56778  24.175   4.340  12.533
95248W        W56779   7.795   5.820  12.443
95249W        W56780  15.211  33.549   4.769
95250W        W56781  25.109  34.109   0.343
95251W        W56782  28.563  38.394  13.428
95252W        W56783  35.883  27.666   3.321
95253W        W56784  20.552  34.595   1.924
95254W        W56785  25.483  32.632   3.328
95255W        W56786   6.270  30.574   4.299
95256W        W56787  24.013   3.428  12.454
95257W        W56788  21.531  18.611  10.598
95258W        W56789  44.483  12.202  11.875
95259W        W56790  19.736  13.347   1.391
95260W        W56791   9.694   2.414   1.861
95261W        W56792  27.002  13.702   3.753
95262W        W56793   7.909  16.298   4.173
95263W        W56794   8.705  26.689   1.299
95264W        W56795  26.622   4.292   2.873
95265W        W56796  32.905   9.342   4.349
95266W        W56797  30.154  34.455   1.748
95267W        W56798  14.251  15.621   3.215
95268W        W56799  20.682  30.113  14.774
95269W        W56800  29.653  22.704   1.894
95270W        W56801  31.065  20.264   3.170
95271W        W56802  43.426  40.464  12.086
95272W        W56803  21.646  41.016   0.746
95273W        W56804  42.028  16.603   2.214
95274W        W56805  21.224  36.391   0.822
95275W        W56806   9.719  10.155  12.975
95276W        W56807  38.415  33.118  13.388
95277W        W56808  28.132  35.080   2.693
95278W        W56809   2.409  20.151   0.365
95279W        W56810  27.515   5.403   0.312
95280W        W56811   1.445  44.261   3.168
95281W        W56812  44.823  13.257   1.232
95282W        W56813   7.201  14.595  11.592
95283W        W56814  15.750  20.253  12.465
95284W        W56815  38.996  17.155  13.314
95285W        W56816  44.326   4.768   4.137
95286W        W56817   2.369  38.839  10.554
95287W        W56818  12.255  20.133   1.759
95288W        W56819   7.738  17.684  11.938
95289W        W56820  44.781  40.527   3.277
95290W        W56821  27.171  43.792   1.339
95291W        W56822  32.489  24.661   1.428
95292W        W56823  17.762  43.769   3.703
95293W        W56824   2.786   3.766   1.767
95294W        W56825   7.831  26.953   4.628
95295W        W56826  37.416  19.160   1.252
95296W        W56827  43.850  32.461   0.255
95297W        W56828  31.616  41.530   0.854
95298W        W56829  44.499   0.356  14.391
95299W        W56830  34.063   1.873   1.910
95300W        W56831   4.904  41.892  10.113
95301W        W56832  27.163  16.794   0.329
95302W        W56833  39.818   1.891  14.843
95303W        W56834  27.999  24.999   4.306
95304W        W56835   8.879  26.960   0.396
95305W        W56836  29.505  23.111  11.954
95306W        W56837  19.129  13.230  13.903
95307W        W56838  17.621  18.608   1.698
95308W        W56839   6.865   6.685  14.397
95309W        W56840  44.461  11.276   1.730
95310W        W56841  34.864  32.426   4.766
95311W        W56842  10.663  24.141  12.340
95312W        W56843  37.347  22.626  11.474
95313W        W56844  19.674   4.831   5.087
95314W        W56845  35.873  29.170  14.504
95315W        W56846  43.337  32.037  10.091
95316W        W56847  16.092  34.463   4.663
95317W        W56848   5.703  30.984   4.159
95318W        W56849   7.380  24.627   4.237
95319W        W56850   6.188  14.598  12.045
95320W        W56851  27.133  17.072  14.974
95321W        W56852   4.447  44.435   1.422
95322W        W56853  30.474  33.463  11.506
95323W        W56854   2.464  41.322  11.917
95324W        W56855  29.136  24.603   0.958
95325W        W56856   4.267  10.330   3.696
95326W        W56857   8.674  30.126   0.440
95327W        W56858   6.885  15.786  10.158
95328W        W56859   5.873  18.556  11.437
95329W        W56860   9.877  31.997  10.478
95330W        W56861   1.269  17.756  14.017
95331W        W56862   5.414  19.606  13.998
95332W        W56863  43.296  30.460   5.202
95333W        W56864   8.323  22.632  11.055
95334W        W56865  17.615  11.191  14.954
95335W        W56866  14.240  31.451   3.255
95336W        W56867  31.102  28.044  12.477
95337W        W56868   8.805  44.499   0.932
95338W        W56869   1.408  33.511   2.772
95339W        W56870  11.130  43.466  13.926
95340W        W56871  14.170  43.496  14.887
95341W        W56872  41.924   8.811  11.485
95342W        W56873  21.254  37.495  10.956
95343W        W56874   0.392  24.559  12.851
95344W        W56875  34.407  43.503  12.513
95345W        W56876  15.596  28.567   0.911
95346W        W56877  42.794  18.776   0.808
95347W        W56878  11.654  39.915  14.508
95348W        W56879  40.395  19.281  13.321
95349W        W56880  24.093   9.297   2.198
95350W        W56881  24.665  24.177   2.352
95351W        W56882  20.543  20.730   2.661
95352W        W56883  44.493  41.478  12.395
95353W        W56884  12.810  29.160   1.414
95354W        W56885  25.581   5.266  13.537
95355W        W56886   5.877  19.743  12.421
95356W        W56887  30.527  35.068   2.781
95357W        W56888  31.602  18.596   4.689
95358W        W56889  11.666  18.054  11.125
95359W        W56890  24.532  22.247   3.296
95360W        W56891  40.980  35.912  14.844
95361W        W56892   6.725   0.807   1.432
95362W        W56893  10.877  18.565  11.900
95363W        W56894  40.008   4.244   1.747
95364W        W56895  11.866  33.457   1.804
95365W        W56896  21.663  13.151  14.882
95366W        W56897  44.973  23.704   2.875
95367W        W56898  11.367  44.410  11.443
95368W        W56899  18.741   0.933   3.668
95369W        W56900  37.360  12.122  10.577
95370W        W56901  13.603  20.707  12.420
95371W        W56902  27.085  33.088  10.095
95372W        W56903  23.063  24.665   1.368
95373W        W56904  21.143  28.026  14.431
95374W        W56905  27.960  15.303   2.757
95375W        W56906  36.551  38.349   5.707
95376W        W56907   1.832  26.639  14.839
95377W        W56908  43.293  22.073   4.243
95378W        W56909  20.251  33.388  13.475
95379W        W56910  14.823  27.587   0.396
95380W        W56911  33.886  40.985  14.316
95381W        W56912   6.333  14.648   0.389
95382W        W56913  22.088   9.329  14.487
95383W        W56914  21.700   0.422  11.435
95384W        W56915   0.880  13.210  14.852
95385W        W56916  24.712  30.084  12.389
95386W        W56917   0.464   8.713  13.498
95387W        W56918   7.407  41.947   4.604
95388W        W56919  17.739  35.023   3.783
95389W        W56920  41.016   0.414  14.287
95390W        W56921   4.900  30.025   0.851
95391W        W56922  16.653  12.186  11.013
95392W        W56923  16.140  28.161  12.041
95393W        W56924  20.212  37.082   2.357
95394W        W56925  40.501  31.909   3.790
95395W        W56926  11.337  32.457   0.777
95396W        W56927  22.512   4.380   2.759
95397W        W56928   8.170   1.934  12.053
95398W        W56929  35.462  38.394  13.415
95399W        W56930  17.646   7.226  14.355
95400W        W56931  28.488  23.625   4.234
95401W        W56932  32.125  42.489   0.787
95402W        W56933  42.940  25.668  13.520
95403W        W56934   8.778  10.291  12.020
95404W        W56935  39.838  44.400  11.009
95405W        W56936  15.166   4.375  14.018
95406W        W56937  20.594  12.320  12.871
95407W        W56938  10.324  30.933  14.008
95408W        W56939  10.202  44.277   4.838
95409W        W56940   8.310  26.070  14.430
95410W        W56941  35.583   7.334   3.266
95411W        W56942   9.823  15.723   4.197
95412W        W56943  12.782  10.261  11.871
95413W        W56944  14.173   2.886   4.797
95414W        W56945  28.048   3.221  11.077
95415W        W56946  44.344  42.446   2.704
95416W        W56947  16.621  13.769  14.320
95417W        W56948  10.754   6.801   3.632
95418W        W56949  28.449  18.175   5.156
95419W        W56950  18.112   1.451   3.378
95420W        W56951   3.739   5.338   0.309
95421W        W56952  23.607  39.842  14.867
95422W        W56953   3.858  30.577   1.332
95423W        W56954  17.202  42.787   5.228
95424W        W56955  17.183  27.041   2.309
95425W        W56956  44.260  37.003   5.269
95426W        W56957  25.214   0.979  13.849
95427W        W56958   3.445  37.526  10.619
95428W        W56959  23.703  25.703   0.913
95429W        W56960  23.650  19.262  12.538
95430W        W56961   1.361  44.766  14.453
95431W        W56962  19.747  25.640  13.966
95432W        W56963   8.318   5.437  12.878
95433W        W56964  43.302  29.945   1.872
95434W        W56965   6.908  29.061   1.865
95435W        W56966  32.479  33.613  13.433
95436W        W56967  22.017   1.417  12.909
95437W        W56968  20.624   5.334   4.821
95438W        W56969  26.498   7.853  11.478
95439W        W56970  33.064   6.751  12.096
95440W        W56971  36.031  27.047   4.750
95441W        W56972  42.331   0.817   0.277
95442W        W56973  22.204  32.434   3.810
95443W        W56974  12.265  14.204   3.204
95444W        W56975  14.792  23.518   0.879
95445W        W56976   9.676  35.086   0.276
95446W        W56977  20.090  17.120   0.379
95447W        W56978   8.177  11.725  14.489
95448W        W56979  43.884   5.299   0.367
95449W        W56980  24.494  44.996  14.505
95450W        W56981  37.970  40.544   1.867
95451W        W56982  39.336  42.024   0.962
95452W        W56983  33.036  21.102  10.429
95453W        W56984  28.533  33.501  14.966
95454W        W56985  38.386   1.476  11.519
95455W        W56986  32.111   8.764  13.328
95456W        W56987  18.669   6.744   3.862
95457W        W56988  12.351  31.603   0.358
95458W        W56989  25.106  27.610   3.194
95459W        W56990  36.489  29.967  14.846
95460W        W56991   8.195  30.953   2.845
95461W        W56992  29.557  44.481   0.299
95462W        W56993  28.497  35.492   2.254
95463W        W56994  26.603  42.428  14.988
95464W        W56995  33.523  31.466   3.326
95465W        W56996  10.861   5.246   1.269
95466W        W56997  38.850  40.901  10.473
95467W        W56998  28.931   4.395   2.830
95468W        W56999  43.876   2.800  10.541
95469W        W57000  20.222  24.700   0.265
95470W        W57001  15.706  23.537  10.440
95471W        W57002  28.020   8.878  11.460
95472W        W57003  38.497  10.746   3.167
95473W        W57004  35.552   4.362   3.820
95474W        W57005   8.850  31.992  13.480
95475W        W57006  39.870  40.341  12.369
95476W        W57007   5.399  32.902  13.464
95477W        W57008   5.357  18.689  10.510
95478W        W57009  28.166  17.575   1.275
95479W        W57010  24.680  30.475   1.386
95480W        W57011  35.046  38.058   2.828
95481W        W57012  30.933  39.974  12.520
95482W        W57013  32.128  21.084  12.944
95483W        W57014  10.286  10.782  13.498
95484W        W57015  30.991   9.157   3.203
95485W        W57016  13.269   2.465   0.785
95486W        W57017  11.831  22.009  13.445
95487W        W57018  28.669   7.690  10.965
95488W        W57019  23.662   5.262  13.461
95489W        W57020  15.223  14.122   2.258
95490W        W57021  17.724  22.645  12.522
95491W        W57022  28.065  25.168   3.187
95492W        W57023   8.281  10.756  12.042
95493W        W57024  44.929  37.509   2.812
95494W        W57025  28.667  18.681  12.403
95495W        W57026  39.374  18.229  11.900
95496W        W57027  34.017  43.417  12.383
95497W        W57028  29.502   5.712  10.893
95498W        W57029  24.204  41.806   4.699
95499W        W57030  38.362  25.534  13.333
95500W        W57031  37.833  28.636  14.778
95501W        W57032   5.218  43.860   1.333
95502W        W57033  35.888  20.230  10.405
95503W        W57034   0.434  27.158   4.794
95504W        W57035   5.389  12.124   3.864
95505W        W57036  18.769  21.075   1.742
95506W        W57037  39.525  28.657  10.583
95507W        W57038  42.932  42.435  14.382
95508W        W57039  15.262  34.865   0.785
95509W        W57040  19.688  23.987   2.701
95510W        W57041  10.242  21.044   2.897
95511W        W57042  36.524   9.195  14.768
95512W        W57043  41.304  37.442   2.414
95513W        W57044  33.966  35.933   1.304
95514W        W57045  33.987  38.414  14.346
95515W        W57046  24.069   5.437   4.707
95516W        W57047  26.057  23.042   2.191
95517W        W57048  16.117   2.317   1.871
95518W        W57049  15.821  16.257   2.354
95519W        W57050  28.063  25.157   1.935
95520W        W57051   6.264  11.155   2.191
95521W        W57052  25.608  24.605  13.791
95522W        W57053   7.320  16.186   2.832
95523W        W57054  34.590  35.377   0.361
95524W        W57055  25.708  24.640   0.942
95525W        W57056  23.501  39.910   2.673
95526W        W57057  10.179   2.418  12.397
95527W        W57058  22.115  10.813  12.487
95528W        W57059   1.406  14.278  10.954
95529W        W57060  34.445  18.106   3.239
95530W        W57061   9.265  19.768  11.909
95531W        W57062  16.770  13.307  11.466
95532W        W57063   7.223  42.299  14.390
95533W        W57064  29.545  38.014   2.216
95534W        W57065   5.774  16.750   3.305
95535W        W57066   1.741  29.943  12.431
95536W        W57067  39.981   0.931   2.282
95537W        W57068  23.684  31.462   1.242
95538W        W57069  28.162  18.569  14.948
95539W        W57070  39.470  10.764  14.865
95540W        W57071   0.917  23.137  10.414
95541W        W57072  10.241  30.537   0.858
95542W        W57073   3.846  38.828   3.844
95543W        W57074  23.657  31.458   3.199
95544W        W57075  39.342  32.502  12.474
95545W        W57076  42.327  15.291  10.923
95546W        W57077  17.586  37.366   0.292
95547W        W57078  38.066   2.736  11.450
95548W        W57079   4.924   0.910  14.507
95549W        W57080   1.858  27.471  13.947
95550W        W57081  24.223   8.755   2.786
95551W        W57082   4.829  31.450  13.368
95552W        W57083   5.292   6.761  13.957
95553W        W57084  41.895  38.468   2.874
95554W        W57085  16.630  24.692  12.823
95555W        W57086   4.932  28.598   2.210
95556W        W57087  28.135  42.007  14.930
95557W        W57088  25.184  11.338  12.405
95558W        W57089  21.546   2.455   4.240
95559W        W57090  20.179  27.944  10.634
95560W        W57091  36.586  17.591   5.287
95561W        W57092  44.388  11.768  11.031
95562W        W57093  41.879  22.537  12.035
95563W        W57094  10.277   1.918  13.396
95564W        W57095  14.599  25.082  14.366
95565W        W57096  33.124  22.089   2.750
95566W        W57097  32.120   8.706  11.123
95567W        W57098  25.688   0.264  11.037
95568W        W57099  18.170  17.176   1.339
95569W        W57100  39.061  32.126   1.225
95570W        W57101  15.142  10.872   2.271
95571W        W57102  24.633  23.570  11.463
95572W        W57103  42.998  22.605   4.767
95573W        W57104  28.154  17.212   1.303
95574W        W57105  10.250  41.445  13.949
95575W        W57106  23.194  36.355  10.919
95576W        W57107  12.341  21.203   0.863
95577W        W57108   1.270  43.309   3.797
95578W        W57109   9.801  21.587  11.951
95579W        W57110  10.180  13.145   3.818
95580W        W57111  26.506  11.359  11.919
95581W        W57112  13.813  11.370  11.079
95582W        W57113  33.596  40.350  12.008
95583W        W57114  24.170  40.508   3.212
95584W        W57115  30.515  32.944   2.395
95585W        W57116  32.585  30.118   0.777
95586W        W57117  21.236   5.249   1.304
95587W        W57118  41.472  24.633  12.404
95588W        W57119  38.421  32.563   3.343
95589W        W57120  24.174   1.791   0.943
95590W        W57121  25.568  35.046  11.468
95591W        W57122   1.354  39.449  13.442
95592W        W57123  44.875  39.018  13.035
95593W        W57124   1.808  25.637  10.036
95594W        W57125  33.626   3.436  14.899
95595W        W57126  35.459  27.026   1.723
95596W        W57127  12.611  28.970   5.226
95597W        W57128  24.114   4.808   1.421
95598W        W57129  17.275  25.130   2.287
95599W        W57130  19.073  28.051  10.620
95600W        W57131  14.110  10.217  12.824
95601W        W57132   8.302  28.434   0.865
95602W        W57133  29.466  33.575   3.743
95603W        W57134  13.793   5.390  11.434
95604W        W57135   7.352   1.926   4.837
95605W        W57136   5.894  35.560   0.764
95606W        W57137   4.209  13.268   2.256
95607W        W57138  43.373  25.082   4.631
95608W        W57139  27.515  39.366   2.786
95609W        W57140  27.578   4.278   4.778
95610W        W57141  22.739  19.578  13.869
95611W        W57142   6.358  35.907   3.169
95612W        W57143  25.581  40.309  12.833
95613W        W57144  44.273  11.261   3.177
95614W        W57145  10.830  17.107   2.833
95615W        W57146  44.987  24.146   0.873
95616W        W57147  16.810  12.780   3.259
95617W        W57148   5.719  44.967   4.668
95618W        W57149  14.828  38.826   9.953
95619W        W57150  38.904  18.202  10.153
95620W        W57151  40.837  10.661  10.580
95621W        W57152   4.420  17.669   1.403
95622W        W57153  37.974  20.672   0.313
95623W        W57154  36.883   4.396   3.301
95624W        W57155  22.150   9.868  13.803
95625W        W57156  17.632   6.403   2.276
95626W        W57157  26.965  36.876  12.569
95627W        W57158  18.063   6.782  12.978
95628W        W57159  28.612  41.799  13.483
95629W        W57160   5.793  34.404   0.776
95630W        W57161  17.587  36.094   2.700
95631W        W57162  38.890   9.670  12.048
95632W        W57163  20.721  15.147  14.302
95633W        W57164  41.422  16.799  11.529
95634W        W57165   4.268   9.369  12.441
95635W        W57166  15.285   4.702   0.851
95636W        W57167  28.120  16.651   4.118
95637W        W57168  19.138  39.908  12.523
95638W        W57169  25.177   3.914  12.572
95639W        W57170  33.548  32.530  14.867
95640W        W57171  16.079  30.066   9.529
95641W        W57172  18.200  20.704   2.321
95642W        W57173  17.079  39.887  10.943
95643W        W57174  13.330  43.890   1.733
95644W        W57175  39.559  22.157  11.912
95645W        W57176  13.820  19.194   1.758
95646W        W57177  35.554   6.775   1.372
95647W        W57178  17.074  37.551  14.299
95648W        W57179   6.261  16.145   2.251
95649W        W57180  18.123   7.289   1.265
95650W        W57181  29.022  28.930  14.869
95651W        W57182  23.655  43.943  14.293
95652W        W57183   6.840   5.917   0.270
95653W        W57184  33.972   4.802   0.258
95654W        W57185  17.249  15.715   5.273
95655W        W57186   1.867  32.451  11.440
95656W        W57187  38.828  16.785   2.320
95657W        W57188  35.011  30.651   1.223
95658W        W57189  27.148   0.261  13.811
95659W        W57190  25.086  22.107   0.289
95660W        W57191  30.049  39.863   3.845
95661W        W57192   5.849  16.686   4.657
95662W        W57193  37.022  22.505   2.412
95663W        W57194  22.681  43.901   3.175
95664W        W57195   6.423   3.880  13.532
95665W        W57196  22.127   0.337   0.454
95666W        W57197  27.056  13.287   3.650
95667W        W57198  34.116  32.439  12.876
95668W        W57199  20.148  24.068  13.363
95669W        W57200  15.115  25.610  12.908
95670W        W57201  22.140  18.113  12.353
95671W        W57202  14.107  30.161   1.872
95672W        W57203   6.806  17.152   1.809
95673W        W57204  40.306  24.976  11.945
95674W        W57205  10.836  33.077   1.878
95675W        W57206  13.330   9.851  13.958
95676W        W57207  36.849  13.819  14.339
95677W        W57208  18.240  24.216  14.895
95678W        W57209  18.168  34.402  13.869
95679W        W57210  41.918  16.242   4.289
95680W        W57211  15.781  10.841  13.903
95681W        W57212  25.604   8.197   4.312
95682W        W57213  13.150  18.601   1.794
95683W        W57214   9.268  39.336   3.798
95684W        W57215   3.408   6.887  12.490
95685W        W57216   3.862  38.337  13.465
95686W        W57217  31.452  42.516   4.179
95687W        W57218  26.496  39.404  10.934
95688W        W57219  39.820   4.332  11.088
95689W        W57220  19.587   2.740   4.784
95690W        W57221   1.761  24.634  14.313
95691W        W57222  24.636  35.446   1.257
95692W        W57223   9.178  27.624  13.418
95693W        W57224  16.237  16.731   1.730
95694W        W57225   3.865   9.740   4.725
95695W        W57226   8.259   3.796   4.336
95696W        W57227  34.921  37.031  12.040
95697W        W57228  37.947  12.824  13.046
95698W        W57229  35.979  44.816  14.794
95699W        W57230  11.669  33.440  14.826
95700W        W57231  25.487  42.843   3.202
95701W        W57232   9.662  25.501   1.761
95702W        W57233   7.747  13.175   2.739
95703W        W57234   6.340  35.888   4.159
95704W        W57235  24.223  35.561  13.523
95705W        W57236  22.637  24.583   0.920
95706W        W57237  24.075  15.718  11.417
95707W        W57238  10.282   3.418   2.339
95708W        W57239  10.725  35.497   2.400
95709W        W57240  33.900  13.177  11.070
95710W        W57241  15.724  15.671  13.437
95711W        W57242  41.008  32.399   0.860
95712W        W57243  32.918  20.194  14.930
95713W        W57244  41.486  26.563  10.419
95714W        W57245  29.114  31.619  10.948
95715W        W57246  22.036  27.619   0.839
95716W        W57247   6.314  31.995   4.711
95717W        W57248  43.929   5.727  11.471
95718W        W57249  22.173  18.162  11.110
95719W        W57250  17.127  19.608   0.879
95720W        W57251   5.781   3.433  10.548
95721W        W57252  14.282  27.525   3.237
95722W        W57253   2.932   4.868  12.056
95723W        W57254   9.339  23.643  11.902
95724W        W57255  13.326  30.587  13.946
95725W        W57256   8.290   2.738  14.910
95726W        W57257   4.407  27.965   3.352
95727W        W57258   6.687  12.702  14.937
95728W        W57259   5.254   7.349   0.940
95729W        W57260  15.729  21.656   2.259
95730W        W57261  29.984  43.800  11.986
95731W        W57262  35.403   9.655   0.263
95732W        W57263   0.920  30.974   0.886
95733W        W57264  40.364  18.237  13.517
95734W        W57265  18.708  34.544   1.257
95735W        W57266   4.755  24.661  12.088
95736W        W57267   4.875   9.231  11.427
95737W        W57268  39.478  10.139  11.881
95738W        W57269  39.403  32.460  13.471
95739W        W57270  36.098   6.243   2.727
95740W        W57271  11.293   8.753  11.104
95741W        W57272  37.866   8.272  13.038
95742W        W57273  42.517  26.112  14.331
95743W        W57274   8.229  44.813  11.440
95744W        W57275  37.399  37.926  11.440
95745W        W57276   2.851  16.628  12.554
95746W        W57277  41.019  37.347  10.913
95747W        W57278   8.893  17.090   5.094
95748W        W57279  10.748   3.259   0.811
95749W        W57280  12.749  42.908  14.896
95750W        W57281  39.972  17.632  12.530
95751W        W57282  34.462  35.389  14.360
95752W        W57283  37.390  34.104  11.419
95753W        W57284  38.479   4.337   1.736
95754W        W57285   5.711   1.847   4.695
95755W        W57286  20.134  21.666  14.351
95756W        W57287  36.563  17.662   1.746
95757W        W57288  40.005  14.236  10.521
95758W        W57289   1.281  20.163   1.914
95759W        W57290  22.180  24.531  14.505
95760W        W57291   0.754  13.277  12.509
95761W        W57292   5.753  39.448  12.397
95762W        W57293  20.554  39.392   3.864
95763W        W57294  11.132  30.576   4.326
95764W        W57295   7.876  20.639   0.369
95765W        W57296  13.662  28.945   0.818
95766W        W57297  11.270  41.043  13.452
95767W        W57298  39.491  19.222  10.557
95768W        W57299   2.322   1.264   4.691
95769W        W57300  28.952  25.675  10.500
95770W        W57301   4.381  18.110  12.023
95771W        W57302   9.347  25.697  13.823
95772W        W57303  10.696  35.378   3.266
95773W        W57304   8.194   3.299   3.308
95774W        W57305  42.510  41.927   1.361
95775W        W57306  28.482  44.956  11.981
95776W        W57307  34.524   3.843  13.875
95777W        W57308  26.043  14.752  13.538
95778W        W57309   0.320  17.561   3.663
95779W        W57310  18.087  35.031  10.479
95780W        W57311  31.096   4.437  10.991
95781W        W57312  12.334   2.312  14.347
95782W        W57313  31.120   8.846   0.945
95783W        W57314  33.104  16.664   3.379
95784W        W57315  31.139   5.771  10.488
95785W        W57316  33.542   1.867   3.322
95786W        W57317  25.565  21.603   0.413
95787W        W57318  33.386  32.455   4.644
95788W        W57319   4.858  24.064  11.109
95789W        W57320   8.226  44.925  10.952
95790W        W57321  35.534   3.390  13.437
95791W        W57322  28.492  42.399   3.690
95792W        W57323  39.388   1.330   2.709
95793W        W57324  19.603   2.858   0.871
95794W        W57325  38.399  14.259   4.231
95795W        W57326  32.527   2.430  13.481
95796W        W57327  17.199  11.711   2.322
95797W        W57328   9.204  11.273   3.217
95798W        W57329  10.204  35.536  14.417
95799W        W57330   9.792  37.396  11.065
95800W        W57331  41.448  17.306  12.991
95801W        W57332  33.587   4.223  10.603
95802W        W57333  15.231   3.911  13.952
95803W        W57334  19.110  44.835   4.611
95804W        W57335  13.649   6.421   2.237
95805W        W57336  21.619  16.318   1.843
95806W        W57337  23.187   8.240  11.482
95807W        W57338   9.322   5.913   2.210
95808W        W57339  27.023  19.625  10.495
95809W        W57340   0.904  28.517  14.370
95810W        W57341  27.588  20.074   0.292
95811W        W57342  40.433   3.310   3.328
95812W        W57343  10.375   5.239   0.901
95813W        W57344  37.517  12.683  14.860
95814W        W57345   3.794   5.690  12.480
95815W        W57346   1.767  34.558  11.612
95816W        W57347  23.051  42.886  13.799
95817W        W57348  23.142   1.473  13.904
95818W        W57349  25.474  21.655   2.897
95819W        W57350  16.127  22.114  10.509
95820W        W57351  39.978  23.563  13.039
95821W        W57352  20.692  37.875  14.962
95822W        W57353  39.421  25.556  11.502
95823W        W57354  29.102   0.819   3.346
95824W        W57355  35.032  39.981   3.764
95825W        W57356  22.575  23.576  11.443
95826W        W57357   5.321   0.857  14.834
95827W        W57358  41.831  42.326   4.639
95828W        W57359  12.121  29.568   1.819
95829W        W57360  23.592  44.451  14.480
95830W        W57361  43.309  28.180  14.432
95831W        W57362  19.285   7.323  10.998
95832W        W57363  18.614  18.743   1.877
95833W        W57364  21.512  15.734  13.928
95834W        W57365  12.184  26.529   4.666
95835W        W57366  40.449  15.157  12.080
95836W        W57367  43.407  14.129  12.826
95837W        W57368  44.410   1.794   1.400
95838W        W57369  19.277   6.332   1.223
95839W        W57370  35.521  13.811   0.292
95840W        W57371   3.796   8.320  12.393
95841W        W57372  40.045   8.765   0.864
95842W        W57373  42.491  14.681   2.800
95843W        W57374  38.963   3.888   1.237
95844W        W57375  15.752  12.729  14.508
95845W        W57376  40.542   4.280   2.721
95846W        W57377  11.649   9.867   1.276
95847W        W57378  23.506  24.658   4.598
95848W        W57379  21.589  26.125  14.003
95849W        W57380  17.750  15.125  11.603
95850W        W57381  18.760  10.758   4.602
95851W        W57382   4.316  11.132  10.998
95852W        W57383  28.521  12.221  12.065
95853W        W57384  36.578  17.639  11.457
95854W        W57385  44.846  26.080   2.369
95855W        W57386  44.440  37.949   3.189
95856W        W57387  27.661  10.713  14.890
95857W        W57388  13.125  18.081   2.855
95858W        W57389  33.083  29.174   1.900
95859W        W57390  26.062  24.089   2.766
95860W        W57391  27.006  44.893   0.914
95861W        W57392  30.593  44.459   2.829
95862W        W57393  38.366  37.919   4.775
95863W        W57394   7.186  39.409   2.748
95864W        W57395  14.720  22.220  11.461
95865W        W57396  42.525   9.742   2.303
95866W        W57397  10.807  37.848   1.386
95867W        W57398  22.231  13.192  11.386
95868W        W57399  37.068   1.760   0.932
95869W        W57400  15.803   6.921   5.209
95870W        W57401  17.072   5.205  10.089
95871W        W57402  20.227  19.255   1.815
95872W        W57403  12.310  39.960  10.950
95873W        W57404  21.093  38.939   4.646
95874W        W57405  37.866   9.802   0.406
95875W        W57406  44.273  20.532  11.882
95876W        W57407  21.063   9.389   2.744
95877W        W57408  18.172  40.941  14.982
95878W        W57409  39.999  12.797   2.676
95879W        W57410   2.894  32.020   0.405
95880W        W57411  11.840  14.124   2.662
95881W        W57412  36.846  39.432   1.710
95882W        W57413  34.392  19.164   1.310
95883W        W57414  13.168   0.284  10.934
95884W        W57415   3.444  43.770  12.469
95885W        W57416  26.519  11.253  10.068
95886W        W57417  15.728   1.929  10.945
95887W        W57418  21.583   7.266  12.550
95888W        W57419  29.497  18.294   3.800
95889W        W57420  30.025  21.170  10.488
95890W        W57421  21.676  15.239  12.028
95891W        W57422   0.269   3.435   3.661
95892W        W57423   6.787  14.223   1.782
95893W        W57424  39.517  11.311   2.398
95894W        W57425  38.007  43.341  11.924
95895W        W57426  35.944   5.248   2.245
95896W        W57427  43.499  24.495   1.891
95897W        W57428  18.129  28.084   3.726
95898W        W57429  31.519  36.087  12.046
95899W        W57430  40.034  10.711   3.753
95900W        W57431  19.266  17.606   2.402
95901W        W57432  19.218   2.937  13.999
95902W        W57433  30.968  35.585  11.901
95903W        W57434  23.161  28.123   1.303
95904W        W57435  18.242   6.377  12.482
95905W        W57436  20.198   0.406  10.936
95906W        W57437  15.666  30.461  11.980
95907W        W57438  29.143  24.012  12.429
95908W        W57439  25.128   8.660   0.904
95909W        W57440   2.361  26.184  14.278
95910W        W57441  33.386  44.864  14.279
95911W        W57442   1.255   2.319   3.225
95912W        W57443   3.250  44.292   0.481
95913W        W57444  38.466  18.111   4.726
95914W        W57445  24.551  25.705  12.968
95915W        W57446  39.813  19.165   1.928
95916W        W57447  41.805   1.266   3.211
95917W        W57448  24.676   9.228  14.917
95918W        W57449  34.543   9.248   3.205
95919W        W57450   9.829  40.376  13.357
95920W        W57451  20.654   2.304  12.914
95921W        W57452  19.187  18.739   2.670
95922W        W57453  31.087   7.728  13.326
95923W        W57454   4.227  34.396  13.807
95924W        W57455   8.402  29.985   0.307
95925W        W57456  37.402  36.548  11.537
95926W        W57457  11.698  22.540   4.750
95927W        W57458  13.274  32.009  13.042
95928W        W57459  29.523  30.423   4.164
95929W        W57460  27.621  30.453   9.966
95930W        W57461  12.304  20.693   2.843
95931W        W57462  31.057  39.484  10.612
95932W        W57463   1.861   7.815  11.042
95933W        W57464   6.373  20.160  13.343
95934W        W57465  37.405  28.678  12.397
95935W        W57466  40.855   1.732  12.008
95936W        W57467  42.990   9.816   1.875
95937W        W57468  43.474   6.341   0.462
95938W        W57469  41.948  36.905   3.161
95939W        W57470  38.986   8.809   1.422
95940W        W57471  38.014   5.425  13.932
95941W        W57472  14.832  37.458  10.951
95942W        W57473  14.227  10.227  11.486
95943W        W57474  20.572  35.007   4.706
95944W        W57475  19.647  26.962   3.725
95945W        W57476  44.787  26.094  14.030
95946W        W57477   0.893  11.698  14.933
95947W        W57478  22.671  10.336  11.993
95948W        W57479   3.447  14.722   2.400
95949W        W57480  28.094  34.502   1.302
95950W        W57481  42.863  39.550   2.739
95951W        W57482  13.233  39.514  13.055
95952W        W57483  44.438  30.614   1.748
95953W        W57484  23.985  18.191   1.441
95954W        W57485  33.453  16.645   1.893
95955W        W57486   4.276  18.108  14.446
95956W        W57487  11.177  18.625   1.821
95957W        W57488  35.492  28.053  10.467
95958W        W57489  23.989  24.662   3.760
95959W        W57490  13.319  13.187   3.643
95960W        W57491   2.288  27.115   2.295
95961W        W57492  23.717   1.804  14.798
95962W        W57493   4.239  20.093   3.202
95963W        W57494  10.373  12.746  12.408
95964W        W57495  43.399  11.841  10.066
95965W        W57496  43.400  18.057  11.985
95966W        W57497  36.417   6.319  12.900
95967W        W57498  15.193   7.366  10.571
95968W        W57499  27.150  16.227   0.896
95969W        W57500  40.015  13.255   4.616
95970W        W57501  10.842  21.540  14.788
95971W        W57502  33.386  18.083  11.380
95972W        W57503  17.256  13.691   2.864
95973W        W57504  36.855  38.965   1.246
95974W        W57505  41.915  33.078   0.959
95975W        W57506  11.721  22.713   4.215
95976W        W57507  43.983   7.346   0.753
95977W        W57508  16.606  22.586  12.054
95978W        W57509  33.052  36.044  12.361
95979W        W57510   7.176  27.007  11.968
95980W        W57511   8.874   7.821   0.856
95981W        W57512  42.951  40.455  14.493
95982W        W57513   8.862  28.544   1.725
95983W        W57514  13.820  29.963  13.491
95984W        W57515   4.369   5.248   4.834
95985W        W57516  22.086  30.454   0.316
95986W        W57517  13.298  27.063  10.645
95987W        W57518  18.791  11.857  12.904
95988W        W57519  41.425   2.847   4.326
95989W        W57520  40.317  28.052  12.429
95990W        W57521   1.942   5.798   4.694
95991W        W57522   5.731   5.801   1.342
95992W        W57523  31.025  14.603   3.344
95993W        W57524   5.831  24.044   5.279
95994W        W57525  42.347  44.827   0.736
95995W        W57526  44.483  38.841   4.800
95996W        W57527  13.658  11.639  10.426
95997W        W57528  22.623  35.964   3.291
95998W        W57529  36.386  33.420  11.937
95999W        W57530  32.997  33.509   2.702
96000W        W57531  26.196  12.721  13.996
96001W        W57532   2.842   5.274   3.357
96002W        W57533  33.119  22.017  12.914
96003W        W57534  34.583  11.793  13.541
96004W        W57535  22.601  41.044  11.908
96005W        W57536  16.272   5.260   2.746
96006W        W57537  31.092  14.249  13.910
96007W        W57538  44.381  24.056  11.959
96008W        W57539   3.778   0.278   2.761
96009W        W57540  34.043  36.363   1.878
96010W        W57541  24.217  23.141  12.368
96011W        W57542  40.925  39.953   4.342
96012W        W57543  25.070  41.942   0.432
96013W        W57544  13.721  39.432  12.831
96014W        W57545   9.753  24.982  14.372
96015W        W57546  27.612   3.409   0.788
96016W        W57547   4.929   4.417  13.325
96017W        W57548   1.782  42.897   1.290
96018W        W57549   3.447  22.049   4.174
96019W        W57550  20.572  26.201  10.137
96020W        W57551  13.132  34.540  11.604
96021W        W57552  11.300  22.175   1.815
96022W        W57553   5.786   3.344  12.464
96023W        W57554   9.882  18.165   4.788
96024W        W57555  42.403  31.097  12.929
96025W        W57556  42.444  33.423  10.476
96026W        W57557  34.396  10.680  11.609
96027W        W57558   5.432   2.881   2.278
96028W        W57559   3.456   3.934  11.408
96029W        W57560  44.823  12.678   1.434
96030W        W57561  31.005  19.091  12.372
96031W        W57562  13.140  38.935   0.793
96032W        W57563  38.961  38.336  11.981
96033W        W57564  19.254  15.763   1.385
96034W        W57565  40.491  13.156   4.725
96035W        W57566  44.464   4.752   0.440
96036W        W57567   8.232  19.604   3.842
96037W        W57568  30.931   7.270   2.389
96038W        W57569   1.817  15.609  12.899
96039W        W57570   7.833  25.561  12.412
96040W        W57571  14.635   0.479  13.476
96041W        W57572  43.848  23.210   1.373
96042W        W57573  40.435  33.914  11.386
96043W        W57574  27.079  10.760  13.469
96044W        W57575  23.577  26.987  12.892
96045W        W57576   6.233  35.538  12.428
96046W        W57577  44.271  36.374   1.378
96047W        W57578  40.464  44.404   1.413
96048W        W57579  15.240  19.703  14.394
96049W        W57580   0.402   1.793   3.289
96050W        W57581  19.219  26.149   1.920
96051W        W57582  41.935  18.246   2.248
96052W        W57583  39.830  42.316   3.741
96053W        W57584  15.671   3.936   3.146
96054W        W57585  13.224  21.202   4.640
96055W        W57586  34.924  43.866  11.989
96056W        W57587   3.950  12.130  14.839
96057W        W57588  33.910  23.641  14.372
96058W        W57589  41.935  19.215   2.752
96059W        W57590  30.429   1.824  14.995
96060W        W57591  18.677  13.268  13.539
96061W        W57592  37.549  36.371  13.527
96062W        W57593  24.496  40.520   3.346
96063W        W57594   1.327  26.544  10.988
96064W        W57595  10.279  33.517   0.338
96065W        W57596  20.028   4.758  13.527
96066W        W57597  44.482  16.733   9.995
96067W        W57598  18.141  25.073  12.477
96068W        W57599  23.624  21.592  12.861
96069W        W57600  32.044  12.791   3.333
96070W        W57601  16.089   2.845   4.666
96071W        W57602   6.752  20.664   0.833
96072W        W57603  20.755  24.176  14.305
96073W        W57604  14.190  15.261  10.999
96074W        W57605  37.475  14.118   0.747
96075W        W57606  28.444  23.587   4.737
96076W        W57607  37.074  33.560  13.041
96077W        W57608   6.782  39.818   1.773
96078W        W57609  32.558  38.950  12.875
96079W        W57610  20.151  30.954  12.497
96080W        W57611  18.072  44.322  10.465
96081W        W57612  26.679  20.706  14.798
96082W        W57613   3.823  35.539  12.867
96083W        W57614  36.385  30.512   5.248
96084W        W57615   6.824  39.877   2.310
96085W        W57616   9.670  41.329  12.507
96086W        W57617  10.754  19.772   4.327
96087W        W57618  43.960   0.401   0.412
96088W        W57619  27.631   9.673  11.929
96089W        W57620  11.850  27.532   3.310
96090W        W57621  35.473  39.446  13.474
96091W        W57622  15.821  29.628  11.419
96092W        W57623  33.040  35.877   0.786
96093W        W57624  37.381   4.900  10.533
96094W        W57625  22.643  25.618  10.579
96095W        W57626  29.551  32.982   3.811
96096W        W57627  36.053  44.409  10.132
96097W        W57628   3.907  17.073  13.972
96098W        W57629  31.642  43.960  11.971
96099W        W57630  19.172  11.242  13.921
96100W        W57631  37.582  33.957  14.000
96101W        W57632  22.176  13.134   1.794
96102W        W57633  15.274  12.857   3.295
96103W        W57634  25.992  43.021  10.995
96104W        W57635  35.405  26.481   0.263
96105W        W57636  31.119  18.643  11.124
96106W        W57637  23.988   5.265  10.965
96107W        W57638  41.003  12.614   2.280
96108W        W57639  18.249  44.314  13.422
96109W        W57640  42.371  16.102   1.738
96110W        W57641  38.997  24.992   0.775
96111W        W57642  19.107  11.772  11.028
96112W        W57643  38.536   9.259  13.014
96113W        W57644  32.503  36.434   4.210
96114W        W57645   2.758   9.881   1.333
96115W        W57646  35.405  17.676   3.361
96116W        W57647  27.066  13.750  12.476
96117W        W57648   1.856   2.350  12.440
96118W        W57649  12.852  14.271   0.888
96119W        W57650   8.230  44.961   1.917
96120W        W57651  29.630  41.932  11.046
96121W        W57652  28.979  11.225   1.835
96122W        W57653  17.801  29.104  14.847
96123W        W57654  29.028  39.539   0.455
96124W        W57655  28.947  17.608  12.945
96125W        W57656  27.134  34.036  11.407
96126W        W57657  33.557  39.480   4.353
96127W        W57658   2.385  37.462  11.444
96128W        W57659  15.590   1.811  14.470
96129W        W57660   7.182  33.592  11.054
96130W        W57661  26.982  43.991   4.235
96131W        W57662  11.142  29.047  11.544
96132W        W57663  21.058  43.868   3.700
96133W        W57664  12.792  29.026  10.552
96134W        W57665  33.573  21.146   0.921
96135W        W57666  30.560   9.342  13.501
96136W        W57667  33.596  17.606   4.192
96137W        W57668  31.072   2.929   4.637
96138W        W57669  29.576  19.709   4.184
96139W        W57670  32.010   1.785  11.004
96140W        W57671   1.750   6.250   1.337
96141W        W57672  12.635   4.839   2.319
96142W        W57673  30.981   8.170  10.922
96143W        W57674   1.965   7.725  12.068
96144W        W57675  24.542  21.246  10.933
96145W        W57676  33.433  13.330  11.962
96146W        W57677  25.088  39.882  13.057
96147W        W57678  10.834  12.738   2.865
96148W        W57679  44.990   6.253   1.349
96149W        W57680   1.333  43.889  14.352
96150W        W57681   4.240  24.503   0.415
96151W        W57682   4.322  21.186  14.966
96152W        W57683  32.041  33.541  11.412
96153W        W57684  37.564  13.651   4.352
96154W        W57685  24.723   1.307  12.847
96155W        W57686   9.667  21.681   4.713
96156W        W57687   9.374   2.873  13.968
96157W        W57688  17.674  37.921  14.990
96158W        W57689   5.804  37.006   4.673
96159W        W57690  23.063   3.258  13.036
96160W        W57691  19.269  24.618  14.358
96161W        W57692  32.477   3.908   4.651
96162W        W57693   4.217  37.917   2.809
96163W        W57694  40.450   2.844   4.823
96164W        W57695  18.223   9.297  10.487
96165W        W57696   2.814  25.540  10.638
96166W        W57697   8.774  35.032  13.426
96167W        W57698  41.935  36.938  13.034
96168W        W57699   6.706  22.697   1.214
96169W        W57700  40.839  23.198   1.732
96170W        W57701   2.246  28.078  12.976
96171W        W57702   2.367  40.031   1.924
96172W        W57703   3.907   6.383   0.427
96173W        W57704  31.084   5.198   1.822
96174W        W57705   1.749  14.748   1.714
96175W        W57706  26.665  23.134  11.940
96176W        W57707  36.924  24.995  10.494
96177W        W57708  18.289  32.922  10.461
96178W        W57709  35.896  32.984  14.430
96179W        W57710  28.001   1.275   3.263
96180W        W57711  36.080   9.832   2.304
96181W        W57712  10.176  18.715   2.398
96182W        W57713  24.157  41.032   3.808
96183W        W57714  36.579  35.580   1.917
96184W        W57715   7.694  44.839  14.477
96185W        W57716   9.743  33.066  11.998
96186W        W57717   0.340  14.327  12.433
96187W        W57718  27.108  43.464   2.185
96188W        W57719  35.526  17.087  11.443
96189W        W57720  20.239   6.185   0.374
96190W        W57721   8.358  11.867  11.546
96191W        W57722   2.900  14.294  11.065
96192W        W57723  35.892   8.201  10.589
96193W        W57724  31.635   1.967  11.543
96194W        W57725  39.339  35.909   0.466
96195W        W57726  39.417  38.379  13.007
96196W        W57727  44.863  25.201  10.945
96197W        W57728  22.702  39.525  12.902
96198W        W57729  21.755   2.339   2.755
96199W        W57730  22.534  32.091   2.220
96200W        W57731  41.861   6.244   3.269
96201W        W57732  23.714   1.844   0.773
96202W        W57733  36.961  29.499  10.518
96203W        W57734  44.321  24.534  11.088
96204W        W57735  44.886  38.537  13.380
96205W        W57736   6.851  25.591   4.622
96206W        W57737  36.477  39.415  10.514
96207W        W57738   7.698   5.284  11.411
96208W        W57739   7.879   2.371  11.012
96209W        W57740   9.759  12.145   3.337
96210W        W57741  20.034  35.896  11.094
96211W        W57742   0.474  26.174   4.628
96212W        W57743  18.641  13.305   0.853
96213W        W57744  30.028  18.097  13.833
96214W        W57745  27.950  44.970   4.301
96215W        W57746  44.924   1.288   3.170
96216W        W57747  42.503  16.806   3.213
96217W        W57748  37.903  39.954   4.243
96218W        W57749  15.662  10.299   5.107
96219W        W57750  32.046  31.622  14.295
96220W        W57751  30.467  21.687  11.008
96221W        W57752  33.101  30.007  10.940
96222W        W57753  29.657  18.784   4.142
96223W        W57754  41.980  20.163   0.965
96224W        W57755  42.970  18.719  13.045
96225W        W57756   3.280  16.297  10.972
96226W        W57757  12.133  34.937   1.899
96227W        W57758  28.632  38.872   4.661
96228W        W57759  26.029  43.961   4.687
96229W        W57760  21.147   0.968  12.402
96230W        W57761  34.441  11.844   3.155
96231W        W57762  38.448   1.239   0.837
96232W        W57763  25.055  25.484   3.786
96233W        W57764  32.964  31.578  14.810
96234W        W57765  13.798  35.945   3.288
96235W        W57766  44.826   1.266   1.233
96236W        W57767   5.431  40.538   1.913
96237W        W57768  20.124  35.901   1.788
96238W        W57769   9.377  39.891  12.855
96239W        W57770  10.812  16.097  12.355
96240W        W57771  43.931  19.187  13.438
96241W        W57772  18.693   5.816   4.238
96242W        W57773  27.128  39.345  13.485
96243W        W57774  38.369  29.669  13.847
96244W        W57775  40.821  37.537   3.226
96245W        W57776   7.705  35.076  13.445
96246W        W57777  16.204  42.419  14.009
96247W        W57778   4.350  12.340   2.300
96248W        W57779   3.792  44.903  12.464
96249W        W57780  44.766   3.320   2.743
96250W        W57781  19.684   0.270   1.229
96251W        W57782  20.687  40.345   4.715
96252W        W57783  23.987  21.162  14.448
96253W        W57784  11.658   2.397  12.432
96254W        W57785  42.882   5.873   0.306
96255W        W57786  17.568   8.825   5.254
96256W        W57787  20.753  21.527  10.557
96257W        W57788  29.461  20.728  13.841
96258W        W57789   5.831  13.792  10.571
96259W        W57790   8.763  19.671   1.928
96260W        W57791  30.637  35.399   1.815
96261W        W57792  43.959  16.301   4.210
96262W        W57793   6.772  20.219   3.206
96263W        W57794   4.741  13.153   5.110
96264W        W57795  19.225  23.061   3.384
96265W        W57796  28.108  18.760  12.869
96266W        W57797   6.897   6.714   2.184
96267W        W57798   0.874  23.134   4.178
96268W        W57799   8.661  13.124   1.856
96269W        W57800  20.167  11.659  12.087
96270W        W57801  38.067  40.807  10.485
96271W        W57802  14.303  18.260   0.795
96272W        W57803  31.642  33.528   2.275
96273W        W57804  44.376  33.439   2.800
96274W        W57805   5.751  33.508   3.828
96275W        W57806  43.894  16.710  12.578
96276W        W57807   5.828   3.370  13.513
96277W        W57808  10.320   4.293  12.028
96278W        W57809  32.102  13.315   0.829
96279W        W57810  18.189  37.916  13.984
96280W        W57811  36.061  30.946  14.471
96281W        W57812  27.025  32.435   2.208
96282W        W57813  17.137   0.353  12.943
96283W        W57814  44.888  32.045   5.276
96284W        W57815  44.823  24.152   1.217
96285W        W57816  22.606  19.608  13.399
96286W        W57817   4.258  17.222  11.052
96287W        W57818  41.979  21.544  13.834
96288W        W57819   9.692   6.844  12.926
96289W        W57820  41.887  43.017   4.702
96290W        W57821  11.780   9.815  12.424
96291W        W57822  20.256   1.471  11.986
96292W        W57823  43.502  36.971   1.343
96293W        W57824  30.149  29.429  12.939
96294W        W57825  23.133  39.463   5.793
96295W        W57826  26.128  42.390   1.294
96296W        W57827   6.734   6.764   0.966
96297W        W57828  44.827  29.967  12.515
96298W        W57829  37.382  40.949   4.783
96299W        W57830  41.038   5.318   1.751
96300W        W57831  31.423   0.473  10.918
96301W        W57832  13.145  38.928   2.250
96302W        W57833  38.910  44.401   4.127
96303W        W57834  40.903  32.073  13.948
96304W        W57835  43.801  29.667  14.854
96305W        W57836  34.385  11.712   4.636
96306W        W57837  21.183  23.597  14.447
96307W        W57838  26.589  33.571   2.178
96308W        W57839  22.704   7.310  10.099
96309W        W57840  17.301  14.682   4.342
96310W        W57841  12.703   5.818   4.768
96311W        W57842  31.579   8.879   5.233
96312W        W57843  43.516  38.955  12.870
96313W        W57844  32.920  21.260  14.959
96314W        W57845  18.718  23.996  14.894
96315W        W57846  22.113  12.302  12.016
96316W        W57847  15.704   6.848  14.325
96317W        W57848  23.002   6.189   4.123
96318W        W57849   6.404   5.421  11.923
96319W        W57850  14.636  37.973   3.680
96320W        W57851  26.106  17.626   3.148
96321W        W57852  15.095  22.629  12.377
96322W        W57853  28.185  18.217   9.930
96323W        W57854  37.527   1.307   1.799
96324W        W57855  32.461  26.063   1.784
96325W        W57856  21.027  42.855  14.433
96326W        W57857  42.407   3.871  14.837
96327W        W57858   9.298  19.064  13.973
96328W        W57859  13.604  32.102  13.376
96329W        W57860  27.457  34.397  12.547
96330W        W57861  29.627  35.063  12.019
96331W        W57862  31.472  18.564   2.410
96332W        W57863  36.880   5.217   2.671
96333W        W57864  32.033  40.519   0.750
96334W        W57865  40.899  16.694   2.394
96335W        W57866   1.429  35.424   3.157
96336W        W57867  19.693   8.836  11.880
96337W        W57868   4.409  17.250  11.386
96338W        W57869  21.190  30.961  14.313
96339W        W57870  30.617  31.448  13.801
96340W        W57871  38.860  19.118  13.393
96341W        W57872  44.457  32.990  13.935
96342W        W57873  13.818  38.972   3.678
96343W        W57874  27.515   2.867   3.651
96344W        W57875  38.991  21.222  11.595
96345W        W57876   5.693  43.296   0.405
96346W        W57877  24.071  16.682  12.998
96347W        W57878  38.474  39.884  14.405
96348W        W57879  41.909  16.244  12.460
96349W        W57880  33.923  36.851  10.638
96350W        W57881  37.858  29.467  11.520
96351W        W57882  21.695  21.723   1.891
96352W        W57883  23.611  29.979  12.050
96353W        W57884  13.268  18.620  10.548
96354W        W57885   8.689   5.239   0.863
96355W        W57886   8.390  13.679   1.235
96356W        W57887  38.505  37.908  10.531
96357W        W57888  24.230  20.118  14.292
96358W        W57889  39.407  36.515  11.091
96359W        W57890  36.856  34.439  13.373
96360W        W57891  36.374   0.486  13.906
96361W        W57892  38.962  31.144  14.508
96362W        W57893  37.337  22.144  11.388
96363W        W57894  30.450  43.381   1.312
96364W        W57895  28.056  34.020   2.280
96365W        W57896  18.627   7.899   1.789
96366W        W57897  16.718  29.624  11.552
96367W        W57898   5.389  31.976   1.695
96368W        W57899  31.923  38.510   9.980
96369W        W57900  10.321  43.884   0.266
96370W        W57901  29.103  19.759  12.491
96371W        W57902  18.635  37.440  13.311
96372W        W57903   3.306  12.789   1.896
96373W        W57904  19.668  30.623   0.769
96374W        W57905  15.646  36.984   0.825
96375W        W57906  24.166  27.008  14.938
96376W        W57907   4.444   2.918  14.508
96377W        W57908   0.311   1.260   3.860
96378W        W57909  22.095   1.932   0.252
96379W        W57910  35.976  16.792   4.807
96380W        W57911  23.731  37.959   4.352
96381W        W57912  28.111   2.849  14.929
96382W        W57913  33.388  10.652  11.862
96383W        W57914  10.340  39.952   3.644
96384W        W57915  29.928  16.112  10.503
96385W        W57916  27.607  41.801   3.385
96386W        W57917   4.888  20.591  13.026
96387W        W57918   1.908  26.980   4.298
96388W        W57919   2.879   8.361   0.339
96389W        W57920   7.847  31.484  12.567
96390W        W57921   6.249  23.132   2.379
96391W        W57922  15.120  43.952  12.917
96392W        W57923   7.410   5.387   4.622
96393W        W57924  16.707   8.171  14.926
96394W        W57925  22.594  44.309   0.298
96395W        W57926  42.808  26.556  13.891
96396W        W57927  12.776  33.554   1.229
96397W        W57928   9.233  39.956   2.261
96398W        W57929   3.947  25.554   3.786
96399W        W57930  44.437  32.964   1.701
96400W        W57931  43.002  21.642   1.260
96401W        W57932  10.202   5.197  10.567
96402W        W57933  26.530  24.490   2.773
96403W        W57934  17.562   9.780  14.351
96404W        W57935  33.590  11.223   4.221
96405W        W57936   8.336  36.593  10.432
96406W        W57937  41.882  23.023  14.872
96407W        W57938   8.333  35.446   4.699
96408W        W57939  34.894  31.602  14.395
96409W        W57940   1.436  39.363  14.863
96410W        W57941  38.888  13.329   0.820
96411W        W57942   4.730  36.438  14.435
96412W        W57943  14.619   9.675   1.704
96413W        W57944  28.458  15.584  12.489
96414W        W57945  36.881  34.963  14.995
96415W        W57946  14.681   2.394   4.167
96416W        W57947  28.442  41.446  11.515
96417W        W57948  27.683  32.402   4.791
96418W        W57949  10.654  10.804  12.412
96419W        W57950  30.124  14.291  12.901
96420W        W57951   9.749  23.235  11.429
96421W        W57952  34.075  12.359   4.254
96422W        W57953  19.635  40.908   0.925
96423W        W57954  38.048  41.354  14.794
96424W        W57955  32.081   5.934  10.140
96425W        W57956  19.185  33.488  10.494
96426W        W57957   8.316  41.310   1.289
96427W        W57958  37.455  22.120   4.334
96428W        W57959   6.702  39.038   3.207
96429W        W57960  10.222   5.835  13.995
96430W        W57961  38.982  37.535   4.257
96431W        W57962   1.734  39.989  11.424
96432W        W57963  43.324  23.503   3.224
96433W        W57964  23.166  25.064   4.610
96434W        W57965  42.359  34.043   0.430
96435W        W57966  10.825  33.610  14.834
96436W        W57967  16.640  32.072   4.798
96437W        W57968  24.717  44.336   4.346
96438W        W57969  44.888  25.691  14.933
96439W        W57970  35.428  40.047  11.428
96440W        W57971   1.412  32.413   1.855
96441W        W57972  21.228  40.356  10.122
96442W        W57973  22.623  38.424  11.384
96443W        W57974  14.750   4.430  14.018
96444W        W57975  19.238  36.447  11.873
96445W        W57976   4.242  41.855   3.356
96446W        W57977  23.730  24.663  11.428
96447W        W57978   5.723  36.447   1.236
96448W        W57979  19.133   6.737  13.327
96449W        W57980  17.078   3.314   1.234
96450W        W57981  16.276  25.201   0.312
96451W        W57982   7.902  20.538   1.814
96452W        W57983  29.062  27.035  11.057
96453W        W57984   0.921  20.264   4.304
96454W        W57985  32.466  29.435  13.453
96455W        W57986  19.739  43.436   2.210
96456W        W57987  41.409  24.494  14.005
96457W        W57988  21.655  21.547   2.249
96458W        W57989  43.921  33.981  10.490
96459W        W57990  41.018  38.914  10.414
96460W        W57991  37.041  22.712  10.963
96461W        W57992  17.068  39.988  13.463
96462W        W57993  33.010  31.561   1.388
96463W        W57994  40.317  42.307   0.878
96464W        W57995  32.092  13.114   3.386
96465W        W57996   9.281  13.229  13.503
96466W        W57997  34.406   5.735   1.738
96467W        W57998  41.493  17.787   3.755
96468W        W57999   6.876  43.358   2.882
96469W        W58000  21.198  36.493   0.297
96470W        W58001   9.832   2.867  12.376
96471W        W58002  27.172   9.352   0.736
96472W        W58003  23.545  43.808  14.821
96473W        W58004   9.288  23.152  11.937
96474W        W58005  11.665  13.620  12.558
96475W        W58006  10.264   0.841  14.802
96476W        W58007  43.476  43.923   4.730
96477W        W58008  38.898  30.454   0.335
96478W        W58009  21.154  36.399  13.464
96479W        W58010   3.854  41.510   3.339
96480W        W58011   2.267  25.473   3.335
96481W        W58012  42.455   1.442  14.779
96482W        W58013   2.376   9.328  12.421
96483W        W58014  26.086  33.991   4.174
96484W        W58015  39.552  43.813   1.778
96485W        W58016   1.833  32.565  10.642
96486W        W58017  21.202  31.014   0.960
96487W        W58018  34.952  13.197  13.926
96488W        W58019  19.098  21.169   3.676
96489W        W58020  32.990   7.333   1.410
96490W        W58021  19.256  31.028   1.336
96491W        W58022  33.001   4.329   0.814
96492W        W58023  41.414  27.980   5.188
96493W        W58024   1.791  35.461   2.686
96494W        W58025   6.208  44.424  13.475
96495W        W58026  15.261  19.634  11.513
96496W        W58027  21.130   4.391   2.214
96497W        W58028   2.329  24.170  14.894
96498W        W58029  28.950   6.330  12.431
96499W        W58030  20.114   2.336  11.908
96500W        W58031   1.244  21.078   0.394
96501W        W58032  16.082  28.587  10.561
96502W        W58033  31.054  27.653  13.347
96503W        W58034  26.118  11.776   2.713
96504W        W58035  18.693  13.643  14.842
96505W        W58036   0.933  18.195  14.783
96506W        W58037  10.836  14.653  13.391
96507W        W58038  28.504  40.865   0.440
96508W        W58039  14.185  12.778  12.836
96509W        W58040  42.339  44.379  12.388
96510W        W58041   3.844  29.081   4.204
96511W        W58042  27.191   4.295   4.749
96512W        W58043  37.547  42.406  10.485
96513W        W58044  39.007  20.249  11.960
96514W        W58045   1.286  35.081  14.975
96515W        W58046  35.026  27.065  13.915
96516W        W58047   4.714   4.305  14.510
96517W        W58048  14.751   9.170  10.990
96518W        W58049   5.794   7.826  12.433
96519W        W58050   9.812   3.801   1.332
96520W        W58051   8.263  21.568   0.443
96521W        W58052  32.936  25.201   3.761
96522W        W58053  40.003  12.190  11.061
96523W        W58054  17.257  19.616   4.164
96524W        W58055   1.915   7.858  14.411
96525W        W58056  38.906  16.270  13.391
96526W        W58057  25.131   8.295   2.890
96527W        W58058  39.841  41.841   1.800
96528W        W58059  42.297  28.492   4.229
96529W        W58060  36.541  38.978   1.442
96530W        W58061  38.530  34.019  12.831
96531W        W58062  27.505  44.766  10.907
96532W        W58063  42.500  26.605  14.784
96533W        W58064  10.662   1.759   1.735
96534W        W58065   4.733   4.743  12.412
96535W        W58066  42.788  12.159   1.837
96536W        W58067  10.263   3.922  10.959
96537W        W58068  15.185  29.134  14.964
96538W        W58069  20.234  15.804   0.933
96539W        W58070  44.776  44.267   0.959
96540W        W58071  39.514  35.469   0.434
96541W        W58072  44.951  29.990  12.917
96542W        W58073  39.469  12.326   2.742
96543W        W58074   7.379   4.891  10.948
96544W        W58075  26.131  13.108  10.448
96545W        W58076   2.817  10.147   4.767
96546W        W58077  28.958  16.297  11.049
96547W        W58078  41.953   7.837  13.026
96548W        W58079  28.606  14.711   2.849
96549W        W58080  21.204  44.838   2.714
96550W        W58081   4.282   2.446   1.717
96551W        W58082  17.177  25.639  13.439
96552W        W58083  21.710  42.364  14.419
96553W        W58084  19.738   0.437  12.570
96554W        W58085  14.701  14.596   0.416
96555W        W58086  40.455  29.083   1.744
96556W        W58087  10.258   3.303   1.366
96557W        W58088  31.133  25.560  14.889
96558W        W58089   1.894  19.658  11.980
96559W        W58090   5.892  15.280  12.854
96560W        W58091  39.848   4.446  11.886
96561W        W58092  19.086  39.990  14.895
96562W        W58093  29.940  16.193  14.334
96563W        W58094  30.441   0.788  14.894
96564W        W58095   6.186  28.961   0.805
96565W        W58096  37.985  25.483  14.317
96566W        W58097  16.077  37.916  10.971
96567W        W58098  19.047  10.209  11.471
96568W        W58099  40.313  22.208   4.333
96569W        W58100  30.992  18.758   1.804
96570W        W58101  33.967  17.208   4.798
96571W        W58102  26.964  12.302   4.764
96572W        W58103   4.786  29.102   2.862
96573W        W58104  40.041  10.830  13.834
96574W        W58105  21.688   3.813  10.488
96575W        W58106  39.983   0.395   4.756
96576W        W58107  23.070  15.585  13.412
96577W        W58108   4.311  32.060   2.282
96578W        W58109  34.007  40.818  13.802
96579W        W58110  35.945  26.550   1.700
96580W        W58111  10.362  27.155  10.958
96581W        W58112  29.435  15.671  10.407
96582W        W58113  43.989  44.829  13.917
96583W        W58114   6.746   6.333   3.327
96584W        W58115  44.302  32.102  13.982
96585W        W58116  31.464  40.536   4.148
96586W        W58117  16.596  10.139   1.370
96587W        W58118  15.608  14.720  12.358
96588W        W58119  21.205  20.178  10.620
96589W        W58120  16.230  35.543   4.745
96590W        W58121  36.927  11.287   2.865
96591W        W58122  42.914  42.353   0.736
96592W        W58123  32.965  18.255   2.374
96593W        W58124  42.379  16.232  13.369
96594W        W58125  11.654  26.643  11.386
96595W        W58126  43.294   8.790   9.952
96596W        W58127  42.957  34.109  11.609
96597W        W58128  39.938  25.032  11.965
96598W        W58129   9.244  29.533   1.765
96599W        W58130  21.705   4.450  10.522
96600W        W58131   2.830  27.942   0.288
96601W        W58132   6.908  18.159   3.814
96602W        W58133  40.895  42.890  13.854
96603W        W58134  38.827  12.709   4.242
96604W        W58135  35.026  30.113  14.290
96605W        W58136   3.914  43.451  12.357
96606W        W58137  35.583  11.827   2.801
96607W        W58138  38.891  24.533   0.271
96608W        W58139   2.936  36.978   0.265
96609W        W58140  19.624  19.713  13.371
96610W        W58141   1.787  18.585  14.899
96611W        W58142  36.478  19.137   4.196
96612W        W58143   2.357  34.935  11.074
96613W        W58144   7.217  40.930  13.919
96614W        W58145  18.268   3.249  11.113
96615W        W58146  33.423  37.847  12.573
96616W        W58147  18.632   4.256  13.495
96617W        W58148   0.350  26.695  14.919
96618W        W58149   0.384  28.159  10.957
96619W        W58150   4.281  12.158  12.046
96620W        W58151  15.653  30.990   9.642
96621W        W58152  30.039   2.895  12.938
96622W        W58153  28.096  18.578   3.846
96623W        W58154  18.649  32.016  11.969
96624W        W58155  28.077  36.537  11.098
96625W        W58156   8.875   9.828   0.264
96626W        W58157  36.998   3.270   4.311
96627W        W58158  41.450  20.675  14.948
96628W        W58159  42.473  40.491  14.763
96629W        W58160   3.397  28.446  12.063
96630W        W58161   9.285   8.327   0.957
96631W        W58162  20.085   4.891  11.511
96632W        W58163  13.182   6.791  14.333
96633W        W58164  37.929  38.025   3.359
96634W        W58165  39.525  25.561   0.268
96635W        W58166  21.061  34.116  13.371
96636W        W58167   6.237  36.083   0.815
96637W        W58168  29.557  32.548   0.427
96638W        W58169  11.357  28.142  13.401
96639W        W58170   0.321  17.160   3.341
96640W        W58171   6.751  29.554   2.768
96641W        W58172   6.231  25.686   1.383
96642W        W58173  14.826  40.854  13.798
96643W        W58174  11.360   5.908   1.872
96644W        W58175   6.818  37.525  13.950
96645W        W58176  14.121  26.651   3.220
96646W        W58177  25.541  26.585   1.868
96647W        W58178   1.259  18.694   2.360
96648W        W58179  34.547  31.635   4.683
96649W        W58180  11.156   2.311   9.929
96650W        W58181  37.890  28.512   4.818
96651W        W58182  28.559   4.778  11.864
96652W        W58183  31.550  13.351  14.978
96653W        W58184  23.492  16.803  13.543
96654W        W58185  35.398  40.416  11.877
96655W        W58186  18.184  33.024  12.825
96656W        W58187  44.362  29.018  11.935
96657W        W58188  33.091  34.915  13.437
96658W        W58189  35.433  39.549  12.340
96659W        W58190  38.377  36.363   2.296
96660W        W58191  39.812   1.967  13.533
96661W        W58192   8.880  10.862   2.303
96662W        W58193  44.987  13.776  13.800
96663W        W58194  28.493  37.872   1.408
96664W        W58195  34.470  18.231   1.356
96665W        W58196   2.455   1.903  11.519
96666W        W58197  14.102  37.952   4.116
96667W        W58198  14.797  30.483  12.529
96668W        W58199   0.458   0.259  13.541
96669W        W58200   6.213  34.015   0.827
96670W        W58201  40.968  37.569   0.755
96671W        W58202   6.778   0.750  10.069
96672W        W58203   8.769  38.376  13.352
96673W        W58204   8.829  32.125   3.344
96674W        W58205  39.994  13.654   3.715
96675W        W58206  22.227  39.537   0.849
96676W        W58207  43.292   3.386   4.662
96677W        W58208  30.999  39.345   2.674
96678W        W58209  35.560   5.750  12.536
96679W        W58210   0.878  30.543  11.424
96680W        W58211  33.041  44.933  12.861
96681W        W58212  16.231  30.079   4.348
96682W        W58213  24.478  31.010  12.096
96683W        W58214  41.413  13.624  13.976
96684W        W58215  26.010  31.418   5.292
96685W        W58216  31.598  36.088   4.339
96686W        W58217  34.543   5.793   2.703
96687W        W58218   3.313  27.621  10.465
96688W        W58219   6.722  37.366   3.829
96689W        W58220  15.811  36.982   4.214
96690W        W58221  42.933   8.364   0.348
96691W        W58222   4.278  25.535  13.462
96692W        W58223  14.139  44.864   4.821
96693W        W58224  13.163   3.796   0.825
96694W        W58225   7.791  14.780   2.676
96695W        W58226  13.807  28.015  13.410
96696W        W58227  26.093  44.903   3.268
96697W        W58228  43.333  26.066  14.813
96698W        W58229   5.744  32.076  11.603
96699W        W58230  44.321  24.107  10.888
96700W        W58231  25.117  39.369  14.782
96701W        W58232  17.158   9.680  11.608
96702W        W58233   7.815  16.298  12.375
96703W        W58234  21.546  29.572   2.703
96704W        W58235  37.450  38.901  10.116
96705W        W58236   9.311  16.258  10.587
96706W        W58237   8.792  31.111   3.732
96707W        W58238  18.155   0.977   3.697
96708W        W58239   1.259  44.803  13.813
96709W        W58240  37.036  42.423  12.027
96710W        W58241  20.618  24.159  10.131
96711W        W58242  40.326  12.266  13.517
96712W        W58243  40.309  41.956  11.039
96713W        W58244  25.161   4.789  12.825
96714W        W58245  36.449  20.590   0.952
96715W        W58246  34.052   4.409   1.406
96716W        W58247  31.483  18.580  11.876
96717W        W58248  19.680  43.009  11.107
96718W        W58249  37.366   2.967  13.007
96719W        W58250  37.409  13.173   4.284
96720W        W58251  40.549  39.951  13.862
96721W        W58252  39.868  26.491   0.325
96722W        W58253  38.048  26.081   4.253
96723W        W58254  10.668  12.722   1.266
96724W        W58255   3.435  35.901  10.942
96725W        W58256  12.209  24.225   3.292
96726W        W58257  26.994  37.342   1.699
96727W        W58258  23.199  14.791  10.928
96728W        W58259  44.390  15.657   0.915
96729W        W58260  10.223  18.711  12.402
96730W        W58261   1.297  23.068  12.041
96731W        W58262   8.401  33.878   1.237
96732W        W58263  14.720   5.206  11.931
96733W        W58264  37.973  34.947  14.409
96734W        W58265  41.959  25.688  13.521
96735W        W58266  34.113  21.523   4.238
96736W        W58267  23.554  24.676   2.827
96737W        W58268  28.589  24.991   1.304
96738W        W58269   7.355  36.989   4.342
96739W        W58270  39.411  38.354  14.782
96740W        W58271  17.624  26.189  12.899
96741W        W58272   0.817  24.646   0.872
96742W        W58273  23.522  32.925  12.947
96743W        W58274  37.881  15.654  12.065
96744W        W58275  17.801   9.211   0.820
96745W        W58276  11.692  17.142  12.948
96746W        W58277  11.309   2.354  11.429
96747W        W58278  21.538  37.533   0.422
96748W        W58279  10.350  14.295  14.348
96749W        W58280  37.087  17.695  10.991
96750W        W58281  29.058  20.745  13.394
96751W        W58282  39.832   3.231  11.084
96752W        W58283  16.629   0.818  13.808
96753W        W58284  28.996   1.965  14.418
96754W        W58285  18.624  13.668  12.939
96755W        W58286  30.450  23.203  11.468
96756W        W58287  44.999  14.645   0.820
96757W        W58288  14.831   0.361   3.195
96758W        W58289  19.079   2.943   4.127
96759W        W58290  17.662  41.461  10.458
96760W        W58291  12.817  21.203  13.505
96761W        W58292   8.820  42.861   2.306
96762W        W58293  33.052  37.532  12.846
96763W        W58294  26.980   7.265  11.423
96764W        W58295  12.189  42.838  10.458
96765W        W58296  34.014  30.968   0.779
96766W        W58297  27.114  37.879   1.826
96767W        W58298  18.684  13.757   1.738
96768W        W58299  31.624  39.033  10.982
96769W        W58300  17.206   5.854  11.027
96770W        W58301  21.603  42.920  14.395
96771W        W58302  38.913  36.457   0.458
96772W        W58303  13.276  24.144   2.269
96773W        W58304  33.554  12.122  14.380
96774W        W58305   7.706  12.624  10.062
96775W        W58306  21.116   3.296  14.476
96776W        W58307   0.284  18.075  11.945
96777W        W58308   1.289   9.650   3.818
96778W        W58309   8.890   1.969   0.909
96779W        W58310   1.899  32.911   2.853
96780W        W58311  24.701  31.460   4.829
96781W        W58312  24.688  17.696  10.422
96782W        W58313   9.311  11.181  12.567
96783W        W58314   9.671  18.604  12.473
96784W        W58315   6.352   8.860   4.264
96785W        W58316  30.495  16.629   5.146
96786W        W58317  21.560  41.325  11.931
96787W        W58318  22.128  11.651   1.234
96788W        W58319   8.822   2.237   3.784
96789W        W58320  26.014  28.068   3.711
96790W        W58321  26.192  43.416  13.799
96791W        W58322  41.865  19.578   4.284
96792W        W58323  25.086  12.717   4.221
96793W        W58324  31.514  18.703  13.870
96794W        W58325  12.690  11.768   0.259
96795W        W58326  44.895  39.521   4.807
96796W        W58327  17.104  20.125  14.934
96797W        W58328   9.335  25.172   4.664
96798W        W58329  18.287   3.848  10.939
96799W        W58330  15.105  40.865   3.828
96800W        W58331  39.558   0.875   0.920
96801W        W58332  29.454  26.552   2.399
96802W        W58333  10.334  36.372  12.578
96803W        W58334  31.908   4.340   3.367
96804W        W58335   2.833  44.968  10.544
96805W        W58336  30.117  22.147  14.300
96806W        W58337  24.483  39.424  12.886
96807W        W58338  27.055  38.491   0.798
96808W        W58339   8.701  27.520   1.218
96809W        W58340  20.534  44.386  13.441
96810W        W58341  25.546   1.388  13.851
96811W        W58342  39.873   5.304   4.788
96812W        W58343  29.451  34.483   2.290
96813W        W58344  31.015  11.654  14.938
96814W        W58345  30.143   2.327  13.808
96815W        W58346  23.500  18.240   0.859
96816W        W58347  28.531  33.074  10.995
96817W        W58348  10.308  29.511  10.531
96818W        W58349  10.733  31.979   3.320
96819W        W58350  20.583  15.282   0.771
96820W        W58351   5.332  29.564  12.893
96821W        W58352   0.945  36.858   0.314
96822W        W58353   1.250   3.266   3.696
96823W        W58354   7.330   7.226   2.889
96824W        W58355  10.310   6.249  11.433
96825W        W58356  34.608  11.359  12.008
96826W        W58357  10.733  37.520   2.303
96827W        W58358   3.772  37.945  13.369
96828W        W58359  14.183  27.508   1.436
96829W        W58360  11.685  10.806  11.927
96830W        W58361  32.466  42.777   2.244
96831W        W58362  31.440  23.986   1.236
96832W        W58363   1.749  20.586  10.539
96833W        W58364  43.880  17.237  10.611
96834W        W58365  41.367   6.696   1.300
96835W        W58366  10.341   2.746  13.383
96836W        W58367  15.735  10.840  11.116
96837W        W58368  18.743  19.633   0.857
96838W        W58369  24.514  18.237  13.367
96839W        W58370   9.706  35.558  10.891
96840W        W58371  28.637  26.606  13.462
96841W        W58372   7.700  30.067  10.478
96842W        W58373  22.075  30.095   2.227
96843W        W58374   3.330  35.078  11.063
96844W        W58375  21.252  24.479  13.818
96845W        W58376   1.366  27.610   5.177
96846W        W58377  34.522  15.285   3.782
96847W        W58378  37.471  16.204  11.428
96848W        W58379  22.507  27.552  14.451
96849W        W58380  18.223  21.685   4.263
96850W        W58381  17.247   4.824  12.524
96851W        W58382  19.602   2.338   3.300
96852W        W58383  42.860  26.051   3.728
96853W        W58384  19.076  33.032  13.900
96854W        W58385  35.570  44.778  12.951
96855W        W58386  43.463  36.539  10.522
96856W        W58387  10.186  29.139  13.042
96857W        W58388  29.013  14.700  13.464
96858W        W58389  34.429   2.439  13.001
96859W        W58390  32.457  31.598  14.007
96860W        W58391   5.232  11.195   4.667
96861W        W58392  17.154  21.617   0.405
96862W        W58393  36.499  15.164   0.272
96863W        W58394   6.194  39.884   2.788
96864W        W58395   7.317  42.317  12.089
96865W        W58396  15.708   7.770   1.823
96866W        W58397  21.559  35.487  11.999
96867W        W58398   8.343   3.374   1.752
96868W        W58399  25.551  37.452  10.102
96869W        W58400  16.297   6.277  12.906
96870W        W58401  39.457  39.959   1.427
96871W        W58402   5.905  22.082   1.771
96872W        W58403   4.333  28.938   4.814
96873W        W58404  38.005  44.954  14.814
96874W        W58405  20.083   3.426   3.835
96875W        W58406  17.658   4.208  11.925
96876W        W58407  37.535  19.171  14.485
96877W        W58408  19.580  14.338  11.872
96878W        W58409  12.293  34.404   0.909
96879W        W58410   6.315  16.233   4.267
96880W        W58411  26.569  38.366   1.218
96881W        W58412  26.023  43.339   1.719
96882W        W58413   3.865  39.876   5.096
96883W        W58414   2.238  16.193  11.082
96884W        W58415  39.448  39.033   2.355
96885W        W58416  43.963  36.993  11.548
96886W        W58417  11.780  19.633   5.262
96887W        W58418  20.761  24.716   3.297
96888W        W58419   8.663  36.855   4.827
96889W        W58420   8.793  19.693   3.252
96890W        W58421   7.711  31.012   1.292
96891W        W58422  21.565   6.185  11.024
96892W        W58423  41.433  43.922   1.741
96893W        W58424  36.465  38.983   1.901
96894W        W58425  30.128  38.508  13.490
96895W        W58426  44.485  38.061  14.314
96896W        W58427  18.548  10.327  13.977
96897W        W58428  35.376  34.420   0.417
96898W        W58429  36.513  10.226  14.027
96899W        W58430  25.202   0.485  12.999
96900W        W58431   7.876   5.378   4.749
96901W        W58432  14.619   1.333  10.953
96902W        W58433  43.400  23.660  12.045
96903W        W58434  39.848  30.042   4.173
96904W        W58435   3.366  12.801  14.977
96905W        W58436  11.211  10.228  14.291
96906W        W58437   5.345  18.123  13.382
96907W        W58438   1.736  30.115  13.919
96908W        W58439  19.244  21.064   0.251
96909W        W58440   7.219  25.071  13.504
96910W        W58441  39.819  15.248  11.088
96911W        W58442  18.155  23.659  12.339
96912W        W58443  12.822  33.456  13.973
96913W        W58444  44.865  40.420   1.212
96914W        W58445  22.660  13.217  10.616
96915W        W58446  24.151  24.170  13.880
96916W        W58447  29.019  29.149   1.741
96917W        W58448   5.319  39.969  13.395
96918W        W58449   9.203   1.965   3.302
96919W        W58450  10.831  35.426  12.506
96920W        W58451  24.107  17.573  11.483
96921W        W58452  22.234  32.583   3.318
96922W        W58453   0.793   4.704  14.974
96923W        W58454  32.565  28.632   2.730
96924W        W58455   3.230  40.830   0.846
96925W        W58456   4.383  40.385  11.580
96926W        W58457  28.514   8.276   1.226
96927W        W58458  39.547   8.257   1.739
96928W        W58459  14.281  13.335   1.404
96929W        W58460  44.364   1.438   1.897
96930W        W58461  10.147  36.463  14.835
96931W        W58462  37.865   1.935  10.407
96932W        W58463  42.313  30.414   4.667
96933W        W58464  40.999  44.001  12.979
96934W        W58465  26.187  17.189   4.620
96935W        W58466  24.513  31.484   3.789
96936W        W58467  13.245  12.281  14.869
96937W        W58468  13.788  41.339   4.270
96938W        W58469  43.003  43.516   4.273
96939W        W58470   3.375  31.947   4.759
96940W        W58471  29.158   8.850  12.557
96941W        W58472  32.585  32.039   9.992
96942W        W58473   7.667  13.604  13.027
96943W        W58474  31.502  20.763  14.353
96944W        W58475  20.148   3.303   5.100
96945W        W58476  20.196  36.482   4.632
96946W        W58477  32.401  42.425   1.906
96947W        W58478  30.560  20.750  11.122
96948W        W58479  29.918  33.592   4.315
96949W        W58480  25.158  41.496   2.759
96950W        W58481  23.030  35.429  11.980
96951W        W58482  39.883   8.782  14.357
96952W        W58483  16.292  43.503  12.436
96953W        W58484  25.054  24.486   4.328
96954W        W58485  44.401  14.758   3.299
96955W        W58486  18.731  30.605   1.802
96956W        W58487   2.754  18.546   4.279
96957W        W58488  34.915  42.937  10.404
96958W        W58489   4.314  43.353  10.494
96959W        W58490   9.161  28.614   1.218
96960W        W58491  16.639  20.032  10.457
96961W        W58492  29.930  25.065  12.957
96962W        W58493   8.186   9.349  13.449
96963W        W58494   8.196  25.575   1.845
96964W        W58495  10.702  23.200  12.006
96965W        W58496  44.475   0.803  11.055
96966W        W58497   7.820  42.977   4.736
96967W        W58498  25.132   7.195  11.451
96968W        W58499  32.894  24.662  14.929
96969W        W58500   6.275  22.089   2.795
96970W        W58501   5.382  16.188   4.166
96971W        W58502  21.233  32.113  13.402
96972W        W58503   3.436   3.840  12.532
96973W        W58504   2.353   8.721  12.007
96974W        W58505  18.623   8.690  13.413
96975W        W58506  20.616  24.222   2.275
96976W        W58507  38.028  23.674  14.277
96977W        W58508  39.870  44.444  14.794
96978W        W58509  38.056  24.993   4.779
96979W        W58510  36.367  43.955  14.368
96980W        W58511  24.127  24.984   1.772
96981W        W58512   4.808  12.819   1.302
96982W        W58513  29.106  40.403   0.332
96983W        W58514  30.431  36.493   4.187
96984W        W58515  33.978  33.400   1.339
96985W        W58516  21.739   8.693   2.842
96986W        W58517  39.468  38.467  14.008
96987W        W58518  43.452  40.856   0.315
96988W        W58519  30.112  13.299   2.723
96989W        W58520  38.460   8.822  10.086
96990W        W58521  34.908  18.715  10.502
96991W        W58522  36.991  12.653  13.345
96992W        W58523  37.360  22.079  10.474
96993W        W58524   9.691  22.205  13.823
96994W        W58525   1.307  40.998   4.692
96995W        W58526  14.679   9.299   2.367
96996W        W58527  29.027  37.864   1.775
96997W        W58528  17.206   1.420   0.930
96998W        W58529  26.020   4.828   3.319
96999W        W58530  19.740  39.995   3.828
97000W        W58531  15.644   3.237  12.935
97001W        W58532  24.707   9.844  13.856
97002W        W58533  13.333  24.187   5.278
97003W        W58534  13.810   9.167  14.853
97004W        W58535  27.675  29.571  14.856
97005W        W58536  40.325  40.881   0.754
97006W        W58537  29.640   6.274  12.406
97007W        W58538   8.818  26.630  11.886
97008W        W58539  20.042  23.596   1.713
97009W        W58540   1.836  28.040  14.769
97010W        W58541  37.450   0.393  14.345
97011W        W58542  24.230  14.125  13.876
97012W        W58543  28.640  22.511  11.030
97013W        W58544   6.390  41.870  11.904
97014W        W58545  26.084  38.465   3.842
97015W        W58546  26.564  43.328   4.749
97016W        W58547  35.591   0.945  10.971
97017W        W58548  26.550  39.934  10.585
97018W        W58549  21.558  39.927   0.353
97019W        W58550  25.622  23.565  12.440
97020W        W58551  21.124   5.834   0.863
97021W        W58552  34.512  39.474  11.922
97022W        W58553  43.272  27.606  13.907
97023W        W58554   2.899   1.311  14.367
97024W        W58555  33.501  14.141   5.216
97025W        W58556   4.818  41.925   4.752
97026W        W58557  23.168  23.187   1.311
97027W        W58558  30.113   5.222  13.043
97028W        W58559  22.720  13.237  14.512
97029W        W58560   5.699  38.995  12.533
97030W        W58561  44.347   7.884  10.471
97031W        W58562  21.644   3.316   1.908
97032W        W58563  42.286  39.859   3.242
97033W        W58564  20.739   5.371   1.449
97034W        W58565  12.319  35.087  12.407
97035W        W58566  30.642   5.224  11.525
97036W        W58567   3.267  17.782   3.835
97037W        W58568   0.366  25.070   1.314
97038W        W58569  21.127  14.230   4.657
97039W        W58570  13.248  31.437   0.322
97040W        W58571   6.737  18.083   0.364
97041W        W58572  44.829  12.642  12.848
97042W        W58573  35.976   9.720  13.803
97043W        W58574  18.272  26.962  13.002
97044W        W58575  38.902  23.205  10.985
97045W        W58576  30.575  35.577   2.778
97046W        W58577  43.512  44.787  13.468
97047W        W58578  38.890   2.867  11.566
97048W        W58579   9.179   7.733  10.598
97049W        W58580  38.064   8.762  11.003
97050W        W58581  27.067  41.405   2.892
97051W        W58582   4.436  42.417   3.751
97052W        W58583  42.854  27.456  14.998
97053W        W58584  35.994   4.881  13.877
97054W        W58585  41.951  25.176  13.003
97055W        W58586  16.683  34.109   1.248
97056W        W58587  24.673  41.951  14.437
97057W        W58588  19.136   6.849  11.098
97058W        W58589  37.579   0.482  11.106
97059W        W58590  17.650  33.595   3.644
97060W        W58591  13.634  10.839   3.259
97061W        W58592  28.584  26.479  10.102
97062W        W58593   1.779  23.226  14.887
97063W        W58594  23.664  13.201  13.315
97064W        W58595  33.113  13.188   2.750
97065W        W58596   8.842  38.511   2.715
97066W        W58597   5.829   1.431  11.915
97067W        W58598  28.055  28.462   4.294
97068W        W58599  31.638  41.449  10.898
97069W        W58600  18.073  27.188   2.343
97070W        W58601   8.899  39.902  11.588
97071W        W58602  38.561  23.987  12.478
97072W        W58603  32.580  21.717  10.613
97073W        W58604  43.300  44.826   0.774
97074W        W58605  44.390  16.260   3.818
97075W        W58606  13.322  10.863   3.237
97076W        W58607  44.957  15.613   3.244
97077W        W58608  12.796  10.298  10.156
97078W        W58609  39.836  23.145  12.563
97079W        W58610  32.501  30.119  14.893
97080W        W58611  11.240  26.075  11.953
97081W        W58612  25.578   0.395   3.774
97082W        W58613  42.315  18.652  13.852
97083W        W58614  23.615  26.107  12.432
97084W        W58615  19.641   2.928  11.392
97085W        W58616  27.643   3.822  13.393
97086W        W58617  27.018   3.300  13.970
97087W        W58618  13.703   5.920   2.300
97088W        W58619  22.714  37.369   0.376
97089W        W58620  37.920  38.355   2.840
97090W        W58621   8.356   3.229   4.161
97091W        W58622  36.073  15.735  12.891
97092W        W58623  10.722  17.771  14.988
97093W        W58624   4.402  37.995  12.506
97094W        W58625  23.539  32.022   2.663
97095W        W58626  28.113  26.473   4.767
97096W        W58627   8.291  32.010   2.680
97097W        W58628  37.481  30.098   4.330
97098W        W58629  19.574  36.051  11.611
97099W        W58630  15.283  21.727  10.500
97100W        W58631  16.596  19.670   3.375
97101W        W58632  42.446  28.530   1.695
97102W        W58633  18.630  43.316   1.737
97103W        W58634  38.330  16.642   2.732
97104W        W58635  27.473  43.881  11.860
97105W        W58636   3.453  37.340   0.445
97106W        W58637  30.107  14.248  13.847
97107W        W58638  24.069  32.983  11.031
97108W        W58639  15.252  30.527   3.154
97109W        W58640  23.993  19.542   4.340
97110W        W58641  21.230  41.447  12.841
97111W        W58642  21.668   2.877   1.882
97112W        W58643  11.168  34.609  10.555
97113W        W58644   6.880  40.392   2.773
97114W        W58645  24.973  19.570  12.959
97115W        W58646   8.890  17.784  13.866
97116W        W58647  31.454  27.011   3.282
97117W        W58648  23.553  18.672   4.280
97118W        W58649  37.436  36.960   0.390
97119W        W58650  26.047  23.706   0.951
97120W        W58651   3.888  33.536   0.864
97121W        W58652  31.011  31.962  10.098
97122W        W58653  35.948  38.391   1.830
97123W        W58654  23.712  31.981   3.868
97124W        W58655  42.376  42.362  14.971
97125W        W58656  27.160  27.982  11.952
97126W        W58657  33.068  25.074  12.493
97127W        W58658  21.555  14.591  11.536
97128W        W58659  33.508   2.859  14.333
97129W        W58660  41.421   7.860   0.833
97130W        W58661  36.898  21.636   1.725
97131W        W58662  31.574  44.967   3.631
97132W        W58663  33.032  22.579  14.888
97133W        W58664   2.233  11.836  13.360
97134W        W58665  38.876  37.862  11.123
97135W        W58666  10.845  41.806  14.344
97136W        W58667  31.605  34.954   1.861
97137W        W58668  20.741  29.041  12.018
97138W        W58669   6.747  11.774   4.341
97139W        W58670   2.779  23.672  10.098
97140W        W58671  29.104   2.931   3.170
97141W        W58672  25.582  13.121  12.900
97142W        W58673  41.368  14.834   3.745
97143W        W58674  26.650  24.697  10.559
97144W        W58675   8.262  17.162  13.420
97145W        W58676  33.455  10.769   2.270
97146W        W58677  35.974  23.015   1.426
97147W        W58678  22.536  30.517   3.698
97148W        W58679  14.789  11.659  14.327
97149W        W58680   8.887   6.276   2.882
97150W        W58681  20.642  23.097   0.381
97151W        W58682  29.155  41.807   3.176
97152W        W58683  42.977  16.191  12.370
97153W        W58684   8.195  24.637   1.820
97154W        W58685  24.663   5.311   1.728
97155W        W58686   5.298  40.455  12.924
97156W        W58687  41.018   5.267  14.387
97157W        W58688  38.953   0.947  13.329
97158W        W58689  21.566   8.168   3.864
97159W        W58690  39.396  42.289  13.509
97160W        W58691  39.315  23.612   2.687
97161W        W58692  26.560  37.402  14.836
97162W        W58693   9.723  10.762   2.419
97163W        W58694  12.728  22.195   4.651
97164W        W58695  28.503  36.870  14.303
97165W        W58696  24.564  27.598   5.201
97166W        W58697   6.222   6.404  13.017
97167W        W58698  15.593  35.598   2.404
97168W        W58699  26.999  26.575   1.711
97169W        W58700  42.004  22.148   3.168
97170W        W58701  39.819  14.741   4.181
97171W        W58702  36.080  41.376  13.027
97172W        W58703   6.190   6.711   4.769
97173W        W58704  33.096   4.813  13.328
97174W        W58705  33.956  19.690  14.991
97175W        W58706   1.238  26.639   0.846
97176W        W58707  22.236  13.142  13.815
97177W        W58708  23.157  19.747  14.864
97178W        W58709  38.868  25.666   0.738
97179W        W58710   7.693  35.084  12.077
97180W        W58711   0.801  18.273  12.914
97181W        W58712  10.318   7.288  12.824
97182W        W58713  23.042  35.105   0.476
97183W        W58714  20.532  10.862   1.718
97184W        W58715   7.346  34.008   0.806
97185W        W58716   1.768  42.480   2.785
97186W        W58717  28.613   2.787   0.403
97187W        W58718  36.878  21.076   2.892
97188W        W58719   0.847  36.952  13.040
97189W        W58720   3.781  35.922  10.632
97190W        W58721  35.527  40.477   1.699
97191W        W58722  39.013   5.730  12.050
97192W        W58723   9.839  20.710   4.265
97193W        W58724  37.391  21.043   5.302
97194W        W58725  11.751  17.678  11.494
97195W        W58726  12.665  27.180   3.244
97196W        W58727   0.262  34.552  11.950
97197W        W58728  28.080  36.378  13.311
97198W        W58729   1.375  37.875  10.914
97199W        W58730  26.478  15.203   2.866
97200W        W58731   0.326   8.839  13.900
97201W        W58732  42.925   6.817   0.482
97202W        W58733   9.697  17.073   1.304
97203W        W58734  22.025  25.199  14.429
97204W        W58735  31.924   7.667   0.874
97205W        W58736  17.695   0.967  10.570
97206W        W58737   5.319  21.719  14.407
97207W        W58738  35.368  14.707   4.665
97208W        W58739  11.149  38.444  12.973
97209W        W58740  38.931  37.954  12.063
97210W        W58741  30.998  24.005   3.290
97211W        W58742  44.477  17.627  13.951
97212W        W58743  29.969  41.458  14.982
97213W        W58744  23.139   0.307  11.491
97214W        W58745  43.429  42.953   4.255
97215W        W58746  15.716  19.122   2.744
97216W        W58747   8.737  40.480   1.359
97217W        W58748  15.709  29.097  13.929
97218W        W58749   6.776   0.963   2.675
97219W        W58750  19.728   8.815   2.193
97220W        W58751  19.684  16.776   3.270
97221W        W58752   7.322  17.261   4.253
97222W        W58753   8.325   8.390   4.676
97223W        W58754  38.389   7.738  13.431
97224W        W58755  15.129  10.295   4.645
97225W        W58756   3.759  15.165  11.121
97226W        W58757  34.061   5.860   3.840
97227W        W58758  13.267  42.297  12.981
97228W        W58759   9.254   4.407   1.235
97229W        W58760   3.716   5.691   3.220
97230W        W58761  39.338  26.561   2.737
97231W        W58762  35.098   3.249   1.286
97232W        W58763   8.822   5.265  10.428
97233W        W58764  14.115  26.467  14.023
97234W        W58765   4.232  28.943   3.146
97235W        W58766   7.677   8.320  12.346
97236W        W58767   1.828  42.821  14.981
97237W        W58768  16.084  39.036   1.713
97238W        W58769  19.145  16.602   4.200
97239W        W58770  23.224  27.591   0.483
97240W        W58771   2.326  14.719  14.996
97241W        W58772  38.477  43.970  12.393
97242W        W58773  12.221  24.120  13.530
97243W        W58774  28.450  27.010   0.749
97244W        W58775  36.524  16.101  14.370
97245W        W58776  24.586  35.442   4.710
97246W        W58777  19.070   3.762  12.955
97247W        W58778  15.314  18.710   1.418
97248W        W58779  35.948  42.469  13.438
97249W        W58780   8.815   3.389   3.675
97250W        W58781  37.913   6.822   1.897
97251W        W58782   8.882   9.280  10.527
97252W        W58783  16.177   5.320  12.397
97253W        W58784  24.694  26.199  10.566
97254W        W58785  32.966  41.028   0.733
97255W        W58786  38.977  42.860   1.381
97256W        W58787  34.011  39.993   0.760
97257W        W58788  28.541  26.495  14.392
97258W        W58789   0.459   3.275  12.475
97259W        W58790  37.918  31.569  12.012
97260W        W58791  10.240  30.612  13.031
97261W        W58792  32.945  41.528  10.904
97262W        W58793  36.367  36.386   1.721
97263W        W58794  32.140  32.497  11.422
97264W        W58795  22.553  39.954  13.343
97265W        W58796  18.075   0.908  11.941
97266W        W58797  32.083  37.976   9.553
97267W        W58798  18.729  27.995   1.720
97268W        W58799  37.371  32.461  11.034
97269W        W58800  38.559  43.399  14.855
97270W        W58801  33.393  37.388  13.307
97271W        W58802  41.515  21.077   0.404
97272W        W58803  42.471  28.140   3.173
97273W        W58804  37.571  19.195   0.418
97274W        W58805  22.119   0.390  11.388
97275W        W58806   6.383   4.252  11.940
97276W        W58807  21.591  36.577   1.310
97277W        W58808  21.102  31.607   1.914
97278W        W58809  10.866  40.022   4.314
97279W        W58810  36.485  36.419  10.637
97280W        W58811  11.312  41.961   0.892
97281W        W58812  36.567  26.527   1.247
97282W        W58813   4.895  24.096  11.927
97283W        W58814  41.449   7.681  12.021
97284W        W58815  37.564   8.870   4.269
97285W        W58816  12.275  30.043  12.832
97286W        W58817   6.206  41.460  14.327
97287W        W58818   8.665   9.364  12.548
97288W        W58819  19.750  42.480   2.267
97289W        W58820  44.899  31.005   1.414
97290W        W58821   1.760  12.309  13.014
97291W        W58822  34.002  17.221  12.862
97292W        W58823   8.896  25.493  14.908
97293W        W58824  20.728  12.356  10.599
97294W        W58825  26.030  32.000   1.819
97295W        W58826   7.695  25.008   3.280
97296W        W58827  43.837  10.233  14.921
97297W        W58828  10.186   9.272   4.206
97298W        W58829  39.331   6.832   0.892
97299W        W58830  29.442  24.486   1.267
97300W        W58831  23.518  43.979  13.509
97301W        W58832   7.217   0.470   1.228
97302W        W58833   9.662   9.184  11.064
97303W        W58834  38.067  17.774   3.296
97304W        W58835  24.171  36.850  13.338
97305W        W58836  24.718  44.961   4.729
97306W        W58837  15.205  25.613   0.409
97307W        W58838  36.368  44.293   1.918
97308W        W58839   4.216  26.489  11.967
97309W        W58840   0.306  37.464  12.027
97310W        W58841  36.903  23.112   2.333
97311W        W58842  25.623   8.178   0.387
97312W        W58843  15.108  35.950  12.471
97313W        W58844   8.281  20.229  13.929
97314W        W58845  19.154   8.661  11.901
97315W        W58846  34.420  13.112  11.972
97316W        W58847  24.514  15.767   1.430
97317W        W58848  36.873  22.643   1.448
97318W        W58849  10.733  31.014   0.437
97319W        W58850  38.458  35.543   3.194
97320W        W58851   9.744  24.221   3.215
97321W        W58852  15.811  42.503  13.488
97322W        W58853  11.629   9.353  13.434
97323W        W58854   0.489  12.350   4.825
97324W        W58855   5.893  23.696   0.397
97325W        W58856  44.796   1.481   1.921
97326W        W58857  28.484  15.234   2.902
97327W        W58858  40.434  31.031   0.850
97328W        W58859  44.333  21.066   4.134
97329W        W58860   0.337   1.350  14.769
97330W        W58861  36.580  29.143  12.496
97331W        W58862  39.894  31.111  14.316
97332W        W58863  25.656  20.621   1.719
97333W        W58864  17.293   1.791   1.827
97334W        W58865   2.899  36.584   2.798
97335W        W58866  28.970  34.391   3.703
97336W        W58867   6.916  23.704  11.003
97337W        W58868  12.739  35.444   1.834
97338W        W58869  25.078   3.723  13.861
97339W        W58870  16.732  21.524  14.428
97340W        W58871  15.291  36.068  10.525
97341W        W58872  16.736  11.217   3.817
97342W        W58873  21.048  39.414   1.436
97343W        W58874  13.757  30.113   5.240
97344W        W58875  38.340  32.995  13.033
97345W        W58876  43.414   7.826  10.460
97346W        W58877  19.536  35.934  13.960
97347W        W58878  21.164  11.192  11.907
97348W        W58879  32.903  43.377  11.372
97349W        W58880   9.713  25.707   3.296
97350W        W58881   2.801  36.856  11.901
97351W        W58882   2.922  22.108   2.741
97352W        W58883  27.505  14.795   0.432
97353W        W58884   3.928  33.023  12.979
97354W        W58885   1.836  13.134  11.907
97355W        W58886   6.898  18.589  11.394
97356W        W58887  20.116   1.375  10.962
97357W        W58888  20.115  17.163  12.027
97358W        W58889  27.622  12.823   1.282
97359W        W58890  21.596  34.023  11.882
97360W        W58891  32.043   4.716  10.980
97361W        W58892  13.224  11.180   0.808
97362W        W58893  41.339  39.485   0.389
97363W        W58894  32.931   5.892   0.479
97364W        W58895  33.582   8.752  10.421
97365W        W58896  39.329  30.115  12.425
97366W        W58897  36.476  25.202   9.966
97367W        W58898   1.443  39.374   0.251
97368W        W58899  34.409  18.710  14.297
97369W        W58900  19.273   7.178   0.277
97370W        W58901   4.258  15.674  13.403
97371W        W58902  28.441  21.619  11.402
97372W        W58903  19.092  32.449  12.834
97373W        W58904  38.966  44.471   3.237
97374W        W58905   0.294   6.876   2.307
97375W        W58906   6.809  13.224   0.846
97376W        W58907  23.175  43.810  13.930
97377W        W58908  22.655  34.028  14.318
97378W        W58909  13.184  24.226   0.310
97379W        W58910  27.497  16.742  12.882
97380W        W58911  29.643  36.426   1.776
97381W        W58912   0.407  15.130  10.417
97382W        W58913  39.483   3.439   2.261
97383W        W58914  37.005  43.456  11.524
97384W        W58915  21.064  11.163   2.218
97385W        W58916  17.151   0.455   1.395
97386W        W58917  24.150  22.173  11.574
97387W        W58918   9.756  44.796  12.440
97388W        W58919  25.524  10.277   0.744
97389W        W58920   8.393   1.260  11.038
97390W        W58921  11.747  34.472   0.735
97391W        W58922  36.947  12.154  13.325
97392W        W58923  35.424  14.703   1.830
97393W        W58924  40.528  44.960  14.863
97394W        W58925   0.844  13.610  11.512
97395W        W58926   3.918  18.147   3.787
97396W        W58927  41.847  22.192   1.271
97397W        W58928  15.230  34.925   1.248
97398W        W58929  14.139  32.967   0.349
97399W        W58930   9.239   0.464   4.208
97400W        W58931   5.219  16.089  13.006
97401W        W58932   8.272  16.270   0.836
97402W        W58933  32.443  16.233   0.268
97403W        W58934  25.496  12.826  11.385
97404W        W58935  29.022   6.721  11.446
97405W        W58936  19.587  43.850  11.515
97406W        W58937  34.051  19.042  13.415
97407W        W58938  38.476  40.489  14.011
97408W        W58939  19.712  16.619  11.885
97409W        W58940  42.971   5.703   3.234
97410W        W58941  14.297  22.541  12.023
97411W        W58942   7.775  24.521  14.804
97412W        W58943  23.595  27.990   0.917
97413W        W58944   5.314  25.165   5.258
97414W        W58945  16.126  37.534  10.434
97415W        W58946  22.544  18.567   3.692
97416W        W58947  36.044  34.613  13.839
97417W        W58948  19.128  28.516   4.323
97418W        W58949  31.628  26.175   1.929
97419W        W58950   9.151  11.130  10.616
97420W        W58951   5.900   1.290   3.806
97421W        W58952  27.994  37.959  13.962
97422W        W58953  11.859  20.701  12.851
97423W        W58954  28.019  32.128  11.904
97424W        W58955  37.560  41.912   1.743
97425W        W58956  26.610  11.355  14.300
97426W        W58957   7.876  26.648   1.792
97427W        W58958  32.971  32.483   0.958
97428W        W58959  37.054  26.667  11.043
97429W        W58960  36.027  41.378   2.669
97430W        W58961  21.076   3.924  12.357
97431W        W58962  22.071  18.683  13.889
97432W        W58963  30.128   3.796  14.316
97433W        W58964   5.705  13.231   0.268
97434W        W58965  42.299  27.454  12.473
97435W        W58966   3.734  40.488   1.733
97436W        W58967   0.408   7.739  14.448
97437W        W58968  44.283  43.991   2.365
97438W        W58969  44.832   3.242  11.484
97439W        W58970   5.255  12.126  14.392
97440W        W58971   4.724  16.095   1.392
97441W        W58972   4.774  42.381   4.324
97442W        W58973  31.146  18.606   0.900
97443W        W58974  26.561  43.766  11.486
97444W        W58975  31.548  14.104   3.385
97445W        W58976  27.080  10.754  12.033
97446W        W58977   5.332   9.151   2.754
97447W        W58978  36.045   8.861   3.664
97448W        W58979  29.632   3.286   3.275
97449W        W58980   6.336  42.939   1.433
97450W        W58981  43.373  43.463  12.404
97451W        W58982  25.208  30.625  10.526
97452W        W58983  24.126   9.349   0.939
97453W        W58984  36.563  34.604   9.927
97454W        W58985  30.053  22.513  11.381
97455W        W58986  37.084  22.708  14.985
97456W        W58987  20.608   1.430  13.452
97457W        W58988  26.014  29.083   0.437
97458W        W58989  20.667  38.954   1.792
97459W        W58990  37.415  14.129  10.605
97460W        W58991  16.607  16.134   2.783
97461W        W58992  15.605  38.004  11.883
97462W        W58993  39.893  36.388  13.791
97463W        W58994  23.507   5.744   3.711
97464W        W58995   9.393   2.303  14.018
97465W        W58996  25.697   8.197   5.116
97466W        W58997   9.367  27.646  12.523
97467W        W58998   7.360   9.155  10.968
97468W        W58999   7.806  31.089   0.472
97469W        W59000  32.007  13.649   3.642
97470W        W59001  27.990  14.610  13.047
97471W        W59002  10.200  37.563  12.425
97472W        W59003  37.059  17.300  14.456
97473W        W59004  12.156  36.025  10.907
97474W        W59005  11.363  27.633  14.339
97475W        W59006  29.999  41.400   1.804
97476W        W59007   0.493  27.566   0.346
97477W        W59008  42.520  17.184  13.005
97478W        W59009   0.477  24.582   9.666
97479W        W59010  24.099  44.893  13.446
97480W        W59011  24.079   0.759  10.557
97481W        W59012  14.204   1.965  11.600
97482W        W59013  24.193  27.549   3.852
97483W        W59014   5.340   5.241   1.826
97484W        W59015  12.801  16.638  12.837
97485W        W59016  26.488  12.146   2.192
97486W        W59017  26.034  19.061  11.604
97487W        W59018   8.759  29.498  14.001
97488W        W59019   8.656   7.818   5.147
97489W        W59020  42.316  18.228  10.446
97490W        W59021  39.499  20.193  11.415
97491W        W59022  18.188  35.911   1.357
97492W        W59023  10.250   1.358   4.174
97493W        W59024  15.767  24.112  14.921
97494W        W59025  25.565  28.581   0.802
97495W        W59026  16.195  44.505  15.000
97496W        W59027  31.631  10.214  11.924
97497W        W59028  27.481  36.895   0.423
97498W        W59029  26.128  30.478  13.931
97499W        W59030  30.528   7.884   4.145
97500W        W59031  23.049  10.784   4.752
97501W        W59032  16.152  32.037  14.436
97502W        W59033  35.478  15.286  10.491
97503W        W59034  44.386  39.393  11.537
97504W        W59035  40.386  41.515  12.890
97505W        W59036  36.354  34.382  10.589
97506W        W59037  10.321  17.797   4.614
97507W        W59038  18.155  42.986   3.353
97508W        W59039  34.880  26.595   4.753
97509W        W59040  15.301  19.663  11.878
97510W        W59041  15.592  31.000   4.320
97511W        W59042  31.971  23.522  14.960
97512W        W59043   2.445  25.058   0.884
97513W        W59044  40.504  32.459  12.980
97514W        W59045  30.437  40.398   1.822
97515W        W59046   2.427  11.203  11.006
97516W        W59047  10.353  12.225  10.505
97517W        W59048  19.554  41.813  13.448
97518W        W59049  27.124  35.077   3.681
97519W        W59050  21.599  13.220  14.317
97520W        W59051  16.221  39.911  13.447
97521W        W59052  43.338  20.663   2.766
97522W        W59053  11.221  32.414  11.576
97523W        W59054  12.845  26.958  10.578
97524W        W59055   2.472  26.550  14.947
97525W        W59056  22.014  20.227  13.434
97526W        W59057  36.041  43.329  10.962
97527W        W59058  37.381  43.482   0.301
97528W        W59059  32.514  19.122  11.558
97529W        W59060  27.179   9.757  10.526
97530W        W59061  12.731  10.277  11.126
97531W        W59062  44.856  24.597   0.852
97532W        W59063   2.945  40.446   0.840
97533W        W59064  33.061   6.699   1.319
97534W        W59065  31.632  18.672   3.235
97535W        W59066   6.184   2.740   4.166
97536W        W59067  17.096  23.152   1.296
97537W        W59068  26.151  42.459  11.942
97538W        W59069  28.640  20.067  12.486
97539W        W59070  30.054  38.997   0.863
97540W        W59071  42.447  35.083  12.068
97541W        W59072  26.573  18.589  14.430
97542W        W59073  33.436  29.460   1.398
97543W        W59074  28.122   6.769   9.573
97544W        W59075   3.417  36.926  12.093
97545W        W59076  42.776  33.925   2.192
97546W        W59077  18.194   3.908  13.822
97547W        W59078  36.097   3.351   1.402
97548W        W59079   0.949   8.848  11.564
97549W        W59080  15.181  37.461  14.498
97550W        W59081  17.701   3.426  12.074
97551W        W59082  37.900  27.682   2.680
97552W        W59083  34.422  10.326   0.244
97553W        W59084  35.554  20.208  12.456
97554W        W59085  12.856  44.445   3.311
97555W        W59086  43.274  42.287  10.426
97556W        W59087   6.336  29.608   3.347
97557W        W59088  10.234  39.392  11.465
97558W        W59089  25.488  14.118   1.314
97559W        W59090  31.052  21.156   9.984
97560W        W59091   1.944  10.703   2.184
97561W        W59092   4.839   4.253   4.207
97562W        W59093  15.764  16.793  12.389
97563W        W59094  17.270  29.587   3.249
97564W        W59095   2.345  12.191  11.401
97565W        W59096  37.927  43.005  14.295
97566W        W59097   9.357  40.507   4.679
97567W        W59098  14.609  32.895  12.898
97568W        W59099  41.897   7.710  14.455
97569W        W59100  10.142  36.426   1.915
97570W        W59101  33.027  33.538   1.929
97571W        W59102  11.365  28.062   3.356
97572W        W59103  26.620  28.676  14.383
97573W        W59104  25.102  16.138   1.262
97574W        W59105   2.285  39.444   4.286
97575W        W59106   0.434  25.712  11.017
97576W        W59107   9.281  23.195   0.247
97577W        W59108   0.490  31.923  11.872
97578W        W59109   1.273  16.302   2.820
97579W        W59110   1.378  37.027   0.766
97580W        W59111  38.452  36.447   1.398
97581W        W59112  36.055  15.224   3.719
97582W        W59113  21.734  38.570   0.372
97583W        W59114  16.081  12.732   4.682
97584W        W59115   2.260  10.215  14.346
97585W        W59116  29.559  42.518  13.486
97586W        W59117   3.258  40.822  11.590
97587W        W59118   5.279  41.956   1.718
97588W        W59119  34.879  21.037   2.360
97589W        W59120  30.060  36.560  13.813
97590W        W59121   1.755  38.998   0.880
97591W        W59122  28.132  42.826  12.399
97592W        W59123  13.153   2.851  14.473
97593W        W59124  24.708  44.949   4.258
97594W        W59125   9.302   3.868   2.899
97595W        W59126  14.715  22.087   1.263
97596W        W59127  40.338  28.615   1.732
97597W        W59128  44.888  34.519   4.292
97598W        W59129  17.745  31.064  13.342
97599W        W59130   8.689  11.249  10.578
97600W        W59131  12.610   7.355  11.472
97601W        W59132  37.543  23.119  11.544
97602W        W59133   5.890  33.882   4.260
97603W        W59134  34.003  25.478  11.470
97604W        W59135  28.594  13.115  13.794
97605W        W59136  17.640   1.934   0.373
97606W        W59137  15.682  36.516   4.830
97607W        W59138  39.912   2.748  13.959
97608W        W59139  12.665   6.867   0.790
97609W        W59140  27.599  28.022  12.550
97610W        W59141  12.721  17.197   4.145
97611W        W59142  32.111  12.308   1.931
97612W        W59143   8.382  18.198  13.974
97613W        W59144  25.644  23.098   3.292
97614W        W59145  36.008  35.094   1.842
97615W        W59146  34.903  41.510  11.000
97616W        W59147  25.620   8.183   2.798
97617W        W59148  29.104   3.810   2.902
97618W        W59149   0.333  15.711  12.374
97619W        W59150   0.855   1.956   1.805
97620W        W59151  44.981  22.547  10.959
97621W        W59152  22.141  25.156   3.740
97622W        W59153  39.883   9.377  12.884
97623W        W59154  27.009  12.167  10.985
97624W        W59155   6.231  41.996   3.704
97625W        W59156   3.855   3.893  12.530
97626W        W59157  28.046  36.885  13.895
97627W        W59158   5.922  12.151  11.535
97628W        W59159   2.465  18.086  14.897
97629W        W59160  26.614   0.922   2.368
97630W        W59161   6.702  25.649  11.446
97631W        W59162  38.893  44.883  13.855
97632W        W59163  22.509   6.765  10.565
97633W        W59164  29.107   8.201  11.043
97634W        W59165  16.786   7.692  12.058
97635W        W59166  27.171  10.813  11.113
97636W        W59167  18.121  28.021   0.812
97637W        W59168  40.030  42.783  11.000
97638W        W59169  21.744  21.164  10.073
97639W        W59170  23.713   6.343   0.906
97640W        W59171   1.967  44.926  11.475
97641W        W59172  31.517  44.817   0.244
97642W        W59173  31.988   5.747  10.560
97643W        W59174   1.937  26.993   3.662
97644W        W59175  37.482  43.853   4.221
97645W        W59176  11.747  33.396   0.453
97646W        W59177  40.909  16.630  12.340
97647W        W59178   6.241   9.302  12.383
97648W        W59179   4.838  30.129  12.034
97649W        W59180  25.623  24.206   0.379
97650W        W59181   1.890  40.499   0.818
97651W        W59182  27.592  11.336  12.478
97652W        W59183  35.483  34.569  11.932
97653W        W59184   3.756   6.813  11.858
97654W        W59185  12.662  12.129   1.752
97655W        W59186   9.374  34.994  12.923
97656W        W59187  20.706  21.236   0.249
97657W        W59188   2.366  28.120   3.184
97658W        W59189  22.094   4.765  14.323
97659W        W59190  36.450  13.600   3.745
97660W        W59191  35.912  34.524   2.366
97661W        W59192  17.178  29.070   3.852
97662W        W59193  16.282   9.159   1.221
97663W        W59194  44.503  21.698  13.888
97664W        W59195   4.819   5.214  13.018
97665W        W59196  44.004  41.794   2.778
97666W        W59197   6.280  11.244   0.754
97667W        W59198   4.729  14.650   0.788
97668W        W59199  38.544  44.286  10.439
97669W        W59200  44.320  25.145   0.881
97670W        W59201   1.758  22.732  12.562
97671W        W59202  10.326  19.536   3.669
97672W        W59203  18.619  19.574  12.055
97673W        W59204  19.734  23.174  12.415
97674W        W59205  43.798   0.382  10.999
97675W        W59206  31.479  28.447  13.413
97676W        W59207  44.839  32.980  13.797
97677W        W59208  32.437   7.809  11.439
97678W        W59209  21.098  29.117   4.730
97679W        W59210  26.689  31.090   1.767
97680W        W59211  12.138  31.110  12.051
97681W        W59212  42.352   7.718  11.963
97682W        W59213   9.332  17.218  12.554
97683W        W59214  15.775  12.239   0.448
97684W        W59215   4.247   0.805   1.766
97685W        W59216   1.939  21.630  11.513
97686W        W59217  28.168   2.787   1.340
97687W        W59218  42.481  15.120   4.813
97688W        W59219   4.313   7.210  13.892
97689W        W59220  10.250   6.374  14.423
97690W        W59221  31.477  26.010   2.259
97691W        W59222  33.515   7.813  13.495
97692W        W59223  37.408   4.220   3.700
97693W        W59224  17.720  36.972  14.503
97694W        W59225  42.933  33.905  12.434
97695W        W59226  19.202   4.856  11.002
97696W        W59227  43.815  15.761  13.044
97697W        W59228  10.725  28.550   0.358
97698W        W59229  27.024  44.787  13.807
97699W        W59230  39.332  21.158   2.340
97700W        W59231   5.814   9.236  12.005
97701W        W59232  23.557   9.790  14.895
97702W        W59233  21.688  36.535  12.020
97703W        W59234   0.298  38.822  13.548
97704W        W59235  35.402  41.293  10.595
97705W        W59236   0.492  38.909   1.766
97706W        W59237  12.796  14.247  10.950
97707W        W59238  25.655   4.928  10.065
97708W        W59239   6.189  29.077  13.364
97709W        W59240  21.208  23.109   1.820
97710W        W59241  27.167   2.317  11.889
97711W        W59242  37.524  10.868  12.570
97712W        W59243  13.695  13.769  13.837
97713W        W59244   3.751   6.753   3.178
97714W        W59245  36.461  15.185  10.939
97715W        W59246  35.503  15.793  14.488
97716W        W59247   7.780   9.265   3.358
97717W        W59248   7.365  26.038  13.975
97718W        W59249  23.566  43.916  11.075
97719W        W59250   9.812  24.645  12.990
97720W        W59251  11.280   7.312   1.364
97721W        W59252  33.411   9.683   1.712
97722W        W59253   5.392  34.104  11.089
97723W        W59254  16.712  21.751  14.940
97724W        W59255  12.285   3.890   0.357
97725W        W59256  28.964   6.394   5.113
97726W        W59257  35.419  26.563   2.813
97727W        W59258  42.913  34.046   1.828
97728W        W59259   2.412   3.808  14.892
97729W        W59260  39.514  10.232   4.351
97730W        W59261  33.504   0.342  12.890
97731W        W59262   9.771  16.770  10.532
97732W        W59263  41.994  32.537   2.718
97733W        W59264  20.261   9.394  11.975
97734W        W59265  13.283  38.036   1.313
97735W        W59266  34.466  39.501  14.874
97736W        W59267  26.117  30.031  13.427
97737W        W59268   5.387  35.998  12.349
97738W        W59269  39.908  23.168  13.487
97739W        W59270  13.148   7.415   0.733
97740W        W59271  22.732   6.813   3.794
97741W        W59272  25.093  22.031  10.914
97742W        W59273  23.127  17.262   1.695
97743W        W59274  35.939   3.943  10.900
97744W        W59275  41.853  32.938  14.388
97745W        W59276  42.313  33.531  10.926
97746W        W59277  23.993  44.314   3.367
97747W        W59278  32.119  20.711   2.328
97748W        W59279  38.415  41.973  10.577
97749W        W59280  22.227  36.984   0.904
97750W        W59281  19.052  42.902  14.819
97751W        W59282  25.688  27.041  12.403
97752W        W59283  43.912   4.412  13.400
97753W        W59284  44.364   6.291   1.335
97754W        W59285  36.083   6.854   3.322
97755W        W59286  43.993  44.389  13.368
97756W        W59287  36.579  44.438   1.252
97757W        W59288  16.115  35.102  14.844
97758W        W59289  32.411  44.450  12.081
97759W        W59290  18.718  14.624  10.569
97760W        W59291  19.589  22.175  12.087
97761W        W59292  35.498  41.907  14.455
97762W        W59293   9.230  15.636   3.266
97763W        W59294   8.368  34.503   0.399
97764W        W59295   8.820   3.862   3.820
97765W        W59296   8.665   7.713   2.415
97766W        W59297   5.259  12.312  13.993
97767W        W59298  40.969   1.425   2.286
97768W        W59299   8.258  28.109  14.275
97769W        W59300  35.936  14.304  13.015
97770W        W59301  13.140   9.653  14.298
97771W        W59302  22.654  17.795  11.918
97772W        W59303   4.893   7.820   4.679
97773W        W59304   4.767  19.751  10.493
97774W        W59305   9.862  20.269  14.288
97775W        W59306  36.010  27.108  10.906
97776W        W59307  26.044  40.890  11.480
97777W        W59308  14.826  15.677  11.916
97778W        W59309  13.738  26.547   0.325
97779W        W59310  18.118  24.074  12.079
97780W        W59311  12.327   4.447  12.030
97781W        W59312  43.278  43.363   3.797
97782W        W59313  15.652   9.849  12.572
97783W        W59314   5.297  11.193  10.464
97784W        W59315  40.858  27.691  12.025
97785W        W59316  27.490  24.574  10.590
97786W        W59317  35.027  16.747   3.361
97787W        W59318  39.512  24.112   1.869
97788W        W59319  26.014   3.857  14.317
97789W        W59320  18.669  26.655  14.983
97790W        W59321  32.431  29.076   0.818
97791W        W59322  18.061  31.950   0.467
97792W        W59323   7.782  13.178  13.430
97793W        W59324  20.629  11.865  14.339
97794W        W59325  37.491   1.738   4.164
97795W        W59326  24.596  18.145  10.468
97796W        W59327   0.962  22.085   4.813
97797W        W59328   8.781  18.769  10.414
97798W        W59329  17.092   3.384   2.734
97799W        W59330  15.714  36.995  10.918
97800W        W59331  33.400  12.195  11.423
97801W        W59332  30.445  17.152   4.704
97802W        W59333   5.286   5.253   2.372
97803W        W59334  35.457  10.737   3.262
97804W        W59335  33.887  36.497   0.325
97805W        W59336  24.647  14.660   3.357
97806W        W59337  34.880  32.594  12.937
97807W        W59338   2.386  37.980  11.906
97808W        W59339  27.114  22.529   1.764
97809W        W59340  44.767   0.870  12.906
97810W        W59341  12.797  38.497   1.917
97811W        W59342  27.089   3.270  14.936
97812W        W59343  34.418  16.144  11.959
97813W        W59344  19.719  10.673   1.401
97814W        W59345  37.047  24.628   3.823
97815W        W59346   2.298  16.198   4.331
97816W        W59347  34.071  13.105   2.796
97817W        W59348   8.766   3.753  14.402
97818W        W59349  11.763  39.913  11.585
97819W        W59350  21.695  30.943  10.592
97820W        W59351  39.037  43.316   3.209
97821W        W59352   2.327  29.485   0.321
97822W        W59353  15.107  30.052  13.448
97823W        W59354  38.954   4.784   5.189
97824W        W59355  33.020  39.972  14.818
97825W        W59356  20.209  28.509   3.635
97826W        W59357  17.644  34.962  12.458
97827W        W59358  22.696  32.005   4.335
97828W        W59359   1.807  27.670   3.235
97829W        W59360  35.369  15.811  12.418
97830W        W59361   4.756  36.426   0.299
97831W        W59362   4.769  12.283   4.774
97832W        W59363  23.594  11.319   0.245
97833W        W59364   1.775  11.176   2.277
97834W        W59365  18.758  33.466   3.780
97835W        W59366  34.558  44.293  13.959
97836W        W59367  25.654  40.505   4.234
97837W        W59368  17.754  32.489  14.000
97838W        W59369  20.760  12.260  12.054
97839W        W59370  27.972   7.277   1.814
97840W        W59371  19.176  44.924  12.034
97841W        W59372  33.547  21.028   1.407
97842W        W59373  17.222   4.886   9.990
97843W        W59374  12.701  34.030   2.350
97844W        W59375  34.013   9.739   4.652
97845W        W59376   4.411  14.828  11.920
97846W        W59377  29.523  34.587  12.896
97847W        W59378  16.619   1.315  11.411
97848W        W59379   0.825  32.908   4.655
97849W        W59380  33.902  41.035  10.413
97850W        W59381   1.288   7.321   1.331
97851W        W59382  44.930  43.359   0.726
97852W        W59383  42.912  10.339   0.393
97853W        W59384  22.593   7.202   4.216
97854W        W59385  22.126  31.935   1.889
97855W        W59386   5.233  20.688   3.725
97856W        W59387  28.478  11.139  13.795
97857W        W59388  34.574  14.185   1.220
97858W        W59389   6.323  36.506  14.926
97859W        W59390  38.054   9.210  10.481
97860W        W59391  33.432  25.998  10.629
97861W        W59392   8.767  16.173   0.823
97862W        W59393  30.453  38.925  10.436
97863W        W59394  28.110  13.760   1.428
97864W        W59395  26.158  25.187  12.413
97865W        W59396  16.705   1.841  13.378
97866W        W59397  13.170   5.740   1.323
97867W        W59398  19.546  18.554  14.867
97868W        W59399  39.537   1.408   4.317
97869W        W59400   1.892   5.772  12.489
97870W        W59401  23.525  17.162   3.338
97871W        W59402  13.285  24.679  11.937
97872W        W59403  14.205   7.233  14.775
97873W        W59404  32.887   7.757  10.578
97874W        W59405  41.917  23.233   2.341
97875W        W59406  33.546   1.429   0.365
97876W        W59407   8.390  13.711   0.822
97877W        W59408  39.009  44.304  10.934
97878W        W59409  43.420  20.072   2.682
97879W        W59410   6.360  10.720  11.119
97880W        W59411  34.545  10.699  14.029
97881W        W59412  35.006   4.365  11.081
97882W        W59413   5.423   5.422  12.549
97883W        W59414  39.926  24.065   3.279
97884W        W59415   1.307  38.930  11.885
97885W        W59416  36.508   2.802   3.308
97886W        W59417   1.269  22.086  10.438
97887W        W59418   3.372   6.755  13.535
97888W        W59419  22.057  31.019  10.964
97889W        W59420  41.792  29.939  12.913
97890W        W59421  15.745  15.711  14.949
97891W        W59422   2.314  17.301   1.271
97892W        W59423  43.013  12.851  11.955
97893W        W59424   7.710  12.677   1.694
97894W        W59425  24.047  36.019  10.421
97895W        W59426  27.975   9.850  14.313
97896W        W59427   7.183  32.116   4.821
97897W        W59428  32.991  25.663  13.884
97898W        W59429   0.384  36.922   3.231
97899W        W59430   7.340   2.452   3.633
97900W        W59431  23.231  13.239   3.188
97901W        W59432  26.058   2.896   4.182
97902W        W59433  19.602  14.828  12.509
97903W        W59434  32.524  37.505  10.139
97904W        W59435  10.869   9.305  10.512
97905W        W59436  16.257  24.543   1.390
97906W        W59437  30.544  31.043  14.898
97907W        W59438  40.864  42.900   0.269
97908W        W59439  25.083  27.180  14.981
97909W        W59440   0.320  33.047   2.876
97910W        W59441   1.744  44.282   0.277
97911W        W59442  23.195   8.864  12.566
97912W        W59443  16.623   4.290   4.191
97913W        W59444  37.921  14.133  10.524
97914W        W59445  37.353  12.694   1.776
97915W        W59446   7.345  10.861   4.337
97916W        W59447   1.745  12.299  14.843
97917W        W59448  38.038  36.088   1.810
97918W        W59449   4.203  28.458  11.447
97919W        W59450  12.832  34.072   3.227
97920W        W59451  26.490   8.222   0.851
97921W        W59452  28.041  32.429   2.817
97922W        W59453  20.041  28.435   0.749
97923W        W59454  38.331  28.056  12.077
97924W        W59455  11.202  33.954   2.829
97925W        W59456  38.053  44.942   4.803
97926W        W59457  42.852  34.020   0.258
97927W        W59458  10.695  15.710   3.303
97928W        W59459  15.639  10.236  12.544
97929W        W59460   2.252  24.571   2.250
97930W        W59461  40.393  18.647  10.587
97931W        W59462  30.924   7.351   4.120
97932W        W59463  32.412   0.354  12.014
97933W        W59464  11.638  41.026   4.619
97934W        W59465  25.180  20.034   1.423
97935W        W59466  13.343  24.001  12.073
97936W        W59467  14.595  27.544   3.734
97937W        W59468  26.573  16.779  14.996
97938W        W59469  38.910   2.455  14.863
97939W        W59470  26.090  12.700  11.928
97940W        W59471  14.661  40.524   1.846
97941W        W59472  21.721  18.202  13.487
97942W        W59473  39.842  11.839   0.923
97943W        W59474  35.586  37.865   4.258
97944W        W59475   1.903  13.155  14.786
97945W        W59476  26.204  39.922   0.447
97946W        W59477   3.307  41.454  10.570
97947W        W59478  30.104  30.050  11.055
97948W        W59479  35.492  33.119   0.324
97949W        W59480  14.296  20.616  11.521
97950W        W59481   7.839  37.942  12.887
97951W        W59482  38.544  21.554  13.389
97952W        W59483   4.806  19.094  12.369
97953W        W59484   9.788  23.050   4.347
97954W        W59485  11.762  13.275   2.760
97955W        W59486  32.537  34.599  10.570
97956W        W59487  20.093  13.135   0.318
97957W        W59488  28.548   7.327   4.144
97958W        W59489  12.631   1.369  13.984
97959W        W59490  25.116  22.087   3.369
97960W        W59491  10.641  13.638   1.750
97961W        W59492   8.172   9.757  14.471
97962W        W59493  33.411  26.581  13.430
97963W        W59494  20.620  26.015   1.359
97964W        W59495  44.337  18.687   1.311
97965W        W59496  19.120   3.427   0.458
97966W        W59497  34.037  31.478  10.468
97967W        W59498   4.736  42.869   1.888
97968W        W59499  13.286  25.005   2.682
97969W        W59500  29.006  40.358   0.807
97970W        W59501  38.359  10.228   0.427
97971W        W59502  23.019  10.253  13.395
97972W        W59503  35.398   0.972   2.696
97973W        W59504  31.471   8.308   9.961
97974W        W59505  39.883  32.417   3.788
97975W        W59506  17.071  43.422  14.946
97976W        W59507  28.015  27.656  12.483
97977W        W59508  12.706  18.217  14.817
97978W        W59509   2.389   2.830   4.187
97979W        W59510  20.167  13.714  12.989
97980W        W59511   9.216   4.360   0.862
97981W        W59512   9.814   7.216  14.978
97982W        W59513  33.594  25.481  13.412
97983W        W59514   5.703   4.231   0.285
97984W        W59515  30.954  22.121   1.401
97985W        W59516  26.537   6.811  12.918
97986W        W59517  17.761  37.345   4.276
97987W        W59518  18.588  36.901   2.835
97988W        W59519  10.724  44.898   3.333
97989W        W59520  40.854  11.153  12.825
97990W        W59521  13.110  29.621  13.334
97991W        W59522  11.700  25.989  14.949
97992W        W59523   1.883  10.757   0.447
97993W        W59524  31.610  40.520   1.728
97994W        W59525  21.227   6.802   1.821
97995W        W59526  35.362  18.669  11.501
97996W        W59527  18.254  21.699  11.896
97997W        W59528  17.254  39.065   4.315
97998W        W59529  39.322  30.124  13.471
97999W        W59530  37.575   6.834   0.409
98000W        W59531  39.822  20.767   4.645
98001W        W59532  12.640  21.643  10.419
98002W        W59533   5.215  18.616   2.745
98003W        W59534   2.420  16.688  14.506
98004W        W59535  34.865   9.868  10.042
98005W        W59536  32.604   6.889   3.230
98006W        W59537  34.438  36.419  10.122
98007W        W59538  40.528   9.384   1.356
98008W        W59539  32.620  40.824  14.975
98009W        W59540  13.259  33.561  11.579
98010W        W59541  37.045  27.112  10.537
98011W        W59542  39.339  29.130  10.926
98012W        W59543  11.722   6.286   0.857
98013W        W59544  19.271   4.394   2.340
98014W        W59545  36.469  17.706  12.577
98015W        W59546  19.537  20.258   3.243
98016W        W59547  41.995  18.248  13.841
98017W        W59548   4.698  23.219   1.285
98018W        W59549   3.742  22.195   4.729
98019W        W59550  30.912  31.561   3.273
98020W        W59551   0.965  37.530  12.031
98021W        W59552   1.304  29.067  14.921
98022W        W59553  27.673  39.360   4.674
98023W        W59554  43.446   3.739   4.282
98024W        W59555  13.336   7.303  10.033
98025W        W59556   4.217  43.322  11.122
98026W        W59557  17.783  19.095  12.080
98027W        W59558  13.838   4.789  11.921
98028W        W59559  42.297   4.441  12.069
98029W        W59560  27.660   5.912  10.428
98030W        W59561  42.944  26.167   2.206
98031W        W59562   0.313  26.061  13.349
98032W        W59563   8.252   3.368  11.869
98033W        W59564  23.553  17.598  12.946
98034W        W59565  12.324   8.671  11.499
98035W        W59566   5.729   8.671   1.267
98036W        W59567   4.367  13.731   0.867
98037W        W59568  36.898   1.806  10.448
98038W        W59569  22.722   0.742   2.881
98039W        W59570  36.435  18.666   0.412
98040W        W59571  43.855  16.668   3.717
98041W        W59572  10.281  40.309   4.832
98042W        W59573  37.392  43.399  10.446
98043W        W59574  27.172  34.508  14.789
98044W        W59575  23.632   5.754  13.467
98045W        W59576   7.402  33.042  12.062
98046W        W59577  13.635   4.449  11.495
98047W        W59578  13.674  35.893   0.458
98048W        W59579  37.426  19.736  14.885
98049W        W59580  33.013  38.347  11.553
98050W        W59581  41.016  10.656   0.462
98051W        W59582  13.799  20.174  10.938
98052W        W59583   3.222  24.212   0.483
98053W        W59584  23.510  19.271   1.766
98054W        W59585  20.610  35.431   3.738
98055W        W59586  17.170  44.463  13.005
98056W        W59587  33.616  13.633  14.893
98057W        W59588  11.749  20.667   1.846
98058W        W59589   1.408   7.892  11.119
98059W        W59590  39.961   0.262   1.747
98060W        W59591  21.743  30.545  11.598
98061W        W59592   5.284  29.539   4.804
98062W        W59593  18.737  41.857   2.794
98063W        W59594   8.281   1.257  14.813
98064W        W59595  43.459  34.056   3.330
98065W        W59596  16.158  26.127   2.800
98066W        W59597  39.484   7.777   4.735
98067W        W59598  32.429  35.566  12.848
98068W        W59599  42.027  43.466  13.345
98069W        W59600   8.390  11.227   1.325
98070W        W59601  24.044  37.058  14.895
98071W        W59602  15.194  37.577   4.821
98072W        W59603  26.093  40.328   1.766
98073W        W59604  39.036   1.910   5.102
98074W        W59605  33.582  29.516  13.425
98075W        W59606  43.864  37.468   2.393
98076W        W59607   6.382  25.682   0.918
98077W        W59608   5.274  13.797  13.478
98078W        W59609  13.152  11.692  10.934
98079W        W59610  33.616  11.719   2.226
98080W        W59611  27.518  14.326   0.764
98081W        W59612  35.933  17.802  13.993
98082W        W59613  15.762  40.375  12.513
98083W        W59614   0.283   5.797   3.644
98084W        W59615   2.931  24.002  12.566
98085W        W59616  30.080  31.449  12.069
98086W        W59617   9.705  42.811   4.805
98087W        W59618  27.503  33.597   3.236
98088W        W59619  13.766  42.966   0.854
98089W        W59620  16.300  27.030  11.451
98090W        W59621  44.307  26.981   4.634
98091W        W59622  11.322  14.129   0.299
98092W        W59623  15.770  31.616   0.331
98093W        W59624   8.746  23.702  12.408
98094W        W59625  20.163   0.447   0.752
98095W        W59626   4.208  38.841   4.780
98096W        W59627  20.643  42.516   0.884
98097W        W59628  27.480   7.906  14.888
98098W        W59629  20.753  25.171  11.050
98099W        W59630  12.152  10.732   4.251
98100W        W59631  10.803  43.341  13.840
98101W        W59632   9.647  27.585  14.852
98102W        W59633  30.460  11.821  11.561
98103W        W59634  40.461  44.260   1.839
98104W        W59635  12.643  13.351  14.413
98105W        W59636  24.558  14.266   4.239
98106W        W59637  44.787  16.231  13.047
98107W        W59638  37.559  20.125   2.885
98108W        W59639  42.512  44.912  11.582
98109W        W59640  35.490  40.851  10.634
98110W        W59641   2.790  13.273   0.383
98111W        W59642  30.653   3.810   2.388
98112W        W59643  20.759  17.692  11.858
98113W        W59644  28.536   4.351  12.856
98114W        W59645  38.907  14.200   3.720
98115W        W59646   3.883  10.228  12.542
98116W        W59647  41.976  37.889   3.331
98117W        W59648  22.646  33.127  13.807
98118W        W59649  36.030   9.200  14.349
98119W        W59650  38.416  16.307  14.319
98120W        W59651  26.085  17.561  10.946
98121W        W59652   5.303  14.269   1.751
98122W        W59653  38.418  31.062  14.792
98123W        W59654  16.155  27.009  11.057
98124W        W59655   4.854  22.144  14.015
98125W        W59656  43.424  17.790  11.017
98126W        W59657  13.318  14.774   2.884
98127W        W59658  34.083   2.328  13.028
98128W        W59659  22.618  34.525  12.856
98129W        W59660  37.849  38.039   1.767
98130W        W59661  15.191  12.653  13.470
98131W        W59662  13.702  37.993  11.471
98132W        W59663  35.070  10.313  10.499
98133W        W59664   0.957  26.077   0.364
98134W        W59665   2.429   1.777   4.776
98135W        W59666  32.489   2.397  13.967
98136W        W59667   6.768  18.627  13.323
98137W        W59668   5.210  11.359  14.852
98138W        W59669  25.467   6.231  13.412
98139W        W59670   9.307  12.235  14.005
98140W        W59671  21.681  40.458  10.992
98141W        W59672  19.072   4.279  12.446
98142W        W59673  37.918   4.326   4.133
98143W        W59674   5.275  41.440   2.248
98144W        W59675  17.598   7.689   3.213
98145W        W59676  38.914   5.932  11.091
98146W        W59677   4.410  13.278   1.287
98147W        W59678  19.707  22.249  11.483
98148W        W59679  28.944   3.771  12.065
98149W        W59680  21.572   5.208   3.214
98150W        W59681   4.303  28.175   1.396
98151W        W59682   9.162   6.260   4.330
98152W        W59683  21.537  38.962   2.247
98153W        W59684   5.436  17.665  10.495
98154W        W59685   0.821  33.394  11.078
98155W        W59686   9.313  13.224   2.852
98156W        W59687  32.087  28.028   1.345
98157W        W59688   8.269  21.142   0.458
98158W        W59689  10.353   6.390   0.255
98159W        W59690  27.590  43.006   5.315
98160W        W59691  14.641  42.804   2.411
98161W        W59692  43.977  41.519  11.414
98162W        W59693  36.044   9.250   0.947
98163W        W59694  38.019  11.714  10.469
98164W        W59695  15.187   0.977  14.384
98165W        W59696  24.991   3.943   3.326
98166W        W59697  33.539   3.880   2.362
98167W        W59698  30.071  39.471   1.323
98168W        W59699   1.392  33.388  11.411
98169W        W59700  27.592   7.207   4.787
98170W        W59701   9.170  25.693  14.818
98171W        W59702  38.427   1.295  13.893
98172W        W59703  20.070  10.201  13.404
98173W        W59704   1.459  44.887   4.157
98174W        W59705   0.937  37.034   2.695
98175W        W59706  37.842  14.769   3.782
98176W        W59707  19.714  33.130  14.775
98177W        W59708  25.603   3.913  11.566
98178W        W59709   5.887  12.200  13.901
98179W        W59710  10.771  15.107  11.010
98180W        W59711  33.940  40.944   1.783
98181W        W59712  30.004   4.817  10.004
98182W        W59713  20.272  39.419   2.704
98183W        W59714  10.782  26.490   3.152
98184W        W59715  21.260  28.659   0.890
98185W        W59716  18.575  12.241   0.410
98186W        W59717   5.387   1.469   3.837
98187W        W59718  43.904  29.452   0.761
98188W        W59719  37.961  32.049  13.985
98189W        W59720  28.468  36.556   4.625
98190W        W59721  17.586  19.713  13.004
98191W        W59722  41.894  14.774   0.278
98192W        W59723  24.501  25.681   2.299
98193W        W59724  15.122  31.459  13.833
98194W        W59725  22.593  37.000  12.886
98195W        W59726   3.403  21.213  13.985
98196W        W59727  21.133   5.843  13.912
98197W        W59728   0.268  27.659  13.954
98198W        W59729  42.968  41.886  12.558
98199W        W59730  13.302  33.547  14.511
98200W        W59731  31.441   6.261   4.603
98201W        W59732  40.912  30.464   4.347
98202W        W59733  24.172  18.615   1.735
98203W        W59734  30.959  22.074  14.871
98204W        W59735  18.573  37.458  12.461
98205W        W59736  11.660  35.944  11.547
98206W        W59737  12.255  21.673   2.702
98207W        W59738  22.658  10.695   3.700
98208W        W59739  27.495  28.976  11.005
98209W        W59740  42.810  39.401   3.282
98210W        W59741  20.612  41.987  11.901
98211W        W59742   7.282  38.002   2.245
98212W        W59743  37.079  33.602   3.352
98213W        W59744   4.907  24.185   3.682
98214W        W59745   6.364  15.136  10.630
98215W        W59746  37.059   0.916  12.853
98216W        W59747  41.004  27.993   1.848
98217W        W59748  37.459  32.454  13.006
98218W        W59749  39.931  42.869  14.493
98219W        W59750  38.919  11.304   0.317
98220W        W59751  18.240  26.625  10.936
98221W        W59752   3.781   6.386   2.776
98222W        W59753  17.150   6.769   2.870
98223W        W59754  29.450  17.624   4.326
98224W        W59755  29.551  21.553   2.887
98225W        W59756  31.599  32.101  12.826
98226W        W59757  36.045  22.199  12.455
98227W        W59758   4.340  27.613  14.298
98228W        W59759  44.789  12.718   3.734
98229W        W59760   8.376   8.659  10.896
98230W        W59761  24.625  13.263  11.531
98231W        W59762  33.032  12.273  14.827
98232W        W59763   1.348  15.624   3.247
98233W        W59764   5.437  14.219   2.393
98234W        W59765  22.108   9.213  12.580
98235W        W59766  18.583  27.560   1.925
98236W        W59767  40.374   1.850  12.494
98237W        W59768   1.736  34.004   1.842
98238W        W59769   2.788  30.523  13.343
98239W        W59770  27.593  26.567  10.431
98240W        W59771  37.047  13.118   0.353
98241W        W59772  37.384  35.101   3.369
98242W        W59773  22.625  14.725  11.052
98243W        W59774  10.228  17.104   1.877
98244W        W59775  24.169   3.377   9.959
98245W        W59776  16.166   5.699  12.469
98246W        W59777   0.450  18.632   1.737
98247W        W59778  22.587   6.302  10.486
98248W        W59779  36.385  17.233   1.242
98249W        W59780  16.243  21.729  14.402
98250W        W59781  35.584   7.184  13.874
98251W        W59782  16.587   0.869   2.822
98252W        W59783   2.342  31.010   3.299
98253W        W59784  25.030  18.272  12.032
98254W        W59785  44.897  18.728   2.749
98255W        W59786   4.884  38.536  13.345
98256W        W59787  27.663  39.024   4.597
98257W        W59788   6.235  41.298   0.464
98258W        W59789   0.412  24.116  14.388
98259W        W59790  18.754  39.316  13.369
98260W        W59791   5.858  28.077  13.478
98261W        W59792  22.176  42.431  13.373
98262W        W59793   5.933  33.077   3.306
98263W        W59794   4.870   9.648  11.549
98264W        W59795  33.552  34.495  10.900
98265W        W59796  13.657   1.906   2.345
98266W        W59797  37.489   7.824  11.911
98267W        W59798  37.875   1.406   1.915
98268W        W59799  31.602   0.355   3.681
98269W        W59800  36.039   0.976  12.550
98270W        W59801  38.931  22.579   2.316
98271W        W59802  25.101  23.240   1.304
98272W        W59803   4.730  36.971   4.691
98273W        W59804  35.563  30.603   4.610
98274W        W59805  20.156  14.739  11.530
98275W        W59806   9.649  37.420  14.869
98276W        W59807  14.598  26.006   1.813
98277W        W59808  11.627  39.405  10.110
98278W        W59809   2.461  12.824  12.945
98279W        W59810  25.203  38.904   3.260
98280W        W59811  10.776  20.589  13.488
98281W        W59812  19.100  20.048   4.312
98282W        W59813  11.356  22.104  13.893
98283W        W59814  26.667   6.705   3.632
98284W        W59815  17.075  35.095  11.604
98285W        W59816  24.127  34.107   4.197
98286W        W59817   9.657   4.918   4.211
98287W        W59818  24.594   7.728  10.949
98288W        W59819  13.309   5.702   0.265
98289W        W59820  22.185  14.611  11.981
98290W        W59821  32.504  20.630  14.506
98291W        W59822  38.912   6.379   2.375
98292W        W59823  14.290  29.947   2.307
98293W        W59824   7.226  42.407   2.885
98294W        W59825   2.867  14.268   0.882
98295W        W59826  32.513   2.230  14.825
98296W        W59827  40.803   7.231  13.523
98297W        W59828  21.073  12.686  12.853
98298W        W59829  30.958  19.056  11.045
98299W        W59830  43.460  21.086   0.443
98300W        W59831  31.982  40.805   2.191
98301W        W59832  31.518  24.488  13.813
98302W        W59833   5.319  33.425  14.394
98303W        W59834  10.804  26.001   2.873
98304W        W59835  24.665  26.980   3.704
98305W        W59836  10.208  43.418   2.194
98306W        W59837  39.527  41.852   0.369
98307W        W59838  16.586  33.015  10.557
98308W        W59839  27.121  36.978   2.900
98309W        W59840  32.631  16.571   2.671
98310W        W59841  44.931  41.530   1.745
98311W        W59842  11.291  23.693   2.837
98312W        W59843  22.711  16.645  12.461
98313W        W59844  17.136  42.319  14.779
98314W        W59845   1.351   6.390  14.860
98315W        W59846  28.956  22.051   0.908
98316W        W59847  14.667  28.163   3.212
98317W        W59848   9.793  14.176   3.243
98318W        W59849  38.857  27.534   0.966
98319W        W59850   7.352   8.855   4.173
98320W        W59851  15.785  29.965   4.248
98321W        W59852  21.037  37.072   0.876
98322W        W59853   8.804  25.209  14.962
98323W        W59854  35.901   0.825  14.978
98324W        W59855  40.338  31.078   1.817
98325W        W59856  20.223  21.710  12.377
98326W        W59857  23.118   3.773   3.746
98327W        W59858  12.628  13.144   4.803
98328W        W59859  43.942  25.626   1.380
98329W        W59860  21.580  33.990   0.897
98330W        W59861   9.831  44.865  10.956
98331W        W59862   3.783  43.420   1.748
98332W        W59863  41.495  41.966   0.897
98333W        W59864  40.051  40.893  12.540
98334W        W59865   6.345  15.642  14.295
98335W        W59866   0.806  23.133   2.859
98336W        W59867  39.899  21.250   3.183
98337W        W59868  31.457  11.316  10.549
98338W        W59869  39.848  24.194   4.744
98339W        W59870   5.210  23.998   1.800
98340W        W59871   9.210  40.489   1.794
98341W        W59872   2.892  24.174   2.807
98342W        W59873  21.056  24.073   3.206
98343W        W59874  11.202  19.601  13.059
98344W        W59875  38.903  38.418   0.936
98345W        W59876  14.823  24.218   0.864
98346W        W59877  40.809  14.803   0.732
98347W        W59878  28.953  39.486  14.357
98348W        W59879  44.911   6.401  13.998
98349W        W59880  23.662  17.088   3.751
98350W        W59881  32.966  13.138  11.039
98351W        W59882  42.784  18.100  13.056
98352W        W59883  37.415  20.142  13.796
98353W        W59884  25.506  10.302  12.552
98354W        W59885  22.179  16.634  14.367
98355W        W59886  41.012  29.668  14.773
98356W        W59887   4.873  16.704  11.941
98357W        W59888  22.211  15.108   3.359
98358W        W59889   0.919   0.895   0.868
98359W        W59890  29.934  19.741   1.915
98360W        W59891  26.118  10.160  14.298
98361W        W59892  22.504  12.724   4.788
98362W        W59893  16.641  25.071   0.368
98363W        W59894  32.051  16.693  14.764
98364W        W59895  34.396  31.422   1.213
98365W        W59896  32.391  37.381   0.376
98366W        W59897  31.979  35.971   3.703
98367W        W59898   2.769  14.689  12.011
98368W        W59899  17.706   1.745   1.406
98369W        W59900   2.397   6.776   1.365
98370W        W59901   2.949  21.093  12.550
98371W        W59902  15.132  31.626   2.266
98372W        W59903  24.158  35.367  12.970
98373W        W59904  15.181   4.883   3.349
98374W        W59905   8.761  33.591   0.462
98375W        W59906  30.933  43.423  12.571
98376W        W59907   7.358  10.673  11.955
98377W        W59908  33.434   0.404  14.383
98378W        W59909  35.878  35.521   1.698
98379W        W59910   1.958   1.397   1.863
98380W        W59911   6.676   0.959   1.870
98381W        W59912  13.813  41.414   0.922
98382W        W59913  38.973  26.163  14.422
98383W        W59914  35.853   2.844   3.763
98384W        W59915  44.467   2.893  12.511
98385W        W59916  42.309  16.656  14.942
98386W        W59917   6.353  41.924   2.243
98387W        W59918  22.091  11.714  12.009
98388W        W59919   1.259   3.325   1.749
98389W        W59920   1.972  35.102   1.272
98390W        W59921   2.400   7.284  11.440
98391W        W59922   1.771  12.640   0.243
98392W        W59923   7.880  36.943   2.835
98393W        W59924  38.504   9.804  14.377
98394W        W59925  44.286  14.647   2.794
98395W        W59926  43.444  42.994   3.312
98396W        W59927  11.658   9.775   4.818
98397W        W59928   4.387   1.908   1.764
98398W        W59929  29.631  33.966  11.613
98399W        W59930  35.414  36.358  14.377
98400W        W59931  28.124  18.071   1.356
98401W        W59932  40.371  25.576   0.754
98402W        W59933   7.358   4.412  13.485
98403W        W59934  11.837  36.017   5.082
98404W        W59935  28.585   1.297   0.317
98405W        W59936  10.769  41.310  13.864
98406W        W59937  27.966   4.876  12.001
98407W        W59938  30.486  24.149  11.590
98408W        W59939   3.852  35.541   2.854
98409W        W59940  36.061  41.036  10.973
98410W        W59941  27.570   1.237  14.775
98411W        W59942  32.567  34.096   3.228
98412W        W59943  33.998   8.804  10.513
98413W        W59944  15.690  14.805   3.841
98414W        W59945  26.051  40.304   3.337
98415W        W59946  43.788  39.997  13.366
98416W        W59947   5.229  18.107   4.323
98417W        W59948   0.799  42.868  12.053
98418W        W59949  32.126  43.417  10.955
98419W        W59950  11.767  10.864   3.325
98420W        W59951   7.670  30.549   1.226
98421W        W59952  25.555   7.383  13.854
98422W        W59953  12.616   7.233  12.084
98423W        W59954   2.742  25.218   4.326
98424W        W59955   5.344  23.177   4.239
98425W        W59956   7.385  12.240  14.974
98426W        W59957  15.126   8.313   2.811
98427W        W59958  15.591  44.859  11.496
98428W        W59959  26.525  21.666   3.787
98429W        W59960  10.168  24.135  12.412
98430W        W59961  37.462   4.720   5.247
98431W        W59962  19.744  32.966  12.539
98432W        W59963  28.988   0.766   1.341
98433W        W59964  10.332  19.762  12.062
98434W        W59965  44.360  18.213  11.578
98435W        W59966  37.434   9.669  13.477
98436W        W59967  39.829  15.779  13.328
98437W        W59968  22.675  42.317   0.343
98438W        W59969   4.816  32.595  11.077
98439W        W59970  41.471  39.818  12.423
98440W        W59971  37.930  40.010  12.390
98441W        W59972  28.668  43.870   2.807
98442W        W59973  22.155  16.728  12.030
98443W        W59974  44.846  11.779  12.989
98444W        W59975   0.813  22.698  10.019
98445W        W59976  17.139  27.053  12.478
98446W        W59977   6.832  11.819   3.844
98447W        W59978   4.765  21.733   0.394
98448W        W59979  13.721  28.128   0.267
98449W        W59980  29.592  10.293   4.743
98450W        W59981  35.055  31.898   3.276
98451W        W59982  35.882  33.543  14.334
98452W        W59983  31.059  20.074  12.345
98453W        W59984  21.512   2.909  14.875
98454W        W59985   2.796   7.303   4.132
98455W        W59986  22.689   0.338  12.934
98456W        W59987   9.736  11.786  14.379
98457W        W59988   8.893  35.565   1.764
98458W        W59989  20.186  25.131  10.093
98459W        W59990  22.128  34.900  14.903
98460W        W59991  28.625  42.791  12.093
98461W        W59992   3.938  20.136  14.879
98462W        W59993  40.926  23.135   0.911
98463W        W59994   4.261  12.176  11.038
98464W        W59995  28.941  12.660  13.939
98465W        W59996  31.522  38.061  11.945
98466W        W59997  25.005  28.027   4.273
98467W        W59998  22.623   8.165   0.327
98468W        W59999   0.783  31.148   3.319
98469W        W60000   4.827  14.738  10.521
98470W        W60001  18.720  17.232  12.358
98471W        W60002   2.324  17.121   3.196
98472W        W60003  42.994  12.848   0.764
98473W        W60004  15.778  17.268  13.380
98474W        W60005  10.874  30.506  13.356
98475W        W60006  24.182  38.905   5.173
98476W        W60007  21.741  24.030  11.528
98477W        W60008   4.280  21.650  11.089
98478W        W60009  38.502   7.272  12.842
98479W        W60010  34.075  30.472  11.557
98480W        W60011  15.242   4.786  12.853
98481W        W60012   7.314  40.412  14.479
98482W        W60013  25.697  39.390   0.930
98483W        W60014   5.742   7.257   2.724
98484W        W60015  12.695  40.488   2.791
98485W        W60016  44.413  14.243  13.436
98486W        W60017  44.390  13.673  13.480
98487W        W60018  34.425   3.768  11.114
98488W        W60019  34.393   5.790  12.947
98489W        W60020  22.551   2.768   2.251
98490W        W60021   7.182  23.156  13.897
98491W        W60022  17.308  13.823  14.946
98492W        W60023   0.391  43.434   0.887
98493W        W60024  17.268  33.587   0.368
98494W        W60025   4.373  13.747   3.383
98495W        W60026   4.733   1.257  14.833
98496W        W60027  27.637  27.025   1.798
98497W        W60028  11.865  25.045   3.154
98498W        W60029   0.955   3.293   4.298
98499W        W60030   5.437   5.878  13.331
98500W        W60031  26.503  40.976   1.910
98501W        W60032  40.495   8.173  11.072
98502W        W60033   3.441  31.006  11.474
98503W        W60034   3.216  32.015  13.491
98504W        W60035  21.698  26.690  13.855
98505W        W60036   2.781   6.873  11.479
98506W        W60037  44.377  44.979   0.928
98507W        W60038  33.390  18.629  14.928
98508W        W60039  25.210  37.411   0.838
98509W        W60040  24.489  33.613  14.301
98510W        W60041  33.523  36.952   1.718
98511W        W60042  22.591  21.559   0.411
98512W        W60043   2.741  34.484  10.576
98513W        W60044   5.858  15.600  11.499
98514W        W60045  41.787  21.605  14.852
98515W        W60046  41.385  35.514  13.919
98516W        W60047  27.115  22.546   3.854
98517W        W60048   0.493  19.649  12.028
98518W        W60049   1.735  19.605   5.106
98519W        W60050  22.099  26.512   0.342
98520W        W60051  10.384  26.956  12.520
98521W        W60052  33.974  19.691   3.299
98522W        W60053  44.447  22.553  12.528
98523W        W60054  17.800  14.178  14.330
98524W        W60055  20.672  29.017   1.317
98525W        W60056  38.347  10.313   0.794
98526W        W60057  34.005  15.316   1.308
98527W        W60058  17.635  24.481  13.979
98528W        W60059  39.029  35.556  14.438
98529W        W60060  35.008   8.251   1.220
98530W        W60061  19.169  22.652  11.043
98531W        W60062  22.219  33.084   4.705
98532W        W60063   0.785  36.862   2.211
98533W        W60064  17.276  37.482  13.052
98534W        W60065   3.829  10.839   2.210
98535W        W60066  38.033  39.459  12.858
98536W        W60067  11.655  24.014   0.306
98537W        W60068   0.421  18.706   2.380
98538W        W60069  18.084  25.025  14.477
98539W        W60070   3.294  19.051  14.455
98540W        W60071  22.606  26.970   4.296
98541W        W60072  14.261  30.153  13.949
98542W        W60073  40.952  43.494  11.547
98543W        W60074   4.714  28.933   4.722
98544W        W60075  35.599   7.788   2.233
98545W        W60076   5.813  17.595  12.547
98546W        W60077  36.502  22.162  12.863
98547W        W60078   5.386  22.627   1.360
98548W        W60079  37.366  40.841  14.278
98549W        W60080  22.699  33.878  11.911
98550W        W60081  31.152   7.788   0.347
98551W        W60082  36.372  25.979   0.881
98552W        W60083  15.252  11.261  10.477
98553W        W60084  43.413  33.965  12.096
98554W        W60085  44.762  21.741  11.536
98555W        W60086  14.118  29.631   4.176
98556W        W60087  26.677  21.653  11.509
98557W        W60088  34.940  20.653   0.920
98558W        W60089   5.875   6.308  11.946
98559W        W60090  36.876  30.449  11.502
98560W        W60091  18.773   6.310   3.189
98561W        W60092  30.999  38.070  12.065
98562W        W60093   4.377  12.126   4.795
98563W        W60094  19.660  36.498   2.210
98564W        W60095  31.132  32.906  13.929
98565W        W60096  42.301   7.393  14.904
98566W        W60097  26.552  20.647  11.981
98567W        W60098  34.911   8.186  10.465
98568W        W60099  35.471  33.952  11.863
98569W        W60100  11.277   7.384  10.414
98570W        W60101  38.042  31.502   3.703
98571W        W60102   2.276  44.361   3.220
98572W        W60103  15.751  37.435   1.346
98573W        W60104  19.769  18.664  11.612
98574W        W60105   8.897  20.552  12.418
98575W        W60106   9.153   9.683  13.429
98576W        W60107  34.996  23.616   3.185
98577W        W60108  22.618  14.774   0.873
98578W        W60109   6.829  31.930  10.539
98579W        W60110   6.806  34.531  10.631
98580W        W60111  22.657  31.903   1.367
98581W        W60112  17.194  12.247   3.304
98582W        W60113  21.129  11.669  12.071
98583W        W60114  27.949  17.129  11.122
98584W        W60115  13.728  24.059   0.730
98585W        W60116  44.964   2.310   1.929
98586W        W60117   8.244  41.298  11.566
98587W        W60118  27.562  11.686   1.262
98588W        W60119  23.601   7.184   3.323
98589W        W60120  21.023   2.448   4.669
98590W        W60121   9.685  32.096   1.370
98591W        W60122   2.426  17.241   9.989
98592W        W60123  16.616  26.042  11.060
98593W        W60124  43.355  34.872  10.139
98594W        W60125  31.548  20.164   0.947
98595W        W60126  13.658  35.968   4.299
98596W        W60127  30.644   6.764  11.003
98597W        W60128   5.382  22.175   9.506
98598W        W60129  39.057  28.001   4.615
98599W        W60130  30.541  25.104  10.614
98600W        W60131  30.627  24.716  11.080
98601W        W60132   4.296  19.556  13.906
98602W        W60133  31.916  16.243  13.511
98603W        W60134  33.450   0.816  10.432
98604W        W60135  26.504  16.098  11.020
98605W        W60136  11.192  15.657  13.421
98606W        W60137  30.433  33.058   3.739
98607W        W60138  24.669  21.247  10.577
98608W        W60139   1.838  20.265  11.944
98609W        W60140  18.567  11.233  10.111
98610W        W60141  43.938   1.351  11.542
98611W        W60142  36.920  20.690  14.368
98612W        W60143   2.444  19.719   0.410
98613W        W60144  39.999  22.718   2.868
98614W        W60145  44.755  20.686   4.819
98615W        W60146  34.992  33.039   1.770
98616W        W60147  34.029   1.760   2.809
98617W        W60148   2.262  35.018  14.861
98618W        W60149  34.023  21.688  11.994
98619W        W60150  43.415   4.339   4.172
98620W        W60151  34.936  11.157   3.642
98621W        W60152  10.749  17.577   2.774
98622W        W60153  34.963  21.103  13.868
98623W        W60154   5.837  29.581  12.548
98624W        W60155  29.082  25.628  10.917
98625W        W60156  27.468  17.684  12.835
98626W        W60157  16.582  34.404   3.151
98627W        W60158   5.376   3.846  12.994
98628W        W60159  26.493  11.818   4.234
98629W        W60160  39.543  25.599  10.914
98630W        W60161   1.950  40.313   4.325
98631W        W60162  26.568   2.903  14.928
98632W        W60163  36.883  39.337  13.859
98633W        W60164  44.832  44.909  12.003
98634W        W60165   9.284  26.146   0.838
98635W        W60166  39.340  17.696  12.826
98636W        W60167  23.712  24.716  13.825
98637W        W60168   2.818  17.788   0.372
98638W        W60169  19.111  23.203   4.810
98639W        W60170  33.541  15.092   2.798
98640W        W60171  14.811  40.917   1.722
98641W        W60172   9.188  14.236  13.852
98642W        W60173  10.221  11.656   5.194
98643W        W60174  26.015  12.269   3.281
98644W        W60175  25.683  25.651  14.900
98645W        W60176  11.331  20.178   4.307
98646W        W60177   9.317  12.686   0.870
98647W        W60178   8.815  25.052   4.259
98648W        W60179   9.237  12.265  11.855
98649W        W60180  19.669  40.328   0.412
98650W        W60181  16.270  43.316  13.028
98651W        W60182  22.010  27.094   1.744
98652W        W60183  18.095  27.191   4.132
98653W        W60184   5.438   6.753   2.784
98654W        W60185   1.766  18.789  14.440
98655W        W60186  27.552  43.363  12.082
98656W        W60187  20.572   7.325  12.381
98657W        W60188  12.344  15.320   4.810
98658W        W60189  33.570  42.350  14.416
98659W        W60190  37.873  24.137  13.858
98660W        W60191  11.167  27.164  11.090
98661W        W60192  16.092  41.312   4.794
98662W        W60193  39.016   3.880   0.369
98663W        W60194  38.561  34.051  14.017
98664W        W60195   9.724  35.909  11.444
98665W        W60196   6.884  28.478   0.417
98666W        W60197   0.295  44.003   1.700
98667W        W60198  42.354  29.446   2.865
98668W        W60199  11.862  39.015   4.137
98669W        W60200  43.418   7.202  10.479
98670W        W60201  29.098  37.925   0.921
98671W        W60202  13.164   2.841   4.730
98672W        W60203  18.631  22.170  11.561
98673W        W60204  37.991  42.470   4.621
98674W        W60205  42.803   2.343   1.291
98675W        W60206   2.362  39.366   4.688
98676W        W60207  20.232  20.131  10.905
98677W        W60208  23.626  25.143   3.815
98678W        W60209  32.904  11.205   4.307
98679W        W60210   4.868  17.129   3.727
98680W        W60211  25.678  34.420   4.635
98681W        W60212  23.024  35.464   4.168
98682W        W60213   4.404  30.422   2.772
98683W        W60214  18.265   0.767   2.263
98684W        W60215  41.019   8.306   3.693
98685W        W60216   2.279  40.512  14.015
98686W        W60217  41.035  34.453  14.304
98687W        W60218  19.178  44.365   3.375
98688W        W60219   8.396  29.045   3.794
98689W        W60220  41.951  18.636   4.264
98690W        W60221  34.450   2.850  13.382
98691W        W60222  15.270  44.343   1.373
98692W        W60223  33.595  40.540   3.349
98693W        W60224  13.843   1.321   1.388
98694W        W60225  35.532  35.371   1.210
98695W        W60226  34.387  25.080   2.693
98696W        W60227   3.917   5.269  10.430
98697W        W60228  38.439  21.236   2.775
98698W        W60229  30.453   8.212   2.330
98699W        W60230  22.157  34.978   3.290
98700W        W60231   1.474  18.272  11.919
98701W        W60232   4.379  37.386  14.805
98702W        W60233  15.770  17.687  14.465
98703W        W60234  11.157  34.398   0.483
98704W        W60235  10.157  35.589  10.989
98705W        W60236  27.608   7.760   9.955
98706W        W60237  16.601  18.658   3.632
98707W        W60238  22.507   9.744  10.485
98708W        W60239  10.321  33.571   2.414
98709W        W60240   8.809  39.006   1.727
98710W        W60241  21.193  14.672   2.838
98711W        W60242  36.483   6.395   2.263
98712W        W60243  36.585   7.301  14.875
98713W        W60244  11.832  25.534  13.535
98714W        W60245  36.442  35.852   0.388
98715W        W60246  35.006  11.239   5.717
98716W        W60247  36.099  22.747  14.480
98717W        W60248  41.944  35.946   3.384
98718W        W60249  39.985  15.719   3.774
98719W        W60250  26.102  17.073   2.768
98720W        W60251  32.997  40.825  13.830
98721W        W60252  22.098  43.444   3.865
98722W        W60253  15.221  23.707  11.882
98723W        W60254  14.299  35.920   1.730
98724W        W60255  20.096  38.984  12.522
98725W        W60256  14.301  19.662   2.393
98726W        W60257  37.554  39.435   2.286
98727W        W60258  14.280  26.040   1.753
98728W        W60259  28.931   1.316   4.713
98729W        W60260   5.223  42.789  14.496
98730W        W60261  18.599  19.578  12.512
98731W        W60262  36.414   1.372  13.364
98732W        W60263  25.179  34.549  13.484
98733W        W60264  31.097  31.896   1.419
98734W        W60265  39.863  23.549   3.845
98735W        W60266  27.497  17.123   0.944
98736W        W60267  10.708  14.197   3.854
98737W        W60268  31.119   5.899  14.918
98738W        W60269   5.391  32.556  14.318
98739W        W60270  25.159  24.058   2.195
98740W        W60271  32.133   4.227  12.981
98741W        W60272   1.269   8.327   0.248
98742W        W60273  35.513  24.215   1.829
98743W        W60274  31.986  13.655  11.114
98744W        W60275  33.589  14.747  13.476
98745W        W60276  31.078  32.916   1.291
98746W        W60277   2.869   8.677   0.415
98747W        W60278  36.056  11.155  11.439
98748W        W60279  31.125  22.177  14.370
98749W        W60280  15.177  42.309   3.314
98750W        W60281   4.275  10.323  11.572
98751W        W60282  11.863  16.291   0.826
98752W        W60283   6.798  31.036  10.432
98753W        W60284  43.511  10.761   3.637
98754W        W60285  20.743   7.387  10.988
98755W        W60286  29.639  33.566   5.189
98756W        W60287  12.151   1.422  14.379
98757W        W60288   2.355  38.428  13.358
98758W        W60289   5.727  33.514  10.639
98759W        W60290   0.401   3.316  13.817
98760W        W60291  44.358  31.431   2.863
98761W        W60292  22.661  22.182   4.694
98762W        W60293  29.544  36.061   3.290
98763W        W60294  22.144  40.944   5.181
98764W        W60295  13.242  20.080  14.470
98765W        W60296   3.392  10.295   2.672
98766W        W60297   0.468  38.882   3.376
98767W        W60298   0.856   5.289   1.878
98768W        W60299  24.182  36.441  10.524
98769W        W60300  17.140   8.855  10.427
98770W        W60301  18.071   8.792  13.019
98771W        W60302   9.246  27.666   3.812
98772W        W60303  15.794  30.612  10.450
98773W        W60304  40.875   5.784   3.212
98774W        W60305  32.113  38.886   0.953
98775W        W60306  30.528  44.499  13.476
98776W        W60307  31.492  30.098  10.603
98777W        W60308  33.529   2.447   5.291
98778W        W60309  40.815  23.103  11.110
98779W        W60310  22.029  23.512   0.768
98780W        W60311  40.807  12.662  10.946
98781W        W60312  39.464  25.528   1.887
98782W        W60313  40.321  27.603   0.959
98783W        W60314  30.422   2.755  10.641
98784W        W60315   0.348  25.203  13.970
98785W        W60316  25.083   2.766  13.999
98786W        W60317  41.796  12.202  12.849
98787W        W60318  10.306  14.139   1.928
98788W        W60319  20.699  28.672  13.886
98789W        W60320  39.915  16.117  12.087
98790W        W60321   1.364  36.017   3.864
98791W        W60322  36.470  42.980   5.227
98792W        W60323   8.834  17.555  11.530
98793W        W60324  19.704  35.508   2.334
98794W        W60325  39.313  26.503   3.741
98795W        W60326   4.313  18.172  14.773
98796W        W60327  25.038  27.597  13.386
98797W        W60328  16.601  32.518  10.448
98798W        W60329  15.664  38.952  12.889
98799W        W60330  18.629  39.044  10.997
98800W        W60331  25.596  35.950   0.936
98801W        W60332  36.016  42.513   1.714
98802W        W60333  11.706  24.628  13.333
98803W        W60334  25.002  27.084   2.236
98804W        W60335  29.149   1.871  14.990
98805W        W60336  21.095   9.811   9.958
98806W        W60337  19.772  31.058   3.158
98807W        W60338  10.746  37.051  11.407
98808W        W60339  15.090  11.860   2.846
98809W        W60340  28.077  24.028   4.825
98810W        W60341  28.028  24.682   0.478
98811W        W60342  27.147  34.936  12.442
98812W        W60343  25.212   8.401  11.973
98813W        W60344  38.418  36.993   3.378
98814W        W60345  31.551  33.466   3.282
98815W        W60346  26.534  21.200  11.545
98816W        W60347  26.992   1.798   4.256
98817W        W60348  28.569  22.547  11.938
98818W        W60349   1.454  33.521  10.558
98819W        W60350  42.304  38.845   4.748
98820W        W60351  20.240   4.718   0.386
98821W        W60352  31.603  30.034   3.798
98822W        W60353  32.890  18.664  10.596
98823W        W60354   7.881  24.199  14.310
98824W        W60355  27.534  13.683  11.047
98825W        W60356  22.649  25.179  13.430
98826W        W60357   0.279  39.391   3.805
98827W        W60358  43.295   5.214   1.331
98828W        W60359  14.715  23.213  12.483
98829W        W60360  44.776  26.656   4.728
98830W        W60361   4.320  32.507  10.539
98831W        W60362  38.839   6.725   0.409
98832W        W60363  10.170   0.272  10.126
98833W        W60364  32.132  22.112   1.250
98834W        W60365  24.721  27.945   2.383
98835W        W60366  16.763  14.161   1.696
98836W        W60367   6.339   2.390   2.808
98837W        W60368  13.652  31.124  11.512
98838W        W60369  35.016  41.478  10.016
98839W        W60370   6.348  38.828  10.125
98840W        W60371  12.675   1.279   9.510
98841W        W60372  26.612  38.471   3.209
98842W        W60373  29.026  30.077  13.885
98843W        W60374  23.039   7.893  12.042
98844W        W60375   0.306  17.198   2.307
98845W        W60376  30.031   3.377   1.763
98846W        W60377  42.300  20.176  12.567
98847W        W60378   9.825  29.604  11.462
98848W        W60379  31.601  31.426   0.425
98849W        W60380   8.219  33.002  14.308
98850W        W60381   4.287  36.985  10.422
98851W        W60382  37.391  12.836   4.352
98852W        W60383  28.974  20.650  13.010
98853W        W60384  16.294  25.965   0.374
98854W        W60385  28.447  24.214  10.537
98855W        W60386  13.262  15.133   1.392
98856W        W60387  43.439  28.577   1.726
98857W        W60388  28.038  26.040  12.835
98858W        W60389   2.912  17.636   2.323
98859W        W60390  43.347  38.052  12.864
98860W        W60391  24.660  23.716   2.844
98861W        W60392   8.303   8.196  12.463
98862W        W60393  32.892  26.985  14.504
98863W        W60394  14.192  35.483   0.858
98864W        W60395  15.661  32.511   3.678
98865W        W60396   1.337  18.568   3.281
98866W        W60397  44.903  26.486   3.369
98867W        W60398  29.539  11.731   2.355
98868W        W60399  27.510   5.838  14.330
98869W        W60400  34.385  27.476  11.993
98870W        W60401   2.243  43.407   0.842
98871W        W60402   7.276  15.729  13.399
98872W        W60403   8.874  13.297   0.283
98873W        W60404  24.494  19.244   3.645
98874W        W60405   3.750  32.467  12.085
98875W        W60406   1.972   0.432  11.558
98876W        W60407   0.920  25.187  14.825
98877W        W60408   2.864  38.974  14.489
98878W        W60409  14.326  25.132   4.133
98879W        W60410  36.055  16.116   0.841
98880W        W60411  26.684  34.924  14.987
98881W        W60412  41.848  14.731   4.301
98882W        W60413  20.081  29.553  10.939
98883W        W60414  34.068  37.580   1.314
98884W        W60415  29.426   1.306   4.818
98885W        W60416  30.073  15.301   2.751
98886W        W60417  26.073  11.142  11.902
98887W        W60418  37.394  24.015   1.709
98888W        W60419  32.509   8.220  13.003
98889W        W60420  28.953  10.710   3.867
98890W        W60421   6.837  27.524   4.770
98891W        W60422  33.386  32.589  12.954
98892W        W60423  18.634   3.286   4.252
98893W        W60424  16.684  39.915  14.299
98894W        W60425  32.394  42.990   1.434
98895W        W60426  27.943   7.881   1.741
98896W        W60427  37.552   7.778   9.985
98897W        W60428  22.527   3.751  11.055
98898W        W60429  36.530   1.895   3.770
98899W        W60430  32.928  44.418  13.001
98900W        W60431  39.457  11.279   5.227
98901W        W60432  20.234  33.949  13.503
98902W        W60433   3.450   0.829  11.010
98903W        W60434   2.263  22.093  10.598
98904W        W60435  44.393  15.137  12.563
98905W        W60436  25.616   4.816   0.821
98906W        W60437  37.335  21.067  12.939
98907W        W60438  13.113   1.976  11.437
98908W        W60439  24.681  31.500   4.191
98909W        W60440  39.527   4.262  14.830
98910W        W60441  14.105   8.233  14.898
98911W        W60442  16.619  18.118   1.430
98912W        W60443  37.549  22.120  13.318
98913W        W60444   4.307   4.939  11.390
98914W        W60445  42.317   7.802   1.753
98915W        W60446  39.501  33.894   0.818
98916W        W60447  30.034   2.851  13.872
98917W        W60448  11.274  25.092  13.449
98918W        W60449  33.557   4.433  12.866
98919W        W60450  21.234   2.309  14.928
98920W        W60451  35.410   9.169   4.127
98921W        W60452   4.304  12.689   1.443
98922W        W60453  30.470  19.668  13.998
98923W        W60454  22.599   6.720  14.311
98924W        W60455  12.195  23.634   3.360
98925W        W60456  38.024  19.627  11.089
98926W        W60457   5.304  39.816   4.330
98927W        W60458   7.831  15.211   3.662
98928W        W60459  39.468  39.471  10.515
98929W        W60460  33.116  28.664  10.952
98930W        W60461  34.087  18.700   4.802
98931W        W60462  39.941  23.143   0.794
98932W        W60463   4.889   3.863   2.328
98933W        W60464   5.811  34.953   1.749
98934W        W60465   8.402  20.699   2.340
98935W        W60466  24.207  23.027  11.056
98936W        W60467   9.735  16.720  14.988
98937W        W60468  12.122  35.446   2.307
98938W        W60469  15.794   5.270   2.341
98939W        W60470  27.129  26.648  11.937
98940W        W60471  40.535  40.840   1.707
98941W        W60472  36.520  38.935   0.308
98942W        W60473  21.523  29.936   1.424
98943W        W60474  35.586  23.029  12.976
98944W        W60475   9.276  24.075   4.268
98945W        W60476  10.370  27.567  11.477
98946W        W60477  12.304  31.100  12.867
98947W        W60478   8.396  30.519   2.366
98948W        W60479   2.327  36.468  12.390
98949W        W60480  44.870  14.320   4.284
98950W        W60481  44.928   4.918  13.951
98951W        W60482  43.314  11.739   3.236
98952W        W60483  24.095  25.556  10.987
98953W        W60484  31.601  12.141   4.283
98954W        W60485  19.660  43.366   1.806
98955W        W60486   3.761  15.172  12.473
98956W        W60487  14.597  14.246   9.975
98957W        W60488   7.252  39.994  13.463
98958W        W60489  31.558  18.198   4.608
98959W        W60490  32.618   4.827  11.446
98960W        W60491  20.211  21.697  13.465
98961W        W60492  16.167   4.402   2.677
98962W        W60493   1.450  33.072   0.456
98963W        W60494  22.085   9.847  10.990
98964W        W60495  34.980  19.239  10.904
98965W        W60496  30.956  17.071   2.287
98966W        W60497  41.318  33.012  12.847
98967W        W60498  16.622   0.964   0.845
98968W        W60499  40.018   6.184   0.294
98969W        W60500  35.045  27.168  11.000
98970W        W60501  17.615  17.657  10.438
98971W        W60502  37.049  12.348   4.329
98972W        W60503  40.887  16.132  14.928
98973W        W60504   2.344  11.638   3.737
98974W        W60505  17.210  35.924   9.931
98975W        W60506   2.449  43.917   3.636
98976W        W60507  35.553  28.472   3.839
98977W        W60508  19.768  19.542   0.288
98978W        W60509  29.562  15.725   5.090
98979W        W60510  37.502   4.214   4.614
98980W        W60511  27.188  32.501  10.408
98981W        W60512  10.697  25.028   0.475
98982W        W60513  22.214  12.824  11.397
98983W        W60514  22.175   4.286  12.477
98984W        W60515  39.552  10.744  13.433
98985W        W60516  33.491   8.845   2.812
98986W        W60517  44.954  28.598   2.372
98987W        W60518  25.032  28.488   2.679
98988W        W60519   8.851   1.376  11.502
98989W        W60520  14.772  39.941   4.623
98990W        W60521   5.378   0.261   0.412
98991W        W60522  15.155   9.377   0.406
98992W        W60523   2.437  31.979  12.566
98993W        W60524   7.877  14.286   3.755
98994W        W60525  27.137   1.376  11.027
98995W        W60526   5.204   4.793  12.994
98996W        W60527  19.645   9.876   3.198
98997W        W60528  34.614  42.969   4.304
98998W        W60529  15.121  26.953  14.493
98999W        W60530  31.509  12.181  14.983
99000W        W60531  39.542  21.535   3.275
99001W        W60532   6.425   5.927   3.191
99002W        W60533  11.149  23.015  11.403
99003W        W60534  27.647  18.786   1.221
99004W        W60535  23.231  16.242  12.411
99005W        W60536  10.222  36.984   4.194
99006W        W60537  40.463  10.668  14.321
99007W        W60538  44.935   6.243   4.351
99008W        W60539  32.018  19.774  14.008
99009W        W60540  33.413  18.058  12.091
99010W        W60541  31.629  35.410   2.228
99011W        W60542   9.679  20.660   2.227
99012W        W60543  20.630  26.599  12.940
99013W        W60544  17.635  36.347  11.597
99014W        W60545  28.555  12.659  13.008
99015W        W60546  15.229  31.079  12.528
99016W        W60547  31.453  10.761   3.784
99017W        W60548  26.488  19.751  13.359
99018W        W60549   7.220  15.286  12.419
99019W        W60550   4.308  21.533   3.705
99020W        W60551   5.732  25.676   0.278
99021W        W60552  43.311   8.369   1.837
99022W        W60553  24.186  42.300   3.297
99023W        W60554  28.974   2.797  11.438
99024W        W60555   4.228  25.064  13.335
99025W        W60556  17.594   4.845   3.680
99026W        W60557  15.643  15.707   0.400
99027W        W60558  29.121  33.953   3.202
99028W        W60559  14.259  34.883  14.911
99029W        W60560   9.734  40.886  13.841
99030W        W60561   2.777  38.449   2.195
99031W        W60562  33.471   6.282  11.549
99032W        W60563  28.107  26.492  10.077
99033W        W60564  37.832  32.402  14.775
99034W        W60565  34.055  29.486   0.468
99035W        W60566  15.083   0.255  12.544
99036W        W60567  11.273  14.725   0.839
99037W        W60568   3.897  38.928   0.273
99038W        W60569  43.846  21.648  14.899
99039W        W60570  18.615   6.768   0.433
99040W        W60571   9.787  25.192   0.882
99041W        W60572   2.780  33.907  11.856
99042W        W60573  37.552  38.326   0.786
99043W        W60574  20.704  42.470   2.325
99044W        W60575  36.017  15.799  13.361
99045W        W60576  43.506  43.331  11.472
99046W        W60577  11.230   6.253   3.221
99047W        W60578  17.202   1.269   0.347
99048W        W60579  23.115  12.233   1.864
99049W        W60580  37.535   6.356   4.199
99050W        W60581  16.673   5.812   3.824
99051W        W60582  30.417  29.492  14.783
99052W        W60583  14.121  43.017   1.838
99053W        W60584  41.802   9.345  13.416
99054W        W60585  35.372  44.383   2.683
99055W        W60586  13.701  28.666  12.033
99056W        W60587  31.934   5.406   0.917
99057W        W60588  42.499  26.102   2.399
99058W        W60589   8.211  43.296   3.216
99059W        W60590  38.844  39.890   2.234
99060W        W60591  14.720  11.209  13.058
99061W        W60592   2.340  36.982  13.888
99062W        W60593  24.143  21.166  12.382
99063W        W60594  27.036   5.829  13.515
99064W        W60595  37.043  11.646   1.795
99065W        W60596  20.754  34.870  10.494
99066W        W60597  24.989   3.872   1.349
99067W        W60598  16.782  30.975  11.380
99068W        W60599  29.996  16.624  14.459
99069W        W60600  33.958  42.838  12.883
99070W        W60601   1.830   2.405  14.448
99071W        W60602  44.949  32.611   0.374
99072W        W60603  42.380  24.517  10.968
99073W        W60604  14.226  19.583   0.821
99074W        W60605  28.453  20.651   2.743
99075W        W60606  41.915  42.990  10.533
99076W        W60607   4.932  12.652  10.613
99077W        W60608  14.095  12.281  11.866
99078W        W60609  22.573  16.649  13.447
99079W        W60610  42.845   1.951   3.212
99080W        W60611  40.970  27.526  10.535
99081W        W60612  27.026  28.137   1.847
99082W        W60613  27.099  40.953  13.450
99083W        W60614  10.266  26.589   3.264
99084W        W60615  12.306  13.351  11.391
99085W        W60616  38.909  31.496  12.520
99086W        W60617  19.657  37.977   5.719
99087W        W60618  15.234  30.047   0.327
99088W        W60619  20.140  37.361  13.452
99089W        W60620  37.839  19.559  10.573
99090W        W60621  20.219   3.749   0.391
99091W        W60622  12.783  36.496  12.351
99092W        W60623  33.984  12.326   3.301
99093W        W60624  18.097  30.165   1.402
99094W        W60625  21.048  24.147  12.475
99095W        W60626  35.574  35.890  14.845
99096W        W60627   9.266  44.850  13.506
99097W        W60628  37.518  11.131   0.956
99098W        W60629  16.591  10.769  10.549
99099W        W60630  32.605   9.323   1.393
99100W        W60631  15.135  31.034   2.317
99101W        W60632  31.966   0.972   0.478
99102W        W60633  44.828  29.589   4.319
99103W        W60634   0.753  23.195   3.724
99104W        W60635  38.038   3.741  13.822
99105W        W60636  19.232   9.847   3.797
99106W        W60637  13.247  44.930  11.437
99107W        W60638   1.243   5.223   1.782
99108W        W60639  17.625  38.884  10.039
99109W        W60640  29.989  23.663  12.380
99110W        W60641  44.435   5.827   0.340
99111W        W60642   5.438  30.126  12.513
99112W        W60643  27.585  24.129  11.463
99113W        W60644  25.189   8.180   0.305
99114W        W60645  41.814  10.782  11.597
99115W        W60646  13.181  40.034   3.737
99116W        W60647  17.743   6.781   1.826
99117W        W60648  24.083  22.051  13.455
99118W        W60649  17.758  14.328  10.426
99119W        W60650  35.901   5.215   2.734
99120W        W60651  21.151  21.743   3.264
99121W        W60652  17.627   0.874  13.425
99122W        W60653  39.509   6.198  12.490
99123W        W60654  24.062   6.824  12.928
99124W        W60655   7.877  13.806  14.494
99125W        W60656  33.910  14.249  10.589
99126W        W60657   1.957  42.977  12.854
99127W        W60658   3.850  42.481   4.126
99128W        W60659   1.795  39.873   2.329
99129W        W60660  29.041   7.224  10.026
99130W        W60661   6.825  20.195  13.348
99131W        W60662  11.841   0.936  14.992
99132W        W60663  23.496  29.559   9.538
99133W        W60664  13.605  17.757  13.972
99134W        W60665   7.708  15.701  11.966
99135W        W60666  29.117  32.397   0.811
99136W        W60667  26.480  30.605  13.901
99137W        W60668  40.035   5.690  13.992
99138W        W60669  34.035  20.198   4.287
99139W        W60670  33.965  37.466   2.414
99140W        W60671  35.020   4.739  13.898
99141W        W60672  44.436  41.405   3.298
99142W        W60673  32.059  30.026   4.686
99143W        W60674  25.214  43.356  14.406
99144W        W60675  29.992  32.110  12.485
99145W        W60676  44.841   2.354   1.408
99146W        W60677  33.990  25.567  12.420
99147W        W60678  39.343  25.685  14.992
99148W        W60679  43.950  24.586   0.765
99149W        W60680  40.844  18.144  11.918
99150W        W60681  30.910   4.348   2.317
99151W        W60682  30.078  36.019   3.640
99152W        W60683   7.867   0.270  10.524
99153W        W60684  43.794  30.141  11.896
99154W        W60685  20.259  35.539  11.409
99155W        W60686  38.861  31.121   4.645
99156W        W60687  25.172  45.000  11.943
99157W        W60688  19.177  14.187   4.633
99158W        W60689  36.536  14.611   0.267
99159W        W60690   4.402  31.075   4.196
99160W        W60691  25.602  25.120   1.238
99161W        W60692  11.163   5.387   0.846
99162W        W60693  38.548   4.342  13.820
99163W        W60694   9.762   0.392  14.025
99164W        W60695  39.326  26.135  14.490
99165W        W60696   4.915  19.710   1.236
99166W        W60697   0.935  30.134  10.505
99167W        W60698  15.164   6.755  12.949
99168W        W60699  11.247  32.498  14.317
99169W        W60700  14.640  11.852   0.341
99170W        W60701  13.288  31.560   4.762
99171W        W60702  42.381  26.145   0.961
99172W        W60703  35.046  21.519  13.490
99173W        W60704  15.733   8.813   9.989
99174W        W60705  30.908  36.902   0.783
99175W        W60706  21.678  44.337  12.447
99176W        W60707   2.788  18.656   0.313
99177W        W60708   2.238  43.293   4.146
99178W        W60709   3.353   4.923   2.403
99179W        W60710  17.622  32.100  11.934
99180W        W60711   4.364  40.456   0.881
99181W        W60712  15.317  33.519  10.641
99182W        W60713  14.684  43.454   2.392
99183W        W60714  43.369   5.849   2.851
99184W        W60715  26.564  25.086   1.274
99185W        W60716  32.400  23.512  13.975
99186W        W60717  27.176  17.639   2.194
99187W        W60718  13.247  30.630   4.817
99188W        W60719  40.001  41.452   0.282
99189W        W60720   4.728  41.044   3.756
99190W        W60721  14.710  37.366   1.305
99191W        W60722  18.629   5.314  12.077
99192W        W60723   3.244   5.411   4.340
99193W        W60724  24.526  35.084   3.245
99194W        W60725   6.777   7.244   3.713
99195W        W60726  15.578   2.385  10.533
99196W        W60727  27.530  36.355   0.369
99197W        W60728  42.440   0.982   4.174
99198W        W60729  41.498   1.445   3.725
99199W        W60730  16.571  41.967   0.316
99200W        W60731  44.472  43.905  10.617
99201W        W60732  21.157  41.300  10.144
99202W        W60733  16.279  30.966  12.041
99203W        W60734  12.619  36.412  13.830
99204W        W60735  33.014   5.426  11.911
99205W        W60736  25.996  31.006   5.614
99206W        W60737  15.741  23.560   4.778
99207W        W60738  29.073  13.729  14.928
99208W        W60739   0.972  33.902   4.275
99209W        W60740  30.596  42.374   4.225
99210W        W60741  43.294  29.133  10.139
99211W        W60742   6.723  38.000  12.036
99212W        W60743  35.043   7.298   5.165
99213W        W60744  14.769  27.096   2.412
99214W        W60745   0.851  30.084  12.414
99215W        W60746   1.775  14.313   0.904
99216W        W60747   2.877  27.065  10.992
99217W        W60748  10.793   5.818  14.513
99218W        W60749   6.271   9.248   4.775
99219W        W60750   5.225  19.656   0.771
99220W        W60751  26.535  25.490  10.510
99221W        W60752   9.853  25.520   2.278
99222W        W60753   7.778  26.490  10.011
99223W        W60754  25.004  12.673  10.938
99224W        W60755  10.821   1.921   1.437
99225W        W60756  29.012  40.860   2.871
99226W        W60757  14.596  16.195   2.366
99227W        W60758  29.048   4.827   1.321
99228W        W60759  14.663  30.608  12.881
99229W        W60760  35.435  13.263   1.913
99230W        W60761  21.704   5.368   1.915
99231W        W60762  16.710  20.754   3.680
99232W        W60763  20.075   3.236  11.868
99233W        W60764  35.463  26.086  11.550
99234W        W60765  36.401  34.025  13.015
99235W        W60766  20.588  42.880   3.284
99236W        W60767  42.961  10.873  10.641
99237W        W60768  30.082  20.613  14.508
99238W        W60769   8.722   4.714   1.350
99239W        W60770  39.904  15.221   0.324
99240W        W60771  17.609  16.676  10.528
99241W        W60772  10.683  35.517   1.412
99242W        W60773  18.283  42.405  14.432
99243W        W60774  15.807  41.955  10.954
99244W        W60775  40.531  39.356   3.333
99245W        W60776   5.378   8.816   2.366
99246W        W60777  18.564  40.540   2.806
99247W        W60778  22.662  16.584  13.913
99248W        W60779  28.117  17.122  12.840
99249W        W60780  16.240  44.985  12.474
99250W        W60781  35.364  21.617  10.978
99251W        W60782  29.611  11.342  14.319
99252W        W60783  40.039  28.653   2.875
99253W        W60784  37.409  14.748  14.285
99254W        W60785  24.072  36.013  14.996
99255W        W60786  34.502  25.168  14.030
99256W        W60787  43.899  24.570  11.537
99257W        W60788  27.950  36.593   3.649
99258W        W60789  29.127  20.199   0.789
99259W        W60790   8.816  17.667   2.671
99260W        W60791   9.156  40.478  13.877
99261W        W60792  25.090  39.357  13.944
99262W        W60793  21.190  20.109  13.954
99263W        W60794  17.229  33.489  11.481
99264W        W60795   4.932  37.956   1.402
99265W        W60796  33.608  14.722  10.132
99266W        W60797  13.281  18.628  10.902
99267W        W60798   1.896   6.862   3.648
99268W        W60799   4.791  27.614   1.795
99269W        W60800  27.537  11.163  14.828
99270W        W60801  25.481  22.199   1.704
99271W        W60802  13.640  41.362   3.831
99272W        W60803  35.043   0.405  13.854
99273W        W60804  14.813  43.472  14.927
99274W        W60805  12.289   8.685  11.924
99275W        W60806  32.600   6.802   0.815
99276W        W60807  33.125   7.890   0.856
99277W        W60808  29.983   0.922  11.124
99278W        W60809  33.882  25.648   0.877
99279W        W60810  16.120  42.871   1.210
99280W        W60811  23.619  20.148  12.521
99281W        W60812  10.223  20.552   0.283
99282W        W60813  26.667  11.688  13.381
99283W        W60814  44.502  14.136   2.388
99284W        W60815  24.159  39.323   3.678
99285W        W60816   2.803  30.960  11.381
99286W        W60817  26.206  42.854   2.344
99287W        W60818   8.348  20.658   4.170
99288W        W60819   3.332  26.038  11.119
99289W        W60820   5.261  32.932   4.738
99290W        W60821  29.650   7.315   0.280
99291W        W60822  34.380  23.010   3.289
99292W        W60823   9.179  13.740  13.841
99293W        W60824   8.340  11.646   1.856
99294W        W60825  13.648   2.893   4.668
99295W        W60826   6.325  29.988  12.071
99296W        W60827  33.514  19.277   1.293
99297W        W60828   1.929   1.321  10.413
99298W        W60829  14.592  14.171   3.383
99299W        W60830   3.814  26.183   2.322
99300W        W60831  37.974   2.821  12.991
99301W        W60832  34.609  15.688  11.393
99302W        W60833  22.539  16.299   0.887
99303W        W60834  18.146  18.774   0.964
99304W        W60835   4.403  39.520   2.674
99305W        W60836  11.788  42.385   3.248
99306W        W60837  19.538  33.507   2.264
99307W        W60838  29.607   6.336  11.584
99308W        W60839  23.676  24.530   1.361
99309W        W60840  39.973  30.973  13.982
99310W        W60841   4.839  34.891  13.314
99311W        W60842   2.859  21.241   3.760
99312W        W60843  20.573  44.992   2.767
99313W        W60844  30.511  10.703  12.887
99314W        W60845  32.477  13.329  11.438
99315W        W60846  13.667   5.761   4.252
99316W        W60847  30.955  31.989   5.288
99317W        W60848  28.504  15.251   1.751
99318W        W60849  32.399  24.572   3.378
99319W        W60850  25.568  44.395  14.821
99320W        W60851  44.879  24.549   3.829
99321W        W60852   8.867  43.480  13.504
99322W        W60853   2.388  28.564  14.286
99323W        W60854  25.697   7.751   0.835
99324W        W60855  16.201  41.412   3.182
99325W        W60856  14.601  22.149   3.708
99326W        W60857  22.026  10.327  14.767
99327W        W60858  32.965  28.489  12.349
99328W        W60859  26.018  39.031  10.443
99329W        W60860  37.831  34.503   4.295
99330W        W60861   5.792  24.143   4.238
99331W        W60862  20.730  33.601   1.750
99332W        W60863  33.968  10.680   2.681
99333W        W60864  31.098  28.060   9.940
99334W        W60865  17.109  14.099  10.627
99335W        W60866  37.517  42.402  12.012
99336W        W60867  14.326  11.339  13.350
99337W        W60868  37.569  25.043  12.982
99338W        W60869  16.270  16.130   0.861
99339W        W60870  34.416   0.415  14.841
99340W        W60871  33.103  42.447  13.379
99341W        W60872   8.768  17.088  11.066
99342W        W60873  34.407  42.011   5.159
99343W        W60874  13.731  10.199  11.969
99344W        W60875   1.257  38.851  13.812
99345W        W60876  25.658  11.628   2.691
99346W        W60877  23.027  10.677  12.039
99347W        W60878  40.436   1.448  12.417
99348W        W60879  11.768   8.779   2.383
99349W        W60880  37.079  34.479  12.468
99350W        W60881  37.860   7.352  10.530
99351W        W60882   3.230  23.137   3.148
99352W        W60883  23.660  28.123   3.199
99353W        W60884  36.580  34.500   2.664
99354W        W60885  37.372   0.837  13.919
99355W        W60886  18.777  22.724  11.877
99356W        W60887  39.375  12.140  14.948
99357W        W60888  39.912  33.065   2.222
99358W        W60889   6.826  44.940  11.075
99359W        W60890  39.420  11.623   1.442
99360W        W60891  23.530  44.756  14.351
99361W        W60892  12.268   4.830   4.159
99362W        W60893   1.285  41.886   2.881
99363W        W60894  14.835  10.656   1.815
99364W        W60895  35.011  44.919   4.144
99365W        W60896   2.829  21.263   1.898
99366W        W60897  22.116   5.248  14.934
99367W        W60898  19.542  20.071  13.513
99368W        W60899  43.889   9.303   1.364
99369W        W60900  23.238  41.494  11.380
99370W        W60901  36.972  36.526   4.165
99371W        W60902  10.150  15.786   1.430
99372W        W60903  39.515  12.279   3.200
99373W        W60904  11.222  29.621   0.446
99374W        W60905  10.675   7.289   3.369
99375W        W60906  36.562  38.000   2.771
99376W        W60907  39.959   2.805   2.810
99377W        W60908  44.977   3.873   3.630
99378W        W60909   0.302  39.544   2.710
99379W        W60910   2.769  44.496   4.279
99380W        W60911  13.278  43.459  12.431
99381W        W60912  16.726  42.337  10.896
99382W        W60913  20.166  44.767   3.676
99383W        W60914  14.301  36.366  10.605
99384W        W60915  15.228  20.039  11.490
99385W        W60916  41.471  27.008   2.679
99386W        W60917  16.697  31.937  13.962
99387W        W60918  12.778  33.960   0.759
99388W        W60919  31.547  26.620   4.291
99389W        W60920  26.600  44.260   5.311
99390W        W60921  25.115  33.894   4.139
99391W        W60922   9.208  10.667   2.727
99392W        W60923   7.781  32.134  10.961
99393W        W60924  13.844  30.154   0.920
99394W        W60925  37.840  40.052  13.796
99395W        W60926   0.866  39.544   0.879
99396W        W60927  10.828  34.490  11.461
99397W        W60928  25.691  40.000   9.998
99398W        W60929  11.277  31.520   2.775
99399W        W60930  36.543  16.280   4.183
99400W        W60931  36.095   5.435  14.352
99401W        W60932   7.407  21.233   5.205
99402W        W60933  25.496  36.578  10.510
99403W        W60934  22.619  40.483   0.788
99404W        W60935  40.326  42.433   3.680
99405W        W60936  32.897  26.151   2.325
99406W        W60937  25.690  43.844   1.726
99407W        W60938   1.337  14.183   4.168
99408W        W60939  32.081  33.478   0.918
99409W        W60940  39.051  20.186  13.458
99410W        W60941  37.861  35.909  14.775
99411W        W60942   9.268  10.342   0.316
99412W        W60943  28.639  17.192   1.872
99413W        W60944  40.831  12.319   2.225
99414W        W60945   7.889  26.165  12.390
99415W        W60946  21.749  23.634   1.698
99416W        W60947   2.823  36.031   0.374
99417W        W60948   7.315  42.798   0.841
99418W        W60949  27.998   8.180  11.985
99419W        W60950  22.636  18.218   4.168
99420W        W60951  38.478  17.793   2.337
99421W        W60952  26.006  37.995   4.653
99422W        W60953  15.793  39.420  11.465
99423W        W60954  21.185  16.303  10.951
99424W        W60955  42.823  10.694   2.896
99425W        W60956  32.955   6.225   2.405
99426W        W60957  41.801  13.742   3.301
99427W        W60958  19.098  38.418   5.702
99428W        W60959  43.306   4.736  14.960
99429W        W60960  23.152  19.182  13.540
99430W        W60961  44.343  31.506  10.055
99431W        W60962  27.187  24.548   1.805
99432W        W60963   6.184  13.621   4.655
99433W        W60964  28.989  10.153  11.561
99434W        W60965   6.293  40.999  10.500
99435W        W60966  23.680   9.341  13.891
99436W        W60967  26.570  27.677   1.409
99437W        W60968  34.085   3.320  14.967
99438W        W60969  16.139  42.777   4.316
99439W        W60970  21.543   8.325   0.243
99440W        W60971  33.095  42.896  11.042
99441W        W60972  28.535  19.167   0.323
99442W        W60973  17.207   8.297  13.417
99443W        W60974   2.274  25.496  13.836
99444W        W60975  17.563   2.313   3.310
99445W        W60976   1.398  18.144   3.246
99446W        W60977  41.502  11.293   1.872
99447W        W60978  26.952  10.340   3.761
99448W        W60979  43.435   6.876  11.072
99449W        W60980  39.993  10.717   9.941
99450W        W60981  35.864   0.883   0.347
99451W        W60982   7.232  43.439  12.016
99452W        W60983  28.056  37.386   1.928
99453W        W60984  25.025  34.431   4.246
99454W        W60985  14.161  37.930  14.011
99455W        W60986  11.645  12.766  14.465
99456W        W60987  15.694   4.413   3.700
99457W        W60988  44.759  10.802  10.974
99458W        W60989  28.552  34.386   4.663
99459W        W60990  40.938   8.270   4.305
99460W        W60991   6.790  23.579  12.415
99461W        W60992  12.676  42.436   1.700
99462W        W60993   2.309  12.170   3.290
99463W        W60994  10.183  30.499   1.824
99464W        W60995  44.802  32.919  11.371
99465W        W60996   9.765  26.115   3.722
99466W        W60997  31.104  40.007  11.122
99467W        W60998  40.799  23.108   1.383
99468W        W60999  11.745   5.304  12.455
99469W        W61000   7.728  31.406  12.025
99470W        W61001  37.419  10.262   0.862
99471W        W61002  31.421  24.716   2.864
99472W        W61003  16.738   8.203   1.435
99473W        W61004  20.138  28.666  12.498
99474W        W61005  24.200  22.080   0.276
99475W        W61006  36.879  17.785  14.780
99476W        W61007  34.444  20.657   2.250
99477W        W61008  24.028  14.272  14.418
99478W        W61009  39.408  23.100   0.966
99479W        W61010  22.593  38.506   2.221
99480W        W61011  28.632  19.697  14.472
99481W        W61012   0.388   6.365  13.531
99482W        W61013  26.510  35.428  12.497
99483W        W61014  26.610  41.028   0.394
99484W        W61015  31.077   9.268  13.411
99485W        W61016   7.667  26.170  14.392
99486W        W61017  42.524  23.073  14.488
99487W        W61018  14.736  44.914   0.285
99488W        W61019  27.566  42.455  11.556
99489W        W61020  24.117  27.646   0.728
99490W        W61021  34.893   3.451   0.804
99491W        W61022   2.794  18.288   0.742
99492W        W61023   7.879  24.478   1.752
99493W        W61024  41.898  14.771  11.948
99494W        W61025  10.181  21.192   1.790
99495W        W61026  37.420  27.166   2.242
99496W        W61027  11.786  31.587  12.032
99497W        W61028  17.752  22.647  13.312
99498W        W61029  28.443   6.288  11.525
99499W        W61030  44.453  36.929  14.896
99500W        W61031  29.159  18.676  14.941
99501W        W61032  35.523  31.475  11.000
99502W        W61033   9.863   8.690  11.428
99503W        W61034  27.475  13.721  14.850
99504W        W61035  23.101   9.736  11.525
99505W        W61036  29.516  32.892  14.848
99506W        W61037   3.840  38.538   1.414
99507W        W61038  12.696   2.265  13.412
99508W        W61039  19.218  26.078   3.355
99509W        W61040   6.909   4.272   0.366
99510W        W61041  21.530  40.512   3.641
99511W        W61042  30.641   2.450  14.337
99512W        W61043  38.860  20.100  14.370
99513W        W61044  33.595   7.856  11.992
99514W        W61045  41.991  13.304   4.255
99515W        W61046   8.307   1.374  13.849
99516W        W61047  43.933  21.107   2.381
99517W        W61048  20.751  22.678  12.922
99518W        W61049   6.299   3.323   4.236
99519W        W61050  24.086  10.701   3.208
99520W        W61051  22.996  33.888   2.847
99521W        W61052  23.047  15.289   3.172
99522W        W61053  39.030  21.119   1.787
99523W        W61054  39.400  38.414  10.978
99524W        W61055  25.157  41.918  13.965
99525W        W61056  39.441  32.100  11.866
99526W        W61057  23.588  22.632  11.556
99527W        W61058  33.998  28.453  12.505
99528W        W61059  32.992  13.677   5.149
99529W        W61060  28.945  39.554   1.295
99530W        W61061   4.440  11.223   2.256
99531W        W61062  40.494  36.844   1.283
99532W        W61063   1.404   7.867   0.390
99533W        W61064  15.608  28.669  13.412
99534W        W61065  19.535   6.389  13.328
99535W        W61066  34.508  29.035  13.056
99536W        W61067  35.074  39.349  10.626
99537W        W61068  30.069  41.475   2.690
99538W        W61069  35.067  18.166  14.331
99539W        W61070   9.727  25.037   4.667
99540W        W61071  42.295   6.830  14.316
99541W        W61072  43.414  43.892  11.869
99542W        W61073  23.094  12.143  12.091
99543W        W61074  14.806   9.391   3.633
99544W        W61075  11.784  16.282  13.807
99545W        W61076  23.628  42.882  10.617
99546W        W61077  36.967   4.824   4.169
99547W        W61078  36.059  42.311   0.419
99548W        W61079   5.751  33.439   1.236
99549W        W61080  31.945  38.333  14.987
99550W        W61081   6.890   6.255   1.254
99551W        W61082  21.135  19.746   5.230
99552W        W61083  38.975   1.282   3.232
99553W        W61084  17.566  10.161   4.115
99554W        W61085   4.342  43.414  12.833
99555W        W61086  11.847  30.560  10.156
99556W        W61087  42.841  23.202  10.940
99557W        W61088   0.921   6.702   3.264
99558W        W61089  36.574  41.527   3.245
99559W        W61090  26.980  44.856   3.793
99560W        W61091  26.670  24.977  11.460
99561W        W61092  32.113  31.413   0.395
99562W        W61093   6.858  15.098  11.053
99563W        W61094  13.303  26.156   3.686
99564W        W61095   1.238  10.837  11.566
99565W        W61096  43.794  19.091   0.435
99566W        W61097   2.337  44.988   2.414
99567W        W61098  38.531  39.335  11.986
99568W        W61099  32.439  43.368  14.418
99569W        W61100  36.412  21.213   1.700
99570W        W61101  36.859   8.344  10.981
99571W        W61102  34.077  43.959   1.336
99572W        W61103   4.336  34.561  12.528
99573W        W61104  23.056  19.208  11.451
99574W        W61105  17.136   2.406   2.204
99575W        W61106  33.401  43.430   3.633
99576W        W61107  32.008  25.027  10.472
99577W        W61108  13.173  36.866  14.911
99578W        W61109  14.306  17.159   2.217
99579W        W61110  14.174  11.316   3.374
99580W        W61111  10.186  18.092  14.397
99581W        W61112  33.052  31.423   1.910
99582W        W61113  12.795   0.273  14.920
99583W        W61114  15.608  10.340   3.742
99584W        W61115  27.110  24.109   2.811
99585W        W61116  13.151  19.706   4.197
99586W        W61117  36.390  31.996   3.314
99587W        W61118  31.617  37.380  11.899
99588W        W61119  43.414  21.257  10.460
99589W        W61120  38.867  39.316   0.481
99590W        W61121  25.110   1.349   0.736
99591W        W61122   6.313  12.673  13.529
99592W        W61123  15.584  41.505  11.422
99593W        W61124  41.947  12.670   9.969
99594W        W61125  32.584  22.682  10.465
99595W        W61126  38.001  23.722   0.436
99596W        W61127  21.046  17.069   1.451
99597W        W61128  27.197   1.844  11.006
99598W        W61129  41.825  12.284   4.734
99599W        W61130  27.115  21.669  13.879
99600W        W61131   2.396   2.858   1.815
99601W        W61132  21.160  43.825   4.346
99602W        W61133   4.415  12.689  14.929
99603W        W61134  26.115  22.617   3.779
99604W        W61135  21.675  34.600   1.220
99605W        W61136  16.195   9.870  12.411
99606W        W61137   8.720  16.262   2.846
99607W        W61138  28.154  24.712   2.847
99608W        W61139  12.304  35.367   0.278
99609W        W61140  41.922  30.017   1.306
99610W        W61141  33.098  42.831  11.424
99611W        W61142  28.940   2.461  13.950
99612W        W61143  28.965  38.335   3.213
99613W        W61144  43.771  34.964  13.061
99614W        W61145  35.967  41.027  13.943
99615W        W61146  31.016   9.227   2.295
99616W        W61147  11.821   4.739   2.900
99617W        W61148  10.796   2.471   0.862
99618W        W61149  25.506  43.291   4.730
99619W        W61150  24.637  11.688  12.468
99620W        W61151  38.346   8.732   1.399
99621W        W61152   2.371   7.408   3.331
99622W        W61153   5.195  34.978  11.912
99623W        W61154  11.781  21.636   9.957
99624W        W61155  10.872   0.420   2.185
99625W        W61156  26.179   7.899  12.478
99626W        W61157   9.692  37.463   1.212
99627W        W61158  23.036   4.331  10.444
99628W        W61159  28.540  14.764   4.269
99629W        W61160  38.362  37.894  12.347
99630W        W61161   6.760  31.140  11.860
99631W        W61162  21.599  36.027   4.344
99632W        W61163  38.468  34.104  13.344
99633W        W61164  22.061  42.358   0.851
99634W        W61165  44.903  14.199   2.874
99635W        W61166  43.276  17.703   2.761
99636W        W61167  10.787   0.849  14.894
99637W        W61168  14.306  25.606   2.888
99638W        W61169  36.403  22.545  11.867
99639W        W61170  22.185  14.745  12.371
99640W        W61171  12.328  32.938  13.843
99641W        W61172  31.982   1.755  13.912
99642W        W61173  34.610   4.744   2.277
99643W        W61174  12.260  36.994  12.914
99644W        W61175  32.939  44.414  11.520
99645W        W61176  30.021   8.160   2.186
99646W        W61177  43.785  32.393  14.503
99647W        W61178   7.390  32.103   3.384
99648W        W61179   2.913  21.727  13.944
99649W        W61180   9.776  27.486  11.094
99650W        W61181  35.401  39.414   2.736
99651W        W61182  37.983   6.290   0.467
99652W        W61183   6.330  26.626   0.305
99653W        W61184  16.235  33.129  11.495
99654W        W61185   4.730  28.088   4.241
99655W        W61186  27.503   6.906  14.789
99656W        W61187   6.717  21.652   4.688
99657W        W61188   7.257  33.937   1.746
99658W        W61189  16.118   3.826   4.145
99659W        W61190  42.861  16.168   3.366
99660W        W61191  44.470  37.890   1.798
99661W        W61192  42.873  36.391   3.296
99662W        W61193  34.549   5.387  10.991
99663W        W61194  17.069  15.666   3.346
99664W        W61195  23.017  25.098   5.260
99665W        W61196  10.814   3.448   1.740
99666W        W61197   4.273  24.684  13.409
99667W        W61198   1.402  12.157  12.430
99668W        W61199  20.271  11.766  14.771
99669W        W61200  32.467  29.574   1.894
99670W        W61201   1.296  38.948  10.449
99671W        W61202   3.400   7.243  11.449
99672W        W61203   1.907  30.930  11.478
99673W        W61204  16.113   6.215   0.835
99674W        W61205  34.937   7.362   1.797
99675W        W61206  21.144   1.304   0.446
99676W        W61207  27.682  32.509  11.420
99677W        W61208  22.514  37.011  11.971
99678W        W61209  33.456  14.274  13.504
99679W        W61210  39.511  18.212  10.988
99680W        W61211   8.897   4.792   5.122
99681W        W61212  14.755  32.593   2.756
99682W        W61213   3.233  31.466   3.782
99683W        W61214   4.276  30.933   2.852
99684W        W61215  39.476  11.739  10.902
99685W        W61216  44.340  24.158  13.011
99686W        W61217  26.492  40.372   5.126
99687W        W61218  30.084  23.069   2.326
99688W        W61219  12.854  32.505  10.919
99689W        W61220  38.510  31.477  12.887
99690W        W61221  32.006  32.519   0.825
99691W        W61222  24.139  38.328   0.362
99692W        W61223  31.040  40.520   2.696
99693W        W61224  33.100  21.234   3.649
99694W        W61225  44.315  25.080  14.292
99695W        W61226  40.338  44.368   3.290
99696W        W61227  35.499  37.408  14.471
99697W        W61228   7.902   8.789  13.063
99698W        W61229  38.476  36.857  13.999
99699W        W61230  41.005  16.175  12.903
99700W        W61231   3.339   7.900   1.755
99701W        W61232  11.141   1.926  11.554
99702W        W61233  43.779  19.255  14.881
99703W        W61234   9.225  36.549   2.853
99704W        W61235   8.171  37.507  11.594
99705W        W61236   8.710  32.574  14.875
99706W        W61237  24.103  22.555  14.317
99707W        W61238   6.353   0.323   3.766
99708W        W61239   7.325  38.467   1.890
99709W        W61240  15.618   1.848   3.360
99710W        W61241  32.409  25.060  11.474
99711W        W61242   4.305   0.393  14.309
99712W        W61243  33.116  26.122  13.963
99713W        W61244  16.683   7.403  12.862
99714W        W61245  10.802  43.442   4.306
99715W        W61246  40.808  31.122  13.988
99716W        W61247  32.519  30.642  12.824
99717W        W61248   6.775  18.717   1.785
99718W        W61249  28.130  24.485  13.004
99719W        W61250  19.679  26.565   4.677
99720W        W61251  28.156   8.655   3.835
99721W        W61252  13.841   8.710   1.769
99722W        W61253  11.266  25.990  13.546
99723W        W61254  39.980   7.302   0.754
99724W        W61255  17.598  38.556   4.764
99725W        W61256  17.648  12.663  13.483
99726W        W61257  16.122  20.654   2.726
99727W        W61258   1.353  21.569   0.469
99728W        W61259   8.885  12.244  10.423
99729W        W61260   9.834   5.391  12.498
99730W        W61261   4.929  33.556   3.207
99731W        W61262  19.645  18.212   4.340
99732W        W61263  21.140  30.982   0.284
99733W        W61264  29.176   0.457   2.314
99734W        W61265  44.863  42.798   2.413
99735W        W61266  30.913  23.112  12.843
99736W        W61267  12.172   8.817   0.462
99737W        W61268  36.056  16.617  14.999
99738W        W61269   8.868  37.881  14.962
99739W        W61270   4.321  25.174  14.939
99740W        W61271  18.785   0.341   3.827
99741W        W61272  35.922  28.977   1.358
99742W        W61273  22.200  26.670  11.991
99743W        W61274  37.929  11.793  13.906
99744W        W61275  32.958   9.337  14.379
99745W        W61276  16.748  21.680   1.257
99746W        W61277  20.753  28.479  12.092
99747W        W61278  27.094  37.020  13.882
99748W        W61279  44.395  18.238  14.784
99749W        W61280  25.485  24.524   4.174
99750W        W61281   5.824  17.780  14.280
99751W        W61282   9.715  18.682   3.671
99752W        W61283  36.366  41.492   1.215
99753W        W61284  41.379  35.598  11.003
99754W        W61285   1.799  16.655  14.780
99755W        W61286  23.007  39.046   3.239
99756W        W61287  23.616   3.758   0.270
99757W        W61288  19.683  38.038   2.270
99758W        W61289   5.331  27.501   0.937
99759W        W61290   4.775  30.968   1.285
99760W        W61291  16.755  21.125   3.342
99761W        W61292  26.058  15.667  12.407
99762W        W61293  37.889  39.505  13.895
99763W        W61294   9.818  29.600   1.405
99764W        W61295  17.648   4.770   2.371
99765W        W61296  35.597  30.104  12.392
99766W        W61297   8.395  29.542  14.328
99767W        W61298  34.915   8.235  11.574
99768W        W61299  15.221  27.487  11.522
99769W        W61300  19.713  29.117  13.870
99770W        W61301   5.808  14.630   1.925
99771W        W61302  13.258  18.206  10.499
99772W        W61303  22.110  23.562  13.462
99773W        W61304  37.567  31.519  13.976
99774W        W61305  27.672  37.911  11.593
99775W        W61306  27.093   8.349   5.731
99776W        W61307  22.075   0.898  13.853
99777W        W61308  43.885   2.452   4.323
99778W        W61309  12.811   4.706  10.520
99779W        W61310  31.012  40.488  14.790
99780W        W61311  44.336  23.667  10.947
99781W        W61312  14.334  24.572   4.342
99782W        W61313  39.351  14.298   1.330
99783W        W61314  26.985  14.734  13.862
99784W        W61315   7.248  40.444   1.909
99785W        W61316  42.840  34.527   3.854
99786W        W61317  23.650  36.906   3.173
99787W        W61318  32.524   4.783  14.008
99788W        W61319   9.182  16.573   3.760
99789W        W61320  15.615  43.919   3.719
99790W        W61321  30.956  27.990   4.316
99791W        W61322  42.328  15.217  14.500
99792W        W61323  28.156   5.815   4.715
99793W        W61324  14.677  28.073   4.238
99794W        W61325  20.272   3.408   3.338
99795W        W61326  31.095   2.321  14.792
99796W        W61327  16.663  26.156  11.395
99797W        W61328  44.304  25.186  13.011
99798W        W61329  15.186  43.935  13.894
99799W        W61330  37.560  17.781   4.657
99800W        W61331  24.537  42.781  13.834
99801W        W61332  35.406   5.815  11.951
99802W        W61333  31.643  41.015   2.734
99803W        W61334  33.473  17.215   9.507
99804W        W61335  26.963  11.322  13.438
99805W        W61336   9.857  25.173   3.868
99806W        W61337  35.604  27.114  14.326
99807W        W61338  33.607  16.679   1.306
99808W        W61339  35.094  35.966  10.630
99809W        W61340  20.192  39.954  12.388
99810W        W61341  13.637   2.319  10.990
99811W        W61342  36.002  20.605   3.785
99812W        W61343  21.089  19.087  14.441
99813W        W61344   4.803   2.858   2.837
99814W        W61345   0.343  25.494  11.544
99815W        W61346  25.604  43.923   3.784
99816W        W61347   6.334  29.134   4.327
99817W        W61348  30.493  14.713  11.955
99818W        W61349   4.780  17.229   2.269
99819W        W61350  35.388   3.929   3.776
99820W        W61351  33.465  11.294   4.821
99821W        W61352  12.241  23.204  13.974
99822W        W61353  40.332  25.170  11.118
99823W        W61354  38.509  42.993   5.183
99824W        W61355  20.768  13.820  12.444
99825W        W61356  28.087  32.127  10.641
99826W        W61357  19.631  15.697   0.277
99827W        W61358  18.604  26.678   2.849
99828W        W61359  30.119   9.384   2.684
99829W        W61360  22.740  28.604   1.318
99830W        W61361  43.816  10.685  13.462
99831W        W61362  20.592   4.403   3.644
99832W        W61363  42.961  41.415  12.921
99833W        W61364   8.696  39.325   4.150
99834W        W61365  24.497  30.020   3.314
99835W        W61366  15.265   1.303  13.032
99836W        W61367   8.762  44.346   5.320
99837W        W61368  10.765  34.989   3.836
99838W        W61369   2.761  40.315   3.302
99839W        W61370   2.764   5.739   2.205
99840W        W61371  10.226  32.926   0.246
99841W        W61372  27.107  39.851   1.859
99842W        W61373  16.158  10.224  14.480
99843W        W61374  19.607  20.670  12.526
99844W        W61375  37.075  26.525  13.402
99845W        W61376  17.684  36.420   0.909
99846W        W61377  40.534  22.537   5.294
99847W        W61378  26.612   9.220  14.761
99848W        W61379   6.346   3.350  13.493
99849W        W61380   6.734  14.779  13.883
99850W        W61381  41.799  11.194  13.312
99851W        W61382  27.562  23.196   2.382
99852W        W61383  35.603  27.171   0.872
99853W        W61384  16.659   0.797   4.635
99854W        W61385  17.160   3.290   3.195
99855W        W61386  33.500  31.908  14.873
99856W        W61387   5.722  23.568  13.451
99857W        W61388  31.929  14.151  12.066
99858W        W61389  18.733  25.505   4.771
99859W        W61390  21.053   0.450   0.815
99860W        W61391  34.492  36.550   2.820
99861W        W61392  18.236  30.519  11.121
99862W        W61393  13.249  23.139  12.944
99863W        W61394  39.944  40.527   0.282
99864W        W61395  43.978  44.767  12.959
99865W        W61396   1.924  11.212  12.095
99866W        W61397  11.829  43.994   0.428
99867W        W61398  44.976  18.216   0.363
99868W        W61399  19.151  19.589   3.703
99869W        W61400  16.802  41.911   1.874
99870W        W61401  22.592  34.439   2.897
99871W        W61402   3.820  22.607   0.961
99872W        W61403  38.337   4.315   4.795
99873W        W61404  30.926  17.692  14.817
99874W        W61405   9.270  15.727  11.869
99875W        W61406  26.073  26.603  10.975
99876W        W61407  37.409  22.538  10.440
99877W        W61408  44.923  32.523  10.422
99878W        W61409  22.618  41.891  14.401
99879W        W61410   6.371  14.111   2.406
99880W        W61411   3.361  36.081  14.386
99881W        W61412   3.742  17.593   1.861
99882W        W61413  39.427  11.188   3.213
99883W        W61414  27.660  16.160  13.897
99884W        W61415  25.025   6.354  14.934
99885W        W61416  37.410   7.676  12.905
99886W        W61417  18.647  30.491  10.982
99887W        W61418   1.789  39.989  13.441
99888W        W61419  43.819   3.290  10.537
99889W        W61420  32.624  17.180   0.949
99890W        W61421  20.203  39.044   3.706
99891W        W61422  13.844  33.093  10.608
99892W        W61423   5.777   0.319  12.384
99893W        W61424  33.514  29.114  13.931
99894W        W61425  26.521  11.852   3.664
99895W        W61426  20.069  32.609  12.925
99896W        W61427  30.923  40.861  14.337
99897W        W61428  41.527  30.090   4.151
99898W        W61429  38.476   8.869   3.867
99899W        W61430  28.019  42.478   4.219
99900W        W61431  33.038  39.362  14.938
99901W        W61432  28.186  11.333   2.254
99902W        W61433  22.101   2.928   4.738
99903W        W61434  14.157  29.168  13.801
99904W        W61435   6.294  13.232  12.896
99905W        W61436  31.060  38.477  12.048
99906W        W61437  15.594  26.642   0.797
99907W        W61438  40.523  18.225   4.299
99908W        W61439  30.600  39.856  12.037
99909W        W61440  13.654  39.461   0.327
99910W        W61441   5.918  23.496  11.382
99911W        W61442  30.153  28.145   1.878
99912W        W61443  19.245  18.571   3.351
99913W        W61444  30.986  25.599   1.211
99914W        W61445   9.396  34.481  12.356
99915W        W61446  13.215  40.519  14.990
99916W        W61447  29.506   9.783   5.303
99917W        W61448   9.354  12.209  12.477
99918W        W61449  27.509  37.509   3.791
99919W        W61450  42.345  41.344  11.588
99920W        W61451  40.964  40.505  11.382
99921W        W61452  38.506   3.883  13.390
99922W        W61453  22.239  10.811   3.226
99923W        W61454  21.511  26.076   2.274
99924W        W61455  41.856  13.319  10.544
99925W        W61456  10.255  18.769   3.346
99926W        W61457  30.935  33.475  10.097
99927W        W61458  19.534  25.548   4.170
99928W        W61459  21.722  16.634   1.223
99929W        W61460  43.479   7.209   3.317
99930W        W61461  31.136  32.929   2.845
99931W        W61462  25.507   1.786  13.308
99932W        W61463  39.370  37.535   1.362
99933W        W61464  25.219   9.847   1.868
99934W        W61465  26.147  20.216   1.890
99935W        W61466  43.363  25.489   3.699
99936W        W61467  18.641  44.856   2.381
99937W        W61468  42.993  24.553  12.467
99938W        W61469  27.557  23.626  12.877
99939W        W61470  36.014  38.509  11.404
99940W        W61471  14.194  39.348  13.039
99941W        W61472  20.665  31.439  14.938
99942W        W61473  35.573   4.841   0.908
99943W        W61474  36.450  42.999   3.236
99944W        W61475  35.505   6.920  12.976
99945W        W61476   1.476  42.948  13.829
99946W        W61477  44.429  23.528  12.983
99947W        W61478  40.466  23.660   2.751
99948W        W61479  34.023  32.062   2.191
99949W        W61480  13.682  19.113   1.218
99950W        W61481  44.791  38.509  14.321
99951W        W61482   6.800  25.632  13.903
99952W        W61483  23.181  39.504   1.229
99953W        W61484  36.566  23.543   0.332
99954W        W61485  17.562  27.943   0.946
99955W        W61486  18.784  30.019  12.459
99956W        W61487  18.563   4.924   3.828
99957W        W61488  40.983  44.487  11.586
99958W        W61489  23.231  24.195  11.464
99959W        W61490  23.096  37.478   0.836
99960W        W61491  15.190   8.401   3.195
99961W        W61492  21.635   8.802   1.757
99962W        W61493  29.668  20.255   0.748
99963W        W61494  44.358  30.531  14.941
99964W        W61495  20.176  37.922   1.399
99965W        W61496   6.845  27.166  12.539
99966W        W61497  42.455  33.103  14.418
99967W        W61498  41.970  35.456   3.644
99968W        W61499  14.319  24.557   1.243
99969W        W61500  36.975   7.837   3.153
99970W        W61501  18.771  36.867   4.229
99971W        W61502  18.130  15.303  11.569
99972W        W61503  10.638  34.020   9.920
99973W        W61504  26.994  37.895  11.112
99974W        W61505  18.111   4.768  13.924
99975W        W61506  35.377   4.321   4.615
99976W        W61507   2.334   4.715  11.945
99977W        W61508  12.708  35.031   0.320
99978W        W61509  20.524  18.684  12.496
99979W        W61510  38.990  39.378  10.632
99980W        W61511  17.232   8.663   1.798
99981W        W61512  18.191  16.258   0.738
99982W        W61513   1.261  28.041  10.590
99983W        W61514   2.381  32.921   2.347
99984W        W61515  34.079  37.511  11.926
99985W        W61516  34.554  16.265  10.554
99986W        W61517   1.263  43.009  10.416
99987W        W61518  24.224   5.777  12.093
99988W        W61519   9.880  20.162   1.745
99989W        W61520  25.150  34.456   1.705
99990W        W61521  17.638  33.027   3.674
99991W        W61522  38.000  31.954   4.228
99992W        W61523  42.978  28.630   0.322
99993W        W61524  25.605  23.049   2.192
99994W        W61525  12.136  38.437   2.250
99995W        W61526  13.612  26.635   2.336
99996W        W61527  39.533  31.965   2.205
99997W        W61528  29.453  34.988  12.486
99998W        W61529  26.063   0.316   2.778
99999W        W61530  12.211  16.711  14.880
    0W        W61531  18.696   3.899  13.962
    1W        W61532  29.935  26.551  12.481
    2W        W61533  15.760   3.800   2.791
    3W        W61534  17.065   8.208   0.822
    4W        W61535  29.004  27.128   1.358
    5W        W61536  42.317  42.807  10.609
    6W        W61537  12.143  16.685  14.434
    7W        W61538  42.359  12.759  12.528
    8W        W61539  40.973  41.904  10.981
    9W        W61540  36.422   4.826  11.457
   10W        W61541  30.457  39.966   4.712
   11W        W61542  35.590  11.350  14.025
   12W        W61543  27.074  42.884  14.983
   13W        W61544  29.668  30.117   3.735
   14W        W61545   3.327   5.691   2.248
   15W        W61546  37.988   7.865  10.023
   16W        W61547  44.839  35.046   2.821
   17W        W61548  41.996  37.895  12.346
   18W        W61549  23.553  39.511   1.224
   19W        W61550  42.433   0.372  10.523
   20W        W61551  23.051   0.449  13.824
   21W        W61552  28.478  28.529  11.408
   22W        W61553  29.090  30.532   3.314
   23W        W61554  40.975   1.944   2.274
   24W        W61555  43.930  42.338   1.743
   25W        W61556  24.714  17.150   2.781
   26W        W61557  24.647  27.156  14.766
   27W        W61558  17.174  35.564   2.325
   28W        W61559  16.574  16.199   0.286
   29W        W61560  42.929  17.559   2.416
   30W        W61561   2.771  27.531  10.539
   31W        W61562  13.150   1.391   1.255
   32W        W61563  32.625  38.004  11.476
   33W        W61564   1.773  24.132  11.375
   34W        W61565  12.648  28.645  10.406
   35W        W61566  28.025  31.402   4.282
   36W        W61567   8.672  17.655   1.373
   37W        W61568  39.513  14.148  10.554
   38W        W61569  13.754  34.961  10.636
   39W        W61570  30.593  41.481  13.932
   40W        W61571   2.343  21.110   5.093
   41W        W61572  32.944   7.351   4.278
   42W        W61573  11.270  25.071   4.342
   43W        W61574  36.587  14.758   2.816
   44W        W61575  35.942  14.107   3.713
   45W        W61576  20.586  39.931   5.203
   46W        W61577  17.119  26.670   4.602
   47W        W61578  33.908  21.146   1.905
   48W        W61579  31.582  28.671  14.876
   49W        W61580   0.951  26.181  10.897
   50W        W61581   1.845  41.431   0.317
   51W        W61582  28.186  17.586  14.475
   52W        W61583  12.849   4.380  13.443
   53W        W61584   2.728  23.203   4.197
   54W        W61585  27.940   6.716   3.341
   55W        W61586  13.667  37.986   4.711
   56W        W61587  20.062  30.049  13.341
   57W        W61588  11.816   0.989   1.429
   58W        W61589  30.500  39.964   0.966
   59W        W61590  11.857  32.108  14.014
   60W        W61591  15.799  16.636   3.326
   61W        W61592   9.257  35.884  10.146
   62W        W61593  36.567  44.379   4.672
   63W        W61594  25.994   8.277   5.315
   64W        W61595  33.597  39.982   1.921
   65W        W61596  24.992  13.276  12.521
   66W        W61597  37.393  31.896  11.523
   67W        W61598  21.720   5.715   1.749
   68W        W61599   1.764  44.969  12.045
   69W        W61600  17.164  44.505   5.220
   70W        W61601   0.416  10.771   3.815
   71W        W61602  12.320  15.303  14.950
   72W        W61603  28.989  14.170   1.333
   73W        W61604  23.191  25.513  11.974
   74W        W61605  43.485   6.312  11.395
   75W        W61606  27.960  21.749   1.400
   76W        W61607  11.861  29.992  11.053
   77W        W61608  41.839  26.686  11.052
   78W        W61609  43.287  38.906  11.006
   79W        W61610  10.762  42.357  14.910
   80W        W61611   8.405  39.838   1.835
   81W        W61612  14.326   0.443   3.351
   82W        W61613  40.486   9.212   0.833
   83W        W61614   0.802  32.050   0.864
   84W        W61615   5.308  30.957   2.869
   85W        W61616  19.732  31.487  13.501
   86W        W61617   1.384  20.066   2.732
   87W        W61618  39.352   2.780  12.469
   88W        W61619  28.563  16.099  13.425
   89W        W61620  13.603   6.355  12.861
   90W        W61621  19.269  27.178  13.877
   91W        W61622   6.383   3.384  12.467
   92W        W61623  22.175  38.512   0.400
   93W        W61624  33.074  19.120   0.410
   94W        W61625  25.196  13.294  14.347
   95W        W61626  11.302  20.560   2.389
   96W        W61627  14.098   7.178  10.493
   97W        W61628  30.155  32.086   1.711
   98W        W61629   4.323  17.085   4.264
   99W        W61630  30.100  43.793  11.400
  100W        W61631   5.364  44.328   4.201
  101W        W61632  27.664  15.755  13.859
  102W        W61633   4.210  38.325   0.943
  103W        W61634  41.486  20.104  10.993
  104W        W61635  29.166  15.140  10.636
  105W        W61636  36.435  32.405   4.334
  106W        W61637  39.851  15.595  10.505
  107W        W61638  26.493  23.210   2.181
  108W        W61639  30.624  11.859  13.021
  109W        W61640   4.824  30.455  13.857
  110W        W61641   1.324  22.203  13.341
  111W        W61642   1.341  27.086   3.340
  112W        W61643   6.261  13.781  14.430
  113W        W61644  22.173  40.433   4.151
  114W        W61645  15.641  15.597   4.175
  115W        W61646  40.854   2.803  10.638
  116W        W61647  12.797  20.058   0.906
  117W        W61648  20.128  16.666  11.084
  118W        W61649  26.147  29.570  14.384
  119W        W61650  13.819   7.414   4.815
  120W        W61651  27.684  14.821  14.888
  121W        W61652  13.818  29.624   0.879
  122W        W61653  32.564   2.298   1.288
  123W        W61654  40.969   0.815  12.480
  124W        W61655  14.128  23.552   1.856
  125W        W61656  33.607  44.298  11.537
  126W        W61657  22.206   6.417   2.685
  127W        W61658  44.942   8.230   1.729
  128W        W61659  20.151  38.839   2.261
  129W        W61660   3.326  42.888   1.749
  130W        W61661  21.033   8.236  11.568
  131W        W61662  25.153  30.627   0.383
  132W        W61663  20.242  32.408   1.340
  133W        W61664  24.609   6.836  11.110
  134W        W61665  16.782  15.109   4.617
  135W        W61666   1.299  40.925  10.485
  136W        W61667  15.308  43.483   1.845
  137W        W61668  43.985  10.733   0.939
  138W        W61669   4.904  31.483   2.284
  139W        W61670  18.697   4.253  11.537
  140W        W61671  21.717  23.584  14.782
  141W        W61672   8.876  40.480   3.670
  142W        W61673  26.969  42.840  12.442
  143W        W61674  41.036  14.829  11.125
  144W        W61675  33.388  12.266   4.814
  145W        W61676  42.851  13.678  13.456
  146W        W61677  42.520  17.741  14.277
  147W        W61678  30.162  41.007  13.870
  148W        W61679  22.067   7.383   1.451
  149W        W61680   2.337  29.928  11.996
  150W        W61681   8.216  29.572   2.243
  151W        W61682  25.980  23.515   0.377
  152W        W61683   0.819   9.298  13.533
  153W        W61684  23.606  10.349   2.346
  154W        W61685  15.125  37.568   5.292
  155W        W61686  19.561   8.755   3.191
  156W        W61687  18.780  23.510   0.925
  157W        W61688  11.372  32.528   3.798
  158W        W61689  18.163   0.440  13.501
  159W        W61690  20.739  31.014   2.180
  160W        W61691   7.265  39.392   3.687
  161W        W61692  10.175  28.140  12.522
  162W        W61693  18.757  20.246   0.358
  163W        W61694  40.830  40.834   2.859
  164W        W61695  16.141  41.440   2.271
  165W        W61696  30.495  34.586  12.503
  166W        W61697  37.848  29.054  11.393
  167W        W61698  40.449  13.769   2.194
  168W        W61699  43.850  12.231   3.255
  169W        W61700  20.148  39.409  12.084
  170W        W61701   6.838   1.273  10.978
  171W        W61702   8.880  37.515   4.233
  172W        W61703  17.265  17.216  11.417
  173W        W61704  32.609   9.339   1.707
  174W        W61705  17.302  38.009   0.287
  175W        W61706  43.513   5.413   1.800
  176W        W61707  17.206  10.711  11.873
  177W        W61708   6.869  13.142  12.959
  178W        W61709  20.696  17.128  12.515
  179W        W61710  20.549  37.401   3.349
  180W        W61711  35.579  23.572   2.227
  181W        W61712   4.729  23.679   4.784
  182W        W61713   4.266  21.513   0.732
  183W        W61714  32.957  29.554   0.431
  184W        W61715  16.799  37.069  11.457
  185W        W61716  32.888  20.264   4.672
  186W        W61717  19.539  23.190   1.228
  187W        W61718  31.635  32.109   2.671
  188W        W61719  24.682  37.980  11.479
  189W        W61720  38.547  24.511   2.322
  190W        W61721  39.519   5.689   2.323
  191W        W61722  13.260  14.173  11.452
  192W        W61723  17.662  27.075  14.366
  193W        W61724  27.557  43.398   4.229
  194W        W61725  26.001  41.296   4.208
  195W        W61726  16.176  12.701  11.401
  196W        W61727  28.675  29.439  12.989
  197W        W61728  31.451  24.503  14.984
  198W        W61729  27.594  23.693  13.814
  199W        W61730  23.709  31.546  14.812
  200W        W61731  37.870  37.964   2.899
  201W        W61732   5.264  23.038   0.451
  202W        W61733  16.615  43.447   2.265
  203W        W61734  34.061  39.908  13.826
  204W        W61735  44.753  20.265  12.911
  205W        W61736  23.698  23.040   1.794
  206W        W61737   5.790   0.281  13.501
  207W        W61738  44.900   6.231  14.501
  208W        W61739  41.929  13.797  10.534
  209W        W61740  25.474   3.779  10.575
  210W        W61741  24.708  32.515  14.381
  211W        W61742  31.451  22.142  12.340
  212W        W61743  42.446  35.500  11.888
  213W        W61744   2.425  19.077   4.171
  214W        W61745  42.995  21.602  10.976
  215W        W61746   3.400  24.529   2.723
  216W        W61747  11.848  44.276   1.381
  217W        W61748   3.379   8.343   0.794
  218W        W61749  31.999  42.942   4.786
  219W        W61750   7.851   3.729  12.856
  220W        W61751  22.164   3.408  13.323
  221W        W61752   8.862   6.799  14.294
  222W        W61753   8.755  23.713   1.418
  223W        W61754  33.591  24.718  12.353
  224W        W61755  24.627   6.278   4.810
  225W        W61756  33.472  21.736   4.827
  226W        W61757  32.047  28.449   1.763
  227W        W61758   4.902  18.612   2.350
  228W        W61759   0.355  44.461  13.859
  229W        W61760  15.642  31.038   4.701
  230W        W61761  11.229  34.991  13.387
  231W        W61762  32.928  21.226  10.967
  232W        W61763  13.706  10.373  14.443
  233W        W61764  27.621  26.093  12.528
  234W        W61765  40.965  27.165  14.381
  235W        W61766  44.297   6.828  13.814
  236W        W61767  30.463  13.631   1.212
  237W        W61768  35.945  30.644  10.617
  238W        W61769  30.580  42.442   4.661
  239W        W61770  42.430  24.499  13.957
  240W        W61771  15.726   0.807  10.968
  241W        W61772  22.200  21.098   0.827
  242W        W61773  29.098  43.844   2.244
  243W        W61774  21.199   2.861  14.392
  244W        W61775  41.923   0.262   3.866
  245W        W61776  25.064   6.401   0.247
  246W        W61777  30.934   0.293  13.318
  247W        W61778  41.456  41.378   4.600
  248W        W61779  35.060   8.280   2.732
  249W        W61780  11.846   7.255  12.022
  250W        W61781  43.422  20.523   1.269
  251W        W61782   3.264   4.818   1.411
  252W        W61783  12.289   9.221  12.824
  253W        W61784  29.033  38.397  11.587
  254W        W61785  16.658   4.441  14.377
  255W        W61786  43.021  37.431  11.922
  256W        W61787  13.211   4.395   1.240
  257W        W61788   0.439  41.343   1.442
  258W        W61789  44.755  25.711   0.842
  259W        W61790   2.744  43.820  14.387
  260W        W61791  20.721   9.674   0.334
  261W        W61792  23.212  13.342   0.738
  262W        W61793  26.480   4.353  14.274
  263W        W61794  10.227  33.422  13.857
  264W        W61795  10.716  37.064  12.432
  265W        W61796  10.250  33.407   1.394
  266W        W61797  34.027  34.032  11.597
  267W        W61798  30.163  42.410  13.802
  268W        W61799  35.901  25.011   0.965
  269W        W61800  27.963  35.517  12.411
  270W        W61801  31.094  32.086  11.549
  271W        W61802  37.473   3.227   4.325
  272W        W61803  42.894   0.907   3.314
  273W        W61804  12.669  41.981  13.011
  274W        W61805  26.479  22.098  14.441
  275W        W61806  43.796  39.499  12.563
  276W        W61807  14.683  27.598  11.523
  277W        W61808   9.832  10.248   3.212
  278W        W61809  14.763  17.299   4.600
  279W        W61810   6.360  42.927  14.364
  280W        W61811  22.632   7.312   0.349
  281W        W61812  42.406  32.985   4.299
  282W        W61813  16.674  27.151  10.404
  283W        W61814  19.147  29.137   2.332
  284W        W61815  37.536  38.545   4.234
  285W        W61816  10.155  10.165   2.212
  286W        W61817  43.443   6.819  11.516
  287W        W61818  26.097   4.915  12.952
  288W        W61819  19.046  18.619  11.604
  289W        W61820  35.881   9.653   4.233
  290W        W61821  21.200  24.596   2.857
  291W        W61822   6.793  39.525  11.601
  292W        W61823   5.389  35.020  12.921
  293W        W61824  35.860   6.719   4.168
  294W        W61825  11.687   3.391   2.815
  295W        W61826  37.932   7.203   4.120
  296W        W61827   7.763  43.803  13.906
  297W        W61828  17.073   9.247  12.522
  298W        W61829  15.708  33.389   0.861
  299W        W61830  44.400  17.287   1.322
  300W        W61831  39.995  37.352  14.515
  301W        W61832  23.621   6.199  14.406
  302W        W61833  21.226  10.332   4.183
  303W        W61834  26.011  16.663  12.033
  304W        W61835  38.856  44.775   4.217
  305W        W61836   0.322   5.858   4.601
  306W        W61837   4.268  38.889   0.935
  307W        W61838  19.089  33.908   4.337
  308W        W61839  11.861  38.432   3.351
  309W        W61840  22.663  19.581  10.141
  310W        W61841  43.801  17.095   4.288
  311W        W61842   1.940   5.302   3.678
  312W        W61843  26.458  41.464  11.423
  313W        W61844  44.328  10.652  13.823
  314W        W61845  29.163  26.545   4.662
  315W        W61846   7.758   7.705  11.379
  316W        W61847  34.970  37.887  11.462
  317W        W61848  21.063  26.048  11.971
  318W        W61849  38.332   3.430  10.589
  319W        W61850   1.792  37.540   4.353
  320W        W61851  33.053  17.254  12.869
  321W        W61852   9.683  40.860  13.384
  322W        W61853  38.517  41.943   0.353
  323W        W61854  38.395  10.709   0.311
  324W        W61855  29.440  13.285  12.857
  325W        W61856  42.791   8.743  10.906
  326W        W61857  18.124  38.013   3.314
  327W        W61858  25.017  26.499   2.266
  328W        W61859   5.360  44.879   0.422
  329W        W61860  27.091  10.346   0.733
  330W        W61861  28.603  33.088   0.886
  331W        W61862  32.578  39.993  10.448
  332W        W61863   2.447   4.298  11.415
  333W        W61864  41.535  44.491   3.285
  334W        W61865  33.616  41.947   3.216
  335W        W61866  23.212  38.534   4.349
  336W        W61867  28.492  35.011   0.812
  337W        W61868  43.824   9.199  14.461
  338W        W61869  31.039  44.891   4.206
  339W        W61870   2.378  13.333  12.457
  340W        W61871  29.092  30.610  14.963
  341W        W61872  16.656   4.345  11.954
  342W        W61873  36.383   7.368   1.440
  343W        W61874  14.143  13.718  11.424
  344W        W61875  25.490  30.141  13.914
  345W        W61876  34.527  43.510   4.196
  346W        W61877  36.463  36.493  11.100
  347W        W61878  33.129   7.403   3.825
  348W        W61879  19.207  17.566   0.801
  349W        W61880   3.759  41.898   0.278
  350W        W61881  26.993  11.163  11.001
  351W        W61882  43.964  38.872  10.958
  352W        W61883  42.508  26.197  10.449
  353W        W61884  28.111  37.852   2.809
  354W        W61885   8.829  23.998   2.680
  355W        W61886  13.121  42.440  13.384
  356W        W61887  43.474  11.711  14.887
  357W        W61888  16.120   9.788  13.395
  358W        W61889  23.091  12.137  12.523
  359W        W61890  12.611  15.712  11.560
  360W        W61891  42.482  21.548   1.393
  361W        W61892  20.111  31.924   3.849
  362W        W61893  32.913   6.843  14.852
  363W        W61894  41.930  15.705  13.419
  364W        W61895   6.865  39.357  12.431
  365W        W61896  21.642  13.333   4.718
  366W        W61897  28.445  16.650  14.398
  367W        W61898  40.430   3.427  13.542
  368W        W61899  17.121  11.316   1.793
  369W        W61900  40.925  31.557  10.426
  370W        W61901  29.530  36.891   1.716
  371W        W61902   1.946  17.703  11.458
  372W        W61903  25.972  18.622   2.340
  373W        W61904  17.114  27.951   0.845
  374W        W61905  13.299  33.991  11.390
  375W        W61906  14.181   3.318   2.299
  376W        W61907  30.503   9.257   0.292
  377W        W61908  42.933  36.591  12.039
  378W        W61909  38.004  26.568   4.633
  379W        W61910  17.286  30.539   0.727
  380W        W61911   7.857  40.968  13.521
  381W        W61912  44.454  24.984   0.380
  382W        W61913  33.443  30.568   4.731
  383W        W61914  18.597  17.665   4.156
  384W        W61915   9.775  28.971   2.686
  385W        W61916   9.873  12.779   0.404
  386W        W61917  17.265  17.675   2.398
  387W        W61918  26.988  17.601   0.940
  388W        W61919  17.755   7.241   3.253
  389W        W61920  39.422  34.014  11.050
  390W        W61921  20.081  33.515   2.293
  391W        W61922  41.327  31.028  11.981
  392W        W61923  30.505   4.225  11.990
  393W        W61924  21.607  42.024  10.959
  394W        W61925  10.235  32.914   3.309
  395W        W61926  36.537  16.208   9.606
  396W        W61927  32.501  42.935   1.924
  397W        W61928  16.294  17.166  10.994
  398W        W61929  13.814  10.832   4.798
  399W        W61930  13.185  10.153  11.947
  400W        W61931  39.400  44.477   0.295
  401W        W61932  44.842  40.524   3.851
  402W        W61933  22.582  33.117   2.280
  403W        W61934   8.762  12.210   0.853
  404W        W61935   7.320  19.584  12.982
  405W        W61936  29.561   9.878  13.915
  406W        W61937  28.474  32.081   4.251
  407W        W61938  37.456  37.579  13.357
  408W        W61939   3.231  14.240   0.406
  409W        W61940  16.638  18.243  12.001
  410W        W61941  18.687   6.269  14.961
  411W        W61942   8.355   2.894  11.917
  412W        W61943  40.480  11.852   2.778
  413W        W61944   0.808  21.661  12.572
  414W        W61945  18.259  35.485   1.737
  415W        W61946  14.135  15.085   1.886
  416W        W61947  20.752  21.668  12.080
  417W        W61948   6.853  20.169  11.464
  418W        W61949  32.419  37.065  10.888
  419W        W61950  34.919  22.560  13.800
  420W        W61951   4.401  24.711  12.051
  421W        W61952  11.800   5.917  11.518
  422W        W61953  22.025  36.475   2.778
  423W        W61954   7.673  17.116   2.207
  424W        W61955  20.118  28.025  13.458
  425W        W61956  34.444   4.373   3.792
  426W        W61957  32.945  30.462   3.730
  427W        W61958  34.463  39.404  12.361
  428W        W61959  17.094  17.790  12.370
  429W        W61960  22.170  10.795   1.927
  430W        W61961  30.083  14.266   3.342
  431W        W61962  19.561   6.418  13.038
  432W        W61963   6.694   1.906  11.498
  433W        W61964   4.305  22.668  14.443
  434W        W61965  15.693  41.925   4.260
  435W        W61966  13.285  35.050   2.288
  436W        W61967   1.805   8.705   3.208
  437W        W61968  44.332  14.672  14.279
  438W        W61969  33.892  21.736  10.459
  439W        W61970  25.214  17.265  11.924
  440W        W61971  10.759  11.288  11.063
  441W        W61972  31.402  40.833  10.496
  442W        W61973   6.784   1.451  14.012
  443W        W61974  20.701  17.740   1.766
  444W        W61975  17.621  15.297   4.836
  445W        W61976  26.122  34.559  11.906
  446W        W61977   1.777  42.360  13.048
  447W        W61978  23.518  40.333   4.302
  448W        W61979  41.957  41.308  13.797
  449W        W61980  41.013  29.436   2.678
  450W        W61981  20.063  21.686   0.383
  451W        W61982  22.083  11.234   2.417
  452W        W61983  27.563   5.853   0.752
  453W        W61984  34.021  43.902   1.708
  454W        W61985  21.727  24.602  13.022
  455W        W61986  20.141   9.721   3.267
  456W        W61987   6.732  40.869   2.674
  457W        W61988  28.094  16.123   3.283
  458W        W61989  11.801   9.382   1.356
  459W        W61990  23.496  15.267  14.348
  460W        W61991  28.656   2.377  12.918
  461W        W61992  26.201  21.072  13.934
  462W        W61993  28.943  42.422  13.444
  463W        W61994  30.110  25.983  14.853
  464W        W61995  43.434  19.656   0.459
  465W        W61996  25.116   9.719   2.727
  466W        W61997  39.465   8.794   3.730
  467W        W61998  22.673  27.599   3.234
  468W        W61999  28.981  38.022  13.508
  469W        W62000  37.011  17.633   3.299
  470W        W62001  38.419  24.210  14.796
  471W        W62002   6.352  15.209   4.717
  472W        W62003  35.861  16.575  13.458
  473W        W62004   7.695  12.273   0.946
  474W        W62005  16.134   2.271  12.569
  475W        W62006   7.187  43.499   1.795
  476W        W62007   2.802  30.050  10.535
  477W        W62008  15.749  26.077  11.504
  478W        W62009   5.779  15.644  10.949
  479W        W62010  43.438  29.162  14.854
  480W        W62011  21.622  38.001  11.069
  481W        W62012  14.306   3.265  12.066
  482W        W62013  43.836  44.952  14.419
  483W        W62014  38.864   9.823  11.500
  484W        W62015  40.482  44.804  11.469
  485W        W62016  29.625   0.342   0.417
  486W        W62017  22.606  36.437   2.340
  487W        W62018  40.933  18.060   2.664
  488W        W62019  37.924  12.253   0.440
  489W        W62020   0.760   7.340   1.708
  490W        W62021   8.830  44.444  14.325
  491W        W62022   5.744  40.907   3.861
  492W        W62023  24.210   6.745  11.058
  493W        W62024   3.873  34.060  12.091
  494W        W62025  25.683  16.085  11.609
  495W        W62026  35.860  21.661   2.661
  496W        W62027  32.094   9.776   5.163
  497W        W62028   1.439  27.003   2.833
  498W        W62029   4.939  33.555   0.462
  499W        W62030  15.702   1.277  11.110
  500W        W62031  10.864   2.961  12.923
  501W        W62032   3.278  10.339   4.148
  502W        W62033  11.716  41.391  10.475
  503W        W62034   7.307  27.552  11.964
  504W        W62035  17.277   1.305  14.326
  505W        W62036   1.297  42.352  12.527
  506W        W62037  44.265  40.989  12.086
  507W        W62038  18.250  15.649  14.283
  508W        W62039  17.730   0.363   1.419
  509W        W62040  20.099  29.445  10.420
  510W        W62041  30.502  21.738  14.919
  511W        W62042  19.245   0.788  13.965
  512W        W62043  25.053  31.982   2.405
  513W        W62044  27.016  43.940   0.863
  514W        W62045  35.949  27.632  13.441
  515W        W62046  33.032  22.231   3.795
  516W        W62047  21.204   8.224  12.551
  517W        W62048  31.130  17.709   1.228
  518W        W62049  36.409  30.924  13.329
  519W        W62050  37.391  31.065   4.325
  520W        W62051  29.609  31.143  13.891
  521W        W62052  29.009  16.318   0.378
  522W        W62053  39.322  13.158  12.863
  523W        W62054  28.931  15.107  11.009
  524W        W62055  22.090  40.040  14.887
  525W        W62056  10.292  32.411   4.780
  526W        W62057  16.085  34.877   3.840
  527W        W62058   7.738  44.436  11.447
  528W        W62059  36.027   8.229  12.558
  529W        W62060  25.476  10.673   3.776
  530W        W62061   1.837  16.269  14.927
  531W        W62062  36.081  35.546   2.409
  532W        W62063  16.600  40.918  11.417
  533W        W62064  25.209  13.698  14.354
  534W        W62065   9.765  37.947   3.384
  535W        W62066  35.493  32.946  12.537
  536W        W62067  10.772  18.196   4.238
  537W        W62068  34.100  35.498   1.766
  538W        W62069  23.006  26.166   4.686
  539W        W62070  32.491  12.791   9.992
  540W        W62071  31.973  31.506  13.470
  541W        W62072  42.881  26.116  12.041
  542W        W62073  44.993  20.548  12.934
  543W        W62074  37.962   2.394  11.924
  544W        W62075  19.228  10.196  12.077
  545W        W62076  26.668   2.371  14.882
  546W        W62077  40.966  36.438  12.058
  547W        W62078  19.764  42.873  14.415
  548W        W62079  22.537   2.288  11.425
  549W        W62080   4.844  10.268   1.414
  550W        W62081   3.885   3.360  11.977
  551W        W62082  14.726  30.091  12.512
  552W        W62083   3.836  29.528  14.393
  553W        W62084   1.300  13.233   0.325
  554W        W62085   6.284  44.817  12.059
  555W        W62086  13.719  44.475  13.425
  556W        W62087  19.215  14.665  12.567
  557W        W62088   0.947   6.219  13.321
  558W        W62089  27.575  44.957  13.894
  559W        W62090  16.760  24.479  14.779
  560W        W62091  42.780  34.884   2.717
  561W        W62092  22.723  29.648  14.492
  562W        W62093  41.512  43.398  12.508
  563W        W62094  39.463  40.376  11.531
  564W        W62095   9.252  24.056   3.820
  565W        W62096  32.538  20.673   4.668
  566W        W62097  43.361  20.069   3.841
  567W        W62098   9.867  33.411  10.917
  568W        W62099  13.680   4.241   4.166
  569W        W62100  14.803  33.017  14.003
  570W        W62101  23.506  44.505  13.884
  571W        W62102  28.514  22.569   3.765
  572W        W62103   7.371   0.831  13.857
  573W        W62104  42.302  25.481   2.742
  574W        W62105  10.291  18.218  11.862
  575W        W62106   4.437  17.593  10.925
  576W        W62107  25.049  18.186   1.711
  577W        W62108   9.855   9.818   4.828
  578W        W62109  10.370  39.908  13.821
  579W        W62110  34.915   1.885  13.002
  580W        W62111  29.473  26.650   3.311
  581W        W62112   9.755  10.305  11.439
  582W        W62113  14.264  15.204   0.936
  583W        W62114  37.911  16.661   3.679
  584W        W62115  16.173   7.220   1.315
  585W        W62116  27.017  32.555  13.848
  586W        W62117  30.496  10.330   2.268
  587W        W62118  41.887  24.602   4.254
  588W        W62119  37.986  32.583   1.697
  589W        W62120  35.080   3.240   5.255
  590W        W62121   1.374  34.112   0.268
  591W        W62122   5.212  35.105  12.415
  592W        W62123  12.690  29.500   5.240
  593W        W62124  36.439  39.513   3.850
  594W        W62125  17.596  31.430  11.419
  595W        W62126  42.422  12.334  11.541
  596W        W62127  17.287  10.681   1.436
  597W        W62128  15.090  20.137   1.800
  598W        W62129  21.591  23.628   4.252
  599W        W62130  24.123  27.134   3.671
  600W        W62131  16.693   9.261  11.600
  601W        W62132  18.613  36.530   2.793
  602W        W62133  30.603  41.386  10.952
  603W        W62134  28.590  34.115  13.896
  604W        W62135  16.721   3.884  10.588
  605W        W62136  13.724  10.675  11.425
  606W        W62137   7.743  37.882   0.257
  607W        W62138   1.336  23.164   3.197
  608W        W62139  36.460  12.303  12.870
  609W        W62140  24.219  39.336  12.568
  610W        W62141   4.445  41.335  13.936
  611W        W62142  26.544   2.922  13.845
  612W        W62143   6.843   8.766  14.490
  613W        W62144   2.958  29.159   3.383
  614W        W62145  25.557  38.421   1.299
  615W        W62146  30.952  22.736  13.348
  616W        W62147  20.623  25.086  13.055
  617W        W62148  23.107  28.564   1.401
  618W        W62149  43.505   8.164   3.374
  619W        W62150  36.914   9.871   3.222
  620W        W62151  29.170  30.108  13.546
  621W        W62152  25.066   7.686  13.416
  622W        W62153   4.892  41.872   2.252
  623W        W62154   3.267   1.857   4.612
  624W        W62155  10.734   0.381   2.673
  625W        W62156  32.047  13.260   1.385
  626W        W62157  24.158  22.639  13.018
  627W        W62158   2.832  33.963   2.870
  628W        W62159   9.341  34.875   0.410
  629W        W62160  20.704  36.367   9.955
  630W        W62161  31.468  21.515  13.875
  631W        W62162  14.236  27.590   1.896
  632W        W62163   6.868  24.662   1.848
  633W        W62164  10.690   9.370  11.376
  634W        W62165  20.203  13.190  13.850
  635W        W62166  25.656   9.819   9.466
  636W        W62167   5.257   8.180  10.921
  637W        W62168   8.321  40.338  14.465
  638W        W62169  39.984  10.799   2.306
  639W        W62170  26.533  37.015   4.687
  640W        W62171  10.853  34.022  14.803
  641W        W62172  27.612  27.612   3.301
  642W        W62173  28.486  33.077  13.357
  643W        W62174  15.709   4.235  13.357
  644W        W62175   0.251  17.096   4.273
  645W        W62176  19.269  39.415   2.874
  646W        W62177  39.967  38.452  13.893
  647W        W62178  38.561  42.485   1.400
  648W        W62179  43.352  32.538   2.241
  649W        W62180  13.722  28.503   2.674
  650W        W62181  27.554  17.646   4.283
  651W        W62182  22.525  19.061   9.930
  652W        W62183  28.978  38.048  12.550
  653W        W62184  22.014  15.137   1.412
  654W        W62185  28.494  19.190   3.636
  655W        W62186  19.044  37.486   1.266
  656W        W62187   4.275  40.051   2.861
  657W        W62188   7.844  38.371   0.751
  658W        W62189  22.674  43.377   0.472
  659W        W62190  22.570  14.803  10.576
  660W        W62191  13.801  29.152  13.500
  661W        W62192  13.181  19.596   3.343
  662W        W62193  27.025   1.796   1.279
  663W        W62194   4.434  27.136   0.323
  664W        W62195  27.180   8.223  11.557
  665W        W62196  39.917  11.778  10.581
  666W        W62197   2.241  20.754  13.965
  667W        W62198  27.048   7.901   3.818
  668W        W62199  38.044  31.488   4.797
  669W        W62200  21.218  43.365  11.015
  670W        W62201  13.148  21.700   1.763
  671W        W62202  42.324  15.769   2.276
  672W        W62203  22.204  38.072   1.768
  673W        W62204  43.302  30.944  10.947
  674W        W62205  30.533  41.851   0.471
  675W        W62206  29.601  40.815   3.640
  676W        W62207  30.158  25.131  12.350
  677W        W62208   5.899  22.228   0.278
  678W        W62209   7.875  27.098  13.891
  679W        W62210  42.481  33.089   1.317
  680W        W62211  39.510  35.072  13.357
  681W        W62212  13.688   8.239  13.893
  682W        W62213  25.026  29.968  12.580
  683W        W62214  14.322  15.656   0.422
  684W        W62215  38.451  19.246  12.570
  685W        W62216  17.082  24.118   3.250
  686W        W62217   4.890  42.826   0.290
  687W        W62218  40.983   8.723   2.748
  688W        W62219  28.142   2.306   4.153
  689W        W62220  11.715  27.005  14.298
  690W        W62221  19.549  26.155  12.876
  691W        W62222  36.903  29.624  11.030
  692W        W62223  36.051  38.970  14.848
  693W        W62224   5.850  15.640  10.625
  694W        W62225  21.727   6.746  12.915
  695W        W62226  18.240   9.719  12.983
  696W        W62227  20.642  29.607   2.389
  697W        W62228  18.192  43.862  10.536
  698W        W62229   8.884   8.174  13.051
  699W        W62230  38.373  38.936   2.807
  700W        W62231  21.613  23.508   1.433
  701W        W62232  10.188  31.017  11.909
  702W        W62233  24.203  22.592   4.304
  703W        W62234  44.439  44.417   5.126
  704W        W62235  38.526  43.926   4.679
  705W        W62236  31.606  24.555  12.859
  706W        W62237   8.695  10.872   1.393
  707W        W62238  42.007  35.992   2.182
  708W        W62239  39.329  39.443   1.915
  709W        W62240  19.192  25.612  11.564
  710W        W62241  27.991  35.941   9.994
  711W        W62242  15.819   8.834   0.899
  712W        W62243  13.130  25.977  13.383
  713W        W62244  21.160  14.221   1.882
  714W        W62245  15.178  21.516  11.497
  715W        W62246  44.761  15.772  10.909
  716W        W62247  32.431  27.582   3.790
  717W        W62248  34.029  35.893  11.398
  718W        W62249   6.757  26.687   3.287
  719W        W62250  13.276   3.728  14.513
  720W        W62251  38.450  24.558   0.904
  721W        W62252   3.821  22.656   3.207
  722W        W62253  44.379  31.049  11.553
  723W        W62254  42.950   4.333   1.763
  724W        W62255  30.646   7.786  10.495
  725W        W62256   5.219   2.858  10.454
  726W        W62257  15.092  15.154   0.920
  727W        W62258  22.648  40.805  13.798
  728W        W62259  40.010  37.338   2.785
  729W        W62260  25.131  43.849   3.815
  730W        W62261  17.685  13.246   4.153
  731W        W62262  33.425  29.982   4.619
  732W        W62263  22.570   1.310   0.389
  733W        W62264  27.485  10.339  11.498
  734W        W62265  33.501  31.077  13.012
  735W        W62266  36.373  24.034  10.503
  736W        W62267  13.721  10.282   4.728
  737W        W62268   8.350  24.509   1.299
  738W        W62269  31.008  35.956   2.835
  739W        W62270   5.824  16.672  10.936
  740W        W62271  15.689  15.239  13.473
  741W        W62272   2.317  12.719  14.389
  742W        W62273  41.409  38.053   0.855
  743W        W62274   7.309  34.430  13.533
  744W        W62275   3.266  18.236  14.856
  745W        W62276  26.647  31.418  13.404
  746W        W62277  23.714  33.557   1.327
  747W        W62278  18.685   2.918  10.446
  748W        W62279  24.663  22.700   3.309
  749W        W62280  31.500  31.041   0.288
  750W        W62281  31.417   4.775   0.472
  751W        W62282  34.993  35.065   2.704
  752W        W62283   5.422  13.830   2.283
  753W        W62284  44.780  42.413   1.747
  754W        W62285  43.792  30.061   3.180
  755W        W62286  30.589  31.542  14.394
  756W        W62287  14.761  21.154   3.254
  757W        W62288   3.911  19.733   5.229
  758W        W62289  21.556  24.133  10.480
  759W        W62290  36.878  21.723   4.681
  760W        W62291  36.451  40.423  10.918
  761W        W62292   3.364   9.370   2.677
  762W        W62293  22.149  10.219   5.119
  763W        W62294  18.296  20.742  14.359
  764W        W62295  32.533   7.298   4.635
  765W        W62296  41.835  36.077  14.390
  766W        W62297   3.422  25.206   4.338
  767W        W62298  24.034  21.103  11.879
  768W        W62299   9.861  20.032   2.860
  769W        W62300  43.508  26.637   3.719
  770W        W62301  26.013   3.756   4.319
  771W        W62302  20.143  32.045   1.777
  772W        W62303  36.497  13.258   4.686
  773W        W62304   4.448  37.935  10.986
  774W        W62305  38.935  38.497   0.483
  775W        W62306  43.515  18.277   3.178
  776W        W62307  38.929   6.270  14.489
  777W        W62308  24.085  26.107   1.782
  778W        W62309  33.527  38.912  12.050
  779W        W62310  20.614  39.328  11.881
  780W        W62311  26.561  43.926  14.849
  781W        W62312  40.344   3.318  10.578
  782W        W62313  35.459  36.912  14.814
  783W        W62314  32.096   9.822  13.021
  784W        W62315   6.738  20.666   0.276
  785W        W62316  29.653   1.473   4.334
  786W        W62317  42.891  43.805  12.913
  787W        W62318  27.668   7.690   2.672
  788W        W62319  25.967  16.257   0.274
  789W        W62320  34.370  37.873   3.204
  790W        W62321  15.593  33.997  13.441
  791W        W62322  32.425   3.732   3.812
  792W        W62323  42.889  26.476   2.313
  793W        W62324   7.907  29.453   2.250
  794W        W62325  18.174  26.548   2.778
  795W        W62326  21.033  43.840   0.867
  796W        W62327  28.563  13.219  14.389
  797W        W62328  41.419  41.534  14.014
  798W        W62329   9.160  44.872   4.278
  799W        W62330  34.041  18.588  10.623
  800W        W62331  22.579  33.968  14.834
  801W        W62332  28.583  20.725  13.876
  802W        W62333  34.539  34.957   1.288
  803W        W62334   9.839  29.657  13.516
  804W        W62335  30.635  18.790  12.957
  805W        W62336  37.028   2.317  13.956
  806W        W62337   3.917  18.643  10.423
  807W        W62338  16.283  24.198   0.367
  808W        W62339   6.740  40.048  10.942
  809W        W62340  20.232  34.885   0.738
  810W        W62341  25.479   2.284   4.239
  811W        W62342  36.841  36.442   0.942
  812W        W62343  36.478  39.471  14.381
  813W        W62344  16.259   3.217   0.394
  814W        W62345  10.863  18.726   4.195
  815W        W62346  15.676  12.228   0.966
  816W        W62347  15.759  29.469   1.919
  817W        W62348  33.553  31.451   4.165
  818W        W62349  41.889  18.620  12.580
  819W        W62350  20.549  40.894   1.920
  820W        W62351   6.830  34.448   2.231
  821W        W62352  31.029  34.066   1.227
  822W        W62353  27.648  16.598  11.381
  823W        W62354   9.217   0.814  12.013
  824W        W62355  33.542  26.541   2.349
  825W        W62356  15.272  17.615  12.829
  826W        W62357   4.446  39.519  14.900
  827W        W62358  44.373  31.487   3.289
  828W        W62359   3.345  24.689   3.806
  829W        W62360  11.675  33.059   1.375
  830W        W62361  27.635  39.921  13.981
  831W        W62362  24.213  23.162   0.784
  832W        W62363  28.111  26.589   3.250
  833W        W62364  19.681  21.241  13.381
  834W        W62365  40.377  38.962   0.844
  835W        W62366  32.027  42.349  11.537
  836W        W62367  38.844  30.458  11.460
  837W        W62368  35.362  33.097   1.229
  838W        W62369   3.742   0.326   3.147
  839W        W62370  13.609  37.516  14.874
  840W        W62371  18.223  31.408  12.443
  841W        W62372  20.638  26.678   2.290
  842W        W62373  44.294   6.405  12.829
  843W        W62374  12.250   3.815  12.092
  844W        W62375  44.907  23.708   4.788
  845W        W62376  39.065  12.786   9.966
  846W        W62377  29.577  17.096   3.153
  847W        W62378  17.782  14.715   1.258
  848W        W62379  20.262  22.645  11.098
  849W        W62380  24.517  21.705   2.795
  850W        W62381  20.549  13.714   0.303
  851W        W62382  25.556  32.450   5.166
  852W        W62383   2.461  30.081   2.755
  853W        W62384  38.034  34.104  11.558
  854W        W62385  16.766   8.285   2.216
  855W        W62386  31.111  40.496   1.828
  856W        W62387  39.027  37.480   0.825
  857W        W62388  11.670  21.120   9.942
  858W        W62389  44.832  11.705  11.494
  859W        W62390  27.942  40.964   2.354
  860W        W62391  21.080  13.716  12.356
  861W        W62392  36.457  31.471  14.842
  862W        W62393  44.384  23.722   2.226
  863W        W62394  39.924  19.203  10.503
  864W        W62395   9.360  16.775   1.899
  865W        W62396  27.633   3.448  14.020
  866W        W62397  32.095   8.216  13.845
  867W        W62398   6.771   7.676  14.866
  868W        W62399   4.362  14.745   0.481
  869W        W62400  22.694  11.697  10.006
  870W        W62401  40.326  28.482   2.874
  871W        W62402  41.463   2.886  14.856
  872W        W62403   1.958   8.691   2.198
  873W        W62404  17.199  21.542   2.863
  874W        W62405   3.746   6.220   9.966
  875W        W62406  21.740   9.683  11.964
  876W        W62407  18.683  14.228   0.458
  877W        W62408  36.557  19.283  14.945
  878W        W62409  42.986  29.947   2.249
  879W        W62410  40.865  36.938   4.338
  880W        W62411  18.274  20.530  13.375
  881W        W62412   0.449  16.641   3.670
  882W        W62413  23.220   7.258   3.672
  883W        W62414  36.979  22.542   2.801
  884W        W62415  22.059  29.062   3.280
  885W        W62416  27.511   6.840   2.758
  886W        W62417  24.557  11.623   4.224
  887W        W62418  28.069  25.082  10.018
  888W        W62419  15.180  30.968  13.451
  889W        W62420  33.918  26.110   3.717
  890W        W62421   7.897  40.891  12.932
  891W        W62422  22.546  21.621  11.099
  892W        W62423   7.728   1.936   5.126
  893W        W62424  25.553  32.554  13.311
  894W        W62425  12.229  15.823  14.992
  895W        W62426  44.855  34.583   3.249
  896W        W62427   1.929  32.572   1.253
  897W        W62428  35.564  23.004   4.336
  898W        W62429   4.788   3.816   0.257
  899W        W62430  35.520  34.452  14.437
  900W        W62431  20.148  35.590  13.500
  901W        W62432   4.329  10.179  10.498
  902W        W62433  21.615  29.010   4.617
  903W        W62434   5.740  15.268  14.476
  904W        W62435  25.020   1.319   0.424
  905W        W62436   8.345  21.600  13.061
  906W        W62437  23.575   5.697   0.872
  907W        W62438  16.236  22.017  11.584
  908W        W62439   3.913   8.813   3.672
  909W        W62440  34.090  43.943   4.800
  910W        W62441  42.904  15.665   0.845
  911W        W62442  42.996  20.112  13.324
  912W        W62443  36.843  25.564   0.901
  913W        W62444  40.928  29.069  14.763
  914W        W62445  39.490  14.725   4.743
  915W        W62446  29.598  30.579  14.406
  916W        W62447  34.466  31.403  13.386
  917W        W62448  30.545  38.409  11.059
  918W        W62449   1.944  25.194  12.497
  919W        W62450   8.812  27.643  11.084
  920W        W62451  11.756  15.645   4.798
  921W        W62452   5.205   6.750   0.275
  922W        W62453  24.054  12.218   2.238
  923W        W62454  23.680  11.713   3.217
  924W        W62455  38.975  38.028  13.823
  925W        W62456  10.784  16.786  11.013
  926W        W62457   5.697  26.967  10.581
  927W        W62458  27.142  14.606   4.238
  928W        W62459  37.363  23.151  13.307
  929W        W62460  44.776   1.824   0.429
  930W        W62461  26.681  32.513  14.917
  931W        W62462  24.222  43.933  13.904
  932W        W62463   7.754  30.016  13.307
  933W        W62464  43.308  13.670   0.471
  934W        W62465   2.360  19.100   1.774
  935W        W62466  34.561  27.065   2.896
  936W        W62467  34.440   7.813  14.798
  937W        W62468  26.679  34.502   4.684
  938W        W62469  16.776  15.820   1.342
  939W        W62470  18.078  35.443   3.780
  940W        W62471  32.513  11.624   4.293
  941W        W62472  34.120  10.203  10.403
  942W        W62473  13.174  29.966   0.465
  943W        W62474  12.621  37.873   1.883
  944W        W62475   3.722  41.935  12.408
  945W        W62476  36.494  30.043  11.052
  946W        W62477  11.808  30.082   4.257
  947W        W62478  41.979  22.213  10.937
  948W        W62479  40.888  43.826   1.334
  949W        W62480  44.411   2.270   0.454
  950W        W62481  37.990  12.148   5.631
  951W        W62482  36.966   3.799  13.402
  952W        W62483  27.464   2.876  13.945
  953W        W62484  32.142  27.983   0.396
  954W        W62485  37.015  31.519   4.304
  955W        W62486  42.938  25.674   4.213
  956W        W62487  31.578  15.216  11.961
  957W        W62488  16.599  18.228   2.411
  958W        W62489   1.332  27.175  14.845
  959W        W62490  34.557  44.494   0.859
  960W        W62491  18.215  41.508   3.213
  961W        W62492  18.776   6.908   1.358
  962W        W62493  19.689  21.689   1.449
  963W        W62494   3.898   2.944   0.826
  964W        W62495  27.681  18.616   3.293
  965W        W62496  16.280  28.046   4.153
  966W        W62497  18.231  20.566   4.145
  967W        W62498  34.959  39.983  11.563
  968W        W62499  36.347  18.694   2.808
  969W        W62500  17.062  16.120  14.410
  970W        W62501  10.254  44.265   3.720
  971W        W62502  28.503   7.249   5.269
  972W        W62503  28.962  27.099   4.224
  973W        W62504  18.749  26.531  14.379
  974W        W62505   1.329   7.862   1.831
  975W        W62506  32.546  20.541  12.446
  976W        W62507  15.626   7.779  14.431
  977W        W62508  23.573  12.828   2.783
  978W        W62509  31.594   1.862  10.592
  979W        W62510  20.209   2.752   2.395
  980W        W62511   9.195  23.106   0.763
  981W        W62512  13.840   1.365  11.974
  982W        W62513   0.250  39.810  10.475
  983W        W62514  18.211   4.874   5.225
  984W        W62515  10.821  27.026   4.300
  985W        W62516  30.090  19.195  13.458
  986W        W62517  24.661  41.458   4.836
  987W        W62518  10.141   6.210  11.914
  988W        W62519  29.033  17.745  10.987
  989W        W62520   7.226  19.159   3.169
  990W        W62521  19.606  19.218  11.440
  991W        W62522  30.072  34.583  13.809
  992W        W62523  41.847  36.357  12.907
  993W        W62524  11.326  41.841   1.784
  994W        W62525  30.642  20.145   0.940
  995W        W62526  37.938  30.960   2.187
  996W        W62527   5.332  21.088   4.742
  997W        W62528   4.801  14.204   1.443
  998W        W62529  29.169  20.708  11.984
  999W        W62530   5.253  21.689   0.752
 1000W        W62531  18.270   1.430  12.967
 1001W        W62532  39.407   6.391  14.758
 1002W        W62533  22.685  28.093  12.939
 1003W        W62534  25.672   2.956  14.966
 1004W        W62535  12.275  35.483  14.952
 1005W        W62536  33.467  18.723  14.442
 1006W        W62537  27.176  11.153   2.198
 1007W        W62538  42.897  10.863   1.902
 1008W        W62539  22.615  12.610   3.342
 1009W        W62540   0.983  38.463  12.543
 1010W        W62541  29.032   6.912   1.914
 1011W        W62542  13.745  29.170  10.912
 1012W        W62543  41.960   1.381  12.029
 1013W        W62544  10.810   6.298  10.144
 1014W        W62545  19.608  22.097   4.121
 1015W        W62546  15.251  36.908   0.867
 1016W        W62547  25.146   4.823   4.267
 1017W        W62548  27.136  33.923   3.368
 1018W        W62549  43.404  35.920   0.955
 1019W        W62550  43.015  44.983  12.490
 1020W        W62551  28.028   5.213  14.483
 1021W        W62552  10.368  32.395  14.336
 1022W        W62553  42.371  22.172  14.312
 1023W        W62554  39.042  30.922  12.034
 1024W        W62555  12.802  13.646   0.349
 1025W        W62556  16.569  13.200  11.972
 1026W        W62557   3.942  24.689   2.708
 1027W        W62558  40.053  31.936   4.602
 1028W        W62559  14.116  36.897  11.413
 1029W        W62560  41.013  15.823   3.838
 1030W        W62561  21.739  21.018   4.124
 1031W        W62562   3.363  26.481   5.230
 1032W        W62563   0.345  11.306  10.645
 1033W        W62564  42.332   4.333   3.300
 1034W        W62565  32.558   5.758  11.608
 1035W        W62566  43.022  30.918  11.508
 1036W        W62567  37.016  19.191   2.208
 1037W        W62568   3.303  38.430   0.935
 1038W        W62569   9.669  43.477  11.928
 1039W        W62570  30.509  41.039  13.386
 1040W        W62571  26.019   5.350  11.974
 1041W        W62572  17.605  36.513  13.897
 1042W        W62573  38.042  19.649   5.204
 1043W        W62574   0.351  25.529  14.372
 1044W        W62575  44.924  34.052   0.469
 1045W        W62576  40.879   0.321  12.072
 1046W        W62577   5.294   6.372  10.976
 1047W        W62578  32.412  11.336   2.865
 1048W        W62579  17.795  24.994  14.924
 1049W        W62580   3.225  26.091  13.407
 1050W        W62581  20.526  11.780   4.304
 1051W        W62582  40.500  44.464  14.417
 1052W        W62583  23.073  36.525   4.608
 1053W        W62584  41.294   4.936  11.470
 1054W        W62585  30.554  44.982   2.335
 1055W        W62586   1.908  13.296   3.198
 1056W        W62587  39.495  29.142  12.841
 1057W        W62588   8.786  38.939  11.861
 1058W        W62589  11.646  13.675  14.307
 1059W        W62590   0.777  14.818   4.182
 1060W        W62591  17.598   8.271   0.368
 1061W        W62592  14.206   6.221  14.869
 1062W        W62593  30.109  38.903   4.816
 1063W        W62594  23.039  38.019   1.319
 1064W        W62595  20.626  10.293  11.584
 1065W        W62596   7.308   1.416  14.794
 1066W        W62597  25.055   0.973   0.878
 1067W        W62598  36.963  28.979  12.966
 1068W        W62599   2.904  12.127  10.590
 1069W        W62600  44.262  24.575   1.265
 1070W        W62601   1.437  42.306  11.609
 1071W        W62602  27.455   0.383  12.577
 1072W        W62603  25.001  33.006   0.827
 1073W        W62604  28.598  26.621   1.299
 1074W        W62605  25.005   6.205   1.753
 1075W        W62606  29.450  42.033   2.389
 1076W        W62607  36.348  14.611  12.505
 1077W        W62608  38.878  42.009  14.954
 1078W        W62609  11.842  35.929  14.947
 1079W        W62610  41.511  30.469   1.396
 1080W        W62611  30.026  23.698   3.235
 1081W        W62612  40.493  30.646  10.601
 1082W        W62613  11.220  28.523   0.727
 1083W        W62614  34.036  41.800   0.261
 1084W        W62615  33.455  20.583  12.986
 1085W        W62616  21.646  38.351   0.874
 1086W        W62617  38.355  21.065   3.218
 1087W        W62618  42.440  41.025  14.935
 1088W        W62619  24.501  24.705   2.193
 1089W        W62620  43.990  13.608  11.888
 1090W        W62621  13.305   2.383  11.929
 1091W        W62622   2.401  31.904   4.829
 1092W        W62623  20.759  32.593   1.324
 1093W        W62624  25.605  12.318  12.051
 1094W        W62625  41.830  18.547  13.990
 1095W        W62626   0.872  23.516  10.545
 1096W        W62627  42.949  30.913   3.682
 1097W        W62628  20.083  39.812  13.548
 1098W        W62629  19.285  31.067  13.863
 1099W        W62630   4.943   0.777  14.961
 1100W        W62631  29.162  30.554  11.947
 1101W        W62632  11.369   8.293   3.192
 1102W        W62633  17.248  16.652   2.336
 1103W        W62634  33.437  32.010  13.951
 1104W        W62635  17.149  42.345   4.218
 1105W        W62636  29.656   8.832  11.415
 1106W        W62637  37.087   9.352  14.984
 1107W        W62638   0.953  33.034   0.424
 1108W        W62639   6.199  12.834   9.966
 1109W        W62640  36.903  19.682   3.686
 1110W        W62641  14.611  39.975  11.611
 1111W        W62642  22.032  32.441  11.114
 1112W        W62643  29.580  39.340   4.307
 1113W        W62644  31.137  39.470  14.445
 1114W        W62645  37.519  26.002  13.952
 1115W        W62646  38.881  14.153  14.920
 1116W        W62647  40.951  10.771  11.031
 1117W        W62648  20.036  19.571   9.954
 1118W        W62649  18.730   9.377  11.425
 1119W        W62650  20.077  41.452  14.759
 1120W        W62651   5.216  15.659  14.997
 1121W        W62652  10.228   2.883   5.212
 1122W        W62653   7.718  36.929   0.753
 1123W        W62654  25.662   6.875   0.432
 1124W        W62655  41.919  28.524  10.938
 1125W        W62656   3.930   7.288  14.807
 1126W        W62657  13.612   8.331   0.834
 1127W        W62658  26.651   9.278  12.542
 1128W        W62659  42.466   7.804   0.349
 1129W        W62660  22.553  14.669   4.294
 1130W        W62661  29.432   7.882   0.777
 1131W        W62662  25.993  12.223  11.586
 1132W        W62663  30.027  15.254   0.372
 1133W        W62664  17.773  35.515   3.317
 1134W        W62665   0.259  11.722  13.477
 1135W        W62666  44.401  13.621  11.104
 1136W        W62667  22.538  33.927  10.943
 1137W        W62668  19.714  10.206   3.254
 1138W        W62669   9.250  27.681   4.161
 1139W        W62670  23.719  37.432  10.418
 1140W        W62671   8.165  22.706  12.374
 1141W        W62672  12.677  19.649   0.749
 1142W        W62673  34.465  22.731  11.032
 1143W        W62674  18.622   9.315   1.809
 1144W        W62675  15.253  35.857  11.463
 1145W        W62676   5.768   4.760   2.336
 1146W        W62677  16.270   0.920   1.810
 1147W        W62678  32.045  26.079  12.482
 1148W        W62679  20.109  42.968  10.895
 1149W        W62680  41.007  24.068   0.922
 1150W        W62681   1.410  29.974   2.707
 1151W        W62682  29.077  41.449  14.326
 1152W        W62683  28.027  21.187  13.834
 1153W        W62684  29.606  25.092  12.418
 1154W        W62685  22.563  29.024   4.296
 1155W        W62686  32.960  43.322   1.288
 1156W        W62687   0.361  19.119  14.972
 1157W        W62688   2.274  27.141  13.321
 1158W        W62689  12.242  28.936  13.922
 1159W        W62690  30.447  42.845   2.838
 1160W        W62691   3.881  18.114   4.329
 1161W        W62692  30.940  24.182  14.475
 1162W        W62693  19.653   5.299  13.499
 1163W        W62694  38.516  37.906   2.808
 1164W        W62695   7.781  36.380  13.391
 1165W        W62696  17.070   1.940  13.019
 1166W        W62697  23.216  18.245  10.430
 1167W        W62698  28.050  36.924   4.288
 1168W        W62699  43.421   9.676   2.195
 1169W        W62700  24.640  28.456  10.050
 1170W        W62701  10.160   7.907  10.528
 1171W        W62702  40.026  37.511   3.196
 1172W        W62703  33.476   8.376  14.805
 1173W        W62704   4.217  36.519   2.832
 1174W        W62705  29.606  37.411  12.863
 1175W        W62706  25.201  32.513  10.063
 1176W        W62707  42.389  36.074   4.288
 1177W        W62708   3.793  40.517  12.490
 1178W        W62709   4.402  13.661  13.511
 1179W        W62710  13.196  25.590  12.838
 1180W        W62711  13.638   8.267   2.236
 1181W        W62712  11.669  34.908   0.812
 1182W        W62713  31.586  31.069  11.088
 1183W        W62714   6.911  34.539  11.953
 1184W        W62715  26.557   6.322  14.031
 1185W        W62716  18.588  17.659   0.840
 1186W        W62717  36.007  30.457   0.871
 1187W        W62718  28.162  27.070   3.793
 1188W        W62719   3.752   6.407   4.805
 1189W        W62720   1.462  39.041   3.772
 1190W        W62721  38.518   6.852   2.822
 1191W        W62722   3.292  15.809   5.306
 1192W        W62723  39.424  34.424   4.331
 1193W        W62724   8.671  12.118  13.349
 1194W        W62725  10.694  32.961   2.397
 1195W        W62726   6.390  28.177   3.694
 1196W        W62727  42.374   9.172  11.862
 1197W        W62728  36.996  30.074  14.827
 1198W        W62729  20.752  17.276  13.338
 1199W        W62730   9.328  26.591   0.245
 1200W        W62731  31.936  11.680   3.290
 1201W        W62732   0.274   1.911   3.721
 1202W        W62733  36.031   7.910  12.032
 1203W        W62734   1.441  36.842   3.720
 1204W        W62735  19.209  24.542  11.963
 1205W        W62736  23.637  26.060   1.771
 1206W        W62737  37.481   5.423   2.785
 1207W        W62738  27.522  15.721   4.716
 1208W        W62739  17.726   8.216   1.415
 1209W        W62740  42.522  37.010  14.354
 1210W        W62741   5.418  19.115   4.807
 1211W        W62742  29.145  43.961  12.384
 1212W        W62743  42.362  15.728  11.961
 1213W        W62744   5.375  35.456   0.956
 1214W        W62745  43.499   3.901  12.959
 1215W        W62746   6.781  36.494  13.007
 1216W        W62747   2.742   8.310  10.903
 1217W        W62748  30.944  11.159   2.787
 1218W        W62749   0.318  29.591  10.910
 1219W        W62750  39.413  28.661  14.357
 1220W        W62751  27.619  17.099  14.359
 1221W        W62752  36.083  29.571  13.048
 1222W        W62753  34.588   9.368   2.746
 1223W        W62754   7.666  36.885   2.357
 1224W        W62755  15.656   2.960   3.685
 1225W        W62756  25.592  34.917   4.605
 1226W        W62757   3.755   0.954  10.543
 1227W        W62758  35.362  42.780   0.463
 1228W        W62759  37.920   1.878  11.891
 1229W        W62760  24.510  19.735   2.238
 1230W        W62761  36.541   0.818  13.481
 1231W        W62762  29.458  33.996   2.783
 1232W        W62763  34.094   1.910  12.420
 1233W        W62764   2.434  23.518   3.232
 1234W        W62765  18.731   1.333  11.013
 1235W        W62766  42.430  37.428  11.964
 1236W        W62767  40.432  32.615  10.541
 1237W        W62768  11.715  42.460   1.398
 1238W        W62769  31.458   1.410   4.146
 1239W        W62770  37.399   8.869  10.011
 1240W        W62771  34.403   7.302  11.125
 1241W        W62772  33.432  10.709  10.582
 1242W        W62773  15.707  34.463  11.407
 1243W        W62774  38.919  30.918  10.509
 1244W        W62775  20.743   1.352   1.726
 1245W        W62776   6.300  22.037   4.647
 1246W        W62777  35.966   3.864  13.800
 1247W        W62778  21.242  27.166   2.885
 1248W        W62779  38.412  42.029   2.675
 1249W        W62780  13.788  25.613  12.544
 1250W        W62781  10.760  15.818  10.153
 1251W        W62782  20.218  28.993  13.858
 1252W        W62783  36.895   3.723  12.563
 1253W        W62784  40.896  24.522  11.377
 1254W        W62785  27.177  13.168   2.357
 1255W        W62786   9.341  27.125   3.297
 1256W        W62787  25.192  34.943  14.386
 1257W        W62788   5.731  15.256  13.386
 1258W        W62789  26.045  44.818  12.339
 1259W        W62790  37.404  33.391   0.420
 1260W        W62791  25.969  26.126   1.370
 1261W        W62792  26.598  30.927  12.007
 1262W        W62793   9.273  18.272  10.126
 1263W        W62794  27.459  35.091  13.430
 1264W        W62795  41.016  16.258  14.340
 1265W        W62796  21.671  40.399   4.628
 1266W        W62797  10.233  18.250   2.262
 1267W        W62798  14.273  41.500   0.462
 1268W        W62799  24.167  44.840  11.954
 1269W        W62800  14.184  28.027  14.474
 1270W        W62801   7.823  39.042  13.050
 1271W        W62802  40.988  31.015  12.089
 1272W        W62803  36.996  42.394  10.904
 1273W        W62804  36.490  21.187  13.548
 1274W        W62805  21.189  11.137   3.679
 1275W        W62806   1.366  43.804  13.996
 1276W        W62807  32.584  14.807   2.805
 1277W        W62808  14.134  14.185   1.274
 1278W        W62809   0.265  24.095  13.936
 1279W        W62810  40.427  36.070   0.937
 1280W        W62811  11.232  41.825  10.918
 1281W        W62812   9.702  38.030  12.064
 1282W        W62813  38.849  19.066   0.888
 1283W        W62814  39.882  27.181  11.973
 1284W        W62815   2.847  15.108   1.850
 1285W        W62816  30.036   0.794   4.762
 1286W        W62817  14.812  22.529   2.823
 1287W        W62818  43.824  40.439  14.445
 1288W        W62819  11.839  26.116  10.623
 1289W        W62820   7.225  33.578   2.788
 1290W        W62821  23.239  14.663   3.154
 1291W        W62822  41.983  20.563   2.707
 1292W        W62823  42.334  18.654   3.686
 1293W        W62824  13.159   3.316   3.332
 1294W        W62825  30.437  20.712   0.474
 1295W        W62826  30.161   7.257  14.000
 1296W        W62827  14.244  29.041  12.380
 1297W        W62828  29.084  31.018  14.884
 1298W        W62829   4.704   4.826   5.150
 1299W        W62830  13.141  42.415   1.406
 1300W        W62831   5.222  20.632  13.389
 1301W        W62832  43.987  18.269   0.893
 1302W        W62833  33.560  22.225  13.320
 1303W        W62834  42.777  17.113  14.006
 1304W        W62835  34.392  39.889  12.977
 1305W        W62836  43.922  41.025  13.993
 1306W        W62837  24.988  17.668  14.906
 1307W        W62838  19.563  15.197  10.460
 1308W        W62839  10.669  29.079  12.855
 1309W        W62840  18.102  32.622  11.388
 1310W        W62841  23.719  38.882   1.310
 1311W        W62842   4.235  23.629   0.258
 1312W        W62843  18.193  44.364  11.873
 1313W        W62844  35.437  13.683  13.008
 1314W        W62845  41.813  32.010  11.893
 1315W        W62846   0.444  38.075  10.496
 1316W        W62847  33.107  24.102  12.924
 1317W        W62848  42.396  38.844   2.721
 1318W        W62849  11.829  44.935   1.328
 1319W        W62850  15.604  12.851  14.824
 1320W        W62851  42.811  27.583   4.733
 1321W        W62852  27.575  35.047   1.251
 1322W        W62853  17.234  16.682   2.895
 1323W        W62854  38.869   6.744  10.629
 1324W        W62855  19.062  38.531  10.515
 1325W        W62856  44.346   5.307  14.912
 1326W        W62857  34.419  23.626  10.635
 1327W        W62858  32.565   5.230   3.383
 1328W        W62859  23.129  14.635   1.340
 1329W        W62860  19.213  41.884   0.368
 1330W        W62861   6.315  21.743   0.428
 1331W        W62862   8.708  28.537   0.864
 1332W        W62863  19.703  13.190   2.248
 1333W        W62864  43.954  18.108   2.338
 1334W        W62865  29.457   5.430   1.824
 1335W        W62866  28.174  20.036  13.904
 1336W        W62867  26.478  37.541   9.920
 1337W        W62868  16.114  34.607   3.825
 1338W        W62869  18.050  21.729  14.979
 1339W        W62870  20.112  11.198  13.830
 1340W        W62871  12.277  20.750  11.561
 1341W        W62872  35.867  19.162  11.392
 1342W        W62873  21.165  40.994  14.346
 1343W        W62874  40.919  40.397  12.009
 1344W        W62875  15.091  34.505   2.776
 1345W        W62876  15.137  20.049   3.804
 1346W        W62877  35.521  25.122  11.409
 1347W        W62878  15.676  26.522   0.333
 1348W        W62879  30.582  34.516  10.479
 1349W        W62880  43.999   7.313  14.390
 1350W        W62881   3.825  38.075   4.724
 1351W        W62882  22.147  15.817  10.621
 1352W        W62883  33.598  38.902  10.453
 1353W        W62884  41.025  33.075  11.476
 1354W        W62885   5.298  35.530  13.318
 1355W        W62886  21.257  21.124  13.498
 1356W        W62887  36.907  12.320  13.954
 1357W        W62888   7.254  43.929  14.810
 1358W        W62889  13.220   5.749  12.089
 1359W        W62890  35.060  40.036   5.316
 1360W        W62891   8.705   4.783  14.821
 1361W        W62892  42.961  23.687  13.052
 1362W        W62893  23.030  23.629  10.566
 1363W        W62894   9.155  18.571   2.667
 1364W        W62895  25.014  29.049  14.440
 1365W        W62896  22.656  38.895   1.402
 1366W        W62897  40.369  31.566   3.632
 1367W        W62898   9.787  39.934   1.272
 1368W        W62899  28.128   4.357   4.793
 1369W        W62900  39.866  36.891   4.772
 1370W        W62901   0.897  41.466  11.603
 1371W        W62902  30.625  32.117  10.585
 1372W        W62903  14.117  14.706   2.693
 1373W        W62904   5.386   0.864   1.317
 1374W        W62905   6.230  42.866  13.378
 1375W        W62906  15.723   9.811   0.958
 1376W        W62907  26.053  37.047  13.401
 1377W        W62908  18.640   0.320   0.262
 1378W        W62909  13.272  42.827   0.730
 1379W        W62910  17.083  29.478  14.490
 1380W        W62911  34.415   2.427  10.956
 1381W        W62912  33.453  40.544   2.262
 1382W        W62913  18.215  14.165  11.975
 1383W        W62914  12.158  20.219   3.320
 1384W        W62915  12.283  15.592  13.839
 1385W        W62916  26.087  30.985  11.113
 1386W        W62917  27.104   3.862  11.554
 1387W        W62918  32.911  39.825   2.666
 1388W        W62919  38.556   5.248  14.335
 1389W        W62920  27.562  34.417  10.496
 1390W        W62921   2.899  25.120  11.942
 1391W        W62922   7.184  44.941  11.563
 1392W        W62923  44.474  17.128  11.906
 1393W        W62924  31.997  37.910  13.001
 1394W        W62925  17.698  14.148   1.323
 1395W        W62926  12.709   1.316   5.640
 1396W        W62927  12.227  25.564  13.383
 1397W        W62928   2.351  29.053   1.818
 1398W        W62929  38.950   7.269   1.934
 1399W        W62930   6.734  28.601   4.673
 1400W        W62931  33.598  36.404   2.888
 1401W        W62932  35.521   1.475   3.189
 1402W        W62933  28.605  34.885   4.340
 1403W        W62934  10.716  34.476  14.812
 1404W        W62935  27.487  17.066  10.578
 1405W        W62936  25.708  39.321   3.853
 1406W        W62937  28.509   6.227  14.392
 1407W        W62938  14.613  20.586  10.430
 1408W        W62939  16.094   5.691  12.009
 1409W        W62940  10.208  34.444   2.795
 1410W        W62941  15.127   0.491   3.174
 1411W        W62942   0.957   0.917  14.000
 1412W        W62943  29.460  11.738  10.112
 1413W        W62944   0.929  21.554  11.969
 1414W        W62945   0.432   9.679   1.869
 1415W        W62946  12.340  43.990  10.637
 1416W        W62947  22.604   4.843   1.289
 1417W        W62948  26.158  15.197   2.784
 1418W        W62949  18.746   3.315   0.881
 1419W        W62950   5.396  13.204  11.478
 1420W        W62951  19.205   2.884  14.471
 1421W        W62952  20.254  14.721  12.958
 1422W        W62953   4.321  23.100  11.102
 1423W        W62954  28.028  34.006   3.171
 1424W        W62955  32.621   1.834   2.208
 1425W        W62956   2.458  37.347   4.666
 1426W        W62957  32.065  13.188  14.976
 1427W        W62958  11.305  43.367  11.117
 1428W        W62959  34.088  22.196  11.990
 1429W        W62960  30.582  17.575   0.418
 1430W        W62961  41.840  21.647  12.955
 1431W        W62962   2.881  22.166  12.827
 1432W        W62963  32.973  23.679   2.332
 1433W        W62964  26.650  29.506  12.503
 1434W        W62965  44.955  24.103   4.122
 1435W        W62966   0.772  29.613  14.866
 1436W        W62967   5.419  19.158   1.844
 1437W        W62968  21.687  20.136  12.016
 1438W        W62969  11.831  25.182   0.748
 1439W        W62970   9.158  36.069  12.362
 1440W        W62971  36.045   2.312  13.429
 1441W        W62972   1.284  29.116  12.506
 1442W        W62973   4.213  16.573   3.804
 1443W        W62974  18.254  24.687   0.757
 1444W        W62975  42.900   4.739  14.795
 1445W        W62976   3.360  31.644  11.538
 1446W        W62977  24.215   4.204  13.959
 1447W        W62978  32.980  19.723  11.414
 1448W        W62979   8.190   3.747  14.901
 1449W        W62980  11.353  22.631  14.000
 1450W        W62981  32.418  25.628   3.755
 1451W        W62982  16.638   1.774   3.244
 1452W        W62983  23.095   2.809  13.354
 1453W        W62984  26.170   8.837  14.760
 1454W        W62985   6.849  38.415   2.330
 1455W        W62986  24.500  29.051   2.344
 1456W        W62987  37.028  13.818   0.445
 1457W        W62988  23.570  33.067   2.693
 1458W        W62989   7.356   3.338   4.802
 1459W        W62990  27.509  28.610  11.476
 1460W        W62991  10.647  42.000   0.836
 1461W        W62992  19.634   1.307   3.318
 1462W        W62993   2.451   3.713  10.507
 1463W        W62994  11.726   8.853  12.354
 1464W        W62995   1.253   8.782   3.178
 1465W        W62996  20.648  41.424   0.407
 1466W        W62997   6.414  13.670  10.489
 1467W        W62998   4.205  29.979   0.360
 1468W        W62999  29.925   3.812  10.937
 1469W        W63000  26.004  36.954  12.014
 1470W        W63001  22.528  12.128   0.776
 1471W        W63002  13.214  37.845  12.400
 1472W        W63003   5.350  19.187  14.883
 1473W        W63004   6.711  25.004   0.781
 1474W        W63005  28.971  34.997   3.281
 1475W        W63006  24.639  31.911  10.406
 1476W        W63007  41.879  29.633   0.348
 1477W        W63008  36.842  28.522  13.970
 1478W        W63009  33.989  35.978   1.878
 1479W        W63010   6.701  17.131  11.537
 1480W        W63011  28.942  22.608  10.642
 1481W        W63012  43.929   4.794  11.585
 1482W        W63013  36.060  31.491   3.210
 1483W        W63014  26.513  28.626   2.839
 1484W        W63015  15.613  42.303  11.920
 1485W        W63016  31.141  36.001  12.471
 1486W        W63017   3.270   8.336  11.042
 1487W        W63018   1.959  28.957   3.255
 1488W        W63019  15.764  35.380   0.388
 1489W        W63020  21.097  13.747  14.922
 1490W        W63021  27.077  23.519   2.833
 1491W        W63022  18.163   5.881   3.281
 1492W        W63023  14.796  30.510   2.793
 1493W        W63024  39.498  36.899  11.567
 1494W        W63025   2.831  26.014   1.714
 1495W        W63026  17.132  40.021   1.856
 1496W        W63027  13.143  27.544  13.961
 1497W        W63028  27.476  24.211   3.633
 1498W        W63029   8.199  23.495  14.943
 1499W        W63030   8.863  39.484  10.478
 1500W        W63031  21.678  41.986   1.264
 1501W        W63032  32.068   9.171   0.369
 1502W        W63033   2.253  10.865  12.359
 1503W        W63034  31.519  16.708   3.689
 1504W        W63035   9.176  31.009   1.414
 1505W        W63036  17.777  30.115   0.399
 1506W        W63037  32.582   0.911  11.373
 1507W        W63038  12.324   9.772  12.986
 1508W        W63039   2.351  15.135   0.310
 1509W        W63040  22.237  24.125   4.620
 1510W        W63041  21.107   1.415  10.495
 1511W        W63042   2.858  24.613   4.217
 1512W        W63043  20.709  26.977   4.676
 1513W        W63044   2.342  22.175   2.342
 1514W        W63045  21.584  16.623  10.940
 1515W        W63046  38.974   2.281  11.092
 1516W        W63047  27.189  35.904  11.438
 1517W        W63048  29.532  36.584   0.257
 1518W        W63049  30.099  36.547   1.821
 1519W        W63050  12.853  36.037  14.353
 1520W        W63051  32.418  10.877  14.870
 1521W        W63052   9.697  10.195   1.246
 1522W        W63053  36.903  22.605  14.363
 1523W        W63054  23.094  26.103  10.545
 1524W        W63055  15.232   4.885  13.825
 1525W        W63056  30.487  27.165  14.789
 1526W        W63057  13.845  32.550   1.919
 1527W        W63058  18.129  25.562   2.274
 1528W        W63059  43.873  17.232  13.798
 1529W        W63060  35.401  34.475  13.327
 1530W        W63061  24.684  23.664  13.308
 1531W        W63062  37.893  27.504   4.307
 1532W        W63063   7.330  17.786  14.010
 1533W        W63064  11.253   9.248   4.629
 1534W        W63065  42.823  17.177  10.491
 1535W        W63066  16.653  23.145   3.680
 1536W        W63067   7.226   2.928  13.932
 1537W        W63068  28.566   7.328  12.413
 1538W        W63069  43.985  44.354   0.930
 1539W        W63070  25.991  34.474  13.542
 1540W        W63071  25.526   9.165   2.841
 1541W        W63072  27.040  35.001   3.252
 1542W        W63073  31.021   4.919  14.343
 1543W        W63074  40.417  13.830  13.515
 1544W        W63075  26.498  22.087  12.408
 1545W        W63076  37.980   9.674   2.252
 1546W        W63077   8.226   8.705   4.664
 1547W        W63078   4.710  21.156  10.611
 1548W        W63079  36.875  20.218   1.412
 1549W        W63080  38.918  33.450   1.895
 1550W        W63081  44.446  44.407  12.020
 1551W        W63082  27.080  26.466  13.513
 1552W        W63083  34.461   3.905  12.825
 1553W        W63084  33.116   4.359   3.825
 1554W        W63085  20.164  33.105  10.968
 1555W        W63086  11.793  31.583   2.894
 1556W        W63087   9.219  15.584  14.473
 1557W        W63088  21.114  30.945   4.784
 1558W        W63089  34.064  39.808   0.253
 1559W        W63090  20.155  38.831   1.363
 1560W        W63091  44.940  15.635  12.377
 1561W        W63092  21.191   5.877  10.532
 1562W        W63093  19.714  30.982  13.963
 1563W        W63094   4.886   4.779   1.893
 1564W        W63095  15.267   5.298   2.292
 1565W        W63096  26.518  35.968   2.222
 1566W        W63097  24.186  13.643   2.807
 1567W        W63098   9.163  27.072   4.641
 1568W        W63099  39.448  36.027   3.221
 1569W        W63100   4.441  30.935  10.419
 1570W        W63101  12.256  23.207   0.382
 1571W        W63102  26.682  20.690   2.378
 1572W        W63103  39.327  22.702   4.666
 1573W        W63104  39.530  29.456  13.331
 1574W        W63105  14.231  26.545  14.423
 1575W        W63106  15.631  15.701  14.293
 1576W        W63107  13.272  42.880   3.335
 1577W        W63108  35.542  31.932   3.862
 1578W        W63109  31.899  44.267  14.383
 1579W        W63110  37.966  28.996  14.353
 1580W        W63111  38.522  20.629   4.773
 1581W        W63112  29.669   6.681   0.928
 1582W        W63113  24.026   8.869   4.351
 1583W        W63114   8.839  35.910   3.290
 1584W        W63115  40.508  43.773  11.605
 1585W        W63116  21.180  29.063  12.491
 1586W        W63117  16.632  17.164   4.300
 1587W        W63118  34.021   6.836   2.901
 1588W        W63119  26.152  42.905  13.389
 1589W        W63120  23.554   6.270   2.253
 1590W        W63121  23.598  33.935  12.492
 1591W        W63122  41.030  15.295   1.299
 1592W        W63123  10.831  31.118   1.788
 1593W        W63124  40.402  27.457  14.368
 1594W        W63125   8.196  40.502   0.749
 1595W        W63126  18.227  39.414   0.374
 1596W        W63127  21.128   0.375   4.193
 1597W        W63128   4.272  37.942  13.006
 1598W        W63129  37.864  43.371  13.994
 1599W        W63130   8.183  36.579   0.746
 1600W        W63131   3.268   7.676  10.992
 1601W        W63132  26.176   1.395   0.256
 1602W        W63133   9.850  34.957  10.496
 1603W        W63134   8.880   4.238   3.654
 1604W        W63135   5.862  21.089   1.255
 1605W        W63136  38.411  19.564   3.723
 1606W        W63137  37.998  40.998  14.454
 1607W        W63138  32.000  27.119  11.102
 1608W        W63139  24.092  19.185  14.017
 1609W        W63140  19.054  33.494   1.282
 1610W        W63141  43.377   7.679   3.791
 1611W        W63142  28.063   4.784  10.450
 1612W        W63143  14.155  34.872   3.808
 1613W        W63144  23.114  43.914  13.360
 1614W        W63145   5.421  19.760  14.810
 1615W        W63146  18.106  10.197   1.298
 1616W        W63147   9.857   9.385  12.533
 1617W        W63148  29.946  15.705  14.790
 1618W        W63149   5.769  35.430  14.791
 1619W        W63150  28.147  27.628  12.937
 1620W        W63151  17.154  22.168   4.705
 1621W        W63152   8.726  42.865  14.906
 1622W        W63153  16.730  18.639  14.922
 1623W        W63154  44.795  40.543   0.398
 1624W        W63155  20.734  20.678  11.473
 1625W        W63156  41.944  18.576  11.469
 1626W        W63157  15.309  11.632   1.228
 1627W        W63158  26.118  35.010  12.494
 1628W        W63159  15.162  22.690  10.425
 1629W        W63160  44.814  18.214   3.361
 1630W        W63161  38.021   6.371   4.318
 1631W        W63162   1.384  28.512   2.840
 1632W        W63163  14.703  21.143  14.951
 1633W        W63164  17.223   6.800  11.524
 1634W        W63165  36.911   2.907   4.349
 1635W        W63166  41.497  28.594  12.846
 1636W        W63167  24.591   1.970   2.309
 1637W        W63168  20.207  33.396   1.915
 1638W        W63169  36.510  15.310  14.280
 1639W        W63170  34.382  30.972   2.758
 1640W        W63171  12.781  25.002  12.931
 1641W        W63172  34.047  38.455  13.898
 1642W        W63173   9.740  32.967  13.052
 1643W        W63174  22.212  23.217  14.486
 1644W        W63175  35.550  23.023  10.900
 1645W        W63176  36.559  31.509   4.223
 1646W        W63177  25.195  38.977   1.843
 1647W        W63178  39.942  20.138  14.343
 1648W        W63179   4.409  21.619   4.677
 1649W        W63180  44.809  22.214   0.759
 1650W        W63181  19.193   2.471  12.364
 1651W        W63182  42.423  23.623  13.322
 1652W        W63183   9.279  12.669  13.793
 1653W        W63184  17.149  11.362   2.711
 1654W        W63185  29.053   9.811   2.807
 1655W        W63186  25.080  37.339  12.032
 1656W        W63187  21.516   6.834   1.349
 1657W        W63188  31.642  38.034   1.749
 1658W        W63189  36.858  12.645  14.864
 1659W        W63190  12.612  32.607   5.151
 1660W        W63191  13.802  29.968   9.997
 1661W        W63192  27.492  41.850  14.344
 1662W        W63193  39.941  31.619   3.290
 1663W        W63194  38.041  16.803  13.017
 1664W        W63195   6.276  19.617   0.942
 1665W        W63196   0.866  14.830   1.769
 1666W        W63197  37.526  13.801   0.930
 1667W        W63198  18.734  22.030   4.117
 1668W        W63199  31.058  40.847  12.399
 1669W        W63200   7.311  34.534  14.022
 1670W        W63201  17.665   5.757   1.431
 1671W        W63202  30.015  40.885   1.307
 1672W        W63203  15.726  35.071  13.518
 1673W        W63204  14.261  29.588   0.926
 1674W        W63205  36.588  39.981   3.806
 1675W        W63206  18.560  35.424   0.732
 1676W        W63207   8.897  18.598  11.019
 1677W        W63208   9.263  17.733  11.019
 1678W        W63209  15.152  14.239   0.865
 1679W        W63210   0.821  28.050   3.327
 1680W        W63211   0.417  33.945   4.602
 1681W        W63212  28.663  21.684  10.634
 1682W        W63213  30.525   0.267   3.829
 1683W        W63214  19.110  19.701  13.313
 1684W        W63215   5.713  30.107  14.333
 1685W        W63216  12.646  42.027   4.317
 1686W        W63217  27.669  36.859  13.850
 1687W        W63218  42.429  21.074  11.459
 1688W        W63219  34.424  24.574   1.300
 1689W        W63220  17.638   1.460   2.736
 1690W        W63221   5.289  33.948   0.953
 1691W        W63222  21.580  22.155   4.698
 1692W        W63223  41.517  14.228  11.576
 1693W        W63224  27.471  41.456  14.932
 1694W        W63225   9.365  40.858   4.335
 1695W        W63226  38.466   8.375   2.267
 1696W        W63227  10.203  28.077   3.774
 1697W        W63228  43.351  33.403  11.057
 1698W        W63229   4.384  42.869  11.481
 1699W        W63230  21.197   7.758   3.776
 1700W        W63231  37.434  30.956   0.406
 1701W        W63232  35.467  24.077  13.929
 1702W        W63233  39.844  11.283   2.185
 1703W        W63234  21.263  33.444   4.775
 1704W        W63235  14.321  37.443  13.521
 1705W        W63236  24.144  33.018   2.191
 1706W        W63237  42.018  35.578   4.809
 1707W        W63238  44.405  40.993   4.346
 1708W        W63239   0.383  32.918   4.267
 1709W        W63240   0.849   4.228   3.758
 1710W        W63241  29.664   4.841   4.299
 1711W        W63242  30.501  11.153   3.374
 1712W        W63243  25.058  44.355  11.123
 1713W        W63244   9.814  31.937   4.667
 1714W        W63245   8.799  32.466  11.578
 1715W        W63246  11.222  44.441   2.690
 1716W        W63247  35.418  15.593  14.977
 1717W        W63248  31.610   2.462  14.975
 1718W        W63249  29.007  35.514   1.725
 1719W        W63250  43.009   4.718  14.284
 1720W        W63251  12.210   2.768   3.286
 1721W        W63252  17.189  13.736  11.900
 1722W        W63253  42.309  14.656  11.114
 1723W        W63254  32.024   7.678  14.342
 1724W        W63255  16.606   8.706   0.875
 1725W        W63256  43.830  33.961  10.907
 1726W        W63257  31.151  26.467   0.414
 1727W        W63258  28.159  43.298  13.341
 1728W        W63259  13.249  20.650  12.832
 1729W        W63260  23.499   3.747  13.792
 1730W        W63261   0.779  11.679  12.941
 1731W        W63262  31.078  40.329  13.846
 1732W        W63263  22.717  37.009   4.341
 1733W        W63264  17.245  25.592   0.410
 1734W        W63265  22.123   9.351   3.752
 1735W        W63266  13.620  35.541   3.289
 1736W        W63267  28.960  25.993  14.348
 1737W        W63268  28.606   6.831  10.428
 1738W        W63269  25.044  12.692   4.708
 1739W        W63270  31.943  24.571   1.386
 1740W        W63271  33.474  29.096  10.990
 1741W        W63272  16.142  15.732  11.863
 1742W        W63273   8.217   4.942   0.804
 1743W        W63274  31.154   4.211  13.477
 1744W        W63275  40.839  24.667   4.769
 1745W        W63276  10.703  34.115  14.296
 1746W        W63277   1.881  41.461  14.783
 1747W        W63278  21.520  36.994   2.321
 1748W        W63279  22.589  26.684   5.179
 1749W        W63280  32.942  25.075  11.015
 1750W        W63281   4.206  13.191   0.414
 1751W        W63282  18.564  22.228  14.347
 1752W        W63283  20.263  14.751  12.050
 1753W        W63284  20.257  28.539  11.986
 1754W        W63285  12.334  35.958  13.975
 1755W        W63286  38.431  10.816   2.807
 1756W        W63287   2.906  44.770  14.316
 1757W        W63288  11.826  44.845   3.763
 1758W        W63289   2.320  36.421  12.034
 1759W        W63290  25.190  40.926  14.809
 1760W        W63291   4.896   8.895   3.157
 1761W        W63292  36.052  44.797   0.295
 1762W        W63293  24.219   9.379  13.876
 1763W        W63294  13.635  15.650  11.908
 1764W        W63295  39.425  14.739  10.478
 1765W        W63296  23.032  29.520  10.551
 1766W        W63297  38.043  32.138  14.507
 1767W        W63298  40.008  29.132   4.240
 1768W        W63299  39.469  12.323  12.410
 1769W        W63300  32.531   4.326  10.922
 1770W        W63301  12.173  26.972  11.062
 1771W        W63302  27.464   0.795  12.094
 1772W        W63303  34.510  27.671   0.459
 1773W        W63304  19.077  17.118   0.369
 1774W        W63305   7.221  40.465   1.293
 1775W        W63306  40.844  26.040  13.058
 1776W        W63307  21.017  36.353  13.889
 1777W        W63308  13.263  25.473  13.500
 1778W        W63309   3.881  33.531  12.026
 1779W        W63310   4.835  13.615   3.291
 1780W        W63311  34.927  21.664   2.886
 1781W        W63312  34.916  41.818   4.124
 1782W        W63313  32.050  23.072   0.295
 1783W        W63314   0.258  18.203   1.390
 1784W        W63315   2.276  17.284   5.304
 1785W        W63316  43.994  14.670  12.435
 1786W        W63317  32.108   5.919   4.119
 1787W        W63318   3.352   7.678  10.619
 1788W        W63319   1.899  29.435   4.603
 1789W        W63320  27.128  30.147  10.083
 1790W        W63321  38.340   8.397  12.971
 1791W        W63322  44.463  30.580   0.847
 1792W        W63323  22.702  22.680  13.823
 1793W        W63324  39.350  18.574  13.356
 1794W        W63325  21.696  32.486  10.567
 1795W        W63326  33.571  17.758  11.989
 1796W        W63327  28.569  37.880  12.475
 1797W        W63328  44.473   2.425  14.881
 1798W        W63329  19.202  17.204   1.356
 1799W        W63330  37.427  22.688   4.222
 1800W        W63331  15.684  27.502  10.892
 1801W        W63332   8.745  22.718   1.841
 1802W        W63333   7.779  28.556   3.376
 1803W        W63334   7.312  35.373  13.915
 1804W        W63335  28.554  18.230  13.413
 1805W        W63336  26.583  34.015  10.560
 1806W        W63337  10.769  43.431  13.504
 1807W        W63338  44.421  21.716  12.924
 1808W        W63339  39.472  18.240  14.433
 1809W        W63340  26.058  35.890   4.189
 1810W        W63341  27.490  41.808  12.904
 1811W        W63342   7.837  37.992  13.797
 1812W        W63343  40.998  22.719   4.778
 1813W        W63344   9.177  38.853  10.011
 1814W        W63345  15.615   6.350   2.228
 1815W        W63346  39.959  32.901  13.529
 1816W        W63347  36.537   8.703  12.953
 1817W        W63348  29.624   5.385  11.027
 1818W        W63349  13.611  36.390   4.159
 1819W        W63350  27.590   1.873  10.987
 1820W        W63351  27.679   7.307  11.913
 1821W        W63352  39.982  20.708  13.437
 1822W        W63353   8.771   8.880  11.392
 1823W        W63354  39.951  13.122  13.034
 1824W        W63355   5.297   3.814   0.779
 1825W        W63356   6.248  44.308   1.898
 1826W        W63357  12.155  14.762   4.206
 1827W        W63358  34.509  41.476   5.239
 1828W        W63359   7.743  40.929   3.718
 1829W        W63360   9.675  39.351  11.024
 1830W        W63361  12.348  32.082  13.064
 1831W        W63362  43.925  35.008  11.431
 1832W        W63363  29.020  30.079   0.900
 1833W        W63364  11.803  41.028  12.995
 1834W        W63365  30.606   3.300   3.819
 1835W        W63366  36.908  12.182   2.294
 1836W        W63367  19.542  14.203  13.484
 1837W        W63368  43.334  34.909   3.755
 1838W        W63369  14.096  25.539  11.581
 1839W        W63370  11.784  18.081  14.826
 1840W        W63371  10.852  37.342  11.587
 1841W        W63372  25.964  14.257  14.476
 1842W        W63373  15.327  38.346   3.847
 1843W        W63374  20.753  41.342  10.541
 1844W        W63375  36.383  25.586  12.437
 1845W        W63376  42.856   8.696  14.328
 1846W        W63377  35.531  24.058   2.864
 1847W        W63378  28.097  22.504  14.990
 1848W        W63379  10.177  29.155   3.171
 1849W        W63380   7.264  21.617  12.094
 1850W        W63381   2.897  41.440   1.229
 1851W        W63382  38.874  13.793   1.739
 1852W        W63383  20.112   6.898   2.825
 1853W        W63384  38.851  32.588  12.408
 1854W        W63385  18.779  27.978   2.715
 1855W        W63386   7.758  41.301   5.203
 1856W        W63387  43.476  10.766  11.430
 1857W        W63388  18.729   4.866   1.861
 1858W        W63389  22.153  10.778  11.066
 1859W        W63390  22.042  36.969   4.737
 1860W        W63391  12.362  39.938  13.460
 1861W        W63392   9.280  16.110   2.727
 1862W        W63393   4.406   0.260   3.850
 1863W        W63394  12.142   4.217   2.190
 1864W        W63395  22.058  26.149   3.146
 1865W        W63396   3.227   4.339  14.284
 1866W        W63397  43.510  44.955   1.805
 1867W        W63398  40.323  28.596   4.166
 1868W        W63399  23.615   4.732   1.218
 1869W        W63400  20.088  40.002  12.961
 1870W        W63401  20.666  17.217  12.957
 1871W        W63402  44.350  31.486   1.369
 1872W        W63403   6.716  14.312   0.818
 1873W        W63404  43.845  40.888   3.750
 1874W        W63405  31.072  15.631   2.356
 1875W        W63406  11.690  35.912   0.424
 1876W        W63407  36.529  29.068   4.192
 1877W        W63408  12.844  29.633  13.535
 1878W        W63409   9.150  16.602   3.181
 1879W        W63410  39.439  11.252   3.726
 1880W        W63411  35.106  19.076   4.803
 1881W        W63412  18.208   6.187  10.580
 1882W        W63413   9.804  21.193  12.096
 1883W        W63414  15.325  33.606  14.468
 1884W        W63415  32.437  43.867  11.922
 1885W        W63416  36.532  43.351  11.864
 1886W        W63417  33.567  25.707   0.269
 1887W        W63418  44.477  36.901   2.704
 1888W        W63419  15.303  38.888   4.828
 1889W        W63420  43.764  32.520   4.114
 1890W        W63421   6.745  28.931  13.836
 1891W        W63422   1.280  42.895  13.035
 1892W        W63423   0.862  29.126  10.019
 1893W        W63424  16.115  25.502  13.868
 1894W        W63425  14.120   9.167   4.707
 1895W        W63426  27.108  26.143   0.286
 1896W        W63427   2.827  29.459   2.350
 1897W        W63428   9.838  22.685  11.085
 1898W        W63429   7.194  31.098  12.431
 1899W        W63430   3.390  29.955   4.833
 1900W        W63431   6.875   0.975   4.289
 1901W        W63432  38.331  38.568  13.547
 1902W        W63433  25.711  18.548   1.446
 1903W        W63434  18.670  12.745  14.984
 1904W        W63435   0.290   6.184   1.264
 1905W        W63436  20.211  22.236  12.361
 1906W        W63437  40.811  16.639   1.803
 1907W        W63438  16.188  20.050   4.169
 1908W        W63439   7.801  19.625   3.866
 1909W        W63440  23.090   5.829   4.299
 1910W        W63441  34.036  36.013  11.038
 1911W        W63442  36.587  36.071   1.831
 1912W        W63443  38.457  20.200   2.193
 1913W        W63444   6.683  11.830  14.990
 1914W        W63445  31.012  23.556  13.419
 1915W        W63446  23.079   0.264   4.661
 1916W        W63447  19.220   4.228   3.633
 1917W        W63448  44.874  34.915   4.824
 1918W        W63449   6.734  43.350  13.030
 1919W        W63450  26.163  27.043   3.167
 1920W        W63451  28.158   0.322   1.378
 1921W        W63452  40.858   9.327  12.377
 1922W        W63453  26.959   7.342  14.476
 1923W        W63454  18.093  18.568  11.987
 1924W        W63455  31.006  44.428  11.067
 1925W        W63456  40.440   8.250  14.510
 1926W        W63457  14.679  25.601   0.727
 1927W        W63458  26.532  41.935   1.308
 1928W        W63459  24.998   3.218   3.289
 1929W        W63460   9.737  35.401   0.302
 1930W        W63461  25.058  37.401  14.911
 1931W        W63462   0.252   7.399   4.705
 1932W        W63463  11.688  37.007   1.339
 1933W        W63464  37.978  14.663  10.618
 1934W        W63465  14.679  33.976  10.424
 1935W        W63466   0.870  34.561   1.280
 1936W        W63467  23.570  30.952   3.166
 1937W        W63468  38.419   6.216   1.757
 1938W        W63469  31.031  40.921   3.653
 1939W        W63470  21.531  38.332  11.094
 1940W        W63471  12.790  33.897  12.918
 1941W        W63472   3.912   9.671  10.523
 1942W        W63473  39.831  28.535  11.038
 1943W        W63474  16.129  27.670   2.318
 1944W        W63475  41.527  30.607  11.957
 1945W        W63476  14.623  20.269  12.092
 1946W        W63477   3.306   4.357  11.393
 1947W        W63478   2.819   5.921   1.408
 1948W        W63479  44.856   9.747  14.490
 1949W        W63480  21.123  10.862  13.962
 1950W        W63481  32.496  19.197   0.269
 1951W        W63482  27.534  20.553  11.575
 1952W        W63483   2.376   8.757   4.259
 1953W        W63484  14.718  39.548   0.264
 1954W        W63485  35.530  34.610   4.220
 1955W        W63486   9.312   1.921  14.805
 1956W        W63487  12.127   3.332  11.024
 1957W        W63488  42.836  33.042   3.779
 1958W        W63489  25.527  36.451  13.429
 1959W        W63490  35.023  18.276  10.963
 1960W        W63491  27.085  22.023  12.386
 1961W        W63492   9.696   4.708   9.944
 1962W        W63493   9.281  36.032   3.656
 1963W        W63494   1.386  33.959  14.972
 1964W        W63495  19.618  15.134  11.420
 1965W        W63496   9.730  22.046  11.425
 1966W        W63497  36.495  38.331   1.270
 1967W        W63498  28.086  42.850  10.900
 1968W        W63499  18.624  40.891   0.776
 1969W        W63500   3.932  12.777   4.789
 1970W        W63501  34.986  17.743  12.034
 1971W        W63502   1.970  18.132   3.854
 1972W        W63503  34.896  39.993   0.897
 1973W        W63504   0.828   3.776   1.283
 1974W        W63505  41.029   9.368   2.255
 1975W        W63506   9.733  43.952  12.393
 1976W        W63507   7.354  17.187  14.388
 1977W        W63508  16.710  11.725   4.801
 1978W        W63509   9.723  23.034  10.945
 1979W        W63510  10.358  34.940  14.916
 1980W        W63511  23.548   2.290  12.917
 1981W        W63512  38.821   4.416   4.661
 1982W        W63513  13.269   4.250   4.647
 1983W        W63514  23.570   0.478   4.123
 1984W        W63515  23.055   8.898  13.477
 1985W        W63516   6.280  29.622   1.415
 1986W        W63517  15.777   6.755   0.779
 1987W        W63518   5.779  26.086   3.385
 1988W        W63519   4.423  39.345  14.341
 1989W        W63520  30.486   7.785  12.889
 1990W        W63521  37.457   0.776  13.389
 1991W        W63522  37.555  38.881  12.870
 1992W        W63523  42.859   6.920   4.177
 1993W        W63524  22.225  21.217   1.695
 1994W        W63525  38.846  38.839   3.719
 1995W        W63526  38.936  18.103   2.738
 1996W        W63527  31.521  36.045   0.354
 1997W        W63528  16.732  30.476   3.822
 1998W        W63529   9.679  17.293  14.901
 1999W        W63530   8.871   1.269   2.337
 2000W        W63531  44.322  10.229  13.933
 2001W        W63532   8.830  18.251   4.185
 2002W        W63533  39.328  42.374   2.267
 2003W        W63534  17.254  26.028  13.330
 2004W        W63535  10.820  31.568   4.173
 2005W        W63536   0.903  13.194   2.811
 2006W        W63537  10.793  31.617   0.942
 2007W        W63538   4.299  18.686  13.034
 2008W        W63539  30.541  17.680   3.649
 2009W        W63540  42.336   7.856   2.356
 2010W        W63541  12.789  20.180   0.398
 2011W        W63542  29.650  23.024  14.429
 2012W        W63543  23.181  21.536  14.401
 2013W        W63544  34.582  24.013   4.201
 2014W        W63545  37.040  22.251   1.848
 2015W        W63546   4.255  18.164  11.589
 2016W        W63547   7.183   7.878   1.748
 2017W        W63548  28.128  37.949   4.599
 2018W        W63549  44.994  12.317   4.154
 2019W        W63550  20.715  14.102  11.582
 2020W        W63551  27.452  10.183   2.776
 2021W        W63552  19.619  10.754   0.472
 2022W        W63553  29.491   6.880   0.246
 2023W        W63554  32.103   5.385   3.856
 2024W        W63555  23.037  33.961  12.020
 2025W        W63556  22.066  43.894  10.953
 2026W        W63557  19.105  30.939  12.054
 2027W        W63558  30.655   5.351  10.578
 2028W        W63559   7.393  19.683  10.413
 2029W        W63560  26.544  36.363  11.911
 2030W        W63561  23.122  36.016   0.325
 2031W        W63562  41.322  10.216  11.511
 2032W        W63563  36.084  11.671   4.646
 2033W        W63564   0.338  16.766   4.720
 2034W        W63565   5.325  20.258  14.927
 2035W        W63566  20.616  36.571  13.434
 2036W        W63567  29.533   7.373  10.040
 2037W        W63568  42.848  34.420   1.802
 2038W        W63569  20.533  34.032   1.815
 2039W        W63570  31.433  39.930   1.445
 2040W        W63571  18.280  44.346  11.509
 2041W        W63572  19.560  44.278   5.286
 2042W        W63573  27.635   4.742   3.267
 2043W        W63574   5.347   7.718   3.849
 2044W        W63575   1.307  11.170  13.924
 2045W        W63576  16.781   5.798   4.215
 2046W        W63577  20.092   7.356   0.436
 2047W        W63578   3.723  22.218   5.172
 2048W        W63579  30.497  29.445  11.998
 2049W        W63580  43.477  29.154  13.820
 2050W        W63581   8.175   4.773  12.573
 2051W        W63582  10.266  34.116   2.413
 2052W        W63583  21.565   5.806   2.727
 2053W        W63584  26.561   0.806   0.940
 2054W        W63585  26.519  41.533   1.757
 2055W        W63586  14.211   1.845  11.863
 2056W        W63587  35.496  42.972  12.389
 2057W        W63588  23.001  18.690   2.809
 2058W        W63589  11.666  12.801   1.434
 2059W        W63590  20.643  41.302   4.239
 2060W        W63591  22.147  16.813  12.416
 2061W        W63592   3.924  29.073  11.104
 2062W        W63593   4.803  33.056  14.834
 2063W        W63594  43.486  40.834   4.292
 2064W        W63595  15.181  15.728  13.896
 2065W        W63596  38.539  28.546  10.466
 2066W        W63597  17.295   4.818   4.691
 2067W        W63598  24.501  28.081  11.378
 2068W        W63599   3.955  17.744   3.217
 2069W        W63600  43.804  11.792   3.780
 2070W        W63601  41.999  16.699   4.800
 2071W        W63602  32.017  14.337   1.846
 2072W        W63603   3.393  23.187  11.863
 2073W        W63604   4.750  26.569   0.846
 2074W        W63605  23.520  29.120  12.999
 2075W        W63606  34.404   8.366   2.807
 2076W        W63607  42.805  19.747  12.349
 2077W        W63608  38.953   3.333  14.992
 2078W        W63609  28.179  39.967   1.226
 2079W        W63610  23.224  19.698  12.855
 2080W        W63611   9.859  23.037  13.946
 2081W        W63612  19.048  33.897  10.936
 2082W        W63613  31.902  10.308   1.729
 2083W        W63614  37.531  16.237  12.025
 2084W        W63615  37.000  41.476   0.315
 2085W        W63616  15.201  10.724  10.437
 2086W        W63617  44.817  39.482   2.805
 2087W        W63618  14.137  42.905  14.777
 2088W        W63619   2.442  32.596   1.831
 2089W        W63620  11.820  18.732  11.475
 2090W        W63621  30.493  33.610   2.355
 2091W        W63622  24.021  33.890  14.829
 2092W        W63623  16.722  19.183   2.214
 2093W        W63624   8.226  25.054  13.473
 2094W        W63625  24.029  10.245  13.328
 2095W        W63626  42.896  32.959  13.862
 2096W        W63627  34.061   8.842  11.084
 2097W        W63628  13.304   7.402   0.372
 2098W        W63629  44.267   1.888  12.856
 2099W        W63630  26.113  31.092   9.604
 2100W        W63631  28.509  13.791  14.310
 2101W        W63632  24.567  30.435  13.529
 2102W        W63633  34.413  34.593  12.986
 2103W        W63634   6.819  24.610   3.849
 2104W        W63635   4.814  10.168   3.206
 2105W        W63636   8.390  13.765  13.053
 2106W        W63637  42.303  22.702   0.481
 2107W        W63638  24.220  37.520   2.817
 2108W        W63639  26.637  30.489   0.960
 2109W        W63640  14.280  18.223  12.407
 2110W        W63641  23.177  22.664   0.854
 2111W        W63642  41.813  34.437  13.844
 2112W        W63643  10.311   6.420  12.471
 2113W        W63644   2.872   2.387   3.304
 2114W        W63645  16.115  28.593  11.938
 2115W        W63646  22.007  12.669   2.781
 2116W        W63647   0.928  40.855  13.526
 2117W        W63648  28.633  23.536   0.357
 2118W        W63649   5.249  15.199  11.526
 2119W        W63650  10.869   8.744   2.761
 2120W        W63651  37.897  27.449   0.810
 2121W        W63652  44.908  37.446  11.086
 2122W        W63653  24.555  42.922  11.055
 2123W        W63654   3.727   1.324  12.339
 2124W        W63655  25.124  30.582   4.182
 2125W        W63656  19.543  44.492   2.848
 2126W        W63657  33.102  35.464  13.313
 2127W        W63658  41.417  35.912   1.251
 2128W        W63659   6.703  20.567   4.669
 2129W        W63660  37.355  11.816  12.542
 2130W        W63661  30.093  38.361   0.778
 2131W        W63662  10.664  42.803   3.383
 2132W        W63663  25.578   7.695   4.126
 2133W        W63664  33.912  15.694  13.415
 2134W        W63665   2.920  38.552  12.050
 2135W        W63666  41.494  13.752   1.744
 2136W        W63667  20.122  35.420   4.177
 2137W        W63668  37.535  18.161  10.897
 2138W        W63669   8.786  43.979  10.946
 2139W        W63670  42.359  41.321   3.788
 2140W        W63671   2.463   0.766   1.858
 2141W        W63672  19.769   1.739  12.538
 2142W        W63673  30.142  20.052   4.182
 2143W        W63674   5.314  36.488   2.711
 2144W        W63675  11.291  40.474  14.381
 2145W        W63676  16.258  13.339   3.185
 2146W        W63677  28.582  18.075   0.804
 2147W        W63678  19.252  38.377   0.759
 2148W        W63679  15.589   7.789   4.240
 2149W        W63680  18.554  14.290   3.170
 2150W        W63681  25.706  15.285   2.286
 2151W        W63682  20.192  30.066  12.416
 2152W        W63683  19.556   9.824   3.795
 2153W        W63684  33.615  13.145  11.540
 2154W        W63685  43.896  44.811   3.164
 2155W        W63686   6.376  28.663  12.053
 2156W        W63687  15.729  37.077   0.472
 2157W        W63688  19.653  32.969  13.369
 2158W        W63689   6.862  25.670   1.924
 2159W        W63690  41.010  10.296   0.355
 2160W        W63691   5.433   5.329   0.474
 2161W        W63692  11.634  18.606   4.774
 2162W        W63693  41.971  21.029   4.821
 2163W        W63694  38.048  38.507  12.466
 2164W        W63695  36.399   0.835   0.279
 2165W        W63696  18.566   4.304   4.690
 2166W        W63697  18.107  42.308  11.121
 2167W        W63698  44.812   0.979   3.795
 2168W        W63699  39.422  10.701  14.310
 2169W        W63700  20.627  33.489   1.249
 2170W        W63701   2.938  22.567   3.178
 2171W        W63702  14.330  42.525   3.738
 2172W        W63703  41.434  22.172   2.215
 2173W        W63704   3.782  33.923   1.314
 2174W        W63705  27.486  36.426  14.913
 2175W        W63706  18.244   4.814   3.271
 2176W        W63707   3.845  37.007  13.333
 2177W        W63708  24.066  31.902  12.415
 2178W        W63709   7.834  24.229   4.678
 2179W        W63710   2.462  40.947  11.609
 2180W        W63711  28.177  16.225   2.718
 2181W        W63712  27.126   0.744   4.140
 2182W        W63713  27.577  38.434  10.896
 2183W        W63714  38.068  42.999   0.956
 2184W        W63715  34.082  42.402  11.897
 2185W        W63716  18.600   9.822  14.774
 2186W        W63717  34.537  19.667   4.163
 2187W        W63718  10.848  20.199   2.332
 2188W        W63719  25.565  24.531   2.837
 2189W        W63720   4.392  39.550  10.584
 2190W        W63721  37.082  35.541   2.365
 2191W        W63722  35.036  17.106  14.025
 2192W        W63723  12.255  44.854  11.378
 2193W        W63724  39.380  33.578   4.715
 2194W        W63725  16.647   0.336   0.406
 2195W        W63726  33.587  30.470  12.550
 2196W        W63727   3.798  38.465  14.866
 2197W        W63728   5.785  25.175  11.388
 2198W        W63729   2.785  25.176  12.952
 2199W        W63730   6.416   9.741  11.106
 2200W        W63731  36.493   2.332  14.899
 2201W        W63732  17.123  24.094   3.633
 2202W        W63733   9.837  13.331  13.853
 2203W        W63734  10.196  31.124   4.764
 2204W        W63735  39.481   8.886  10.955
 2205W        W63736  13.776  28.027  11.592
 2206W        W63737  26.476   4.907  11.875
 2207W        W63738  25.684  32.425  14.475
 2208W        W63739  20.574  29.055  13.801
 2209W        W63740  21.024   9.837   4.228
 2210W        W63741  33.090  15.788  12.505
 2211W        W63742  20.704   0.365  12.930
 2212W        W63743  29.534   8.400  11.889
 2213W        W63744  30.937   7.773   1.396
 2214W        W63745  26.585   5.805   4.269
 2215W        W63746  12.270  39.856  11.953
 2216W        W63747  10.235  25.473  10.461
 2217W        W63748  13.768  12.188  13.983
 2218W        W63749   0.753  20.753   4.665
 2219W        W63750   5.928  14.138  12.503
 2220W        W63751  42.006  15.633  13.802
 2221W        W63752  38.566   8.294   0.286
 2222W        W63753  10.714  25.597  12.896
 2223W        W63754  22.690  10.750   0.922
 2224W        W63755   0.248   0.307  12.469
 2225W        W63756  15.609  44.383  13.792
 2226W        W63757  44.805  16.784  13.004
 2227W        W63758  22.104  12.725  12.557
 2228W        W63759   5.269  22.145   4.255
 2229W        W63760  44.927  14.137  13.398
 2230W        W63761  17.102   4.433  12.873
 2231W        W63762  21.739  10.739   2.741
 2232W        W63763   7.789   9.811  14.777
 2233W        W63764  18.716  23.194   4.271
 2234W        W63765  20.697  36.974   5.199
 2235W        W63766  41.461  20.069   4.162
 2236W        W63767  30.528  28.567   4.709
 2237W        W63768  17.158   0.883  14.428
 2238W        W63769  13.835  34.887  10.944
 2239W        W63770   3.425  30.595  13.802
 2240W        W63771  42.875  36.503  11.069
 2241W        W63772  42.021  31.071  12.426
 2242W        W63773  27.645  23.211  11.013
 2243W        W63774  25.218  32.138  14.413
 2244W        W63775  35.453  20.144   0.875
 2245W        W63776  33.912  19.113  13.852
 2246W        W63777  37.521  43.793   0.946
 2247W        W63778   3.930  17.207   3.358
 2248W        W63779   1.273  41.298  13.442
 2249W        W63780  30.165  27.494   1.821
 2250W        W63781   8.367  36.478   3.844
 2251W        W63782  29.921  20.070  14.302
 2252W        W63783  10.169  43.488   4.714
 2253W        W63784  37.962  29.953   4.330
 2254W        W63785   0.335  24.494  10.496
 2255W        W63786  25.012  32.909  11.531
 2256W        W63787   5.303  24.166  14.377
 2257W        W63788   3.226   9.738  14.795
 2258W        W63789  17.747  30.090  13.448
 2259W        W63790  10.678   3.809   4.143
 2260W        W63791  20.562   0.425   0.954
 2261W        W63792   5.866  41.366   2.768
 2262W        W63793  27.142   1.943  14.782
 2263W        W63794   9.842  27.540  12.054
 2264W        W63795   0.492  35.055   2.220
 2265W        W63796  39.894  36.436  14.302
 2266W        W63797   7.901  22.010   4.731
 2267W        W63798  42.804  36.981   4.238
 2268W        W63799   4.392  44.304  14.330
 2269W        W63800  10.357  15.180   0.886
 2270W        W63801  13.315  34.390  13.433
 2271W        W63802  34.867  12.769  10.031
 2272W        W63803  43.459   0.334   2.259
 2273W        W63804  19.623  16.247  12.982
 2274W        W63805  21.036  36.920  14.504
 2275W        W63806   5.804  17.179   4.705
 2276W        W63807  12.723  44.423  12.556
 2277W        W63808  18.668   8.275   1.927
 2278W        W63809  25.977  28.563  11.112
 2279W        W63810  15.329  24.556   2.774
 2280W        W63811  39.416  24.147   4.771
 2281W        W63812  35.960   5.349   0.377
 2282W        W63813  24.492   7.252   2.703
 2283W        W63814  11.699  35.504  11.546
 2284W        W63815  40.798  23.225  10.634
 2285W        W63816  22.568  23.181   3.384
 2286W        W63817   5.337  25.502   0.893
 2287W        W63818   0.384  32.619  14.759
 2288W        W63819  10.834  29.475   2.814
 2289W        W63820  29.449   1.797   1.767
 2290W        W63821  38.520  33.927   3.176
 2291W        W63822   3.274   9.333   0.269
 2292W        W63823  37.903  35.006   3.322
 2293W        W63824  36.051   8.160  14.903
 2294W        W63825  33.551  38.919   4.131
 2295W        W63826  24.606  13.254  12.833
 2296W        W63827  29.927  31.619   1.716
 2297W        W63828   9.758  20.558  10.946
 2298W        W63829  33.419  17.570  13.931
 2299W        W63830  11.135  28.107  13.797
 2300W        W63831  13.634   5.843   0.848
 2301W        W63832  10.856  35.056  13.915
 2302W        W63833  25.508  41.339   4.229
 2303W        W63834  20.745   1.296  14.952
 2304W        W63835   8.748  12.755   0.760
 2305W        W63836   7.909  39.866   3.185
 2306W        W63837  38.360  18.206   3.238
 2307W        W63838  32.954  20.748  10.474
 2308W        W63839  16.227  27.468  14.485
 2309W        W63840  41.354  13.652  12.965
 2310W        W63841  15.794  15.603  10.410
 2311W        W63842  29.476   6.219  10.577
 2312W        W63843  30.036  27.573   4.198
 2313W        W63844  39.831   6.406  13.441
 2314W        W63845  15.630  21.753   4.123
 2315W        W63846  30.531   4.715  12.095
 2316W        W63847  31.133  10.877   2.265
 2317W        W63848  32.551  26.489  10.052
 2318W        W63849   7.188  18.665   2.878
 2319W        W63850  37.534  11.829   0.318
 2320W        W63851  32.590   8.223  12.064
 2321W        W63852  31.969  33.551   2.350
 2322W        W63853  29.604  32.420  10.892
 2323W        W63854  14.619  15.719   4.600
 2324W        W63855   3.955  37.369  13.513
 2325W        W63856  25.531  14.321  14.415
 2326W        W63857  19.536  24.565   3.234
 2327W        W63858   3.802  40.869  11.551
 2328W        W63859  35.565  34.018  14.890
 2329W        W63860  20.685  26.505  10.152
 2330W        W63861   1.947  23.499  13.865
 2331W        W63862  15.146  14.748  13.860
 2332W        W63863   1.930  19.577  12.956
 2333W        W63864  10.174  31.407  10.096
 2334W        W63865  13.183  16.694  11.969
 2335W        W63866  19.059  15.699  12.437
 2336W        W63867   8.312  12.712  14.382
 2337W        W63868  19.691  22.722  11.575
 2338W        W63869  32.635  27.121  14.489
 2339W        W63870  20.613  11.329   4.804
 2340W        W63871  17.134  30.481   1.886
 2341W        W63872   0.816   4.876   4.296
 2342W        W63873  15.116  43.806   2.719
 2343W        W63874  42.877  19.686   0.757
 2344W        W63875  15.299  10.234  13.035
 2345W        W63876  28.994   8.365  14.894
 2346W        W63877  43.481  42.394  13.956
 2347W        W63878  27.597  42.845   4.221
 2348W        W63879   2.371  16.625   1.882
 2349W        W63880  28.951   3.931   3.731
 2350W        W63881  28.028  32.953   2.265
 2351W        W63882  22.549   2.794  14.831
 2352W        W63883   7.247  43.897   2.679
 2353W        W63884  36.900  16.722  12.494
 2354W        W63885   2.418  35.580  11.862
 2355W        W63886  25.654  28.952   4.315
 2356W        W63887   1.287  37.031  13.519
 2357W        W63888  19.071  40.402   2.242
 2358W        W63889  28.136  37.525  10.915
 2359W        W63890  44.984  42.857   2.757
 2360W        W63891  20.261  19.562  13.536
 2361W        W63892   6.767  33.521  13.014
 2362W        W63893  26.525   3.811  12.445
 2363W        W63894   2.339  32.107  10.617
 2364W        W63895   0.806  31.582  10.455
 2365W        W63896  11.638   0.485  12.851
 2366W        W63897  30.541  23.683   0.478
 2367W        W63898  15.676  41.921  13.855
 2368W        W63899   8.827  39.873   1.335
 2369W        W63900  22.203   3.755  11.534
 2370W        W63901  34.949  11.301   2.665
 2371W        W63902   5.821   4.895   4.133
 2372W        W63903  12.334   8.881   3.842
 2373W        W63904  27.458  12.801  12.355
 2374W        W63905  16.203  32.064   4.776
 2375W        W63906   4.812  18.295   4.250
 2376W        W63907  43.306  25.965   0.902
 2377W        W63908  30.128   6.893  11.983
 2378W        W63909  38.491  43.785  14.906
 2379W        W63910  33.589  16.674  11.397
 2380W        W63911  15.231   8.841  11.893
 2381W        W63912  32.619  24.030   2.867
 2382W        W63913  37.950  35.436  13.936
 2383W        W63914  17.213  32.072  12.557
 2384W        W63915   1.773  18.651  13.799
 2385W        W63916  33.587   9.725   4.241
 2386W        W63917   3.313   7.185   0.370
 2387W        W63918  37.445  42.002   0.299
 2388W        W63919  23.117  20.745  12.986
 2389W        W63920  31.983   8.819  12.898
 2390W        W63921   2.400  41.929  12.858
 2391W        W63922  36.083  43.787  14.990
 2392W        W63923  34.592  30.063   2.395
 2393W        W63924  21.178   7.312   2.685
 2394W        W63925  29.574  16.635   0.778
 2395W        W63926  34.985   7.718  13.842
 2396W        W63927  14.757   0.824  12.959
 2397W        W63928  25.094  38.882  13.331
 2398W        W63929  34.553   2.287  11.872
 2399W        W63930  43.892   2.943   4.704
 2400W        W63931  23.077  44.372  14.831
 2401W        W63932  39.944   5.374   2.360
 2402W        W63933  31.905  44.292   2.821
 2403W        W63934  37.381  35.904   2.260
 2404W        W63935  14.727   9.775   2.745
 2405W        W63936  22.505   6.685  13.053
 2406W        W63937  31.972  27.982   0.741
 2407W        W63938  20.145  35.461   3.377
 2408W        W63939   3.852  16.643  13.874
 2409W        W63940  16.739  43.002  14.368
 2410W        W63941  36.948   6.690   4.657
 2411W        W63942  23.213  10.366   4.200
 2412W        W63943   6.277  42.920  13.958
 2413W        W63944  41.861  20.127   3.813
 2414W        W63945  32.483  33.399   4.328
 2415W        W63946  11.836  22.106   0.737
 2416W        W63947   2.464  18.615  11.913
 2417W        W63948  11.359  36.968   3.162
 2418W        W63949  15.274  38.479  14.953
 2419W        W63950   2.731  11.752   2.191
 2420W        W63951  18.196  32.603  12.968
 2421W        W63952  30.434  30.614   1.261
 2422W        W63953  43.511  21.221   0.907
 2423W        W63954  39.414  28.110   0.850
 2424W        W63955   7.378  35.856  10.940
 2425W        W63956  14.297  19.058   2.267
 2426W        W63957   7.401   7.219  14.433
 2427W        W63958  35.546  33.494  13.351
 2428W        W63959  34.521   1.747   4.801
 2429W        W63960  18.096  31.423  13.994
 2430W        W63961  15.637  41.867   1.227
 2431W        W63962  22.521  24.996  13.860
 2432W        W63963  19.249  27.688  13.981
 2433W        W63964   2.336  22.703   4.200
 2434W        W63965  29.458  20.238  10.501
 2435W        W63966  16.653  32.521   0.952
 2436W        W63967  26.583  13.196   0.304
 2437W        W63968  14.604   0.838   4.798
 2438W        W63969  29.011  36.517   1.356
 2439W        W63970  41.933   7.343  11.928
 2440W        W63971  26.143  21.543   3.655
 2441W        W63972  42.296  21.067  13.857
 2442W        W63973  15.718  43.828   1.903
 2443W        W63974  20.570  24.663  12.945
 2444W        W63975  41.999   1.974   4.691
 2445W        W63976  29.464  42.864   1.788
 2446W        W63977   9.763  23.684  14.771
 2447W        W63978  40.315  31.543   0.865
 2448W        W63979  29.114  38.938   3.379
 2449W        W63980  14.297   0.744   3.203
 2450W        W63981   2.429   9.787  12.011
 2451W        W63982  26.690  20.224  12.897
 2452W        W63983   6.371  16.175  13.480
 2453W        W63984  41.955   0.906   1.849
 2454W        W63985   6.306  39.914   3.230
 2455W        W63986  10.714  39.367   1.861
 2456W        W63987  12.239  28.668   5.273
 2457W        W63988  25.984   7.897   3.213
 2458W        W63989  32.055  17.729  11.095
 2459W        W63990  28.435  29.459  12.342
 2460W        W63991  12.765  30.531  14.886
 2461W        W63992   5.253  20.555   2.415
 2462W        W63993  19.217   0.423   1.276
 2463W        W63994   3.923  44.329  12.466
 2464W        W63995  12.132  40.516   3.711
 2465W        W63996  24.088  34.506  14.760
 2466W        W63997  42.918   2.883   0.328
 2467W        W63998  21.220  33.066   1.217
 2468W        W63999  43.873  36.979   3.804
 2469W        W64000  42.941  44.478  10.066
 2470W        W64001  31.116  17.218  10.950
 2471W        W64002   6.704  42.854  11.570
 2472W        W64003  23.204  18.752   4.804
 2473W        W64004  25.120  39.510  13.359
 2474W        W64005  41.481  43.786   1.231
 2475W        W64006  34.403   3.773  13.380
 2476W        W64007  34.949  17.067  13.465
 2477W        W64008  27.105   0.909   4.696
 2478W        W64009  12.286  31.120  12.412
 2479W        W64010  30.424  22.204  11.431
 2480W        W64011  25.602  41.369  14.898
 2481W        W64012  35.992  20.535   0.934
 2482W        W64013   6.743  12.182  14.939
 2483W        W64014  22.081  17.203   2.274
 2484W        W64015  16.623  28.501   3.854
 2485W        W64016  16.186  23.512  10.580
 2486W        W64017  10.801  44.940  13.414
 2487W        W64018  35.517  20.632   4.299
 2488W        W64019  19.710  44.921  14.957
 2489W        W64020  27.667  39.904   0.275
 2490W        W64021  11.362  37.074   4.692
 2491W        W64022   5.209  28.584   4.115
 2492W        W64023  10.322   7.238   3.785
 2493W        W64024  42.030  40.031  11.896
 2494W        W64025  35.974   5.214  13.887
 2495W        W64026  33.484  25.671  14.337
 2496W        W64027  17.172   8.364  14.422
 2497W        W64028   7.771  43.775   0.341
 2498W        W64029   3.366  40.403  13.309
 2499W        W64030  22.220   5.355   2.294
 2500W        W64031  37.017  21.099   3.231
 2501W        W64032  37.879  42.952   4.263
 2502W        W64033  39.961  19.659  10.637
 2503W        W64034  24.088  16.625   2.358
 2504W        W64035  20.106   9.812  12.944
 2505W        W64036   0.309  29.999   0.445
 2506W        W64037  29.096   0.290  12.542
 2507W        W64038   9.231   4.712   3.243
 2508W        W64039  23.077  19.058   0.472
 2509W        W64040  13.107   5.422  13.847
 2510W        W64041  23.014   4.866   4.707
 2511W        W64042  23.678   1.805  13.957
 2512W        W64043   9.209  24.065  13.479
 2513W        W64044  24.104  11.688   0.309
 2514W        W64045  19.273  11.314   1.883
 2515W        W64046  28.930   1.259   0.925
 2516W        W64047   1.349  34.866   3.767
 2517W        W64048  13.232  28.169   3.293
 2518W        W64049  29.670   2.727  11.535
 2519W        W64050  12.223  26.527   1.425
 2520W        W64051   3.365  28.548   5.794
 2521W        W64052  27.978   3.932  12.383
 2522W        W64053  17.612  12.855  11.463
 2523W        W64054   7.831  30.605  13.545
 2524W        W64055  19.176  34.540   1.739
 2525W        W64056  12.121   1.860   0.963
 2526W        W64057  25.047  26.658  13.009
 2527W        W64058   0.273  11.293  11.976
 2528W        W64059  10.279  43.872  12.440
 2529W        W64060  12.681  35.537   3.840
 2530W        W64061  40.865  43.423  13.929
 2531W        W64062   9.182  10.740   4.672
 2532W        W64063   7.870  27.498  11.019
 2533W        W64064  42.386  34.393  11.553
 2534W        W64065  17.673  16.707  10.992
 2535W        W64066  41.380  38.391   2.278
 2536W        W64067  32.115   8.175   1.346
 2537W        W64068  38.462  27.502   2.349
 2538W        W64069   9.869  28.505   2.271
 2539W        W64070   1.761  42.927  11.501
 2540W        W64071  16.105  35.059   2.410
 2541W        W64072  21.135  31.125  14.792
 2542W        W64073  25.651  39.516  10.561
 2543W        W64074   2.868  32.967   1.327
 2544W        W64075  29.099   0.404  13.486
 2545W        W64076  21.107   9.231  12.928
 2546W        W64077  22.725  20.066   4.189
 2547W        W64078  37.846  30.573   0.803
 2548W        W64079   1.844  23.029   2.345
 2549W        W64080  15.726  22.709   0.753
 2550W        W64081  30.417  38.447  12.056
 2551W        W64082  35.884   3.917   0.373
 2552W        W64083  41.896  27.984   1.920
 2553W        W64084  12.642  18.104  14.020
 2554W        W64085   8.216  12.167  14.950
 2555W        W64086  31.432  16.205  14.464
 2556W        W64087  35.898  32.430   2.191
 2557W        W64088  22.175  13.299   0.331
 2558W        W64089  43.799  14.725   0.808
 2559W        W64090  12.297  10.247   4.649
 2560W        W64091  34.435  25.513   3.284
 2561W        W64092  18.289  42.290   4.145
 2562W        W64093  27.659  11.321   0.934
 2563W        W64094  42.926   1.390  12.359
 2564W        W64095  35.592  31.624   0.326
 2565W        W64096  21.212   1.784  12.967
 2566W        W64097   0.916  44.948   4.700
 2567W        W64098  19.045  23.984  11.478
 2568W        W64099  37.517   6.711  14.823
 2569W        W64100   4.923   8.382  10.571
 2570W        W64101  11.190   6.738  12.009
 2571W        W64102  10.853   8.263  11.941
 2572W        W64103  23.188  29.466  11.496
 2573W        W64104  30.477  35.001  13.929
 2574W        W64105   5.286  17.105  11.920
 2575W        W64106  33.051  15.608   2.403
 2576W        W64107  14.166  13.338   5.119
 2577W        W64108  39.007  15.809   1.806
 2578W        W64109  14.273  37.865   0.733
 2579W        W64110   8.227  10.267   3.227
 2580W        W64111   9.864   6.227  12.053
 2581W        W64112  21.612  44.927   1.717
 2582W        W64113  14.320  37.047   1.856
 2583W        W64114  23.050  23.626   0.324
 2584W        W64115  18.654  18.087   2.754
 2585W        W64116  22.603   8.390  11.412
 2586W        W64117  27.193  22.234  12.917
 2587W        W64118  26.631   0.758   1.436
 2588W        W64119  17.720  29.019   4.306
 2589W        W64120  39.835  35.030  13.999
 2590W        W64121   7.244  28.466  12.366
 2591W        W64122  21.161  26.046   2.793
 2592W        W64123  11.768  34.996   2.767
 2593W        W64124   1.297  14.668   0.862
 2594W        W64125   6.334  31.558  12.971
 2595W        W64126   5.703  28.003  14.997
 2596W        W64127  18.165  18.611   2.791
 2597W        W64128  37.963  26.697  13.980
 2598W        W64129  13.782  44.419   4.233
 2599W        W64130   7.175  41.901   1.917
 2600W        W64131  17.581  10.805   2.404
 2601W        W64132  15.281  32.558   0.411
 2602W        W64133   4.815  10.807   2.371
 2603W        W64134  19.264  16.258  13.971
 2604W        W64135  39.055   8.873  11.501
 2605W        W64136  39.872  34.515  11.484
 2606W        W64137  25.025  20.686  13.405
 2607W        W64138  26.543  20.087   4.830
 2608W        W64139   7.287  24.181  11.128
 2609W        W64140  14.626  14.264   0.783
 2610W        W64141  34.031  31.939  13.315
 2611W        W64142  19.259   1.368  14.930
 2612W        W64143  10.698  41.913   2.673
 2613W        W64144  15.703  13.669  10.422
 2614W        W64145  28.132  23.639  12.887
 2615W        W64146  44.497  43.283  11.026
 2616W        W64147  39.426   0.453  13.481
 2617W        W64148  38.075   0.984  13.412
 2618W        W64149  26.144  31.442   0.370
 2619W        W64150  25.687  12.281  11.033
 2620W        W64151  40.882  40.927   0.376
 2621W        W64152  43.387  17.085   4.204
 2622W        W64153  29.501  21.145  11.095
 2623W        W64154  31.562   6.357  12.412
 2624W        W64155  25.534  30.138  11.558
 2625W        W64156   6.270  39.543  10.578
 2626W        W64157  41.304  44.765   0.774
 2627W        W64158  37.438   9.169   0.266
 2628W        W64159  21.652  38.445  14.773
 2629W        W64160  22.707  23.054   1.341
 2630W        W64161  19.730  41.950   3.216
 2631W        W64162  36.473  13.174  11.584
 2632W        W64163  38.859   9.239   3.350
 2633W        W64164  18.092  37.909   2.845
 2634W        W64165  26.078   7.287   1.412
 2635W        W64166   1.246  14.130  11.870
 2636W        W64167  35.369  13.307  14.398
 2637W        W64168  38.842   0.477   2.293
 2638W        W64169  40.432  21.104  12.897
 2639W        W64170  36.915  10.180   3.766
 2640W        W64171  32.049  25.622  10.918
 2641W        W64172   1.830  32.551  14.383
 2642W        W64173   7.192  36.549   1.253
 2643W        W64174  19.675  39.553   5.585
 2644W        W64175   2.885   8.244   2.827
 2645W        W64176  14.107  40.504  14.791
 2646W        W64177  33.967  27.188   1.723
 2647W        W64178  23.211  33.394  11.010
 2648W        W64179  32.553  29.018   2.397
 2649W        W64180  13.199  22.666  10.510
 2650W        W64181   6.294  43.772  11.073
 2651W        W64182  13.685  34.479  13.497
 2652W        W64183  14.185  14.803  12.454
 2653W        W64184  31.063   7.777   3.738
 2654W        W64185  39.540  42.492   1.423
 2655W        W64186  35.100  38.893   2.365
 2656W        W64187   9.332  37.974   3.790
 2657W        W64188  27.964  12.836  12.854
 2658W        W64189  36.352  15.804  12.526
 2659W        W64190   9.202  24.586  11.940
 2660W        W64191  29.424  12.785  12.339
 2661W        W64192   8.850  43.939  12.578
 2662W        W64193   0.424   9.719   4.659
 2663W        W64194  12.666  32.417   0.311
 2664W        W64195  39.342  15.615   3.804
 2665W        W64196   0.946  38.530  13.378
 2666W        W64197  17.752  41.454   2.348
 2667W        W64198  10.807  20.146  12.420
 2668W        W64199  16.309  34.989  10.912
 2669W        W64200  25.152  29.524  14.945
 2670W        W64201   3.410  35.415  12.473
 2671W        W64202   7.224  39.883   2.390
 2672W        W64203  34.595  19.052  11.548
 2673W        W64204  17.681  32.938  13.016
 2674W        W64205  28.038  14.667   3.841
 2675W        W64206  44.482  26.980  11.039
 2676W        W64207  43.840  22.247  11.935
 2677W        W64208  36.012  17.188  13.536
 2678W        W64209  13.146  29.930  11.451
 2679W        W64210  14.672   9.884  12.824
 2680W        W64211  20.031   1.873   1.280
 2681W        W64212  36.054  11.246   3.669
 2682W        W64213  29.041  15.693   4.308
 2683W        W64214   2.745  28.943   1.797
 2684W        W64215  26.533  42.435   4.154
 2685W        W64216  11.658  14.813  13.958
 2686W        W64217  23.149   5.343  14.853
 2687W        W64218  34.035  35.097   0.908
 2688W        W64219  34.943  34.450   1.789
 2689W        W64220  33.930  32.995  11.921
 2690W        W64221  33.020  44.303  10.564
 2691W        W64222  22.606  14.259   1.285
 2692W        W64223  35.484  14.589  14.865
 2693W        W64224   2.420   0.926   3.221
 2694W        W64225  34.530  18.221   5.731
 2695W        W64226  16.230  25.524   2.888
 2696W        W64227   2.420  21.237  12.523
 2697W        W64228  27.947  35.449   2.890
 2698W        W64229  39.492  38.010  11.588
 2699W        W64230  32.523  39.021   1.283
 2700W        W64231   8.665  20.546   1.256
 2701W        W64232  29.118  36.544  11.072
 2702W        W64233  23.237  29.428   4.734
 2703W        W64234  23.066  24.218   3.672
 2704W        W64235   0.969  44.768   2.194
 2705W        W64236  22.242  24.621   1.266
 2706W        W64237  30.514  40.875   0.356
 2707W        W64238   3.919   4.378   3.365
 2708W        W64239  31.595  17.066   1.391
 2709W        W64240   7.206  24.162   0.372
 2710W        W64241  40.503   1.309   2.745
 2711W        W64242   2.882   9.672   0.354
 2712W        W64243  34.963  21.741   1.918
 2713W        W64244  16.203  41.880   2.295
 2714W        W64245  37.947  18.604  12.503
 2715W        W64246   6.425  44.264   3.345
 2716W        W64247  28.147  28.064   2.753
 2717W        W64248   2.232  11.700   4.756
 2718W        W64249  18.188  13.214  14.959
 2719W        W64250  25.695  14.195   2.776
 2720W        W64251  33.012  19.135  12.947
 2721W        W64252  28.091  15.328  10.972
 2722W        W64253   7.893  17.723  13.433
 2723W        W64254  17.281  44.360   0.824
 2724W        W64255  12.236  29.170  10.513
 2725W        W64256   0.956   9.362   4.198
 2726W        W64257  31.416  42.315   0.254
 2727W        W64258  38.363   8.233  13.435
 2728W        W64259  11.644  13.648   1.758
 2729W        W64260  34.996  21.192  14.476
 2730W        W64261  40.853  17.231   4.220
 2731W        W64262  24.192  19.696   5.263
 2732W        W64263   4.831   5.829  11.570
 2733W        W64264   3.835  35.047  13.510
 2734W        W64265  13.230  35.035   4.274
 2735W        W64266  16.717  25.578  11.092
 2736W        W64267   6.340  12.332  10.456
 2737W        W64268  30.594  41.405  12.439
 2738W        W64269  20.747  14.614  14.377
 2739W        W64270  34.584  20.696   0.483
 2740W        W64271   1.776  19.271   2.282
 2741W        W64272   9.301   5.712   2.807
 2742W        W64273   3.335  23.197   5.612
 2743W        W64274  33.125   0.862  13.992
 2744W        W64275  38.944  36.991   1.226
 2745W        W64276  32.518  38.076  10.565
 2746W        W64277  17.080  19.071   4.175
 2747W        W64278  35.545   6.228   4.658
 2748W        W64279   0.397   9.163  11.087
 2749W        W64280  27.483  30.599  14.335
 2750W        W64281  13.780  10.796  10.513
 2751W        W64282   2.374  17.252  14.984
 2752W        W64283   1.955  23.592  14.845
 2753W        W64284   9.220  41.847  11.931
 2754W        W64285   6.311  12.646  11.487
 2755W        W64286  11.249   3.412   1.365
 2756W        W64287   1.450  23.667  14.773
 2757W        W64288   8.703  44.883  13.458
 2758W        W64289  23.698  43.481   3.820
 2759W        W64290  21.578  28.490   3.310
 2760W        W64291  39.823  35.384   3.254
 2761W        W64292  31.906  12.249  10.466
 2762W        W64293  23.997  24.177   0.919
 2763W        W64294  42.914   4.242  13.472
 2764W        W64295  12.702  39.556   1.847
 2765W        W64296  25.675  34.402  14.838
 2766W        W64297   4.810  34.392  14.459
 2767W        W64298  22.028   8.845   4.701
 2768W        W64299  28.132  34.112   4.288
 2769W        W64300  38.827  29.609   0.752
 2770W        W64301  28.120   3.845  11.123
 2771W        W64302  12.771  10.789  10.957
 2772W        W64303   0.329  35.440  13.850
 2773W        W64304  12.258  26.585   5.245
 2774W        W64305   5.718  27.061  13.036
 2775W        W64306  18.136  34.513  12.490
 2776W        W64307  35.877  41.362  12.056
 2777W        W64308  41.508   6.803   0.922
 2778W        W64309   6.822   4.883   0.947
 2779W        W64310  26.507   6.268   1.381
 2780W        W64311  32.125  28.536   3.345
 2781W        W64312  15.291  35.893   0.383
 2782W        W64313  35.046  14.268   1.715
 2783W        W64314  41.887  22.195  11.530
 2784W        W64315  42.484  24.610   0.955
 2785W        W64316  18.657  20.524   4.764
 2786W        W64317   7.201  17.704   1.895
 2787W        W64318  33.514  35.987  10.603
 2788W        W64319  29.089  21.061   2.880
 2789W        W64320  39.827   9.221  11.387
 2790W        W64321  33.598  12.669   3.224
 2791W        W64322  30.118  34.527  13.423
 2792W        W64323   9.828  11.131  11.877
 2793W        W64324  20.724   2.297   2.324
 2794W        W64325   1.873  24.171  13.504
 2795W        W64326  41.430  17.247  11.386
 2796W        W64327   0.340  11.740   0.796
 2797W        W64328  32.932  44.828   4.660
 2798W        W64329  18.559   4.257  13.824
 2799W        W64330  42.465  30.115  12.940
 2800W        W64331  32.456  40.312  12.964
 2801W        W64332  34.545  22.648  10.434
 2802W        W64333  16.293  12.337   3.288
 2803W        W64334  42.828   1.322   4.258
 2804W        W64335  40.455  15.744  11.058
 2805W        W64336   5.858  41.368  12.341
 2806W        W64337  34.033  37.043  14.469
 2807W        W64338   0.903  44.324   1.826
 2808W        W64339   8.401   4.399   2.268
 2809W        W64340  26.479   0.855  11.964
 2810W        W64341   0.881  15.775  11.019
 2811W        W64342  18.786  21.161  11.543
 2812W        W64343  15.105   0.800  12.866
 2813W        W64344  42.483   4.243  12.508
 2814W        W64345  23.563  14.753   4.758
 2815W        W64346   1.396  24.702   0.842
 2816W        W64347  21.740  32.559   0.814
 2817W        W64348  39.919  44.966   4.797
 2818W        W64349  42.399  17.293  14.393
 2819W        W64350  22.086   8.404   3.660
 2820W        W64351  29.588  43.407   2.740
 2821W        W64352   6.191  29.486  11.604
 2822W        W64353  21.750  11.705   4.635
 2823W        W64354  43.516   8.901  12.913
 2824W        W64355  43.787  10.812  12.885
 2825W        W64356   5.233  16.666  12.037
 2826W        W64357   2.293  35.386  12.420
 2827W        W64358  15.785  12.686   3.712
 2828W        W64359  11.204  30.453  10.474
 2829W        W64360   7.680  42.355  12.892
 2830W        W64361  13.656  15.802  14.936
 2831W        W64362  23.523  15.692   2.797
 2832W        W64363  44.481   2.919   2.811
 2833W        W64364   1.910   6.798  11.546
 2834W        W64365  38.344   5.707  12.059
 2835W        W64366  13.275  20.165  10.607
 2836W        W64367  16.706  42.972  13.374
 2837W        W64368  27.987  34.385   0.967
 2838W        W64369   8.701   6.407   3.162
 2839W        W64370  15.657  44.989   3.801
 2840W        W64371   4.302  19.543   2.333
 2841W        W64372  18.592   8.759   3.153
 2842W        W64373   2.853   2.457   2.281
 2843W        W64374   8.869  26.137   3.216
 2844W        W64375   7.681  11.322  13.893
 2845W        W64376  24.578  33.583  13.911
 2846W        W64377  31.036   6.821  12.469
 2847W        W64378   7.206  26.682   4.780
 2848W        W64379   0.854   2.310   0.814
 2849W        W64380  19.676  22.207   0.254
 2850W        W64381  12.660  26.546   1.888
 2851W        W64382  38.482  31.458  12.425
 2852W        W64383  39.905  24.635   0.932
 2853W        W64384   4.744   8.251   1.342
 2854W        W64385  12.857  38.861  10.516
 2855W        W64386   0.359   7.200  14.483
 2856W        W64387  33.958  24.566  14.814
 2857W        W64388  19.263  35.078   2.692
 2858W        W64389  29.656  42.338   2.239
 2859W        W64390  12.616  32.600   1.741
 2860W        W64391  20.566  19.591   3.191
 2861W        W64392  10.775   7.684   2.826
 2862W        W64393  13.794  22.645   3.717
 2863W        W64394  27.127  28.603   4.658
 2864W        W64395  27.000  17.783  12.990
 2865W        W64396   6.303  31.081   4.185
 2866W        W64397   0.402  31.460   3.634
 2867W        W64398  33.423  17.280   1.706
 2868W        W64399  37.844   5.251   3.690
 2869W        W64400  11.241  36.361   3.365
 2870W        W64401   1.796  14.730  14.995
 2871W        W64402  13.255  10.319   3.711
 2872W        W64403  35.572  10.348   2.199
 2873W        W64404  43.960  18.656  13.409
 2874W        W64405  23.193   9.810   0.253
 2875W        W64406  35.535  29.033  11.925
 2876W        W64407  43.980  16.091   1.308
 2877W        W64408  31.515   8.253   0.899
 2878W        W64409  44.346  44.433  13.536
 2879W        W64410  19.628  29.939  12.061
 2880W        W64411   6.887  23.126   0.752
 2881W        W64412  31.612  22.636   3.773
 2882W        W64413  35.874  11.337   2.717
 2883W        W64414  36.465   5.246   2.767
 2884W        W64415  23.068   9.753   2.396
 2885W        W64416   4.315  15.224   1.355
 2886W        W64417  39.811   7.299  13.054
 2887W        W64418   9.781  22.589  14.983
 2888W        W64419   9.871  31.009  10.492
 2889W        W64420  38.409  17.661   1.316
 2890W        W64421  16.781  11.372   2.292
 2891W        W64422   0.366  14.108  10.541
 2892W        W64423   3.830   3.300   0.381
 2893W        W64424  26.486   3.916   5.296
 2894W        W64425   6.428  42.324  11.538
 2895W        W64426  31.965  14.776   2.214
 2896W        W64427  34.554   3.856  10.556
 2897W        W64428  33.495  39.389  14.338
 2898W        W64429  11.338  17.558  14.893
 2899W        W64430  24.078   6.835  12.382
 2900W        W64431  44.365  41.037   9.921
 2901W        W64432  31.616  38.017  14.507
 2902W        W64433  37.449  41.005   5.305
 2903W        W64434  15.794  21.079  12.077
 2904W        W64435  11.295  40.939   1.388
 2905W        W64436  15.272  31.403  14.944
 2906W        W64437  40.469  15.309   1.239
 2907W        W64438  16.262  39.919  12.874
 2908W        W64439  24.052  24.602  13.338
 2909W        W64440  35.449  41.530  13.428
 2910W        W64441  23.559  15.699  10.038
 2911W        W64442  34.454   3.873   0.845
 2912W        W64443  19.114  19.599   2.383
 2913W        W64444  27.477  35.925   4.152
 2914W        W64445  27.965  26.659  11.588
 2915W        W64446  16.733  12.708  13.401
 2916W        W64447  20.716  41.867   1.808
 2917W        W64448  20.063  15.173   1.714
 2918W        W64449  19.608  26.058   4.790
 2919W        W64450   2.397  15.640  10.081
 2920W        W64451  18.674   9.797  12.417
 2921W        W64452  13.822  17.089  12.405
 2922W        W64453   1.869  24.651   0.249
 2923W        W64454  34.928  26.618  14.504
 2924W        W64455   8.325  11.145   1.799
 2925W        W64456  31.587  12.835  11.459
 2926W        W64457  32.551  11.373   3.145
 2927W        W64458  26.524  43.339  13.472
 2928W        W64459   1.257  33.568  13.318
 2929W        W64460  15.737  39.342   1.396
 2930W        W64461  17.773  26.641   5.318
 2931W        W64462  24.226  39.441   2.405
 2932W        W64463   2.261  18.114   2.827
 2933W        W64464  38.946  35.561  14.965
 2934W        W64465   3.875  18.152   4.599
 2935W        W64466   6.919   9.715   1.436
 2936W        W64467   3.390  11.799  14.980
 2937W        W64468  26.189  20.554   3.630
 2938W        W64469   4.227  17.232  11.964
 2939W        W64470  31.526  33.422  10.499
 2940W        W64471   1.466  20.649  13.923
 2941W        W64472  16.316  35.949   4.694
 2942W        W64473  21.554  29.077  10.939
 2943W        W64474  32.063   9.269  11.900
 2944W        W64475  34.481  25.545  10.909
 2945W        W64476  40.537   1.876   0.799
 2946W        W64477  36.555  38.531  14.314
 2947W        W64478  10.749  40.378   4.670
 2948W        W64479  12.687   1.833  14.841
 2949W        W64480  22.170  10.733   4.800
 2950W        W64481   7.875  10.718  12.562
 2951W        W64482  42.311  24.550   1.292
 2952W        W64483   1.353  37.950   0.250
 2953W        W64484  32.948   4.855  12.553
 2954W        W64485  17.061  32.599  12.093
 2955W        W64486  20.269  32.558  11.977
 2956W        W64487  17.677  20.638  11.378
 2957W        W64488  28.971  43.323   4.233
 2958W        W64489  24.195  24.060   4.140
 2959W        W64490   6.882   9.315   0.759
 2960W        W64491   3.400  20.658   2.236
 2961W        W64492   8.801  26.672  12.547
 2962W        W64493  38.449   0.348  12.902
 2963W        W64494   6.777   6.191  13.007
 2964W        W64495  22.632   5.880   0.348
 2965W        W64496  21.731   8.752   3.692
 2966W        W64497  33.584   2.855   3.826
 2967W        W64498  32.050  10.308  14.969
 2968W        W64499  27.964  27.471  14.408
 2969W        W64500   4.927   0.889   3.861
 2970W        W64501   3.263  23.568  10.151
 2971W        W64502   4.382  20.621  11.866
 2972W        W64503  29.105   5.392  13.474
 2973W        W64504  22.589  30.092   1.932
 2974W        W64505  20.180  42.023   5.083
 2975W        W64506   7.191   2.911  11.556
 2976W        W64507  35.970  42.421  14.890
 2977W        W64508  28.501  15.812  13.433
 2978W        W64509  35.894  26.010   0.738
 2979W        W64510   5.282  36.988  11.514
 2980W        W64511  36.543  44.820  14.447
 2981W        W64512   9.765   6.729   2.760
 2982W        W64513  32.104   5.367   4.248
 2983W        W64514   4.798  27.527   3.240
 2984W        W64515  40.950  13.125  10.912
 2985W        W64516  38.375  30.613  10.905
 2986W        W64517  17.291  27.648   3.184
 2987W        W64518  21.678  16.761  10.533
 2988W        W64519  30.954  13.815  12.437
 2989W        W64520   7.869  12.791   4.199
 2990W        W64521  32.935  37.082  11.046
 2991W        W64522   3.756  33.047  10.488
 2992W        W64523  38.071  27.648  14.813
 2993W        W64524   8.814  34.549  12.067
 2994W        W64525  35.031  15.104   3.833
 2995W        W64526  21.660  32.540   3.842
 2996W        W64527  27.186  42.845   2.331
 2997W        W64528   5.258  16.074  11.583
 2998W        W64529  34.473  39.057   0.341
 2999W        W64530   3.803  15.691   3.193
 3000W        W64531  17.088  34.023   2.884
 3001W        W64532  16.728  22.246  12.574
 3002W        W64533  20.132  36.426   1.336
 3003W        W64534   2.324  38.391   0.847
 3004W        W64535  34.048   0.436   3.767
 3005W        W64536   4.296   0.897  11.115
 3006W        W64537  37.576  35.393   3.700
 3007W        W64538  26.995  24.518   2.350
 3008W        W64539   1.736  32.090  10.471
 3009W        W64540  42.020  36.039   4.243
 3010W        W64541  21.144  32.621   1.704
 3011W        W64542  30.084  28.929  13.416
 3012W        W64543  28.503  15.591  14.321
 3013W        W64544  37.913  36.400  12.998
 3014W        W64545   2.857  15.649   1.854
 3015W        W64546  37.514  19.109   1.783
 3016W        W64547  24.037  34.491   3.190
 3017W        W64548  44.908   1.253  13.063
 3018W        W64549  36.550   2.326  12.549
 3019W        W64550  24.123  40.959   4.238
 3020W        W64551  32.060  28.139   1.727
 3021W        W64552  22.640   1.363  14.894
 3022W        W64553  24.668   2.874   2.178
 3023W        W64554  40.381  18.081   4.798
 3024W        W64555  18.572   1.803  12.553
 3025W        W64556  18.738  30.491  13.351
 3026W        W64557  14.816   9.294   0.812
 3027W        W64558   6.676  38.498  11.389
 3028W        W64559  13.350  25.082  11.377
 3029W        W64560  19.606  38.460  10.519
 3030W        W64561  35.890   1.259   0.863
 3031W        W64562  26.164  32.607   3.781
 3032W        W64563   1.332  31.553   1.881
 3033W        W64564   2.468   8.391  12.559
 3034W        W64565  18.705  29.608   3.236
 3035W        W64566  38.878  22.678   0.919
 3036W        W64567  24.480  32.573   2.296
 3037W        W64568  33.405  27.468  12.565
 3038W        W64569   7.311  23.030   2.795
 3039W        W64570  30.009  21.253  13.987
 3040W        W64571   6.379  13.183  10.917
 3041W        W64572   5.379  40.497   3.209
 3042W        W64573  24.563  14.589  13.804
 3043W        W64574   0.297  23.219   0.476
 3044W        W64575  28.528  17.632   2.699
 3045W        W64576  26.457  28.121  14.828
 3046W        W64577  39.433  28.585   4.598
 3047W        W64578  30.982  28.638   0.311
 3048W        W64579  16.170  26.553  13.419
 3049W        W64580  19.244  18.621   1.739
 3050W        W64581  31.552  43.867   1.322
 3051W        W64582  37.832   6.280  11.505
 3052W        W64583  28.978  38.503  13.027
 3053W        W64584  24.643  39.051  13.459
 3054W        W64585  38.955   3.375  13.057
 3055W        W64586   3.832  18.582  12.575
 3056W        W64587  13.318  22.126   4.665
 3057W        W64588  27.603  27.601  10.490
 3058W        W64589  10.350  33.522   4.163
 3059W        W64590  11.715  14.324   5.097
 3060W        W64591  24.007  26.067  10.638
 3061W        W64592   0.472  22.629  12.013
 3062W        W64593  15.727  12.262  12.086
 3063W        W64594  40.923  30.084  11.032
 3064W        W64595  43.858  18.209  13.850
 3065W        W64596  18.251  16.787   4.776
 3066W        W64597  13.241  17.754   0.387
 3067W        W64598   8.857  34.474  11.606
 3068W        W64599  38.907  28.009  11.085
 3069W        W64600  38.976  36.519  14.414
 3070W        W64601  33.101  33.907   1.835
 3071W        W64602  12.293  44.386   4.198
 3072W        W64603  27.574  20.726  14.894
 3073W        W64604   8.674  35.027   4.600
 3074W        W64605  24.065  14.829  14.009
 3075W        W64606  26.550   0.960   2.733
 3076W        W64607  21.072  28.527  14.016
 3077W        W64608  33.413  25.050   9.944
 3078W        W64609  44.450  27.970   1.778
 3079W        W64610  24.710  35.521   0.431
 3080W        W64611   2.387  44.957  13.020
 3081W        W64612  12.798   3.916  10.473
 3082W        W64613  22.525  14.283  14.965
 3083W        W64614  16.749  16.177  12.833
 3084W        W64615  27.016   5.208  10.628
 3085W        W64616  27.173  17.082  10.952
 3086W        W64617  25.696  35.423  14.310
 3087W        W64618  12.852  26.608  11.894
 3088W        W64619  15.178  33.578  13.035
 3089W        W64620  14.289   6.357  10.897
 3090W        W64621  12.237  31.060  13.471
 3091W        W64622   9.334  28.046   3.176
 3092W        W64623  40.990   2.411   0.811
 3093W        W64624  17.245  37.991  14.390
 3094W        W64625   0.792  28.972   0.842
 3095W        W64626  34.980  19.201   3.721
 3096W        W64627  38.884  27.004  13.457
 3097W        W64628   8.713  34.572  12.999
 3098W        W64629  32.523   8.675  10.437
 3099W        W64630  35.034  40.941  11.034
 3100W        W64631  41.835  16.163   2.415
 3101W        W64632  43.882  12.682  14.857
 3102W        W64633  28.511  17.139  14.439
 3103W        W64634   7.356  14.695   4.619
 3104W        W64635  28.446  40.825   0.918
 3105W        W64636  31.953  21.580   4.630
 3106W        W64637  39.953  10.827   0.392
 3107W        W64638  24.522  16.140  12.523
 3108W        W64639  10.199  18.214   4.211
 3109W        W64640  13.174  17.772  14.815
 3110W        W64641  11.714  15.684   0.735
 3111W        W64642  25.184  27.503   3.721
 3112W        W64643  40.452  20.202  13.845
 3113W        W64644  22.154  27.588   4.720
 3114W        W64645  13.827  28.678  12.533
 3115W        W64646   5.731  31.037   0.354
 3116W        W64647  26.033  18.126   0.927
 3117W        W64648  36.035  10.310   0.835
 3118W        W64649   2.321  27.596  11.505
 3119W        W64650   2.274  31.091  13.008
 3120W        W64651  23.077  22.645  11.885
 3121W        W64652  22.660  38.432   3.369
 3122W        W64653  36.882  10.193   2.900
 3123W        W64654  26.981  37.408   2.732
 3124W        W64655  10.309   9.244  14.908
 3125W        W64656  28.002  14.273  11.013
 3126W        W64657  36.945  17.263   3.808
 3127W        W64658  13.251  16.223  12.886
 3128W        W64659  23.177  17.218  10.455
 3129W        W64660  10.728  15.105   1.340
 3130W        W64661  13.231   1.833   2.273
 3131W        W64662  14.105  10.212   0.324
 3132W        W64663  41.499   6.356  11.988
 3133W        W64664   7.373  17.635  12.521
 3134W        W64665  17.137  20.158   3.749
 3135W        W64666   9.302  21.555   2.409
 3136W        W64667  44.281  32.023  12.844
 3137W        W64668  34.956   6.317  14.913
 3138W        W64669   5.833  14.147   2.882
 3139W        W64670  27.037  36.892  10.539
 3140W        W64671  39.915  33.617  12.859
 3141W        W64672  37.431  16.813  13.468
 3142W        W64673  16.184  24.101  11.451
 3143W        W64674   4.918  14.728   2.761
 3144W        W64675  20.089   9.315  12.834
 3145W        W64676  23.995  16.209   2.851
 3146W        W64677  38.470   9.656   0.780
 3147W        W64678  12.852   3.325  11.094
 3148W        W64679  30.542  23.129   3.382
 3149W        W64680  23.668  15.118   1.913
 3150W        W64681  22.716  35.587   1.336
 3151W        W64682  22.067  30.069   5.674
 3152W        W64683  12.346   1.466  10.449
 3153W        W64684  30.502   9.196   2.755
 3154W        W64685  18.078  24.613   2.210
 3155W        W64686  19.254  22.706   3.869
 3156W        W64687   0.379  22.235  12.379
 3157W        W64688  10.294  35.466  14.841
 3158W        W64689  42.401  10.733  14.423
 3159W        W64690   2.726  12.744   4.315
 3160W        W64691  43.825  21.530  13.931
 3161W        W64692   7.293   3.942  11.593
 3162W        W64693  13.331  38.858   4.666
 3163W        W64694  40.306  44.353  12.875
 3164W        W64695   6.872  22.095  12.559
 3165W        W64696  32.071  38.965   2.181
 3166W        W64697  28.075  37.863  10.149
 3167W        W64698  26.670  15.257  13.490
 3168W        W64699  38.842  36.452  11.470
 3169W        W64700  39.931  41.974  11.449
 3170W        W64701  10.721  12.178   4.679
 3171W        W64702  37.088   3.371   2.390
 3172W        W64703   8.679  35.057  12.971
 3173W        W64704   6.916  35.985  13.849
 3174W        W64705  43.495  24.572  12.376
 3175W        W64706  41.396  41.432   0.300
 3176W        W64707  39.321   8.347  14.454
 3177W        W64708   2.379  13.839   0.314
 3178W        W64709  15.697  36.049  14.464
 3179W        W64710  32.936  22.146   4.808
 3180W        W64711   9.767   0.987  11.067
 3181W        W64712   8.363  15.189  14.417
 3182W        W64713   4.357  16.712  13.350
 3183W        W64714  34.107  36.906   3.234
 3184W        W64715  26.004  36.440   4.674
 3185W        W64716  39.987  21.167   1.412
 3186W        W64717  29.482  22.661   4.713
 3187W        W64718  39.517   5.835   3.757
 3188W        W64719  26.499  36.062  13.326
 3189W        W64720   4.787   9.339  11.878
 3190W        W64721  23.707  41.325   2.418
 3191W        W64722  25.130  36.570   0.892
 3192W        W64723  21.619  14.296   4.660
 3193W        W64724  26.054   9.746  12.488
 3194W        W64725  29.439  28.516   3.206
 3195W        W64726  35.380  22.702  13.454
 3196W        W64727  37.916  28.614  11.990
 3197W        W64728   1.749   9.234  14.443
 3198W        W64729  42.338  32.392   1.732
 3199W        W64730   8.406  23.679  11.421
 3200W        W64731  37.883  20.194  11.013
 3201W        W64732  23.172   1.457   3.719
 3202W        W64733  31.115   2.813  14.488
 3203W        W64734  25.628  38.931   4.787
 3204W        W64735  27.465  30.961   3.382
 3205W        W64736  21.741   9.808   2.381
 3206W        W64737  10.770  16.269   2.792
 3207W        W64738  34.959  12.176   3.814
 3208W        W64739  15.691  41.892  12.060
 3209W        W64740   5.317  24.069   3.746
 3210W        W64741  32.898  26.953   1.225
 3211W        W64742  36.979  43.917   3.632
 3212W        W64743   6.343  41.513   3.670
 3213W        W64744   0.342   0.321  11.059
 3214W        W64745   4.233  24.683   2.667
 3215W        W64746  43.462  14.673  12.558
 3216W        W64747   0.351  30.611   4.607
 3217W        W64748  19.184  20.527   3.293
 3218W        W64749  16.281  21.528  11.025
 3219W        W64750   1.374  18.659   1.785
 3220W        W64751  44.288  32.494  11.436
 3221W        W64752   2.468  20.213  11.023
 3222W        W64753  34.474  29.110  13.814
 3223W        W64754  22.525   5.904   2.666
 3224W        W64755  20.069   0.429  10.406
 3225W        W64756  26.459  21.028  12.392
 3226W        W64757  26.699  19.156   4.716
 3227W        W64758  23.065  34.596   3.300
 3228W        W64759  10.196   4.274   4.317
 3229W        W64760  40.842   9.158   0.425
 3230W        W64761  34.403  26.113   2.752
 3231W        W64762  38.068  24.126  12.906
 3232W        W64763  19.256  32.540   3.284
 3233W        W64764  10.682  27.187   4.711
 3234W        W64765  36.903  32.569   3.261
 3235W        W64766  39.876   8.401   3.315
 3236W        W64767  30.472  32.530  11.953
 3237W        W64768  30.581   0.811   3.770
 3238W        W64769  28.605  24.174  11.915
 3239W        W64770  15.318  38.563  10.489
 3240W        W64771   2.918  34.875  10.900
 3241W        W64772  38.994  36.353  13.949
 3242W        W64773  24.529  13.635   0.805
 3243W        W64774   5.364  34.052  10.542
 3244W        W64775  20.239  39.053   2.833
 3245W        W64776  16.801  36.404   1.441
 3246W        W64777  10.805  20.700   4.145
 3247W        W64778  37.922   4.446   2.374
 3248W        W64779   8.839  40.856  12.852
 3249W        W64780  19.222   8.207   3.729
 3250W        W64781  13.253  36.910  13.931
 3251W        W64782  33.936  32.112   3.164
 3252W        W64783  35.452   5.341   2.815
 3253W        W64784  34.048  41.295  12.040
 3254W        W64785  37.573  42.338  14.804
 3255W        W64786  44.385  37.981   1.369
 3256W        W64787  15.818   9.847   0.375
 3257W        W64788  40.974  16.265  12.385
 3258W        W64789  18.141   1.864  13.938
 3259W        W64790  35.592  35.592  11.948
 3260W        W64791   5.296  35.080   3.783
 3261W        W64792  20.029   7.804  12.890
 3262W        W64793  14.661  27.091  10.524
 3263W        W64794   8.361  32.089  12.462
 3264W        W64795   9.339  29.171   5.221
 3265W        W64796   2.859  27.446  12.974
 3266W        W64797  31.504  12.182   2.295
 3267W        W64798   0.381  17.301  14.306
 3268W        W64799   3.277  37.937   4.811
 3269W        W64800   3.398  24.111  13.031
 3270W        W64801  31.642  21.562  14.451
 3271W        W64802  12.228  36.547  10.948
 3272W        W64803  14.118  37.940   2.212
 3273W        W64804  20.145  28.999   3.264
 3274W        W64805   7.891   9.308  10.416
 3275W        W64806  41.517  29.012   0.432
 3276W        W64807  44.441  11.166  11.924
 3277W        W64808  12.778  30.996   1.396
 3278W        W64809  15.798  31.097   3.708
 3279W        W64810  36.871  25.032  14.327
 3280W        W64811  15.254   9.323  14.924
 3281W        W64812  18.203  21.204   3.787
 3282W        W64813  36.511  12.734  11.584
 3283W        W64814  12.697  43.367  13.859
 3284W        W64815  23.094  21.513  12.454
 3285W        W64816   0.926   4.358  12.030
 3286W        W64817   8.263  35.419  13.019
 3287W        W64818  11.327  17.558   3.309
 3288W        W64819  20.133   7.396  13.396
 3289W        W64820   8.236  29.983   1.928
 3290W        W64821   4.360  16.241  14.779
 3291W        W64822  16.075  22.548   4.247
 3292W        W64823   7.248  18.226  13.010
 3293W        W64824   0.422  21.255  13.868
 3294W        W64825  35.079   5.381  12.341
 3295W        W64826  26.589   9.182   1.725
 3296W        W64827  22.515   9.170   1.860
 3297W        W64828  32.545  31.489  10.596
 3298W        W64829  23.607  42.844  11.100
 3299W        W64830  26.570  29.976   0.937
 3300W        W64831   4.736   9.876  10.451
 3301W        W64832  15.170  13.623  14.420
 3302W        W64833  28.628  31.618  13.850
 3303W        W64834  33.398  19.745  11.394
 3304W        W64835  36.422   5.406   4.719
 3305W        W64836  36.073  33.446   0.859
 3306W        W64837  31.514  15.200   2.739
 3307W        W64838  33.589  31.542  13.053
 3308W        W64839  35.982  41.834   9.994
 3309W        W64840   2.823   4.293   0.822
 3310W        W64841  13.157  34.933  12.526
 3311W        W64842   4.876  33.410  11.077
 3312W        W64843  38.843  19.712  12.049
 3313W        W64844  11.358  24.134  11.034
 3314W        W64845  32.910  35.057   3.220
 3315W        W64846  41.372  20.720  13.987
 3316W        W64847  36.040  21.098   3.280
 3317W        W64848  35.047  20.264   0.955
 3318W        W64849  13.633  42.289  14.817
 3319W        W64850  32.485   9.769  11.864
 3320W        W64851  27.680  36.957   4.751
 3321W        W64852  22.717   1.395  13.315
 3322W        W64853   6.875   3.237  13.496
 3323W        W64854  15.181   0.311  13.488
 3324W        W64855  28.050   9.873   1.298
 3325W        W64856  24.677   7.378   1.217
 3326W        W64857  28.456  10.374   4.116
 3327W        W64858  36.351  39.962  13.029
 3328W        W64859  30.133  22.517   1.908
 3329W        W64860  31.147   4.770   4.191
 3330W        W64861  41.895  41.837   2.403
 3331W        W64862  22.699  28.527   3.288
 3332W        W64863  15.235  37.995   3.821
 3333W        W64864  28.616  37.399   4.800
 3334W        W64865  40.327  14.772   0.335
 3335W        W64866  29.670  17.754  14.426
 3336W        W64867  11.235  43.487   1.227
 3337W        W64868  26.586   9.365  11.503
 3338W        W64869   4.315   4.217   2.805
 3339W        W64870  18.171  42.808   1.861
 3340W        W64871  22.599  12.768  13.999
 3341W        W64872  23.011   0.467  12.357
 3342W        W64873   5.295   8.748   3.373
 3343W        W64874  33.018   4.746   3.345
 3344W        W64875  16.262   6.395   0.403
 3345W        W64876   3.823  44.287   0.961
 3346W        W64877  16.685  30.013   3.156
 3347W        W64878  16.080  19.120  13.352
 3348W        W64879  15.226   7.199   1.878
 3349W        W64880   0.380  37.913  13.883
 3350W        W64881  39.030  15.090  13.437
 3351W        W64882  21.044  38.406   1.429
 3352W        W64883   6.921  26.497   0.289
 3353W        W64884   7.276  24.133   2.710
 3354W        W64885  19.779  10.278   2.709
 3355W        W64886   6.302  37.006  10.453
 3356W        W64887  31.635  19.219   0.856
 3357W        W64888  43.502  39.032   4.713
 3358W        W64889  32.985   9.156  13.371
 3359W        W64890  22.571  43.277  10.033
 3360W        W64891  18.692  21.519   2.216
 3361W        W64892   0.777  31.001  13.945
 3362W        W64893   9.187   9.270  14.017
 3363W        W64894  24.555   1.279  10.514
 3364W        W64895   4.886  21.086  14.502
 3365W        W64896  42.384   8.778   1.271
 3366W        W64897   7.681  37.558   1.816
 3367W        W64898  44.390   2.898  11.607
 3368W        W64899   2.254  15.128  14.481
 3369W        W64900   1.897  29.989  10.913
 3370W        W64901  42.886   1.779  12.375
 3371W        W64902  43.440  16.297   4.351
 3372W        W64903  22.603  37.987  11.969
 3373W        W64904  44.854  39.877   2.336
 3374W        W64905  36.042  32.890   0.356
 3375W        W64906  22.651  34.385   1.885
 3376W        W64907  33.552  23.038  10.891
 3377W        W64908   4.926  38.399  10.638
 3378W        W64909   0.788  10.796  10.957
 3379W        W64910   2.251  38.863  12.540
 3380W        W64911  26.966  39.478   3.387
 3381W        W64912   3.424  10.756  11.916
 3382W        W64913  27.165  17.701   0.374
 3383W        W64914  13.657  21.125  13.473
 3384W        W64915  31.555  37.852  11.371
 3385W        W64916  14.635  39.905  11.048
 3386W        W64917  33.950  28.950   0.244
 3387W        W64918  21.554  25.546  12.363
 3388W        W64919  41.513  16.675  13.423
 3389W        W64920  25.190  37.525  14.392
 3390W        W64921  42.793  42.003  13.547
 3391W        W64922   5.867   3.232   0.281
 3392W        W64923  14.645  17.737  10.964
 3393W        W64924   8.667  14.258  11.116
 3394W        W64925  15.289  32.585  14.933
 3395W        W64926  25.631  22.129   1.326
 3396W        W64927  40.516   7.819   1.751
 3397W        W64928  16.633  42.515  12.525
 3398W        W64929   8.183  26.565   4.296
 3399W        W64930   2.915  19.674  11.974
 3400W        W64931  18.287  42.355  14.796
 3401W        W64932  19.691  10.355  14.933
 3402W        W64933   4.936   1.958  13.914
 3403W        W64934  39.430  20.653   4.326
 3404W        W64935  21.751  33.585   3.236
 3405W        W64936  44.981  43.804   0.856
 3406W        W64937  16.083  32.924  14.365
 3407W        W64938  16.166  14.221   2.223
 3408W        W64939  35.992  26.570   4.142
 3409W        W64940  16.578  28.120  13.423
 3410W        W64941  21.715  32.605   1.760
 3411W        W64942  10.660  28.997   1.761
 3412W        W64943  36.065  16.632  12.962
 3413W        W64944  14.176   2.293   1.737
 3414W        W64945  17.584  40.847  12.551
 3415W        W64946  39.398  41.832   4.813
 3416W        W64947  15.110  44.505  13.475
 3417W        W64948   2.892   9.657  10.551
 3418W        W64949  41.490   1.439  14.762
 3419W        W64950  44.884  34.014   0.753
 3420W        W64951  44.949   8.198  14.913
 3421W        W64952  24.085  11.357   1.225
 3422W        W64953  21.167  38.915   1.811
 3423W        W64954  14.206  17.636   3.720
 3424W        W64955  32.622  40.934  11.557
 3425W        W64956   6.353  41.397   2.368
 3426W        W64957   1.746  35.854  12.390
 3427W        W64958  25.111   9.374  13.431
 3428W        W64959  33.927   3.879   1.866
 3429W        W64960  27.096  14.172   1.404
 3430W        W64961  39.524  30.487  11.488
 3431W        W64962  22.514   1.437   9.999
 3432W        W64963  31.929  34.867  13.437
 3433W        W64964  35.477   9.391  13.449
 3434W        W64965  15.599  25.966   1.367
 3435W        W64966   4.730  43.280  11.518
 3436W        W64967  39.393  16.202   4.611
 3437W        W64968   5.415  44.330   1.703
 3438W        W64969  12.123  18.214   0.814
 3439W        W64970  40.324  18.156   3.376
 3440W        W64971  18.054  42.365   1.415
 3441W        W64972  36.412  33.484  12.944
 3442W        W64973   6.857  12.633  11.988
 3443W        W64974  15.166   4.892   4.823
 3444W        W64975  41.449  12.801  12.973
 3445W        W64976  39.838  30.465   1.273
 3446W        W64977  12.705  12.811  13.943
 3447W        W64978  35.936  33.000  13.506
 3448W        W64979  41.395   3.770   3.282
 3449W        W64980  13.787   2.467  11.982
 3450W        W64981  12.180  16.757  12.557
 3451W        W64982   6.809  42.351   4.161
 3452W        W64983  28.550  27.665  12.857
 3453W        W64984  18.581  15.316   0.886
 3454W        W64985   5.862  20.569   0.895
 3455W        W64986  27.073  26.508   0.378
 3456W        W64987  43.350  44.344  11.025
 3457W        W64988  44.910  19.670  14.387
 3458W        W64989  28.121   7.753   0.391
 3459W        W64990  31.934  25.706  13.394
 3460W        W64991   1.912   3.895   0.429
 3461W        W64992  14.242  25.622  14.010
 3462W        W64993  27.059  33.019  14.355
 3463W        W64994  39.470   1.402  14.989
 3464W        W64995  44.263  22.695   0.452
 3465W        W64996   7.206  38.400  11.104
 3466W        W64997  19.568   3.227  13.839
 3467W        W64998  12.611  10.167  12.447
 3468W        W64999  23.501  39.867   1.273
 3469W        W65000  10.843  39.849  12.870
 3470W        W65001  32.105   9.192  14.981
 3471W        W65002   1.334  35.005  11.057
 3472W        W65003   6.193   0.982  12.441
 3473W        W65004  24.085  19.236   4.187
 3474W        W65005  23.607  10.668  14.395
 3475W        W65006   8.896  43.441  12.555
 3476W        W65007  22.621  35.916  14.372
 3477W        W65008  25.035   5.754   0.419
 3478W        W65009  10.156  37.055  11.555
 3479W        W65010  32.040  41.997  11.992
 3480W        W65011  14.690  19.608  10.543
 3481W        W65012   2.293  25.124   1.823
 3482W        W65013   9.192  19.139   3.316
 3483W        W65014  27.472  26.561  10.952
 3484W        W65015  24.608  21.135   4.787
 3485W        W65016   2.903  38.829   2.785
 3486W        W65017  10.381  29.603  13.518
 3487W        W65018  39.454  24.517  12.997
 3488W        W65019  40.026  29.133  14.024
 3489W        W65020  38.379  12.714  10.444
 3490W        W65021  27.518  23.147   2.666
 3491W        W65022  19.138  30.646   4.229
 3492W        W65023  15.189  28.464  14.338
 3493W        W65024  18.612  10.637   1.348
 3494W        W65025  11.222  13.794  14.348
 3495W        W65026  15.667   2.779   2.337
 3496W        W65027  27.102   6.394  11.993
 3497W        W65028  24.546   9.674   2.662
 3498W        W65029  30.613   0.276   1.767
 3499W        W65030  18.265   3.882   1.847
 3500W        W65031  26.654  29.467   0.351
 3501W        W65032  14.232  14.335  12.068
 3502W        W65033  31.598  13.608   0.386
 3503W        W65034  20.056  28.093   1.392
 3504W        W65035  33.027  22.626   3.634
 3505W        W65036  35.588   9.677   1.419
 3506W        W65037  26.525  20.104  11.098
 3507W        W65038  10.359  28.463   4.264
 3508W        W65039  19.723  29.557  10.404
 3509W        W65040   4.447  29.503  11.389
 3510W        W65041  33.551  28.132  13.468
 3511W        W65042  23.498  44.933  11.929
 3512W        W65043  13.290   7.381  13.314
 3513W        W65044   5.238  17.197  13.952
 3514W        W65045  17.154  28.573  14.428
 3515W        W65046  38.827  38.041   2.194
 3516W        W65047  34.614  39.342   0.374
 3517W        W65048  32.078   3.446  14.296
 3518W        W65049  13.186  41.495   3.205
 3519W        W65050  11.147  24.546  13.511
 3520W        W65051  29.480  34.600   3.752
 3521W        W65052  16.788   4.409   2.826
 3522W        W65053  38.568  37.547  11.898
 3523W        W65054  34.006  22.563   4.742
 3524W        W65055   6.684  16.108   1.396
 3525W        W65056  23.170  25.154   2.213
 3526W        W65057   9.330   7.269   0.331
 3527W        W65058   0.921  43.271   1.785
 3528W        W65059  44.945  14.312   0.411
 3529W        W65060  27.064   7.392   3.844
 3530W        W65061  13.128   6.249  14.766
 3531W        W65062  10.369  32.593  13.902
 3532W        W65063   5.303  29.619  12.051
 3533W        W65064  13.662   8.870  11.401
 3534W        W65065   2.247  21.017   3.262
 3535W        W65066  25.192  43.979  13.434
 3536W        W65067  36.062  20.197   3.776
 3537W        W65068   1.867  35.070  13.351
 3538W        W65069   8.245  20.760   1.442
 3539W        W65070  43.913  25.103  12.414
 3540W        W65071   1.357  12.305  13.388
 3541W        W65072   9.359  12.732  14.435
 3542W        W65073  29.982  30.036   3.737
 3543W        W65074  21.550  21.034  14.952
 3544W        W65075  16.796  17.737   4.733
 3545W        W65076   1.822  32.890   3.377
 3546W        W65077  41.787  13.136  12.838
 3547W        W65078  17.088   2.872   1.345
 3548W        W65079  25.014  21.054  10.474
 3549W        W65080  11.283   7.375   2.229
 3550W        W65081  44.785  31.452   4.142
 3551W        W65082  39.018  43.781   1.749
 3552W        W65083  44.290  44.984  14.420
 3553W        W65084   9.388  31.607  11.967
 3554W        W65085  36.552  35.879   0.914
 3555W        W65086   5.327  32.612   1.290
 3556W        W65087   3.302  17.625  12.477
 3557W        W65088  32.013  25.036   0.751
 3558W        W65089  26.111  44.830   3.679
 3559W        W65090  43.422  16.677  14.318
 3560W        W65091  13.766  24.054   4.807
 3561W        W65092   6.284  20.573   2.743
 3562W        W65093   3.424   3.866   2.870
 3563W        W65094  32.960  19.247   3.284
 3564W        W65095  17.683  25.692  10.161
 3565W        W65096   2.472  43.880   0.773
 3566W        W65097   1.960   1.424  14.828
 3567W        W65098  36.868  26.067  12.848
 3568W        W65099   9.187   0.764   5.648
 3569W        W65100  27.005  27.560   0.745
 3570W        W65101  17.205  14.789   1.879
 3571W        W65102   8.772  36.846   0.904
 3572W        W65103   3.856  23.151  13.436
 3573W        W65104   3.328  29.011  13.027
 3574W        W65105  37.491  10.193   1.258
 3575W        W65106  28.105  21.199   3.726
 3576W        W65107  42.470  12.158  14.496
 3577W        W65108   4.247   9.228   1.737
 3578W        W65109   5.859  15.112  12.413
 3579W        W65110  37.463  14.786   1.875
 3580W        W65111   7.395  23.614  12.030
 3581W        W65112   9.881   8.333  14.302
 3582W        W65113  33.991  15.137  11.954
 3583W        W65114  10.785  40.476   3.813
 3584W        W65115   4.776   5.798   0.453
 3585W        W65116  27.146  28.513  13.943
 3586W        W65117  25.041  25.993   2.406
 3587W        W65118   5.705  42.475   3.750
 3588W        W65119   3.232  38.459  12.836
 3589W        W65120  31.141  11.761  10.511
 3590W        W65121  41.464   9.186  14.826
 3591W        W65122   8.405   6.719   4.785
 3592W        W65123  37.361  44.286  14.431
 3593W        W65124   2.754  14.658  12.451
 3594W        W65125  29.596  23.005   2.374
 3595W        W65126  32.952  13.729   0.368
 3596W        W65127  25.139  10.252  13.511
 3597W        W65128   5.283  44.807   3.343
 3598W        W65129   8.745  29.582  13.526
 3599W        W65130  33.027  33.514  13.973
 3600W        W65131  20.129  24.083   0.891
 3601W        W65132  35.872  19.168  11.000
 3602W        W65133  24.725   5.371   4.221
 3603W        W65134  10.720  42.504  13.358
 3604W        W65135  28.044   1.256   2.783
 3605W        W65136   2.885  43.317   0.253
 3606W        W65137  41.291  13.801   2.853
 3607W        W65138  37.898  36.427  11.560
 3608W        W65139  11.282  20.140  14.956
 3609W        W65140   3.845  37.855  11.868
 3610W        W65141  15.626  39.992   1.788
 3611W        W65142  30.937   1.813  12.436
 3612W        W65143  27.015   6.697   4.243
 3613W        W65144  31.067  13.707   2.711
 3614W        W65145   1.455   9.164   0.908
 3615W        W65146  32.995  13.243   1.845
 3616W        W65147  22.243  18.633  11.978
 3617W        W65148  22.099  23.072   1.733
 3618W        W65149  10.227  17.241   4.793
 3619W        W65150   3.776  27.017   1.860
 3620W        W65151  14.771  35.065  10.097
 3621W        W65152  14.244  15.665   9.965
 3622W        W65153  34.114  16.076   1.451
 3623W        W65154  20.603  43.440  14.427
 3624W        W65155  42.444   2.317  13.908
 3625W        W65156  23.194  16.704   3.146
 3626W        W65157  27.518   9.324  12.890
 3627W        W65158  32.050  28.478  12.002
 3628W        W65159  41.877  36.089   2.863
 3629W        W65160  27.973   3.383  10.024
 3630W        W65161  19.771   3.770   0.946
 3631W        W65162  22.587  26.060  10.975
 3632W        W65163  12.286  22.573  12.487
 3633W        W65164   5.931  36.945  11.067
 3634W        W65165   3.712  18.146  12.051
 3635W        W65166  15.716   2.809  13.508
 3636W        W65167  40.867  14.743   3.304
 3637W        W65168  13.687   3.750  11.397
 3638W        W65169  26.463  32.916   0.294
 3639W        W65170  28.949  33.509   0.938
 3640W        W65171  22.194  39.034  11.517
 3641W        W65172  30.602  35.481  10.979
 3642W        W65173  37.537  36.955   3.310
 3643W        W65174  26.982  40.822  10.536
 3644W        W65175  32.081  25.516  14.877
 3645W        W65176  12.812  30.017   4.835
 3646W        W65177   4.268  43.505   4.242
 3647W        W65178  40.370  34.565  10.101
 3648W        W65179  24.678  23.511   3.319
 3649W        W65180  24.150  43.283   1.736
 3650W        W65181  11.848  32.620  10.642
 3651W        W65182  21.191  35.976   2.391
 3652W        W65183  27.586  28.621   3.293
 3653W        W65184  13.197   7.666   1.728
 3654W        W65185  31.131   8.757   3.635
 3655W        W65186  41.522  43.289   2.256
 3656W        W65187  16.217  34.570  13.444
 3657W        W65188   2.363  24.558   3.638
 3658W        W65189  32.961  31.453   0.372
 3659W        W65190  12.734  19.053   3.303
 3660W        W65191  38.537  22.031  11.025
 3661W        W65192  17.293   5.905   2.388
 3662W        W65193   9.257  27.481   3.235
 3663W        W65194  22.171  14.278   0.284
 3664W        W65195  20.165  25.636   1.234
 3665W        W65196  19.090   6.713   0.784
 3666W        W65197   7.764  34.553   0.940
 3667W        W65198  41.005   4.348  12.457
 3668W        W65199  23.634   1.472  12.430
 3669W        W65200  16.669  19.207  10.527
 3670W        W65201  18.079  20.180  10.581
 3671W        W65202   0.882  42.298   0.263
 3672W        W65203  39.875   8.744   3.836
 3673W        W65204  38.013  31.061  13.901
 3674W        W65205  38.822  32.515  11.087
 3675W        W65206  10.873  11.698   0.438
 3676W        W65207  18.286   6.190   4.317
 3677W        W65208  21.660   8.842   4.339
 3678W        W65209  26.587   3.779  12.914
 3679W        W65210   5.404  12.705   5.270
 3680W        W65211  27.532  32.604   1.267
 3681W        W65212  15.639  21.039  14.501
 3682W        W65213  35.584  26.511  11.541
 3683W        W65214  24.119  13.312  13.933
 3684W        W65215  20.733  15.084   3.763
 3685W        W65216  33.545  24.104   1.435
 3686W        W65217  25.972  44.360  13.454
 3687W        W65218   1.243  29.526   3.640
 3688W        W65219  12.784   2.320  12.448
 3689W        W65220   4.782  23.181  13.810
 3690W        W65221  15.767  11.702  13.944
 3691W        W65222  31.540   1.815   0.454
 3692W        W65223  41.430   2.846  12.353
 3693W        W65224  25.524  37.445   1.731
 3694W        W65225  22.105  33.914   2.709
 3695W        W65226  33.032  13.287   4.250
 3696W        W65227  39.022  18.163   4.769
 3697W        W65228  40.987  33.941   0.833
 3698W        W65229  34.940  39.376  11.496
 3699W        W65230   8.259   9.713  13.923
 3700W        W65231  22.702  40.316  12.837
 3701W        W65232  33.495   5.736  14.458
 3702W        W65233  11.368  35.922   2.373
 3703W        W65234  19.103  32.914  12.830
 3704W        W65235  40.936  31.008   0.377
 3705W        W65236   6.312  21.186  12.026
 3706W        W65237   6.380  13.299  13.900
 3707W        W65238   2.785   9.159  13.341
 3708W        W65239  12.639   0.329   4.209
 3709W        W65240  34.871   3.793   2.382
 3710W        W65241  18.546  22.066  12.050
 3711W        W65242  29.984  27.622   0.832
 3712W        W65243  10.691  42.340  12.891
 3713W        W65244  14.278  23.597   3.196
 3714W        W65245  20.652  24.167  11.100
 3715W        W65246   6.795   9.877  11.899
 3716W        W65247  18.722  34.516  14.857
 3717W        W65248  35.547  40.302  10.445
 3718W        W65249  14.230  12.258   0.409
 3719W        W65250   0.388   7.688  12.938
 3720W        W65251  43.318  43.937  11.564
 3721W        W65252   0.328   8.316  13.992
 3722W        W65253  37.017  39.024   3.294
 3723W        W65254  21.669  11.149  10.403
 3724W        W65255  16.133  43.874   4.269
 3725W        W65256   9.242  23.520  12.491
 3726W        W65257  30.929  43.925   4.799
 3727W        W65258  18.211  20.143  11.016
 3728W        W65259  35.480  22.149   0.891
 3729W        W65260  30.992  39.415   3.196
 3730W        W65261  37.570  25.616   3.696
 3731W        W65262  15.649   4.722  10.904
 3732W        W65263   2.796   5.321   2.214
 3733W        W65264   1.452  22.099  14.850
 3734W        W65265  26.703   3.245  13.468
 3735W        W65266  23.140  44.496   3.719
 3736W        W65267   9.229  20.170   1.210
 3737W        W65268  31.144  34.611   4.224
 3738W        W65269  32.628   0.759   4.725
 3739W        W65270  18.603  30.443  12.881
 3740W        W65271  36.453  23.659  11.423
 3741W        W65272  31.151  16.128  10.917
 3742W        W65273  38.438  39.369   2.341
 3743W        W65274  29.518  44.392   1.341
 3744W        W65275  42.396  25.480   2.188
 3745W        W65276   0.329  20.262   2.696
 3746W        W65277  29.072  31.488  14.981
 3747W        W65278  17.559  21.671   1.701
 3748W        W65279  21.562  10.359  13.308
 3749W        W65280   6.222   1.376   2.733
 3750W        W65281  43.424  39.426   0.952
 3751W        W65282   8.331  24.128   2.219
 3752W        W65283  43.915  22.214   4.836
 3753W        W65284  41.504  35.933   3.854
 3754W        W65285  40.398  19.228   0.762
 3755W        W65286  17.616  42.467   0.371
 3756W        W65287  21.263   9.266   1.332
 3757W        W65288  31.629   6.695  12.048
 3758W        W65289  19.603  24.988   3.631
 3759W        W65290  26.653  30.148   3.311
 3760W        W65291  36.452  28.493   2.364
 3761W        W65292  31.945  35.911  14.846
 3762W        W65293   8.751  31.144   4.351
 3763W        W65294   4.377  27.085  12.067
 3764W        W65295  10.380   5.924   2.798
 3765W        W65296   0.353   9.818   2.891
 3766W        W65297  29.649  23.050  12.469
 3767W        W65298  37.845  41.297   2.866
 3768W        W65299  40.046  36.860  13.392
 3769W        W65300   6.348  11.326  14.987
 3770W        W65301  13.124  23.051   3.147
 3771W        W65302  19.094   7.722  14.430
 3772W        W65303  10.368  41.978  13.438
 3773W        W65304   8.828  23.565  11.901
 3774W        W65305  15.307  18.118  12.343
 3775W        W65306  34.881  22.164  12.943
 3776W        W65307   4.441   5.881  13.795
 3777W        W65308  35.467  18.604   5.123
 3778W        W65309  30.070  27.097   1.908
 3779W        W65310  12.823  25.080  14.848
 3780W        W65311   4.331  12.643   4.810
 3781W        W65312  21.161  13.686   1.391
 3782W        W65313  27.520  38.899  13.792
 3783W        W65314  32.890  17.136   2.392
 3784W        W65315   3.822  33.034  13.385
 3785W        W65316  40.362  39.387  11.916
 3786W        W65317  33.545   3.745   1.753
 3787W        W65318  34.881  27.528  10.406
 3788W        W65319  17.584  11.364  10.903
 3789W        W65320  16.607  25.519   3.153
 3790W        W65321  30.509  31.054  13.939
 3791W        W65322   2.787  30.543  12.499
 3792W        W65323   9.872  10.687   1.262
 3793W        W65324  22.194  41.950  13.025
 3794W        W65325  27.181  19.216   0.477
 3795W        W65326  37.877  33.010  11.864
 3796W        W65327  17.609  26.631  14.449
 3797W        W65328  24.485  26.205  14.834
 3798W        W65329  17.150  38.967   3.796
 3799W        W65330   4.377  27.449   2.851
 3800W        W65331  25.680  31.523   2.248
 3801W        W65332   3.886  21.758   0.468
 3802W        W65333   9.748  29.471  12.445
 3803W        W65334  43.837  31.431  12.040
 3804W        W65335   7.171  23.639   0.869
 3805W        W65336  21.213  29.654  12.555
 3806W        W65337  39.818   7.244  14.860
 3807W        W65338  26.181  30.039   2.877
 3808W        W65339  28.516  13.714   3.815
 3809W        W65340   0.458  19.597   3.862
 3810W        W65341  18.267  16.605  11.917
 3811W        W65342  33.049  22.115  10.904
 3812W        W65343  39.541  29.023  14.779
 3813W        W65344  38.039   3.403   1.249
 3814W        W65345   7.224  29.603   3.339
 3815W        W65346   6.783  40.397   4.660
 3816W        W65347  27.561   9.747  12.947
 3817W        W65348  22.659  28.141   1.275
 3818W        W65349  14.134  11.715   0.253
 3819W        W65350  18.150  10.809   0.481
 3820W        W65351  41.867   7.744  12.041
 3821W        W65352  39.322  43.002  11.050
 3822W        W65353  11.768   1.944  13.326
 3823W        W65354  29.621  10.838  14.864
 3824W        W65355  17.589  40.809   3.165
 3825W        W65356   1.765  25.703  12.569
 3826W        W65357  36.390   2.781   4.138
 3827W        W65358   7.348  25.707  13.815
 3828W        W65359  16.697  28.121   0.909
 3829W        W65360  40.402  19.134   4.249
 3830W        W65361  23.497  18.274   2.703
 3831W        W65362  28.966  28.148  12.424
 3832W        W65363   8.688   3.247   3.251
 3833W        W65364  18.774  15.265   1.864
 3834W        W65365  39.852  19.621  11.902
 3835W        W65366  44.459  10.169   2.350
 3836W        W65367  23.722  24.615   1.774
 3837W        W65368  19.143  33.403  14.354
 3838W        W65369  10.725  12.614  12.469
 3839W        W65370  19.780  44.793   2.698
 3840W        W65371  42.996  21.513   1.793
 3841W        W65372   4.282  24.155   2.202
 3842W        W65373  34.995   5.200   0.418
 3843W        W65374  10.637  19.611   0.879
 3844W        W65375  41.339  13.188  14.477
 3845W        W65376  26.489  37.470  13.454
 3846W        W65377  28.975  30.495  13.880
 3847W        W65378  18.659  33.874   1.242
 3848W        W65379  26.199  14.319   0.829
 3849W        W65380  22.568  29.920   9.658
 3850W        W65381   4.343  26.531   1.887
 3851W        W65382  25.632  29.492  14.287
 3852W        W65383   2.238  20.627   4.136
 3853W        W65384  20.642  39.898  11.994
 3854W        W65385  22.561  31.450  13.501
 3855W        W65386  19.113  24.985  14.989
 3856W        W65387  13.827  37.577  10.946
 3857W        W65388  33.603   6.408   2.347
 3858W        W65389  19.534  34.435   2.858
 3859W        W65390  42.437  42.304   0.807
 3860W        W65391  24.505  17.696  14.802
 3861W        W65392  12.334   6.719   1.832
 3862W        W65393  37.529  13.319   0.831
 3863W        W65394  11.295  27.157   0.951
 3864W        W65395  36.572   2.329   4.206
 3865W        W65396  30.489  25.157   4.216
 3866W        W65397  42.330   2.739  10.910
 3867W        W65398  29.442  12.177  12.389
 3868W        W65399   0.375  33.586  10.526
 3869W        W65400  27.020  23.498  11.414
 3870W        W65401   3.313   1.818   2.695
 3871W        W65402   8.845  28.094  10.952
 3872W        W65403   8.880  31.611  14.511
 3873W        W65404  41.997  13.144  12.405
 3874W        W65405   4.936  31.637  14.868
 3875W        W65406   4.222   4.837  10.945
 3876W        W65407  42.880  19.202  13.993
 3877W        W65408  27.099  14.613  12.362
 3878W        W65409  13.160   2.782  12.021
 3879W        W65410  40.325  37.043  13.854
 3880W        W65411  10.246  20.615  13.308
 3881W        W65412   9.826  20.707  12.991
 3882W        W65413  32.097   9.797  13.831
 3883W        W65414  31.116   3.798  10.586
 3884W        W65415   3.326  43.425   1.395
 3885W        W65416   6.804  40.817  12.994
 3886W        W65417  44.981  11.710  13.841
 3887W        W65418  40.358  35.439   2.844
 3888W        W65419  37.518  23.615  10.634
 3889W        W65420  26.043  18.599  13.059
 3890W        W65421  24.066  32.422   3.205
 3891W        W65422  40.820  13.333   2.834
 3892W        W65423  44.771  41.901   4.751
 3893W        W65424   8.815  35.087   0.443
 3894W        W65425   8.327  30.925   1.743
 3895W        W65426  25.107   0.982  10.946
 3896W        W65427  43.410  41.369   2.705
 3897W        W65428  37.366  19.537   0.258
 3898W        W65429  10.273  11.854  14.003
 3899W        W65430  41.937  15.813  11.916
 3900W        W65431  43.829  36.910  14.921
 3901W        W65432  28.108  13.738   0.307
 3902W        W65433  11.688  25.056  11.892
 3903W        W65434   5.331  40.441  11.908
 3904W        W65435   4.701  18.778  14.499
 3905W        W65436  38.071  36.001   2.851
 3906W        W65437  30.426  22.673  13.364
 3907W        W65438  14.264  44.404   4.121
 3908W        W65439  41.498  32.532  13.033
 3909W        W65440  23.496  43.409  11.499
 3910W        W65441  20.218  34.012  13.836
 3911W        W65442  42.791  26.140   4.745
 3912W        W65443  25.684  18.570   0.475
 3913W        W65444  29.169  43.423   0.413
 3914W        W65445  17.198   2.356  10.131
 3915W        W65446  34.931  15.149   0.801
 3916W        W65447   6.848  23.576  10.608
 3917W        W65448  32.554  20.131  13.332
 3918W        W65449  25.527   5.416   0.842
 3919W        W65450   9.329  10.364  11.420
 3920W        W65451   9.840  38.560  14.828
 3921W        W65452  44.359  36.978  11.495
 3922W        W65453  37.042  11.261   3.223
 3923W        W65454  24.032  24.636   4.257
 3924W        W65455  10.796  28.007   1.243
 3925W        W65456  35.070  19.092  14.369
 3926W        W65457  11.321  44.491   2.370
 3927W        W65458  38.334  26.192   0.958
 3928W        W65459  25.634  32.975   4.281
 3929W        W65460  30.652  12.704  13.858
 3930W        W65461  44.969  20.738  11.928
 3931W        W65462  23.120  32.969   1.766
 3932W        W65463  14.164  26.009  14.877
 3933W        W65464  34.432   4.875   0.942
 3934W        W65465  10.313  41.884  14.313
 3935W        W65466  36.030  42.484  11.057
 3936W        W65467  20.272  11.815   2.204
 3937W        W65468  34.370  31.939   4.616
 3938W        W65469  10.811   7.406   1.841
 3939W        W65470  20.641  14.197  12.499
 3940W        W65471  41.025  37.935  10.459
 3941W        W65472  43.020  24.065   3.214
 3942W        W65473  24.600  43.979   0.468
 3943W        W65474  34.971  39.988  12.964
 3944W        W65475   2.319  44.973  10.427
 3945W        W65476  19.587  29.105  12.341
 3946W        W65477   2.266  32.598  12.908
 3947W        W65478  13.265   3.907   3.259
 3948W        W65479  32.479  10.690   3.750
 3949W        W65480   1.782  14.824  12.484
 3950W        W65481  41.493   8.688  13.899
 3951W        W65482  29.498   7.672   4.335
 3952W        W65483  25.687  14.160  11.508
 3953W        W65484  35.555  22.721  11.553
 3954W        W65485  10.750  28.024  12.541
 3955W        W65486  41.513  16.293  14.995
 3956W        W65487  12.160   1.393  13.491
 3957W        W65488   3.360   8.735   0.480
 3958W        W65489  36.523  16.767   5.796
 3959W        W65490  13.319  17.687   3.763
 3960W        W65491   2.410  40.307  14.428
 3961W        W65492  36.495  32.550   4.647
 3962W        W65493  42.995  22.588  11.611
 3963W        W65494  37.550  42.805   1.444
 3964W        W65495   9.245  30.028  14.879
 3965W        W65496  39.064  24.091   1.921
 3966W        W65497  21.031  15.785   3.813
 3967W        W65498  33.557  19.705  13.344
 3968W        W65499  42.472  36.871  11.072
 3969W        W65500  42.454  35.478   2.679
 3970W        W65501  20.633  41.509  10.929
 3971W        W65502  20.112  13.242   2.790
 3972W        W65503  11.351  12.766  10.483
 3973W        W65504  23.165  35.603   1.330
 3974W        W65505  22.014  11.716   2.275
 3975W        W65506  19.716  12.289  14.759
 3976W        W65507  36.435  14.145  11.379
 3977W        W65508  12.670   8.783  14.512
 3978W        W65509  31.526  18.780   4.282
 3979W        W65510  31.545  13.222   1.733
 3980W        W65511  18.714   8.387  10.484
 3981W        W65512  13.808  29.994   1.704
 3982W        W65513  11.156  22.185   4.174
 3983W        W65514  37.957  34.472   3.296
 3984W        W65515   8.718  26.145   4.726
 3985W        W65516  36.427   7.817   4.693
 3986W        W65517   2.385  20.040   2.380
 3987W        W65518  20.087  30.053  11.431
 3988W        W65519  15.222  36.406   1.403
 3989W        W65520  38.070  24.690   3.848
 3990W        W65521  21.529  12.661  14.474
 3991W        W65522  34.995  42.783   0.773
 3992W        W65523   9.804   0.979  14.977
 3993W        W65524   8.762   6.680  10.572
 3994W        W65525  30.431  21.132  14.415
 3995W        W65526  38.371  34.373  12.902
 3996W        W65527  22.735  42.500   0.918
 3997W        W65528  36.863  17.253  12.048
 3998W        W65529  44.349  21.569   1.439
 3999W        W65530   4.345  43.309   4.707
 4000W        W65531  16.604   9.240  13.371
 4001W        W65532  42.028   5.723   0.443
 4002W        W65533  40.343  25.210   4.191
 4003W        W65534  18.575  39.965   0.403
 4004W        W65535  44.890  44.478   4.282
 4005W        W65536  17.119  40.866  12.355
 4006W        W65537  31.635  28.521   4.347
 4007W        W65538  28.081   9.211  12.478
 4008W        W65539  43.948  37.445  13.382
 4009W        W65540   4.880  21.731  12.873
 4010W        W65541  43.286  16.154   4.702
 4011W        W65542   5.199   2.393   1.431
 4012W        W65543   3.395  43.020  12.967
 4013W        W65544  31.523  17.137  13.433
 4014W        W65545  18.060  44.301   0.783
 4015W        W65546  31.120  25.630  12.002
 4016W        W65547  33.037  11.160  14.894
 4017W        W65548  20.698  16.804   3.728
 4018W        W65549  29.582  23.645  14.377
 4019W        W65550  35.601  40.548  14.920
 4020W        W65551  12.239  44.353  12.022
 4021W        W65552   4.348  32.556  10.928
 4022W        W65553  36.360  24.035  14.485
 4023W        W65554  41.009   8.656  10.936
 4024W        W65555   2.345  36.568  14.387
 4025W        W65556   1.333   3.942   3.752
 4026W        W65557   6.286   6.399  10.994
 4027W        W65558   7.892  42.033   1.371
 4028W        W65559  19.765  27.604   0.272
 4029W        W65560  20.708  25.212   3.833
 4030W        W65561  11.344  17.664   1.800
 4031W        W65562   8.670   9.294   5.288
 4032W        W65563  21.647  35.891   0.421
 4033W        W65564  38.360  17.303  12.834
 4034W        W65565  23.050  41.794  10.632
 4035W        W65566  36.082  32.085   5.305
 4036W        W65567  24.100  40.417   4.755
 4037W        W65568   5.378  16.264  13.524
 4038W        W65569   3.340   5.333  13.006
 4039W        W65570   7.193  31.513  14.457
 4040W        W65571  18.240   2.340   4.619
 4041W        W65572  25.470  28.041   3.748
 4042W        W65573  41.893  29.160  12.501
 4043W        W65574  35.528  42.846   1.850
 4044W        W65575  15.710   7.266  10.975
 4045W        W65576  22.038  25.986   4.832
 4046W        W65577  29.960  22.717  11.986
 4047W        W65578  38.932  12.151   3.638
 4048W        W65579  33.009  16.723  12.079
 4049W        W65580  41.836  41.430   2.748
 4050W        W65581  34.426  36.001   3.777
 4051W        W65582  39.968   7.178   1.247
 4052W        W65583  37.874  32.627   3.797
 4053W        W65584   0.412  42.431  12.424
 4054W        W65585  13.644  31.452  10.508
 4055W        W65586  22.143  30.606  11.410
 4056W        W65587  15.578  35.905   4.742
 4057W        W65588  25.087  37.931  11.071
 4058W        W65589  31.963  40.422  10.536
 4059W        W65590   5.424   9.223  13.480
 4060W        W65591  21.054  28.140  14.957
 4061W        W65592  23.518  38.346   9.665
 4062W        W65593  27.483   7.391  13.945
 4063W        W65594  29.077  28.435  11.933
 4064W        W65595  33.384  37.835  13.535
 4065W        W65596  24.721  18.236   1.236
 4066W        W65597   0.818   2.467   2.725
 4067W        W65598  31.461   6.818  11.094
 4068W        W65599  21.613  22.142  10.643
 4069W        W65600  17.731  26.599  13.524
 4070W        W65601  17.293  25.066   0.449
 4071W        W65602  20.120  37.490  12.575
 4072W        W65603  33.493  22.743  13.964
 4073W        W65604  27.580  19.144  13.864
 4074W        W65605  32.591  29.994  14.015
 4075W        W65606  17.240  37.888   3.786
 4076W        W65607  35.913  22.721  12.868
 4077W        W65608  33.470   0.321  11.092
 4078W        W65609  43.888  23.686  14.455
 4079W        W65610  15.126  25.493   3.190
 4080W        W65611  40.332  37.485  13.351
 4081W        W65612  14.822   5.256   0.417
 4082W        W65613  32.435  41.418  13.882
 4083W        W65614  17.164  27.583   2.361
 4084W        W65615  21.522  37.407   9.444
 4085W        W65616  18.747   3.450   1.765
 4086W        W65617   8.739   5.828   4.604
 4087W        W65618  40.548   5.857   0.298
 4088W        W65619  21.550  36.007   4.813
 4089W        W65620  22.101  42.797   4.640
 4090W        W65621   4.907   9.243  11.073
 4091W        W65622  22.729  35.388  12.976
 4092W        W65623  29.511   1.933   2.705
 4093W        W65624  25.534  19.211   2.361
 4094W        W65625   9.209  18.740  11.869
 4095W        W65626  34.988  14.605   0.430
 4096W        W65627   8.324  33.438   0.947
 4097W        W65628  28.161  36.892  11.973
 4098W        W65629  33.577   3.461  13.847
 4099W        W65630  43.845  34.474  12.981
 4100W        W65631   1.927   7.257  13.945
 4101W        W65632  14.633  40.547  13.386
 4102W        W65633  21.196  27.613  10.159
 4103W        W65634  14.740  31.495   3.327
 4104W        W65635  43.817  15.093   3.155
 4105W        W65636  21.736  42.023   1.754
 4106W        W65637  12.689  29.652  14.352
 4107W        W65638  42.397   1.354  10.457
 4108W        W65639  13.647  12.254   3.650
 4109W        W65640  44.795  13.821  14.382
 4110W        W65641   5.300  10.339  13.920
 4111W        W65642  28.445   8.215   0.261
 4112W        W65643   4.208  12.175  13.814
 4113W        W65644  33.511  39.558   3.798
 4114W        W65645  36.539  20.656   1.907
 4115W        W65646  32.530   8.868  10.951
 4116W        W65647  35.374  24.626  12.437
 4117W        W65648  20.529  17.692   3.687
 4118W        W65649  23.724   0.484  14.877
 4119W        W65650  31.628  28.003  11.441
 4120W        W65651  43.826  37.035   1.262
 4121W        W65652  44.889   3.413   3.168
 4122W        W65653  42.342   2.826   0.421
 4123W        W65654   9.648  14.181   4.785
 4124W        W65655   4.783  28.931   3.729
 4125W        W65656  13.274  26.583  14.817
 4126W        W65657  29.460  11.687   4.178
 4127W        W65658  37.580  42.894  13.801
 4128W        W65659  27.504   5.721  13.337
 4129W        W65660   8.187  25.607  13.847
 4130W        W65661  16.197  13.113   4.156
 4131W        W65662   6.287  18.621  10.496
 4132W        W65663  30.058   6.685  12.480
 4133W        W65664   0.871  35.109   0.256
 4134W        W65665   9.817   9.706   4.181
 4135W        W65666  36.956  16.644  10.042
 4136W        W65667   5.266   2.731   0.777
 4137W        W65668  34.473  38.882  13.327
 4138W        W65669  24.174  42.498  13.400
 4139W        W65670  29.944   8.755   1.881
 4140W        W65671  33.593  39.933  13.465
 4141W        W65672  34.383  11.370  13.023
 4142W        W65673  11.670  30.585   1.427
 4143W        W65674  30.986  24.019  12.397
 4144W        W65675  19.773  33.538  10.493
 4145W        W65676  43.308  20.202  14.947
 4146W        W65677  21.554  28.434   0.914
 4147W        W65678   7.227  31.968   0.463
 4148W        W65679  31.638  24.693   3.662
 4149W        W65680  41.801  33.981   0.828
 4150W        W65681  18.095  27.500   1.287
 4151W        W65682  38.853  43.870  11.471
 4152W        W65683  31.581  12.324   3.849
 4153W        W65684  21.557  31.152   4.139
 4154W        W65685   3.224  39.322   3.862
 4155W        W65686  17.694  29.572  12.881
 4156W        W65687   5.267  25.135   3.667
 4157W        W65688   3.891  13.161   0.964
 4158W        W65689  29.625  18.693   4.810
 4159W        W65690  30.487   4.780  13.029
 4160W        W65691  29.446  23.100   1.748
 4161W        W65692   5.262  38.446  14.440
 4162W        W65693  31.121  36.937  13.448
 4163W        W65694  30.934  11.146   0.780
 4164W        W65695  29.999  25.711   4.717
 4165W        W65696  30.619  14.162  12.935
 4166W        W65697  28.526  22.717   1.778
 4167W        W65698  35.971   7.236  14.406
 4168W        W65699  26.671  40.368   2.255
 4169W        W65700  25.556  26.973  10.531
 4170W        W65701  40.944  19.176   2.845
 4171W        W65702   6.417  36.948  14.001
 4172W        W65703   5.862  28.487   1.333
 4173W        W65704   6.414  22.551  12.997
 4174W        W65705  10.861  28.676   0.945
 4175W        W65706  32.095  26.019   1.448
 4176W        W65707  27.039   4.228  12.927
 4177W        W65708  21.745   6.425  12.074
 4178W        W65709  16.656  17.653   1.807
 4179W        W65710  14.804  41.415   4.211
 4180W        W65711  16.730   1.886   2.663
 4181W        W65712  38.553  29.669  14.970
 4182W        W65713  15.118   3.415  10.993
 4183W        W65714   5.295   0.877  13.526
 4184W        W65715  23.499  38.927   1.906
 4185W        W65716  12.272  28.677   2.263
 4186W        W65717   9.306   7.668   2.790
 4187W        W65718  16.786   6.820   4.770
 4188W        W65719  33.379  27.582  10.906
 4189W        W65720  12.350   9.311  12.561
 4190W        W65721  25.615   7.748   2.865
 4191W        W65722  44.993   2.826   4.187
 4192W        W65723   4.713  17.746  13.882
 4193W        W65724  13.293  36.000   5.132
 4194W        W65725  28.524  28.953   1.365
 4195W        W65726  33.054   5.800  11.589
 4196W        W65727  36.924  39.469  13.450
 4197W        W65728  41.340   7.889  12.886
 4198W        W65729  21.715   2.960  14.279
 4199W        W65730  12.341   2.955  12.051
 4200W        W65731  31.901  34.038   1.782
 4201W        W65732  25.152  34.401  12.964
 4202W        W65733  41.294   5.238  13.818
 4203W        W65734  14.318  43.987  14.403
 4204W        W65735  25.163  36.457   1.398
 4205W        W65736   8.850  14.119   2.802
 4206W        W65737  14.655  13.736   4.200
 4207W        W65738  35.556  30.152  13.946
 4208W        W65739  27.987  23.007   4.124
 4209W        W65740  41.367   0.411   4.121
 4210W        W65741  13.212  28.067   4.278
 4211W        W65742  30.920   4.435   4.327
 4212W        W65743  36.955  15.134  11.128
 4213W        W65744  13.184  37.907   0.392
 4214W        W65745   3.906  18.723  14.280
 4215W        W65746  25.689   3.403  14.799
 4216W        W65747  18.641  16.301  10.578
 4217W        W65748  21.120  19.185  13.355
 4218W        W65749  35.540  42.364   2.822
 4219W        W65750  25.005  43.390  14.794
 4220W        W65751  22.011  44.933  12.955
 4221W        W65752  21.156   0.806  13.434
 4222W        W65753  33.975   8.734   3.772
 4223W        W65754   4.914  19.637  12.984
 4224W        W65755  24.501  13.162  12.040
 4225W        W65756   8.860  39.362   0.433
 4226W        W65757   3.868  34.017  14.425
 4227W        W65758  30.551  26.470  10.427
 4228W        W65759  38.437  23.657  14.416
 4229W        W65760  16.170   7.837  13.924
 4230W        W65761  36.013  42.933   4.832
 4231W        W65762  35.491  41.338   0.326
 4232W        W65763  18.289   4.807  13.532
 4233W        W65764  14.116   1.737  10.403
 4234W        W65765   1.365  14.694   1.234
 4235W        W65766  32.923  15.158  13.018
 4236W        W65767  27.025  10.285  12.030
 4237W        W65768  29.495  20.187   3.645
 4238W        W65769  14.195   9.839  10.892
 4239W        W65770  16.676  29.506   3.277
 4240W        W65771   1.358   3.333  13.320
 4241W        W65772  44.457   5.200   1.434
 4242W        W65773  40.369   9.658  11.031
 4243W        W65774  30.025  18.245   1.404
 4244W        W65775   5.235  29.652   3.770
 4245W        W65776  40.938  10.805  12.037
 4246W        W65777  32.116   8.271  13.354
 4247W        W65778  13.776  35.487  12.542
 4248W        W65779  13.115  42.498   3.632
 4249W        W65780  36.465  38.339  13.540
 4250W        W65781  23.196  23.236  12.878
 4251W        W65782  27.553   7.199   2.252
 4252W        W65783  31.446  33.081   1.899
 4253W        W65784  24.194   3.303  12.047
 4254W        W65785  22.720  42.478   2.269
 4255W        W65786  39.357  27.126   3.679
 4256W        W65787  14.160  19.133   1.411
 4257W        W65788  44.427  30.919   2.704
 4258W        W65789  11.188  29.920   0.245
 4259W        W65790  21.630  42.322   4.346
 4260W        W65791  44.947  37.545   2.395
 4261W        W65792  33.477  30.138   0.371
 4262W        W65793  39.509  24.170   1.347
 4263W        W65794  17.791  34.911  14.974
 4264W        W65795   1.389  34.437   0.922
 4265W        W65796  27.995  32.888   1.824
 4266W        W65797  28.644   1.908   4.294
 4267W        W65798  13.715  12.227  12.506
 4268W        W65799   3.394   5.824   4.630
 4269W        W65800  31.504   4.905   4.270
 4270W        W65801  16.595  27.097  14.010
 4271W        W65802  36.058  43.454  12.000
 4272W        W65803  31.095  42.447   1.810
 4273W        W65804  41.790  37.937  11.423
 4274W        W65805  14.606   6.681   1.903
 4275W        W65806   5.826  35.538   4.224
 4276W        W65807  44.394  24.208  11.576
 4277W        W65808   4.257   7.719  13.006
 4278W        W65809   9.843  15.677  10.619
 4279W        W65810  35.103  31.064   2.887
 4280W        W65811  33.527   0.882   4.148
 4281W        W65812  12.157  24.013   0.909
 4282W        W65813  23.702   4.429   0.397
 4283W        W65814   7.299  15.184  14.902
 4284W        W65815  12.797  27.973   4.615
 4285W        W65816  31.061  18.760   2.855
 4286W        W65817  34.429  29.102   2.310
 4287W        W65818  38.932  23.221   0.873
 4288W        W65819  40.359   8.402   2.812
 4289W        W65820  14.701  42.295   2.886
 4290W        W65821  28.518  23.588  10.966
 4291W        W65822  11.777  11.176   0.258
 4292W        W65823   9.817  38.562   0.928
 4293W        W65824  15.655  38.074   0.796
 4294W        W65825   6.324  15.325  12.400
 4295W        W65826  34.391   4.838  12.892
 4296W        W65827  28.116  12.770   0.267
 4297W        W65828  38.888  11.650  14.407
 4298W        W65829   5.246  32.021   1.238
 4299W        W65830  23.623  34.459  10.616
 4300W        W65831  35.105  38.983  10.621
 4301W        W65832  25.609  33.433   0.435
 4302W        W65833  13.698  18.180   1.745
 4303W        W65834  13.126  11.158   1.777
 4304W        W65835  22.527  28.500  11.978
 4305W        W65836  11.368   9.676   2.380
 4306W        W65837  42.300  17.183   2.778
 4307W        W65838  26.190   1.787   1.444
 4308W        W65839  10.269  21.221  14.863
 4309W        W65840  28.083  11.329  11.452
 4310W        W65841  31.579  22.162  14.853
 4311W        W65842  18.549   5.268  11.052
 4312W        W65843  12.195  26.090   1.314
 4313W        W65844  38.466  21.168   1.742
 4314W        W65845  23.040  21.672   4.298
 4315W        W65846  44.372  40.007  14.828
 4316W        W65847   6.767  35.903  10.510
 4317W        W65848  31.440  25.127  10.417
 4318W        W65849  22.082  13.186  13.055
 4319W        W65850   1.292  13.654  12.063
 4320W        W65851  10.270  39.432   3.775
 4321W        W65852  25.693  17.585   4.655
 4322W        W65853  10.245  10.873   3.703
 4323W        W65854   3.389   6.277  14.297
 4324W        W65855  38.351  28.062  13.050
 4325W        W65856  24.593  30.510  14.785
 4326W        W65857   2.453   6.731   3.781
 4327W        W65858   8.680  31.428   0.961
 4328W        W65859   2.865  28.037   1.696
 4329W        W65860  17.219  16.604  12.859
 4330W        W65861   9.353  25.113  14.822
 4331W        W65862  11.291  42.372  11.415
 4332W        W65863  34.909  20.644   2.297
 4333W        W65864  14.306  43.490  10.959
 4334W        W65865   2.244  24.177   3.766
 4335W        W65866  27.019  12.707  10.919
 4336W        W65867  26.022  17.106  14.948
 4337W        W65868  39.327   5.731  13.543
 4338W        W65869  38.907   5.747   1.719
 4339W        W65870  39.534  24.558  11.057
 4340W        W65871  41.375  39.026  14.330
 4341W        W65872   9.292  12.733   0.367
 4342W        W65873  17.302  41.485  12.464
 4343W        W65874  41.898  43.466   0.247
 4344W        W65875  23.093  38.953  12.028
 4345W        W65876  37.347  14.186   3.636
 4346W        W65877  35.905  44.769  11.465
 4347W        W65878  15.214   8.877  11.517
 4348W        W65879  40.449  12.687   4.807
 4349W        W65880  33.449  14.226   3.385
 4350W        W65881  21.060  38.820  11.386
 4351W        W65882   8.313  10.293   9.933
 4352W        W65883  11.175  43.976   4.762
 4353W        W65884   5.769  17.136   1.237
 4354W        W65885   3.423  34.913  13.379
 4355W        W65886   6.188  15.786  13.441
 4356W        W65887  13.150   4.785   3.167
 4357W        W65888   1.784  25.589  13.801
 4358W        W65889  13.243  40.547  10.131
 4359W        W65890   5.281   7.726   3.367
 4360W        W65891  29.467  43.981   3.700
 4361W        W65892  33.951  32.612   2.356
 4362W        W65893  16.181  25.488   3.673
 4363W        W65894  25.168  26.983   1.444
 4364W        W65895  25.130  20.600  10.568
 4365W        W65896  23.731  35.861   3.632
 4366W        W65897   8.732  33.430  10.585
 4367W        W65898   9.357  29.511  14.796
 4368W        W65899  43.935  41.850  12.936
 4369W        W65900  40.502  15.102   3.804
 4370W        W65901  44.323  26.493   4.719
 4371W        W65902  29.046   7.378  11.425
 4372W        W65903  36.445  13.246  10.052
 4373W        W65904  10.858  25.576  12.576
 4374W        W65905  15.683   1.753  14.896
 4375W        W65906  22.645  20.056  11.856
 4376W        W65907  16.702  23.105  10.029
 4377W        W65908   3.387   8.405  10.508
 4378W        W65909  18.162  18.282   0.875
 4379W        W65910   8.773   0.416  14.862
 4380W        W65911  20.600  11.717  11.388
 4381W        W65912  39.858   2.753  11.934
 4382W        W65913   3.382  15.747   0.355
 4383W        W65914  34.910  10.841   4.206
 4384W        W65915  35.974  33.542   3.342
 4385W        W65916  16.702  12.663  12.573
 4386W        W65917  34.907  33.526   3.693
 4387W        W65918  40.333   5.820  13.891
 4388W        W65919  43.847  21.182  14.798
 4389W        W65920  11.362  18.776  10.548
 4390W        W65921   8.703   3.370  11.029
 4391W        W65922  40.480  25.666  12.917
 4392W        W65923  30.939  11.798  12.575
 4393W        W65924  15.090   2.909   3.818
 4394W        W65925   1.800  14.187  11.507
 4395W        W65926   6.410  13.842  13.970
 4396W        W65927  36.097   8.278  11.378
 4397W        W65928  23.008   4.375   1.934
 4398W        W65929  29.940  20.095   1.291
 4399W        W65930   7.812  44.504   5.173
 4400W        W65931  25.643  41.486  10.604
 4401W        W65932  11.839  23.054  11.544
 4402W        W65933  10.305  21.196  11.079
 4403W        W65934  31.629   5.401   4.760
 4404W        W65935  18.559  35.920   3.727
 4405W        W65936  43.452   1.899  13.845
 4406W        W65937   5.332  44.843   4.152
 4407W        W65938  42.844  30.652  11.917
 4408W        W65939  14.723  28.063  10.939
 4409W        W65940  34.472  34.082   2.839
 4410W        W65941   0.354  30.096   3.743
 4411W        W65942  22.682  38.390  14.417
 4412W        W65943  28.935  13.720   2.370
 4413W        W65944  12.732   7.367   4.221
 4414W        W65945  23.197  27.095  14.974
 4415W        W65946  43.886  17.251   4.745
 4416W        W65947  13.305   9.319  13.548
 4417W        W65948  36.841  34.449   2.203
 4418W        W65949  30.970  18.187  13.936
 4419W        W65950  28.481   6.418   2.690
 4420W        W65951   8.810  36.533   0.864
 4421W        W65952  25.132  17.113   0.792
 4422W        W65953  37.855  40.809  11.425
 4423W        W65954  33.960  38.936  14.866
 4424W        W65955  16.241  35.077   0.928
 4425W        W65956  40.339  29.455   1.227
 4426W        W65957   4.435  41.039  13.906
 4427W        W65958   8.353  44.810  14.282
 4428W        W65959  39.479  14.679   0.734
 4429W        W65960  25.538  26.163   4.345
 4430W        W65961  44.267  41.326   3.771
 4431W        W65962  42.972  18.183   2.352
 4432W        W65963  15.593   3.440   3.207
 4433W        W65964  18.123  33.129   4.201
 4434W        W65965  44.496  11.791   3.837
 4435W        W65966  23.145  22.121   1.830
 4436W        W65967  38.563  10.760  12.049
 4437W        W65968  15.237  26.609   5.143
 4438W        W65969  37.455  13.217   2.224
 4439W        W65970  13.792  30.949  13.060
 4440W        W65971  14.169  42.404  11.554
 4441W        W65972   8.709  13.240  14.809
 4442W        W65973  28.614  35.520  12.999
 4443W        W65974  24.095  35.358   1.750
 4444W        W65975  28.139   0.825   1.836
 4445W        W65976  24.667   1.361   3.724
 4446W        W65977  44.855  43.871  13.854
 4447W        W65978  42.452   4.338   0.911
 4448W        W65979  39.474   3.739  11.402
 4449W        W65980   9.865  23.138  14.927
 4450W        W65981  28.160  12.806  14.314
 4451W        W65982  19.248  16.224  11.560
 4452W        W65983   7.845  30.486   4.743
 4453W        W65984   8.817   7.264   1.281
 4454W        W65985  17.688  26.513  10.131
 4455W        W65986  29.042  41.959  13.992
 4456W        W65987  17.279  33.624   3.788
 4457W        W65988  36.861   8.875   3.215
 4458W        W65989  31.102   0.818   4.809
 4459W        W65990  39.328  39.523   0.273
 4460W        W65991  38.386  21.027  10.482
 4461W        W65992  37.365   9.271   3.301
 4462W        W65993  16.155  34.023  10.605
 4463W        W65994  30.650  15.673   1.382
 4464W        W65995  39.837   6.263  12.424
 4465W        W65996  10.147  18.770   0.885
 4466W        W65997  40.314  18.238   0.956
 4467W        W65998  20.183   3.293  12.433
 4468W        W65999   4.924  37.452   1.284
 4469W        W66000  16.255  11.229   2.267
 4470W        W66001  37.406  21.252  10.520
 4471W        W66002  26.519  36.361  11.386
 4472W        W66003  22.234  41.498   0.431
 4473W        W66004  17.692  21.191  14.984
 4474W        W66005  26.504  43.991   2.840
 4475W        W66006  44.928  18.552  11.376
 4476W        W66007  36.431  15.735   4.208
 4477W        W66008  34.022  36.408   3.340
 4478W        W66009   2.390  20.601   1.771
 4479W        W66010  27.023  40.499  11.880
 4480W        W66011  15.784  29.050   5.138
 4481W        W66012  42.482  28.170  12.440
 4482W        W66013  13.339  22.575   5.156
 4483W        W66014   2.435  27.985  14.299
 4484W        W66015  40.011  44.856  14.915
 4485W        W66016   6.386  37.422  12.954
 4486W        W66017  44.918   5.402   1.416
 4487W        W66018  18.190  33.948  12.402
 4488W        W66019  43.298  41.337  12.025
 4489W        W66020   6.772   3.295   3.376
 4490W        W66021  32.097  33.498  12.408
 4491W        W66022  31.572  30.521  13.341
 4492W        W66023  27.052  25.659   1.342
 4493W        W66024  17.620   4.297  10.548
 4494W        W66025  13.825  37.441   1.252
 4495W        W66026   6.217  19.701  14.838
 4496W        W66027  27.168  33.545  11.890
 4497W        W66028  38.453  41.362   3.703
 4498W        W66029   3.305   7.827   1.302
 4499W        W66030  30.519   5.774   0.416
 4500W        W66031  19.278  38.501  12.430
 4501W        W66032   7.724  19.218  11.499
 4502W        W66033   4.891  44.822  13.360
 4503W        W66034  33.973   6.239   4.838
 4504W        W66035   8.171  35.915   1.927
 4505W        W66036  16.788  13.629   2.741
 4506W        W66037  39.330  10.741  12.444
 4507W        W66038   7.864  18.585   0.773
 4508W        W66039  40.934  11.130  12.033
 4509W        W66040  20.755  16.189  11.975
 4510W        W66041  40.421  32.955   0.950
 4511W        W66042  31.985  19.653  12.824
 4512W        W66043  39.444  34.923  12.548
 4513W        W66044  38.857  26.580   9.952
 4514W        W66045  13.106  32.043   2.798
 4515W        W66046  18.085   6.394   2.821
 4516W        W66047  21.063  16.225   1.861
 4517W        W66048  22.196  43.929  12.443
 4518W        W66049  35.973  43.302   0.467
 4519W        W66050   1.899   6.238  11.531
 4520W        W66051   3.428  24.987  11.512
 4521W        W66052  27.671   5.875  12.472
 4522W        W66053  38.494  13.314  14.960
 4523W        W66054  14.805  37.961  11.875
 4524W        W66055  41.946  25.985   2.880
 4525W        W66056  29.993  31.998  13.023
 4526W        W66057  15.813  10.878   2.299
 4527W        W66058  35.574  42.894   2.406
 4528W        W66059  21.593  34.384   2.735
 4529W        W66060  37.833   3.715   4.303
 4530W        W66061  44.326  36.400   0.910
 4531W        W66062  13.665   5.325  12.948
 4532W        W66063  35.062  44.387  14.799
 4533W        W66064  14.629  42.904  10.532
 4534W        W66065   1.369  19.559   4.640
 4535W        W66066  22.214  14.731  10.982
 4536W        W66067   3.780  17.604  11.005
 4537W        W66068   8.726  42.521  10.557
 4538W        W66069  26.086  27.553   0.441
 4539W        W66070  26.117  36.983   2.372
 4540W        W66071   9.879  42.350  10.603
 4541W        W66072   0.366  20.122   4.835
 4542W        W66073   8.384  39.467   3.669
 4543W        W66074   2.945  27.634  12.373
 4544W        W66075  43.892  13.195   0.849
 4545W        W66076   2.468  32.460  11.514
 4546W        W66077  44.450  34.388   1.913
 4547W        W66078  33.422  39.915   0.360
 4548W        W66079   2.306  28.010   4.733
 4549W        W66080  15.679  44.808  14.793
 4550W        W66081  39.904  32.492  10.977
 4551W        W66082   8.669  26.618  13.829
 4552W        W66083   1.965  12.698  10.919
 4553W        W66084  22.613   4.705  11.493
 4554W        W66085  11.715  26.997   0.327
 4555W        W66086  30.613  25.189  12.959
 4556W        W66087  31.008   5.711   0.879
 4557W        W66088  34.061  16.149   3.277
 4558W        W66089  21.602  37.357   2.783
 4559W        W66090  38.934  33.001  12.058
 4560W        W66091  25.549  32.548  11.449
 4561W        W66092   8.887   1.259  12.053
 4562W        W66093  19.546  42.422   1.211
 4563W        W66094  43.832   1.842  12.026
 4564W        W66095  16.299  32.484  14.370
 4565W        W66096   8.804  33.917   3.320
 4566W        W66097  13.737   7.721   4.251
 4567W        W66098  22.728   8.887  10.604
 4568W        W66099   2.427  33.062  14.809
 4569W        W66100  43.399  25.996   4.614
 4570W        W66101   0.333   3.765   4.802
 4571W        W66102   4.714   5.747  10.960
 4572W        W66103  39.057  14.599  10.430
 4573W        W66104   1.863  38.930  12.410
 4574W        W66105   8.270   9.341   1.794
 4575W        W66106  14.238  35.024   2.764
 4576W        W66107  15.652  37.032  12.022
 4577W        W66108  30.927  14.184  10.441
 4578W        W66109  26.597   0.844   3.788
 4579W        W66110  36.843   4.245  12.961
 4580W        W66111  18.215  40.498   0.428
 4581W        W66112  40.970  19.720  12.356
 4582W        W66113  21.727  28.062   4.131
 4583W        W66114   1.969  35.872   1.286
 4584W        W66115  15.747  18.181  13.875
 4585W        W66116  15.286  32.579  10.063
 4586W        W66117   6.199  44.998  14.493
 4587W        W66118   7.832  44.346  14.997
 4588W        W66119  12.269  29.642   5.234
 4589W        W66120  27.661  25.585  13.377
 4590W        W66121  41.444  29.145  12.041
 4591W        W66122  20.608  15.206   4.124
 4592W        W66123  32.085  19.706   2.738
 4593W        W66124  43.808  38.414  10.639
 4594W        W66125   1.914  28.528   2.279
 4595W        W66126   4.869  38.505  12.388
 4596W        W66127  25.212  23.173  12.996
 4597W        W66128   5.786   0.892  12.450
 4598W        W66129  32.920  18.581  13.996
 4599W        W66130   7.821  30.460  10.099
 4600W        W66131   7.794  28.644  11.407
 4601W        W66132   7.815  30.621  13.844
 4602W        W66133  18.070  34.419   0.815
 4603W        W66134   0.276  20.755  14.914
 4604W        W66135  37.887  17.654  10.469
 4605W        W66136   4.855  24.520   3.209
 4606W        W66137  41.297   0.957   1.401
 4607W        W66138  28.475   5.731  13.962
 4608W        W66139  17.268   2.250  12.340
 4609W        W66140  43.461  35.507   3.796
 4610W        W66141  23.673  31.530  11.412
 4611W        W66142  19.700  20.112   0.804
 4612W        W66143  16.082  26.026  13.942
 4613W        W66144  26.138  15.645   0.801
 4614W        W66145  41.366  13.345  12.891
 4615W        W66146  35.454   3.460   2.714
 4616W        W66147  28.486   5.308  12.999
 4617W        W66148  38.563  19.187  14.483
 4618W        W66149  10.713   7.883  12.400
 4619W        W66150  10.376  13.611   3.238
 4620W        W66151  20.180   3.879  10.538
 4621W        W66152  39.052  22.195   1.715
 4622W        W66153  19.733   7.736   2.238
 4623W        W66154  36.041   0.271  13.378
 4624W        W66155   1.935  26.614   3.189
 4625W        W66156  20.701  16.706  11.054
 4626W        W66157  43.504  23.125   4.818
 4627W        W66158  44.007  28.463  11.429
 4628W        W66159   5.776  44.810   3.355
 4629W        W66160  21.247  37.386  13.825
 4630W        W66161  29.058  43.969  13.791
 4631W        W66162  30.580  27.081   0.342
 4632W        W66163  39.874  41.474   1.331
 4633W        W66164  43.923  12.695   2.669
 4634W        W66165  33.883  40.055  14.358
 4635W        W66166  19.151   4.716  13.492
 4636W        W66167  37.010  24.020   2.331
 4637W        W66168  28.592  32.570  10.480
 4638W        W66169  34.992  21.190  13.044
 4639W        W66170   0.406  37.437   2.279
 4640W        W66171  41.376  32.938   4.689
 4641W        W66172  36.977  24.527  12.096
 4642W        W66173  22.692   6.905  13.950
 4643W        W66174  19.629  20.159   1.311
 4644W        W66175  17.598   4.229  12.515
 4645W        W66176  18.127   2.391  11.979
 4646W        W66177  33.429  38.867   2.364
 4647W        W66178  39.827  34.059   1.237
 4648W        W66179   1.795   8.838   4.286
 4649W        W66180  34.432  36.852  13.042
 4650W        W66181  22.523  22.062   3.386
 4651W        W66182   8.899  41.348   1.731
 4652W        W66183  34.989  10.312   3.812
 4653W        W66184  36.527   8.682  11.540
 4654W        W66185  25.076  26.501   4.769
 4655W        W66186   4.373   8.290  13.019
 4656W        W66187  12.717  15.813   2.844
 4657W        W66188  43.476  37.941   2.795
 4658W        W66189  32.023   3.816  14.894
 4659W        W66190  30.468  25.558  11.067
 4660W        W66191  15.580  29.117  13.475
 4661W        W66192  17.305  16.745  14.321
 4662W        W66193   6.788  20.079   2.787
 4663W        W66194  14.218   1.808   2.701
 4664W        W66195  36.447  16.298   5.775
 4665W        W66196  15.610  31.920   0.882
 4666W        W66197  37.067  13.640   2.879
 4667W        W66198  18.695  39.547   2.679
 4668W        W66199   9.707  18.566   0.404
 4669W        W66200  30.143   4.741  11.534
 4670W        W66201   4.942  10.859   4.646
 4671W        W66202   7.839   8.664   3.361
 4672W        W66203  26.985  35.474  10.487
 4673W        W66204  23.690  10.346  13.326
 4674W        W66205  36.564  21.590  11.483
 4675W        W66206   8.829  30.112  14.782
 4676W        W66207  14.821  11.642   2.721
 4677W        W66208  26.967  20.533   3.333
 4678W        W66209  33.086  25.513   1.406
 4679W        W66210  34.615  19.545   3.853
 4680W        W66211   4.254  40.901   0.409
 4681W        W66212  20.686  32.976  10.902
 4682W        W66213   4.299  32.432   2.715
 4683W        W66214  28.475  20.073  13.040
 4684W        W66215  41.963  21.533   4.724
 4685W        W66216  17.241  13.161  11.578
 4686W        W66217  35.036   8.752  14.941
 4687W        W66218  37.961  25.145  10.984
 4688W        W66219  20.541  13.155   2.244
 4689W        W66220  22.729  16.763   0.751
 4690W        W66221  17.065   6.828   0.819
 4691W        W66222  11.326  23.576  10.413
 4692W        W66223  39.062  28.437   3.246
 4693W        W66224  10.213  10.659   4.602
 4694W        W66225   0.834  40.906  14.029
 4695W        W66226  10.235   0.481  12.396
 4696W        W66227  25.604  12.263  11.388
 4697W        W66228  26.165  13.815   3.782
 4698W        W66229   0.780  12.794  14.386
 4699W        W66230  21.121  26.050   1.857
 4700W        W66231  17.070  16.109   0.450
 4701W        W66232  34.981  23.021   0.957
 4702W        W66233  26.478  31.986   2.822
 4703W        W66234  32.936  17.702   3.350
 4704W        W66235   4.922  41.519  12.420
 4705W        W66236  23.064  18.131   4.214
 4706W        W66237  43.015  17.302   2.761
 4707W        W66238  34.554  33.919  12.351
 4708W        W66239  43.371  42.523   4.259
 4709W        W66240  18.200  43.768   4.817
 4710W        W66241   2.953  33.878   0.837
 4711W        W66242  25.484  18.772   0.951
 4712W        W66243   8.734  33.442  13.447
 4713W        W66244  24.059  24.696  11.429
 4714W        W66245  34.102  42.524   4.625
 4715W        W66246  37.564  32.080   2.388
 4716W        W66247  17.599   6.235   2.704
 4717W        W66248  17.610   8.849   1.704
 4718W        W66249  15.205  23.522  13.319
 4719W        W66250  41.884  44.378  12.548
 4720W        W66251  37.966  20.563  12.060
 4721W        W66252  39.534   5.351  14.401
 4722W        W66253  25.692  22.074   0.910
 4723W        W66254   0.962  38.413   1.263
 4724W        W66255  16.244  44.269   4.597
 4725W        W66256   1.354   5.930  13.415
 4726W        W66257  18.635  14.294   1.878
 4727W        W66258   4.902  13.236  13.395
 4728W        W66259  35.540   6.374  10.561
 4729W        W66260  39.421  24.676   0.873
 4730W        W66261  24.143   3.441   5.170
 4731W        W66262  19.127  16.775   1.850
 4732W        W66263  39.518   6.378   0.248
 4733W        W66264  22.139  24.492  13.808
 4734W        W66265  17.798  16.667  12.504
 4735W        W66266  19.779   9.792   1.335
 4736W        W66267  25.564   4.875  12.502
 4737W        W66268  15.812  21.126  12.924
 4738W        W66269   2.357  18.597   1.268
 4739W        W66270  23.522  27.153   0.955
 4740W        W66271   8.378  25.085  11.914
 4741W        W66272  24.208   9.792  11.879
 4742W        W66273  25.650   3.757  13.868
 4743W        W66274  12.205  25.990  13.041
 4744W        W66275   9.794  16.232   0.461
 4745W        W66276  22.084  16.578   4.165
 4746W        W66277  40.983  19.698  10.458
 4747W        W66278  29.932  21.606  13.919
 4748W        W66279   9.838  11.727   2.695
 4749W        W66280  32.043  20.619  12.491
 4750W        W66281  36.961  39.511   0.446
 4751W        W66282  42.798  25.546   1.728
 4752W        W66283   1.865   2.878   1.384
 4753W        W66284  11.366  13.262  12.467
 4754W        W66285   5.222  26.038   0.262
 4755W        W66286  40.422  13.843   1.901
 4756W        W66287  21.715  19.220  14.024
 4757W        W66288   8.723  30.116  10.626
 4758W        W66289   1.436  11.303  13.062
 4759W        W66290  33.973  18.202  12.511
 4760W        W66291  16.203   4.701  13.819
 4761W        W66292  11.794  32.931   2.263
 4762W        W66293  17.744  24.528   2.370
 4763W        W66294  25.707   0.837  11.453
 4764W        W66295  18.265  33.514  14.483
 4765W        W66296  44.492   3.919   2.787
 4766W        W66297  28.603  38.406   1.788
 4767W        W66298  43.983   6.386   1.432
 4768W        W66299   7.798  35.406  13.946
 4769W        W66300  13.284  11.848  13.800
 4770W        W66301   7.243  41.806   3.683
 4771W        W66302  38.857  36.959  10.897
 4772W        W66303   5.241  30.159  14.777
 4773W        W66304  25.612   9.266  12.022
 4774W        W66305   8.183  22.514   0.890
 4775W        W66306   1.463  18.180   2.269
 4776W        W66307  11.276   0.937   0.821
 4777W        W66308  18.133  10.322   4.643
 4778W        W66309  12.685  40.020   2.412
 4779W        W66310   3.868  24.176   2.177
 4780W        W66311  34.980  42.794  12.996
 4781W        W66312  42.388  33.092   3.240
 4782W        W66313  44.433  31.053  14.002
 4783W        W66314  31.596  15.608   5.793
 4784W        W66315  30.592  32.423  12.940
 4785W        W66316  11.159   8.207   2.872
 4786W        W66317  38.917  14.259  14.510
 4787W        W66318  15.816  33.888  14.368
 4788W        W66319  42.925  39.919   2.378
 4789W        W66320  26.198   0.921  11.120
 4790W        W66321  22.212  21.638  12.958
 4791W        W66322  11.171  19.691  11.927
 4792W        W66323  43.335  42.018   4.665
 4793W        W66324   3.334   6.807   0.434
 4794W        W66325  31.095  16.583   3.782
 4795W        W66326  31.928   5.784  12.501
 4796W        W66327   0.882  43.425   1.451
 4797W        W66328  43.825  26.695   3.171
 4798W        W66329  22.055  19.724   0.315
 4799W        W66330  18.582  21.238   4.344
 4800W        W66331  41.375  14.097  14.818
 4801W        W66332  19.166  18.748   0.427
 4802W        W66333  39.894  34.051   3.373
 4803W        W66334   8.768   7.393  12.440
 4804W        W66335  25.513  10.302   2.258
 4805W        W66336  35.482  28.952   3.675
 4806W        W66337  20.204  43.815  12.994
 4807W        W66338  18.610  20.090   3.315
 4808W        W66339  31.452  31.467   4.823
 4809W        W66340  30.454   0.409  10.963
 4810W        W66341  17.257   4.865   0.452
 4811W        W66342   5.922  32.498  13.012
 4812W        W66343  22.116  40.346  13.336
 4813W        W66344  17.679   4.214   1.884
 4814W        W66345   6.357  16.184  14.849
 4815W        W66346   0.349  43.000   4.704
 4816W        W66347  33.879  23.204   0.412
 4817W        W66348  40.800  25.662  11.104
 4818W        W66349  21.220  15.741   4.252
 4819W        W66350  18.059  19.179  10.587
 4820W        W66351  16.288  18.185  10.641
 4821W        W66352  28.957  20.040   3.783
 4822W        W66353  21.539   0.896   4.708
 4823W        W66354  36.441  11.129   2.801
 4824W        W66355  22.166  27.037   2.867
 4825W        W66356   4.439  35.930   1.832
 4826W        W66357  13.250  35.429  14.405
 4827W        W66358   6.770   6.217   0.849
 4828W        W66359  25.108  37.537   4.789
 4829W        W66360  35.982   0.251   1.408
 4830W        W66361  33.994  10.138   0.256
 4831W        W66362  15.602  29.054  10.147
 4832W        W66363  18.132  41.526   1.761
 4833W        W66364  18.627   1.919  11.096
 4834W        W66365  35.461  30.016   0.391
 4835W        W66366  30.511  16.187  12.535
 4836W        W66367  42.838  43.277   3.194
 4837W        W66368  41.872   7.722   4.210
 4838W        W66369  19.723  13.654   0.444
 4839W        W66370   8.270  16.619  12.446
 4840W        W66371   0.478  33.442   0.345
 4841W        W66372  32.433  22.515  11.457
 4842W        W66373  41.317  12.670  11.414
 4843W        W66374  23.122  17.128   3.737
 4844W        W66375  31.542  44.446   1.258
 4845W        W66376   7.716  14.605   0.422
 4846W        W66377  35.545  13.706  12.459
 4847W        W66378  18.758  17.197   2.765
 4848W        W66379  35.969  26.181  13.999
 4849W        W66380  27.154  16.159  12.550
 4850W        W66381  29.008  36.512   4.805
 4851W        W66382  30.116  25.096   0.908
 4852W        W66383   3.811  17.787  14.459
 4853W        W66384  30.980  27.002   0.836
 4854W        W66385  31.940  10.175  11.057
 4855W        W66386  27.517  13.131  14.000
 4856W        W66387   1.968  33.477  11.011
 4857W        W66388  22.597  41.361  12.966
 4858W        W66389  11.248  39.834   1.729
 4859W        W66390   2.774  32.577  13.880
 4860W        W66391  26.015  28.045  11.591
 4861W        W66392  21.543  39.340  13.441
 4862W        W66393  10.722  25.533   3.727
 4863W        W66394  15.291   2.432  11.988
 4864W        W66395  37.444  19.189   4.751
 4865W        W66396  24.707  12.201  12.862
 4866W        W66397  32.065  22.657  14.459
 4867W        W66398  12.168  39.340  14.363
 4868W        W66399  14.241  16.112   4.296
 4869W        W66400   5.796  10.352   1.394
 4870W        W66401  16.597  22.534  12.410
 4871W        W66402  35.583   4.743   0.300
 4872W        W66403   8.898  28.439   0.372
 4873W        W66404  43.015  16.655   2.226
 4874W        W66405  11.663  39.883   2.292
 4875W        W66406  42.796  11.704   1.273
 4876W        W66407   3.828  29.927  11.559
 4877W        W66408  30.477  28.462   0.389
 4878W        W66409  43.912  12.353   1.704
 4879W        W66410  33.405  42.467  10.981
 4880W        W66411  23.030  18.233  12.999
 4881W        W66412  36.422  42.405  11.583
 4882W        W66413  44.366  21.743  11.503
 4883W        W66414  33.407  31.503  10.570
 4884W        W66415  20.164  44.010  10.489
 4885W        W66416  35.357  14.637  13.047
 4886W        W66417  37.872  38.337   4.255
 4887W        W66418   6.330  23.505  14.345
 4888W        W66419  38.072  33.947   3.263
 4889W        W66420   1.392  32.592   0.912
 4890W        W66421  18.115  20.204  13.022
 4891W        W66422  28.998  15.189  14.510
 4892W        W66423  15.191  11.211   0.340
 4893W        W66424  20.176  17.165  13.012
 4894W        W66425  41.322  32.110  10.584
 4895W        W66426   1.284  22.024   0.412
 4896W        W66427   6.798  23.491  13.911
 4897W        W66428   7.227   2.793   5.148
 4898W        W66429  32.127   8.834  12.049
 4899W        W66430  24.131   4.220   3.867
 4900W        W66431  21.156  20.525  12.943
 4901W        W66432   3.922  36.986  11.466
 4902W        W66433   2.846  27.955   5.261
 4903W        W66434  38.371   6.795  13.374
 4904W        W66435   7.382  26.967  12.838
 4905W        W66436  38.329  11.849   2.692
 4906W        W66437  15.166  28.024   4.813
 4907W        W66438   3.750  36.441   4.739
 4908W        W66439   8.225  10.201   1.331
 4909W        W66440  41.931  30.035   0.764
 4910W        W66441   8.733  31.485  12.944
 4911W        W66442  36.515  38.998   3.280
 4912W        W66443  28.441   7.767   2.709
 4913W        W66444   1.737  40.993   3.185
 4914W        W66445   5.797  24.998  13.454
 4915W        W66446  29.480  22.114   4.137
 4916W        W66447  17.100   3.279   4.118
 4917W        W66448  33.511  39.389  12.923
 4918W        W66449  34.934   0.980   5.146
 4919W        W66450  28.558  24.558   4.664
 4920W        W66451  19.112   7.404  10.570
 4921W        W66452  11.236  21.264  10.472
 4922W        W66453  15.120  12.731   1.771
 4923W        W66454  27.070  22.072   4.601
 4924W        W66455  10.696  15.783  12.898
 4925W        W66456   8.187  31.480  13.910
 4926W        W66457  34.438  17.248   3.238
 4927W        W66458   4.869  36.530   4.703
 4928W        W66459  38.987  35.956   1.341
 4929W        W66460   4.942  22.533   4.327
 4930W        W66461  33.074  13.693   3.146
 4931W        W66462  38.556  29.114  13.410
 4932W        W66463  25.583   5.235  10.546
 4933W        W66464  44.904  18.587  12.347
 4934W        W66465  32.000   6.812  11.044
 4935W        W66466  30.641   5.830   4.650
 4936W        W66467   0.447  18.086  13.883
 4937W        W66468  26.587  14.339  13.064
 4938W        W66469  35.509  23.671   0.926
 4939W        W66470   5.297   7.333   4.306
 4940W        W66471   5.769   9.829   2.799
 4941W        W66472  11.358  24.661  14.893
 4942W        W66473   9.814   0.324  10.595
 4943W        W66474  25.171  30.120  12.908
 4944W        W66475  28.659   6.845  10.890
 4945W        W66476  31.532  40.548   1.394
 4946W        W66477   8.247   3.437   0.887
 4947W        W66478  34.563  33.459   3.766
 4948W        W66479   4.831  28.610  12.885
 4949W        W66480  21.254   6.268   3.157
 4950W        W66481   2.251   2.849  13.921
 4951W        W66482   4.866  39.380   0.258
 4952W        W66483   1.920   8.248  14.026
 4953W        W66484  12.760  16.596  10.900
 4954W        W66485  28.162  34.029  13.003
 4955W        W66486  36.056   1.961  11.874
 4956W        W66487   3.301  37.405   3.815
 4957W        W66488  14.289  41.504  12.048
 4958W        W66489  27.647  40.854   3.167
 4959W        W66490  34.072   0.255  13.352
 4960W        W66491  33.005  10.187   3.237
 4961W        W66492   0.802   6.725   2.674
 4962W        W66493   1.331   5.811  13.876
 4963W        W66494   5.385  23.578   1.896
 4964W        W66495   8.849  16.589   2.361
 4965W        W66496  27.541  13.208   3.338
 4966W        W66497  11.756   1.401   0.879
 4967W        W66498  11.849  24.556   2.221
 4968W        W66499  41.462   7.251   0.901
 4969W        W66500   2.371  24.190   1.447
 4970W        W66501  18.281   8.403   1.354
 4971W        W66502   4.405  32.067   4.599
 4972W        W66503  13.824   4.825  14.472
 4973W        W66504   6.420  36.360  14.301
 4974W        W66505  22.029  16.685  13.410
 4975W        W66506  41.992  29.011   3.259
 4976W        W66507  17.740  19.242   1.880
 4977W        W66508  26.103  11.363   1.215
 4978W        W66509  26.189  38.488   1.714
 4979W        W66510  27.115  19.056   1.912
 4980W        W66511   8.276  32.024  13.006
 4981W        W66512  22.007  21.686  13.809
 4982W        W66513  44.753  32.466   0.880
 4983W        W66514  44.947  15.817   3.871
 4984W        W66515   1.771  22.611  13.823
 4985W        W66516   4.325  23.535   3.770
 4986W        W66517   9.370  22.538  13.889
 4987W        W66518   1.870   5.372   2.402
 4988W        W66519  14.226  34.100  13.942
 4989W        W66520  12.205  28.464   9.594
 4990W        W66521   4.816  16.751   4.335
 4991W        W66522  31.096  33.116  14.957
 4992W        W66523  21.708  25.494  13.061
 4993W        W66524  31.549  26.679   3.661
 4994W        W66525  41.847   4.784   1.265
 4995W        W66526  15.131   5.340  13.858
 4996W        W66527  25.039  25.042   3.329
 4997W        W66528  33.510  23.735  13.491
 4998W        W66529  30.984  39.005  11.029
 4999W        W66530  31.096  20.666   0.257
 5000W        W66531  38.329   5.924  11.431
 5001W        W66532  32.135  13.166   0.349
 5002W        W66533  24.625  32.486  10.492
 5003W        W66534   6.221  37.419   1.221
 5004W        W66535  16.797  11.345  14.862
 5005W        W66536  41.502  37.915  13.347
 5006W        W66537  42.471  15.275   3.862
 5007W        W66538  35.033  12.360  10.438
 5008W        W66539  10.815  44.960  11.050
 5009W        W66540   6.212  10.677   4.635
 5010W        W66541  17.619  18.745  13.820
 5011W        W66542   8.795  19.683  10.408
 5012W        W66543  42.958  43.402  14.447
 5013W        W66544  17.066  15.613   1.225
 5014W        W66545   5.798  20.611   4.284
 5015W        W66546  36.849  36.391  11.498
 5016W        W66547   7.866  20.205  11.128
 5017W        W66548   2.809  35.531  10.939
 5018W        W66549  12.219  13.302   0.341
 5019W        W66550  44.880  35.560  10.624
 5020W        W66551   4.260  41.299   3.190
 5021W        W66552  20.583  42.380   3.688
 5022W        W66553  33.458  12.338   1.233
 5023W        W66554  40.043  11.863  12.576
 5024W        W66555   5.312  39.461   2.812
 5025W        W66556  23.009  28.593   0.903
 5026W        W66557  42.523  34.497  12.015
 5027W        W66558  15.742  38.919   4.135
 5028W        W66559   5.323   3.874  11.864
 5029W        W66560  29.646  14.746  14.281
 5030W        W66561  42.936   2.415   1.748
 5031W        W66562  43.421  21.705  14.018
 5032W        W66563  21.662  36.055  14.767
 5033W        W66564  20.189  44.837  11.476
 5034W        W66565  28.930   6.396  13.927
 5035W        W66566   6.313  10.818   0.381
 5036W        W66567  37.951  28.660  11.009
 5037W        W66568  16.611   7.363   4.336
 5038W        W66569  23.078   7.329  13.337
 5039W        W66570  11.863  20.575  10.484
 5040W        W66571  14.101  44.459  14.811
 5041W        W66572   9.854  35.576  14.931
 5042W        W66573  36.498   6.419   4.615
 5043W        W66574  41.495  10.228  14.365
 5044W        W66575  37.431  25.528  10.565
 5045W        W66576  25.486  12.180   2.201
 5046W        W66577  17.668  20.234   4.293
 5047W        W66578  16.175  31.538  13.012
 5048W        W66579  14.735  29.551  12.903
 5049W        W66580  23.502  36.493   3.327
 5050W        W66581  26.108  32.977  14.965
 5051W        W66582   7.821   2.793   2.781
 5052W        W66583  25.988   8.681  13.420
 5053W        W66584  33.410  14.615  11.120
 5054W        W66585  15.131  15.101   1.335
 5055W        W66586  29.498  33.420  10.096
 5056W        W66587  11.710  40.343   4.646
 5057W        W66588   2.813  38.517  12.348
 5058W        W66589   2.836  31.534   2.869
 5059W        W66590   3.401   7.258   2.745
 5060W        W66591  11.769   6.270  11.100
 5061W        W66592  36.931  18.133  14.404
 5062W        W66593  31.417  14.706   4.814
 5063W        W66594  36.086  33.424  13.846
 5064W        W66595  36.965   0.981   3.847
 5065W        W66596  24.683   0.481   2.401
 5066W        W66597  28.629  44.270  11.526
 5067W        W66598  36.070  25.677   0.809
 5068W        W66599  22.028  41.303   0.962
 5069W        W66600  44.834   7.308   3.823
 5070W        W66601  34.412   9.262  11.405
 5071W        W66602  28.588  39.381  14.333
 5072W        W66603  32.415  41.985   4.654
 5073W        W66604  41.513  30.505  11.586
 5074W        W66605  12.626  26.554  11.036
 5075W        W66606  27.032  22.590  10.924
 5076W        W66607   6.297  38.426  12.512
 5077W        W66608  24.544  38.900  11.955
 5078W        W66609  18.661   6.350   2.418
 5079W        W66610   0.887  11.256  12.061
 5080W        W66611  43.319  21.616  11.950
 5081W        W66612  38.873  23.536  11.077
 5082W        W66613  34.407  38.570   3.355
 5083W        W66614   1.286  38.989   0.730
 5084W        W66615  33.973  29.493  10.969
 5085W        W66616   0.278   9.255   1.910
 5086W        W66617   7.865  29.170  12.463
 5087W        W66618  42.030  40.508  12.063
 5088W        W66619  10.230  26.193   3.295
 5089W        W66620  11.750  29.995  12.383
 5090W        W66621  35.422  15.715  13.912
 5091W        W66622  34.116  17.711  14.934
 5092W        W66623  10.788   8.845   5.297
 5093W        W66624  26.581  11.166  13.060
 5094W        W66625  21.520   9.221   2.322
 5095W        W66626  18.682   9.708   4.834
 5096W        W66627  26.032  28.460   3.159
 5097W        W66628  38.982  11.213  11.450
 5098W        W66629  41.532   4.805   2.312
 5099W        W66630   7.861  25.163  12.061
 5100W        W66631  41.908  11.820  11.464
 5101W        W66632  33.622   0.832   3.805
 5102W        W66633  24.012  30.511  13.510
 5103W        W66634  25.003  22.025  13.486
 5104W        W66635  37.870  21.695   4.354
 5105W        W66636   5.267  25.524  10.063
 5106W        W66637  13.337  36.353   4.310
 5107W        W66638  33.616  39.531  10.585
 5108W        W66639  39.912  12.356   2.260
 5109W        W66640  31.009  43.010  12.954
 5110W        W66641  28.654   5.697   1.746
 5111W        W66642  14.129  17.157   2.666
 5112W        W66643  39.428  10.751   1.871
 5113W        W66644  26.601  26.170  14.846
 5114W        W66645  42.838  27.187  14.787
 5115W        W66646   7.272   4.264  14.488
 5116W        W66647  21.518  27.122   0.758
 5117W        W66648  23.696  34.067  14.819
 5118W        W66649   1.971   8.654  12.552
 5119W        W66650  32.436  17.255   2.373
 5120W        W66651  18.658  29.160   3.760
 5121W        W66652  39.017   7.670   3.248
 5122W        W66653   7.417  22.737  13.347
 5123W        W66654  27.116  30.971   0.480
 5124W        W66655   2.244  41.841  11.474
 5125W        W66656  32.568   4.416  14.893
 5126W        W66657  27.503   2.940   0.853
 5127W        W66658  16.778  24.206  14.947
 5128W        W66659  40.921  43.400   4.599
 5129W        W66660  36.353  34.496  12.344
 5130W        W66661  38.429   8.677  12.940
 5131W        W66662  23.573  35.862  13.890
 5132W        W66663   3.377  22.094  13.826
 5133W        W66664   0.300  17.775  13.030
 5134W        W66665  25.550  13.265   1.411
 5135W        W66666   6.847  15.593  13.909
 5136W        W66667  34.949  13.796   2.857
 5137W        W66668  12.201  11.729   3.633
 5138W        W66669  27.677  37.063  11.593
 5139W        W66670   2.850  10.801   2.793
 5140W        W66671  43.432   0.371   1.899
 5141W        W66672   6.860  23.007   4.776
 5142W        W66673   7.689   5.421   0.265
 5143W        W66674  41.379  27.103   3.686
 5144W        W66675   7.832  35.539   2.850
 5145W        W66676  14.303  19.072  11.872
 5146W        W66677   5.874   0.442  13.856
 5147W        W66678  11.179  23.170   1.910
 5148W        W66679  20.746  38.030  11.591
 5149W        W66680  39.917   6.713   0.751
 5150W        W66681  15.678  44.001   3.206
 5151W        W66682   9.693  24.644   4.296
 5152W        W66683  28.659  16.701   0.770
 5153W        W66684  32.898  34.530  13.832
 5154W        W66685  24.670  32.030   0.752
 5155W        W66686   5.818  17.748  11.575
 5156W        W66687  32.622  11.175   1.779
 5157W        W66688  21.519  19.240   3.220
 5158W        W66689  42.312   6.291  13.442
 5159W        W66690  17.597  44.434   3.258
 5160W        W66691  16.158  11.839  10.113
 5161W        W66692  18.145  13.308  13.479
 5162W        W66693  38.372  16.774   1.257
 5163W        W66694  44.986   4.765  14.506
 5164W        W66695  12.765  12.133  11.881
 5165W        W66696   4.361  10.383  12.072
 5166W        W66697  30.419  34.113   4.611
 5167W        W66698  34.532  24.145  13.826
 5168W        W66699  30.994  31.409   0.750
 5169W        W66700  12.165  26.161   4.149
 5170W        W66701   8.272   0.339  14.447
 5171W        W66702  34.079   8.884   3.182
 5172W        W66703  28.458  35.523   3.306
 5173W        W66704  13.202  39.944  12.486
 5174W        W66705  38.052  38.828  11.391
 5175W        W66706  39.035  16.124   3.355
 5176W        W66707  28.478  23.724  13.404
 5177W        W66708  12.117  12.333  13.009
 5178W        W66709  17.200   4.418   0.874
 5179W        W66710  14.325  21.056  12.997
 5180W        W66711  26.560  37.424  10.924
 5181W        W66712  37.505   5.920  10.094
 5182W        W66713  29.173  11.805   2.858
 5183W        W66714   1.892  19.241  12.400
 5184W        W66715  43.804  29.612  11.430
 5185W        W66716  41.513  36.499   2.408
 5186W        W66717  35.500  35.066   1.308
 5187W        W66718  24.049  23.607   3.684
 5188W        W66719  29.096  20.031   4.704
 5189W        W66720  13.337  10.276  13.893
 5190W        W66721  33.901   9.824   0.395
 5191W        W66722  38.059  20.056  14.913
 5192W        W66723  25.657  35.366  11.413
 5193W        W66724  15.173  36.981   4.242
 5194W        W66725  44.409  25.573  11.514
 5195W        W66726  17.721  10.363  12.489
 5196W        W66727  36.987  13.340  11.502
 5197W        W66728  35.396  20.067   2.661
 5198W        W66729  44.909  38.491   1.812
 5199W        W66730  43.289  16.740  13.849
 5200W        W66731  44.873  44.856  11.583
 5201W        W66732  32.095  25.138   4.706
 5202W        W66733  24.539   9.810  11.938
 5203W        W66734   9.295  18.285  13.998
 5204W        W66735  38.946  28.055  14.917
 5205W        W66736  13.687  42.993  12.967
 5206W        W66737  28.517   9.393   1.860
 5207W        W66738  14.693  31.639   1.933
 5208W        W66739  23.671  33.936  11.472
 5209W        W66740  10.185  32.921  13.936
 5210W        W66741  13.190   7.864   2.391
 5211W        W66742  34.968  30.563   0.840
 5212W        W66743  29.023  42.818   5.126
 5213W        W66744  18.660  10.638   2.212
 5214W        W66745  23.148  35.379   0.427
 5215W        W66746  42.791  23.703  10.496
 5216W        W66747  22.128  15.670  14.288
 5217W        W66748   5.870  44.007   4.623
 5218W        W66749  22.583  36.068   4.668
 5219W        W66750  14.239   4.912   2.757
 5220W        W66751  21.651   6.195  13.388
 5221W        W66752   7.853   3.285   3.335
 5222W        W66753  29.985   6.737   4.812
 5223W        W66754  26.145  36.540  12.955
 5224W        W66755  44.965  13.817   0.458
 5225W        W66756  28.165  14.189  10.587
 5226W        W66757   6.714  28.444  12.372
 5227W        W66758  40.324  38.412  14.314
 5228W        W66759  39.830  13.132   5.217
 5229W        W66760  10.797  21.531   3.723
 5230W        W66761  10.369  30.968   0.347
 5231W        W66762  44.340  25.968  14.933
 5232W        W66763  31.976   5.389  10.531
 5233W        W66764  19.544  38.382  14.875
 5234W        W66765  14.771  34.920   4.761
 5235W        W66766  16.075  11.772   3.378
 5236W        W66767  24.700   0.338   4.346
 5237W        W66768  23.177  23.726  12.917
 5238W        W66769  25.511  11.703  10.437
 5239W        W66770  10.318  16.290  13.021
 5240W        W66771   6.916  35.562   4.712
 5241W        W66772  19.586   1.974  10.478
 5242W        W66773  18.279  11.326  12.900
 5243W        W66774  44.886  25.137   3.716
 5244W        W66775  26.090  19.137   2.393
 5245W        W66776   9.298  37.454  14.986
 5246W        W66777   4.899  35.975   1.379
 5247W        W66778  37.969   5.866  10.591
 5248W        W66779   4.728  44.775   0.355
 5249W        W66780  29.472  36.029  10.454
 5250W        W66781  33.887  44.900  13.031
 5251W        W66782  35.096  19.598   0.426
 5252W        W66783  36.587   6.318   1.809
 5253W        W66784  39.944  17.777   0.302
 5254W        W66785  36.413   8.669  11.092
 5255W        W66786  27.599  26.956   1.347
 5256W        W66787   8.803   7.882  14.473
 5257W        W66788   6.337  32.562   2.793
 5258W        W66789  18.685  32.069   5.275
 5259W        W66790  14.211   3.787  12.577
 5260W        W66791   7.213   2.862  13.545
 5261W        W66792   5.321  16.153  12.039
 5262W        W66793   4.401  40.447  12.391
 5263W        W66794   8.808  21.090  10.115
 5264W        W66795  31.110  26.125   3.344
 5265W        W66796  41.479  28.586  13.809
 5266W        W66797  34.872  16.572   1.296
 5267W        W66798   4.353  21.661  10.521
 5268W        W66799  16.682  23.595  14.920
 5269W        W66800  16.660   3.236   4.272
 5270W        W66801  43.978  10.181  10.513
 5271W        W66802  21.130  13.178   3.644
 5272W        W66803  15.286   9.176  12.341
 5273W        W66804  19.686  42.904   1.811
 5274W        W66805   4.922  18.184   4.799
 5275W        W66806  42.874  20.180   2.247
 5276W        W66807  42.372   5.384   2.349
 5277W        W66808  38.071   5.274  14.811
 5278W        W66809  37.391  44.006  11.400
 5279W        W66810  43.001  44.350  11.094
 5280W        W66811  30.451  36.962   2.271
 5281W        W66812   7.806  32.012   4.737
 5282W        W66813  21.142  25.178  10.009
 5283W        W66814   0.339  13.347   4.796
 5284W        W66815  31.115  10.335  11.463
 5285W        W66816   1.416  20.220  14.386
 5286W        W66817  19.189  23.514   2.245
 5287W        W66818  21.525   5.400  11.486
 5288W        W66819  37.485  43.780   3.755
 5289W        W66820   7.346   8.304  10.928
 5290W        W66821  15.770   8.301  14.939
 5291W        W66822  11.281  36.912  11.871
 5292W        W66823  30.625   6.397  12.351
 5293W        W66824  21.527  25.504   4.228
 5294W        W66825  18.668  16.200   4.277
 5295W        W66826   0.482  34.583  13.012
 5296W        W66827  15.262  37.368   3.817
 5297W        W66828  21.666  29.158  10.000
 5298W        W66829  35.981   4.325  13.400
 5299W        W66830   9.290  29.640  10.137
 5300W        W66831  17.786  15.612   1.269
 5301W        W66832  20.073  40.308  13.472
 5302W        W66833  41.038   3.752  13.390
 5303W        W66834  19.569   5.224   0.383
 5304W        W66835  41.938  30.536  12.015
 5305W        W66836  16.713  39.980   4.250
 5306W        W66837   1.790   0.773   1.300
 5307W        W66838  24.206  18.142   0.318
 5308W        W66839   8.262  37.544  11.066
 5309W        W66840  13.335  43.793  14.282
 5310W        W66841   2.756  13.229  14.377
 5311W        W66842  39.885  17.593  11.101
 5312W        W66843  27.004  23.574  13.962
 5313W        W66844  34.376  42.978   2.328
 5314W        W66845  21.571  15.704  12.911
 5315W        W66846  37.518  37.515   0.463
 5316W        W66847  42.336   4.923  14.362
 5317W        W66848  21.609  41.035   2.684
 5318W        W66849  12.280  24.537  11.976
 5319W        W66850   5.816  31.902   3.695
 5320W        W66851  18.068   6.338  11.564
 5321W        W66852   5.860  11.127   1.259
 5322W        W66853  16.625  35.956   3.845
 5323W        W66854   5.825   8.715  11.070
 5324W        W66855   7.880  33.605   0.390
 5325W        W66856  42.424  11.817   2.750
 5326W        W66857   0.444  10.649   0.473
 5327W        W66858   2.266  36.917  13.416
 5328W        W66859   3.791  35.939  13.539
 5329W        W66860   9.173  31.570  11.396
 5330W        W66861  28.153   0.355   0.433
 5331W        W66862   6.919  34.078   4.133
 5332W        W66863  25.671   2.269   2.816
 5333W        W66864   4.396  22.025   3.630
 5334W        W66865  14.234  29.978   0.841
 5335W        W66866  12.685  12.196  13.398
 5336W        W66867  15.146  31.459  13.386
 5337W        W66868  44.293  39.975   3.377
 5338W        W66869  21.149  39.955   1.786
 5339W        W66870  42.029   9.783   2.417
 5340W        W66871  17.589  43.999   3.241
 5341W        W66872  10.687  43.017   0.251
 5342W        W66873  21.741  18.602   1.708
 5343W        W66874   1.413  26.680  12.578
 5344W        W66875  26.458  24.196  11.427
 5345W        W66876   0.886  44.923   0.754
 5346W        W66877   6.207  41.401  11.958
 5347W        W66878  14.835  28.508  14.919
 5348W        W66879  18.728   8.711  11.008
 5349W        W66880  16.658  19.065   0.938
 5350W        W66881  13.266  39.919   3.164
 5351W        W66882  21.601   7.178  11.971
 5352W        W66883  29.592  33.578  10.561
 5353W        W66884   9.388  24.031   0.869
 5354W        W66885  41.341  11.726   0.425
 5355W        W66886  11.764  16.723  14.340
 5356W        W66887  28.545  40.020   2.699
 5357W        W66888  44.970  32.399   4.302
 5358W        W66889  32.472   6.351   1.808
 5359W        W66890  35.564  43.334  14.906
 5360W        W66891  14.226  26.003  12.078
 5361W        W66892  15.749   5.205  12.051
 5362W        W66893  26.657  21.577   0.803
 5363W        W66894  23.502  17.749   4.814
 5364W        W66895  41.535  13.195  12.546
 5365W        W66896  14.252  14.792  12.910
 5366W        W66897  32.034  27.652   4.814
 5367W        W66898   5.341  42.924   2.206
 5368W        W66899  43.934  19.097   4.139
 5369W        W66900  41.304  26.520   3.375
 5370W        W66901  28.595  33.904   3.868
 5371W        W66902  34.896   8.727   0.431
 5372W        W66903  35.954   2.376  10.597
 5373W        W66904  11.723  11.368   0.774
 5374W        W66905  26.985  29.468   3.814
 5375W        W66906  21.537  44.886   2.832
 5376W        W66907  28.108   8.833  12.004
 5377W        W66908  11.307   8.852   2.343
 5378W        W66909  15.638  25.094  11.545
 5379W        W66910   3.253  17.200  13.481
 5380W        W66911  20.598  17.212   0.382
 5381W        W66912  22.195  17.236  12.378
 5382W        W66913  32.002  39.553  14.331
 5383W        W66914  26.973   0.776  14.824
 5384W        W66915  24.545  39.485   2.718
 5385W        W66916  14.197  31.024  11.377
 5386W        W66917  27.145   1.406  12.048
 5387W        W66918   1.388  26.998   4.147
 5388W        W66919  16.246  17.249  11.860
 5389W        W66920  39.485  28.445   3.746
 5390W        W66921  24.514   6.853   0.814
 5391W        W66922  12.682  24.481  13.793
 5392W        W66923  43.384  19.206   0.457
 5393W        W66924   9.302   7.224   4.801
 5394W        W66925   7.878  26.083  10.635
 5395W        W66926   1.276  33.453   4.118
 5396W        W66927  31.079  34.387  10.606
 5397W        W66928   0.381  14.117  13.821
 5398W        W66929  12.224  40.953   4.774
 5399W        W66930  23.066  14.232   0.447
 5400W        W66931  31.973  20.600   1.891
 5401W        W66932  25.555  31.036   3.311
 5402W        W66933  35.038   9.855   3.642
 5403W        W66934  35.016  24.537   2.362
 5404W        W66935  13.147  17.567   4.253
 5405W        W66936  39.496  18.260   1.907
 5406W        W66937  16.256  12.288   2.417
 5407W        W66938  21.579  35.420  11.521
 5408W        W66939  19.553  38.386  12.888
 5409W        W66940  11.748  42.945  13.057
 5410W        W66941   4.239  19.129  12.439
 5411W        W66942  12.116   7.300  14.774
 5412W        W66943  44.804  22.101   1.242
 5413W        W66944  31.041   4.883   0.965
 5414W        W66945  31.063  23.653   5.085
 5415W        W66946  34.080  41.423  12.883
 5416W        W66947  25.124   0.947   2.236
 5417W        W66948  35.052  30.984  13.917
 5418W        W66949  34.574  24.653  11.531
 5419W        W66950   3.352  12.214  14.943
 5420W        W66951  27.687  25.593   2.393
 5421W        W66952  44.471  43.457   1.300
 5422W        W66953  42.795  11.805   0.867
 5423W        W66954  28.152  27.149  10.639
 5424W        W66955  37.360  24.577   3.789
 5425W        W66956  30.485  20.050  13.378
 5426W        W66957  23.219  28.955  10.977
 5427W        W66958  32.470  35.450  10.631
 5428W        W66959  13.619  36.959  14.327
 5429W        W66960  13.211  30.929  11.484
 5430W        W66961  29.948  27.965  14.511
 5431W        W66962   1.294   6.280   0.803
 5432W        W66963  32.980  13.778   1.716
 5433W        W66964  22.016   5.832  11.503
 5434W        W66965  29.440  44.950   3.316
 5435W        W66966  12.221  27.074  11.900
 5436W        W66967  36.927  25.035  14.860
 5437W        W66968  21.028  31.512   0.789
 5438W        W66969  37.061  33.575   2.357
 5439W        W66970  20.621  12.362  12.574
 5440W        W66971  40.307  12.354  14.305
 5441W        W66972  44.828  11.270  13.797
 5442W        W66973  24.572  27.141  10.922
 5443W        W66974  26.096   3.773   0.303
 5444W        W66975  13.791   6.719   4.836
 5445W        W66976  23.562  19.617  14.993
 5446W        W66977   2.759  38.418  13.488
 5447W        W66978  12.127   7.700   2.223
 5448W        W66979  26.485  17.592   3.176
 5449W        W66980  41.815   2.291  14.007
 5450W        W66981  28.627  43.786  13.907
 5451W        W66982   8.738  23.540   4.803
 5452W        W66983   2.884   7.888   1.274
 5453W        W66984  32.939   6.258  12.548
 5454W        W66985  24.119  40.496   4.170
 5455W        W66986  13.723  33.408   1.807
 5456W        W66987  29.581  18.721   2.691
 5457W        W66988  36.009  37.011   3.824
 5458W        W66989   7.874  32.063  10.592
 5459W        W66990  34.972  30.542  11.009
 5460W        W66991  37.842  16.712  10.627
 5461W        W66992  23.198  19.184  10.481
 5462W        W66993  17.083  31.467  14.963
 5463W        W66994  34.975  38.066  10.920
 5464W        W66995  38.513  40.436  10.973
 5465W        W66996  12.834  22.504   4.642
 5466W        W66997  41.894  30.487  10.499
 5467W        W66998  37.043   6.853   2.704
 5468W        W66999  24.033  15.203  11.531
 5469W        W67000  36.048   2.808  12.502
 5470W        W67001  13.649  17.255   2.214
 5471W        W67002  30.573  29.519   4.741
 5472W        W67003  24.084  30.032  12.046
 5473W        W67004  13.715  18.097  10.942
 5474W        W67005  25.547  42.394   2.262
 5475W        W67006  19.609  16.214   2.748
 5476W        W67007   8.843  42.981   9.930
 5477W        W67008  18.674  16.681   0.960
 5478W        W67009  19.777  32.021   1.228
 5479W        W67010  12.318  16.690  11.103
 5480W        W67011  14.140  27.464  14.983
 5481W        W67012  23.154  37.355   1.389
 5482W        W67013  10.713   8.283   3.184
 5483W        W67014  27.653  42.419   3.356
 5484W        W67015  33.622  34.072  11.534
 5485W        W67016  13.343  38.856   1.297
 5486W        W67017   0.421   4.945  10.574
 5487W        W67018  38.999  24.591  11.911
 5488W        W67019  17.590   5.402   3.210
 5489W        W67020  36.381  16.103  10.950
 5490W        W67021   1.884  17.783   0.856
 5491W        W67022  16.696   4.447  10.902
 5492W        W67023  42.489  32.019  14.902
 5493W        W67024   1.792  36.562   4.664
 5494W        W67025   6.398  24.612  14.924
 5495W        W67026  41.834   7.737  11.068
 5496W        W67027  36.388  36.469  14.467
 5497W        W67028  37.998   8.871  10.574
 5498W        W67029  40.471  42.786   1.835
 5499W        W67030   9.699   7.869   4.742
 5500W        W67031  38.907  34.109  11.977
 5501W        W67032  36.028   3.765  14.355
 5502W        W67033  23.164   8.301   0.846
 5503W        W67034   6.296  16.107   3.318
 5504W        W67035  20.141  42.386   0.826
 5505W        W67036  38.041  13.284   1.372
 5506W        W67037   7.380  21.174  13.927
 5507W        W67038  39.539   8.798   3.289
 5508W        W67039  40.424  14.615   4.212
 5509W        W67040  25.003  36.083  12.869
 5510W        W67041  34.961  20.666   4.708
 5511W        W67042   9.736   3.320  11.527
 5512W        W67043  44.400  26.456  12.934
 5513W        W67044  14.816  39.910  13.037
 5514W        W67045   6.356  16.748  10.459
 5515W        W67046  10.764  34.045  12.048
 5516W        W67047  20.222   6.253  13.862
 5517W        W67048  14.811  18.253   0.338
 5518W        W67049  41.878  13.265   1.803
 5519W        W67050   2.776   1.833  13.548
 5520W        W67051  33.997   2.757  11.971
 5521W        W67052  26.974  33.597   3.290
 5522W        W67053  22.628  24.560  14.882
 5523W        W67054  24.669  16.647  13.416
 5524W        W67055  32.520  17.100   4.291
 5525W        W67056  25.000  31.486  14.923
 5526W        W67057   6.739  10.749   0.866
 5527W        W67058  21.557  16.689  12.354
 5528W        W67059   0.398  34.932  12.081
 5529W        W67060  12.623  20.104  14.490
 5530W        W67061  33.980   1.241   4.254
 5531W        W67062  11.170  25.000   2.807
 5532W        W67063  40.035   1.458   3.742
 5533W        W67064  13.755   4.721   4.163
 5534W        W67065   5.852   3.735  10.552
 5535W        W67066  30.472  14.769   0.476
 5536W        W67067  41.537  11.296   4.703
 5537W        W67068   0.791  34.375  13.547
 5538W        W67069  30.158   6.279   0.323
 5539W        W67070  18.676   7.286   2.870
 5540W        W67071  33.552   5.421  11.072
 5541W        W67072  43.803  31.443  11.043
 5542W        W67073  12.636  42.879  13.460
 5543W        W67074  38.020   2.789   1.423
 5544W        W67075  42.923  23.583   0.787
 5545W        W67076   5.815  24.578   4.124
 5546W        W67077  15.160  42.826  10.607
 5547W        W67078   7.901  18.245   1.854
 5548W        W67079  28.129  41.911  13.953
 5549W        W67080   0.926  29.043  12.827
 5550W        W67081  32.902   0.834  11.926
 5551W        W67082  16.113  35.451   2.840
 5552W        W67083  42.361  11.141  13.998
 5553W        W67084  41.396  32.415  10.499
 5554W        W67085  13.750  39.007  11.874
 5555W        W67086  31.943  13.722  14.500
 5556W        W67087  28.081  23.172  12.461
 5557W        W67088  42.833  27.058   0.901
 5558W        W67089  19.675  38.334  14.319
 5559W        W67090  39.002  27.142   1.844
 5560W        W67091  12.281  36.866   2.881
 5561W        W67092  19.240  29.020  14.843
 5562W        W67093  43.908  17.270   0.290
 5563W        W67094   2.395  40.895   1.881
 5564W        W67095  15.090  43.831  10.504
 5565W        W67096  36.505  18.283  13.881
 5566W        W67097  29.933  15.649  11.557
 5567W        W67098  44.291  20.070  14.326
 5568W        W67099  31.931  21.252  10.530
 5569W        W67100  11.666  37.557   4.644
 5570W        W67101   9.364  22.639  12.910
 5571W        W67102  26.670  21.246  13.423
 5572W        W67103  22.640  40.540  13.518
 5573W        W67104  16.309   2.329  13.412
 5574W        W67105  38.465  40.000   9.616
 5575W        W67106  21.099  22.169   5.298
 5576W        W67107   6.709  38.363  13.455
 5577W        W67108  32.503   2.330   2.724
 5578W        W67109  31.629  41.422   3.868
 5579W        W67110  23.702  27.672   2.192
 5580W        W67111  28.023  39.058  13.813
 5581W        W67112   3.431  14.268   4.659
 5582W        W67113   6.274  32.454  14.803
 5583W        W67114  14.682   9.299  12.548
 5584W        W67115  28.075  22.581  13.967
 5585W        W67116  16.241  28.661  10.944
 5586W        W67117   8.181  44.818  12.896
 5587W        W67118  29.115  31.037   0.399
 5588W        W67119  41.515  44.986   4.207
 5589W        W67120  19.128   1.256   4.326
 5590W        W67121  42.873   0.923   4.756
 5591W        W67122   7.865  43.821  14.931
 5592W        W67123  23.633  41.908  12.976
 5593W        W67124  15.815  42.333  11.078
 5594W        W67125  12.265  29.055   5.655
 5595W        W67126  39.432  18.579  14.946
 5596W        W67127  17.712  44.360   4.782
 5597W        W67128   6.807  10.202  13.937
 5598W        W67129  20.232  40.844   3.353
 5599W        W67130  14.270  26.554   3.741
 5600W        W67131  18.191  38.058  11.570
 5601W        W67132  38.850  41.392   5.108
 5602W        W67133  18.723  39.993   3.151
 5603W        W67134  44.336  27.008   4.317
 5604W        W67135  40.004  26.521   0.865
 5605W        W67136  15.793  30.494  12.921
 5606W        W67137  35.998  41.827   4.749
 5607W        W67138  17.722   5.712  11.380
 5608W        W67139  21.528  16.214  11.063
 5609W        W67140  32.400  33.505  13.843
 5610W        W67141  16.254  10.197   4.837
 5611W        W67142  26.979  11.713  12.542
 5612W        W67143  23.606   5.750  10.968
 5613W        W67144  14.217  14.685  11.118
 5614W        W67145  37.046  38.908  10.144
 5615W        W67146   6.335  17.242   4.335
 5616W        W67147  26.168   2.338   3.742
 5617W        W67148  19.143  13.223  12.479
 5618W        W67149  11.718  31.636   0.388
 5619W        W67150   5.771   0.783   1.242
 5620W        W67151  23.045  26.621   1.894
 5621W        W67152   1.879   5.334   1.406
 5622W        W67153  32.922   4.283  13.897
 5623W        W67154   7.740  18.085   2.335
 5624W        W67155  41.976  28.646  11.949
 5625W        W67156  29.513  23.571   0.744
 5626W        W67157  24.028   7.183   0.312
 5627W        W67158  17.119  12.258   4.753
 5628W        W67159   7.330  27.526   1.292
 5629W        W67160   0.316  26.574   3.255
 5630W        W67161  40.516   5.367  13.544
 5631W        W67162  13.834  38.548  13.840
 5632W        W67163  23.604   7.200  12.364
 5633W        W67164   8.861  35.467  11.080
 5634W        W67165  30.024  15.625  14.432
 5635W        W67166  43.382  28.963   1.429
 5636W        W67167  27.032  30.030  11.881
 5637W        W67168  25.181   4.847  14.796
 5638W        W67169  38.465  37.405   3.191
 5639W        W67170  42.924  27.656  12.569
 5640W        W67171   3.374  26.074   0.248
 5641W        W67172  17.300  24.585  11.592
 5642W        W67173  35.510  18.268   1.701
 5643W        W67174   0.301  29.070   1.906
 5644W        W67175  20.186  35.032   5.225
 5645W        W67176  38.439  43.293   4.686
 5646W        W67177  24.535  21.578  12.928
 5647W        W67178  11.346   7.398   1.895
 5648W        W67179   9.227  18.127   1.293
 5649W        W67180  22.623  23.573   1.227
 5650W        W67181  20.196  43.768   3.151
 5651W        W67182  39.517  19.105   2.709
 5652W        W67183  24.660  28.102  14.329
 5653W        W67184  37.892  21.187  10.052
 5654W        W67185  33.122   9.661   0.822
 5655W        W67186  16.657   2.317   4.328
 5656W        W67187  13.223  38.533   0.928
 5657W        W67188   3.328  30.967   5.286
 5658W        W67189  13.335  34.567   1.407
 5659W        W67190  34.543  21.620  14.442
 5660W        W67191  37.474   5.799   0.867
 5661W        W67192   1.350  26.160   2.290
 5662W        W67193  43.786  31.582  13.840
 5663W        W67194   8.387  14.757   2.259
 5664W        W67195  43.426  32.536   3.841
 5665W        W67196  18.074  20.568   0.731
 5666W        W67197  30.642  32.563  11.004
 5667W        W67198   0.803  25.533  14.012
 5668W        W67199  24.064   6.336   5.282
 5669W        W67200  43.781  18.624  11.981
 5670W        W67201  38.361  12.281   1.772
 5671W        W67202   5.238   1.875  12.401
 5672W        W67203  39.850  20.066   0.343
 5673W        W67204   2.349  34.603  12.096
 5674W        W67205  29.952  37.385  10.640
 5675W        W67206  37.982   7.896   1.221
 5676W        W67207  40.015  20.597  13.975
 5677W        W67208   6.422  30.093  11.080
 5678W        W67209  18.237  25.620  13.312
 5679W        W67210  22.525   9.692  13.504
 5680W        W67211   6.383  30.958  11.539
 5681W        W67212  22.524  24.146   0.947
 5682W        W67213   5.820  16.632   0.402
 5683W        W67214  22.640  42.951  11.934
 5684W        W67215  40.537  23.654  14.935
 5685W        W67216  37.577   1.433  12.000
 5686W        W67217  10.673  40.923   4.294
 5687W        W67218  24.484  21.238   9.974
 5688W        W67219  17.279  19.628   0.289
 5689W        W67220  43.304  27.998   4.140
 5690W        W67221  14.669  42.844   4.733
 5691W        W67222  17.222  11.866   0.952
 5692W        W67223  32.630   0.862  14.445
 5693W        W67224  22.521  16.610   1.386
 5694W        W67225  35.448  20.168   1.712
 5695W        W67226  14.232  33.013  11.888
 5696W        W67227  40.545  41.477  11.383
 5697W        W67228  21.116  15.119   1.787
 5698W        W67229  37.938  42.435   2.705
 5699W        W67230  35.469  15.133   4.131
 5700W        W67231   6.885   2.798   3.858
 5701W        W67232   9.659   7.851   0.917
 5702W        W67233  39.869   3.774   2.880
 5703W        W67234  37.843   9.658  11.492
 5704W        W67235  17.066  28.512   3.220
 5705W        W67236  28.638   1.814   2.765
 5706W        W67237  42.805  12.225  12.358
 5707W        W67238  36.994  44.847   2.844
 5708W        W67239  12.612  16.784  10.542
 5709W        W67240  20.044  12.627   0.244
 5710W        W67241  23.174  13.733   0.384
 5711W        W67242  27.015  30.572  11.533
 5712W        W67243  18.243  39.441   1.385
 5713W        W67244  43.963  43.328  13.880
 5714W        W67245   0.409  23.010   4.680
 5715W        W67246  44.493  14.611  14.832
 5716W        W67247  30.618  15.627   5.311
 5717W        W67248   0.791  44.979  12.869
 5718W        W67249  20.035   2.743   0.260
 5719W        W67250   6.707  40.540   1.223
 5720W        W67251  29.082  43.847   1.934
 5721W        W67252  16.147  27.638   0.273
 5722W        W67253  44.914  31.526  11.084
 5723W        W67254  42.976   7.401   3.315
 5724W        W67255   7.289  30.988   4.223
 5725W        W67256  44.291   1.262  13.404
 5726W        W67257  22.572   2.298   4.736
 5727W        W67258  21.621   8.782  10.421
 5728W        W67259  19.261  22.196  11.524
 5729W        W67260   1.446  16.121   4.313
 5730W        W67261   5.744  14.119  13.946
 5731W        W67262  39.956  44.960  14.342
 5732W        W67263  38.039  22.587  14.967
 5733W        W67264  20.172  39.901   5.320
 5734W        W67265  32.072   1.447  10.943
 5735W        W67266  27.131  11.818  12.967
 5736W        W67267  30.459  30.550   3.843
 5737W        W67268  33.550  23.062  13.001
 5738W        W67269  11.184   2.365   3.699
 5739W        W67270  37.959  13.255  10.598
 5740W        W67271   6.290  30.118   2.694
 5741W        W67272  20.192  24.648   1.745
 5742W        W67273  28.081  17.252  14.872
 5743W        W67274  27.574  16.666  10.564
 5744W        W67275  21.561  25.058   0.828
 5745W        W67276  27.569  37.572   3.192
 5746W        W67277  22.543  24.014  12.985
 5747W        W67278  16.627  39.880   1.393
 5748W        W67279   5.762  25.043  12.460
 5749W        W67280  11.634  18.602  14.475
 5750W        W67281  21.616  29.162   0.877
 5751W        W67282  17.738  15.658   3.326
 5752W        W67283  18.254   3.719  14.307
 5753W        W67284   9.267   0.385   1.416
 5754W        W67285   8.221  19.242   4.668
 5755W        W67286   6.709  29.995   2.302
 5756W        W67287  42.341  36.076   0.935
 5757W        W67288  42.986  39.841   0.840
 5758W        W67289  32.955  14.151  13.046
 5759W        W67290  17.790  42.435  11.022
 5760W        W67291  26.597  13.158   3.335
 5761W        W67292  22.643  37.536   1.709
 5762W        W67293  38.349  34.594   0.810
 5763W        W67294  37.376  16.796  10.544
 5764W        W67295  40.814  12.631   2.776
 5765W        W67296  41.793  22.150   4.293
 5766W        W67297  21.106  16.188   3.826
 5767W        W67298   2.337  24.043  13.043
 5768W        W67299  38.502  27.010  14.839
 5769W        W67300  32.963  28.648   0.964
 5770W        W67301  42.978  27.472  11.899
 5771W        W67302  18.736  35.937   5.136
 5772W        W67303  32.107  18.567   3.782
 5773W        W67304  10.318  24.229   4.703
 5774W        W67305  17.795  29.502  12.382
 5775W        W67306  27.990  13.787   3.316
 5776W        W67307  30.928  12.625  13.463
 5777W        W67308  22.522   0.488  14.972
 5778W        W67309  16.744   4.703  13.500
 5779W        W67310  37.937  23.113  12.956
 5780W        W67311  13.652  33.064   5.614
 5781W        W67312  22.557  11.750   4.241
 5782W        W67313  22.159  21.249   3.863
 5783W        W67314  35.575  15.664   1.925
 5784W        W67315  27.144   4.892   0.877
 5785W        W67316   7.322  18.122  11.089
 5786W        W67317  17.633  40.410  14.899
 5787W        W67318   7.213  17.293  12.044
 5788W        W67319  42.486  17.180   2.196
 5789W        W67320  10.165  17.224  13.876
 5790W        W67321  38.385  10.315  14.275
 5791W        W67322  12.717  21.156   0.436
 5792W        W67323  42.505  30.135  11.060
 5793W        W67324  13.129   2.738   9.496
 5794W        W67325  13.310  27.100   3.309
 5795W        W67326  24.038   7.370  12.997
 5796W        W67327  35.465   1.768  12.400
 5797W        W67328  44.837  33.583   0.954
 5798W        W67329   1.893   1.400   2.845
 5799W        W67330   0.335   3.766  14.947
 5800W        W67331   5.352   2.895   1.439
 5801W        W67332  14.308   7.850  14.878
 5802W        W67333   6.238  20.692  12.464
 5803W        W67334  33.391  22.158  14.859
 5804W        W67335  29.166  37.552  10.446
 5805W        W67336   1.329   4.417  11.473
 5806W        W67337  23.523  37.028  14.440
 5807W        W67338  40.051  24.565   4.632
 5808W        W67339  14.605   0.778   4.319
 5809W        W67340  41.994  25.153   4.211
 5810W        W67341  26.576  30.140   9.512
 5811W        W67342  26.576  32.976   1.757
 5812W        W67343   4.907   9.380   0.358
 5813W        W67344  25.559  32.430   2.304
 5814W        W67345  19.547  20.211  12.573
 5815W        W67346  17.748  11.161  11.410
 5816W        W67347   3.881  15.689  12.046
 5817W        W67348  42.836  14.773  11.077
 5818W        W67349  10.713   5.871   2.693
 5819W        W67350  23.988  15.108  12.947
 5820W        W67351  35.442  21.245   0.849
 5821W        W67352  22.247  28.948  11.921
 5822W        W67353   4.787   3.879   2.769
 5823W        W67354  13.808  37.960   2.669
 5824W        W67355   9.391  19.775   2.201
 5825W        W67356  12.290  15.636  13.061
 5826W        W67357  35.424  33.576  14.406
 5827W        W67358  37.388  42.950  10.929
 5828W        W67359  23.162  25.561  13.378
 5829W        W67360  19.575   0.261   4.124
 5830W        W67361   8.691  39.983  12.482
 5831W        W67362  10.777  27.980   4.636
 5832W        W67363  12.331  24.076  10.945
 5833W        W67364  12.130  26.197  14.859
 5834W        W67365  27.089  40.351   3.243
 5835W        W67366  15.793  23.591   4.327
 5836W        W67367  40.875  42.803   0.858
 5837W        W67368  28.954  38.025  10.415
 5838W        W67369  28.673  19.739   2.330
 5839W        W67370  25.505  37.538   4.646
 5840W        W67371  37.438  38.353   0.452
 5841W        W67372  11.731  13.810   4.127
 5842W        W67373  39.325  26.570  13.518
 5843W        W67374  17.109  40.825   2.747
 5844W        W67375  35.559   4.866   4.693
 5845W        W67376  22.048  43.484   4.723
 5846W        W67377  15.633  14.773   1.379
 5847W        W67378  42.901  37.346   1.317
 5848W        W67379  14.714   0.364   0.808
 5849W        W67380  42.464  39.534  14.987
 5850W        W67381  13.151   3.934  12.825
 5851W        W67382  33.460  28.159  14.472
 5852W        W67383  28.167  42.482   0.369
 5853W        W67384  27.188  40.401   4.328
 5854W        W67385  22.111  39.974   5.100
 5855W        W67386   1.444  37.366   4.731
 5856W        W67387   8.795  32.056   0.375
 5857W        W67388  33.507  44.937  10.444
 5858W        W67389  36.488  19.229   2.749
 5859W        W67390  20.670  19.160   1.239
 5860W        W67391  26.027  18.079  12.866
 5861W        W67392   7.712  16.246   1.789
 5862W        W67393  27.449  30.527   3.258
 5863W        W67394   8.359  14.763  10.942
 5864W        W67395  26.703  14.154   4.193
 5865W        W67396  39.912  41.014   3.707
 5866W        W67397  39.907  43.793   1.848
 5867W        W67398  24.223  32.562  10.439
 5868W        W67399  30.144  39.828   1.789
 5869W        W67400  37.952  13.800  12.855
 5870W        W67401  38.403  34.029  12.400
 5871W        W67402  44.804   7.727   3.862
 5872W        W67403  18.163   2.780  12.001
 5873W        W67404  37.354  15.325   0.882
 5874W        W67405  25.140  17.711   0.922
 5875W        W67406  40.337  19.588   0.954
 5876W        W67407  30.049  39.847  10.897
 5877W        W67408  37.905  37.581   2.366
 5878W        W67409  32.549  36.026   2.803
 5879W        W67410  39.952  21.097  10.570
 5880W        W67411  30.040   4.380   3.632
 5881W        W67412  33.087  14.826  13.314
 5882W        W67413  11.207   8.704   4.645
 5883W        W67414  24.711  20.264  14.772
 5884W        W67415   7.705   0.404   1.758
 5885W        W67416  13.327  43.862   3.148
 5886W        W67417  21.209  25.610   0.727
 5887W        W67418  17.616  12.201   2.801
 5888W        W67419  44.345   7.909  14.310
 5889W        W67420  22.197  18.068  14.347
 5890W        W67421   3.954   8.832   3.370
 5891W        W67422  21.233  16.620  14.365
 5892W        W67423  33.617  16.713  12.397
 5893W        W67424  36.014   6.844   4.820
 5894W        W67425  41.416  22.118   2.791
 5895W        W67426  38.034  12.733  14.378
 5896W        W67427  13.224  29.597   4.655
 5897W        W67428  10.317  10.315  14.910
 5898W        W67429   1.931  20.183   4.776
 5899W        W67430  13.656  14.633  12.042
 5900W        W67431   0.963   4.267   0.898
 5901W        W67432  33.584  38.439  11.594
 5902W        W67433   2.302  11.640  11.563
 5903W        W67434  28.485  32.919   2.376
 5904W        W67435  34.994  25.202  12.974
 5905W        W67436  41.856   6.772   2.701
 5906W        W67437   7.731  34.528   1.933
 5907W        W67438  15.599  32.459   2.704
 5908W        W67439   7.717  20.105   2.826
 5909W        W67440  17.755   5.737   4.690
 5910W        W67441  29.149  40.548   1.748
 5911W        W67442  43.917   4.221   3.268
 5912W        W67443   6.834   7.323   1.356
 5913W        W67444  23.070  43.970  12.995
 5914W        W67445  36.012  31.974   0.741
 5915W        W67446  35.923   6.722  13.399
 5916W        W67447   4.791  42.374  12.508
 5917W        W67448  31.586  17.647   2.295
 5918W        W67449   2.451  21.661  10.942
 5919W        W67450  29.066   2.466   0.471
 5920W        W67451  26.650  42.915   2.768
 5921W        W67452  20.633  32.571  14.318
 5922W        W67453  26.089  13.700   4.657
 5923W        W67454   4.839   5.371   0.378
 5924W        W67455  22.238  21.139   1.351
 5925W        W67456   1.902   3.423   3.289
 5926W        W67457  34.886  30.152  12.966
 5927W        W67458   0.376   3.337  14.924
 5928W        W67459   4.743  11.229  14.281
 5929W        W67460  10.751  30.533   4.354
 5930W        W67461   4.802  34.576  11.966
 5931W        W67462  21.169  31.534  11.920
 5932W        W67463  27.175  39.457   1.857
 5933W        W67464  19.218  24.208  13.006
 5934W        W67465  21.527   7.767   2.200
 5935W        W67466  26.044  33.003   2.234
 5936W        W67467  25.509  38.969   1.843
 5937W        W67468   1.884  24.224   3.669
 5938W        W67469  16.767  20.531   4.234
 5939W        W67470  41.935  29.602  11.099
 5940W        W67471  21.059  10.213   3.241
 5941W        W67472  42.883   4.255  14.439
 5942W        W67473  20.248  22.168  11.555
 5943W        W67474   6.796   6.423   2.401
 5944W        W67475   6.726  19.202  13.795
 5945W        W67476  36.999  30.437   1.347
 5946W        W67477   4.898  19.686   2.260
 5947W        W67478   4.401  30.143  11.893
 5948W        W67479  10.755   6.195   3.339
 5949W        W67480  24.625   9.855   3.845
 5950W        W67481  30.465  37.404  12.094
 5951W        W67482  11.271  43.890   0.883
 5952W        W67483  21.133  37.870   4.280
 5953W        W67484  15.614  15.283  13.876
 5954W        W67485  38.892  11.370  13.866
 5955W        W67486  25.698  19.677  10.887
 5956W        W67487  14.804   8.875  12.859
 5957W        W67488   4.715  37.438  13.893
 5958W        W67489  15.617  44.836  10.961
 5959W        W67490  33.394  18.150   4.805
 5960W        W67491  20.626   9.222  12.472
 5961W        W67492  41.447  21.254  12.079
 5962W        W67493   0.762  32.426   0.865
 5963W        W67494  17.758   7.251   1.715
 5964W        W67495  17.077  15.225   2.194
 5965W        W67496  36.064  39.916   3.734
 5966W        W67497  25.655  29.619   0.917
 5967W        W67498   7.390  12.291  12.414
 5968W        W67499  37.451  30.020   1.322
 5969W        W67500  33.530  26.064  12.095
 5970W        W67501  31.455  22.078   2.684
 5971W        W67502  21.727   3.275   2.693
 5972W        W67503   3.754   5.755  14.895
 5973W        W67504  11.848  23.995   2.700
 5974W        W67505  39.395  34.518  10.986
 5975W        W67506  44.923  28.054  13.392
 5976W        W67507  13.328  22.160  11.027
 5977W        W67508   8.710  18.259  13.451
 5978W        W67509   1.311  20.706  14.415
 5979W        W67510  38.379  20.618  12.003
 5980W        W67511   5.301  16.812  13.385
 5981W        W67512   2.313  20.118   3.256
 5982W        W67513  28.539  17.163  10.419
 5983W        W67514  42.818  20.247  12.992
 5984W        W67515   0.389  36.351  14.372
 5985W        W67516  24.652  21.142   4.249
 5986W        W67517   6.372   3.460  10.159
 5987W        W67518  23.115  29.585   3.724
 5988W        W67519   7.372  19.723   3.301
 5989W        W67520  15.789  18.184   0.823
 5990W        W67521  10.766  21.042   2.275
 5991W        W67522  35.098   0.375   4.647
 5992W        W67523   8.315  33.032  10.623
 5993W        W67524  10.168  38.500   5.220
 5994W        W67525  25.197  42.466   0.846
 5995W        W67526  23.133  26.005  11.372
 5996W        W67527  18.715  14.133   0.757
 5997W        W67528  28.645  14.643   1.806
 5998W        W67529  40.926  13.155   1.726
 5999W        W67530  10.286  16.081  13.330
 6000W        W67531   7.696  16.307  12.923
 6001W        W67532  32.955  18.214  12.044
 6002W        W67533  35.085  10.852   3.271
 6003W        W67534  19.043  20.574  14.842
 6004W        W67535  17.611  22.006   1.273
 6005W        W67536  44.833  18.261   4.256
 6006W        W67537  22.081  34.536   0.903
 6007W        W67538   0.280  10.380  10.059
 6008W        W67539  37.873  21.750  12.390
 6009W        W67540   1.393  29.944  10.979
 6010W        W67541   7.211  37.518   3.187
 6011W        W67542   7.245   4.412   0.479
 6012W        W67543  35.932  18.669   0.459
 6013W        W67544  23.701  27.023  14.795
 6014W        W67545  41.444   7.238   3.181
 6015W        W67546  18.109  34.442   2.864
 6016W        W67547  41.996  17.194   4.118
 6017W        W67548  14.762  38.836   0.319
 6018W        W67549  10.723  31.568   2.406
 6019W        W67550  34.403  20.650  14.860
 6020W        W67551  13.839  14.614  10.997
 6021W        W67552  10.278  12.299   1.919
 6022W        W67553  14.124  30.974   2.190
 6023W        W67554   8.376  40.441   0.273
 6024W        W67555  34.002   9.783  12.835
 6025W        W67556   8.288   9.815   4.352
 6026W        W67557  32.505  40.959   0.300
 6027W        W67558  28.667  35.387   1.720
 6028W        W67559  12.656  24.114  12.353
 6029W        W67560  43.413   1.371   0.764
 6030W        W67561   7.335   0.984  14.380
 6031W        W67562  24.487   0.836   2.900
 6032W        W67563  21.081  44.285   0.730
 6033W        W67564  21.042   2.845   5.154
 6034W        W67565  15.159  17.205  13.977
 6035W        W67566  37.967  17.271   1.893
 6036W        W67567   8.272  41.920  14.779
 6037W        W67568  37.404  38.857  10.898
 6038W        W67569  24.521  29.465   9.983
 6039W        W67570   3.420  12.360  10.536
 6040W        W67571  40.454  17.593   2.830
 6041W        W67572  20.072  23.576   0.796
 6042W        W67573  35.998  37.523  14.819
 6043W        W67574  25.989  34.504  10.571
 6044W        W67575  16.779   8.231   0.359
 6045W        W67576  35.905  21.633  14.315
 6046W        W67577  40.881   9.808  14.948
 6047W        W67578  23.183   1.974   1.912
 6048W        W67579  34.418  20.605  13.401
 6049W        W67580  38.039  10.205  13.846
 6050W        W67581  23.629  23.507   2.260
 6051W        W67582  21.623  41.451   5.258
 6052W        W67583   6.703  30.590  12.553
 6053W        W67584  43.774  20.639   3.384
 6054W        W67585  32.059  36.365  12.980
 6055W        W67586   1.446  22.213   4.273
 6056W        W67587   7.360  14.811   2.381
 6057W        W67588  19.056  26.628   1.849
 6058W        W67589  16.087   3.310  13.503
 6059W        W67590   2.808  42.849   4.354
 6060W        W67591   8.200  11.160   4.769
 6061W        W67592  36.445  29.614  11.423
 6062W        W67593  20.200  21.171   2.777
 6063W        W67594   7.723   8.191  10.641
 6064W        W67595  38.473  42.955  13.486
 6065W        W67596  41.423  10.295  13.414
 6066W        W67597  21.699   4.751  12.048
 6067W        W67598   8.247  36.912  12.396
 6068W        W67599  32.118   3.882   5.288
 6069W        W67600  23.517  22.528   1.711
 6070W        W67601  27.058   8.367   4.222
 6071W        W67602  14.784  16.738   0.941
 6072W        W67603  41.907  21.209   0.931
 6073W        W67604   2.811  37.051  13.342
 6074W        W67605  35.033  34.874  13.441
 6075W        W67606  21.581  17.784   1.694
 6076W        W67607  42.490  27.187   4.135
 6077W        W67608  10.787  38.901  10.091
 6078W        W67609  40.841  11.648   3.174
 6079W        W67610  39.809  33.078   1.796
 6080W        W67611  27.001  17.163  13.930
 6081W        W67612   1.284  21.110   3.647
 6082W        W67613   1.807  28.015  10.481
 6083W        W67614  37.971  28.667   3.805
 6084W        W67615   8.734  11.297   4.620
 6085W        W67616  36.908   2.419  10.420
 6086W        W67617  36.951   1.956   4.213
 6087W        W67618  27.645  10.778   4.183
 6088W        W67619  15.620  24.086   0.870
 6089W        W67620  12.762  38.827  14.362
 6090W        W67621  26.674  24.023   0.776
 6091W        W67622  33.615  27.187   1.310
 6092W        W67623  19.105   4.782   4.177
 6093W        W67624  20.038  42.837  13.309
 6094W        W67625  41.803  22.062  13.819
 6095W        W67626  34.915  27.683   2.752
 6096W        W67627  25.518  19.282   3.758
 6097W        W67628  15.687  10.183  14.409
 6098W        W67629  42.283   2.897  14.937
 6099W        W67630   5.710  40.455  14.411
 6100W        W67631  21.619  38.012   4.296
 6101W        W67632  18.716  34.930   4.323
 6102W        W67633  41.000  32.471   0.444
 6103W        W67634   8.305  27.625  11.549
 6104W        W67635   8.361   6.773  13.898
 6105W        W67636  24.663  29.656   1.930
 6106W        W67637   8.822  38.069  13.478
 6107W        W67638  31.980  19.208  13.423
 6108W        W67639  44.773  42.422   3.754
 6109W        W67640  11.647  36.944   2.666
 6110W        W67641   0.255   6.829   0.410
 6111W        W67642   9.258  24.997   0.735
 6112W        W67643  35.423   1.860  14.367
 6113W        W67644  31.403  27.195   0.917
 6114W        W67645  16.314  38.043   0.755
 6115W        W67646  16.678  40.459   0.352
 6116W        W67647   1.443   7.395  13.420
 6117W        W67648  22.174  33.105  11.956
 6118W        W67649  40.038   7.326   0.329
 6119W        W67650   2.255   6.250   3.868
 6120W        W67651  11.141  13.159   0.258
 6121W        W67652  12.224  29.998  14.287
 6122W        W67653  43.890  36.058   0.454
 6123W        W67654  40.392  27.056   0.269
 6124W        W67655  12.362   9.768   2.216
 6125W        W67656  19.592  31.484   1.428
 6126W        W67657  25.696  11.343   0.813
 6127W        W67658   9.807  17.777  11.567
 6128W        W67659  17.290  27.125  11.980
 6129W        W67660  34.056  33.430  12.023
 6130W        W67661  37.838  18.602  10.423
 6131W        W67662  24.552  10.806  13.400
 6132W        W67663  31.010   7.383  12.910
 6133W        W67664  25.684  34.905   2.201
 6134W        W67665  35.527  35.539  13.387
 6135W        W67666  32.460  43.466  14.905
 6136W        W67667  35.929  29.599   2.219
 6137W        W67668  30.933  11.688  13.896
 6138W        W67669  34.574   4.845   0.431
 6139W        W67670  21.723   2.884  11.076
 6140W        W67671  34.589  26.156   4.749
 6141W        W67672  40.503  13.634  12.012
 6142W        W67673  35.030  25.592   0.331
 6143W        W67674  35.365  40.302   5.282
 6144W        W67675  31.102   1.302   0.276
 6145W        W67676  37.352  38.983  14.859
 6146W        W67677  40.407  35.489  11.867
 6147W        W67678   7.750  38.888  12.067
 6148W        W67679   8.274   0.482   1.805
 6149W        W67680  29.997  32.610   3.372
 6150W        W67681  42.891  19.135   4.621
 6151W        W67682   7.874  11.628   3.298
 6152W        W67683  24.672  25.167  14.981
 6153W        W67684   2.756  11.229   0.887
 6154W        W67685   9.848  34.483   4.264
 6155W        W67686  43.411  36.012   2.379
 6156W        W67687   6.789  31.983  12.473
 6157W        W67688  29.082   1.404   0.284
 6158W        W67689  40.403  14.686   2.350
 6159W        W67690  43.950  15.195  14.769
 6160W        W67691  12.687  38.444   4.282
 6161W        W67692  27.960   6.842  10.975
 6162W        W67693  11.349  29.560  12.352
 6163W        W67694  24.661   1.933  13.887
 6164W        W67695   4.253  17.669   4.607
 6165W        W67696  12.362   5.786  12.373
 6166W        W67697  29.170   8.807   0.728
 6167W        W67698  44.441   8.735   3.642
 6168W        W67699  30.499  40.400  10.520
 6169W        W67700  18.674  36.374  11.906
 6170W        W67701  42.919  12.289   2.412
 6171W        W67702   7.819  31.951  14.458
 6172W        W67703  31.427  42.345  11.940
 6173W        W67704  42.996  18.275  11.896
 6174W        W67705  26.994  21.562   2.668
 6175W        W67706  25.675   5.335  11.575
 6176W        W67707  14.788  40.458   2.895
 6177W        W67708   1.342  18.778   4.730
 6178W        W67709   9.715   6.360  13.372
 6179W        W67710  14.679  35.505   2.877
 6180W        W67711  40.050   0.870  12.531
 6181W        W67712  44.849  19.189   2.194
 6182W        W67713  37.075   7.778   1.299
 6183W        W67714  43.919   9.817  14.976
 6184W        W67715  37.009  29.016  11.467
 6185W        W67716  10.173  22.017   2.854
 6186W        W67717  33.072  28.081   2.662
 6187W        W67718  15.200  27.065  12.096
 6188W        W67719  16.279  40.906  11.062
 6189W        W67720   1.442  22.555  11.065
 6190W        W67721  11.183  13.264  14.836
 6191W        W67722  15.183  37.485   0.867
 6192W        W67723   4.830   1.400   3.331
 6193W        W67724   6.884   4.788  11.580
 6194W        W67725  11.200  33.507  10.921
 6195W        W67726  38.825  29.640   3.776
 6196W        W67727  27.453  12.782   2.223
 6197W        W67728  42.033   8.235   3.249
 6198W        W67729  26.648  34.561  14.923
 6199W        W67730  38.945  30.633   5.198
 6200W        W67731  30.652   7.811  12.380
 6201W        W67732   1.421  30.920  14.312
 6202W        W67733  20.274  34.442   2.771
 6203W        W67734  37.854  38.059   3.637
 6204W        W67735   3.443  14.831  14.815
 6205W        W67736   2.289  39.364  13.058
 6206W        W67737  25.120   8.165   0.906
 6207W        W67738  33.121  41.358  12.352
 6208W        W67739  32.422  24.214   4.720
 6209W        W67740   1.907  42.833   2.750
 6210W        W67741  26.691  25.004   4.341
 6211W        W67742  36.434  42.984  10.152
 6212W        W67743  11.176  39.546  13.004
 6213W        W67744  25.160   7.388   3.241
 6214W        W67745  26.533   4.296   3.848
 6215W        W67746  17.235  20.066  14.390
 6216W        W67747  35.859  22.214  13.442
 6217W        W67748  38.988  23.159  10.001
 6218W        W67749  23.011  12.222   4.311
 6219W        W67750  17.739  17.296  12.077
 6220W        W67751  17.602  35.075  12.035
 6221W        W67752   6.790   8.173  14.941
 6222W        W67753  17.619   3.723   1.819
 6223W        W67754  29.486  39.338   4.762
 6224W        W67755   4.293  25.648  12.394
 6225W        W67756  10.725   4.790  11.093
 6226W        W67757  33.578  34.489   0.377
 6227W        W67758   0.474   7.333   1.441
 6228W        W67759  14.750  29.492  11.524
 6229W        W67760  20.737  38.919  12.362
 6230W        W67761  37.497  24.052  11.607
 6231W        W67762  34.439  16.110   2.835
 6232W        W67763   4.332  16.077  10.425
 6233W        W67764  44.479  18.230  12.554
 6234W        W67765   7.373   7.723   0.271
 6235W        W67766  11.808  14.593  10.936
 6236W        W67767  24.990   6.274  13.819
 6237W        W67768  15.695  26.616   3.687
 6238W        W67769  14.231   7.719   3.264
 6239W        W67770  32.629  16.727  12.537
 6240W        W67771   0.435  43.934  12.985
 6241W        W67772   8.674  10.239   3.761
 6242W        W67773  21.673  29.007   2.414
 6243W        W67774  29.146  35.993   1.240
 6244W        W67775  16.156  29.623  13.800
 6245W        W67776  44.908  19.719   3.242
 6246W        W67777  25.088  28.453   3.360
 6247W        W67778  34.453  42.958  11.374
 6248W        W67779  13.668  29.152  11.880
 6249W        W67780   3.861  18.670   4.716
 6250W        W67781   6.307  34.893   0.429
 6251W        W67782  13.339  43.495   2.344
 6252W        W67783  35.080  27.513  11.983
 6253W        W67784  33.950  12.160   2.680
 6254W        W67785  17.774  42.409   1.290
 6255W        W67786  10.188   8.341   4.183
 6256W        W67787  28.629  20.112   3.851
 6257W        W67788  26.117  24.552  13.521
 6258W        W67789  20.241  12.314  10.606
 6259W        W67790  15.204  24.649  10.622
 6260W        W67791  43.498  36.441  12.945
 6261W        W67792   0.828   1.773   3.789
 6262W        W67793  35.411  28.071   3.778
 6263W        W67794   7.197  30.093  13.435
 6264W        W67795  38.422   0.927   1.348
 6265W        W67796  41.326   5.880  14.769
 6266W        W67797  15.201  31.050   3.632
 6267W        W67798  21.053   6.199  13.518
 6268W        W67799  29.953  27.658  12.900
 6269W        W67800  27.142  17.211  12.446
 6270W        W67801  28.608  32.418  11.054
 6271W        W67802  37.077  11.364   4.809
 6272W        W67803  23.110  22.237   0.367
 6273W        W67804   6.237   7.754   4.682
 6274W        W67805  21.570  32.108  14.908
 6275W        W67806  23.552  22.124  10.640
 6276W        W67807  34.546  29.555   0.768
 6277W        W67808  44.002   7.248  13.794
 6278W        W67809  17.161   2.335  13.519
 6279W        W67810  24.531   6.759   4.743
 6280W        W67811  37.865  27.061  14.484
 6281W        W67812  32.582  12.721  12.823
 6282W        W67813  26.071  44.808  14.442
 6283W        W67814   6.905  22.244   4.216
 6284W        W67815  29.539  26.563  10.556
 6285W        W67816  29.522  39.393  13.874
 6286W        W67817  38.454  40.497   0.321
 6287W        W67818  26.519  44.889   3.367
 6288W        W67819  26.148  35.537   0.278
 6289W        W67820  23.571   7.783  13.871
 6290W        W67821   0.968   5.274   0.763
 6291W        W67822   1.767  37.397   0.390
 6292W        W67823   3.768  25.157  13.437
 6293W        W67824  28.608   7.416   3.263
 6294W        W67825  29.949  31.119   0.883
 6295W        W67826  41.943  31.945   2.315
 6296W        W67827   6.305  15.817  10.487
 6297W        W67828  17.645  38.059  13.409
 6298W        W67829  32.445   4.738  12.475
 6299W        W67830  22.241   4.767   3.287
 6300W        W67831  35.929  36.911  14.406
 6301W        W67832  43.893  16.252  10.951
 6302W        W67833  18.709  39.433  11.569
 6303W        W67834  43.885  13.689   2.776
 6304W        W67835   3.336  39.541  11.553
 6305W        W67836  18.668   2.275  14.829
 6306W        W67837  41.384  18.159  11.433
 6307W        W67838   9.867  39.447  14.387
 6308W        W67839  14.220  39.977  10.535
 6309W        W67840   8.772   2.797  14.411
 6310W        W67841   8.878   1.742  12.417
 6311W        W67842  13.132  44.768   3.647
 6312W        W67843  40.860  22.176   1.275
 6313W        W67844  41.859  37.397   2.770
 6314W        W67845   0.389  33.915  11.962
 6315W        W67846  21.115  26.501   1.441
 6316W        W67847  42.827  26.970   5.137
 6317W        W67848   6.901  11.277  10.612
 6318W        W67849  26.117   0.744  11.533
 6319W        W67850   7.232  37.389  14.991
 6320W        W67851  36.426  17.187  13.473
 6321W        W67852  12.765  23.196  13.502
 6322W        W67853  34.587  10.308   4.219
 6323W        W67854   8.312  43.888  13.968
 6324W        W67855   6.317  38.477   2.323
 6325W        W67856   9.341  23.117  14.434
 6326W        W67857  29.649  29.498  13.389
 6327W        W67858  34.957   7.824   1.281
 6328W        W67859   5.744  21.561  10.541
 6329W        W67860   8.846  12.760   4.175
 6330W        W67861  30.077  12.284   2.218
 6331W        W67862  43.295  41.535   3.673
 6332W        W67863  33.094   4.326   4.291
 6333W        W67864  19.047  10.778   2.879
 6334W        W67865  38.965  36.576   3.171
 6335W        W67866  27.157   3.434  11.524
 6336W        W67867  31.053  33.568   3.384
 6337W        W67868  14.736  41.843  10.894
 6338W        W67869  32.545  32.076  10.555
 6339W        W67870  27.057  43.839  13.365
 6340W        W67871  41.002  37.877  11.870
 6341W        W67872  21.202  33.622   2.314
 6342W        W67873  29.986  28.053  11.398
 6343W        W67874  24.042  21.124   9.934
 6344W        W67875  19.592  22.697  12.950
 6345W        W67876  18.196  13.276   1.717
 6346W        W67877  13.695  15.663   3.182
 6347W        W67878  15.151  17.781  14.020
 6348W        W67879  13.716  31.006   2.693
 6349W        W67880  17.575  43.382  13.967
 6350W        W67881  22.645   1.971  13.345
 6351W        W67882   7.829  22.079   4.318
 6352W        W67883  20.595  23.017   1.722
 6353W        W67884   6.396  34.426   2.311
 6354W        W67885  34.489  25.478   4.277
 6355W        W67886  32.421  26.696   4.649
 6356W        W67887  14.258  14.232  10.486
 6357W        W67888  44.857  15.095  11.965
 6358W        W67889  20.610  37.545   0.389
 6359W        W67890  11.193  21.181  13.423
 6360W        W67891  17.626  21.232   3.761
 6361W        W67892  28.957  14.107   0.882
 6362W        W67893   7.864  16.801   3.309
 6363W        W67894  28.463  29.550   0.424
 6364W        W67895  31.410   1.398   4.602
 6365W        W67896  34.083  16.085   1.832
 6366W        W67897   5.764  15.730  13.431
 6367W        W67898  30.947   1.452   2.688
 6368W        W67899  44.931  33.480  10.895
 6369W        W67900  30.932   7.762   2.223
 6370W        W67901  21.121  31.142  12.956
 6371W        W67902  31.944   7.814  13.880
 6372W        W67903  43.412  32.500   4.803
 6373W        W67904  11.787   6.862   4.126
 6374W        W67905  18.755  16.572   0.354
 6375W        W67906  10.340  34.438   0.473
 6376W        W67907  35.438  32.139   4.121
 6377W        W67908  36.461  20.054   0.470
 6378W        W67909  27.107  25.699   2.216
 6379W        W67910  23.681  22.718  11.989
 6380W        W67911  43.923  12.709  14.420
 6381W        W67912   5.235   1.342   3.329
 6382W        W67913  10.849  41.426   0.821
 6383W        W67914   6.812   3.838   3.832
 6384W        W67915   2.944  29.600  10.437
 6385W        W67916  41.013   1.390   1.321
 6386W        W67917  38.930  15.095   3.358
 6387W        W67918  15.822  17.704   1.222
 6388W        W67919  10.378  34.099   0.773
 6389W        W67920  35.988  17.162   0.440
 6390W        W67921  31.443  34.102  13.513
 6391W        W67922  21.219  24.204   1.295
 6392W        W67923   5.731   7.900  11.891
 6393W        W67924  20.169   1.249  14.473
 6394W        W67925  38.039  33.082  14.510
 6395W        W67926  42.397  42.453  10.936
 6396W        W67927   9.791  28.488  13.526
 6397W        W67928   6.302   3.444   0.268
 6398W        W67929  30.977  24.196   2.798
 6399W        W67930  37.010  17.064   3.248
 6400W        W67931  42.395  16.298   2.833
 6401W        W67932  10.717  26.532   4.764
 6402W        W67933  14.208  29.582   1.287
 6403W        W67934  18.256  21.217   0.394
 6404W        W67935  35.049   3.870  13.475
 6405W        W67936  35.586  11.194   5.661
 6406W        W67937  42.326   8.383  13.001
 6407W        W67938  42.931  40.372   0.837
 6408W        W67939  11.741  27.581   4.234
 6409W        W67940   0.405  11.137   2.401
 6410W        W67941  31.500  43.303   2.266
 6411W        W67942  33.420  25.032   0.269
 6412W        W67943   4.411  39.812   3.864
 6413W        W67944  33.485  32.885  14.866
 6414W        W67945  10.159  42.807  10.003
 6415W        W67946  10.710  23.716   1.781
 6416W        W67947   8.820  17.784   4.257
 6417W        W67948  15.763  20.036   0.935
 6418W        W67949  15.262  15.691   3.321
 6419W        W67950  23.612  14.195   5.262
 6420W        W67951   3.367  27.573   2.223
 6421W        W67952  24.685   7.884   1.381
 6422W        W67953  37.451   7.837  13.347
 6423W        W67954  17.109  10.266  11.480
 6424W        W67955  17.307  18.580  14.399
 6425W        W67956  12.226   7.262  12.470
 6426W        W67957  28.042  28.572   3.741
 6427W        W67958  15.770   2.731  14.414
 6428W        W67959  10.143  19.075  11.540
 6429W        W67960  15.649  42.868   3.372
 6430W        W67961  43.822  38.473   4.305
 6431W        W67962   5.925   1.770  10.998
 6432W        W67963  19.621  31.006   0.438
 6433W        W67964   3.310  33.115  12.399
 6434W        W67965  23.493  30.558   0.245
 6435W        W67966  16.302  38.348   0.458
 6436W        W67967  31.015  42.927   2.307
 6437W        W67968   5.910  19.587  13.518
 6438W        W67969  12.234  13.599  12.888
 6439W        W67970  42.480  13.291  12.881
 6440W        W67971  24.663  24.140  10.428
 6441W        W67972   7.398   7.292  12.932
 6442W        W67973  29.993  21.066   3.214
 6443W        W67974   9.803  16.713   3.372
 6444W        W67975   2.848  18.672  13.497
 6445W        W67976  11.642  37.882  13.463
 6446W        W67977  26.993  37.906  13.327
 6447W        W67978  36.469  15.777  13.852
 6448W        W67979  44.288  11.753  12.435
 6449W        W67980  23.213  32.581  12.855
 6450W        W67981  19.675  28.931  14.841
 6451W        W67982  29.629  39.918   1.361
 6452W        W67983   5.362   9.257   3.730
 6453W        W67984  11.177  23.051  13.966
 6454W        W67985  19.119   5.341  11.600
 6455W        W67986   6.216  13.174  11.511
 6456W        W67987  36.051  44.999  14.387
 6457W        W67988   2.269  43.770   4.238
 6458W        W67989  20.141  42.360   4.830
 6459W        W67990  21.166  37.895   2.895
 6460W        W67991  17.072  22.156   0.443
 6461W        W67992  14.689  18.688   0.898
 6462W        W67993  25.212  26.147  12.349
 6463W        W67994  42.820  26.051   2.820
 6464W        W67995  30.586  38.467   0.949
 6465W        W67996  34.585  33.525  13.454
 6466W        W67997   9.875  13.168  11.966
 6467W        W67998  42.359  28.542  11.585
 6468W        W67999  19.199   3.718  13.441
 6469W        W68000  23.514   7.202   4.777
 6470W        W68001   9.738   0.833   1.297
 6471W        W68002  41.336  34.435  12.860
 6472W        W68003  29.016  42.511   4.636
 6473W        W68004  20.694  34.888  11.944
 6474W        W68005  42.506   4.744  13.912
 6475W        W68006  37.947   5.718   2.410
 6476W        W68007  20.553  21.124   2.736
 6477W        W68008  31.517   6.207   2.724
 6478W        W68009   6.185  28.507   3.732
 6479W        W68010  17.168  10.634  10.425
 6480W        W68011  20.028  34.510  12.467
 6481W        W68012  34.071   2.804  13.491
 6482W        W68013  31.566  33.942  12.856
 6483W        W68014  39.013  35.602  12.465
 6484W        W68015   9.695  30.515   0.307
 6485W        W68016   0.403   2.803  12.826
 6486W        W68017  28.508   7.256  11.012
 6487W        W68018  42.792   6.325   1.845
 6488W        W68019   7.870  42.785  12.361
 6489W        W68020  11.639  29.544  13.931
 6490W        W68021  29.626  37.051  13.955
 6491W        W68022  42.492   4.909   3.637
 6492W        W68023  12.766   2.312  11.451
 6493W        W68024  12.142  35.481  10.959
 6494W        W68025  14.242  10.262  14.803
 6495W        W68026  12.745  36.054   2.320
 6496W        W68027  35.103  18.780  13.030
 6497W        W68028  30.152  27.074  14.965
 6498W        W68029  37.401   4.813  13.430
 6499W        W68030  11.311  28.659   0.405
 6500W        W68031   2.913  24.224  13.822
 6501W        W68032   9.353  39.942   2.812
 6502W        W68033   8.234  25.065   0.406
 6503W        W68034  10.201  13.614   4.148
 6504W        W68035  22.034   8.761   2.190
 6505W        W68036  11.305  20.695   0.940
 6506W        W68037  12.309  29.662   4.815
 6507W        W68038  42.850  14.828   4.695
 6508W        W68039  18.736  30.135  14.282
 6509W        W68040  23.663  17.267   4.667
 6510W        W68041   4.773  40.046  12.908
 6511W        W68042  29.490  26.966  10.604
 6512W        W68043  25.060  12.832   2.251
 6513W        W68044  26.555  25.714   3.222
 6514W        W68045   9.326  11.212  11.011
 6515W        W68046  17.206  35.583  12.511
 6516W        W68047  20.652  23.621  12.053
 6517W        W68048  18.678  16.661  13.511
 6518W        W68049   6.250   6.365  13.482
 6519W        W68050   5.330  42.939   4.780
 6520W        W68051  22.501   3.460   5.264
 6521W        W68052   8.842  43.425  11.373
 6522W        W68053  11.358  24.709  12.477
 6523W        W68054  26.516   9.646  11.089
 6524W        W68055  19.598  26.085  11.084
 6525W        W68056  37.382  41.790  11.553
 6526W        W68057  38.936  34.866  13.421
 6527W        W68058   2.436  22.222   5.589
 6528W        W68059  22.038   4.292  10.511
 6529W        W68060  37.866  34.478   4.838
 6530W        W68061  29.048  21.530  13.852
 6531W        W68062  42.328  40.900   2.711
 6532W        W68063   6.696  30.142  14.911
 6533W        W68064   5.266   4.772   3.346
 6534W        W68065   0.333   6.721  11.413
 6535W        W68066  28.659  18.274   0.369
 6536W        W68067  22.539  16.178  12.389
 6537W        W68068  27.144   9.304  12.890
 6538W        W68069   7.831  37.959  12.436
 6539W        W68070  24.119   8.340  12.496
 6540W        W68071  17.197  23.690   2.389
 6541W        W68072   3.270  18.160   4.120
 6542W        W68073   8.233  35.412  13.791
 6543W        W68074  44.837  44.936   3.378
 6544W        W68075   2.910  28.986   4.776
 6545W        W68076  24.186  19.708   0.425
 6546W        W68077  37.434  18.202  14.975
 6547W        W68078  26.178  24.604  12.079
 6548W        W68079  40.025   7.870  12.391
 6549W        W68080  17.768  33.990  12.379
 6550W        W68081   8.776  17.167  13.001
 6551W        W68082  15.593  32.623   4.648
 6552W        W68083  43.997  13.777   0.910
 6553W        W68084  19.140   3.311  14.375
 6554W        W68085  23.716  16.605   0.309
 6555W        W68086   3.215  33.922   2.201
 6556W        W68087  17.604   5.408  11.021
 6557W        W68088  12.300  32.441  13.344
 6558W        W68089  13.190   1.913   0.405
 6559W        W68090  19.183  27.468  14.836
 6560W        W68091   8.266  44.925  12.475
 6561W        W68092  39.493   4.281   2.844
 6562W        W68093  28.954  13.203  13.889
 6563W        W68094  42.283  31.929  13.493
 6564W        W68095  38.047  40.451   0.310
 6565W        W68096   5.819  24.099   3.742
 6566W        W68097  29.609  21.218   0.890
 6567W        W68098   4.261  14.660  11.023
 6568W        W68099  25.115  39.533  14.461
 6569W        W68100  36.885   6.676   3.790
 6570W        W68101  32.592  22.035   3.805
 6571W        W68102  41.474  30.425  10.908
 6572W        W68103  18.092  28.109  12.430
 6573W        W68104  11.853  14.811  14.480
 6574W        W68105  34.601  40.996  14.759
 6575W        W68106  41.342  10.205   2.263
 6576W        W68107  14.706   5.287   1.238
 6577W        W68108  26.116   8.380   9.608
 6578W        W68109   8.294   9.154   4.323
 6579W        W68110  37.445  32.069  14.349
 6580W        W68111  23.160  16.250   3.294
 6581W        W68112  22.141  23.984  12.476
 6582W        W68113   8.698  44.380  13.934
 6583W        W68114  41.953   7.222  12.369
 6584W        W68115  36.902  34.457   1.373
 6585W        W68116   7.415  19.234  11.049
 6586W        W68117   0.786  41.940  11.494
 6587W        W68118  36.407  39.391   1.319
 6588W        W68119  22.673  37.849   4.636
 6589W        W68120  26.499  13.161  14.964
 6590W        W68121  39.832  23.065  11.422
 6591W        W68122  34.914  27.681   0.741
 6592W        W68123  13.284   9.877   2.304
 6593W        W68124  17.269  32.496   0.470
 6594W        W68125  24.678  38.439   9.512
 6595W        W68126  28.602   9.193   3.677
 6596W        W68127  12.627  44.962   4.634
 6597W        W68128  44.371  31.001  14.438
 6598W        W68129  28.477   1.947  13.404
 6599W        W68130  37.416  13.669   2.282
 6600W        W68131  39.832  20.076   1.343
 6601W        W68132  29.089  10.732  10.889
 6602W        W68133  19.742  16.233  13.883
 6603W        W68134  19.078   1.774   4.716
 6604W        W68135   8.372  12.312   2.751
 6605W        W68136  33.900   7.715   2.844
 6606W        W68137  12.612  42.400  14.869
 6607W        W68138  38.507  32.070   2.414
 6608W        W68139  16.789  17.285   3.668
 6609W        W68140  44.993  19.609  12.557
 6610W        W68141   1.920   8.163   3.233
 6611W        W68142  43.929  12.685  13.903
 6612W        W68143   1.866  27.953  11.484
 6613W        W68144  29.066  18.104   2.218
 6614W        W68145   7.386  20.041  14.975
 6615W        W68146  26.580  22.222   4.793
 6616W        W68147  20.071  21.244  12.532
 6617W        W68148  39.445  30.047   2.709
 6618W        W68149   7.200  32.504   2.235
 6619W        W68150  14.241   5.266   0.450
 6620W        W68151  34.900  29.931   3.660
 6621W        W68152  36.905  26.479   2.775
 6622W        W68153   3.230  27.994  11.903
 6623W        W68154  38.074  42.781   2.818
 6624W        W68155  12.303  36.378  12.565
 6625W        W68156  33.894  42.968   1.279
 6626W        W68157   9.708  39.811  12.431
 6627W        W68158  28.541  15.171   0.801
 6628W        W68159  29.463   9.344  14.323
 6629W        W68160  21.052  23.674   0.816
 6630W        W68161  16.294  24.515  11.858
 6631W        W68162  10.137  44.917  12.007
 6632W        W68163   9.341  20.606  11.589
 6633W        W68164  25.969   7.300   2.757
 6634W        W68165  11.755  20.661   1.420
 6635W        W68166  21.216   8.678  10.416
 6636W        W68167  43.291  21.053   4.646
 6637W        W68168  20.674  28.503   0.815
 6638W        W68169  26.009  18.189  13.467
 6639W        W68170  23.610  28.680   1.712
 6640W        W68171   9.294  31.581   0.360
 6641W        W68172  37.414  23.564  13.022
 6642W        W68173  21.658   2.913   2.215
 6643W        W68174  19.068   2.739  14.928
 6644W        W68175  39.385  31.983  12.986
 6645W        W68176  11.196  27.591  11.991
 6646W        W68177  38.553  34.896  10.991
 6647W        W68178   5.278  31.594   1.215
 6648W        W68179  20.580  18.742  12.921
 6649W        W68180  38.976  26.021  12.021
 6650W        W68181   6.404  36.055  11.861
 6651W        W68182  40.532  33.518   0.955
 6652W        W68183  25.662   2.277   3.856
 6653W        W68184   3.790   4.755   3.360
 6654W        W68185  10.149  32.536  12.002
 6655W        W68186  35.055   7.723  10.529
 6656W        W68187  29.522  10.726   1.812
 6657W        W68188   3.732  21.574  13.319
 6658W        W68189  31.540  40.858   1.329
 6659W        W68190   9.691  22.668   3.337
 6660W        W68191   8.901  25.174  13.891
 6661W        W68192  25.550  41.862  12.873
 6662W        W68193  29.167  16.672   3.257
 6663W        W68194   2.764  15.211  14.812
 6664W        W68195   4.724  33.922   4.707
 6665W        W68196  15.090  10.147  12.062
 6666W        W68197   4.878  31.932   2.253
 6667W        W68198   0.371  16.310  11.498
 6668W        W68199   9.856   2.314  13.387
 6669W        W68200  32.535  37.495  13.849
 6670W        W68201  14.758  25.631   5.645
 6671W        W68202  20.155  26.147   0.350
 6672W        W68203  25.610   1.339   3.647
 6673W        W68204  19.536   8.719   0.918
 6674W        W68205  10.727  22.570   3.366
 6675W        W68206  15.713   8.667   1.750
 6676W        W68207  33.494  26.468   1.925
 6677W        W68208  29.460   7.396  10.924
 6678W        W68209  35.897  24.049   0.923
 6679W        W68210  40.023   5.848   3.155
 6680W        W68211  29.128   9.857   5.144
 6681W        W68212   9.659  31.406   2.838
 6682W        W68213   0.810  30.023  13.324
 6683W        W68214  43.804  18.684   3.746
 6684W        W68215  11.319   2.831  14.314
 6685W        W68216   1.358   8.712   1.791
 6686W        W68217   4.867   2.803  10.942
 6687W        W68218   0.450  33.063  11.463
 6688W        W68219   9.177  14.664   3.866
 6689W        W68220  14.245  43.965  12.456
 6690W        W68221  29.041  44.262   1.392
 6691W        W68222  34.879  17.112   0.281
 6692W        W68223   6.731  22.634  10.591
 6693W        W68224  33.464   7.319  14.312
 6694W        W68225  14.830  32.003  10.014
 6695W        W68226   9.821  32.077  12.368
 6696W        W68227  27.532  44.474   2.809
 6697W        W68228   7.286   3.779  13.010
 6698W        W68229  29.153  10.287   4.192
 6699W        W68230   3.925  38.923   4.168
 6700W        W68231  42.877  24.025  13.319
 6701W        W68232  21.651   4.267   3.249
 6702W        W68233   1.274  32.931  13.501
 6703W        W68234  32.022  42.414  12.550
 6704W        W68235  30.133  42.290   3.812
 6705W        W68236  41.856  19.097  11.495
 6706W        W68237  22.652  18.726  10.154
 6707W        W68238   9.753   7.881  13.385
 6708W        W68239  13.800  37.021  11.009
 6709W        W68240  24.596  22.120  13.845
 6710W        W68241  24.182  21.663   2.787
 6711W        W68242  26.118  12.694   0.800
 6712W        W68243   2.311  28.059   3.678
 6713W        W68244  12.728  10.858  13.943
 6714W        W68245  22.683   3.852   2.266
 6715W        W68246  38.963  18.191  12.577
 6716W        W68247  44.383  29.455  11.862
 6717W        W68248  37.454  39.941   4.724
 6718W        W68249  32.493  12.200  14.925
 6719W        W68250   7.354  19.691  12.440
 6720W        W68251   4.402  18.639   4.303
 6721W        W68252  35.520  35.544   2.214
 6722W        W68253  43.436  18.550  12.461
 6723W        W68254  26.642  39.418  12.533
 6724W        W68255  43.956  14.205   1.260
 6725W        W68256  32.457  26.111   0.375
 6726W        W68257  36.459   9.253   1.269
 6727W        W68258  36.068  32.621  11.095
 6728W        W68259  38.379   9.284   3.190
 6729W        W68260   4.892  39.365   2.325
 6730W        W68261  10.855  25.613   4.649
 6731W        W68262  16.234  14.803  13.004
 6732W        W68263  14.660   2.312   0.935
 6733W        W68264  22.553  22.180   1.325
 6734W        W68265  44.900  38.468   1.347
 6735W        W68266  37.490   5.729  11.481
 6736W        W68267   5.413  43.770  13.431
 6737W        W68268  22.562   4.734  13.847
 6738W        W68269   1.856   8.229   0.305
 6739W        W68270  15.719   9.240   0.901
 6740W        W68271   1.918  22.116   5.239
 6741W        W68272  17.143  42.025  13.374
 6742W        W68273  11.628  22.655   2.278
 6743W        W68274  12.123  18.697   4.149
 6744W        W68275  33.626  28.164   2.833
 6745W        W68276  34.584   7.262   3.674
 6746W        W68277  13.347  36.093  11.917
 6747W        W68278  26.060   9.830   4.730
 6748W        W68279  19.158  29.663   2.226
 6749W        W68280  19.073  12.162  11.047
 6750W        W68281  14.588  15.181   0.813
 6751W        W68282  17.575  28.070  10.127
 6752W        W68283  31.139  34.081   3.774
 6753W        W68284  11.191   9.792   0.287
 6754W        W68285  14.740  38.555   2.836
 6755W        W68286  36.985  28.562   1.318
 6756W        W68287  34.996  37.423  12.955
 6757W        W68288  35.399  36.486  12.425
 6758W        W68289  42.430  18.236  14.777
 6759W        W68290  22.245  27.026   4.816
 6760W        W68291   6.766  28.643   1.276
 6761W        W68292  29.058   8.766  10.470
 6762W        W68293  17.223  10.330   2.860
 6763W        W68294  13.625  35.548   1.834
 6764W        W68295  43.396   7.184  13.405
 6765W        W68296   7.723  13.648   1.400
 6766W        W68297  33.505  20.756   1.213
 6767W        W68298  13.232   9.216   1.933
 6768W        W68299  18.621  15.643   2.823
 6769W        W68300   1.913   4.251   4.191
 6770W        W68301  39.403  40.511   4.241
 6771W        W68302   2.923  18.612  11.893
 6772W        W68303  32.436  36.517  13.523
 6773W        W68304  17.233  41.918  14.867
 6774W        W68305   3.323  19.094   4.702
 6775W        W68306  42.881  41.849  11.104
 6776W        W68307  27.194  26.597   4.341
 6777W        W68308   9.794  44.887  11.389
 6778W        W68309   1.401  27.055  11.964
 6779W        W68310  18.555   6.892   2.843
 6780W        W68311   8.280   9.665   3.375
 6781W        W68312  14.605  22.616  13.823
 6782W        W68313  43.772  29.580  12.339
 6783W        W68314   3.290  12.255   3.644
 6784W        W68315  17.780   1.316  11.976
 6785W        W68316  24.136  37.013   1.313
 6786W        W68317  11.327  18.055  13.379
 6787W        W68318  19.605  19.269   3.235
 6788W        W68319  19.539  32.419   1.849
 6789W        W68320   2.773  25.173  13.447
 6790W        W68321  24.192  29.042   3.727
 6791W        W68322  21.751  29.121   1.733
 6792W        W68323  14.193  29.563   0.429
 6793W        W68324   6.359   7.671   0.268
 6794W        W68325  15.287  12.317  10.557
 6795W        W68326  33.504  30.159  12.089
 6796W        W68327  18.631  15.161  13.990
 6797W        W68328  16.244  44.909  10.626
 6798W        W68329  40.914  39.831   0.769
 6799W        W68330  42.872  16.110   3.697
 6800W        W68331  17.678  21.549   4.744
 6801W        W68332   4.449  36.077   0.367
 6802W        W68333  16.616  36.474  14.837
 6803W        W68334  39.437  22.081   4.750
 6804W        W68335  23.108  22.091   2.402
 6805W        W68336  18.113  41.836   2.677
 6806W        W68337  28.006  26.655   4.250
 6807W        W68338  21.168  16.172  13.953
 6808W        W68339  21.555  10.743   3.345
 6809W        W68340   8.202  29.146   4.338
 6810W        W68341  12.679  25.542   4.164
 6811W        W68342  27.050  33.043  11.976
 6812W        W68343  33.108  32.456  12.043
 6813W        W68344   6.187  43.947  11.376
 6814W        W68345  16.648   3.897  14.904
 6815W        W68346   7.893  34.085   1.423
 6816W        W68347  31.037  29.574  10.421
 6817W        W68348  26.168  15.622   3.208
 6818W        W68349  28.483  37.030   2.768
 6819W        W68350  37.542   9.807  14.439
 6820W        W68351  37.938  33.028  12.523
 6821W        W68352  28.614  26.109   1.366
 6822W        W68353  29.470   6.316  10.026
 6823W        W68354   0.358  31.634  10.919
 6824W        W68355  26.111  34.515   3.795
 6825W        W68356  34.019   1.957  11.992
 6826W        W68357  42.375  42.006  14.837
 6827W        W68358  40.954  35.587  14.879
 6828W        W68359  29.520  39.966  14.828
 6829W        W68360   9.363  43.954  13.944
 6830W        W68361  33.911  28.656  11.937
 6831W        W68362  22.090  43.902  14.764
 6832W        W68363   8.687   4.305   0.907
 6833W        W68364  36.844   3.357  13.046
 6834W        W68365  21.613  36.996   0.796
 6835W        W68366   5.220  33.978   4.664
 6836W        W68367  12.296  23.102   1.446
 6837W        W68368  34.993  15.693  14.900
 6838W        W68369   0.257  33.878   0.334
 6839W        W68370  10.243  36.884  12.893
 6840W        W68371  13.186  22.173  13.511
 6841W        W68372  33.012  40.421  12.452
 6842W        W68373  39.035  10.853   3.159
 6843W        W68374  10.345  16.769  14.837
 6844W        W68375  40.443   5.707  10.407
 6845W        W68376   1.809  39.903  12.558
 6846W        W68377  37.852  37.971  10.610
 6847W        W68378  11.809  40.539   0.882
 6848W        W68379  43.274  20.556  13.032
 6849W        W68380  32.428  25.491   0.833
 6850W        W68381  37.990  16.569  14.413
 6851W        W68382  37.894  36.077   1.335
 6852W        W68383  25.025  44.272  11.564
 6853W        W68384  11.300  29.933  11.069
 6854W        W68385   1.273   0.291   1.855
 6855W        W68386  10.262  36.365   4.817
 6856W        W68387  42.917   0.253   2.195
 6857W        W68388  11.773  39.472  10.545
 6858W        W68389  27.988  26.104   1.324
 6859W        W68390  35.859  19.771   3.298
 6860W        W68391   7.337  12.619   2.706
 6861W        W68392  14.738  44.323   0.279
 6862W        W68393   2.273   1.947   3.837
 6863W        W68394   1.409  19.122  11.424
 6864W        W68395  42.817  18.778   4.727
 6865W        W68396  28.535  36.523   3.684
 6866W        W68397  14.657  25.978   0.949
 6867W        W68398  40.995  39.424   0.827
 6868W        W68399  44.347   2.953   4.350
 6869W        W68400  35.366   1.365   3.682
 6870W        W68401  11.649  23.625   2.211
 6871W        W68402   9.339   5.758  14.018
 6872W        W68403  34.875   0.316  13.502
 6873W        W68404  28.979  18.229   2.740
 6874W        W68405  25.709  16.188  13.835
 6875W        W68406  20.660   3.234  10.421
 6876W        W68407  41.312   6.391  10.531
 6877W        W68408  32.543  34.421   0.848
 6878W        W68409  38.963  43.404  11.046
 6879W        W68410  27.182  10.249   4.170
 6880W        W68411   1.872  43.293   2.401
 6881W        W68412   7.415  27.104   2.416
 6882W        W68413   8.305  29.974   3.693
 6883W        W68414  40.384  28.559   4.600
 6884W        W68415  15.585  25.093   3.706
 6885W        W68416   5.310   6.728  11.386
 6886W        W68417   8.752  28.029   3.674
 6887W        W68418  17.766   2.261  11.547
 6888W        W68419  29.625  37.404   0.422
 6889W        W68420   6.830  37.426   5.194
 6890W        W68421  42.812  38.846   2.346
 6891W        W68422  10.693  10.247   0.390
 6892W        W68423  22.186  14.595   1.809
 6893W        W68424  35.573   3.292   2.183
 6894W        W68425   9.273  32.072  12.525
 6895W        W68426  22.082  29.542  13.016
 6896W        W68427  17.248  18.756  14.830
 6897W        W68428   7.310   7.318  14.935
 6898W        W68429  27.194  40.042  12.923
 6899W        W68430   1.373  34.941  12.484
 6900W        W68431  44.008   9.700   3.845
 6901W        W68432  42.909   7.895   1.783
 6902W        W68433  13.704  30.434   0.310
 6903W        W68434  15.299  29.589   4.146
 6904W        W68435  13.160  30.618  11.042
 6905W        W68436  40.501  15.756  12.389
 6906W        W68437  21.066  15.101   4.693
 6907W        W68438   9.740   7.236  12.898
 6908W        W68439  14.105  34.528   3.195
 6909W        W68440  15.137  15.158   1.811
 6910W        W68441  18.092  15.612   1.431
 6911W        W68442  41.027  19.217  13.865
 6912W        W68443  27.963  41.968   0.852
 6913W        W68444  20.045  42.028   2.864
 6914W        W68445  31.534  14.713   3.341
 6915W        W68446  22.095  28.027   2.830
 6916W        W68447  18.642  22.546   4.322
 6917W        W68448  15.237  41.012   1.861
 6918W        W68449  18.075  25.680   5.154
 6919W        W68450  20.573  27.169  11.945
 6920W        W68451  34.381  37.855   3.846
 6921W        W68452  34.545  11.780  14.451
 6922W        W68453   9.837  36.362  13.917
 6923W        W68454  19.208  17.183   2.781
 6924W        W68455  43.992  36.475  12.904
 6925W        W68456  17.597  11.732   4.176
 6926W        W68457  10.354  19.748   4.268
 6927W        W68458   6.204  41.322  13.346
 6928W        W68459  22.636   0.847   2.203
 6929W        W68460  22.036  38.042  14.951
 6930W        W68461  29.072  44.907  11.456
 6931W        W68462  33.069  14.129   3.267
 6932W        W68463  39.024  40.813  13.459
 6933W        W68464  31.428  16.792   1.355
 6934W        W68465  13.266  33.898  10.932
 6935W        W68466  13.252  10.646   0.392
 6936W        W68467  39.456  36.384  11.879
 6937W        W68468  41.369  27.491   3.782
 6938W        W68469  19.730  27.135  14.350
 6939W        W68470  12.627  12.794   3.204
 6940W        W68471  28.934  38.562  13.820
 6941W        W68472   6.899  15.134   3.325
 6942W        W68473  13.276  44.405  14.799
 6943W        W68474   4.251  27.950   0.867
 6944W        W68475  39.514  44.360   3.184
 6945W        W68476  19.044   5.835   0.873
 6946W        W68477  23.512   8.654   4.831
 6947W        W68478  32.943  34.050  14.391
 6948W        W68479  38.858  22.655   2.799
 6949W        W68480  40.525  22.559   2.879
 6950W        W68481  32.505  22.064  14.443
 6951W        W68482  29.126  30.158   2.255
 6952W        W68483  33.397  29.050  10.132
 6953W        W68484   4.831   9.316   3.295
 6954W        W68485  33.428  38.369   1.885
 6955W        W68486  14.184  11.147  10.942
 6956W        W68487  40.809   1.380  14.278
 6957W        W68488  29.607  16.605   4.623
 6958W        W68489  15.100  20.598   3.784
 6959W        W68490  27.608   0.382   2.778
 6960W        W68491  35.884  11.355  12.036
 6961W        W68492  21.536  38.838  14.489
 6962W        W68493  26.094  15.682  14.995
 6963W        W68494  33.033  32.462  14.320
 6964W        W68495  28.122  34.437  11.457
 6965W        W68496  22.193  34.959   3.793
 6966W        W68497  44.774  44.838  10.935
 6967W        W68498  17.149  11.297  12.869
 6968W        W68499  35.898  24.159  13.481
 6969W        W68500  32.900  28.934   3.375
 6970W        W68501  22.037  28.502  11.891
 6971W        W68502  14.788   0.486   2.815
 6972W        W68503  44.500  36.063  13.476
 6973W        W68504  32.992   3.336  12.497
 6974W        W68505  35.001  21.195   3.790
 6975W        W68506  12.814  33.886   1.386
 6976W        W68507  28.073   2.429   2.767
 6977W        W68508  22.551   0.349   1.809
 6978W        W68509   1.380  20.762   3.762
 6979W        W68510  37.830   9.170   2.409
 6980W        W68511  23.557   8.295  12.969
 6981W        W68512  18.091  10.864  10.906
 6982W        W68513  31.545  15.303   5.190
 6983W        W68514  22.644  44.804  11.917
 6984W        W68515  30.538  38.860  14.976
 6985W        W68516  17.185  36.003   5.207
 6986W        W68517  27.021  41.475   3.339
 6987W        W68518   6.216  33.609   4.749
 6988W        W68519  13.297  37.923   3.262
 6989W        W68520  36.912  42.823   4.706
 6990W        W68521  15.118  22.583   2.275
 6991W        W68522  18.702   3.413   4.664
 6992W        W68523  22.075   5.264   0.442
 6993W        W68524   7.841  15.631   2.884
 6994W        W68525  14.295   8.658   2.861
 6995W        W68526   7.745   3.870  12.005
 6996W        W68527  23.023  39.921  13.445
 6997W        W68528  10.190   2.902   3.643
 6998W        W68529   8.776   2.393  11.994
 6999W        W68530  41.300   3.751   0.857
 7000W        W68531  17.121  42.917   4.829
 7001W        W68532   9.717  33.516   1.772
 7002W        W68533  17.702  43.956  12.904
 7003W        W68534  32.120  11.766   5.234
 7004W        W68535  42.802  29.463  14.911
 7005W        W68536  21.717  43.892   4.728
 7006W        W68537   5.718   9.327   4.164
 7007W        W68538  23.105   6.338   0.378
 7008W        W68539  25.563   7.877  13.938
 7009W        W68540  30.061  31.451   2.208
 7010W        W68541  43.860   2.465   1.864
 7011W        W68542  41.854  24.709   2.858
 7012W        W68543  29.452  37.948  12.364
 7013W        W68544  22.236  40.976   2.387
 7014W        W68545  26.559   2.931  11.405
 7015W        W68546  16.701  37.852   4.208
 7016W        W68547  43.463  21.622  14.921
 7017W        W68548  43.942  21.052   4.321
 7018W        W68549  42.396  31.485  10.489
 7019W        W68550   3.842   0.811  12.961
 7020W        W68551   0.406  42.782  11.922
 7021W        W68552  41.534  31.635   0.300
 7022W        W68553  34.500  33.887   1.425
 7023W        W68554   1.911   0.323   3.329
 7024W        W68555  32.069   3.250   2.380
 7025W        W68556  40.946  37.052  12.825
 7026W        W68557  24.541  43.383  12.085
 7027W        W68558  16.627   1.395  12.928
 7028W        W68559  16.138  39.942   0.955
 7029W        W68560  37.876  42.961  13.852
 7030W        W68561  19.543  18.627   2.247
 7031W        W68562   5.821  26.557   4.146
 7032W        W68563  31.119  39.858  14.784
 7033W        W68564  24.122  26.991   1.424
 7034W        W68565  37.069   4.342   2.726
 7035W        W68566   5.318   2.765   3.773
 7036W        W68567  35.016  17.096   1.714
 7037W        W68568  23.115   1.959   3.310
 7038W        W68569   3.797   7.894  10.447
 7039W        W68570   6.231   3.892   1.703
 7040W        W68571   3.719  38.410  11.925
 7041W        W68572  34.866  23.697  12.059
 7042W        W68573  18.052  21.615   1.707
 7043W        W68574  12.635  13.812   3.775
 7044W        W68575   9.260  31.987   0.829
 7045W        W68576   1.237   8.173  10.986
 7046W        W68577  24.163  28.494   4.340
 7047W        W68578  18.664   4.732  14.435
 7048W        W68579  11.232   2.426  14.867
 7049W        W68580  26.521  31.492  14.774
 7050W        W68581  25.659  23.628  10.561
 7051W        W68582  19.654  19.765   1.249
 7052W        W68583  36.017   7.742   0.898
 7053W        W68584  36.019  32.945  10.929
 7054W        W68585  43.010  32.456   3.635
 7055W        W68586   2.399   4.236   0.784
 7056W        W68587   0.253  41.347   2.262
 7057W        W68588   9.203   9.862   0.871
 7058W        W68589   6.772  18.684  13.933
 7059W        W68590  16.605  25.589   1.446
 7060W        W68591  18.106  43.426  11.871
 7061W        W68592   5.915  12.314   3.291
 7062W        W68593  33.926  44.363  10.520
 7063W        W68594  30.563  34.520  12.837
 7064W        W68595  28.633  40.415  10.893
 7065W        W68596  23.616  10.676  10.438
 7066W        W68597  12.806  12.155  12.425
 7067W        W68598  30.016  40.907  10.411
 7068W        W68599   6.272  16.267  11.462
 7069W        W68600   9.201   2.811  13.427
 7070W        W68601  30.620  35.954   2.730
 7071W        W68602   6.728  27.541   0.871
 7072W        W68603  37.928  32.897   2.231
 7073W        W68604  36.505   6.780   1.437
 7074W        W68605  14.703  20.203  11.477
 7075W        W68606  33.511  29.961   2.352
 7076W        W68607  41.388  39.524  14.288
 7077W        W68608  38.998   5.380   1.718
 7078W        W68609  22.552  27.629  12.894
 7079W        W68610  11.258  39.452   1.212
 7080W        W68611   3.223   2.835   2.290
 7081W        W68612  42.831  32.524   4.199
 7082W        W68613  36.489  42.881   4.325
 7083W        W68614   9.342  40.528  11.581
 7084W        W68615  28.992   3.427  10.111
 7085W        W68616  35.013  29.589   3.296
 7086W        W68617  33.498  35.040   2.316
 7087W        W68618   0.321  27.544  12.094
 7088W        W68619  15.217  42.948  11.496
 7089W        W68620  23.545  33.967  11.050
 7090W        W68621  43.452  44.367   4.809
 7091W        W68622  34.473  11.145   2.843
 7092W        W68623  39.353  21.095   0.328
 7093W        W68624  36.859  38.864  14.815
 7094W        W68625  20.536   6.887  11.464
 7095W        W68626  31.083  13.171   4.657
 7096W        W68627  34.972  25.663   4.759
 7097W        W68628  23.049  41.293   0.848
 7098W        W68629   6.428  10.186   9.967
 7099W        W68630  13.171  16.792   2.687
 7100W        W68631  31.985  34.011   5.317
 7101W        W68632   0.961  15.788   3.331
 7102W        W68633  42.326  10.653   0.931
 7103W        W68634  33.524  30.543   1.423
 7104W        W68635  17.252  28.465   2.405
 7105W        W68636   5.267  36.378  13.823
 7106W        W68637  29.956  25.473  13.052
 7107W        W68638  37.967  34.519  14.770
 7108W        W68639  41.961  28.138  10.465
 7109W        W68640  30.950  30.932  14.889
 7110W        W68641  30.917  35.909   1.384
 7111W        W68642  26.166  31.068  11.384
 7112W        W68643  44.942  39.038   3.302
 7113W        W68644  39.920  25.675   2.681
 7114W        W68645  15.689  15.790  12.828
 7115W        W68646  17.751   5.924  11.113
 7116W        W68647  13.285  15.139  14.932
 7117W        W68648  11.782  20.619   0.819
 7118W        W68649  13.733  10.652   2.774
 7119W        W68650  36.014  40.950   4.738
 7120W        W68651  43.278  14.770  13.500
 7121W        W68652  21.643  16.239   3.166
 7122W        W68653   7.412  35.995   1.225
 7123W        W68654  22.649  23.618   0.244
 7124W        W68655  44.490  22.669  10.992
 7125W        W68656  15.646   7.241  12.036
 7126W        W68657   2.380  39.554  12.448
 7127W        W68658  21.650  15.767  11.104
 7128W        W68659  21.042   6.764  12.973
 7129W        W68660  23.119  33.039   1.274
 7130W        W68661  37.514  28.075   1.910
 7131W        W68662   8.340  25.175  14.511
 7132W        W68663  25.498  19.152   0.878
 7133W        W68664  17.097  32.424   2.771
 7134W        W68665  35.432  22.554   1.775
 7135W        W68666  18.242  39.441   1.703
 7136W        W68667   3.249   5.270  14.837
 7137W        W68668  25.985  26.497  13.466
 7138W        W68669  11.802  27.572  13.004
 7139W        W68670  25.972  26.969   4.814
 7140W        W68671  42.510  13.812  10.434
 7141W        W68672  18.081  42.356  10.489
 7142W        W68673  16.587  12.689  11.050
 7143W        W68674  37.361  20.608   3.206
 7144W        W68675   9.379  21.184  14.485
 7145W        W68676  29.601   7.251  11.492
 7146W        W68677  38.335  43.879   3.176
 7147W        W68678  25.220  34.416   4.706
 7148W        W68679  18.053   9.180  13.982
 7149W        W68680  34.904  29.052   2.380
 7150W        W68681  33.599   6.682   4.139
 7151W        W68682  32.391  16.581   3.724
 7152W        W68683  24.170  44.361  13.926
 7153W        W68684  25.549  34.047   4.336
 7154W        W68685  22.638   9.834   2.804
 7155W        W68686  40.440  30.509  13.342
 7156W        W68687  15.821  44.328  10.561
 7157W        W68688  11.669  11.359  12.341
 7158W        W68689  16.312  15.197   2.845
 7159W        W68690  26.178   2.742  10.409
 7160W        W68691  30.474  14.156  14.367
 7161W        W68692  17.281  34.494  13.319
 7162W        W68693  25.544  16.766   1.891
 7163W        W68694  40.322   6.242   0.920
 7164W        W68695  12.781  16.211  13.529
 7165W        W68696  32.905  18.154   2.733
 7166W        W68697   7.751  11.731   2.765
 7167W        W68698  14.196  32.122   2.751
 7168W        W68699  37.913  42.327  11.398
 7169W        W68700   2.286  34.532   3.223
 7170W        W68701  44.836  28.182  13.970
 7171W        W68702   3.242  44.383  12.457
 7172W        W68703  18.601  39.872  13.019
 7173W        W68704   7.254  14.254   3.843
 7174W        W68705   3.914  33.898  13.064
 7175W        W68706  42.863   8.766  13.918
 7176W        W68707  40.876  25.673   0.359
 7177W        W68708  40.525  12.137   5.101
 7178W        W68709   2.446  38.894  13.049
 7179W        W68710  22.176  16.284   1.421
 7180W        W68711  28.552   5.337   3.171
 7181W        W68712  41.881   6.425   0.807
 7182W        W68713   9.306   0.251  12.926
 7183W        W68714  35.448  12.163  11.879
 7184W        W68715  39.499  16.708  14.337
 7185W        W68716   3.351  23.589   0.852
 7186W        W68717  18.084  12.675  10.441
 7187W        W68718  25.104   4.881   3.839
 7188W        W68719  33.972  15.188  14.794
 7189W        W68720  41.297  42.924  12.895
 7190W        W68721  19.647  11.224  13.321
 7191W        W68722  30.143  37.039  14.932
 7192W        W68723   0.889  12.796   2.871
 7193W        W68724  38.359  27.058  10.982
 7194W        W68725  22.679  34.391   2.205
 7195W        W68726  36.462  24.159   4.279
 7196W        W68727  21.752   5.403   4.269
 7197W        W68728  42.396  22.735   4.116
 7198W        W68729  31.609  44.409   0.931
 7199W        W68730  35.522  26.563  10.420
 7200W        W68731  14.253  13.324   0.337
 7201W        W68732   0.816  11.845   5.174
 7202W        W68733  22.045  37.535  13.870
 7203W        W68734   5.844  20.077   2.272
 7204W        W68735  29.969  39.002  13.377
 7205W        W68736   0.385   4.338   4.213
 7206W        W68737  42.857   9.310   1.363
 7207W        W68738  18.257  39.030   0.811
 7208W        W68739  40.361  37.426  10.550
 7209W        W68740  26.003  24.144  13.793
 7210W        W68741  16.127   0.902   2.269
 7211W        W68742  12.217  27.066  11.545
 7212W        W68743  33.893  23.090  13.900
 7213W        W68744  31.634  23.197   3.704
 7214W        W68745   5.850  25.574   5.667
 7215W        W68746   0.395  17.801  13.521
 7216W        W68747  15.204  17.661   0.465
 7217W        W68748  39.973   1.935  13.919
 7218W        W68749   5.394  31.080  11.036
 7219W        W68750  42.477  43.973  10.605
 7220W        W68751  25.523  19.278  14.000
 7221W        W68752  35.874  36.572   4.717
 7222W        W68753  29.619   1.316   1.261
 7223W        W68754  34.583  43.451  10.618
 7224W        W68755  27.137  22.740  13.902
 7225W        W68756  29.532  18.063   2.276
 7226W        W68757  27.593  27.632  11.560
 7227W        W68758  43.474  44.480   1.810
 7228W        W68759  35.057  29.575   0.962
 7229W        W68760  41.446  23.116   3.339
 7230W        W68761   7.223  29.965   2.847
 7231W        W68762  15.118  27.162  14.909
 7232W        W68763  30.462  16.619   3.745
 7233W        W68764  13.270  42.819   4.642
 7234W        W68765  20.212  22.104  14.427
 7235W        W68766  21.191  39.036  14.364
 7236W        W68767  36.029  21.584  14.788
 7237W        W68768  26.556  34.466   0.449
 7238W        W68769  17.744  40.049   3.653
 7239W        W68770  24.502  42.412  11.475
 7240W        W68771   4.870  18.104   2.693
 7241W        W68772   0.900  20.219  10.480
 7242W        W68773  25.655  26.982   0.270
 7243W        W68774   6.280  28.621   0.966
 7244W        W68775  12.352  27.537  14.786
 7245W        W68776  39.061   9.161   2.841
 7246W        W68777   5.931  21.214   0.413
 7247W        W68778  19.681  23.501   2.281
 7248W        W68779   5.346  14.269   2.741
 7249W        W68780   7.219  17.621  10.414
 7250W        W68781   8.880  32.898  10.039
 7251W        W68782  20.128  35.915  13.061
 7252W        W68783  30.418  35.591  13.943
 7253W        W68784  15.700  25.189   1.883
 7254W        W68785  21.546  31.553   1.821
 7255W        W68786  12.319  38.469   4.712
 7256W        W68787   9.725  41.419   2.809
 7257W        W68788  18.219  26.147   0.946
 7258W        W68789  23.088  17.565  13.358
 7259W        W68790  11.351   7.813  12.028
 7260W        W68791  29.483  17.198   1.805
 7261W        W68792  43.959  20.187   0.429
 7262W        W68793  17.655   8.356   0.856
 7263W        W68794   4.933  30.972  10.528
 7264W        W68795  30.961  10.233   3.855
 7265W        W68796  14.202  10.182  14.404
 7266W        W68797   8.751  16.725  14.430
 7267W        W68798  42.506  20.641  11.388
 7268W        W68799  40.525   7.832  13.856
 7269W        W68800  26.194  13.617  11.001
 7270W        W68801  17.624  18.703  12.038
 7271W        W68802   1.770  25.150   1.250
 7272W        W68803   2.244  34.049  11.495
 7273W        W68804  18.077  23.540   3.753
 7274W        W68805   8.256  12.337  12.405
 7275W        W68806  24.658   4.906   1.254
 7276W        W68807  26.460  35.110   4.153
 7277W        W68808   8.687  15.720   5.260
 7278W        W68809  41.025  13.257  11.451
 7279W        W68810  27.578  31.149  10.114
 7280W        W68811  32.552  33.079   4.201
 7281W        W68812  33.071  17.090  12.386
 7282W        W68813   0.362  35.520  14.887
 7283W        W68814  13.171  41.476   4.649
 7284W        W68815  37.505  36.997  14.419
 7285W        W68816  26.669  30.482   3.640
 7286W        W68817  38.481  41.520   0.374
 7287W        W68818  30.108   8.390  11.374
 7288W        W68819  40.984  27.505   2.254
 7289W        W68820  21.552  31.479   3.825
 7290W        W68821  27.531  35.962  13.920
 7291W        W68822  17.699  41.914   0.816
 7292W        W68823  30.419  20.681   1.725
 7293W        W68824   4.226  18.127   0.899
 7294W        W68825   5.756   3.351   2.779
 7295W        W68826  37.856  41.041   3.753
 7296W        W68827  25.616  33.945  14.906
 7297W        W68828  38.529  19.129   3.774
 7298W        W68829  33.401  15.673   4.254
 7299W        W68830  25.113  40.889  10.984
 7300W        W68831  34.018  38.553  10.115
 7301W        W68832  18.652  34.376   0.859
 7302W        W68833  15.292  33.131  14.370
 7303W        W68834  15.700   7.276  13.343
 7304W        W68835   4.899  31.549   1.834
 7305W        W68836  40.369   3.274  13.058
 7306W        W68837  21.613  36.393   2.365
 7307W        W68838   8.210  19.691  12.910
 7308W        W68839  19.535  34.384  14.942
 7309W        W68840   7.689  43.999   4.337
 7310W        W68841  27.052   6.912   4.701
 7311W        W68842  14.833  40.337  14.954
 7312W        W68843  31.474  11.699   2.210
 7313W        W68844  39.919  12.799   5.677
 7314W        W68845   2.761  28.022  12.999
 7315W        W68846  31.646  27.551  14.392
 7316W        W68847  41.922  13.226   1.263
 7317W        W68848   3.455  25.199  13.053
 7318W        W68849  36.048   7.186   1.776
 7319W        W68850  30.451   7.847  13.862
 7320W        W68851   6.286   0.249  12.859
 7321W        W68852   7.171   9.391  13.826
 7322W        W68853  35.880  12.785  12.847
 7323W        W68854  24.717  43.485   3.862
 7324W        W68855  39.318  21.182  14.995
 7325W        W68856   0.954  11.746  12.431
 7326W        W68857  11.214  15.087   3.386
 7327W        W68858  39.006  33.054   1.354
 7328W        W68859  36.847  35.549   4.819
 7329W        W68860  26.518   6.766  11.566
 7330W        W68861  37.353  12.303  12.973
 7331W        W68862  34.878  37.409   1.327
 7332W        W68863  43.998  37.836  14.870
 7333W        W68864  20.711  16.600  13.334
 7334W        W68865  28.472  20.149  11.946
 7335W        W68866  20.764   6.863   4.342
 7336W        W68867  17.224   2.860   3.279
 7337W        W68868   7.765  32.459   0.848
 7338W        W68869   7.729  32.467  14.810
 7339W        W68870  42.293  31.469   4.351
 7340W        W68871  29.516   9.169  10.922
 7341W        W68872  16.183  14.636  13.443
 7342W        W68873  12.162   3.428  14.356
 7343W        W68874  35.985   7.698   1.394
 7344W        W68875  20.190  39.353   3.173
 7345W        W68876  15.589  23.491   1.843
 7346W        W68877  34.090  43.858  13.938
 7347W        W68878   6.362  36.579  10.934
 7348W        W68879   6.803  28.574  11.420
 7349W        W68880  41.842  20.114   0.311
 7350W        W68881  39.055   0.256   0.439
 7351W        W68882  38.829  34.907  14.763
 7352W        W68883  37.398  40.389   3.359
 7353W        W68884  40.313  26.534   4.141
 7354W        W68885  14.221   4.356  12.010
 7355W        W68886   3.262  14.724  10.434
 7356W        W68887  21.067   1.347  12.489
 7357W        W68888  23.217  25.563   1.340
 7358W        W68889  23.507  24.481  12.019
 7359W        W68890  28.587   3.339  14.420
 7360W        W68891  20.240  25.028  14.354
 7361W        W68892   7.184  41.340   3.655
 7362W        W68893  18.135  15.290   0.483
 7363W        W68894  37.994  44.390   3.741
 7364W        W68895  20.205  30.452  12.846
 7365W        W68896   7.838  15.697   4.606
 7366W        W68897  26.510   9.661  10.146
 7367W        W68898  44.992  23.638   3.660
 7368W        W68899   2.939   8.802  14.504
 7369W        W68900  22.561  13.763  11.591
 7370W        W68901   1.378  16.628  14.845
 7371W        W68902   4.711  22.594   1.310
 7372W        W68903  40.356   2.790  11.997
 7373W        W68904  43.335  17.277  12.980
 7374W        W68905   8.396   2.728   3.851
 7375W        W68906   7.892   3.846  11.099
 7376W        W68907  23.114   5.227   3.256
 7377W        W68908  19.189  34.932   3.351
 7378W        W68909  33.583   9.394  13.011
 7379W        W68910  29.503  24.690  13.832
 7380W        W68911  42.030  40.033   2.297
 7381W        W68912  23.138  14.714  13.492
 7382W        W68913   0.776  40.459  13.042
 7383W        W68914  20.203  29.669   5.105
 7384W        W68915  20.078  23.732   5.579
 7385W        W68916   2.318   7.862   5.316
 7386W        W68917  42.840  40.856  13.501
 7387W        W68918  17.148  32.518  10.944
 7388W        W68919  18.086  42.288  12.379
 7389W        W68920  38.549  29.052  12.529
 7390W        W68921  41.320  29.922  11.503
 7391W        W68922   0.373  38.513   0.307
 7392W        W68923  27.144  43.310   0.322
 7393W        W68924   9.273  32.906  13.326
 7394W        W68925  12.845  41.917   1.241
 7395W        W68926  28.185  38.386   2.203
 7396W        W68927  35.107   0.874  14.511
 7397W        W68928  24.723   2.353   0.805
 7398W        W68929  18.173  42.976  10.593
 7399W        W68930   2.875  10.832  13.375
 7400W        W68931  20.593  44.803  13.475
 7401W        W68932  31.095  17.273   0.806
 7402W        W68933  11.777  40.935   2.346
 7403W        W68934  11.717  28.452   2.332
 7404W        W68935  11.767  10.856  11.008
 7405W        W68936  34.979   9.807   2.876
 7406W        W68937  23.708  27.166  12.031
 7407W        W68938  16.123  23.689  14.516
 7408W        W68939  22.252  32.394  12.415
 7409W        W68940  17.095  19.763  12.540
 7410W        W68941  25.474   7.884   2.397
 7411W        W68942  29.057  26.111  14.948
 7412W        W68943  35.555  19.657   3.314
 7413W        W68944   7.378  41.959  13.481
 7414W        W68945   7.845   7.268   3.713
 7415W        W68946  12.286   8.671   1.403
 7416W        W68947  27.007  32.142  12.934
 7417W        W68948  18.594  34.541   0.379
 7418W        W68949  17.080  29.027  14.310
 7419W        W68950   1.761  38.972  14.809
 7420W        W68951  13.282  44.321  10.946
 7421W        W68952  28.147  20.653   4.629
 7422W        W68953  43.979  11.767  14.952
 7423W        W68954  18.115  26.630   1.841
 7424W        W68955   2.864  42.405  13.322
 7425W        W68956   9.775  42.514  13.825
 7426W        W68957  44.449  35.067  12.002
 7427W        W68958  11.826  34.886  10.051
 7428W        W68959  10.267  43.822  14.984
 7429W        W68960  29.031  22.606   1.242
 7430W        W68961  13.195  13.189   5.161
 7431W        W68962  39.841  42.888   3.638
 7432W        W68963   6.224   4.278  11.383
 7433W        W68964  40.984  16.095   2.714
 7434W        W68965  16.190  40.829  11.915
 7435W        W68966  11.725  40.369  14.466
 7436W        W68967  20.159  43.464  11.951
 7437W        W68968  40.892  18.665   2.205
 7438W        W68969   2.330  14.220   4.603
 7439W        W68970  28.023  40.445   3.830
 7440W        W68971   2.373  24.548   0.854
 7441W        W68972  37.877  43.509  12.473
 7442W        W68973   8.770  15.125  11.490
 7443W        W68974   2.413  34.068   3.187
 7444W        W68975  43.502  10.197   0.769
 7445W        W68976   5.308  17.673  13.926
 7446W        W68977  18.684  30.582  13.813
 7447W        W68978  27.169  23.181   4.793
 7448W        W68979  31.642  39.850   4.275
 7449W        W68980  22.551  26.156   2.312
 7450W        W68981  17.751  26.665  14.940
 7451W        W68982  24.498  20.178  13.792
 7452W        W68983  26.613  38.975   9.983
 7453W        W68984  17.114  17.148   2.788
 7454W        W68985  43.374  40.337   2.192
 7455W        W68986  12.672   7.373   0.453
 7456W        W68987  38.496   5.711   3.826
 7457W        W68988  39.411  19.546   2.259
 7458W        W68989  23.572  25.218  12.039
 7459W        W68990  11.621  23.241   4.192
 7460W        W68991  19.675  17.788   1.449
 7461W        W68992  38.411  18.191  13.408
 7462W        W68993  29.943  19.217   2.316
 7463W        W68994  27.588  29.129   4.228
 7464W        W68995  31.144  15.580  11.104
 7465W        W68996  13.637  29.519   4.675
 7466W        W68997  26.058  38.401   0.321
 7467W        W68998  43.826  43.788  11.605
 7468W        W68999  38.036  28.182  10.560
 7469W        W69000  25.196  39.367   2.764
 7470W        W69001  30.421  16.813  11.451
 7471W        W69002  18.135  25.681  13.836
 7472W        W69003  20.730  40.895  14.016
 7473W        W69004  28.183   9.156  14.288
 7474W        W69005   7.731  29.959  10.953
 7475W        W69006   3.875  10.191  14.354
 7476W        W69007  27.601  12.820  12.833
 7477W        W69008  22.743  10.689  11.105
 7478W        W69009  33.049  37.570   3.326
 7479W        W69010  11.823  38.465  10.597
 7480W        W69011  34.046  22.009   2.867
 7481W        W69012  28.676   1.274  14.307
 7482W        W69013  42.974  42.504   3.733
 7483W        W69014  24.619  10.209  12.545
 7484W        W69015  24.027  38.869   4.807
 7485W        W69016   4.364  14.331  11.991
 7486W        W69017  14.648  24.586   0.887
 7487W        W69018  18.581  44.329  12.018
 7488W        W69019  27.179  40.475  14.016
 7489W        W69020   1.415  41.366  11.996
 7490W        W69021  26.599  15.768   4.339
 7491W        W69022   4.204  30.487  13.041
 7492W        W69023  37.508  35.918  11.492
 7493W        W69024   7.193  44.384   1.785
 7494W        W69025  34.405  35.005   9.550
 7495W        W69026  44.831  28.077  11.580
 7496W        W69027  11.292  23.681  11.996
 7497W        W69028  26.631   7.178   4.608
 7498W        W69029  38.980  44.964   2.757
 7499W        W69030  16.087   1.383   0.321
 7500W        W69031  18.663  15.647  10.938
 7501W        W69032  16.135  39.871   2.728
 7502W        W69033  23.130  44.897   2.412
 7503W        W69034   5.273  19.713  12.983
 7504W        W69035  31.896  12.294  14.807
 7505W        W69036   4.439  14.764  14.814
 7506W        W69037  12.776  40.958   3.636
 7507W        W69038  37.044  26.024  12.074
 7508W        W69039  42.521  26.985  12.430
 7509W        W69040  21.568  44.001   3.277
 7510W        W69041  34.030  40.440  13.967
 7511W        W69042  29.162   2.309  11.550
 7512W        W69043  15.819  39.006  10.575
 7513W        W69044  18.788  14.303   2.384
 7514W        W69045  17.580  37.501  12.547
 7515W        W69046  27.606  28.064   4.150
 7516W        W69047  43.857   1.799   2.697
 7517W        W69048  41.404  41.354   3.847
 7518W        W69049   4.398  11.362  13.040
 7519W        W69050  32.452  18.190  13.349
 7520W        W69051  15.814  42.311   3.761
 7521W        W69052  33.909  12.181   3.760
 7522W        W69053  42.943  37.042   3.787
 7523W        W69054  34.421  15.715  12.506
 7524W        W69055   6.423  28.942   2.200
 7525W        W69056  24.484  38.375  11.103
 7526W        W69057  10.289  30.165  10.569
 7527W        W69058  32.494   5.321  11.541
 7528W        W69059  14.603  28.181   2.798
 7529W        W69060   4.901  30.970   4.122
 7530W        W69061  15.679  35.520  14.290
 7531W        W69062  14.744  21.223  11.414
 7532W        W69063   9.252  38.509  12.936
 7533W        W69064  11.656   3.340   1.389
 7534W        W69065   8.187  29.016   0.323
 7535W        W69066  21.515  36.484  10.538
 7536W        W69067  38.913  31.618  14.993
 7537W        W69068  30.543   5.319   0.347
 7538W        W69069  38.333  44.292  14.372
 7539W        W69070  20.044  15.664  13.965
 7540W        W69071  33.540  15.275   3.375
 7541W        W69072   2.861  28.625  13.536
 7542W        W69073  33.951  34.104  12.556
 7543W        W69074  26.546  22.165  12.909
 7544W        W69075  35.869   8.266   1.451
 7545W        W69076  34.569   1.924  12.504
 7546W        W69077  24.010  35.413   3.862
 7547W        W69078  38.400  38.009  13.341
 7548W        W69079   3.858  22.639  13.545
 7549W        W69080   9.200  23.128  11.021
 7550W        W69081  39.474  40.848  10.445
 7551W        W69082  15.720  17.177  14.422
 7552W        W69083  35.510   1.974  12.042
 7553W        W69084  11.808  12.793  10.931
 7554W        W69085  29.590   1.784   0.750
 7555W        W69086  10.143  18.617  13.036
 7556W        W69087  11.221   8.799  11.590
 7557W        W69088  25.615   2.309   0.442
 7558W        W69089  42.371  25.151   0.348
 7559W        W69090  19.774  33.562  13.512
 7560W        W69091  15.091  30.524   1.398
 7561W        W69092  22.627   9.790  12.025
 7562W        W69093  44.808  35.054   0.307
 7563W        W69094  33.594  42.424  11.505
 7564W        W69095  36.846  25.571  14.009
 7565W        W69096  39.861  39.947  13.503
 7566W        W69097  43.981  40.890   1.437
 7567W        W69098  29.072  29.652   2.839
 7568W        W69099  43.831   4.333   4.703
 7569W        W69100   7.197  15.204  10.643
 7570W        W69101  13.775  34.578  14.275
 7571W        W69102  42.421  21.670  12.865
 7572W        W69103  34.446  30.586  14.783
 7573W        W69104  10.702  32.450   4.224
 7574W        W69105   8.817  11.299   1.842
 7575W        W69106   9.166  41.850  11.105
 7576W        W69107  25.181  35.508   1.737
 7577W        W69108  26.629  17.649   1.811
 7578W        W69109  38.904   1.307  14.896
 7579W        W69110  27.184   4.881  12.576
 7580W        W69111  12.163  10.235  13.042
 7581W        W69112  15.693  11.254   0.456
 7582W        W69113  21.602  14.754  11.033
 7583W        W69114  32.426  17.631  14.893
 7584W        W69115  36.951  33.429  14.917
 7585W        W69116  37.962  19.568   0.736
 7586W        W69117  44.903   3.721   1.712
 7587W        W69118  39.542  37.362  13.831
 7588W        W69119  32.428  40.526   4.741
 7589W        W69120  29.975   4.282  13.023
 7590W        W69121  12.710  15.810   4.620
 7591W        W69122   5.874  34.891   3.348
 7592W        W69123   7.834  10.663   0.426
 7593W        W69124  21.246  25.688   3.848
 7594W        W69125  30.087  41.870  12.836
 7595W        W69126  35.879  10.831  13.527
 7596W        W69127   8.690  33.599   3.805
 7597W        W69128   0.281  25.061  14.963
 7598W        W69129  39.393  27.504  13.884
 7599W        W69130  28.132   4.713   1.399
 7600W        W69131  36.587  41.515  11.474
 7601W        W69132  15.233  14.638   4.118
 7602W        W69133  25.963  33.967   1.213
 7603W        W69134   5.380  32.396  13.319
 7604W        W69135  19.105   6.799   2.775
 7605W        W69136  17.193  37.992   3.308
 7606W        W69137  12.743  20.677   3.252
 7607W        W69138  35.090  25.695   4.322
 7608W        W69139  14.294  18.721   2.196
 7609W        W69140  11.711  40.858   3.813
 7610W        W69141  43.492  28.067   2.331
 7611W        W69142  26.565   0.946   3.225
 7612W        W69143  35.995  32.447  11.910
 7613W        W69144  40.843  39.924  12.893
 7614W        W69145  20.664  26.519   0.365
 7615W        W69146  30.597  30.557  10.968
 7616W        W69147   5.268   3.721  13.390
 7617W        W69148   0.296  27.977  14.422
 7618W        W69149  31.992  29.996   1.359
 7619W        W69150  24.613   5.917   3.173
 7620W        W69151   4.944  40.893   2.189
 7621W        W69152   0.284  26.641   4.212
 7622W        W69153  26.499  12.239   3.768
 7623W        W69154  25.165  31.633  12.044
 7624W        W69155  27.576   4.750  14.458
 7625W        W69156  39.359  19.246   0.455
 7626W        W69157  12.228  23.609  10.931
 7627W        W69158  23.492  35.072  10.609
 7628W        W69159  11.865  16.609   2.198
 7629W        W69160   0.283  11.308   1.387
 7630W        W69161  25.008   6.236  11.576
 7631W        W69162   2.395  14.134  11.513
 7632W        W69163  14.652  11.833  11.574
 7633W        W69164  12.638   7.718   4.789
 7634W        W69165  36.883  42.796   0.862
 7635W        W69166  24.119  36.959   4.703
 7636W        W69167  13.321  37.064  10.923
 7637W        W69168  37.973  25.067   0.296
 7638W        W69169  42.973  31.914  13.527
 7639W        W69170  35.052  35.902   2.741
 7640W        W69171  21.597   8.222   3.156
 7641W        W69172  16.665  16.778  13.836
 7642W        W69173  34.105  44.760   0.255
 7643W        W69174   2.427  16.092  14.911
 7644W        W69175  21.631  40.867   1.255
 7645W        W69176  34.913  36.012  12.996
 7646W        W69177  40.022  34.403   0.287
 7647W        W69178   6.781  42.836  14.846
 7648W        W69179  36.554  13.308   3.835
 7649W        W69180  19.695   2.832   2.867
 7650W        W69181  41.327   1.291  11.055
 7651W        W69182  23.693  12.198  14.508
 7652W        W69183  15.780  33.534   1.860
 7653W        W69184  41.971  16.254  10.962
 7654W        W69185   5.348  11.842  14.759
 7655W        W69186  38.017   3.751  12.457
 7656W        W69187  27.649  35.963   4.738
 7657W        W69188  33.512  29.027   2.308
 7658W        W69189   4.809  22.706  10.606
 7659W        W69190  33.974  26.187   0.834
 7660W        W69191  27.503  32.926   1.295
 7661W        W69192  23.607  16.699  10.513
 7662W        W69193  19.624   7.768  13.841
 7663W        W69194   8.817  38.528  13.794
 7664W        W69195  41.421  19.749   3.747
 7665W        W69196  21.250   6.785  11.974
 7666W        W69197  39.465  13.171   3.371
 7667W        W69198  27.464  22.214  14.770
 7668W        W69199  24.973  41.315  12.922
 7669W        W69200  20.223   8.403   3.163
 7670W        W69201  16.735  10.854   4.180
 7671W        W69202   3.878  30.489  13.378
 7672W        W69203  32.490  35.365   0.360
 7673W        W69204  40.916  37.368  10.465
 7674W        W69205  15.772   6.184  13.812
 7675W        W69206   7.854  20.676  11.899
 7676W        W69207  42.846  43.504   4.764
 7677W        W69208  39.944  19.187  11.567
 7678W        W69209   7.354  10.636  13.319
 7679W        W69210  41.428  25.013  14.441
 7680W        W69211   3.812   0.353  11.068
 7681W        W69212   7.375   6.883  12.845
 7682W        W69213   0.394  33.982   4.349
 7683W        W69214  44.811  21.041   2.389
 7684W        W69215   7.797  27.942  11.376
 7685W        W69216   0.830  21.537  10.522
 7686W        W69217  43.477  42.432  12.033
 7687W        W69218  24.495   9.356   0.325
 7688W        W69219  38.822  42.980   0.404
 7689W        W69220   9.172  40.874   1.289
 7690W        W69221  44.485  27.196  14.299
 7691W        W69222  10.260  21.697   4.336
 7692W        W69223  40.488  20.130   4.218
 7693W        W69224  12.310   2.901  13.356
 7694W        W69225  22.009  35.883  14.447
 7695W        W69226  28.930   1.435   2.751
 7696W        W69227  19.725  34.974  12.397
 7697W        W69228  31.074  22.159  11.918
 7698W        W69229   3.231  18.234  12.525
 7699W        W69230  42.937  27.558  13.483
 7700W        W69231  13.236   4.880  11.953
 7701W        W69232  22.169  36.005   0.846
 7702W        W69233  11.284   7.326  13.373
 7703W        W69234   3.764  16.107  14.762
 7704W        W69235   5.265  21.702  13.468
 7705W        W69236  10.726   4.377  12.845
 7706W        W69237  34.099  40.983   2.222
 7707W        W69238  18.598  13.609   0.433
 7708W        W69239  20.218   2.427   3.776
 7709W        W69240   1.258  44.277  11.392
 7710W        W69241  36.962  31.544  13.046
 7711W        W69242  27.594  14.170   0.266
 7712W        W69243  11.166  29.132  13.461
 7713W        W69244  15.190  23.207   1.843
 7714W        W69245  24.156   9.738   2.285
 7715W        W69246  27.111  42.812   3.785
 7716W        W69247   2.962  35.583  12.444
 7717W        W69248  28.962  37.375  14.353
 7718W        W69249  32.046  33.404  10.079
 7719W        W69250  44.872  26.544  13.935
 7720W        W69251  14.127  17.797  13.543
 7721W        W69252  15.206  11.723  13.500
 7722W        W69253  28.941  32.005   2.217
 7723W        W69254  30.419  26.495  13.546
 7724W        W69255   8.757  21.746  12.832
 7725W        W69256  20.211  19.157   4.607
 7726W        W69257   7.182  36.897  14.357
 7727W        W69258  23.187   8.366  11.071
 7728W        W69259  11.285  10.754   2.236
 7729W        W69260  29.938   9.839  13.825
 7730W        W69261  21.255  26.056  13.973
 7731W        W69262  37.833  36.033   0.853
 7732W        W69263  11.188   2.790   1.894
 7733W        W69264  19.749  13.161   0.856
 7734W        W69265  18.667   5.919   3.241
 7735W        W69266   0.331  41.455   4.709
 7736W        W69267  14.714  18.171   2.790
 7737W        W69268  10.379  14.186  14.823
 7738W        W69269  36.907  21.632  12.929
 7739W        W69270   0.989  34.527   0.736
 7740W        W69271   0.872  15.180  11.521
 7741W        W69272  17.776  13.691  10.495
 7742W        W69273  22.564   9.185   2.723
 7743W        W69274   1.305  26.681  13.332
 7744W        W69275  16.130  31.406   3.305
 7745W        W69276  17.586  17.666   3.338
 7746W        W69277  12.322  19.686  14.478
 7747W        W69278  44.302   6.292   0.245
 7748W        W69279  20.640  16.688  14.347
 7749W        W69280  10.774  18.638  13.407
 7750W        W69281  38.006  37.399   0.464
 7751W        W69282  32.583  14.251  12.413
 7752W        W69283  26.000  38.032  11.451
 7753W        W69284  42.316   1.768  12.013
 7754W        W69285  28.636  17.728   3.647
 7755W        W69286  18.578  44.784   1.784
 7756W        W69287  28.472   9.799  13.879
 7757W        W69288   5.335  32.078  11.461
 7758W        W69289   9.232  28.508   4.663
 7759W        W69290  43.768  33.553   4.199
 7760W        W69291  26.121  30.031   0.483
 7761W        W69292  16.115  19.602   3.222
 7762W        W69293  14.178  42.424   2.866
 7763W        W69294  33.471  33.477  14.361
 7764W        W69295   7.788  12.197  11.031
 7765W        W69296  16.189  39.444  12.574
 7766W        W69297  11.711   7.895  13.391
 7767W        W69298  41.304  14.265  12.091
 7768W        W69299  36.951  13.345  12.034
 7769W        W69300  27.041  19.262  14.999
 7770W        W69301  11.648  24.153   9.954
 7771W        W69302  33.475  12.335   3.305
 7772W        W69303  26.088   8.356   3.698
 7773W        W69304  25.963   3.412   0.433
 7774W        W69305  14.220  27.562  13.351
 7775W        W69306  17.101  16.766   4.655
 7776W        W69307  20.716  24.717  12.027
 7777W        W69308  11.779  19.253  12.492
 7778W        W69309  27.140  16.601  14.471
 7779W        W69310  44.901  43.368   1.908
 7780W        W69311  30.047  38.999  12.554
 7781W        W69312  39.361  38.426   0.480
 7782W        W69313  13.780   8.373   4.820
 7783W        W69314  36.428   3.845   4.719
 7784W        W69315   0.869  37.339   1.921
 7785W        W69316  24.540   8.810  11.528
 7786W        W69317  22.198  44.968  13.545
 7787W        W69318  25.668   9.306   0.471
 7788W        W69319  18.259  26.976   2.859
 7789W        W69320  29.964  32.609  13.359
 7790W        W69321   8.742  25.636   1.236
 7791W        W69322   1.888  11.301  11.379
 7792W        W69323  15.098  23.700   9.477
 7793W        W69324  11.370  39.873  11.123
 7794W        W69325  42.392  35.414   4.816
 7795W        W69326  25.650   5.199  12.543
 7796W        W69327  33.092   3.789   4.748
 7797W        W69328  43.925  34.611   3.806
 7798W        W69329  44.859  27.137  13.902
 7799W        W69330  44.372  38.979   0.938
 7800W        W69331  43.308  38.021  11.480
 7801W        W69332  37.356   5.367   1.289
 7802W        W69333  20.250   0.296  12.030
 7803W        W69334  18.609   5.216   1.924
 7804W        W69335   4.423  39.891  13.344
 7805W        W69336  25.114  31.492  11.379
 7806W        W69337  23.655  42.921   1.443
 7807W        W69338  38.057  10.724   0.766
 7808W        W69339  10.357  13.617  12.019
 7809W        W69340  36.495  21.223   2.801
 7810W        W69341  10.878  33.460   0.450
 7811W        W69342  27.648  37.857  10.510
 7812W        W69343  21.089  35.982   5.152
 7813W        W69344  31.447   2.230   1.765
 7814W        W69345  36.506   1.284  13.834
 7815W        W69346  20.621  44.482  11.527
 7816W        W69347  15.687  34.551  14.928
 7817W        W69348  25.607  36.538  13.919
 7818W        W69349  34.476  29.983  13.848
 7819W        W69350  30.162  35.068   0.877
 7820W        W69351  30.585  19.545  13.544
 7821W        W69352  22.644  35.554  11.610
 7822W        W69353  37.426   2.392   3.265
 7823W        W69354  29.165  41.458  14.998
 7824W        W69355  43.896  12.289  13.339
 7825W        W69356  19.195   6.366  12.047
 7826W        W69357   5.205  38.466  13.360
 7827W        W69358  14.232  17.094   0.827
 7828W        W69359  14.667  29.939   4.608
 7829W        W69360  26.576  37.544   4.824
 7830W        W69361  21.176  26.101  11.448
 7831W        W69362  39.336  44.924  13.435
 7832W        W69363  26.592  41.836   3.218
 7833W        W69364  44.886  22.030  13.061
 7834W        W69365  38.958   8.255   3.276
 7835W        W69366   8.208  20.039  11.518
 7836W        W69367   4.700   4.942   4.344
 7837W        W69368  19.271  41.884   2.265
 7838W        W69369  18.085  12.146   0.788
 7839W        W69370  26.197  39.347  10.923
 7840W        W69371  35.031  36.427  12.413
 7841W        W69372  38.330  39.985  12.858
 7842W        W69373   2.933  37.056  12.885
 7843W        W69374  22.220   4.214  14.878
 7844W        W69375  20.135  11.838   1.412
 7845W        W69376   7.683  13.179  14.911
 7846W        W69377  43.997   2.404   2.802
 7847W        W69378  11.341   3.815   0.954
 7848W        W69379  27.080  12.690   1.316
 7849W        W69380  21.700  15.270  11.486
 7850W        W69381  21.205  35.600  10.934
 7851W        W69382  27.649  39.064  13.416
 7852W        W69383  14.103  22.646  10.614
 7853W        W69384  11.325  30.475  11.497
 7854W        W69385   5.401  42.345  12.091
 7855W        W69386  39.425  10.685  10.577
 7856W        W69387   7.303  30.648   0.476
 7857W        W69388   8.752  34.611   4.714
 7858W        W69389  41.308   9.177   1.694
 7859W        W69390  36.548  28.971   2.788
 7860W        W69391  41.989  37.906  10.466
 7861W        W69392  20.638  43.871  14.999
 7862W        W69393  37.982  29.496   1.310
 7863W        W69394  43.287  43.270   4.667
 7864W        W69395  37.085  35.895  14.470
 7865W        W69396  19.047   3.828  11.473
 7866W        W69397  17.221   6.236   0.484
 7867W        W69398  41.507  34.883   1.268
 7868W        W69399   9.245  35.568   0.758
 7869W        W69400  33.066  29.517   2.218
 7870W        W69401  14.247  29.435  14.932
 7871W        W69402   2.460  18.205   3.307
 7872W        W69403   2.725  33.393  13.492
 7873W        W69404  25.175  20.706  14.801
 7874W        W69405  26.019   7.834   1.414
 7875W        W69406   3.883  42.974   1.349
 7876W        W69407  31.636  34.017   3.685
 7877W        W69408  35.479  44.894   0.823
 7878W        W69409   4.269   3.871   3.742
 7879W        W69410   0.466  26.565  10.586
 7880W        W69411  27.091   7.909  11.475
 7881W        W69412   1.371  14.720   3.344
 7882W        W69413  32.953   1.312   1.240
 7883W        W69414  41.998  12.625  10.923
 7884W        W69415  31.450  21.523  11.482
 7885W        W69416  39.349  35.015   2.219
 7886W        W69417   8.734  24.650  14.953
 7887W        W69418  14.133   3.931   4.259
 7888W        W69419  33.013   2.774   2.407
 7889W        W69420  17.260  39.559  13.918
 7890W        W69421   9.643   3.285  11.967
 7891W        W69422  40.526  37.857   4.601
 7892W        W69423  15.679   5.764   0.756
 7893W        W69424  33.514  16.305   2.343
 7894W        W69425  18.099   4.338   0.857
 7895W        W69426   1.884  40.035   3.672
 7896W        W69427  27.968  40.458   1.893
 7897W        W69428   9.681   2.721   3.284
 7898W        W69429  32.531   1.953  10.987
 7899W        W69430  20.644  15.606  11.458
 7900W        W69431  10.345   6.426   1.759
 7901W        W69432  17.644   6.310  10.995
 7902W        W69433  29.128   9.731  14.017
 7903W        W69434   3.443   7.321  10.448
 7904W        W69435  10.372  13.647  14.840
 7905W        W69436  44.998  42.453  14.857
 7906W        W69437  20.697   8.225  10.415
 7907W        W69438  43.948  29.108   4.822
 7908W        W69439  11.728  12.640   4.159
 7909W        W69440   7.339  13.648   0.947
 7910W        W69441  26.553   4.435  10.592
 7911W        W69442  32.057  24.506  11.081
 7912W        W69443  27.963  43.902  11.001
 7913W        W69444  24.655  13.658  10.483
 7914W        W69445   6.380  13.105  10.506
 7915W        W69446  30.563  36.058   1.281
 7916W        W69447  10.837  28.935   4.193
 7917W        W69448  42.797   2.374   2.358
 7918W        W69449  31.521  36.878  14.825
 7919W        W69450  25.678  24.120   1.297
 7920W        W69451  44.270  17.712   3.762
 7921W        W69452  35.018  39.360   0.385
 7922W        W69453  24.199  43.311  14.891
 7923W        W69454   2.343  18.267  14.415
 7924W        W69455  35.887  43.972  12.510
 7925W        W69456  38.405  14.299  13.412
 7926W        W69457   2.802  10.838   0.382
 7927W        W69458   4.254  37.464   1.908
 7928W        W69459  23.686  39.364  11.077
 7929W        W69460   0.955  23.533   2.354
 7930W        W69461  35.063  30.060  11.545
 7931W        W69462  20.115  37.528   4.264
 7932W        W69463  22.590  33.115  11.922
 7933W        W69464   7.262  13.264   4.316
 7934W        W69465   8.328  42.491  14.782
 7935W        W69466   0.360  14.284  13.467
 7936W        W69467  31.549   7.765  11.107
 7937W        W69468  32.936  14.766  14.804
 7938W        W69469  37.529  22.127  11.946
 7939W        W69470  14.209  13.234  10.970
 7940W        W69471  20.081   7.723   2.361
 7941W        W69472  20.532  13.339   0.769
 7942W        W69473  16.763  19.647   0.469
 7943W        W69474   1.478  29.976   4.706
 7944W        W69475   2.389  35.065  13.973
 7945W        W69476   0.810  32.030   2.203
 7946W        W69477  41.843   2.854   0.802
 7947W        W69478  36.426  34.556   1.845
 7948W        W69479  15.180  18.774   2.695
 7949W        W69480  10.657   4.829  11.498
 7950W        W69481   7.877  38.483   0.276
 7951W        W69482   9.644  16.679   2.214
 7952W        W69483   9.823  39.974   4.199
 7953W        W69484  28.632  21.027  14.894
 7954W        W69485  42.284  40.955  11.470
 7955W        W69486   8.663  28.079  12.848
 7956W        W69487  21.236  43.790  11.426
 7957W        W69488  12.296  29.016   0.443
 7958W        W69489   8.672  41.960   3.819
 7959W        W69490  35.895  12.788  10.154
 7960W        W69491  32.025  16.237   1.225
 7961W        W69492   9.686   8.214  13.408
 7962W        W69493  43.804   1.948   3.299
 7963W        W69494  16.287  23.205   3.713
 7964W        W69495  27.503   9.677  12.556
 7965W        W69496  17.287  33.460  12.882
 7966W        W69497   3.937  14.765   1.346
 7967W        W69498  40.958   0.807   3.152
 7968W        W69499  21.670   0.788  13.934
 7969W        W69500  16.657  21.130   5.249
 7970W        W69501  33.954   1.940  12.899
 7971W        W69502  10.275  17.196  13.373
 7972W        W69503  21.710  33.980   3.673
 7973W        W69504  27.979   0.913  14.946
 7974W        W69505  37.413  26.580  12.371
 7975W        W69506   6.679   7.738  13.530
 7976W        W69507  32.900  38.507   4.225
 7977W        W69508  14.696  14.196  13.902
 7978W        W69509  42.997  10.382   4.691
 7979W        W69510  21.030  30.096   2.393
 7980W        W69511  19.624  43.016  11.553
 7981W        W69512  40.347  10.157   3.641
 7982W        W69513  26.467  42.939  13.486
 7983W        W69514   3.720  13.305  12.430
 7984W        W69515  40.376   4.755   2.184
 7985W        W69516  44.501  16.167  12.985
 7986W        W69517   7.858  42.367  10.453
 7987W        W69518  41.412  35.895  12.906
 7988W        W69519  29.138   6.287  10.158
 7989W        W69520   0.769  41.995   2.732
 7990W        W69521  44.328  13.745   4.649
 7991W        W69522   7.354  13.821   3.851
 7992W        W69523  22.663  30.912  11.552
 7993W        W69524  20.198  34.013   2.728
 7994W        W69525  16.682   3.341  14.908
 7995W        W69526  35.007  35.488  13.029
 7996W        W69527   1.319  18.130   1.233
 7997W        W69528  26.523  24.154   3.650
 7998W        W69529  27.982  34.871   4.835
 7999W        W69530  13.351   3.885   4.683
 8000W        W69531   9.161  29.531   0.482
 8001W        W69532  29.163  20.525  14.500
 8002W        W69533  38.419  39.853  12.374
 8003W        W69534  35.422   1.274  12.415
 8004W        W69535   4.898   7.788   3.820
 8005W        W69536   0.405  11.630  10.964
 8006W        W69537  41.799  34.887  14.449
 8007W        W69538   6.237  34.994  14.770
 8008W        W69539  14.098  26.491  10.913
 8009W        W69540  10.713  21.593  11.076
 8010W        W69541  31.567   2.297  14.017
 8011W        W69542   1.870  23.057   4.637
 8012W        W69543   7.884   9.245   0.905
 8013W        W69544  24.190  27.168  10.613
 8014W        W69545   9.695  13.122  11.585
 8015W        W69546  18.761   3.869  10.567
 8016W        W69547  22.073  16.307   0.271
 8017W        W69548  39.914  35.440  12.869
 8018W        W69549  13.608  13.295  11.029
 8019W        W69550  37.952  30.164   0.475
 8020W        W69551   2.936  22.206  10.535
 8021W        W69552   7.357   6.744  14.985
 8022W        W69553  30.558  41.019  14.444
 8023W        W69554  39.993  14.201  12.378
 8024W        W69555  29.669   6.232  14.438
 8025W        W69556  38.862  38.370  14.971
 8026W        W69557  11.757  14.168  10.440
 8027W        W69558  32.048  32.606   3.642
 8028W        W69559   5.752  14.665  11.067
 8029W        W69560  20.613   4.811   1.428
 8030W        W69561  43.842   5.818  14.391
 8031W        W69562   7.861  18.668  11.406
 8032W        W69563  27.089   9.343  14.927
 8033W        W69564   6.837  15.201   1.341
 8034W        W69565   8.783   1.964  14.340
 8035W        W69566   7.177   5.414   3.835
 8036W        W69567  10.224  27.652   4.783
 8037W        W69568  12.651   1.431  10.536
 8038W        W69569  33.443  36.988  14.922
 8039W        W69570  19.546  44.949  12.915
 8040W        W69571  40.892  25.086  14.499
 8041W        W69572  14.618  25.017  13.049
 8042W        W69573  35.502   1.878  10.532
 8043W        W69574  15.578  34.956   0.934
 8044W        W69575   8.890  42.357  14.786
 8045W        W69576  23.022   8.852   3.638
 8046W        W69577   5.365  22.532   4.658
 8047W        W69578  10.657  32.064  12.399
 8048W        W69579  31.001   9.774   0.282
 8049W        W69580  12.154   2.263  10.058
 8050W        W69581  24.598   6.320  12.903
 8051W        W69582  20.220  13.836  13.893
 8052W        W69583  15.616   8.746   1.322
 8053W        W69584  44.865   4.880   1.842
 8054W        W69585  28.094  26.140  10.065
 8055W        W69586  26.572  26.140   0.275
 8056W        W69587  31.054  14.799  14.025
 8057W        W69588  10.699  35.099   4.172
 8058W        W69589  18.276  34.001  11.942
 8059W        W69590  21.101  22.528  10.908
 8060W        W69591  41.970  38.907   2.711
 8061W        W69592  13.113  10.265  11.052
 8062W        W69593  36.976  41.884  13.420
 8063W        W69594  41.461   4.893   1.437
 8064W        W69595  43.386  37.355   3.852
 8065W        W69596  26.087  33.951   3.846
 8066W        W69597   7.238  22.605   3.752
 8067W        W69598  36.464  35.900   2.830
 8068W        W69599  37.415  27.452   2.839
 8069W        W69600  37.353   9.207   2.408
 8070W        W69601  23.228  39.448  12.008
 8071W        W69602  43.504  14.184  12.351
 8072W        W69603  11.775  19.593   4.687
 8073W        W69604  14.334  39.045   2.690
 8074W        W69605  12.311  44.350   3.323
 8075W        W69606  23.490  13.238   4.210
 8076W        W69607  16.666   6.883   3.835
 8077W        W69608  18.238   2.269  13.401
 8078W        W69609  37.914  12.283  11.468
 8079W        W69610  20.227  43.882  11.589
 8080W        W69611   3.822  41.452  13.380
 8081W        W69612   1.476  26.591  11.916
 8082W        W69613  15.742  33.558  10.599
 8083W        W69614  30.596  14.819  14.826
 8084W        W69615  16.088  19.586   4.734
 8085W        W69616  33.493   5.249   2.739
 8086W        W69617  42.288  11.133  14.511
 8087W        W69618   4.757  36.416  14.801
 8088W        W69619  14.101  38.385  12.409
 8089W        W69620  34.043  42.414  12.500
 8090W        W69621  13.740   2.333  14.883
 8091W        W69622  21.199  19.727   3.741
 8092W        W69623  42.798  17.603   0.942
 8093W        W69624  13.838   2.237  10.491
 8094W        W69625   8.179  22.082  11.914
 8095W        W69626   4.264  11.839  12.447
 8096W        W69627  22.746  36.067   3.862
 8097W        W69628  37.507  40.893   1.422
 8098W        W69629   4.802   2.341   3.655
 8099W        W69630  36.855  24.549   2.181
 8100W        W69631  19.057  29.174   1.405
 8101W        W69632  12.353  22.520  14.006
 8102W        W69633  33.621  30.445  12.878
 8103W        W69634  31.436  14.588   0.475
 8104W        W69635  20.093  18.184   1.824
 8105W        W69636  22.187  31.042   1.868
 8106W        W69637  43.277  13.223  14.357
 8107W        W69638  14.779  44.830  13.505
 8108W        W69639  27.515  20.088   4.151
 8109W        W69640  40.343  29.956  11.906
 8110W        W69641   5.217  37.037   0.867
 8111W        W69642  19.770  29.966   4.251
 8112W        W69643  25.607  27.612  11.107
 8113W        W69644  15.268  21.214  14.299
 8114W        W69645  37.832  37.041  13.920
 8115W        W69646   8.397  36.841  12.005
 8116W        W69647   4.899  43.384   2.352
 8117W        W69648  38.061   0.829   3.367
 8118W        W69649  30.092  28.612   0.956
 8119W        W69650   9.832   4.373   5.140
 8120W        W69651   5.815  39.869  12.072
 8121W        W69652  33.399  35.101   2.804
 8122W        W69653  38.933  32.133  13.852
 8123W        W69654  43.442  41.842   3.277
 8124W        W69655  23.584  15.616   4.776
 8125W        W69656  29.098  31.986   1.342
 8126W        W69657  36.863  20.137  12.484
 8127W        W69658   6.736  39.913   3.735
 8128W        W69659  39.887  19.196  14.945
 8129W        W69660  42.811   3.221   1.394
 8130W        W69661  42.868  25.603   3.649
 8131W        W69662  16.577  10.325   0.794
 8132W        W69663  25.681  19.226  12.056
 8133W        W69664  41.333  29.063   2.401
 8134W        W69665  10.659   8.815   0.854
 8135W        W69666  28.984  26.574  10.630
 8136W        W69667  29.470  22.053  10.964
 8137W        W69668  27.067  39.459  10.980
 8138W        W69669  36.584  27.197   2.886
 8139W        W69670  28.519  16.582  10.489
 8140W        W69671   7.887   0.828   0.406
 8141W        W69672   6.321  12.281  13.948
 8142W        W69673  26.649   1.879   0.757
 8143W        W69674  41.338   8.335   3.197
 8144W        W69675  36.880  22.145   4.238
 8145W        W69676   8.800   0.398  11.046
 8146W        W69677  29.067  43.455   3.335
 8147W        W69678  13.114  26.689  13.319
 8148W        W69679  15.618  25.471  11.611
 8149W        W69680  24.666  26.096   0.245
 8150W        W69681  21.195  42.926  10.131
 8151W        W69682  14.766  41.381  12.828
 8152W        W69683  30.612  33.606  12.439
 8153W        W69684   4.719  27.956   1.215
 8154W        W69685  19.557  43.986   2.282
 8155W        W69686   8.365   3.278  13.799
 8156W        W69687  43.832  42.793   2.304
 8157W        W69688   4.356  21.218  14.023
 8158W        W69689  40.936   6.815   0.865
 8159W        W69690  29.476  41.856   0.870
 8160W        W69691  34.866   0.479  11.375
 8161W        W69692  16.173  40.900  11.479
 8162W        W69693  14.764  21.149  13.973
 8163W        W69694  22.167   8.870  12.354
 8164W        W69695   5.359  21.055  14.441
 8165W        W69696  34.582  25.083   0.832
 8166W        W69697  44.354  25.564   3.220
 8167W        W69698  32.626  22.533  14.958
 8168W        W69699   9.817  34.425   2.207
 8169W        W69700  16.207   2.774   2.861
 8170W        W69701  27.192  29.039  12.908
 8171W        W69702  12.806  20.655  10.954
 8172W        W69703  13.620  36.993  13.313
 8173W        W69704  27.082  11.865   0.404
 8174W        W69705  35.556  24.655  11.110
 8175W        W69706   8.160  24.613  12.916
 8176W        W69707  31.509  14.325  13.913
 8177W        W69708  15.595   1.338   1.735
 8178W        W69709  39.525  21.633  10.903
 8179W        W69710  39.998   7.837  14.910
 8180W        W69711  34.040   6.280  13.832
 8181W        W69712  21.018  17.667   0.864
 8182W        W69713   8.806  17.709  12.088
 8183W        W69714  32.885  20.613   4.142
 8184W        W69715  41.943  11.636  14.461
 8185W        W69716   9.790  26.595  13.478
 8186W        W69717  15.246  13.132  11.093
 8187W        W69718  11.760  21.529   0.730
 8188W        W69719   8.697  37.578  11.463
 8189W        W69720  42.878   6.843  12.865
 8190W        W69721  28.467  12.685  11.561
 8191W        W69722  15.238  40.025  11.433
 8192W        W69723  10.836  23.587   2.317
 8193W        W69724  29.040   6.372  14.946
 8194W        W69725  14.170   0.481  11.116
 8195W        W69726  24.700   5.207  12.007
 8196W        W69727  31.970  26.506   5.241
 8197W        W69728  36.001  13.707  12.880
 8198W        W69729   5.864  22.186  10.434
 8199W        W69730  16.204  32.507  10.935
 8200W        W69731  26.005  39.500   3.378
 8201W        W69732  21.229   2.855   0.340
 8202W        W69733  17.662  38.525  12.411
 8203W        W69734  44.387  28.940   1.279
 8204W        W69735  35.434  42.348  12.484
 8205W        W69736  22.648   4.353  13.883
 8206W        W69737   3.380  26.085   4.658
 8207W        W69738   6.367  23.631   4.215
 8208W        W69739  23.510  30.644  12.414
 8209W        W69740  18.070  10.696   3.314
 8210W        W69741  40.436  13.702   3.807
 8211W        W69742  40.902  37.451   4.209
 8212W        W69743  30.619  39.051  13.872
 8213W        W69744  39.360  14.682   0.286
 8214W        W69745  35.910  36.443   3.667
 8215W        W69746  39.975  16.222   0.294
 8216W        W69747   8.754   0.340   2.698
 8217W        W69748   8.176  41.989  12.836
 8218W        W69749  11.178  14.191   4.837
 8219W        W69750  30.004  10.756  12.962
 8220W        W69751  24.048  34.410  12.870
 8221W        W69752  29.555  10.663   0.885
 8222W        W69753  35.585   6.850   4.732
 8223W        W69754   9.196  10.281   3.855
 8224W        W69755  15.594  22.201  14.322
 8225W        W69756  13.200  17.203  14.359
 8226W        W69757  36.939   5.275   4.832
 8227W        W69758   4.315   1.270   2.827
 8228W        W69759  15.587  30.065  10.463
 8229W        W69760  29.055   4.752   2.711
 8230W        W69761  10.354  15.180   1.441
 8231W        W69762  22.578  22.733  12.084
 8232W        W69763   4.932   0.365  14.981
 8233W        W69764  32.562  31.079  12.914
 8234W        W69765  23.522  38.455   1.702
 8235W        W69766  24.570  26.650   0.483
 8236W        W69767   5.833  30.479  10.625
 8237W        W69768  31.105  29.069  13.414
 8238W        W69769  39.995  43.938   1.428
 8239W        W69770   7.320  15.626   3.210
 8240W        W69771  41.519  11.335  13.439
 8241W        W69772  23.628   1.344   1.814
 8242W        W69773   4.860  39.506   3.860
 8243W        W69774   5.775  41.331   0.245
 8244W        W69775   6.854   3.427  10.413
 8245W        W69776  21.049  16.231  13.374
 8246W        W69777  28.435  21.717  14.810
 8247W        W69778  40.960  35.909   0.866
 8248W        W69779  31.411  32.921  13.958
 8249W        W69780  23.024  37.419   2.403
 8250W        W69781  44.391  25.217  12.015
 8251W        W69782  36.493   4.388  12.542
 8252W        W69783  23.207   0.900  12.083
 8253W        W69784  16.656  11.231   0.780
 8254W        W69785   0.446  33.009  14.947
 8255W        W69786  13.252  30.088   3.730
 8256W        W69787   1.834  24.600  12.942
 8257W        W69788  42.500  18.751  14.441
 8258W        W69789  28.116  21.102   0.839
 8259W        W69790  44.901  21.240   4.266
 8260W        W69791  10.799   3.407   2.338
 8261W        W69792  12.615  34.600   1.451
 8262W        W69793  12.165  20.098   0.736
 8263W        W69794  38.514   8.776  10.541
 8264W        W69795  43.957  21.672   4.614
 8265W        W69796  34.898  14.133  10.612
 8266W        W69797   6.709  30.433  13.918
 8267W        W69798  16.765  31.146   2.375
 8268W        W69799   5.718   7.286   2.223
 8269W        W69800  39.017  24.193  10.636
 8270W        W69801  41.525  36.987   1.826
 8271W        W69802   3.820   5.348  13.374
 8272W        W69803  35.366  28.513  13.040
 8273W        W69804  33.120   4.932   0.752
 8274W        W69805   1.833  28.452   4.325
 8275W        W69806  14.802  11.178  13.394
 8276W        W69807  29.105  34.032   0.859
 8277W        W69808  15.593  38.906   0.333
 8278W        W69809  32.119   6.769  11.442
 8279W        W69810  12.227  38.839  11.090
 8280W        W69811  24.165  32.515   9.482
 8281W        W69812  22.631  14.227  13.548
 8282W        W69813   8.299  19.205  11.122
 8283W        W69814  21.167   4.903  12.465
 8284W        W69815  25.081  27.105   2.859
 8285W        W69816   0.791  21.064   4.670
 8286W        W69817  34.976  16.276  11.069
 8287W        W69818  29.158   0.947   3.633
 8288W        W69819   1.839  18.290  14.783
 8289W        W69820  22.145  30.634   1.369
 8290W        W69821   9.668   9.818   0.296
 8291W        W69822  29.048  38.994   0.829
 8292W        W69823  32.422  34.442   2.362
 8293W        W69824   9.157  20.524  11.000
 8294W        W69825  24.090  23.665  13.539
 8295W        W69826  29.979   3.933   3.863
 8296W        W69827  31.438  14.690  13.987
 8297W        W69828  44.470  39.861   1.784
 8298W        W69829  18.228  14.702   3.168
 8299W        W69830  44.265  43.402   2.353
 8300W        W69831  33.129  24.087  14.795
 8301W        W69832   7.903  19.607   2.750
 8302W        W69833  17.248  14.329   2.707
 8303W        W69834  13.350  27.457   1.379
 8304W        W69835  14.208  20.551   1.316
 8305W        W69836   7.310  31.640  10.443
 8306W        W69837  29.973  20.628   4.188
 8307W        W69838  37.971   7.896  12.977
 8308W        W69839  23.697  18.196  11.530
 8309W        W69840  38.842  14.199  13.866
 8310W        W69841  19.708   1.320   2.712
 8311W        W69842  43.322   0.754  14.893
 8312W        W69843   9.358  33.997  14.286
 8313W        W69844  17.141  16.660  12.050
 8314W        W69845  19.778   5.355   0.859
 8315W        W69846  41.503   1.947  12.524
 8316W        W69847   9.343  21.097   0.320
 8317W        W69848  12.348  24.185   2.680
 8318W        W69849   1.811  15.282   2.395
 8319W        W69850  31.436  26.154   4.330
 8320W        W69851   0.897  25.071  10.053
 8321W        W69852  19.214  22.643   0.904
 8322W        W69853  40.953  12.248   3.230
 8323W        W69854  25.530  18.577  13.002
 8324W        W69855  43.892  33.050  11.934
 8325W        W69856  39.929  14.270   4.776
 8326W        W69857  25.469  14.151   4.647
 8327W        W69858  27.123  16.256   3.266
 8328W        W69859  12.362   0.898  11.445
 8329W        W69860  20.046  17.224   4.322
 8330W        W69861  11.843  13.120  11.093
 8331W        W69862  21.153   4.770  11.929
 8332W        W69863  30.908   5.762  11.935
 8333W        W69864  16.208  22.600   2.277
 8334W        W69865  25.034  16.811  11.127
 8335W        W69866  17.133  42.400   2.665
 8336W        W69867  37.478  43.989  12.430
 8337W        W69868  19.610  27.499   3.798
 8338W        W69869  35.449  38.903  11.883
 8339W        W69870  11.684   2.924   2.691
 8340W        W69871  37.377   3.865  12.547
 8341W        W69872  36.469  31.547  11.059
 8342W        W69873  10.361   1.349   2.837
 8343W        W69874  15.132  22.556   3.710
 8344W        W69875  22.625  15.614   0.316
 8345W        W69876  22.644  10.204   5.132
 8346W        W69877  25.004  40.822   2.813
 8347W        W69878  14.221  31.472   3.804
 8348W        W69879  13.275  26.145  10.488
 8349W        W69880   9.380  38.970  12.380
 8350W        W69881  35.514  33.125   4.765
 8351W        W69882   3.395   6.830  10.902
 8352W        W69883  21.546  17.184   2.774
 8353W        W69884  31.928  34.080  12.011
 8354W        W69885  22.153  27.013  11.505
 8355W        W69886  44.386  36.853   1.296
 8356W        W69887  43.978  41.442  10.917
 8357W        W69888  34.425   0.816  11.427
 8358W        W69889  15.767  16.698  14.981
 8359W        W69890   6.788  21.217  14.786
 8360W        W69891  42.442  39.327  11.613
 8361W        W69892   9.748  35.375   4.271
 8362W        W69893  35.093  33.940   4.313
 8363W        W69894  14.159  10.367  12.060
 8364W        W69895  25.497  33.561   1.317
 8365W        W69896   8.227  22.105   1.329
 8366W        W69897  26.579  28.621  11.885
 8367W        W69898  19.120  43.438  14.485
 8368W        W69899   2.229  22.096   5.307
 8369W        W69900  39.559  26.497  12.554
 8370W        W69901  14.100  23.499  11.593
 8371W        W69902  41.481  39.999  14.303
 8372W        W69903  22.676   0.761  13.530
 8373W        W69904  32.003  16.078  14.901
 8374W        W69905  11.194   8.198   0.960
 8375W        W69906   7.791   4.425  13.398
 8376W        W69907   9.361  19.722   0.930
 8377W        W69908  18.170  26.090  11.880
 8378W        W69909  12.212  26.534   1.745
 8379W        W69910  35.542   2.722   2.212
 8380W        W69911  30.565   4.443   0.840
 8381W        W69912  42.856  42.873  12.443
 8382W        W69913  28.630  23.116  12.464
 8383W        W69914  26.690  13.275  12.572
 8384W        W69915  35.948  34.948   1.231
 8385W        W69916  22.526  41.303  14.017
 8386W        W69917  39.356  25.582   3.160
 8387W        W69918  15.689   0.768   5.311
 8388W        W69919  16.669  39.922  11.499
 8389W        W69920   3.780  40.990   3.639
 8390W        W69921  11.625  36.540   3.217
 8391W        W69922  18.646  17.795  10.592
 8392W        W69923  26.499  15.784   0.360
 8393W        W69924  10.161  30.580  14.901
 8394W        W69925  13.224  28.010   1.321
 8395W        W69926  25.667   2.943   1.338
 8396W        W69927  22.128  23.011   0.743
 8397W        W69928   4.865  34.526   2.684
 8398W        W69929  30.108  17.777   3.680
 8399W        W69930  25.598  11.200   1.796
 8400W        W69931  42.513  42.883  14.512
 8401W        W69932   7.863  20.750  10.603
 8402W        W69933   1.275  12.143  14.868
 8403W        W69934  28.493  25.989   3.649
 8404W        W69935  32.560  28.514   1.812
 8405W        W69936   9.223  19.077  14.787
 8406W        W69937  16.672  40.531  11.097
 8407W        W69938  29.087  11.219  12.436
 8408W        W69939   2.266  28.127   2.409
 8409W        W69940   2.878  44.343   2.262
 8410W        W69941  30.431  32.003   3.298
 8411W        W69942  24.046  18.554   3.264
 8412W        W69943  44.496   4.326  12.574
 8413W        W69944   1.377   7.889  11.950
 8414W        W69945  41.368  27.455   0.768
 8415W        W69946  34.085  33.114  10.492
 8416W        W69947  37.915  11.830   0.259
 8417W        W69948  34.945  36.034  12.364
 8418W        W69949  24.610  20.562   2.397
 8419W        W69950  10.339  22.625   4.832
 8420W        W69951  16.657  29.042  13.320
 8421W        W69952  27.072   0.329  10.623
 8422W        W69953  42.802  36.497   5.124
 8423W        W69954   3.371  33.109   0.959
 8424W        W69955  31.001  34.611   0.932
 8425W        W69956   4.826  26.647  14.480
 8426W        W69957  17.664  24.225   0.392
 8427W        W69958  44.874   3.448   2.339
 8428W        W69959  19.585  31.930  12.823
 8429W        W69960  21.029   0.943   0.862
 8430W        W69961  24.040  10.795   1.246
 8431W        W69962  30.139  29.596  12.059
 8432W        W69963  27.472   4.383  11.896
 8433W        W69964   5.233  10.682   2.850
 8434W        W69965  42.930  31.639   0.275
 8435W        W69966  24.167   0.306  14.856
 8436W        W69967   5.239  29.058   2.273
 8437W        W69968  10.703  37.342   1.833
 8438W        W69969   2.303  32.593  10.918
 8439W        W69970   8.247  40.032  13.815
 8440W        W69971  30.433  24.110   0.347
 8441W        W69972   9.745  18.179   1.250
 8442W        W69973  41.889  43.468   3.848
 8443W        W69974  35.538  22.120   3.267
 8444W        W69975  41.866  31.044   3.863
 8445W        W69976  19.551  35.983   1.857
 8446W        W69977  26.107  40.549   0.411
 8447W        W69978  44.357  10.677   5.186
 8448W        W69979  13.249  31.474   3.680
 8449W        W69980  44.803  23.492  13.817
 8450W        W69981  25.072  32.106   0.759
 8451W        W69982  40.458  37.027   2.716
 8452W        W69983  16.734  40.401   1.436
 8453W        W69984  11.724  17.222  14.423
 8454W        W69985  23.985   7.843   3.795
 8455W        W69986  39.457   2.291   4.317
 8456W        W69987   3.813   4.327   1.730
 8457W        W69988  36.413  27.115  13.379
 8458W        W69989   3.718  42.314  12.477
 8459W        W69990  44.757   6.371   3.675
 8460W        W69991   0.813  40.824  13.049
 8461W        W69992  34.079  31.571  13.389
 8462W        W69993  42.938  17.565   4.216
 8463W        W69994  24.543  43.436  10.919
 8464W        W69995   1.749   4.211   0.890
 8465W        W69996  35.536  18.106  12.021
 8466W        W69997  11.683  15.250  11.523
 8467W        W69998  38.948  27.026  11.922
 8468W        W69999  29.074  34.397  10.926
 8469W        W70000  29.549   3.426   1.752
 8470W        W70001  35.043  26.460   4.178
 8471W        W70002  14.748  22.094   1.828
 8472W        W70003  12.254   8.676   0.964
 8473W        W70004   2.275  26.552   2.869
 8474W        W70005  10.246  33.453  12.437
 8475W        W70006  42.439  12.767  10.896
 8476W        W70007  33.070  14.704  12.476
 8477W        W70008  13.112  34.059  10.093
 8478W        W70009   4.746  14.215   2.211
 8479W        W70010  13.254   8.878  11.120
 8480W        W70011  20.609   1.246   2.347
 8481W        W70012  28.067   0.303  12.437
 8482W        W70013  18.163  18.187  14.501
 8483W        W70014  31.642   6.312   0.378
 8484W        W70015  27.670  38.527   2.823
 8485W        W70016  32.063  25.600  13.873
 8486W        W70017   0.494   7.219  13.464
 8487W        W70018   7.289   5.688   2.310
 8488W        W70019  10.841  11.308   0.443
 8489W        W70020  23.727  27.094   3.867
 8490W        W70021  38.837  22.590   4.349
 8491W        W70022   4.258  36.011  10.449
 8492W        W70023   4.277  27.947   2.212
 8493W        W70024  41.312  24.975   3.792
 8494W        W70025  32.108   7.694   2.717
 8495W        W70026  29.157   2.832   0.876
 8496W        W70027  29.057  17.212  14.483
 8497W        W70028  36.439  31.532   4.755
 8498W        W70029  28.982  23.557  12.435
 8499W        W70030  10.782   3.774   3.382
 8500W        W70031  36.377  40.818   3.636
 8501W        W70032  14.601  44.850  12.027
 8502W        W70033  35.109  26.639  10.411
 8503W        W70034   0.742  25.970   0.900
 8504W        W70035  28.078  19.610   4.252
 8505W        W70036  26.023  17.677  14.014
 8506W        W70037  39.402  39.052  11.021
 8507W        W70038  32.099   9.821   4.352
 8508W        W70039  11.160  25.020  12.083
 8509W        W70040  26.000  28.527  14.779
 8510W        W70041  41.894   8.809   0.253
 8511W        W70042  37.833  20.156   4.628
 8512W        W70043  33.904  15.298  13.023
 8513W        W70044  10.717  44.342   2.255
 8514W        W70045  29.547  40.850  10.933
 8515W        W70046  39.937  38.913   0.330
 8516W        W70047   7.173  14.609   3.292
 8517W        W70048  20.728  14.322   4.341
 8518W        W70049   7.796   8.365  11.954
 8519W        W70050  19.758  44.423   2.293
 8520W        W70051  31.021  13.292   0.756
 8521W        W70052  34.372   2.362   0.846
 8522W        W70053  36.994   2.865  12.341
 8523W        W70054  33.505  29.088   0.446
 8524W        W70055   8.368  22.531  12.021
 8525W        W70056   9.716   3.715  12.399
 8526W        W70057  27.563  36.863   1.323
 8527W        W70058  12.834  31.620   0.852
 8528W        W70059  44.428  41.406  14.447
 8529W        W70060  35.444  26.670   3.298
 8530W        W70061  28.968  29.427  10.542
 8531W        W70062   8.188   8.235   1.281
 8532W        W70063  28.608  41.858   0.779
 8533W        W70064  27.943  34.964  13.854
 8534W        W70065  44.338   3.719   0.256
 8535W        W70066  19.274   8.841  11.577
 8536W        W70067   6.842  20.075  14.310
 8537W        W70068  23.666  26.526  11.889
 8538W        W70069  15.329  14.791  14.890
 8539W        W70070  37.048   7.334  14.932
 8540W        W70071  11.317   6.820   2.364
 8541W        W70072  24.052  34.481  14.363
 8542W        W70073   2.337   5.282   1.368
 8543W        W70074  13.333  39.484  11.902
 8544W        W70075  36.054  40.481   4.145
 8545W        W70076  12.755  37.463   5.258
 8546W        W70077  28.954  31.909   4.665
 8547W        W70078  15.122  43.362  12.509
 8548W        W70079  17.181  43.975  11.455
 8549W        W70080  16.653   0.429   0.778
 8550W        W70081  17.129  13.774  12.856
 8551W        W70082  23.206   7.719  13.862
 8552W        W70083  39.492  26.603   1.252
 8553W        W70084   8.202   4.857  10.593
 8554W        W70085  38.542  15.247  13.349
 8555W        W70086  23.035   1.811   3.759
 8556W        W70087   0.810  36.579   1.221
 8557W        W70088  31.426   8.782  13.460
 8558W        W70089  14.645   5.837   3.867
 8559W        W70090  15.592  30.951  13.882
 8560W        W70091  37.064  36.586   4.753
 8561W        W70092  34.376  30.521   0.905
 8562W        W70093   6.412  37.529  13.948
 8563W        W70094  40.442   1.946  13.421
 8564W        W70095  10.769   6.731   0.273
 8565W        W70096  16.649  19.072  13.424
 8566W        W70097  18.121  44.952   3.190
 8567W        W70098  26.955   9.691  11.906
 8568W        W70099  41.385  41.881  13.323
 8569W        W70100  44.816   0.319  13.503
 8570W        W70101  27.192  17.072  14.460
 8571W        W70102   8.201  26.204   2.278
 8572W        W70103  19.674  33.382  12.055
 8573W        W70104  12.706   0.970   1.251
 8574W        W70105  34.368  31.568  11.086
 8575W        W70106   5.874  44.479  13.482
 8576W        W70107   3.304   4.261   0.436
 8577W        W70108   1.411   5.423  11.444
 8578W        W70109  17.094  31.086   1.255
 8579W        W70110   3.853  11.271  14.819
 8580W        W70111   4.279  26.149   3.310
 8581W        W70112   9.192   4.904  14.988
 8582W        W70113  41.820  33.433  12.921
 8583W        W70114  36.973  18.569  10.519
 8584W        W70115   2.866   6.821  12.447
 8585W        W70116  34.992  42.455  11.401
 8586W        W70117  12.210   3.423  11.898
 8587W        W70118   3.456   6.755  13.879
 8588W        W70119  17.168  35.080  14.341
 8589W        W70120  42.011  33.097   0.408
 8590W        W70121  24.983  22.201  11.562
 8591W        W70122  22.625  41.533   0.784
 8592W        W70123  23.540  36.501  13.985
 8593W        W70124  44.410  43.913   4.286
 8594W        W70125  42.472  29.961  12.404
 8595W        W70126  13.338   2.924   4.287
 8596W        W70127  11.341  44.302  13.371
 8597W        W70128  29.639  29.593   2.346
 8598W        W70129  42.795  15.678   1.753
 8599W        W70130   7.795  19.086   1.340
 8600W        W70131  43.799  40.368  13.345
 8601W        W70132   0.767  37.364   3.323
 8602W        W70133  23.179   4.339   1.364
 8603W        W70134  40.502  12.626  10.012
 8604W        W70135  27.564   2.746  12.843
 8605W        W70136  16.310  13.707  14.922
 8606W        W70137   0.471  19.095  11.415
 8607W        W70138   0.260  10.710  12.581
 8608W        W70139  34.466  25.962  12.850
 8609W        W70140  28.638  25.217   2.200
 8610W        W70141  38.993  21.667  12.842
 8611W        W70142  15.716   9.780  14.430
 8612W        W70143  32.492  40.492  12.075
 8613W        W70144  19.662  38.891   1.864
 8614W        W70145  11.203   0.279   3.643
 8615W        W70146  44.339  43.832  11.105
 8616W        W70147  25.479  40.995  13.867
 8617W        W70148  14.735   2.884   1.698
 8618W        W70149  29.559   2.239   1.826
 8619W        W70150   0.400   6.902   1.804
 8620W        W70151  17.610   0.322   2.706
 8621W        W70152  27.504   1.829   3.210
 8622W        W70153  34.375   6.200  12.868
 8623W        W70154   3.239   9.698   9.943
 8624W        W70155  28.681   0.822   4.136
 8625W        W70156   4.336  41.024   3.279
 8626W        W70157   0.346   7.799  13.467
 8627W        W70158  26.043  25.011  11.534
 8628W        W70159  34.464  20.092  14.983
 8629W        W70160  44.367  14.108  12.013
 8630W        W70161  43.422  27.487   4.269
 8631W        W70162  43.313  29.988   1.285
 8632W        W70163   9.341  34.949  12.080
 8633W        W70164  19.683   7.698  11.007
 8634W        W70165  15.641  11.660   3.635
 8635W        W70166  11.359  34.986   2.816
 8636W        W70167  43.996  14.718  12.910
 8637W        W70168  16.173  25.173   4.256
 8638W        W70169  37.041   0.878  12.367
 8639W        W70170  38.450   7.318  10.084
 8640W        W70171  33.539  30.102   1.875
 8641W        W70172   5.400  39.543  12.048
 8642W        W70173  31.501  28.619   4.764
 8643W        W70174  17.584  43.861   4.664
 8644W        W70175  30.005  25.172  14.962
 8645W        W70176  15.202  16.675   4.175
 8646W        W70177   3.378  11.660   0.739
 8647W        W70178  20.716  15.784   4.151
 8648W        W70179  22.700  31.949   2.894
 8649W        W70180  38.525   8.371  14.822
 8650W        W70181  43.924  42.845   2.827
 8651W        W70182  15.816  37.562  10.437
 8652W        W70183  13.169  22.242  11.466
 8653W        W70184   8.882  18.781   1.758
 8654W        W70185  16.637  11.322  14.453
 8655W        W70186  37.570  30.448  13.825
 8656W        W70187  33.490  19.276  10.404
 8657W        W70188   0.761  38.861   5.187
 8658W        W70189   6.299   2.838   3.326
 8659W        W70190  40.421  14.296   5.307
 8660W        W70191  28.436   5.801  14.478
 8661W        W70192  41.793  39.017   4.614
 8662W        W70193   5.346   7.773  11.048
 8663W        W70194  43.348   8.690  14.930
 8664W        W70195   3.748  34.473  10.080
 8665W        W70196   2.851  15.300   3.725
 8666W        W70197  11.796  34.462   4.355
 8667W        W70198   2.914   9.364   3.256
 8668W        W70199  37.410   3.342  10.899
 8669W        W70200  42.003   9.724   1.427
 8670W        W70201  33.436  42.794   2.717
 8671W        W70202  41.433  30.995  13.379
 8672W        W70203  13.700  26.199   1.340
 8673W        W70204   9.178  29.469   0.918
 8674W        W70205  25.063   7.702   0.364
 8675W        W70206  39.951  34.389   0.749
 8676W        W70207  25.536  38.023  13.987
 8677W        W70208  21.702  30.484   1.933
 8678W        W70209  26.050  28.643  12.068
 8679W        W70210  34.971   3.306  14.991
 8680W        W70211  23.987  33.527   4.676
 8681W        W70212  23.696   3.744  10.611
 8682W        W70213  22.567  18.053  13.383
 8683W        W70214  30.568  10.304   4.711
 8684W        W70215   8.661  30.435  13.472
 8685W        W70216   3.276   7.409   1.329
 8686W        W70217  33.078  30.908  13.927
 8687W        W70218  16.284  12.805   2.782
 8688W        W70219  30.593   4.886   3.240
 8689W        W70220   5.863  23.192   1.401
 8690W        W70221  27.656  17.236  11.460
 8691W        W70222  23.212  12.776  12.434
 8692W        W70223  28.494  17.702  10.556
 8693W        W70224  38.031  12.338   5.149
 8694W        W70225  42.885  35.398  10.980
 8695W        W70226  38.362  39.955  12.082
 8696W        W70227   7.747   8.830   0.910
 8697W        W70228  44.944  15.176   4.281
 8698W        W70229  34.571  25.589  11.560
 8699W        W70230  44.429  23.090   1.292
 8700W        W70231  35.039  34.522  10.040
 8701W        W70232  42.952  14.244   0.824
 8702W        W70233   5.259  18.290  13.864
 8703W        W70234   6.397  16.226   4.705
 8704W        W70235  41.332  34.882   3.280
 8705W        W70236  11.802  15.182   0.827
 8706W        W70237  33.606   8.273  12.351
 8707W        W70238   7.824  27.574  13.913
 8708W        W70239  31.141   6.882   4.830
 8709W        W70240   4.708   8.830  11.894
 8710W        W70241  25.119  44.951   4.794
 8711W        W70242  15.648  38.964   2.367
 8712W        W70243  44.310   9.875   1.811
 8713W        W70244  19.279   6.909  13.000
 8714W        W70245  42.953  39.397  11.413
 8715W        W70246  17.217  34.526   3.852
 8716W        W70247  37.451  24.187   0.345
 8717W        W70248  23.719  34.953  12.459
 8718W        W70249  20.120  30.033  12.912
 8719W        W70250  43.458  27.021   0.363
 8720W        W70251  21.052  26.181  14.889
 8721W        W70252  36.962  16.695  13.452
 8722W        W70253  21.733  44.267  13.876
 8723W        W70254  12.756  44.913  10.637
 8724W        W70255  15.084  27.568  14.433
 8725W        W70256  16.245  41.346   4.288
 8726W        W70257  44.457  43.383  10.635
 8727W        W70258  36.899  40.918   3.739
 8728W        W70259  34.380  19.627  10.962
 8729W        W70260  27.942   0.362   3.788
 8730W        W70261  15.135  36.522   4.212
 8731W        W70262  40.351   4.899  11.076
 8732W        W70263  28.570   6.303  13.404
 8733W        W70264   3.751  11.720  10.423
 8734W        W70265   8.375  16.798   0.958
 8735W        W70266  12.611  12.626   0.367
 8736W        W70267  39.550  30.940  13.450
 8737W        W70268  25.480  42.327   3.203
 8738W        W70269  16.792   3.281  11.497
 8739W        W70270  19.120  35.955  10.954
 8740W        W70271  24.051   6.412   2.767
 8741W        W70272   1.361  29.110  11.902
 8742W        W70273   0.369  25.658  14.897
 8743W        W70274  38.931  11.784  13.019
 8744W        W70275  28.045  22.042  13.339
 8745W        W70276  20.607   0.752   3.666
 8746W        W70277  44.338  13.198   3.713
 8747W        W70278  19.070   3.268   4.815
 8748W        W70279  36.050  22.245  13.960
 8749W        W70280   7.760   5.376   3.313
 8750W        W70281  41.357  40.442   2.704
 8751W        W70282  24.622  38.388  13.488
 8752W        W70283  22.063  21.695   0.749
 8753W        W70284  30.160  23.506   1.259
 8754W        W70285  10.362   9.835   3.750
 8755W        W70286  30.559  31.643   1.768
 8756W        W70287  10.142  22.608  11.877
 8757W        W70288  12.720  24.501   0.882
 8758W        W70289  25.077  35.567  13.866
 8759W        W70290  18.716   5.363   3.220
 8760W        W70291  16.786   7.883   4.810
 8761W        W70292  29.457  35.900   1.886
 8762W        W70293  28.131  22.069  10.065
 8763W        W70294  17.704   3.341  11.385
 8764W        W70295  28.031  21.083  14.395
 8765W        W70296  30.582  41.325   0.429
 8766W        W70297  39.394  22.116  10.546
 8767W        W70298  36.027   6.387   0.835
 8768W        W70299  16.237  42.387  14.794
 8769W        W70300  24.549  31.021  10.998
 8770W        W70301  21.713  13.199   3.362
 8771W        W70302  19.101  21.171  13.508
 8772W        W70303   1.468  15.321   0.729
 8773W        W70304  14.313  27.038   0.751
 8774W        W70305  33.120  21.156   1.758
 8775W        W70306   1.964  29.600  12.009
 8776W        W70307  16.183  30.044  14.439
 8777W        W70308  29.167  13.611   1.732
 8778W        W70309   9.180   9.876   1.401
 8779W        W70310   9.176  31.511  13.446
 8780W        W70311  16.183  21.585  13.994
 8781W        W70312  39.944  16.651   4.754
 8782W        W70313   4.779  37.550   0.473
 8783W        W70314   1.312  16.729   0.882
 8784W        W70315  12.769  37.920   3.169
 8785W        W70316  21.684  37.354   3.814
 8786W        W70317  30.447  28.142  12.374
 8787W        W70318  19.227  30.457  13.436
 8788W        W70319  26.617  30.023  14.025
 8789W        W70320   9.286  24.615   4.789
 8790W        W70321  25.635   7.196   0.277
 8791W        W70322  40.500  21.677  14.501
 8792W        W70323  15.231  31.081   3.351
 8793W        W70324  18.740   0.368   1.375
 8794W        W70325  34.044   8.660   4.688
 8795W        W70326  16.602   8.712  13.535
 8796W        W70327  41.807  31.000  14.474
 8797W        W70328  28.516   3.788  10.889
 8798W        W70329  44.414  42.980  13.501
 8799W        W70330  16.185   5.355  11.379
 8800W        W70331  39.317  11.806   3.226
 8801W        W70332  31.115  37.855   2.196
 8802W        W70333  44.977  20.120   2.863
 8803W        W70334  28.166  28.952   1.784
 8804W        W70335   4.941  39.414  14.413
 8805W        W70336  29.509   6.266  13.901
 8806W        W70337  19.589   7.793   0.344
 8807W        W70338   9.879  17.092  12.981
 8808W        W70339  20.649  17.300  11.913
 8809W        W70340  39.512  42.502  11.049
 8810W        W70341  12.150  20.050  14.385
 8811W        W70342   9.156  20.228   4.611
 8812W        W70343  27.058   6.308   2.290
 8813W        W70344  35.587   8.880   2.689
 8814W        W70345  39.409  10.233  12.385
 8815W        W70346   2.459  43.859   4.635
 8816W        W70347  12.723  14.597   1.300
 8817W        W70348  21.128  43.492   4.253
 8818W        W70349  35.423   5.381  11.436
 8819W        W70350  10.762  26.980   3.239
 8820W        W70351  26.621  38.011   2.776
 8821W        W70352  11.763  14.120   0.296
 8822W        W70353  36.470  33.484   2.895
 8823W        W70354  41.332  18.198   2.802
 8824W        W70355  36.506  30.952  12.955
 8825W        W70356  27.467  27.064   3.203
 8826W        W70357  35.578  15.633   2.228
 8827W        W70358   3.845  38.344   4.749
 8828W        W70359   9.276  22.628   2.699
 8829W        W70360  44.822  30.490  12.041
 8830W        W70361  17.676  22.593  11.566
 8831W        W70362  26.123  11.302   4.788
 8832W        W70363  17.105  26.976  10.444
 8833W        W70364   8.334   6.826   1.255
 8834W        W70365  44.996  30.449   3.795
 8835W        W70366  43.803  25.013   3.203
 8836W        W70367  17.230  21.678  10.505
 8837W        W70368   3.274  15.621  12.017
 8838W        W70369  15.775  14.249  11.017
 8839W        W70370  29.520   2.345   1.313
 8840W        W70371  33.892  44.812   2.408
 8841W        W70372   4.920   2.929   2.181
 8842W        W70373  38.913  20.750   4.822
 8843W        W70374  39.463   5.848  13.963
 8844W        W70375  32.436  12.803  12.579
 8845W        W70376  13.312  22.593   4.648
 8846W        W70377  31.484  35.897   4.724
 8847W        W70378   8.179  26.061   0.260
 8848W        W70379  38.008   2.259   2.266
 8849W        W70380  14.326   6.697  11.862
 8850W        W70381   3.324  40.052   0.895
 8851W        W70382  20.693  30.132  13.339
 8852W        W70383  21.568  37.421  12.984
 8853W        W70384  22.097  35.051  11.129
 8854W        W70385  35.854  43.830   3.261
 8855W        W70386  32.610  16.810  11.612
 8856W        W70387  43.819  41.436   3.265
 8857W        W70388   9.316  21.097  14.899
 8858W        W70389  28.066  12.285   0.765
 8859W        W70390   7.782   2.262  10.132
 8860W        W70391  20.038   9.254  13.314
 8861W        W70392  23.151  41.475   2.795
 8862W        W70393  39.390  15.285  12.397
 8863W        W70394  33.508  16.117   3.854
 8864W        W70395  14.247  18.186   4.707
 8865W        W70396  27.468  44.967  11.444
 8866W        W70397   3.833  26.466   2.880
 8867W        W70398   0.867  17.150  14.436
 8868W        W70399  27.112  16.749   1.428
 8869W        W70400  34.056   2.407  11.590
 8870W        W70401  16.613  31.977  11.119
 8871W        W70402  10.218  22.595  14.986
 8872W        W70403  42.793  11.836  13.488
 8873W        W70404  30.076  33.078  14.340
 8874W        W70405  15.283  36.463   1.768
 8875W        W70406  35.456  29.040  14.294
 8876W        W70407  18.261  42.489   4.610
 8877W        W70408  14.704  33.973  11.049
 8878W        W70409   7.677  34.921   3.305
 8879W        W70410  43.833   0.974  11.573
 8880W        W70411  35.867   0.259  12.418
 8881W        W70412  26.112  30.526  11.472
 8882W        W70413  11.628  15.702   2.779
 8883W        W70414   9.704  44.814  14.983
 8884W        W70415   3.750  16.631  10.937
 8885W        W70416   5.885  13.830  12.951
 8886W        W70417  17.764  26.965   0.410
 8887W        W70418  39.517   7.392   4.803
 8888W        W70419  38.837  33.071  10.028
 8889W        W70420  38.363   7.867   4.669
 8890W        W70421  36.933  38.558  12.876
 8891W        W70422  26.154  35.597   3.685
 8892W        W70423   8.216  11.692   3.647
 8893W        W70424  38.885  10.288  10.021
 8894W        W70425  42.855  17.802   1.930
 8895W        W70426  33.450  40.434   2.884
 8896W        W70427  20.621  23.011  14.941
 8897W        W70428  41.919  42.284  11.443
 8898W        W70429  32.986  30.026   4.712
 8899W        W70430   6.863  19.767   3.304
 8900W        W70431   9.301  42.898  13.902
 8901W        W70432  16.109  34.113   4.616
 8902W        W70433  15.155   7.885   4.641
 8903W        W70434   6.684  26.686   2.794
 8904W        W70435  27.610   1.286   2.363
 8905W        W70436  37.033  28.583   2.333
 8906W        W70437  40.876  31.970  11.525
 8907W        W70438  18.140  31.453   1.900
 8908W        W70439  17.605   0.296   0.877
 8909W        W70440  13.319  32.114   3.194
 8910W        W70441  28.073   4.781  13.934
 8911W        W70442  20.561  18.296  10.552
 8912W        W70443  14.219   6.321   0.842
 8913W        W70444   7.388  34.108   2.786
 8914W        W70445   9.158   0.792   0.312
 8915W        W70446  15.103  30.615  13.336
 8916W        W70447   0.397  22.627   1.234
 8917W        W70448  32.924   2.909   4.755
 8918W        W70449  26.525  16.634  12.449
 8919W        W70450  34.958  28.006   2.273
 8920W        W70451  36.409  21.130   3.214
 8921W        W70452  15.653  32.477   3.265
 8922W        W70453  42.820  31.634   4.316
 8923W        W70454  42.440   8.350  13.350
 8924W        W70455  26.465  35.482  14.980
 8925W        W70456  34.110  34.520  14.501
 8926W        W70457   5.745  40.027  14.421
 8927W        W70458  34.021   2.790  11.047
 8928W        W70459  33.601  16.212  12.928
 8929W        W70460  30.100  26.658   4.692
 8930W        W70461   2.324  44.278   9.964
 8931W        W70462  21.198   1.242   4.709
 8932W        W70463  41.016  16.585   0.940
 8933W        W70464  40.935  26.177  12.439
 8934W        W70465  24.633  16.213   4.698
 8935W        W70466   5.793  37.947  13.042
 8936W        W70467  27.659  42.807  14.339
 8937W        W70468   2.299  38.457   4.242
 8938W        W70469   2.798  35.544   0.833
 8939W        W70470  14.270  36.471   1.771
 8940W        W70471  23.687  43.886   0.321
 8941W        W70472  16.692   0.895   4.287
 8942W        W70473  18.570   5.387   4.300
 8943W        W70474  37.574  44.372   3.806
 8944W        W70475  16.197   7.287  13.446
 8945W        W70476  34.504  30.555  13.326
 8946W        W70477  21.108  18.223  14.338
 8947W        W70478  31.152  40.530  12.466
 8948W        W70479  11.781  22.608  12.381
 8949W        W70480  13.116  22.682  10.989
 8950W        W70481  32.548  39.450   2.232
 8951W        W70482  11.736  34.070  12.393
 8952W        W70483  10.664   4.733  13.946
 8953W        W70484   5.833  42.371   4.186
 8954W        W70485   0.325   2.735  11.482
 8955W        W70486  37.579  24.688   4.117
 8956W        W70487  43.847  26.062   1.828
 8957W        W70488   8.752  15.324   2.237
 8958W        W70489  26.127  18.564   1.842
 8959W        W70490   7.789   7.362   9.992
 8960W        W70491   8.376  16.756  12.851
 8961W        W70492  40.944  39.032   2.325
 8962W        W70493   4.933   9.822  13.889
 8963W        W70494  15.118  24.553  14.987
 8964W        W70495  22.170  20.714   4.793
 8965W        W70496   0.783  37.528  10.617
 8966W        W70497  43.970  40.532  13.915
 8967W        W70498  28.050  18.570   0.419
 8968W        W70499  41.010  24.602  12.997
 8969W        W70500  24.140  21.750  14.818
 8970W        W70501  41.888  42.368  12.095
 8971W        W70502  42.836  16.222  12.845
 8972W        W70503   4.237   8.197   3.217
 8973W        W70504   6.307   8.262  11.988
 8974W        W70505  16.608  29.051  14.496
 8975W        W70506   4.204  17.722   0.740
 8976W        W70507   8.202  27.468   1.266
 8977W        W70508   2.889   5.731   0.333
 8978W        W70509  42.906  31.898  13.970
 8979W        W70510  36.985  42.024   2.371
 8980W        W70511  31.117  40.420   4.600
 8981W        W70512  37.887  21.620   1.890
 8982W        W70513   5.366  24.625  11.374
 8983W        W70514  39.819  29.149  11.984
 8984W        W70515  10.239  25.697   1.836
 8985W        W70516  43.419  13.844  11.889
 8986W        W70517  13.148   0.842   9.976
 8987W        W70518   4.425  19.707   1.791
 8988W        W70519  11.290  41.529   0.837
 8989W        W70520  36.005  11.222  13.014
 8990W        W70521  26.680   7.260   3.848
 8991W        W70522  32.898  21.225  13.515
 8992W        W70523  12.717  18.739  12.457
 8993W        W70524  31.423  16.161   0.354
 8994W        W70525  14.278  27.445  11.523
 8995W        W70526   1.283  43.275  13.949
 8996W        W70527  11.256  17.731  12.490
 8997W        W70528   7.383   7.902   2.334
 8998W        W70529   1.813  36.993   2.378
 8999W        W70530  10.716  34.997   2.327
 9000W        W70531  38.559  36.554   1.778
 9001W        W70532  27.017  35.886   0.297
 9002W        W70533  21.097   1.908  13.439
 9003W        W70534   0.441   7.359   4.266
 9004W        W70535  33.513  20.767  14.814
 9005W        W70536  21.254   0.276  13.507
 9006W        W70537  29.567  19.580   9.955
 9007W        W70538  31.053   2.351   0.285
 9008W        W70539  40.854  32.056   4.188
 9009W        W70540  24.551   5.884   1.833
 9010W        W70541   2.410   9.806  12.430
 9011W        W70542  31.006  42.348  10.609
 9012W        W70543  37.893  28.934   2.843
 9013W        W70544  11.323  32.989   2.741
 9014W        W70545  33.017  25.544  12.027
 9015W        W70546  39.532  30.151  12.054
 9016W        W70547  31.971  41.033   1.737
 9017W        W70548   4.782  20.269   3.205
 9018W        W70549  24.687   6.306   4.149
 9019W        W70550  21.164  28.929  12.925
 9020W        W70551  17.128  11.250   4.716
 9021W        W70552  35.026  22.562  12.922
 9022W        W70553  37.832   7.400   3.253
 9023W        W70554  35.011  14.737  14.845
 9024W        W70555  20.127  42.360   0.317
 9025W        W70556  25.522  24.490  11.392
 9026W        W70557   5.760   7.780  14.388
 9027W        W70558  23.666   4.392  11.499
 9028W        W70559  38.454   1.464  11.966
 9029W        W70560  40.801  42.287   0.280
 9030W        W70561  43.298   4.292   1.798
 9031W        W70562  34.991  40.954  14.468
 9032W        W70563   7.814  24.063  10.956
 9033W        W70564   5.875  37.836   0.776
 9034W        W70565  23.642  34.410  12.072
 9035W        W70566  31.470   2.849   4.117
 9036W        W70567   2.858   6.294  13.012
 9037W        W70568  31.581  35.514   4.698
 9038W        W70569  40.985   9.393  13.824
 9039W        W70570  21.213  28.097  13.411
 9040W        W70571   4.333   7.246   2.781
 9041W        W70572  19.278  38.047   2.365
 9042W        W70573   7.829  16.603  11.000
 9043W        W70574  20.205   0.889   2.884
 9044W        W70575   2.733  34.372   4.644
 9045W        W70576  27.087  16.318  13.477
 9046W        W70577  19.129  21.692  12.901
 9047W        W70578  14.788  36.049   0.793
 9048W        W70579  11.630  32.505  10.075
 9049W        W70580  44.861  14.601   3.765
 9050W        W70581  18.266  25.507   1.420
 9051W        W70582  18.760  14.106   4.162
 9052W        W70583  37.061  41.897  14.305
 9053W        W70584   8.225  24.222   0.955
 9054W        W70585  31.963  29.957   2.870
 9055W        W70586  12.638   0.767   4.298
 9056W        W70587   7.269   5.878  10.416
 9057W        W70588  10.308   7.361  11.586
 9058W        W70589   2.730  33.541   1.851
 9059W        W70590  39.538   8.691   2.705
 9060W        W70591   8.691   9.783   2.220
 9061W        W70592  40.460  37.071  14.979
 9062W        W70593  31.451   2.819  12.050
 9063W        W70594  26.541  40.909  11.011
 9064W        W70595  17.687  12.641   3.693
 9065W        W70596   9.752  14.299   2.298
 9066W        W70597   3.942  37.956   3.683
 9067W        W70598  44.273  36.025   2.673
 9068W        W70599  30.030  20.225  12.420
 9069W        W70600  15.796  22.183  14.767
 9070W        W70601  41.942  31.646   2.363
 9071W        W70602  40.835  34.458  12.505
 9072W        W70603   9.335  33.099  11.408
 9073W        W70604  25.176  16.595   4.310
 9074W        W70605  41.314  23.115  12.404
 9075W        W70606   4.252  18.185  14.026
 9076W        W70607  35.093  27.002  11.590
 9077W        W70608   2.896  43.326  11.495
 9078W        W70609  15.716  36.970   2.827
 9079W        W70610  26.575  13.680   2.319
 9080W        W70611  41.461  21.514  14.435
 9081W        W70612  31.616  10.684   4.812
 9082W        W70613  20.099  21.052   1.834
 9083W        W70614  41.787  34.498   2.210
 9084W        W70615  24.647  18.184   4.288
 9085W        W70616   8.897  44.259   0.385
 9086W        W70617  41.433   7.231  12.927
 9087W        W70618   8.355  44.945   4.652
 9088W        W70619  32.059  29.591  12.530
 9089W        W70620  25.535  36.509  11.108
 9090W        W70621  36.904  42.000  11.432
 9091W        W70622  28.108  36.427  13.977
 9092W        W70623  14.822  33.431  13.502
 9093W        W70624  16.602  14.236  10.544
 9094W        W70625  23.681  32.460  14.288
 9095W        W70626  34.500  42.999   1.386
 9096W        W70627  10.343  29.998   4.139
 9097W        W70628  12.831  40.401   3.363
 9098W        W70629   9.667   1.345  12.092
 9099W        W70630  40.340  14.253   4.686
 9100W        W70631  41.805   3.276   4.205
 9101W        W70632  21.557  10.734   1.444
 9102W        W70633   9.761  40.917   2.304
 9103W        W70634  30.137  33.921  13.830
 9104W        W70635  43.420  41.889   0.775
 9105W        W70636   7.869  12.647   2.215
 9106W        W70637  14.818  10.355  11.926
 9107W        W70638  29.607  40.405   3.323
 9108W        W70639  21.615  33.450  11.096
 9109W        W70640  28.065  22.733   0.917
 9110W        W70641  23.119  25.046   3.805
 9111W        W70642  43.488  27.982  10.482
 9112W        W70643  17.719   0.746  12.524
 9113W        W70644   0.908   6.244   1.274
 9114W        W70645  22.524  18.778   0.964
 9115W        W70646  12.742  12.719  11.428
 9116W        W70647   1.415  21.204   0.778
 9117W        W70648  29.482   1.761  10.154
 9118W        W70649   8.320  39.046   3.841
 9119W        W70650  15.625  38.976  14.820
 9120W        W70651  30.480   2.963   3.832
 9121W        W70652   6.914  16.731   1.926
 9122W        W70653   0.477  18.089  10.490
 9123W        W70654  12.334  35.452   4.226
 9124W        W70655  33.618  19.250  11.430
 9125W        W70656  18.616  39.462  12.923
 9126W        W70657  44.476   7.863  11.095
 9127W        W70658  24.722  25.167   1.856
 9128W        W70659  14.304  34.007   4.631
 9129W        W70660   7.768  18.165  12.445
 9130W        W70661   0.313  43.883  14.480
 9131W        W70662  20.537  17.738  11.024
 9132W        W70663   3.303   5.226   3.160
 9133W        W70664  44.431  33.927  14.274
 9134W        W70665  29.654  17.681   2.704
 9135W        W70666  24.523  18.108  10.914
 9136W        W70667  10.826  15.743  13.439
 9137W        W70668  44.874   9.293  12.447
 9138W        W70669  35.535   8.339  12.516
 9139W        W70670  18.618   1.829  14.828
 9140W        W70671  22.116  44.930  14.969
 9141W        W70672  20.741  32.562  10.900
 9142W        W70673  36.953  28.080   4.214
 9143W        W70674  33.992  26.680  13.508
 9144W        W70675   6.387   2.455   4.600
 9145W        W70676  17.790  41.920  13.359
 9146W        W70677  23.649  14.254  12.879
 9147W        W70678  13.706  42.005  12.345
 9148W        W70679  40.025  18.146   1.856
 9149W        W70680   5.822  32.991   0.895
 9150W        W70681  38.425  25.214   0.949
 9151W        W70682  33.904  31.022   4.647
 9152W        W70683   1.734  26.064  10.439
 9153W        W70684  38.387  35.862   2.811
 9154W        W70685  26.643  34.058   4.118
 9155W        W70686   4.752   4.831   4.716
 9156W        W70687  18.640  26.010  13.828
 9157W        W70688  16.202  32.916   0.888
 9158W        W70689  33.525  42.489   0.464
 9159W        W70690   9.196  22.549  12.033
 9160W        W70691  44.489  24.979  11.042
 9161W        W70692  18.747  11.347   2.351
 9162W        W70693  26.027  14.255  11.018
 9163W        W70694  29.919  25.047  14.513
 9164W        W70695  20.259  31.916  11.858
 9165W        W70696  26.497   7.893  12.840
 9166W        W70697  35.902  26.596  11.592
 9167W        W70698  41.914  27.677   1.698
 9168W        W70699  26.591  35.951  10.445
 9169W        W70700  12.768  28.641   9.940
 9170W        W70701  24.618  26.037  11.857
 9171W        W70702   6.904  21.652  14.353
 9172W        W70703  43.401  25.666  14.278
 9173W        W70704   0.791  18.126  14.513
 9174W        W70705  10.324   2.956  14.508
 9175W        W70706  36.555   4.289  14.788
 9176W        W70707  22.089   2.785   0.394
 9177W        W70708  43.475  17.184  12.495
 9178W        W70709  38.865  42.780   2.325
 9179W        W70710   5.836  39.977  10.509
 9180W        W70711  42.402  26.144   0.420
 9181W        W70712   6.898  24.479   2.815
 9182W        W70713  40.528  42.793  14.356
 9183W        W70714  15.681  23.621  11.946
 9184W        W70715  41.864  26.466  14.442
 9185W        W70716  39.004  28.478   1.715
 9186W        W70717  17.682  38.457   1.357
 9187W        W70718   4.245  19.749  14.416
 9188W        W70719  13.215  28.479  12.986
 9189W        W70720  12.170  14.174  14.513
 9190W        W70721  24.997   9.343  14.780
 9191W        W70722  26.996  25.661   0.805
 9192W        W70723  14.199  39.874   2.240
 9193W        W70724  26.484  13.333   2.755
 9194W        W70725   6.311  28.621  13.792
 9195W        W70726  42.882  14.624   3.704
 9196W        W70727  39.059  24.021   9.938
 9197W        W70728  13.116   8.224   2.307
 9198W        W70729  34.406  44.797   2.338
 9199W        W70730  17.794  37.910  12.346
 9200W        W70731  23.161  31.534   2.278
 9201W        W70732  21.695  14.316   0.949
 9202W        W70733   8.285  41.840   2.856
 9203W        W70734   0.372  10.271   2.744
 9204W        W70735  38.488  18.099  10.949
 9205W        W70736  39.390  28.569  11.449
 9206W        W70737  30.602  34.492   1.306
 9207W        W70738  42.912   7.745  13.427
 9208W        W70739  18.138  32.891  12.473
 9209W        W70740  19.766  33.986   1.824
 9210W        W70741  37.884  10.780   0.313
 9211W        W70742  32.041  25.648   0.953
 9212W        W70743   8.800  17.153  14.458
 9213W        W70744  44.985  13.186  13.445
 9214W        W70745   2.859  12.802   0.877
 9215W        W70746  24.175  39.929   5.269
 9216W        W70747  31.448  10.773   2.885
 9217W        W70748  36.056  35.021   0.818
 9218W        W70749  24.021  37.406   0.256
 9219W        W70750  16.157   8.365   1.786
 9220W        W70751   2.253  32.635   0.732
 9221W        W70752  13.332  21.612   0.955
 9222W        W70753  41.465  10.187   3.163
 9223W        W70754   3.234  16.748  11.992
 9224W        W70755  30.912  36.469   2.785
 9225W        W70756  29.042  30.092   1.700
 9226W        W70757   1.751  25.537  12.934
 9227W        W70758  36.057  37.915  13.064
 9228W        W70759   6.247  43.992   3.245
 9229W        W70760  34.608  39.925   4.261
 9230W        W70761  24.211  44.440   4.731
 9231W        W70762  16.604  32.528  11.872
 9232W        W70763   0.930  41.041   4.773
 9233W        W70764   4.281  25.076   2.770
 9234W        W70765  39.449   8.815  13.491
 9235W        W70766   0.915  26.602   4.811
 9236W        W70767   4.841  10.303  11.055
 9237W        W70768  13.636  25.469  10.554
 9238W        W70769   6.347  33.988   1.264
 9239W        W70770  13.331   6.724  10.470
 9240W        W70771  24.221  25.125   0.887
 9241W        W70772  25.526  38.365   0.261
 9242W        W70773  35.048  24.999   1.847
 9243W        W70774  10.677  29.551  10.500
 9244W        W70775  29.606  29.591  12.570
 9245W        W70776   3.247  25.483  11.124
 9246W        W70777  22.687  11.301  12.456
 9247W        W70778  18.226  32.630   2.223
 9248W        W70779  28.929  32.991   2.394
 9249W        W70780  13.331  38.490  14.868
 9250W        W70781  38.335  39.405   5.320
 9251W        W70782  28.994  39.064  12.914
 9252W        W70783  34.527  42.885  14.436
 9253W        W70784  28.147  34.935   2.343
 9254W        W70785  18.250  14.187  10.539
 9255W        W70786  32.937  20.266  12.039
 9256W        W70787  16.221   2.910   0.254
 9257W        W70788  12.356   9.802  11.002
 9258W        W70789   1.750  33.525  10.450
 9259W        W70790  35.527   7.836  14.440
 9260W        W70791  20.240   0.477  14.368
 9261W        W70792  40.806  34.513  10.418
 9262W        W70793  20.619  15.796   0.768
 9263W        W70794  34.944  38.364   4.318
 9264W        W70795  35.032  35.456  10.437
 9265W        W70796  41.320  37.973  13.917
 9266W        W70797  30.622  23.559  14.937
 9267W        W70798   7.407  10.289   3.846
 9268W        W70799  11.243   9.341   2.778
 9269W        W70800  14.135  23.016   2.390
 9270W        W70801  21.541  11.269  13.357
 9271W        W70802   2.432   2.777  11.859
 9272W        W70803  24.654  34.896   2.696
 9273W        W70804  18.604  20.704   0.913
 9274W        W70805  33.107  31.605   2.203
 9275W        W70806  15.656  39.368   3.851
 9276W        W70807  16.804  29.989  12.847
 9277W        W70808   3.239  36.584   2.273
 9278W        W70809  25.981  26.528   1.738
 9279W        W70810  10.198   3.461  12.461
 9280W        W70811  38.015   4.831   1.865
 9281W        W70812  10.270  28.160  10.564
 9282W        W70813  24.589  31.485   5.199
 9283W        W70814  26.203  43.490  11.907
 9284W        W70815  21.590  34.397  10.634
 9285W        W70816  44.899  43.380   4.770
 9286W        W70817  20.245  37.007   1.434
 9287W        W70818  34.610  39.428   0.788
 9288W        W70819  10.860  17.253   3.316
 9289W        W70820  28.038   1.919  12.909
 9290W        W70821  34.557  39.973   3.742
 9291W        W70822  33.530  42.398  10.422
 9292W        W70823  12.822   1.800  10.572
 9293W        W70824   9.224   8.203  11.496
 9294W        W70825  19.045   8.730  14.375
 9295W        W70826   3.357  21.056   5.309
 9296W        W70827  25.498  28.978  11.938
 9297W        W70828  17.629  26.994   4.798
 9298W        W70829   3.768  40.050  13.891
 9299W        W70830  38.002  32.628   0.763
 9300W        W70831  32.131  26.488   3.285
 9301W        W70832  25.975  25.110   1.720
 9302W        W70833  41.028  30.152   0.961
 9303W        W70834  15.202  42.001   1.217
 9304W        W70835  19.758  36.358  11.458
 9305W        W70836   4.410  39.908   4.224
 9306W        W70837   4.883  22.243   2.769
 9307W        W70838   2.834   1.901  11.488
 9308W        W70839  43.976  43.013   3.637
 9309W        W70840  17.594  16.791  13.823
 9310W        W70841  32.895   8.687   3.183
 9311W        W70842   4.713  34.415   1.227
 9312W        W70843  15.256  40.530   4.219
 9313W        W70844  18.752  27.957  12.823
 9314W        W70845  31.935  24.191   1.439
 9315W        W70846  13.709  43.322   0.846
 9316W        W70847  26.127  19.701   2.795
 9317W        W70848  10.264  39.369   2.369
 9318W        W70849  36.043  24.003  12.952
 9319W        W70850   6.879   5.259   4.743
 9320W        W70851  32.486  44.410   2.401
 9321W        W70852  37.911  20.199   2.227
 9322W        W70853  18.622  28.545   1.434
 9323W        W70854   8.398  17.690  11.015
 9324W        W70855  34.562  27.941   1.238
 9325W        W70856  19.755  44.823  13.365
 9326W        W70857  24.672   9.753   0.804
 9327W        W70858  41.323  14.225   1.927
 9328W        W70859   0.911  12.847   0.394
 9329W        W70860  24.089  16.610  10.415
 9330W        W70861  29.993  14.776  11.399
 9331W        W70862   2.902  41.417  14.500
 9332W        W70863  38.019   4.840  13.917
 9333W        W70864  33.414  34.555  13.872
 9334W        W70865   0.797  32.945   3.675
 9335W        W70866  18.692  19.655   1.451
 9336W        W70867  22.502   3.940  10.511
 9337W        W70868  11.247  18.555  14.453
 9338W        W70869   1.897  25.480  10.435
 9339W        W70870   3.399   0.804   1.918
 9340W        W70871  19.658  28.047  14.944
 9341W        W70872  38.061  16.252   4.194
 9342W        W70873  42.297  39.941  12.465
 9343W        W70874   2.957   2.333   4.224
 9344W        W70875  13.713   1.841  12.503
 9345W        W70876  32.923  31.069   2.355
 9346W        W70877  41.937  42.440  12.360
 9347W        W70878  28.105  44.794  12.991
 9348W        W70879  39.472   9.208   5.798
 9349W        W70880  43.958   5.928   0.726
 9350W        W70881  35.430  38.879  11.049
 9351W        W70882  21.184  31.900   9.934
 9352W        W70883  25.547  44.869   3.860
 9353W        W70884  13.762  29.629   4.311
 9354W        W70885   9.691  41.526   3.763
 9355W        W70886   6.293  10.368   4.731
 9356W        W70887  18.626   0.819  11.396
 9357W        W70888  42.470  21.209   3.198
 9358W        W70889  34.018   1.743   2.267
 9359W        W70890  26.064  12.236   0.756
 9360W        W70891  43.273  36.979  13.922
 9361W        W70892  35.462   2.459  11.076
 9362W        W70893  19.642  43.390  12.886
 9363W        W70894  26.694   1.455  11.412
 9364W        W70895  29.470  11.839  10.932
 9365W        W70896   8.747  37.454   0.404
 9366W        W70897  37.481  11.362  13.877
 9367W        W70898  24.082  43.444   3.241
 9368W        W70899   1.908  27.062  13.452
 9369W        W70900  22.641   7.395  11.042
 9370W        W70901  27.150  41.827   0.402
 9371W        W70902  44.777   3.795  12.961
 9372W        W70903   6.247  43.419   2.696
 9373W        W70904   4.393  37.026  13.478
 9374W        W70905   8.239  41.010  10.410
 9375W        W70906  39.413  37.475   0.870
 9376W        W70907   3.413  24.578  13.048
 9377W        W70908   4.939  35.471   0.353
 9378W        W70909  21.076  23.583   3.667
 9379W        W70910  37.441  38.900   3.801
 9380W        W70911  31.906  16.617   4.681
 9381W        W70912  38.948   0.404  12.895
 9382W        W70913  38.061  24.492   2.415
 9383W        W70914  13.275   5.436  10.519
 9384W        W70915  27.963  42.430   1.834
 9385W        W70916   4.322  43.893   4.601
 9386W        W70917  16.210  31.998   5.149
 9387W        W70918  31.932   1.416  12.906
 9388W        W70919  17.798  35.098   2.736
 9389W        W70920  19.685  23.508  11.599
 9390W        W70921  38.907   8.389   0.942
 9391W        W70922  37.388   7.297  11.002
 9392W        W70923  38.490  43.829  14.294
 9393W        W70924  42.954  26.592   0.761
 9394W        W70925   6.785  44.301  14.981
 9395W        W70926  17.683  32.920  12.520
 9396W        W70927  31.961   9.302   2.870
 9397W        W70928  34.915   1.465   1.744
 9398W        W70929  43.778  29.158   3.830
 9399W        W70930  38.826  34.533   2.269
 9400W        W70931  14.221  35.070  13.825
 9401W        W70932  13.759  14.163  11.381
 9402W        W70933  11.804  21.740   3.852
 9403W        W70934   3.783  33.072  14.436
 9404W        W70935   6.879  12.708   4.269
 9405W        W70936  37.405  39.327   0.337
 9406W        W70937  32.103  43.987   4.700
 9407W        W70938  21.628   4.930  10.531
 9408W        W70939   0.842   1.959  11.979
 9409W        W70940  19.261  19.748   2.792
 9410W        W70941  22.666  12.777   5.245
 9411W        W70942  43.775  25.675   4.738
 9412W        W70943   6.190  11.217  11.503
 9413W        W70944  28.446  40.934   1.930
 9414W        W70945  16.681  36.521   0.483
 9415W        W70946  29.430   7.234  13.387
 9416W        W70947  44.394  10.275   2.762
 9417W        W70948  11.283  32.491  13.446
 9418W        W70949  19.240  22.154  11.039
 9419W        W70950  27.586  30.122   4.797
 9420W        W70951  43.911  10.737  13.944
 9421W        W70952  41.941  41.339  13.370
 9422W        W70953   3.391   0.361   0.769
 9423W        W70954  10.656  17.590  10.508
 9424W        W70955  42.482  24.568   3.186
 9425W        W70956  30.930  24.690  14.412
 9426W        W70957  22.744  42.361  12.536
 9427W        W70958   2.428  25.185  11.536
 9428W        W70959   1.944  38.515  12.573
 9429W        W70960  43.375   0.443  13.984
 9430W        W70961  41.310   9.278   3.182
 9431W        W70962  19.160  23.180  13.409
 9432W        W70963   1.825  14.259  11.882
 9433W        W70964   7.839  41.385   3.844
 9434W        W70965   3.928  39.814   0.369
 9435W        W70966  41.395  39.495   3.804
 9436W        W70967  10.209  19.631  12.823
 9437W        W70968   5.700  38.900  14.931
 9438W        W70969  23.723  44.475  11.126
 9439W        W70970  33.004  30.485   0.481
 9440W        W70971  19.082   8.848  12.550
 9441W        W70972  16.722  35.591  11.103
 9442W        W70973  19.629  30.581  12.840
 9443W        W70974  24.064  17.118   0.745
 9444W        W70975  41.334  40.347   0.397
 9445W        W70976   6.902  36.452  13.356
 9446W        W70977  21.220   9.794  12.938
 9447W        W70978  19.130  31.478   2.410
 9448W        W70979   6.728   6.371   4.690
 9449W        W70980  39.507  32.087   5.272
 9450W        W70981  37.879   8.367   2.299
 9451W        W70982  11.215   4.840   2.348
 9452W        W70983  26.681   8.668   0.408
 9453W        W70984  26.962   3.419  10.598
 9454W        W70985  27.161  44.439  14.953
 9455W        W70986   6.874  11.133  12.912
 9456W        W70987  33.415  39.362  11.911
 9457W        W70988  35.997   4.891  11.872
 9458W        W70989  33.094   2.885  13.488
 9459W        W70990  14.778  42.336   0.306
 9460W        W70991  28.466  16.712  14.807
 9461W        W70992  36.907  16.715   5.303
 9462W        W70993   2.895   9.711   0.906
 9463W        W70994   8.275  26.158   4.304
 9464W        W70995  39.374  44.808   2.417
 9465W        W70996  35.415  42.289   0.934
 9466W        W70997  10.849  32.490   1.789
 9467W        W70998  41.380  33.536   1.378
 9468W        W70999   8.827  24.626  11.961
 9469W        W71000  29.620  35.109  14.873
 9470W        W71001   2.780   6.698  12.975
 9471W        W71002   4.848  19.134  11.119
 9472W        W71003  12.680  17.147   1.388
 9473W        W71004  18.556  43.426  12.094
 9474W        W71005  12.326   7.192  12.841
 9475W        W71006  23.996  18.194   4.202
 9476W        W71007  12.312   6.391  10.940
 9477W        W71008  12.266  44.769  10.506
 9478W        W71009  17.297  35.564  14.863
 9479W        W71010  13.345  43.875   2.381
 9480W        W71011  24.098  42.513  13.799
 9481W        W71012   2.726  30.125  11.902
 9482W        W71013  42.288  44.280   3.176
 9483W        W71014   0.748  16.105  13.458
 9484W        W71015  39.964   7.884   1.240
 9485W        W71016  42.476  42.381   1.410
 9486W        W71017  32.923   8.379  14.372
 9487W        W71018  26.144   6.221   4.720
 9488W        W71019  37.514  25.984   1.898
 9489W        W71020   9.188  22.606  10.104
 9490W        W71021  29.128  26.604  12.825
 9491W        W71022   9.862   8.734  12.373
 9492W        W71023  40.810  29.038  10.446
 9493W        W71024   1.391  14.662   2.299
 9494W        W71025  38.385  18.280   4.331
 9495W        W71026  37.003  40.358  14.389
 9496W        W71027  40.333  23.674  12.502
 9497W        W71028  17.762  27.112  11.074
 9498W        W71029   7.222  41.489   3.214
 9499W        W71030  38.466  25.990   4.785
 9500W        W71031  24.081   3.377   1.211
 9501W        W71032  35.427  35.088   2.830
 9502W        W71033  14.218   6.224   1.853
 9503W        W71034  42.511  17.213  10.448
 9504W        W71035  23.066   5.870  11.931
 9505W        W71036  31.066   9.792   4.178
 9506W        W71037  11.622   9.260   3.863
 9507W        W71038  17.606  25.652   3.186
 9508W        W71039  24.514  20.648   3.849
 9509W        W71040  32.016  20.222   0.242
 9510W        W71041  44.361  33.015   0.312
 9511W        W71042  23.538  18.227   1.419
 9512W        W71043  27.180  17.101  13.515
 9513W        W71044   3.888  27.153   2.199
 9514W        W71045  39.832   7.871   1.926
 9515W        W71046  44.852  37.930   1.833
 9516W        W71047  36.550  10.378   1.328
 9517W        W71048  21.136   1.904   4.190
 9518W        W71049  28.150  34.029   1.416
 9519W        W71050  30.154  38.863   2.336
 9520W        W71051  13.112   3.926   4.190
 9521W        W71052   8.690  21.212  13.391
 9522W        W71053  28.159   0.264   1.730
 9523W        W71054  11.228  15.084   0.806
 9524W        W71055  17.576  44.478  13.865
 9525W        W71056   9.684  22.653  13.814
 9526W        W71057   6.908  41.477  13.881
 9527W        W71058  43.932  38.484   0.441
 9528W        W71059  26.045  44.307  13.856
 9529W        W71060  40.376  23.543  10.521
 9530W        W71061  10.263  25.652  13.477
 9531W        W71062  38.556  44.272   0.747
 9532W        W71063  25.095  31.596  14.336
 9533W        W71064  43.501  36.091   1.380
 9534W        W71065   1.330  31.613   0.445
 9535W        W71066  16.807   9.341  11.908
 9536W        W71067   3.219  32.963  10.544
 9537W        W71068  40.895  42.941  13.532
 9538W        W71069  17.580  36.364  10.554
 9539W        W71070  19.565  23.558   1.217
 9540W        W71071  20.230   1.346   3.689
 9541W        W71072  43.862   8.708   0.855
 9542W        W71073  18.560  13.794  11.605
 9543W        W71074   2.285  22.998  14.767
 9544W        W71075  29.017  40.016  14.832
 9545W        W71076  14.804  35.424   3.691
 9546W        W71077  26.597  14.136   1.776
 9547W        W71078  30.996   1.326  12.537
 9548W        W71079  26.657   6.790  14.027
 9549W        W71080   2.754  40.984   0.371
 9550W        W71081   3.308   8.194  12.916
 9551W        W71082  11.862  24.513   3.736
 9552W        W71083  16.166   6.201  14.928
 9553W        W71084  24.570  24.582   2.720
 9554W        W71085   0.815  19.180  12.983
 9555W        W71086  37.053   7.826  10.524
 9556W        W71087  22.207   2.317  11.584
 9557W        W71088   2.804  43.843  12.981
 9558W        W71089  12.689  43.968   4.298
 9559W        W71090   5.214  11.718  13.499
 9560W        W71091  40.811  28.050  10.569
 9561W        W71092  39.981  14.743   3.231
 9562W        W71093   4.744   4.337   2.331
 9563W        W71094  10.691  37.899   2.827
 9564W        W71095   5.367  31.036   3.336
 9565W        W71096   9.691   1.900  12.073
 9566W        W71097  39.010  10.833   1.894
 9567W        W71098  27.189  28.446   4.248
 9568W        W71099   2.755  32.092  12.384
 9569W        W71100   0.879  17.666   3.707
 9570W        W71101  22.162   9.211   0.896
 9571W        W71102   5.850  22.655   0.297
 9572W        W71103  12.835   1.482   3.197
 9573W        W71104  35.369  10.821   1.771
 9574W        W71105  27.121  11.666  14.782
 9575W        W71106  44.290  27.011  11.929
 9576W        W71107  34.960  44.313   9.930
 9577W        W71108  13.713  42.945  10.999
 9578W        W71109  34.504   2.800  13.966
 9579W        W71110  33.940  34.597  11.948
 9580W        W71111  38.821  39.979  10.925
 9581W        W71112   8.382  32.489   0.445
 9582W        W71113   0.950  44.358  13.859
 9583W        W71114  42.962  32.027  10.924
 9584W        W71115  42.506  36.891  13.823
 9585W        W71116  19.671  31.067   1.442
 9586W        W71117  15.143  13.116  11.444
 9587W        W71118  26.653  35.026  10.480
 9588W        W71119  22.542  43.781  13.952
 9589W        W71120  27.093  14.701  11.908
 9590W        W71121  25.521  25.532  12.838
 9591W        W71122  40.845   1.330   1.866
 9592W        W71123  38.020  14.321  12.835
 9593W        W71124   6.789   8.842  11.919
 9594W        W71125  38.459  34.553  14.031
 9595W        W71126   9.800  24.522  11.453
 9596W        W71127  36.393   0.891   3.766
 9597W        W71128   9.185  39.878   4.146
 9598W        W71129  27.559   2.415   4.251
 9599W        W71130  41.295  14.776  12.339
 9600W        W71131  19.723  10.815   2.775
 9601W        W71132   3.856   6.680  12.944
 9602W        W71133  11.224  29.453  13.442
 9603W        W71134  28.023  39.062  10.538
 9604W        W71135  15.222  43.357  10.994
 9605W        W71136  31.565  11.131   3.338
 9606W        W71137  26.055  29.444   3.665
 9607W        W71138  21.719  17.251   0.412
 9608W        W71139  17.074  24.520   1.929
 9609W        W71140  23.616  15.720  11.882
 9610W        W71141   1.783   8.315   1.392
 9611W        W71142  17.704  25.604   3.800
 9612W        W71143  30.155  18.643   1.844
 9613W        W71144  14.674   6.271  11.061
 9614W        W71145  39.059  30.533   4.607
 9615W        W71146  13.345   9.680  10.458
 9616W        W71147  10.684  17.678  13.404
 9617W        W71148  27.985  18.102  13.428
 9618W        W71149   2.330  10.816   3.801
 9619W        W71150   5.308  41.817   0.390
 9620W        W71151   8.187  22.119  11.497
 9621W        W71152  26.010  12.338  14.300
 9622W        W71153   9.663  42.305   2.375
 9623W        W71154  42.914  15.281  12.358
 9624W        W71155  26.970   0.986   0.799
 9625W        W71156   3.218  22.691  14.302
 9626W        W71157  29.053  41.532  13.904
 9627W        W71158  41.912   5.757   1.804
 9628W        W71159   2.800  14.321  11.415
 9629W        W71160  36.403   5.359  13.389
 9630W        W71161  34.592  17.566   2.366
 9631W        W71162  34.391   8.195   1.266
 9632W        W71163  38.517  24.702   4.208
 9633W        W71164  33.991  24.507  12.842
 9634W        W71165  23.557  37.019  10.438
 9635W        W71166  17.179  16.591  12.461
 9636W        W71167  42.791  35.387  11.940
 9637W        W71168  44.837  38.954  10.103
 9638W        W71169  23.099  23.588  11.446
 9639W        W71170  28.645  29.534  11.492
 9640W        W71171   0.812  28.083  11.376
 9641W        W71172  10.655  18.232  14.354
 9642W        W71173  21.062   3.869  13.448
 9643W        W71174  34.943  13.174   1.260
 9644W        W71175   1.768  11.782   0.418
 9645W        W71176  23.190  11.292  10.556
 9646W        W71177   4.779  42.011  14.392
 9647W        W71178  31.410   6.212   1.784
 9648W        W71179  22.604   7.200  12.954
 9649W        W71180  30.540  38.989  11.058
 9650W        W71181  35.897  31.017  10.561
 9651W        W71182  43.804   5.732   4.821
 9652W        W71183  31.019  23.002   0.761
 9653W        W71184  38.488   2.783  13.876
 9654W        W71185  20.085  19.762   0.326
 9655W        W71186  27.035  42.814   4.255
 9656W        W71187  29.156  12.713  12.941
 9657W        W71188  17.702  25.541  12.007
 9658W        W71189   0.311   0.448   3.314
 9659W        W71190  20.060  41.927   9.616
 9660W        W71191  19.780  21.597   4.722
 9661W        W71192  24.598   6.703  12.560
 9662W        W71193  14.601  23.573  13.938
 9663W        W71194   5.911  13.813   1.849
 9664W        W71195  37.449  24.196  14.010
 9665W        W71196  21.650   8.827  14.308
 9666W        W71197  43.455  41.364   1.819
 9667W        W71198  42.865  41.424  13.439
 9668W        W71199  21.188  31.413   4.301
 9669W        W71200  26.476  25.668  11.445
 9670W        W71201   3.716  38.935  12.833
 9671W        W71202  26.538   1.838  10.463
 9672W        W71203  28.530   1.840   1.832
 9673W        W71204   7.697  31.952   3.215
 9674W        W71205   0.930  25.618  13.311
 9675W        W71206  17.197  22.632   4.341
 9676W        W71207  12.614  37.942  13.034
 9677W        W71208  16.684  28.112   3.359
 9678W        W71209  38.362   4.371  13.449
 9679W        W71210   7.764  33.458  14.918
 9680W        W71211  43.804   2.309  13.471
 9681W        W71212  15.135  42.902   3.761
 9682W        W71213  27.064  19.265  10.411
 9683W        W71214   8.726  21.091   3.356
 9684W        W71215  18.120  18.713   1.790
 9685W        W71216   1.357   5.769  12.863
 9686W        W71217   3.408  43.950  11.944
 9687W        W71218   0.848   3.750  11.083
 9688W        W71219  12.227  16.285   4.164
 9689W        W71220   2.961  38.029   1.791
 9690W        W71221  18.164   4.350   2.867
 9691W        W71222  22.249   7.902  11.964
 9692W        W71223  13.807  37.400  12.963
 9693W        W71224   2.227  15.731   1.423
 9694W        W71225  12.828  38.042  13.431
 9695W        W71226   2.430  25.202  13.994
 9696W        W71227  28.063  34.982   3.770
 9697W        W71228  11.268  25.067   0.743
 9698W        W71229  43.403  15.778  11.095
 9699W        W71230  26.953  28.146   0.446
 9700W        W71231  12.690   6.298  10.906
 9701W        W71232  29.517  16.271   4.744
 9702W        W71233   1.762  16.589  12.925
 9703W        W71234  11.182  23.710  14.285
 9704W        W71235  42.823  33.586  11.577
 9705W        W71236  22.526  14.243   1.697
 9706W        W71237  42.526  28.604  12.882
 9707W        W71238  40.981  31.410   3.694
 9708W        W71239  25.521  17.138   4.174
 9709W        W71240  22.517   0.271   0.797
 9710W        W71241  26.021   2.428   2.858
 9711W        W71242   0.281  32.502  12.574
 9712W        W71243   6.769   3.948  13.500
 9713W        W71244  36.552  39.926  13.799
 9714W        W71245  39.545  18.644   3.738
 9715W        W71246  22.183  30.937   2.282
 9716W        W71247  12.340  34.581  14.287
 9717W        W71248  25.000  12.338  11.093
 9718W        W71249  21.230  33.580  14.408
 9719W        W71250   9.213  26.587   2.211
 9720W        W71251  32.575  44.798  14.308
 9721W        W71252  43.813   4.761   4.133
 9722W        W71253  33.073  32.458   0.477
 9723W        W71254  26.500  11.338   0.360
 9724W        W71255   9.255   5.271   4.342
 9725W        W71256  35.463   1.461   2.890
 9726W        W71257  18.270   0.812   0.850
 9727W        W71258  40.926  34.507   2.251
 9728W        W71259  13.782  23.171   3.321
 9729W        W71260   4.209  22.147  13.929
 9730W        W71261  17.786   0.803  14.995
 9731W        W71262  10.799   0.813   0.251
 9732W        W71263  39.556  44.807   3.271
 9733W        W71264  39.319  29.630  11.864
 9734W        W71265   1.822   2.817   0.759
 9735W        W71266  34.510  25.216  11.041
 9736W        W71267  21.041  38.517  11.463
 9737W        W71268   5.278  24.082  10.536
 9738W        W71269  32.031  41.445   0.397
 9739W        W71270  27.625  22.210  14.515
 9740W        W71271  37.515   9.652   3.329
 9741W        W71272   5.261  34.410  14.957
 9742W        W71273  11.680  32.606  13.846
 9743W        W71274  15.285  27.168  10.434
 9744W        W71275  42.855  17.641  10.982
 9745W        W71276  28.110  11.721  13.916
 9746W        W71277   7.730  34.053   4.699
 9747W        W71278  20.089  35.442   3.709
 9748W        W71279   5.841  37.846  10.457
 9749W        W71280  21.675  22.099   2.276
 9750W        W71281   9.659  19.551  11.449
 9751W        W71282  40.939  17.169   3.732
 9752W        W71283  21.523  30.099  13.952
 9753W        W71284   5.863   2.423  14.412
 9754W        W71285  37.364  30.531   4.272
 9755W        W71286  41.975  14.624  13.472
 9756W        W71287  35.024   3.422  13.960
 9757W        W71288   2.768  23.620  12.432
 9758W        W71289  36.889  42.835   3.699
 9759W        W71290  11.239  38.380   3.751
 9760W        W71291  19.730  30.542  13.309
 9761W        W71292  23.562  29.657   1.733
 9762W        W71293  17.713  23.217  14.374
 9763W        W71294  35.403  12.793  12.083
 9764W        W71295  11.654  30.610   4.748
 9765W        W71296  21.110   0.968   4.635
 9766W        W71297  17.618  27.515  14.789
 9767W        W71298   4.884  36.361  13.345
 9768W        W71299   9.771  41.951   2.858
 9769W        W71300  36.856   4.373   4.824
 9770W        W71301  44.943  13.816  10.435
 9771W        W71302   9.790  33.502  11.883
 9772W        W71303  16.619  18.791  12.443
 9773W        W71304  32.972  36.404  10.420
 9774W        W71305  39.932  13.245   1.703
 9775W        W71306  19.272   3.332   0.905
 9776W        W71307  36.929  44.778  13.060
 9777W        W71308  31.032  12.852   0.420
 9778W        W71309  10.720   2.292  12.580
 9779W        W71310   7.186  19.729   1.725
 9780W        W71311   2.226  21.717  11.537
 9781W        W71312   8.890   4.895  11.933
 9782W        W71313  17.191   9.162   1.855
 9783W        W71314  22.250  28.680   2.336
 9784W        W71315  15.311  13.255   3.209
 9785W        W71316   1.385  40.969   4.312
 9786W        W71317  39.842  14.706  10.459
 9787W        W71318  42.473  29.127   2.870
 9788W        W71319  20.617  36.970  11.871
 9789W        W71320  17.245  23.216  13.060
 9790W        W71321   1.250   6.419   3.658
 9791W        W71322  23.212  10.359  10.956
 9792W        W71323   1.326  24.621  14.760
 9793W        W71324  16.082  13.306  14.926
 9794W        W71325  42.515  12.640  13.454
 9795W        W71326  18.173  28.678  12.464
 9796W        W71327  27.677  22.062   2.758
 9797W        W71328   1.399  23.686   2.292
 9798W        W71329   0.468  42.299  13.423
 9799W        W71330   2.382   7.892   4.344
 9800W        W71331  11.707  19.545   3.816
 9801W        W71332  42.307  14.196   1.258
 9802W        W71333  32.023  20.144   2.179
 9803W        W71334  13.722   8.336   1.804
 9804W        W71335   7.718  15.251   4.138
 9805W        W71336  37.857  39.368  14.921
 9806W        W71337  14.339  29.508   2.664
 9807W        W71338  22.645  16.128   1.763
 9808W        W71339  21.078  26.631   0.916
 9809W        W71340  28.627  40.446   4.754
 9810W        W71341  40.864  30.569   4.643
 9811W        W71342  41.353  29.465   3.685
 9812W        W71343  27.109  13.201   1.729
 9813W        W71344  38.952   5.904   9.952
 9814W        W71345  19.109  21.111   1.441
 9815W        W71346  30.940  44.877   3.169
 9816W        W71347  21.735  29.567  12.402
 9817W        W71348   7.710  24.070  14.759
 9818W        W71349  37.027  16.806  11.047
 9819W        W71350  18.080  22.069   0.259
 9820W        W71351   1.939   2.966   3.308
 9821W        W71352   3.848  27.551  14.790
 9822W        W71353  35.569  17.222  10.509
 9823W        W71354  21.079   6.701   3.189
 9824W        W71355  30.094  44.474   2.835
 9825W        W71356  10.145  25.145   4.148
 9826W        W71357   2.741  26.610   9.506
 9827W        W71358  13.190  19.660  14.369
 9828W        W71359  16.102  25.693   1.413
 9829W        W71360  42.366  43.446  12.497
 9830W        W71361  40.386  40.862   1.401
 9831W        W71362  41.440  32.504   0.298
 9832W        W71363  22.721  35.868   2.858
 9833W        W71364  34.455   2.866  12.388
 9834W        W71365  37.923  27.170  13.990
 9835W        W71366  22.704  14.242  13.005
 9836W        W71367  17.786  35.433  10.981
 9837W        W71368  33.124  39.495   4.350
 9838W        W71369  18.121  28.528   4.826
 9839W        W71370  20.700   4.439  10.926
 9840W        W71371  30.079  36.008  14.331
 9841W        W71372  44.334  11.344  13.541
 9842W        W71373  13.696  38.501  12.916
 9843W        W71374  44.410   2.374   2.856
 9844W        W71375  44.495   0.351  11.976
 9845W        W71376  16.157  43.856  11.057
 9846W        W71377  33.017  23.192  11.392
 9847W        W71378  43.362   6.392   2.405
 9848W        W71379  24.089  30.926   3.193
 9849W        W71380  16.307   8.658  11.934
 9850W        W71381  41.538  27.499   2.870
 9851W        W71382  15.820  12.656  11.550
 9852W        W71383  26.523  41.339   0.884
 9853W        W71384  23.667   4.875   0.885
 9854W        W71385  42.027  12.778   1.320
 9855W        W71386   5.335   3.855   3.146
 9856W        W71387  34.610  29.173  11.397
 9857W        W71388  39.943  16.207  14.004
 9858W        W71389  41.848   0.821  13.810
 9859W        W71390  28.519  44.362  10.471
 9860W        W71391  31.065  32.624  10.480
 9861W        W71392  34.392  28.143   1.831
 9862W        W71393  39.518   3.906   3.310
 9863W        W71394   9.737  34.881  12.369
 9864W        W71395  15.117   3.391   2.349
 9865W        W71396  24.015  29.012  10.904
 9866W        W71397   0.776  37.377   2.787
 9867W        W71398  41.402   9.192  13.991
 9868W        W71399  15.295  11.276  14.863
 9869W        W71400  25.003  34.422   0.835
 9870W        W71401  41.902   3.395   1.220
 9871W        W71402  21.251  23.557   3.316
 9872W        W71403   5.390  39.958   0.394
 9873W        W71404  14.099  37.933  11.948
 9874W        W71405  12.257  14.744   2.727
 9875W        W71406  44.486  37.004  12.556
 9876W        W71407   4.734  39.837  12.485
 9877W        W71408  10.707  14.770  14.401
 9878W        W71409  42.976  30.034   1.810
 9879W        W71410  30.605  24.719   0.778
 9880W        W71411  24.166  17.726   4.275
 9881W        W71412  43.270  21.729   2.899
 9882W        W71413  13.218  42.944   1.225
 9883W        W71414   4.842   3.286   0.460
 9884W        W71415   1.737  10.223  13.505
 9885W        W71416  20.651  17.074  14.831
 9886W        W71417  35.873  22.533   3.685
 9887W        W71418  32.473   0.971  12.376
 9888W        W71419  12.316  23.129   4.624
 9889W        W71420  38.403  32.101  11.880
 9890W        W71421  34.469  30.561   1.257
 9891W        W71422  34.470  40.343  12.894
 9892W        W71423   6.737  14.321  13.888
 9893W        W71424  18.595  36.483  12.983
 9894W        W71425   0.326  25.126  11.109
 9895W        W71426  27.120   0.258  10.966
 9896W        W71427   2.949  14.271  12.886
 9897W        W71428   4.236  19.118  13.006
 9898W        W71429  11.779  17.141   2.307
 9899W        W71430   0.762   3.816  11.507
 9900W        W71431  33.434  41.843   2.808
 9901W        W71432  32.511  33.981  12.478
 9902W        W71433   1.357   9.155   1.435
 9903W        W71434  40.435  17.772  11.551
 9904W        W71435   9.154  22.613  12.351
 9905W        W71436  42.935  17.206   0.469
 9906W        W71437   0.848  22.527  13.980
 9907W        W71438  44.973  44.361  11.011
 9908W        W71439  31.593   6.217  14.323
 9909W        W71440  33.958  25.476   1.424
 9910W        W71441  16.111  40.506  12.554
 9911W        W71442  27.588   1.799   4.265
 9912W        W71443  15.191   7.262  11.987
 9913W        W71444  18.267  34.992   0.469
 9914W        W71445  25.039  39.889   4.346
 9915W        W71446   6.217   9.846  12.349
 9916W        W71447  23.055  12.688  13.405
 9917W        W71448  11.289  33.997   3.214
 9918W        W71449  10.162   6.866   2.684
 9919W        W71450  36.916  27.679   0.823
 9920W        W71451  38.351  10.686  12.349
 9921W        W71452  36.359  24.563  11.119
 9922W        W71453  16.742  31.576   3.155
 9923W        W71454  13.600   9.735  12.556
 9924W        W71455  30.561  18.604  12.058
 9925W        W71456  38.530  13.195   0.269
 9926W        W71457  34.015   2.953   3.314
 9927W        W71458  28.458   5.295  14.802
 9928W        W71459  37.895  10.303   1.728
 9929W        W71460  22.616  28.536   4.753
 9930W        W71461   4.404  19.534   2.814
 9931W        W71462  37.410  33.391  12.051
 9932W        W71463  36.874  13.758   1.374
 9933W        W71464  43.404  16.270   1.249
 9934W        W71465   4.929  25.597  11.930
 9935W        W71466   6.730  28.075   1.716
 9936W        W71467   8.215   0.383   0.435
 9937W        W71468  41.023  38.515  11.992
 9938W        W71469  30.924  16.184   4.608
 9939W        W71470  22.112  26.503  10.562
 9940W        W71471   7.177   2.378  12.023
 9941W        W71472  43.974  17.754   3.805
 9942W        W71473  23.627  13.836  11.611
 9943W        W71474  26.079  36.900   3.663
 9944W        W71475  40.535  37.078   3.329
 9945W        W71476   0.907  22.521   2.688
 9946W        W71477  41.359  39.921   4.215
 9947W        W71478  37.002  33.435   2.729
 9948W        W71479  36.898  32.939   3.685
 9949W        W71480   6.418   3.912   3.712
 9950W        W71481  18.611  14.635  11.105
 9951W        W71482  37.409  43.330  12.461
 9952W        W71483   1.379  34.461  12.923
 9953W        W71484  43.345  44.881  11.434
 9954W        W71485   5.717  36.500   4.604
 9955W        W71486   5.402  30.458   3.368
 9956W        W71487   8.268  30.936   0.416
 9957W        W71488  36.502   4.281   0.822
 9958W        W71489   4.302   4.703  10.582
 9959W        W71490  17.136  39.358  12.018
 9960W        W71491   1.256  29.997   2.226
 9961W        W71492  31.153   9.716  11.449
 9962W        W71493  31.574   1.464   1.345
 9963W        W71494  29.638  30.419   2.399
 9964W        W71495  43.417  11.367   0.968
 9965W        W71496   9.678  40.442  13.993
 9966W        W71497   5.775  10.870  12.079
 9967W        W71498  41.982  34.420   0.961
 9968W        W71499  17.124  33.078   9.949
 9969W        W71500   4.774  18.672  11.492
 9970W        W71501  18.217  18.125   2.281
 9971W        W71502   0.457  25.143  12.050
 9972W        W71503  33.943  33.488  12.478
 9973W        W71504  27.126  14.178   4.326
 9974W        W71505   8.198   0.960   2.394
 9975W        W71506  25.993   2.874   2.391
 9976W        W71507  16.811  21.087  11.930
 9977W        W71508  27.488  33.979  12.500
 9978W        W71509   7.311  40.016  10.460
 9979W        W71510  41.954  12.319  13.389
 9980W        W71511  43.308  20.682   0.802
 9981W        W71512  38.326  31.933   1.719
 9982W        W71513  30.954  31.975   0.289
 9983W        W71514   6.382  16.799   4.762
 9984W        W71515  39.330   7.299   4.346
 9985W        W71516  10.852  11.297   1.316
 9986W        W71517  28.678  40.343  12.873
 9987W        W71518  12.703  25.628  10.938
 9988W        W71519  43.829  44.326  14.909
 9989W        W71520  24.485  28.666   4.170
 9990W        W71521  44.334  25.674   3.851
 9991W        W71522  32.040  43.766  13.376
 9992W        W71523  17.641  27.543   1.696
 9993W        W71524   2.322   0.947  12.407
 9994W        W71525  32.932  31.989   4.612
 9995W        W71526  11.721   2.895  14.363
 9996W        W71527   9.299  40.912   2.303
 9997W        W71528  16.611  14.109   4.676
 9998W        W71529  19.256  32.029  13.484
 9999W        W71530  22.713   5.242   2.383
10000W        W71531  13.222  29.625  10.970
10001W        W71532  29.960   5.923   2.333
10002W        W71533  18.201  26.003  12.453
10003W        W71534  38.373   5.362   0.346
10004W        W71535  41.401  37.525  13.457
10005W        W71536  39.359  28.088   2.228
10006W        W71537  42.351  35.878  10.416
10007W        W71538  40.513  20.272  14.777
10008W        W71539  19.072  20.116  14.991
10009W        W71540  35.542   1.770   1.345
10010W        W71541  27.158  14.727   1.382
10011W        W71542   0.837  31.935   4.228
10012W        W71543  34.990  25.481  13.373
10013W        W71544  16.270  17.175   4.737
10014W        W71545  36.858  35.393   5.264
10015W        W71546  34.448  42.872  13.849
10016W        W71547  26.524   8.385   5.244
10017W        W71548  39.829   4.818   1.416
10018W        W71549  20.057  21.541  11.481
10019W        W71550  19.208  13.221   3.850
10020W        W71551  14.316  37.065   2.865
10021W        W71552   2.423  10.656   2.740
10022W        W71553   1.257  35.546   1.932
10023W        W71554  42.868  27.069   3.784
10024W        W71555   6.266   6.317   1.348
10025W        W71556  24.702  32.094  14.497
10026W        W71557  23.064  15.615   4.806
10027W        W71558  23.633  18.128  14.318
10028W        W71559  42.434  12.675   0.864
10029W        W71560   2.412  31.970  12.022
10030W        W71561  32.559  17.224   0.407
10031W        W71562   7.304  39.878   0.885
10032W        W71563  35.964  24.083  14.950
10033W        W71564  14.788  29.654   1.856
10034W        W71565   7.855   2.413  14.302
10035W        W71566  27.669  16.604  11.123
10036W        W71567  43.832  37.390  14.326
10037W        W71568  21.156  16.295   2.343
10038W        W71569   9.664  29.606  12.053
10039W        W71570  32.910   5.819  12.029
10040W        W71571   9.873  12.737   2.215
10041W        W71572  20.120  25.612   3.695
10042W        W71573  24.115  12.357  14.459
10043W        W71574  20.268  41.306  12.010
10044W        W71575  13.128  10.318   3.295
10045W        W71576  37.375  19.586   2.674
10046W        W71577  37.555  31.635   9.984
10047W        W71578  44.794   5.299  13.329
10048W        W71579  21.173   0.863  11.083
10049W        W71580   5.284  28.102   0.929
10050W        W71581  40.826  33.919   3.791
10051W        W71582  33.990   9.663  11.876
10052W        W71583  23.054  24.593   0.402
10053W        W71584  30.475  36.949  11.013
10054W        W71585  10.796  34.584  14.411
10055W        W71586  34.988  24.705  13.525
10056W        W71587  17.301  29.132  10.013
10057W        W71588   7.259  16.077   1.842
10058W        W71589  32.580  31.475   3.362
10059W        W71590  18.738  25.628   5.303
10060W        W71591  10.735  14.831   2.323
10061W        W71592  30.928  22.740   3.736
10062W        W71593  14.335  24.093  11.490
10063W        W71594  35.894  42.018  13.971
10064W        W71595   8.208  27.611   1.859
10065W        W71596  43.974  28.021   4.125
10066W        W71597  35.095   7.260   3.377
10067W        W71598  30.610  37.993   5.243
10068W        W71599  36.578   6.843  14.939
10069W        W71600  30.984   0.455   1.332
10070W        W71601  42.799  42.016  10.517
10071W        W71602  13.673   0.820   1.803
10072W        W71603   4.396   8.202  10.454
10073W        W71604   3.741  41.030   0.903
10074W        W71605   1.776  10.336   2.237
10075W        W71606  31.929  37.484  14.395
10076W        W71607  30.160  16.701  10.980
10077W        W71608  18.665  34.952  12.825
10078W        W71609   7.698  42.426  10.939
10079W        W71610  41.897   3.753  12.028
10080W        W71611  37.874   8.812  12.887
10081W        W71612   2.374  13.624  13.977
10082W        W71613  17.113  33.924  10.625
10083W        W71614  12.753  32.443  10.576
10084W        W71615  17.303  35.592  12.872
10085W        W71616  29.443  37.991   2.738
10086W        W71617  18.111   3.390  11.885
10087W        W71618  33.934  32.105   5.181
10088W        W71619   5.294   7.390  13.520
10089W        W71620   8.817  11.851  13.478
10090W        W71621  22.007   3.715  12.868
10091W        W71622  22.108  30.570  13.040
10092W        W71623   3.428   2.842  14.322
10093W        W71624  41.833  11.755   2.769
10094W        W71625  17.254  21.526   4.814
10095W        W71626   4.394  44.472   4.131
10096W        W71627  23.119  14.636   1.924
10097W        W71628  20.032  23.010   0.435
10098W        W71629  43.935  24.042  10.475
10099W        W71630  10.243   8.810   3.831
10100W        W71631  33.996   5.917  12.989
10101W        W71632  11.129  32.420  10.427
10102W        W71633  43.796  27.078   4.822
10103W        W71634  42.878  42.919   4.682
10104W        W71635  13.216  43.859  10.547
10105W        W71636  21.604  13.732   1.856
10106W        W71637   8.872  29.502  11.075
10107W        W71638  28.511  12.672   1.699
10108W        W71639   6.689  39.527  10.585
10109W        W71640  23.228   8.800   1.428
10110W        W71641   6.411  31.042   1.402
10111W        W71642  18.677  13.308  10.434
10112W        W71643   7.858  42.033   3.785
10113W        W71644   2.792  37.338   4.262
10114W        W71645  14.759  32.450  10.009
10115W        W71646  12.247  37.500   4.719
10116W        W71647  31.641  24.984  11.939
10117W        W71648  20.192   0.836   4.153
10118W        W71649  43.336   5.400   3.271
10119W        W71650  29.998  32.513  10.907
10120W        W71651   0.355  17.164   0.396
10121W        W71652  38.462  28.627   2.180
10122W        W71653   7.370   6.340   1.365
10123W        W71654   1.809  31.527  14.464
10124W        W71655  17.131  24.012   0.731
10125W        W71656  22.222   8.673  11.028
10126W        W71657  38.895  28.675   0.385
10127W        W71658  15.579   6.852   2.292
10128W        W71659  40.469  20.237   0.824
10129W        W71660  18.109  14.691  12.479
10130W        W71661  16.259   8.848  10.925
10131W        W71662  31.449  33.108   4.798
10132W        W71663  36.521  28.995  13.826
10133W        W71664  41.790   9.358   2.803
10134W        W71665  12.745  14.629  11.035
10135W        W71666  44.949  40.002  12.436
10136W        W71667  34.583  21.036   5.131
10137W        W71668   5.719  29.601   1.779
10138W        W71669   0.933  44.472  14.977
10139W        W71670  37.960  17.157   2.837
10140W        W71671  13.647  21.743  14.492
10141W        W71672  42.822   8.257  12.524
10142W        W71673   0.860  29.001   4.312
10143W        W71674  11.689  16.785  13.438
10144W        W71675  12.353   7.203   2.297
10145W        W71676  10.763   8.900   4.802
10146W        W71677  12.342  37.384   0.936
10147W        W71678  23.675  30.910   1.365
10148W        W71679  15.688  28.510   1.875
10149W        W71680  16.658  35.442  14.923
10150W        W71681  11.720  32.030   4.126
10151W        W71682   2.818  33.396  12.445
10152W        W71683   8.679  41.377  11.380
10153W        W71684  10.218  37.370  11.000
10154W        W71685   1.736  20.688  12.479
10155W        W71686  36.967  35.082  13.354
10156W        W71687  34.997  14.682  12.019
10157W        W71688  11.661  25.629   3.644
10158W        W71689   2.258  41.015   3.832
10159W        W71690  30.560   9.730   1.414
10160W        W71691  17.697  44.955   0.274
10161W        W71692  36.463   6.271   3.631
10162W        W71693  34.878  40.521  12.944
10163W        W71694  44.401  16.184  10.091
10164W        W71695  33.511  22.698   2.324
10165W        W71696   3.397  15.159   2.316
10166W        W71697  16.736  25.173   2.265
10167W        W71698  18.631   4.714  13.433
10168W        W71699   1.824  37.537  14.775
10169W        W71700  19.551   8.751   4.167
10170W        W71701  23.094  30.569   0.338
10171W        W71702   4.406  25.081   3.294
10172W        W71703  11.196   2.431   5.597
10173W        W71704  42.400  40.445   3.796
10174W        W71705   3.425   0.445   2.230
10175W        W71706  43.471   5.889   4.816
10176W        W71707  32.508  32.443  14.323
10177W        W71708  13.269  21.680  13.537
10178W        W71709  18.569  42.885  10.551
10179W        W71710  32.415  37.911  14.803
10180W        W71711  28.628  10.376   0.839
10181W        W71712  31.422  14.808   0.744
10182W        W71713  16.667  43.415  10.895
10183W        W71714   2.731   0.921   0.472
10184W        W71715   6.816  16.170   4.807
10185W        W71716  19.687  36.381   3.783
10186W        W71717   5.923  13.184  10.580
10187W        W71718  15.236  39.493  13.420
10188W        W71719   5.723  22.590   2.855
10189W        W71720  42.912  22.608   2.292
10190W        W71721  40.804  23.511   1.285
10191W        W71722  16.668   4.887   3.679
10192W        W71723  19.063  32.138   2.708
10193W        W71724  23.551  34.119   1.344
10194W        W71725  42.021   0.858  14.802
10195W        W71726  23.145  17.746   3.777
10196W        W71727   7.762  22.651   2.204
10197W        W71728  44.832  36.859   4.644
10198W        W71729  41.852   2.815   0.281
10199W        W71730   9.234  16.078   1.836
10200W        W71731  37.054  24.188  10.497
10201W        W71732  20.078  18.735   1.847
10202W        W71733  20.224   1.357  13.419
10203W        W71734  34.971  38.071  10.484
10204W        W71735  29.589  13.272  13.350
10205W        W71736   7.176  31.054  13.954
10206W        W71737  40.422  34.471  12.398
10207W        W71738  16.288  19.626   3.841
10208W        W71739   9.340  30.093  12.458
10209W        W71740  15.756  27.461  14.923
10210W        W71741  20.524  42.790   1.315
10211W        W71742  34.584   9.184  13.904
10212W        W71743   4.414   4.211  14.915
10213W        W71744  12.122  33.486  10.975
10214W        W71745  26.176  38.452  13.362
10215W        W71746  34.910  23.721  13.462
10216W        W71747  23.497   2.343   4.828
10217W        W71748  30.129  34.381   1.220
10218W        W71749  32.531  30.065  10.921
10219W        W71750  38.553  17.562   0.894
10220W        W71751  33.390  25.684  11.951
10221W        W71752  14.107  38.863   2.332
10222W        W71753   2.400   4.770   3.708
10223W        W71754  28.982  37.450   3.704
10224W        W71755  37.025  43.470  12.340
10225W        W71756  13.197   8.897  13.027
10226W        W71757   3.737  25.701   3.251
10227W        W71758   7.410  40.458   2.871
10228W        W71759  19.779   1.889  12.041
10229W        W71760  30.453  20.081   0.327
10230W        W71761  35.896  23.551   3.236
10231W        W71762   7.259  11.373   2.185
10232W        W71763  37.421  14.686   0.758
10233W        W71764  25.161  34.873   0.870
10234W        W71765   6.266   7.772  11.402
10235W        W71766  22.663  12.171   3.242
10236W        W71767   0.754  23.645   1.769
10237W        W71768  15.291  34.456   1.329
10238W        W71769  35.391  29.468   1.769
10239W        W71770  34.092  16.189  13.878
10240W        W71771   2.421   6.855   0.966
10241W        W71772  25.012  23.652  11.015
10242W        W71773  11.751  20.737   3.372
10243W        W71774   5.783   3.744   3.376
10244W        W71775  37.460  41.976  10.421
10245W        W71776  11.692  17.267   1.367
10246W        W71777  15.292  19.138   2.864
10247W        W71778   0.436  19.246   0.889
10248W        W71779  37.962   4.256  10.937
10249W        W71780  17.694  13.312  12.356
10250W        W71781  16.691  42.412   3.711
10251W        W71782  11.671  35.109  10.990
10252W        W71783  43.375  26.663   4.632
10253W        W71784  36.017  13.772   3.666
10254W        W71785   0.452  10.190   3.383
10255W        W71786  35.867  16.282  12.442
10256W        W71787   1.779  32.409   2.804
10257W        W71788   1.964   3.844   4.812
10258W        W71789   7.330  29.075   0.430
10259W        W71790  10.754  29.596  13.907
10260W        W71791  35.560  37.573   4.827
10261W        W71792   0.904   3.429  14.858
10262W        W71793   3.230  15.655  11.507
10263W        W71794   0.759  20.729  12.529
10264W        W71795   0.947  27.191   0.374
10265W        W71796  27.986  37.366  12.393
10266W        W71797  43.012  28.525  13.879
10267W        W71798  37.983  12.794  12.352
10268W        W71799  38.006  27.175   2.185
10269W        W71800  17.706  30.614  12.931
10270W        W71801  11.281  29.610  14.318
10271W        W71802  42.427  30.979   2.701
10272W        W71803  21.021   5.870  11.609
10273W        W71804  36.079  41.512  13.855
10274W        W71805   1.905  26.054   4.716
10275W        W71806  12.722   1.783  12.436
10276W        W71807  18.222  41.871  13.526
10277W        W71808  42.375   2.388   0.416
10278W        W71809  34.894   4.338  11.572
10279W        W71810  38.547  14.783   1.291
10280W        W71811  31.534   2.416  10.619
10281W        W71812   2.386  20.646  12.078
10282W        W71813  15.682  11.639   1.711
10283W        W71814  41.790  42.473   3.653
10284W        W71815  14.807  14.254  12.981
10285W        W71816  13.290  33.097  12.058
10286W        W71817  41.926   8.293   0.800
10287W        W71818   5.889  37.425  10.597
10288W        W71819  15.124  42.348  12.409
10289W        W71820  28.014  16.701  14.869
10290W        W71821  30.588  40.888   2.808
10291W        W71822   7.717  37.462   4.174
10292W        W71823  30.546  10.876  13.837
10293W        W71824  23.103   5.870  10.561
10294W        W71825  12.744   5.381   3.744
10295W        W71826   7.831  30.465   2.782
10296W        W71827  10.376  18.227  14.020
10297W        W71828  37.497  42.877   4.152
10298W        W71829  26.127   3.714  12.887
10299W        W71830  34.378  36.541  10.458
10300W        W71831  16.284  22.165   3.832
10301W        W71832   1.932  13.690   0.318
10302W        W71833  18.091  39.936  14.391
10303W        W71834  16.711  40.931  13.892
10304W        W71835   3.771  19.753  10.917
10305W        W71836   3.747   8.788  13.328
10306W        W71837  19.161   2.429  11.502
10307W        W71838  27.549  42.384   0.446
10308W        W71839   7.416  15.293  11.891
10309W        W71840   4.287  15.585   1.277
10310W        W71841  31.922   2.963  12.914
10311W        W71842  44.760  44.760   0.911
10312W        W71843  28.473  31.949  13.015
10313W        W71844  25.146  31.066   1.725
10314W        W71845  17.116  40.430  14.430
10315W        W71846  44.957  32.971   3.742
10316W        W71847  25.469  19.745  14.842
10317W        W71848   0.886  35.000  14.302
10318W        W71849  12.309  17.652  13.412
10319W        W71850  20.699   6.691  10.410
10320W        W71851  42.452  27.069  14.383
10321W        W71852  42.808  39.472  13.803
10322W        W71853  10.826   0.825  11.941
10323W        W71854  10.166  36.040   1.694
10324W        W71855   0.309  15.263  12.850
10325W        W71856  24.602  11.352   0.316
10326W        W71857  23.197   6.232   4.836
10327W        W71858  29.081   9.746  13.312
10328W        W71859   4.267  26.083   2.315
10329W        W71860  24.698   7.177   0.777
10330W        W71861  40.433  41.294  14.024
10331W        W71862  26.559   9.763   1.745
10332W        W71863   5.842  28.674   3.859
10333W        W71864  20.610   7.725  13.955
10334W        W71865  10.740   1.792   2.899
10335W        W71866  37.546   4.330  12.953
10336W        W71867   6.217  30.452  12.449
10337W        W71868   0.493  19.610   1.743
10338W        W71869  43.800  33.410  13.414
10339W        W71870  29.519  39.964   5.228
10340W        W71871  21.219  40.359  10.616
10341W        W71872   3.438  37.914   0.372
10342W        W71873  44.762   3.825   3.156
10343W        W71874  25.980  20.563  12.958
10344W        W71875  10.674  25.982   1.210
10345W        W71876   8.748  30.495   3.368
10346W        W71877   0.915  41.468  11.889
10347W        W71878  34.034   4.314   1.722
10348W        W71879  16.578   1.765  11.898
10349W        W71880   7.680  22.150  10.583
10350W        W71881  32.499   7.191   4.144
10351W        W71882  17.669  43.474  12.471
10352W        W71883  10.679  34.033   1.698
10353W        W71884  36.547  31.088  13.946
10354W        W71885  18.213  37.496  12.517
10355W        W71886   9.738  34.601   0.831
10356W        W71887  26.967  23.530   4.774
10357W        W71888   9.387  26.085   3.785
10358W        W71889   8.172  20.637   4.763
10359W        W71890  17.662  14.659  14.420
10360W        W71891  33.999  37.989  12.396
10361W        W71892  44.304  27.038   9.994
10362W        W71893   4.783  23.693  13.537
10363W        W71894   7.738  39.976   9.972
10364W        W71895  22.628  13.264  11.385
10365W        W71896   4.926  16.220   4.163
10366W        W71897  26.203  37.398  14.855
10367W        W71898   0.783  21.082   1.909
10368W        W71899  24.676  43.955   3.351
10369W        W71900  31.076  15.819   0.278
10370W        W71901  42.956  37.974   1.872
10371W        W71902  10.282  33.082  10.989
10372W        W71903  21.583  32.085   0.849
10373W        W71904   0.421  19.684  10.917
10374W        W71905  25.207  29.540   3.766
10375W        W71906  23.040   6.235  13.540
10376W        W71907  15.807  20.581  13.943
10377W        W71908  29.603   6.836   2.261
10378W        W71909  37.355  31.631   4.793
10379W        W71910  10.181  22.080  11.394
10380W        W71911  34.015   0.331   4.615
10381W        W71912  18.679  15.088  13.463
10382W        W71913  32.090  13.648   3.214
10383W        W71914  26.114   3.439  11.917
10384W        W71915   2.337   9.749   2.249
10385W        W71916  40.305   4.858   1.433
10386W        W71917   3.910   4.825   1.373
10387W        W71918   5.930  31.043  14.800
10388W        W71919  10.202  35.372  13.808
10389W        W71920   5.310  33.499  11.032
10390W        W71921  28.584  14.756  12.512
10391W        W71922  38.850  41.533   0.429
10392W        W71923  23.156  14.332  14.914
10393W        W71924  34.487   2.951  11.895
10394W        W71925  31.567   8.660   1.724
10395W        W71926  25.617  32.125  12.910
10396W        W71927  29.496  11.704  14.765
10397W        W71928  31.534  26.638   0.792
10398W        W71929  12.318  16.665   2.836
10399W        W71930  29.538  11.820  12.438
10400W        W71931  40.370  25.602  14.445
10401W        W71932  32.058  34.919   3.776
10402W        W71933   2.333   2.879   0.932
10403W        W71934  32.393   1.749   0.452
10404W        W71935  33.466  27.650  10.532
10405W        W71936   9.856   2.784  10.008
10406W        W71937  29.654  25.567  12.075
10407W        W71938   0.773  21.611   3.170
10408W        W71939  31.994  12.642  11.860
10409W        W71940  33.059  12.273   1.311
10410W        W71941  44.006  43.295   2.795
10411W        W71942  44.335  28.496  12.416
10412W        W71943  11.288   3.343  14.431
10413W        W71944  42.301  16.573   0.912
10414W        W71945   6.255  38.379  14.011
10415W        W71946  41.852  12.203   0.769
10416W        W71947  20.240  40.477  11.514
10417W        W71948  30.132   9.694  14.347
10418W        W71949   4.915  22.150   3.820
10419W        W71950  32.071  35.051   0.265
10420W        W71951  24.129  36.423  14.021
10421W        W71952  10.727  30.621   9.960
10422W        W71953  27.105  17.726   3.865
10423W        W71954  37.962  33.969  12.507
10424W        W71955  25.109  44.867   1.718
10425W        W71956  19.269  27.561   4.683
10426W        W71957  40.319   6.201   4.231
10427W        W71958  37.079  25.218  13.796
10428W        W71959  15.194  18.616   0.345
10429W        W71960   7.245  33.068   1.332
10430W        W71961  11.858  38.968   2.182
10431W        W71962  10.243   8.382   0.854
10432W        W71963   1.838  35.919  13.336
10433W        W71964  22.587  26.087  12.341
10434W        W71965  15.704  36.415   2.826
10435W        W71966   4.284  43.439   2.188
10436W        W71967  29.525   1.346  11.438
10437W        W71968   1.411   6.831  13.869
10438W        W71969  19.642  19.216  12.340
10439W        W71970  26.993  12.288  13.387
10440W        W71971  20.554  39.965   0.406
10441W        W71972  34.466  17.734   5.731
10442W        W71973  34.049  40.406   0.914
10443W        W71974  30.994  21.725  14.793
10444W        W71975  37.039  26.523   1.865
10445W        W71976  44.880  17.563   0.901
10446W        W71977   0.827  25.664  10.562
10447W        W71978   7.755  18.238   4.743
10448W        W71979  23.075  33.582  12.891
10449W        W71980   3.303  40.035   4.826
10450W        W71981   9.718  23.493   3.849
10451W        W71982  37.487  29.488   0.788
10452W        W71983  15.657  14.252   4.264
10453W        W71984  32.922  19.090   2.730
10454W        W71985  16.680  22.506  10.613
10455W        W71986  16.804  10.289  12.840
10456W        W71987  11.841   1.881  13.991
10457W        W71988  24.621  19.668   4.800
10458W        W71989  42.973  20.204  14.979
10459W        W71990  11.294  35.460   0.407
10460W        W71991  24.182  41.515   1.701
10461W        W71992   1.874  21.540  10.080
10462W        W71993  13.180  24.540   2.676
10463W        W71994  22.657  29.561  14.805
10464W        W71995   2.732  28.578   3.800
10465W        W71996   4.284  24.975   1.213
10466W        W71997  20.206  28.958   2.676
10467W        W71998  12.358  38.989   4.779
10468W        W71999  36.362  13.737  12.351
10469W        W72000  21.750  43.514   2.885
10470W        W72001  13.211  30.947   3.156
10471W        W72002  10.828  17.607   2.402
10472W        W72003  31.998  36.877   1.379
10473W        W72004   3.423   0.913  14.953
10474W        W72005  15.192  23.181   4.253
10475W        W72006   8.336   3.362  11.493
10476W        W72007  21.109  34.582  12.864
10477W        W72008  16.097  37.354   5.147
10478W        W72009  43.985  29.517   2.280
10479W        W72010  37.411  25.680   5.317
10480W        W72011  12.830  44.357  13.460
10481W        W72012   0.310  41.891   1.400
10482W        W72013  29.639  10.206  11.465
10483W        W72014  16.586  37.532  14.388
10484W        W72015  27.525  21.121  14.886
10485W        W72016  31.019   9.268  14.383
10486W        W72017  26.607  12.654   3.790
10487W        W72018  14.125  42.936  10.578
10488W        W72019  37.070   1.862  14.387
10489W        W72020   2.742  37.352   0.774
10490W        W72021  12.816  17.638   1.365
10491W        W72022   2.780  10.342  14.344
10492W        W72023  13.782   0.407  12.530
10493W        W72024  17.267   2.236   3.157
10494W        W72025  25.219  42.399   2.765
10495W        W72026  28.140  44.476   3.860
10496W        W72027  34.483  22.570   2.879
10497W        W72028   3.873  18.715   2.789
10498W        W72029  32.408  39.832  11.123
10499W        W72030  32.017  16.090  13.837
10500W        W72031   8.405   9.250  11.108
10501W        W72032  13.327   2.856  11.481
10502W        W72033  21.231   1.838  14.467
10503W        W72034  12.131  42.520   4.222
10504W        W72035  16.580  18.658   1.903
10505W        W72036   1.857   9.358   3.276
10506W        W72037  23.643  27.644   3.781
10507W        W72038   4.772   6.799   4.146
10508W        W72039  13.643  25.050  12.005
10509W        W72040  41.479  17.784  10.553
10510W        W72041  20.599  20.143  14.839
10511W        W72042  14.677  43.428  14.460
10512W        W72043  36.593  44.942  13.831
10513W        W72044  22.150   9.807   2.765
10514W        W72045  12.850   0.759  14.814
10515W        W72046  12.723  35.904   3.330
10516W        W72047  15.759   0.986  14.976
10517W        W72048   0.354  30.037  12.961
10518W        W72049  23.725  20.147  10.438
10519W        W72050  27.007  28.444   1.419
10520W        W72051  42.011  31.418  10.941
10521W        W72052  37.896   0.376   2.395
10522W        W72053  22.112  10.252   2.345
10523W        W72054  12.668  27.171   2.770
10524W        W72055  19.186  43.487   1.290
10525W        W72056  10.832  26.106   4.292
10526W        W72057   4.390  14.130   4.170
10527W        W72058  33.408  25.645  12.526
10528W        W72059  25.968  11.840   0.731
10529W        W72060  16.581  15.297  12.865
10530W        W72061  36.379  16.694  12.505
10531W        W72062  17.630  16.587  12.876
10532W        W72063  35.590  11.291   3.380
10533W        W72064  41.341  17.602   2.341
10534W        W72065  20.191  40.465   0.733
10535W        W72066   2.458  33.506   1.792
10536W        W72067   6.231  16.259   1.857
10537W        W72068  22.055  38.533  11.870
10538W        W72069  21.106   6.392  14.447
10539W        W72070  18.787  27.489  14.333
10540W        W72071   6.905  42.312  10.974
10541W        W72072  12.630  33.934  11.441
10542W        W72073  28.076  15.581   1.317
10543W        W72074  38.457  23.023   3.663
10544W        W72075  11.339  43.838  12.414
10545W        W72076  24.037   7.321   2.288
10546W        W72077  44.503  34.590  10.508
10547W        W72078  11.783  43.284  14.769
10548W        W72079  39.866  20.704   1.404
10549W        W72080  19.247   6.791   3.375
10550W        W72081  15.158   0.382   1.304
10551W        W72082  22.110   2.387   0.840
10552W        W72083  41.528  25.656  12.412
10553W        W72084  32.513   4.881  14.416
10554W        W72085  16.643  34.063   0.416
10555W        W72086  19.132  40.488   2.683
10556W        W72087  20.736  16.706   0.373
10557W        W72088  13.683   0.973  12.897
10558W        W72089  33.437  40.314   0.887
10559W        W72090  33.466  29.129   3.230
10560W        W72091  20.154  43.384  11.386
10561W        W72092   9.273  24.205   1.766
10562W        W72093  32.557  44.840  12.381
10563W        W72094  19.087  39.548  11.547
10564W        W72095  16.693  20.697  10.571
10565W        W72096  25.126  28.554   2.330
10566W        W72097  23.095  13.683   2.256
10567W        W72098  34.108   3.873   4.159
10568W        W72099  20.757  22.241  14.431
10569W        W72100  33.975   3.803  12.353
10570W        W72101  39.055  28.954   0.768
10571W        W72102  22.049  41.839  14.428
10572W        W72103   8.878  24.654  13.383
10573W        W72104  40.010  44.358  12.436
10574W        W72105   1.916   7.829   1.420
10575W        W72106  13.143  41.795   2.803
10576W        W72107  12.190  34.489   2.379
10577W        W72108  19.054  28.480  10.976
10578W        W72109   8.179   9.393  11.963
10579W        W72110  20.657  29.589  11.956
10580W        W72111  27.097  37.993   4.309
10581W        W72112  32.105  19.606   1.283
10582W        W72113  38.432  19.092  10.918
10583W        W72114  30.438   7.233  11.516
10584W        W72115  19.751  20.199   4.352
10585W        W72116  40.324   0.961  10.903
10586W        W72117  26.665   5.894  11.860
10587W        W72118  39.979  34.977   0.439
10588W        W72119  40.001   3.414  13.496
10589W        W72120  33.981  19.576   0.773
10590W        W72121   1.450  13.293  14.478
10591W        W72122  18.667   9.378  10.540
10592W        W72123  37.966  38.462   0.831
10593W        W72124   1.898  15.587  14.886
10594W        W72125  21.043  15.257   0.365
10595W        W72126  12.340  22.688   3.810
10596W        W72127  35.448  35.867  14.279
10597W        W72128  17.677  32.513  12.949
10598W        W72129   8.805  42.476   3.773
10599W        W72130  18.759  39.482   2.282
10600W        W72131  34.547  41.516   2.286
10601W        W72132   1.298   4.881  14.979
10602W        W72133  33.521  25.182   4.802
10603W        W72134   9.258  39.002  13.058
10604W        W72135  33.413   5.723  11.024
10605W        W72136   8.848   8.231  12.517
10606W        W72137   0.930  40.361   2.289
10607W        W72138  39.445  42.369  11.975
10608W        W72139  29.628  15.151  14.441
10609W        W72140   9.290  24.213  10.973
10610W        W72141  42.360  11.286   1.740
10611W        W72142  19.685  22.219  12.944
10612W        W72143  21.731  11.768   2.275
10613W        W72144  25.137  28.643  13.822
10614W        W72145  42.869   6.915   1.386
10615W        W72146  13.731  13.813  10.420
10616W        W72147  21.667  13.192  11.427
10617W        W72148  22.027  13.258   3.165
10618W        W72149  18.238  42.397   3.232
10619W        W72150  25.173  35.044   4.306
10620W        W72151  19.654  13.644   2.748
10621W        W72152  22.694  17.277   5.221
10622W        W72153  21.622   2.358  13.917
10623W        W72154  11.189   9.700   2.712
10624W        W72155  29.083  25.552   3.801
10625W        W72156   5.243  24.031  11.445
10626W        W72157   7.784  24.010   1.749
10627W        W72158   8.183  42.859  12.983
10628W        W72159  16.224  33.953  12.980
10629W        W72160   1.848  28.678  12.010
10630W        W72161  38.531  16.788  13.829
10631W        W72162   6.695  17.063   2.895
10632W        W72163  15.252  27.639   2.257
10633W        W72164  44.825  14.218  14.831
10634W        W72165  18.607   7.673  10.464
10635W        W72166  26.628   6.416  12.544
10636W        W72167   3.369  35.055  10.476
10637W        W72168   1.761   1.871   1.299
10638W        W72169  14.808  31.959   0.731
10639W        W72170  21.144  18.660   2.366
10640W        W72171  31.614  40.441  14.292
10641W        W72172  11.173  16.704   0.950
10642W        W72173  32.138  14.703  12.449
10643W        W72174  27.524  18.175   3.688
10644W        W72175   7.764  36.927  13.442
10645W        W72176  34.415  17.290  13.968
10646W        W72177  12.323   1.880   3.796
10647W        W72178  21.113   7.288  12.409
10648W        W72179  28.494  29.982  14.283
10649W        W72180  41.035   5.246  11.005
10650W        W72181  36.529  42.902  11.468
10651W        W72182   8.293   3.945   0.806
10652W        W72183  31.594  24.203   4.335
10653W        W72184  14.314  35.900   3.769
10654W        W72185  27.044  23.725  12.345
10655W        W72186  39.514   1.292   2.230
10656W        W72187  22.203   2.802  14.448
10657W        W72188  16.591  28.969   1.934
10658W        W72189  39.377   5.824   0.843
10659W        W72190   6.790  32.471  14.013
10660W        W72191   5.250  35.376   1.321
10661W        W72192  32.627  11.828  11.955
10662W        W72193  19.168  20.175   4.748
10663W        W72194  13.297   6.246   3.632
10664W        W72195  24.155  14.178  10.930
10665W        W72196   1.753  10.384   1.228
10666W        W72197   0.360  18.633  10.951
10667W        W72198  21.750   9.271  14.420
10668W        W72199  42.283  17.165   3.736
10669W        W72200  22.043  33.573   4.193
10670W        W72201   4.897  39.932  14.509
10671W        W72202  17.732  31.092   4.811
10672W        W72203  30.449  13.625  11.545
10673W        W72204  22.555   7.221   0.775
10674W        W72205  26.028  34.595  13.824
10675W        W72206  43.959  41.878   4.660
10676W        W72207  23.996  27.964   0.763
10677W        W72208   6.388  33.086  10.569
10678W        W72209  20.543   5.910   0.837
10679W        W72210  10.729  43.881  14.484
10680W        W72211  14.098   0.806  14.335
10681W        W72212  28.606  37.373   1.770
10682W        W72213  40.821  42.026   1.916
10683W        W72214  32.970   0.407   4.814
10684W        W72215  31.929  28.513  14.492
10685W        W72216  39.462  41.971  14.514
10686W        W72217  26.684   6.808  10.112
10687W        W72218   2.363  32.463   1.391
10688W        W72219  17.241  11.198  12.532
10689W        W72220  27.673  25.216   2.771
10690W        W72221  16.761  33.478   4.706
10691W        W72222  10.236  34.583   4.654
10692W        W72223  27.477   9.831  14.342
10693W        W72224  20.596  21.750   2.379
10694W        W72225  30.138  41.003   3.682
10695W        W72226  26.689   0.873   1.848
10696W        W72227  30.120  29.140  12.382
10697W        W72228  30.013  36.055   0.835
10698W        W72229   0.806  24.577  12.473
10699W        W72230  38.876  14.179   0.395
10700W        W72231  19.607  41.825  13.939
10701W        W72232  33.452  25.979  13.842
10702W        W72233   9.754  15.697  11.372
10703W        W72234   1.296  36.949  11.053
10704W        W72235  13.349   4.835   3.699
10705W        W72236  35.359  26.106   0.880
10706W        W72237  37.967  40.432   0.950
10707W        W72238  11.806  43.779   2.882
10708W        W72239  25.664  12.810   5.118
10709W        W72240  29.556  26.987  11.521
10710W        W72241  23.728   6.200   2.693
10711W        W72242  43.786  16.577   4.623
10712W        W72243   5.852   0.765  12.919
10713W        W72244  28.098  12.121  14.982
10714W        W72245  12.296  18.057  13.842
10715W        W72246  19.234  41.945   0.937
10716W        W72247  17.754  42.434   2.379
10717W        W72248   1.906  19.590   1.871
10718W        W72249  43.971  27.067  14.291
10719W        W72250  28.499  23.642   3.775
10720W        W72251  14.661  18.722   3.340
10721W        W72252   8.763  24.487   1.423
10722W        W72253  11.285  29.095  12.525
10723W        W72254  20.122   1.905  14.848
10724W        W72255   9.149  44.379  10.911
10725W        W72256  17.568   3.304   3.281
10726W        W72257   0.765  21.606   0.903
10727W        W72258  38.053   9.149   3.639
10728W        W72259   8.287  28.084   2.667
10729W        W72260  35.485  31.526   4.752
10730W        W72261  15.251   2.286  13.520
10731W        W72262  22.710  19.204   4.221
10732W        W72263  39.454  17.581   3.280
10733W        W72264  18.144  21.203  14.408
10734W        W72265  21.732  29.529   1.375
10735W        W72266  30.529  39.337   1.701
10736W        W72267  41.789   7.316  10.430
10737W        W72268   3.272   0.248  13.010
10738W        W72269  40.955  22.203  11.518
10739W        W72270  41.302   4.754  13.424
10740W        W72271  24.138  44.971  10.411
10741W        W72272  29.668  33.491   1.419
10742W        W72273  21.616   9.714   0.349
10743W        W72274  19.780  42.500  11.085
10744W        W72275  34.524   8.168   2.195
10745W        W72276  18.686  12.237   2.370
10746W        W72277  44.846  14.258  10.547
10747W        W72278  13.828  10.786  12.422
10748W        W72279  34.418  13.790  13.997
10749W        W72280  38.076  24.671  12.517
10750W        W72281  24.160  28.929   3.250
10751W        W72282  23.611   4.748  11.450
10752W        W72283  44.356   8.741  12.052
10753W        W72284  39.812   5.695   0.366
10754W        W72285  37.047  15.648   0.891
10755W        W72286  23.610  40.343  12.857
10756W        W72287   6.345  41.317  13.933
10757W        W72288  38.442   3.241  14.837
10758W        W72289  41.962  28.036   4.215
10759W        W72290  16.728  32.119  14.993
10760W        W72291  17.173   6.769   0.247
10761W        W72292  21.516   3.914  13.966
10762W        W72293  31.107  37.864  14.876
10763W        W72294   0.979  16.161  11.098
10764W        W72295  15.625  15.158  14.496
10765W        W72296  25.017  18.188   0.863
10766W        W72297  38.441  44.303   4.711
10767W        W72298  24.523  38.919  12.349
10768W        W72299  33.966  16.754  14.494
10769W        W72300  34.872  34.530  13.048
10770W        W72301   1.969  18.145  12.558
10771W        W72302  22.532   0.868   3.251
10772W        W72303  28.039  17.718   4.681
10773W        W72304  12.721  37.455   3.845
10774W        W72305   6.242   6.414  11.931
10775W        W72306  35.032  22.187  11.012
10776W        W72307  42.414  28.136   0.803
10777W        W72308  40.006  32.490  14.826
10778W        W72309  37.895  42.423  11.960
10779W        W72310   9.837   8.778   3.223
10780W        W72311  19.165   4.918  11.856
10781W        W72312  37.576  35.566   0.771
10782W        W72313   8.664  42.932  14.504
10783W        W72314   9.814   0.951  13.939
10784W        W72315   5.721  41.016  14.031
10785W        W72316   3.807  32.617   2.233
10786W        W72317  18.149  35.092  13.451
10787W        W72318  43.419  42.988   3.762
10788W        W72319  31.579  32.088  14.880
10789W        W72320   5.399   7.820  11.445
10790W        W72321  16.241   6.198   3.794
10791W        W72322  40.865   0.369   1.274
10792W        W72323  40.954  41.822  12.947
10793W        W72324  30.527  16.161  11.451
10794W        W72325  10.167  32.626  12.344
10795W        W72326  27.615  25.489  10.893
10796W        W72327   1.448  25.484  10.069
10797W        W72328  29.983  21.086  10.147
10798W        W72329  37.508  18.704   4.786
10799W        W72330   2.887  11.349   1.310
10800W        W72331  24.016  44.329   1.353
10801W        W72332  14.294  18.561   5.185
10802W        W72333   5.269  10.808  12.441
10803W        W72334  38.391  20.608  13.463
10804W        W72335   2.790  38.896   3.663
10805W        W72336   4.241  44.006  11.967
10806W        W72337  32.050  22.609  11.007
10807W        W72338  29.521  27.626   3.174
10808W        W72339  32.032  42.324   1.718
10809W        W72340  25.079  42.814  12.949
10810W        W72341  28.655  34.609   2.857
10811W        W72342   3.402  11.662  12.881
10812W        W72343  33.574  28.147  12.899
10813W        W72344  14.702  24.145  12.406
10814W        W72345   5.845   0.867  13.870
10815W        W72346  41.807  33.491  10.447
10816W        W72347   0.813  31.913  12.541
10817W        W72348  34.973  20.575   3.866
10818W        W72349  21.671  26.578  13.522
10819W        W72350  19.689  22.028  12.439
10820W        W72351   1.447  12.190   0.825
10821W        W72352   7.395   5.852   1.215
10822W        W72353  28.513   2.444   3.751
10823W        W72354  41.788  30.086   3.702
10824W        W72355  21.673  40.407  14.976
10825W        W72356  26.087  31.100   1.439
10826W        W72357  44.319   9.856   0.273
10827W        W72358  16.102  30.570   9.590
10828W        W72359  35.444  24.046   4.732
10829W        W72360  37.980  18.157  11.054
10830W        W72361  27.950  21.105  12.859
10831W        W72362  15.244  25.629   4.767
10832W        W72363  22.231  14.712  14.819
10833W        W72364  16.158  40.398   4.632
10834W        W72365  33.975   8.395  11.374
10835W        W72366  17.182  11.724  10.493
10836W        W72367   3.910  10.231   3.708
10837W        W72368   1.961  30.452   2.351
10838W        W72369  38.414  42.326  14.340
10839W        W72370  34.571   7.803   2.824
10840W        W72371  20.571  25.002   1.763
10841W        W72372  41.510   2.466  12.382
10842W        W72373  36.001   8.333   1.764
10843W        W72374  33.384  15.136  12.001
10844W        W72375  21.210  30.448  13.828
10845W        W72376   7.220  13.268  10.936
10846W        W72377   5.341  22.613  11.507
10847W        W72378  21.105  13.780  11.425
10848W        W72379  29.923   5.263   1.764
10849W        W72380  31.036  15.193  12.917
10850W        W72381  16.622   5.714   2.380
10851W        W72382   6.272  40.303  11.548
10852W        W72383  15.202  19.206  12.043
10853W        W72384  31.971  10.821  10.105
10854W        W72385  43.436   9.297  14.989
10855W        W72386  31.045  32.391   2.686
10856W        W72387  36.419  21.595  14.952
10857W        W72388  29.641  20.636   2.795
10858W        W72389  32.423  11.289   4.699
10859W        W72390  17.689  17.141   2.764
10860W        W72391   9.701   5.700  12.564
10861W        W72392   2.904  22.694  14.943
10862W        W72393  15.145  35.540  13.318
10863W        W72394   2.948   7.777   0.903
10864W        W72395  20.214  30.988  11.863
10865W        W72396  39.993  33.528  10.596
10866W        W72397  29.478   3.739  14.357
10867W        W72398  44.350  43.486  14.289
10868W        W72399  19.718   4.777  11.006
10869W        W72400  13.630   4.734   4.693
10870W        W72401  37.364  44.357  11.422
10871W        W72402  14.686   6.721  13.055
10872W        W72403   1.959  34.099  10.625
10873W        W72404   2.297   5.307   2.797
10874W        W72405  23.137   1.345   2.245
10875W        W72406   7.311  11.355   1.714
10876W        W72407  43.939  31.011   0.334
10877W        W72408  20.543  25.164  11.935
10878W        W72409  17.720  30.020   4.257
10879W        W72410  30.641  14.832   1.813
10880W        W72411   5.791  38.472   0.751
10881W        W72412  18.145  39.349  11.383
10882W        W72413  19.089  34.963  12.552
10883W        W72414  16.751  33.952   2.762
10884W        W72415  11.342  35.548   4.347
10885W        W72416  10.680  41.982  14.879
10886W        W72417  32.610  28.069  10.645
10887W        W72418   5.747   6.237   3.655
10888W        W72419   9.207   7.347  14.351
10889W        W72420  37.844  17.739   1.852
10890W        W72421  41.354   2.264  14.405
10891W        W72422  21.255   7.356   0.845
10892W        W72423   3.736   2.434   4.131
10893W        W72424  17.603  37.010   0.768
10894W        W72425   1.466  37.382  14.360
10895W        W72426  39.535  22.658  10.927
10896W        W72427   5.309  36.378   4.139
10897W        W72428   0.364  28.473  13.390
10898W        W72429  27.073   7.818  10.064
10899W        W72430  29.106   5.358  12.521
10900W        W72431  13.134  12.658  10.551
10901W        W72432   7.845  26.663  12.394
10902W        W72433  18.720  40.925   2.381
10903W        W72434  42.446  37.563  12.825
10904W        W72435  41.972  11.226   1.734
10905W        W72436  16.275   2.376  13.886
10906W        W72437  21.046  37.515  11.864
10907W        W72438   6.229  38.412   0.780
10908W        W72439  16.310  27.675  12.370
10909W        W72440  41.850  23.204   0.357
10910W        W72441   1.750  31.567   4.185
10911W        W72442  24.051  18.758  11.519
10912W        W72443   3.932   8.694  13.057
10913W        W72444  24.565   1.375   4.334
10914W        W72445   9.158  15.218  13.931
10915W        W72446  41.014   2.753  14.964
10916W        W72447  23.515  36.364   4.298
10917W        W72448  25.579   8.163   9.498
10918W        W72449   7.290  13.248  14.300
10919W        W72450  12.264  15.608   0.883
10920W        W72451  23.108  15.748  10.599
10921W        W72452  27.517   3.756  12.451
10922W        W72453  31.134  32.991  11.030
10923W        W72454  30.114   4.220   4.181
10924W        W72455   6.210   5.750   2.715
10925W        W72456   7.817  41.026   0.911
10926W        W72457  43.303  27.981   1.848
10927W        W72458  42.414  10.747   4.146
10928W        W72459   9.693  27.612  11.564
10929W        W72460  40.508  35.066   2.859
10930W        W72461   3.365  36.447  12.428
10931W        W72462   4.270  38.419   1.420
10932W        W72463  25.188  38.914   1.357
10933W        W72464  21.194  26.580  12.019
10934W        W72465  13.771  31.009   3.380
10935W        W72466  17.223  28.624  10.465
10936W        W72467  44.484  42.007  12.916
10937W        W72468  12.847  28.946  11.586
10938W        W72469  44.815  28.160   2.349
10939W        W72470   2.861   8.391  12.364
10940W        W72471  36.054  19.043   0.726
10941W        W72472  31.502  20.523   1.733
10942W        W72473  29.935   0.928   3.198
10943W        W72474   2.409  18.760   0.922
10944W        W72475  35.868   5.858  12.036
10945W        W72476  34.534  22.530   4.115
10946W        W72477   2.830  13.633  11.872
10947W        W72478  25.671  34.455   2.334
10948W        W72479  29.927  18.657  14.324
10949W        W72480  31.949   0.911  14.918
10950W        W72481  17.709  28.550  12.492
10951W        W72482  39.523  42.946   0.477
10952W        W72483   2.725   1.324   4.145
10953W        W72484  28.443  30.650   2.318
10954W        W72485  34.057  15.677   0.435
10955W        W72486  20.103  27.024   3.361
10956W        W72487   8.290  16.167  12.522
10957W        W72488   8.813  12.698  11.508
10958W        W72489  34.612  32.991   2.895
10959W        W72490  34.441   9.643   3.174
10960W        W72491  39.445  22.126   3.283
10961W        W72492  21.758  12.302  12.998
10962W        W72493  12.633  15.637  12.917
10963W        W72494  30.527  35.532   4.331
10964W        W72495   3.460  31.441  12.884
10965W        W72496  23.123  35.599  12.579
10966W        W72497   1.323  22.252   3.162
10967W        W72498  38.455  42.867   2.712
10968W        W72499  22.578   2.450  10.527
10969W        W72500  14.738  42.358   3.693
10970W        W72501  43.484  23.041  14.937
10971W        W72502  35.905  38.003  11.499
10972W        W72503  40.919   1.406  13.415
10973W        W72504  32.495  28.022   2.273
10974W        W72505  23.602  31.118   2.387
10975W        W72506  42.396   9.272  13.987
10976W        W72507  26.527  43.304   0.350
10977W        W72508   5.759  28.011  11.081
10978W        W72509  39.397  19.766   4.629
10979W        W72510   7.256  18.160   1.243
10980W        W72511  10.824   2.819   1.806
10981W        W72512  11.648  33.900  14.286
10982W        W72513   0.458  31.017   4.205
10983W        W72514   8.723  26.196  11.021
10984W        W72515  20.629  22.062   0.442
10985W        W72516  38.913  39.487  14.411
10986W        W72517  40.342  21.598   1.855
10987W        W72518   7.693  32.498   1.884
10988W        W72519  25.094  21.193   0.277
10989W        W72520  20.063  26.089  13.878
10990W        W72521  44.470  10.806  10.501
10991W        W72522  42.026   1.412  13.832
10992W        W72523  35.987  39.513   0.940
10993W        W72524  24.659  11.240   3.243
10994W        W72525  29.555   9.771  13.056
10995W        W72526  44.781  26.012   1.378
10996W        W72527  40.412  35.085  11.977
10997W        W72528   9.161  43.383   2.183
10998W        W72529  44.428   9.251  12.998
10999W        W72530  16.681  17.250   1.259
11000W        W72531  16.765  28.941   0.852
11001W        W72532   0.357  43.945  13.331
11002W        W72533   9.885  29.128  13.460
11003W        W72534  16.602   1.238   0.458
11004W        W72535  10.184  20.265   0.360
11005W        W72536  34.404  34.484   4.259
11006W        W72537  23.211  10.215   2.753
11007W        W72538  19.056  25.096   5.242
11008W        W72539   6.816   6.331  14.455
11009W        W72540  22.152  19.232  14.840
11010W        W72541  18.629  26.600  12.825
11011W        W72542  41.023  40.849   4.210
11012W        W72543  28.183  11.737   1.710
11013W        W72544  37.336  22.090  12.984
11014W        W72545  31.566   7.853  10.436
11015W        W72546  38.567  37.047  13.058
11016W        W72547   4.237  30.114  13.324
11017W        W72548  41.792  15.708  14.889
11018W        W72549   1.774  43.394  13.806
11019W        W72550  26.677  23.994   5.183
11020W        W72551  28.165  23.541   3.329
11021W        W72552   5.311  20.042  10.987
11022W        W72553  26.971  33.076  12.380
11023W        W72554  30.971   3.296  10.900
11024W        W72555  13.802  16.304   1.319
11025W        W72556  15.723  23.696  14.401
11026W        W72557  16.265   5.252  14.396
11027W        W72558  44.852   0.288   2.716
11028W        W72559   5.250  19.739   4.344
11029W        W72560  36.387  27.158   3.195
11030W        W72561  43.778  14.116   4.772
11031W        W72562  42.975  16.794   4.681
11032W        W72563  37.006  38.428   0.289
11033W        W72564  13.631  17.259   2.896
11034W        W72565  18.168  23.180  10.448
11035W        W72566   1.974  36.564  13.843
11036W        W72567  17.750  10.706   3.758
11037W        W72568  11.260  17.288  12.959
11038W        W72569  15.296  16.299   4.734
11039W        W72570  17.618  22.160  11.923
11040W        W72571  29.121  44.448  13.365
11041W        W72572  21.666  35.861   0.820
11042W        W72573  44.477  19.273  13.970
11043W        W72574  34.567  43.863   2.331
11044W        W72575  42.031  30.658  10.079
11045W        W72576  40.915  25.670   4.174
11046W        W72577   7.667   0.249   5.099
11047W        W72578  32.086  14.818  11.576
11048W        W72579  37.954  35.362   4.177
11049W        W72580   2.742  16.177  11.558
11050W        W72581  44.349  13.226  12.343
11051W        W72582  16.168  14.189  11.423
11052W        W72583   5.894  32.001   4.324
11053W        W72584  31.130  33.575  13.796
11054W        W72585  32.434  12.139   2.766
11055W        W72586  41.905  15.294  13.804
11056W        W72587  23.550  37.452   4.601
11057W        W72588  38.907   1.875  13.479
11058W        W72589  37.521  19.050   3.167
11059W        W72590   2.349   0.294   2.886
11060W        W72591  36.435   0.434  13.314
11061W        W72592  22.033  43.458  10.563
11062W        W72593  14.144  22.621  13.853
11063W        W72594  30.562  33.062  11.503
11064W        W72595   9.732  17.746  10.993
11065W        W72596  11.179  16.311  14.337
11066W        W72597   6.753  34.499  13.460
11067W        W72598   2.342  22.214   4.774
11068W        W72599   6.910  39.853  13.814
11069W        W72600  18.740  16.096  11.382
11070W        W72601  18.681  22.161   2.250
11071W        W72602   4.373   0.812  13.794
11072W        W72603   8.264  20.571  14.465
11073W        W72604   8.213  29.633   2.706
11074W        W72605   6.357  26.980  12.529
11075W        W72606   3.735  15.150   4.153
11076W        W72607   8.277  37.374   2.363
11077W        W72608  29.453   4.446  14.508
11078W        W72609  19.687  44.467  14.282
11079W        W72610  29.054  14.176  14.296
11080W        W72611   8.163  38.020   3.674
11081W        W72612  17.645  33.399  13.876
11082W        W72613   6.268  26.126  11.111
11083W        W72614  33.570  22.579  11.950
11084W        W72615  32.489   5.256  13.982
11085W        W72616   0.421  16.317   4.830
11086W        W72617  40.033  26.103   2.239
11087W        W72618  37.492  28.094  13.533
11088W        W72619  32.403  14.277  10.603
11089W        W72620  13.274  32.512   4.650
11090W        W72621  44.442  44.873  12.043
11091W        W72622   8.361  36.964  10.958
11092W        W72623  24.033  27.658   3.364
11093W        W72624   6.785   2.949   9.958
11094W        W72625  18.133   5.820  12.912
11095W        W72626  22.532  43.448   3.784
11096W        W72627  29.478  39.467   2.289
11097W        W72628  39.847  38.993  10.957
11098W        W72629   7.274  31.925  11.950
11099W        W72630  25.714   3.740   4.117
11100W        W72631   0.880  19.636   1.449
11101W        W72632  20.762  40.318   3.826
11102W        W72633  35.592  24.712  11.959
11103W        W72634   5.285  13.786  12.962
11104W        W72635  31.598   7.768  11.395
11105W        W72636   9.734  44.923  11.965
11106W        W72637  32.497   0.833   0.759
11107W        W72638  37.926  26.088   0.435
11108W        W72639   5.369   9.874   0.851
11109W        W72640  23.138  14.715  12.014
11110W        W72641  39.009   2.924  14.470
11111W        W72642  25.566  39.967  14.827
11112W        W72643  14.602  22.699  10.900
11113W        W72644  42.878  37.937  13.930
11114W        W72645  26.100  29.082   0.863
11115W        W72646  25.979  31.612  12.093
11116W        W72647  29.545  44.929   1.814
11117W        W72648   8.354  16.300   4.343
11118W        W72649  31.057   2.430   3.292
11119W        W72650  43.272  19.606   4.121
11120W        W72651  28.959  18.295   0.268
11121W        W72652  22.145  21.193  14.299
11122W        W72653  35.588  44.439  12.468
11123W        W72654  32.142  37.972   0.370
11124W        W72655  29.131  39.459   0.759
11125W        W72656  34.444   1.752  11.502
11126W        W72657  17.605  10.822   3.209
11127W        W72658  38.860   4.904  12.522
11128W        W72659  22.654  15.771   5.245
11129W        W72660  33.894  41.293   1.429
11130W        W72661  25.110  12.126  13.992
11131W        W72662   9.773  39.330   0.907
11132W        W72663  16.145   6.874  12.527
11133W        W72664  23.508  41.953   2.732
11134W        W72665  34.387  32.623  11.549
11135W        W72666  28.567  39.478   2.668
11136W        W72667  43.492   1.277  14.501
11137W        W72668  24.097  38.055  13.943
11138W        W72669  39.979  24.074  12.007
11139W        W72670  28.595  17.604  14.831
11140W        W72671  25.543  27.614  14.430
11141W        W72672  18.068  14.152   4.208
11142W        W72673  19.741  34.080  11.039
11143W        W72674  39.488  17.712  11.051
11144W        W72675   7.765   3.277   2.884
11145W        W72676  12.248  14.741   3.246
11146W        W72677  32.053  30.508   1.800
11147W        W72678   1.961  40.984   1.264
11148W        W72679  32.555  27.047  11.124
11149W        W72680  26.473  42.877  11.505
11150W        W72681  31.418  25.101   3.154
11151W        W72682  39.046  17.110  13.849
11152W        W72683  38.033  41.880  14.372
11153W        W72684  35.030  44.373   3.786
11154W        W72685  34.370   0.803   3.752
11155W        W72686  44.936  39.398   0.286
11156W        W72687  26.161  41.491   3.725
11157W        W72688  19.275  32.115   4.759
11158W        W72689  42.372  10.260   4.201
11159W        W72690  41.916   8.895  12.836
11160W        W72691  23.547  20.052   4.242
11161W        W72692   9.776  15.204  11.521
11162W        W72693  37.398  44.484   0.372
11163W        W72694  35.603   5.707   4.239
11164W        W72695  26.576  43.958  10.140
11165W        W72696  38.856  21.242   2.691
11166W        W72697  17.656  31.092  12.410
11167W        W72698  44.288  35.984   1.292
11168W        W72699  21.031   7.341  12.912
11169W        W72700   5.690  37.450  11.041
11170W        W72701  39.922  33.951   2.309
11171W        W72702  11.867  34.989   1.394
11172W        W72703  32.080  21.260   0.442
11173W        W72704  18.131   8.656  13.415
11174W        W72705  40.408  10.148  13.045
11175W        W72706  16.092  40.909   3.755
11176W        W72707  32.966  25.999   4.312
11177W        W72708   4.363  29.104   3.682
11178W        W72709  35.873  15.308   3.298
11179W        W72710  30.164  33.969   2.254
11180W        W72711  18.266  26.043   2.820
11181W        W72712   1.380   8.389  13.852
11182W        W72713  17.626  27.066  13.490
11183W        W72714  42.952  25.565   3.207
11184W        W72715  28.162  25.527   4.839
11185W        W72716  34.547  20.523  10.954
11186W        W72717  37.520  21.575   4.296
11187W        W72718  31.969   4.936   0.761
11188W        W72719  30.106  15.794  13.856
11189W        W72720   9.758  40.032   2.850
11190W        W72721  20.166   8.895   3.717
11191W        W72722  28.958   1.944   0.468
11192W        W72723  23.722  10.719  11.479
11193W        W72724  20.693  37.954   4.344
11194W        W72725   2.335  24.592   1.412
11195W        W72726   2.298   0.886  14.427
11196W        W72727  13.629  36.004  10.906
11197W        W72728   4.839  35.451   1.734
11198W        W72729  15.248  11.777  10.569
11199W        W72730  16.114  41.398   1.875
11200W        W72731  34.923  30.065  14.962
11201W        W72732  41.947  26.474   3.201
11202W        W72733   9.364   8.340   2.322
11203W        W72734  12.249  17.137   2.365
11204W        W72735  13.841  24.073   2.765
11205W        W72736  33.520  22.166   1.745
11206W        W72737  21.233   0.444   1.215
11207W        W72738  29.650  33.879  14.871
11208W        W72739  38.855  28.597  12.032
11209W        W72740  26.952   0.364   0.326
11210W        W72741  32.990  37.872  12.525
11211W        W72742  20.529  15.797  14.311
11212W        W72743  31.417  18.050   5.223
11213W        W72744  31.099  18.758  10.445
11214W        W72745  22.250   7.849   3.759
11215W        W72746   0.420  31.999  14.495
11216W        W72747   9.242  17.749   3.723
11217W        W72748   3.248  26.545   3.686
11218W        W72749  37.026  39.324  10.929
11219W        W72750  19.269  17.073  10.906
11220W        W72751  26.207  39.905  11.385
11221W        W72752  23.092  21.134  12.894
11222W        W72753  40.929  22.609   3.772
11223W        W72754  10.288  12.677   2.343
11224W        W72755  16.281  23.029   3.359
11225W        W72756   8.886   0.855  12.900
11226W        W72757  18.282  21.225  12.064
11227W        W72758  38.019  38.907  13.873
11228W        W72759  26.636  37.439  11.953
11229W        W72760  31.494  27.967   2.898
11230W        W72761  34.552   8.282  10.522
11231W        W72762  26.062  15.155   2.217
11232W        W72763  20.661  21.201  12.955
11233W        W72764  11.747  39.516   2.246
11234W        W72765  26.049  42.999  14.942
11235W        W72766   7.292   6.316  11.889
11236W        W72767  32.141   4.741   1.393
11237W        W72768  41.866  27.498   4.628
11238W        W72769  28.512   0.342   4.301
11239W        W72770  34.378   3.440   0.414
11240W        W72771  21.667  18.590  11.436
11241W        W72772   0.295  28.646  14.350
11242W        W72773  27.580   3.771  13.018
11243W        W72774  18.295   9.719   3.630
11244W        W72775  31.925  39.837  14.971
11245W        W72776  43.402  12.639  14.922
11246W        W72777  22.555  38.055  13.983
11247W        W72778   0.875  27.174   9.990
11248W        W72779  28.596  11.284  10.464
11249W        W72780   8.316  14.796  14.849
11250W        W72781   2.238   6.884   0.410
11251W        W72782  19.601  37.565  12.456
11252W        W72783  14.258  23.207   1.303
11253W        W72784  21.649  17.231   3.798
11254W        W72785  19.579  33.498   1.358
11255W        W72786  39.411  40.370   1.744
11256W        W72787  40.871  23.191   4.319
11257W        W72788  15.196  40.540   3.210
11258W        W72789  18.221   6.329   3.220
11259W        W72790  26.540  35.359   2.180
11260W        W72791  29.968   9.749   3.707
11261W        W72792   4.296  42.954   2.308
11262W        W72793   0.822  40.874   4.218
11263W        W72794  27.567   2.424  13.372
11264W        W72795  42.845  38.943   1.382
11265W        W72796  38.057  21.687  13.369
11266W        W72797  30.543  34.977   0.392
11267W        W72798  26.186  25.990   2.402
11268W        W72799  40.039   2.337  14.333
11269W        W72800  16.289   6.322  10.028
11270W        W72801  16.224  33.492   0.945
11271W        W72802  26.028   0.443  10.961
11272W        W72803  17.609  10.812  12.521
11273W        W72804  36.537  38.952   5.217
11274W        W72805  30.088  23.129  13.943
11275W        W72806   9.295  41.302   3.243
11276W        W72807  26.130  44.952   2.344
11277W        W72808  19.540  28.673  13.047
11278W        W72809  34.388  14.272   0.284
11279W        W72810  23.691  31.099   0.279
11280W        W72811   8.760   7.171  14.992
11281W        W72812  29.579  23.541   4.788
11282W        W72813   6.756  33.468  13.500
11283W        W72814   6.781  36.036  14.367
11284W        W72815  37.351  11.273  12.046
11285W        W72816   2.859   4.872   2.854
11286W        W72817   5.309  20.171   2.813
11287W        W72818  23.089  31.538   0.463
11288W        W72819  37.926  12.806  11.076
11289W        W72820  23.164   0.391  10.918
11290W        W72821  13.602  10.163  13.453
11291W        W72822  20.724  29.656   0.316
11292W        W72823  23.615  38.459  13.308
11293W        W72824  19.699  39.965   2.285
11294W        W72825   7.213  22.654   0.922
11295W        W72826  20.229  41.838  13.519
11296W        W72827  36.584   0.914  12.058
11297W        W72828   6.781   7.293   0.371
11298W        W72829  28.676  32.943  14.420
11299W        W72830  43.374  41.329   4.629
11300W        W72831   0.820  36.868   4.113
11301W        W72832   4.735  23.121   1.909
11302W        W72833  21.179   8.161   3.764
11303W        W72834   6.366  19.052   1.815
11304W        W72835  10.234  10.377   0.481
11305W        W72836  22.012   8.380  14.959
11306W        W72837  44.453  40.391  13.042
11307W        W72838  38.028   7.860  14.437
11308W        W72839  25.515  11.179  10.056
11309W        W72840  43.478   8.875  11.409
11310W        W72841  19.708  44.961   4.629
11311W        W72842  32.901   9.880  14.883
11312W        W72843  10.303  12.669   1.920
11313W        W72844  36.961  21.115   1.305
11314W        W72845  18.059  29.634   0.747
11315W        W72846  35.864  28.613  10.589
11316W        W72847   6.726  26.608  13.838
11317W        W72848  17.697  37.416  11.554
11318W        W72849  34.971   8.718  10.587
11319W        W72850  20.709  38.940   3.749
11320W        W72851  19.044   2.830   1.242
11321W        W72852  28.520   0.438  13.909
11322W        W72853   3.813  25.196  10.914
11323W        W72854  37.361   9.173   1.695
11324W        W72855  17.106   3.223  14.990
11325W        W72856  27.131  39.868   2.317
11326W        W72857  41.945  44.307  10.031
11327W        W72858  40.489  32.016   5.219
11328W        W72859   1.423  23.235  14.387
11329W        W72860  44.953  28.035  12.093
11330W        W72861  32.576  32.525  12.471
11331W        W72862   6.880  18.114   1.425
11332W        W72863  42.932  19.140  12.421
11333W        W72864  44.364   3.889  10.064
11334W        W72865  44.342  41.408  12.883
11335W        W72866  23.106  36.977  14.327
11336W        W72867  43.912  12.119   2.837
11337W        W72868   5.328  43.866   0.386
11338W        W72869  39.471  37.467  11.381
11339W        W72870  27.067  38.435  14.514
11340W        W72871   3.853   5.373  10.942
11341W        W72872  36.438  20.030  14.024
11342W        W72873  27.972  34.877   4.190
11343W        W72874   5.912   7.364  12.515
11344W        W72875  29.580  19.656  12.459
11345W        W72876  44.849  22.701   1.743
11346W        W72877  10.655  28.084  11.934
11347W        W72878  11.330  40.486   3.657
11348W        W72879  33.082   0.398   0.269
11349W        W72880  23.571  27.519   9.924
11350W        W72881  11.657  28.150  13.993
11351W        W72882  15.096  42.936  13.896
11352W        W72883  14.665  38.413   3.696
11353W        W72884  21.203  40.927   9.539
11354W        W72885  36.079  10.747  10.967
11355W        W72886  36.965  23.620  11.586
11356W        W72887  18.177  40.958   3.788
11357W        W72888  10.281  11.689   4.342
11358W        W72889  11.279   0.754  10.908
11359W        W72890  22.219  44.936  14.500
11360W        W72891  30.453  31.611   3.633
11361W        W72892   1.273  24.551  13.876
11362W        W72893  15.113   0.382  13.905
11363W        W72894  13.227  17.304   3.830
11364W        W72895  39.917  42.032   4.818
11365W        W72896  44.482  34.610   1.311
11366W        W72897  26.573  18.162   4.822
11367W        W72898  35.458  18.782  12.092
11368W        W72899  19.636  38.332   0.825
11369W        W72900   9.733  28.597   4.724
11370W        W72901  29.668   1.796  12.952
11371W        W72902  21.670   4.293  13.894
11372W        W72903  30.014   3.356   4.235
11373W        W72904   6.762  33.386   2.186
11374W        W72905  30.505  30.553   3.174
11375W        W72906   2.392  33.908   1.384
11376W        W72907  31.134  40.971   1.424
11377W        W72908  37.397   1.777   2.789
11378W        W72909  34.036   9.183   1.873
11379W        W72910  42.399  31.546  13.022
11380W        W72911  41.854   5.869   1.295
11381W        W72912  24.484  14.220   3.826
11382W        W72913   3.932   6.766   4.771
11383W        W72914  11.770  23.707  11.885
11384W        W72915   0.912  22.707   5.115
11385W        W72916  31.966   4.380  14.896
11386W        W72917   8.300  13.831  11.920
11387W        W72918   3.367   1.386   0.477
11388W        W72919  14.142  21.138   3.735
11389W        W72920  27.587   9.198   4.236
11390W        W72921  35.877  17.185  13.792
11391W        W72922  26.129  35.514  12.420
11392W        W72923  20.165  19.683  12.541
11393W        W72924  17.783  11.822  10.978
11394W        W72925  26.056  35.003   0.779
11395W        W72926  36.893  15.305   2.217
11396W        W72927  11.785   8.292   4.755
11397W        W72928  34.071  22.022   1.794
11398W        W72929  31.552  14.665   2.205
11399W        W72930  19.686  11.266  12.421
11400W        W72931  16.598  14.249  13.982
11401W        W72932  23.078  12.175  14.277
11402W        W72933  24.510  29.126   1.284
11403W        W72934  31.946  12.185  12.379
11404W        W72935  11.837  34.601   2.784
11405W        W72936  17.132  10.654   2.825
11406W        W72937  39.456  24.095   0.305
11407W        W72938  16.197  16.804  12.375
11408W        W72939  43.821  16.576   4.255
11409W        W72940   7.734  44.008  12.987
11410W        W72941  11.209  29.978   2.742
11411W        W72942  21.518  40.336  14.339
11412W        W72943  22.629   7.712  11.055
11413W        W72944  29.664  36.901   3.341
11414W        W72945  38.330  22.053   4.694
11415W        W72946  23.070  14.829   4.314
11416W        W72947   2.853  38.392   3.254
11417W        W72948  23.730   9.681   4.795
11418W        W72949  17.215  41.294   1.814
11419W        W72950  44.271  31.018  14.914
11420W        W72951  20.196  17.600   1.413
11421W        W72952  27.605  42.894  13.327
11422W        W72953  39.385   3.812  12.895
11423W        W72954   1.947   0.766  13.365
11424W        W72955  23.109  13.325  14.406
11425W        W72956  12.698  32.468  11.525
11426W        W72957  39.950  11.826   3.868
11427W        W72958  29.141  29.132   1.424
11428W        W72959  33.067  29.103  14.888
11429W        W72960   0.263  28.513  14.916
11430W        W72961  13.715  25.567  13.919
11431W        W72962   8.196  13.188   1.427
11432W        W72963  43.354   8.782  11.116
11433W        W72964  27.685   3.722   3.148
11434W        W72965   1.430   3.864   1.333
11435W        W72966  13.610  12.617   4.809
11436W        W72967   8.312  25.988  11.109
11437W        W72968  28.492  30.155   2.689
11438W        W72969  19.208  36.001  11.497
11439W        W72970  33.492  13.831   3.186
11440W        W72971  33.444   1.926  13.387
11441W        W72972  19.725  18.746  14.442
11442W        W72973  31.590   5.688   4.635
11443W        W72974  34.542  43.324  11.464
11444W        W72975  19.626  20.220   1.768
11445W        W72976  10.345  13.700  11.583
11446W        W72977  24.505  21.698   3.819
11447W        W72978  38.462   6.373   3.175
11448W        W72979  34.396  29.559  14.504
11449W        W72980  13.318   0.313  14.986
11450W        W72981  38.568   9.311   2.314
11451W        W72982   6.684  44.259   1.296
11452W        W72983  15.626   0.486  10.585
11453W        W72984  29.103  27.513   1.780
11454W        W72985  34.977   8.871   3.712
11455W        W72986  28.599  33.933   0.379
11456W        W72987  30.530  41.470  14.843
11457W        W72988   7.885   1.358   4.281
11458W        W72989  15.593   1.331   0.295
11459W        W72990  28.535   7.856   4.164
11460W        W72991  37.521  40.809   3.310
11461W        W72992  19.536  10.345   1.383
11462W        W72993  16.741  17.602  14.366
11463W        W72994  12.313   5.344  10.918
11464W        W72995  44.388   4.340   2.715
11465W        W72996   2.293  29.001  12.889
11466W        W72997  27.501  22.699   0.863
11467W        W72998   4.855  25.630   5.219
11468W        W72999  40.525   3.314   0.900
11469W        W73000  18.786  31.453   2.417
11470W        W73001  20.162   4.286   3.802
11471W        W73002  13.736   0.885   2.854
11472W        W73003  32.509  42.781  10.598
11473W        W73004  18.197  24.619  14.994
11474W        W73005  40.364   5.285   4.205
11475W        W73006  28.654  37.531  12.407
11476W        W73007  27.562   8.678  14.767
11477W        W73008  18.742  31.424   3.157
11478W        W73009  25.563  11.183  11.426
11479W        W73010  12.156   4.930   1.829
11480W        W73011   9.852  14.720  12.039
11481W        W73012   5.367  12.775   4.301
11482W        W73013  43.919  13.317  10.932
11483W        W73014  35.060  14.285  10.959
11484W        W73015   3.884  39.827  11.417
11485W        W73016  30.946  39.887   4.354
11486W        W73017  24.593  39.464  14.317
11487W        W73018   3.219  36.483   0.746
11488W        W73019  18.100  17.099  11.084
11489W        W73020  14.764   6.241  13.048
11490W        W73021   6.715  10.177  14.829
11491W        W73022  29.155  26.984  11.882
11492W        W73023  42.367  31.520   2.834
11493W        W73024  15.136  25.086  14.397
11494W        W73025  16.600  34.030  13.836
11495W        W73026   7.372   0.375  14.870
11496W        W73027  23.225  38.431  11.598
11497W        W73028   0.950  13.266   3.646
11498W        W73029  15.269  15.142  11.019
11499W        W73030  37.889  22.571  11.380
11500W        W73031   6.783   5.851   0.750
11501W        W73032   4.209  14.620  10.432
11502W        W73033  44.791  37.853  14.494
11503W        W73034  10.833  18.076  10.925
11504W        W73035  40.369  26.613   2.320
11505W        W73036   7.751  39.844   1.874
11506W        W73037  12.308  28.473   5.644
11507W        W73038  34.093  34.600  12.464
11508W        W73039  35.982  18.697  12.041
11509W        W73040  14.189  28.479   4.341
11510W        W73041   1.866  33.462   2.694
11511W        W73042  44.335  30.439   5.227
11512W        W73043  11.671  11.284  13.348
11513W        W73044  21.162  39.023  11.872
11514W        W73045   4.215   3.437   2.273
11515W        W73046  18.112  12.202   4.154
11516W        W73047  20.698  22.583  12.512
11517W        W73048  36.407   8.815   3.307
11518W        W73049  13.675   4.429  13.911
11519W        W73050  35.411   8.727  14.002
11520W        W73051  24.668  28.122   9.928
11521W        W73052   9.162  39.391  14.311
11522W        W73053  18.145   3.425   2.881
11523W        W73054  32.427  43.957  12.538
11524W        W73055   3.388  38.467  11.933
11525W        W73056  14.669  35.455  14.290
11526W        W73057  33.017  23.656   3.834
11527W        W73058  15.271   9.740   0.435
11528W        W73059  38.900  16.614  10.075
11529W        W73060   8.313  15.270  13.441
11530W        W73061  11.198  34.083   2.188
11531W        W73062  43.849   3.773   3.176
11532W        W73063  10.666   5.333   2.393
11533W        W73064   5.244  27.161  11.408
11534W        W73065  29.606   7.754   0.303
11535W        W73066  19.654  10.813  12.416
11536W        W73067   5.229  38.403   1.798
11537W        W73068  18.701   5.863  14.799
11538W        W73069  43.332  24.644  12.893
11539W        W73070  18.221  16.751  13.374
11540W        W73071  12.279  32.540  14.354
11541W        W73072   5.212   5.243   3.230
11542W        W73073   6.294   4.704   5.220
11543W        W73074  25.571  19.146  11.013
11544W        W73075   2.964   6.888  14.429
11545W        W73076  19.112  39.446  10.075
11546W        W73077  41.347  20.592   1.318
11547W        W73078   3.319  37.346  13.928
11548W        W73079   8.189   3.236  14.958
11549W        W73080  41.498  19.685  11.527
11550W        W73081  17.649  36.556  14.306
11551W        W73082  20.577  33.494  10.443
11552W        W73083  22.619  29.112   2.418
11553W        W73084   3.459  17.158  11.900
11554W        W73085   9.282  43.001  12.933
11555W        W73086  33.384  43.387   4.683
11556W        W73087   7.197  42.982  12.992
11557W        W73088   2.723  34.507   0.791
11558W        W73089  24.540   0.463  10.465
11559W        W73090  43.008  39.337   2.187
11560W        W73091  28.534   6.273  12.889
11561W        W73092  10.293  26.519   0.482
11562W        W73093  42.455  37.023   1.373
11563W        W73094  27.123  32.985  13.433
11564W        W73095  26.702  40.003  14.917
11565W        W73096  26.139  13.765   0.450
11566W        W73097  20.729  36.013  10.012
11567W        W73098  35.042   1.275  14.982
11568W        W73099  21.127  32.991  12.029
11569W        W73100  36.569  16.694  14.283
11570W        W73101  25.534   1.959  13.933
11571W        W73102  29.123  35.077   0.958
11572W        W73103  13.637  35.995  12.924
11573W        W73104   3.403  40.398  14.296
11574W        W73105  37.419   4.797  14.427
11575W        W73106   7.808   1.970   1.258
11576W        W73107  24.054  22.666   0.780
11577W        W73108  26.957  24.054   2.388
11578W        W73109  17.799   6.203   3.763
11579W        W73110  25.567  41.807  13.351
11580W        W73111  29.144  25.474  12.006
11581W        W73112  20.249   0.322   4.354
11582W        W73113  25.188  18.294  13.308
11583W        W73114  31.533  16.627  10.410
11584W        W73115  38.052  35.058  13.881
11585W        W73116  28.609  26.076   1.708
11586W        W73117  31.503  31.548  10.450
11587W        W73118   2.444   2.874   3.330
11588W        W73119   6.900  10.371  12.995
11589W        W73120   3.885  35.422   0.360
11590W        W73121  34.014  17.614   4.178
11591W        W73122  14.257   2.334   0.301
11592W        W73123  29.456  36.543  13.443
11593W        W73124  34.902  24.983   3.175
11594W        W73125  11.799   9.168   3.296
11595W        W73126   7.684  19.774   5.253
11596W        W73127  42.414   7.865   0.933
11597W        W73128  24.033  43.972   3.161
11598W        W73129   8.313  41.506   4.243
11599W        W73130  15.712  12.348  12.574
11600W        W73131  23.647  23.724  12.824
11601W        W73132  38.404  20.191  14.369
11602W        W73133  38.429  20.036  13.942
11603W        W73134  24.692  31.057  14.758
11604W        W73135  16.803  35.375   2.306
11605W        W73136   2.932  42.508  14.356
11606W        W73137   8.254  14.221  14.969
11607W        W73138  29.443  11.226  12.073
11608W        W73139  12.301  44.410   0.849
11609W        W73140  22.025  24.049   4.122
11610W        W73141  20.734   9.715   2.778
11611W        W73142  24.132  10.757  11.875
11612W        W73143   5.882  37.912  11.410
11613W        W73144  33.937  38.030   3.747
11614W        W73145   4.798  26.195   0.264
11615W        W73146   1.859  22.743   1.272
11616W        W73147  33.065  11.148  10.935
11617W        W73148  23.994  41.875  13.491
11618W        W73149  16.799  30.142  14.445
11619W        W73150  28.633  39.417   4.713
11620W        W73151  28.940  44.999   2.410
11621W        W73152  42.398  25.104   3.668
11622W        W73153  42.508  13.200  14.480
11623W        W73154   3.429  41.374   3.222
11624W        W73155  11.358  41.517  11.550
11625W        W73156  10.214  22.023  13.824
11626W        W73157  12.780  10.217   4.160
11627W        W73158   8.234  13.747  14.887
11628W        W73159  20.590  43.977  13.978
11629W        W73160  39.412  37.896  12.538
11630W        W73161  43.496  21.226  12.517
11631W        W73162  22.503  10.206  11.425
11632W        W73163   4.360  43.311  13.373
11633W        W73164  32.525  30.465  11.441
11634W        W73165   3.836  37.542   4.146
11635W        W73166  37.041  35.986   0.419
11636W        W73167  30.016  11.257  11.935
11637W        W73168  41.961  26.501   4.611
11638W        W73169  43.021  36.375  12.986
11639W        W73170  22.008   5.438  13.344
11640W        W73171  24.594  11.264   3.641
11641W        W73172  18.614  41.820  12.902
11642W        W73173  16.275   8.676   2.372
11643W        W73174  40.990  14.102  13.044
11644W        W73175  28.053  22.062  10.897
11645W        W73176   2.807  21.656  13.337
11646W        W73177  18.210   7.823  14.979
11647W        W73178  36.941  13.774  13.042
11648W        W73179  19.606  15.101   2.418
11649W        W73180   4.425  36.936  13.037
11650W        W73181  42.954  29.023  11.538
11651W        W73182   7.878   1.325   5.565
11652W        W73183   2.390   8.839   3.673
11653W        W73184  14.158  18.198  11.450
11654W        W73185  15.245  19.633  12.577
11655W        W73186   8.879  30.036  10.904
11656W        W73187   3.902  23.135  12.957
11657W        W73188  25.649   4.222  10.621
11658W        W73189  16.803  43.512   4.829
11659W        W73190  36.951  25.613  10.956
11660W        W73191   1.476  23.524   4.702
11661W        W73192  40.952  25.544   1.884
11662W        W73193  36.069  12.263  13.492
11663W        W73194  39.033   8.271  13.952
11664W        W73195  27.550  28.945  12.550
11665W        W73196  33.973  11.209  11.075
11666W        W73197  22.513  10.256  12.925
11667W        W73198  42.519  36.545  12.863
11668W        W73199  39.909  27.532   2.804
11669W        W73200  20.610  27.021  14.937
11670W        W73201  24.596  12.811   4.743
11671W        W73202   1.881   6.316   4.140
11672W        W73203  32.130  29.541   1.290
11673W        W73204  30.155  17.780   2.342
11674W        W73205  18.661   5.227   0.432
11675W        W73206  44.838   6.313  13.026
11676W        W73207  34.985  26.661   5.250
11677W        W73208   1.320  12.772   0.741
11678W        W73209  15.589  23.181  10.049
11679W        W73210  34.394  41.329   3.752
11680W        W73211  22.592  13.278  11.051
11681W        W73212  36.969  42.995   0.342
11682W        W73213  11.832  43.340  11.554
11683W        W73214  19.769  40.433   2.257
11684W        W73215  22.502   9.748  11.097
11685W        W73216  16.265  28.456   2.789
11686W        W73217  41.432  26.611   4.832
11687W        W73218  26.978  36.561   0.412
11688W        W73219  32.467  37.871  14.350
11689W        W73220  41.304   5.341   0.458
11690W        W73221  39.813  16.642   0.735
11691W        W73222  11.159  26.024   1.848
11692W        W73223  30.419  26.498  14.293
11693W        W73224  10.216  17.667  14.894
11694W        W73225  31.130  26.681  14.850
11695W        W73226  42.959  29.491   4.647
11696W        W73227   8.725  10.359  13.870
11697W        W73228  22.069   2.267  12.921
11698W        W73229  42.437   3.826  12.990
11699W        W73230  38.831  28.002   3.657
11700W        W73231  34.002  31.106  14.849
11701W        W73232   6.781   7.882   4.277
11702W        W73233   5.766  18.068   2.802
11703W        W73234  32.578  38.878   0.481
11704W        W73235  29.494  41.979  14.894
11705W        W73236   8.362  21.512  13.411
11706W        W73237  26.623  13.794  11.450
11707W        W73238   5.809  12.797  14.923
11708W        W73239  43.342   6.415   3.650
11709W        W73240   1.246  13.320  14.872
11710W        W73241  13.214  43.507  14.807
11711W        W73242  33.995  41.857  14.437
11712W        W73243  39.488  36.573   0.411
11713W        W73244   8.333   7.757   2.391
11714W        W73245  38.925  14.177   3.342
11715W        W73246   5.281  26.556   3.234
11716W        W73247  41.905  25.533  11.432
11717W        W73248  33.461  34.874   1.755
11718W        W73249  41.485  11.787   3.262
11719W        W73250  44.956  22.139  12.437
11720W        W73251  19.238  36.910   3.769
11721W        W73252  27.129  13.273   0.468
11722W        W73253  41.043  18.553  14.884
11723W        W73254   0.484  11.641  14.979
11724W        W73255   8.841  26.104  12.474
11725W        W73256  10.633  42.815   5.285
11726W        W73257   3.296  33.412  13.863
11727W        W73258  13.118  41.017  11.392
11728W        W73259  18.278  39.808   0.464
11729W        W73260  10.241  41.853   2.337
11730W        W73261   7.229   3.898   0.935
11731W        W73262  35.900  17.733  10.409
11732W        W73263  13.843  37.472  10.008
11733W        W73264  34.440  16.665  11.983
11734W        W73265  23.019  39.834   4.235
11735W        W73266  31.107  42.803   0.932
11736W        W73267  16.234  27.564  11.922
11737W        W73268  34.893  40.842   0.341
11738W        W73269   3.752   9.843   4.186
11739W        W73270   8.362  24.064   4.779
11740W        W73271  34.906  26.993   1.879
11741W        W73272  37.974  38.468  10.071
11742W        W73273  34.115   7.348  12.985
11743W        W73274  27.006  10.831   0.747
11744W        W73275  16.677  41.407  13.456
11745W        W73276  39.864  15.587   0.448
11746W        W73277  31.521  17.114   3.757
11747W        W73278  26.085   9.335   2.823
11748W        W73279  36.075  25.194  11.112
11749W        W73280  44.290   4.333   4.730
11750W        W73281  13.286   9.798  13.007
11751W        W73282  11.824   4.856   4.336
11752W        W73283   6.306   1.466  11.986
11753W        W73284  43.356  27.496  14.298
11754W        W73285  25.588   5.837  12.040
11755W        W73286  40.536   5.311   1.403
11756W        W73287  36.532  44.964  11.548
11757W        W73288  22.180  23.549  12.483
11758W        W73289  30.952  15.778  13.025
11759W        W73290  44.806   6.378   3.290
11760W        W73291  31.904  28.934  13.376
11761W        W73292  42.788  17.671   2.774
11762W        W73293  32.414  30.527  14.356
11763W        W73294  14.096  40.019   0.857
11764W        W73295  10.269  24.001   4.156
11765W        W73296  14.205  19.667  14.006
11766W        W73297  20.557  23.167  13.466
11767W        W73298  11.131  38.392   3.224
11768W        W73299  11.298   6.680  10.506
11769W        W73300  33.455   4.824  13.927
11770W        W73301  12.268  31.481  14.424
11771W        W73302  23.589   9.325   1.774
11772W        W73303  27.133  27.565   1.285
11773W        W73304  11.794   3.876   4.141
11774W        W73305  44.427  39.900   3.696
11775W        W73306  33.542  27.019  13.858
11776W        W73307  18.769  11.277  10.515
11777W        W73308  30.952  43.428   4.729
11778W        W73309  14.340   6.235   1.215
11779W        W73310   2.796   5.858  14.454
11780W        W73311  21.621  42.369   1.393
11781W        W73312  44.407   2.832  13.060
11782W        W73313  28.511  43.011  13.482
11783W        W73314  13.229  12.190  13.387
11784W        W73315  39.039  11.687   3.800
11785W        W73316  27.178  25.676  11.037
11786W        W73317   9.822  25.488  10.537
11787W        W73318  12.338  29.119  10.026
11788W        W73319  11.230   1.459   2.776
11789W        W73320  10.187  42.033  11.894
11790W        W73321  34.531   7.896   1.815
11791W        W73322   2.355  35.458  13.039
11792W        W73323  40.355  32.985   1.415
11793W        W73324   0.770   8.230   3.672
11794W        W73325   5.858   5.752   0.287
11795W        W73326  11.717   4.746   1.810
11796W        W73327  38.960   0.390   0.898
11797W        W73328  38.886  41.954   2.843
11798W        W73329  11.261  11.708   4.129
11799W        W73330  11.787  43.914   4.325
11800W        W73331  38.990   8.291   4.824
11801W        W73332  38.429  26.980  13.953
11802W        W73333   4.398  18.206   1.248
11803W        W73334   8.793  39.011  12.356
11804W        W73335  23.238   2.248  14.000
11805W        W73336   7.212  26.045  14.800
11806W        W73337   0.277  27.158   0.765
11807W        W73338  25.485  43.006  12.985
11808W        W73339  44.795   5.700  11.042
11809W        W73340  37.059  33.044  14.470
11810W        W73341  27.951  32.112   3.150
11811W        W73342  35.071  38.498  14.482
11812W        W73343  24.150  10.168  14.432
11813W        W73344  24.098  30.925   2.262
11814W        W73345   9.693  32.030  12.868
11815W        W73346   8.360  11.308   0.920
11816W        W73347  41.360   0.467  14.377
11817W        W73348  29.491  17.279   2.178
11818W        W73349  10.265  39.506   1.416
11819W        W73350  33.613  25.712   4.752
11820W        W73351   1.915  40.329   5.169
11821W        W73352  14.604  35.009   3.692
11822W        W73353  10.641  30.005   1.823
11823W        W73354   0.252  12.129   3.665
11824W        W73355  18.200  10.188  13.922
11825W        W73356  33.381  10.342  10.944
11826W        W73357  14.173   4.849   3.846
11827W        W73358  14.674   3.338  11.417
11828W        W73359  19.689  17.287  12.837
11829W        W73360  38.369  34.967   4.835
11830W        W73361  28.632  27.155   2.806
11831W        W73362  24.574  29.554   1.438
11832W        W73363  35.879   9.673  10.514
11833W        W73364  42.977  12.664  14.507
11834W        W73365  10.330  35.001  12.911
11835W        W73366  27.196  15.098  11.074
11836W        W73367  30.629  20.131  12.419
11837W        W73368  14.232   3.396   4.118
11838W        W73369  21.557   5.848  13.466
11839W        W73370  44.381  23.722  11.434
11840W        W73371   0.773   3.390  12.952
11841W        W73372  15.096   7.349  13.878
11842W        W73373  21.632  39.910   5.798
11843W        W73374  28.647  23.592   2.675
11844W        W73375   2.865  41.016  12.541
11845W        W73376  21.184  31.634   2.296
11846W        W73377  36.064  38.399   1.439
11847W        W73378  14.661  12.346   4.119
11848W        W73379  24.041  17.104   3.262
11849W        W73380  43.277  33.607   9.979
11850W        W73381  31.115  31.897   3.284
11851W        W73382  31.151  33.589  12.966
11852W        W73383   1.483  33.507   3.723
11853W        W73384   6.323  20.099   2.770
11854W        W73385   8.372  17.730   1.793
11855W        W73386  34.918  37.352  13.928
11856W        W73387  18.158  37.973  10.471
11857W        W73388   9.203  14.747   0.826
11858W        W73389  25.525  34.046   5.771
11859W        W73390  34.888  18.645   3.765
11860W        W73391  38.030   9.844  10.927
11861W        W73392  38.879  16.726   1.734
11862W        W73393  38.837  34.874   1.223
11863W        W73394  29.948  33.534  11.594
11864W        W73395  39.905  36.428   2.751
11865W        W73396  12.335  41.446   1.794
11866W        W73397  33.480  24.156   3.290
11867W        W73398  25.584  24.053   2.840
11868W        W73399  19.063  36.966   1.925
11869W        W73400  37.918  28.082  12.407
11870W        W73401   8.398  26.605   2.874
11871W        W73402  32.391   7.286   0.312
11872W        W73403   7.324  27.638   2.761
11873W        W73404  32.604  38.443   1.711
11874W        W73405  32.473  26.175   0.848
11875W        W73406   3.877  14.256  13.453
11876W        W73407  25.192  15.659  11.028
11877W        W73408  16.164  11.627  12.914
11878W        W73409   1.346   0.765  11.901
11879W        W73410   5.739   9.349   2.747
11880W        W73411   4.336  32.082   0.795
11881W        W73412  28.094   8.222   2.378
11882W        W73413  20.755  19.563  14.289
11883W        W73414  19.747  11.219   3.771
11884W        W73415   1.888  13.220  10.605
11885W        W73416  26.597  28.934   0.759
11886W        W73417  21.700  32.427   2.270
11887W        W73418  28.949   7.237  10.977
11888W        W73419   1.970   6.220   0.827
11889W        W73420  23.721   6.680  11.564
11890W        W73421  42.442  16.610   4.202
11891W        W73422  19.243  15.819   0.296
11892W        W73423  31.606  43.857  13.057
11893W        W73424   9.291  30.437  10.593
11894W        W73425   7.385  37.017  10.472
11895W        W73426  10.743  14.748  12.561
11896W        W73427  41.888   3.769   3.675
11897W        W73428  32.610  36.386   2.751
11898W        W73429  28.975  19.671   1.760
11899W        W73430   3.267  21.717   3.802
11900W        W73431   3.842  26.150   4.181
11901W        W73432  18.748  33.951  14.322
11902W        W73433   4.773  11.757   2.297
11903W        W73434   7.699   3.874   2.901
11904W        W73435  32.609  10.185   5.132
11905W        W73436  20.546   6.328  11.407
11906W        W73437  29.424  29.136  13.906
11907W        W73438   2.301   4.392  13.984
11908W        W73439  38.510  26.629  10.494
11909W        W73440  17.152  36.383   3.152
11910W        W73441   0.766  15.700  14.988
11911W        W73442  33.075  32.975  12.352
11912W        W73443  44.785  43.311   0.309
11913W        W73444   9.652  23.076   3.800
11914W        W73445   9.187  31.995   1.289
11915W        W73446  16.652  13.171   1.771
11916W        W73447  41.894   6.743  11.078
11917W        W73448  44.388   5.297   4.732
11918W        W73449  16.644  43.990   4.662
11919W        W73450  14.111  40.047  14.941
11920W        W73451  24.009  19.058   1.243
11921W        W73452  26.658  44.260  12.485
11922W        W73453  43.419  43.928   0.281
11923W        W73454  22.638  20.146   4.791
11924W        W73455  18.264  36.455   1.300
11925W        W73456  22.186  24.090   0.350
11926W        W73457  30.986   0.403   2.865
11927W        W73458  40.905  11.345   4.354
11928W        W73459   3.759  12.713   0.863
11929W        W73460  21.590  29.665  14.353
11930W        W73461  31.940  40.384   4.272
11931W        W73462  40.471   2.775  13.512
11932W        W73463  32.442  41.981   4.336
11933W        W73464   6.879  24.076   4.816
11934W        W73465  19.059  13.197   4.823
11935W        W73466  10.767  21.062   1.318
11936W        W73467  16.180  41.886  12.561
11937W        W73468   4.207  18.631   0.749
11938W        W73469  22.152  28.529   4.684
11939W        W73470  26.560   4.870   2.370
11940W        W73471   0.778  33.074  11.590
11941W        W73472  38.449   4.901  13.930
11942W        W73473  33.464  27.041  11.612
11943W        W73474  19.676  13.328  12.907
11944W        W73475  16.318  17.801   4.650
11945W        W73476  28.570   4.752   4.794
11946W        W73477  37.547  18.639   0.846
11947W        W73478  39.539  33.594  14.979
11948W        W73479  29.125  23.223  13.020
11949W        W73480  10.672  30.573   3.870
11950W        W73481  15.638  18.688  10.437
11951W        W73482  43.334   0.282   3.665
11952W        W73483  15.784  27.190  10.528
11953W        W73484  20.125   6.718  10.930
11954W        W73485  10.750   2.249  13.799
11955W        W73486  30.100  34.991   2.664
11956W        W73487   5.436   9.824   4.255
11957W        W73488  26.101  33.484  11.031
11958W        W73489   9.787  41.825   4.723
11959W        W73490   9.654   3.264   2.414
11960W        W73491  41.978  41.905   3.870
11961W        W73492  25.028  27.983  13.033
11962W        W73493   0.420  17.125  11.937
11963W        W73494  12.831  24.086  14.414
11964W        W73495  24.619  35.442   0.772
11965W        W73496  11.696  11.368  10.445
11966W        W73497   8.749  36.041   4.274
11967W        W73498   5.707   3.277   3.355
11968W        W73499   9.713  24.680  14.391
11969W        W73500   2.284  16.702   2.773
11970W        W73501  20.265  33.978  11.883
11971W        W73502  33.040  27.943  13.920
11972W        W73503   6.390  20.258   3.339
11973W        W73504   4.830  26.088  13.998
11974W        W73505  44.391  38.997  14.368
11975W        W73506  29.481  25.477  14.820
11976W        W73507  16.154  30.567   3.339
11977W        W73508   0.788  21.582  13.797
11978W        W73509  27.635  17.561   2.691
11979W        W73510  31.939  26.012  11.904
11980W        W73511   7.870  39.905   2.753
11981W        W73512   9.761  24.182  13.400
11982W        W73513  34.467   8.843  13.895
11983W        W73514  42.447  39.004  14.304
11984W        W73515  27.464  36.420   4.355
11985W        W73516   7.264  32.023   2.182
11986W        W73517  25.654   0.407   2.234
11987W        W73518  41.500  14.782   3.367
11988W        W73519  40.961  17.611   0.433
11989W        W73520  23.526  44.860  12.500
11990W        W73521  13.671   0.453  13.008
11991W        W73522  30.107  37.472   2.380
11992W        W73523  20.183  41.014  12.424
11993W        W73524  23.546  21.686   3.350
11994W        W73525  44.898  24.106  14.803
11995W        W73526  37.434   9.179  12.467
11996W        W73527  23.088  24.529  14.905
11997W        W73528   9.370  10.192   4.821
11998W        W73529  11.335   6.326  13.539
11999W        W73530   6.380  39.826  14.941
12000W        W73531   6.282   0.977   0.914
12001W        W73532   8.296  40.458   2.248
12002W        W73533   9.819  19.107   0.404
12003W        W73534  29.465  14.780   4.605
12004W        W73535  23.727   6.414  12.427
12005W        W73536  20.704  34.928  14.377
12006W        W73537  14.240  31.927   5.668
12007W        W73538  23.222  40.822  12.490
12008W        W73539  24.592   7.243  10.472
12009W        W73540  28.956  23.149   1.761
12010W        W73541  16.300  29.162   2.277
12011W        W73542   5.250   7.215   1.335
12012W        W73543   7.693  33.517  13.386
12013W        W73544  16.595  34.568  14.331
12014W        W73545  41.027  35.534  11.972
12015W        W73546   3.850  44.007  14.382
12016W        W73547  44.281  36.076  10.075
12017W        W73548  43.485  38.366   4.713
12018W        W73549   4.402  27.001  12.511
12019W        W73550   8.784   2.856   3.869
12020W        W73551  15.086  36.430   3.756
12021W        W73552  42.975  28.988   4.599
12022W        W73553  35.088  33.037  14.796
12023W        W73554  10.207  19.726  14.315
12024W        W73555  15.268  13.823  11.030
12025W        W73556  18.768  37.030  13.314
12026W        W73557  16.625  30.925   0.924
12027W        W73558  26.124  44.767  12.928
12028W        W73559  17.741   3.913   0.281
12029W        W73560   7.358  27.473  10.899
12030W        W73561  23.600  27.497  14.768
12031W        W73562  17.212   5.331   1.915
12032W        W73563   2.421  14.310   1.435
12033W        W73564   9.769  32.612   5.699
12034W        W73565  14.773  25.483  13.968
12035W        W73566  44.440   9.166  13.413
12036W        W73567  32.088  28.587   0.426
12037W        W73568  16.679  30.911  12.450
12038W        W73569  14.695  13.807   3.270
12039W        W73570  26.971  44.413   0.934
12040W        W73571  36.458  21.017  11.058
12041W        W73572  34.110  43.837   3.320
12042W        W73573   4.862  38.026   2.713
12043W        W73574  13.631  18.617   1.705
12044W        W73575  31.018   5.756   0.476
12045W        W73576  11.268  34.894  12.516
12046W        W73577  15.725  18.288  13.026
12047W        W73578   1.366  25.110   9.494
12048W        W73579  15.100   2.868  11.072
12049W        W73580  38.856  43.431   2.808
12050W        W73581  38.471   6.216   4.125
12051W        W73582  40.498  36.367   4.306
12052W        W73583  40.018  19.191   2.855
12053W        W73584  17.121  34.997  14.778
12054W        W73585  21.613  19.185  10.511
12055W        W73586  30.481  20.566   2.873
12056W        W73587  39.336  20.761   2.233
12057W        W73588  16.568  27.136   2.378
12058W        W73589   9.187  16.629  14.984
12059W        W73590  22.085  31.136   3.746
12060W        W73591  12.834  28.155   0.954
12061W        W73592  27.141  41.831  12.079
12062W        W73593  24.663  33.910   2.266
12063W        W73594  16.715   7.773  14.419
12064W        W73595  20.739  15.098  10.439
12065W        W73596  19.557  31.974   4.127
12066W        W73597  26.193  23.114   3.797
12067W        W73598   4.932  34.977   2.875
12068W        W73599   5.288   5.404   0.930
12069W        W73600  38.006  10.230   0.776
12070W        W73601  15.695  40.955   3.374
12071W        W73602  40.516  17.660  14.425
12072W        W73603  36.023   5.849  12.942
12073W        W73604  13.302  39.864   1.758
12074W        W73605  24.638   3.419   1.751
12075W        W73606  22.041  14.763  10.434
12076W        W73607  40.357   4.259  14.496
12077W        W73608  31.415  23.108   3.165
12078W        W73609  17.306  30.001   1.335
12079W        W73610  21.133   5.722  12.012
12080W        W73611  40.314   2.326   1.717
12081W        W73612  36.974   6.366  13.482
12082W        W73613  23.646  25.037  11.058
12083W        W73614  33.060  39.884  11.972
12084W        W73615  43.379   5.917  11.964
12085W        W73616  25.978  10.272  11.430
12086W        W73617   5.845  40.000   4.657
12087W        W73618  13.680  36.420   2.397
12088W        W73619  10.369  17.794  12.513
12089W        W73620   6.363  39.432  14.311
12090W        W73621  33.048  41.019   5.150
12091W        W73622  42.430  17.133   4.689
12092W        W73623  26.495  36.981   3.759
12093W        W73624  10.678  31.633  10.437
12094W        W73625  15.704  13.212   4.741
12095W        W73626  32.494  35.090  14.030
12096W        W73627  30.577  40.411  11.051
12097W        W73628  41.349  38.923  11.937
12098W        W73629  20.236   5.262   3.193
12099W        W73630  14.187  30.476   2.767
12100W        W73631  22.601   1.748   3.708
12101W        W73632   1.908  23.107   0.379
12102W        W73633  36.946  43.940  14.325
12103W        W73634  12.750   2.722  11.446
12104W        W73635   2.778  32.467   4.271
12105W        W73636   0.467  38.450  10.962
12106W        W73637  13.821   7.210   2.833
12107W        W73638  33.115  12.803   4.124
12108W        W73639  22.149  23.528   1.730
12109W        W73640  34.114   7.700   3.347
12110W        W73641   7.415  35.044  10.466
12111W        W73642  32.114   8.703  14.362
12112W        W73643  13.125   3.414  12.442
12113W        W73644  24.716  13.351  13.964
12114W        W73645  42.305  34.929   4.651
12115W        W73646  12.228  40.443  13.503
12116W        W73647  44.847  11.200  12.515
12117W        W73648  20.052   5.767  14.020
12118W        W73649  30.483  36.860  11.913
12119W        W73650  23.213  15.793  11.125
12120W        W73651  38.993  32.554   2.267
12121W        W73652  26.600  12.194   0.436
12122W        W73653  29.572  35.885   0.321
12123W        W73654  32.077   2.317  10.641
12124W        W73655  22.548  12.674  13.517
12125W        W73656  28.137  35.001  11.433
12126W        W73657  12.834  11.230  14.337
12127W        W73658  21.146  43.936  10.910
12128W        W73659   3.449  15.176  13.440
12129W        W73660  22.232  32.898   2.676
12130W        W73661  33.117  26.206  10.509
12131W        W73662  30.592   3.431   0.389
12132W        W73663  24.692   6.258  10.638
12133W        W73664  22.631  33.619   2.758
12134W        W73665  25.491  13.690   0.917
12135W        W73666   6.748  12.203   0.801
12136W        W73667  26.556  28.186  10.516
12137W        W73668  41.532  10.719  13.384
12138W        W73669   6.319   6.246  10.643
12139W        W73670  19.645  26.694  11.528
12140W        W73671   0.280  36.078  10.905
12141W        W73672   2.375   4.906   3.292
12142W        W73673  35.513  39.502   5.134
12143W        W73674  22.205   2.358  12.039
12144W        W73675   8.399  41.888  10.935
12145W        W73676  39.348  11.170   0.963
12146W        W73677   3.782  44.765  13.423
12147W        W73678  14.242  24.558  11.942
12148W        W73679  34.564  25.151  14.854
12149W        W73680  17.689  12.706   4.139
12150W        W73681  26.022   2.448  14.331
12151W        W73682   9.800   3.937  10.492
12152W        W73683  44.959  19.708   2.348
12153W        W73684  15.277   2.801   4.765
12154W        W73685  37.080  30.993  13.435
12155W        W73686  12.767  19.687  13.054
12156W        W73687  39.409  33.882   4.613
12157W        W73688   9.291  22.706   2.269
12158W        W73689  17.159   3.729  11.512
12159W        W73690   1.931  22.243   5.576
12160W        W73691  13.350  19.768  10.981
12161W        W73692   9.822  29.481  14.286
12162W        W73693  38.476   3.803   2.811
12163W        W73694   2.441   9.173  11.897
12164W        W73695   7.343  32.630   4.734
12165W        W73696  39.339  30.977  13.951
12166W        W73697  44.300  33.544   0.428
12167W        W73698  17.609  19.542  11.592
12168W        W73699  23.135   6.395  14.804
12169W        W73700   9.332   3.835  14.888
12170W        W73701  41.340  29.462   2.836
12171W        W73702   9.770  18.283   2.334
12172W        W73703  34.999  27.633  12.426
12173W        W73704  33.031  27.148  12.062
12174W        W73705  28.616  29.165  10.888
12175W        W73706   6.293  44.481  11.534
12176W        W73707  28.459  24.577  14.425
12177W        W73708   1.367  42.424  12.080
12178W        W73709  34.401  20.249  13.984
12179W        W73710  43.283   7.177   2.713
12180W        W73711  23.093  18.066  11.999
12181W        W73712   9.324   3.344  13.501
12182W        W73713  34.047  24.000  12.365
12183W        W73714   3.861  31.097   1.394
12184W        W73715  28.452  42.980   2.305
12185W        W73716  26.209   9.237  14.819
12186W        W73717  34.109  22.655  11.474
12187W        W73718   9.808  37.955   4.143
12188W        W73719   2.915  41.464  12.357
12189W        W73720   0.267  31.536   4.172
12190W        W73721   3.885   6.363   4.182
12191W        W73722  38.854  10.337  13.477
12192W        W73723  20.676  23.220   1.254
12193W        W73724  17.190  42.853   3.660
12194W        W73725   8.754  25.087   0.764
12195W        W73726  37.440  27.112  13.308
12196W        W73727   9.675  19.705   4.186
12197W        W73728   9.249  44.485   2.249
12198W        W73729   7.246  44.950  13.334
12199W        W73730  22.512  13.600  10.914
12200W        W73731  16.318  31.003   0.363
12201W        W73732  34.509  41.029   2.338
12202W        W73733   4.427  43.462  14.935
12203W        W73734   7.294  15.778  10.418
12204W        W73735  11.373  38.540   1.768
12205W        W73736  40.886  10.345  11.960
12206W        W73737  26.112  39.381   0.452
12207W        W73738  20.732  17.580  10.636
12208W        W73739  26.130  32.589   1.347
12209W        W73740  28.561  41.341   1.422
12210W        W73741   2.363  29.645   2.294
12211W        W73742   3.715  19.258   4.281
12212W        W73743  33.393  41.537   4.708
12213W        W73744  18.749  19.553   3.156
12214W        W73745  33.409  15.815  12.435
12215W        W73746   8.327  40.374   4.751
12216W        W73747   0.372  35.536  10.451
12217W        W73748  16.245  29.105   4.785
12218W        W73749  23.078  18.265   4.713
12219W        W73750  39.988  40.933  11.977
12220W        W73751  29.665  35.937   1.402
12221W        W73752  33.436   8.741  13.372
12222W        W73753  44.412  24.627  13.340
12223W        W73754  30.553  27.086   2.902
12224W        W73755  26.997   3.883   1.915
12225W        W73756   5.910  29.529   3.698
12226W        W73757  30.971   0.816  12.976
12227W        W73758  13.310  35.949   4.349
12228W        W73759  28.472  30.553   2.714
12229W        W73760   7.737  22.249  11.589
12230W        W73761  25.583  20.646  11.022
12231W        W73762  31.107  27.995   1.727
12232W        W73763  41.363  39.874   3.686
12233W        W73764   7.771   1.272  14.382
12234W        W73765  41.457  11.749   0.785
12235W        W73766  14.191  38.989  14.956
12236W        W73767  21.173   4.854   1.709
12237W        W73768  22.166  25.082  11.088
12238W        W73769   0.449   6.222   4.273
12239W        W73770  41.804   2.730   4.325
12240W        W73771   5.867  27.602   4.211
12241W        W73772  10.180  12.701  10.945
12242W        W73773  16.600   6.728  14.486
12243W        W73774  15.209  40.322  11.927
12244W        W73775  44.756  20.540  14.935
12245W        W73776   2.756  31.627  14.863
12246W        W73777  36.999  40.305   1.250
12247W        W73778  32.591   1.910   4.772
12248W        W73779  44.839  44.005   3.186
12249W        W73780   6.865   8.712   4.811
12250W        W73781  30.650  42.429  13.998
12251W        W73782  25.002  23.063  10.586
12252W        W73783  15.798  40.858   4.156
12253W        W73784  40.545  40.356   0.321
12254W        W73785  20.212  11.655   3.642
12255W        W73786   7.198  34.480  14.322
12256W        W73787  27.614  31.045  12.981
12257W        W73788  44.859  21.021  14.790
12258W        W73789  31.626  32.134   4.620
12259W        W73790  21.017  42.845   1.416
12260W        W73791   2.448   6.864   3.197
12261W        W73792  10.723  12.745   0.439
12262W        W73793  32.986  23.524   1.265
12263W        W73794   5.910  31.923  11.094
12264W        W73795  31.558  31.140  11.956
12265W        W73796  12.675   2.842  14.987
12266W        W73797  38.541  35.497  13.807
12267W        W73798   5.819   7.236  11.539
12268W        W73799   6.255   3.893  14.973
12269W        W73800  43.329  38.039  14.330
12270W        W73801  13.714  26.080   2.333
12271W        W73802  12.352  30.583   2.266
12272W        W73803   5.317   4.210   0.262
12273W        W73804  30.566   9.313  12.826
12274W        W73805  24.701  40.396  12.974
12275W        W73806  44.457  20.768   4.748
12276W        W73807  35.535  28.465   1.295
12277W        W73808  26.579  26.603  10.923
12278W        W73809   9.154  40.969  14.024
12279W        W73810  10.877   4.399   4.293
12280W        W73811  40.335  35.085  12.404
12281W        W73812  36.499  27.096   3.671
12282W        W73813  18.552   7.767  12.043
12283W        W73814  15.743   0.908   1.433
12284W        W73815  16.757   4.841  10.567
12285W        W73816  29.507   3.374  13.998
12286W        W73817  26.532  43.845  13.416
12287W        W73818   3.224  25.600   5.695
12288W        W73819  25.510  23.671   1.814
12289W        W73820  18.124  36.393   0.883
12290W        W73821  33.964  34.048   3.300
12291W        W73822  11.360  33.430   0.821
12292W        W73823  42.295  41.031   4.323
12293W        W73824  11.146  11.649   2.238
12294W        W73825   9.692  10.772  13.445
12295W        W73826  32.139  15.282  12.522
12296W        W73827  30.542   0.256   0.902
12297W        W73828  20.657   0.303  11.099
12298W        W73829  12.144   2.741   0.964
12299W        W73830  36.499  28.114  11.079
12300W        W73831   0.421  12.198  14.363
12301W        W73832  17.298  20.716   3.181
12302W        W73833  31.545  16.161  13.330
12303W        W73834  23.206  35.979  13.012
12304W        W73835  22.036  40.356  11.507
12305W        W73836  35.079  12.685  10.488
12306W        W73837  39.045  39.448   2.342
12307W        W73838  43.857  33.588   3.257
12308W        W73839  35.594  25.029   2.247
12309W        W73840  28.022  16.662   4.667
12310W        W73841  34.101  40.877  14.901
12311W        W73842  24.133  19.170  11.052
12312W        W73843  33.401  40.839   1.256
12313W        W73844  38.958  25.000  12.002
12314W        W73845   6.424  23.204  13.803
12315W        W73846  35.600  26.971  13.439
12316W        W73847   2.782  35.853  13.380
12317W        W73848  31.403  23.598  13.888
12318W        W73849  37.465  32.899   2.793
12319W        W73850   3.924  22.134  12.900
12320W        W73851  10.686  16.172   4.695
12321W        W73852  18.194   6.807   1.804
12322W        W73853   9.782  36.032  14.436
12323W        W73854  37.991   8.219  11.097
12324W        W73855   5.342  15.749   2.183
12325W        W73856   1.815  10.166   3.309
12326W        W73857  37.573  36.457   1.721
12327W        W73858   2.835  39.424  11.605
12328W        W73859  27.142  39.502   1.235
12329W        W73860  17.214  28.675  11.085
12330W        W73861  15.808   4.842   0.810
12331W        W73862  35.539  25.563   1.769
12332W        W73863   0.297  15.741  11.526
12333W        W73864  41.470  43.957  11.522
12334W        W73865  39.902  29.486   4.145
12335W        W73866  41.842  26.506  11.982
12336W        W73867  14.222  36.910  12.471
12337W        W73868   9.196   5.890   0.421
12338W        W73869  26.178   7.340  14.411
12339W        W73870  20.182  44.758   4.200
12340W        W73871   8.183  31.051   4.768
12341W        W73872  18.099  33.395  12.884
12342W        W73873  19.041  24.145   0.790
12343W        W73874  33.389   2.729  14.954
12344W        W73875  33.886  34.997   1.311
12345W        W73876   6.766  42.966   9.932
12346W        W73877   3.355  16.605   3.746
12347W        W73878  32.027  42.301   3.271
12348W        W73879   9.678  30.414   4.272
12349W        W73880  31.991  10.675   0.456
12350W        W73881   5.244  28.179   2.191
12351W        W73882  19.217  23.080   3.655
12352W        W73883  34.557  26.574   3.832
12353W        W73884  21.065  34.607  14.318
12354W        W73885  39.890  33.553   2.730
12355W        W73886  41.023  13.813   0.354
12356W        W73887  12.145   1.762   1.407
12357W        W73888  15.153  14.798   0.441
12358W        W73889   9.706  30.002   0.410
12359W        W73890   7.839   2.774  10.094
12360W        W73891  23.227  42.919  12.945
12361W        W73892  37.467  44.937  13.441
12362W        W73893  43.429  26.992  13.801
12363W        W73894  14.823  13.806  11.083
12364W        W73895   3.911  42.522   1.224
12365W        W73896  24.225   2.471  11.898
12366W        W73897   7.760  28.524   2.211
12367W        W73898   6.392  41.345  10.615
12368W        W73899   9.886   0.934  10.623
12369W        W73900  31.566  15.086   0.413
12370W        W73901  32.637  36.421  14.399
12371W        W73902  32.922  37.934  14.397
12372W        W73903  29.108  14.282   4.204
12373W        W73904  22.621   6.219  13.957
12374W        W73905  26.545  25.122   5.260
12375W        W73906  28.495  17.701  13.985
12376W        W73907  36.410  42.866  14.769
12377W        W73908   8.320  36.994   0.873
12378W        W73909  42.953  41.932   2.709
12379W        W73910  42.481  13.741   1.247
12380W        W73911  22.737  15.164   1.218
12381W        W73912  28.533   1.429   1.921
12382W        W73913  11.831   6.904  10.467
12383W        W73914  15.787  25.128  13.975
12384W        W73915  26.951  27.598  13.821
12385W        W73916  11.681  19.140   2.679
12386W        W73917   7.238   2.279  11.085
12387W        W73918  15.201  27.029  11.011
12388W        W73919  33.097  17.112  13.990
12389W        W73920  17.235  39.916  12.398
12390W        W73921   5.861  40.451   4.187
12391W        W73922  15.752  31.578  13.796
12392W        W73923  22.717  25.002  12.482
12393W        W73924  33.974  26.476  13.021
12394W        W73925   9.163  22.567   0.445
12395W        W73926   6.418  17.084  14.451
12396W        W73927  16.604  32.498  10.152
12397W        W73928  14.762   6.871  13.895
12398W        W73929  28.025  23.009  12.989
12399W        W73930   7.200  24.661  14.317
12400W        W73931  42.382  27.684  14.278
12401W        W73932  16.089  12.762  14.300
12402W        W73933  31.027  10.237   0.348
12403W        W73934   7.237  42.828   0.333
12404W        W73935  21.714  38.372  13.416
12405W        W73936  39.429  41.980   4.256
12406W        W73937  21.587  36.358   1.754
12407W        W73938  42.816  17.114   1.925
12408W        W73939   6.331   4.930  14.920
12409W        W73940  42.457  40.804  12.391
12410W        W73941  31.458  42.865   3.338
12411W        W73942  22.134  21.588   0.269
12412W        W73943  11.623  37.517  14.424
12413W        W73944   8.718  39.543  14.871
12414W        W73945  10.362   8.184  12.978
12415W        W73946  44.340  15.235   3.729
12416W        W73947   5.327  25.491   4.816
12417W        W73948  38.825  25.107  13.307
12418W        W73949  24.014  11.256   3.794
12419W        W73950  11.824  34.446   3.801
12420W        W73951  20.142  30.568   0.443
12421W        W73952  27.569  29.994  13.546
12422W        W73953  40.330   0.958  13.992
12423W        W73954  21.643  27.958  10.064
12424W        W73955  39.065  30.088   3.286
12425W        W73956   0.826  14.159  13.036
12426W        W73957  31.107  41.794  11.893
12427W        W73958   1.972  33.988  12.344
12428W        W73959  23.099  21.109  10.926
12429W        W73960  13.831  34.396  12.018
12430W        W73961  33.004   6.825   0.877
12431W        W73962  16.729  23.036  11.111
12432W        W73963  32.445  21.086   0.353
12433W        W73964  15.244  31.928  11.390
12434W        W73965  11.682  14.297   2.297
12435W        W73966  15.771  18.626   1.308
12436W        W73967   6.705   6.914   4.208
12437W        W73968  31.062  18.249   3.749
12438W        W73969  21.122  44.386   2.297
12439W        W73970   9.823  29.990   0.887
12440W        W73971  31.948  40.544  12.414
12441W        W73972  14.820  17.755   3.156
12442W        W73973  16.247  33.074   4.248
12443W        W73974   3.246  18.216  10.977
12444W        W73975   3.285  27.517  14.416
12445W        W73976  28.050  26.194   4.210
12446W        W73977  21.124  12.731  11.456
12447W        W73978  23.136   6.415  10.510
12448W        W73979  38.889  11.135   2.674
12449W        W73980  41.027   6.817  12.969
12450W        W73981  17.197  27.121   1.223
12451W        W73982  34.954  18.585   9.525
12452W        W73983  39.407  19.718   3.685
12453W        W73984  11.258  44.819   3.738
12454W        W73985   7.770  33.444  14.355
12455W        W73986  13.284  11.271  10.478
12456W        W73987  19.773  21.061  14.885
12457W        W73988  36.060  13.213   1.316
12458W        W73989  37.059   6.388   4.337
12459W        W73990   8.737  30.017   0.771
12460W        W73991  38.954   5.430   2.760
12461W        W73992  13.140  20.208  14.775
12462W        W73993  23.047  18.576  11.898
12463W        W73994  37.031  22.665  13.449
12464W        W73995  22.220  20.064  10.474
12465W        W73996  22.143   3.734  12.517
12466W        W73997   2.283   9.299   4.708
12467W        W73998  15.600  10.327  14.805
12468W        W73999  35.469  34.455   2.336
12469W        W74000   9.223   6.354  10.438
12470W        W74001  19.217  43.973   3.778
12471W        W74002  19.216  29.084  13.038
12472W        W74003  20.063  23.055  11.042
12473W        W74004  25.071  37.862  13.042
12474W        W74005  33.069   0.875   3.637
12475W        W74006  24.973  34.571   1.244
12476W        W74007   0.820  44.280   0.918
12477W        W74008  24.215   5.814  10.565
12478W        W74009  10.231   8.191  11.082
12479W        W74010  32.043  42.476  13.848
12480W        W74011  19.176  35.861   0.361
12481W        W74012   6.851   9.387   3.751
12482W        W74013  23.107  44.405  11.568
12483W        W74014  18.647  24.090   1.332
12484W        W74015  25.694  23.101   4.696
12485W        W74016  32.464  37.876  11.973
12486W        W74017  13.307  37.354   0.917
12487W        W74018  43.002  37.986   1.217
12488W        W74019  15.799  40.453   2.745
12489W        W74020  43.410  21.111  11.394
12490W        W74021  16.767   7.369   4.636
12491W        W74022  20.226  26.044  14.489
12492W        W74023  15.207  25.149  11.963
12493W        W74024  15.131  28.134   0.249
12494W        W74025  24.048  14.605   1.229
12495W        W74026   4.923   2.264  12.871
12496W        W74027   3.430  28.183  14.516
12497W        W74028  27.955  37.028  12.449
12498W        W74029  18.727  15.239  12.540
12499W        W74030   4.293  28.537   3.756
12500W        W74031   7.297  35.866   0.890
12501W        W74032  21.074  14.328  10.931
12502W        W74033   0.912  25.988  12.044
12503W        W74034  25.988   9.845   5.178
12504W        W74035  38.931  41.368   1.314
12505W        W74036  34.537  31.540  12.955
12506W        W74037  22.696   8.738  12.969
12507W        W74038   8.683  21.198  12.839
12508W        W74039  28.438  12.718  10.532
12509W        W74040   0.953  41.339   1.869
12510W        W74041  20.609  36.463   2.199
12511W        W74042  39.013  14.608   0.773
12512W        W74043  28.476   4.909   3.764
12513W        W74044   2.384  35.024   4.219
12514W        W74045   2.287   6.795  14.822
12515W        W74046  13.615  39.322   3.246
12516W        W74047   0.489   4.284  12.354
12517W        W74048   8.687  40.400  14.981
12518W        W74049  12.824  16.222  10.978
12519W        W74050  40.815   0.281   0.847
12520W        W74051  39.373  32.539  12.988
12521W        W74052   8.816  35.053  11.117
12522W        W74053  37.500  22.644   4.831
12523W        W74054  31.467  11.345  14.331
12524W        W74055  31.411  29.106   0.325
12525W        W74056  12.305  39.379  13.831
12526W        W74057  16.601  37.497   4.260
12527W        W74058  25.093  13.816  12.403
12528W        W74059  10.699  11.188   4.665
12529W        W74060  16.258  11.149  13.329
12530W        W74061  32.561  26.514   3.372
12531W        W74062  24.223  13.347  14.924
12532W        W74063  12.763  19.674   4.164
12533W        W74064  14.830  14.678  13.474
12534W        W74065  27.146  34.995   2.840
12535W        W74066   9.671  40.042   1.799
12536W        W74067  32.603   7.309   1.743
12537W        W74068  38.050  32.920   4.157
12538W        W74069  23.716  27.657  11.385
12539W        W74070  24.711  21.700  12.041
12540W        W74071  14.252  11.784   3.801
12541W        W74072   2.432  42.982  12.086
12542W        W74073   3.888   4.423   0.728
12543W        W74074  15.655  16.303   1.320
12544W        W74075  32.047  33.964   4.202
12545W        W74076  30.429  37.981  12.878
12546W        W74077  15.592  31.605   0.812
12547W        W74078  44.931   9.387   3.719
12548W        W74079  31.947  17.593   2.721
12549W        W74080  36.360  35.906  11.606
12550W        W74081  17.081  22.037   0.964
12551W        W74082  23.072  27.530  13.361
12552W        W74083  18.245  26.176   3.165
12553W        W74084  28.164   2.728   4.191
12554W        W74085  43.890   5.239  11.007
12555W        W74086  37.981  35.542   4.738
12556W        W74087  11.759  34.053   0.942
12557W        W74088   8.717  31.985   1.788
12558W        W74089  15.779   2.239  13.909
12559W        W74090  33.380  26.061   4.674
12560W        W74091  28.479  44.320  14.478
12561W        W74092  26.094   8.212   0.449
12562W        W74093  41.357   8.660   4.815
12563W        W74094  13.740   1.747  11.443
12564W        W74095   7.772   0.875   2.788
12565W        W74096  34.890  19.546   1.743
12566W        W74097  20.695   7.193  13.546
12567W        W74098   4.820   5.928   2.869
12568W        W74099  22.094  13.734   3.850
12569W        W74100   4.263  34.011   1.913
12570W        W74101  17.084  17.617   0.271
12571W        W74102  23.590  37.480  13.885
12572W        W74103  11.711  35.054  14.812
12573W        W74104  26.671  16.177  10.548
12574W        W74105  13.309  12.261   2.882
12575W        W74106  13.234  23.508   2.873
12576W        W74107  16.610  12.621   3.664
12577W        W74108   7.296  11.139   3.682
12578W        W74109  27.470  30.500   4.332
12579W        W74110  34.026  26.177  13.475
12580W        W74111   7.714  25.087   1.767
12581W        W74112  32.521  38.069  12.876
12582W        W74113  20.084  31.123   0.243
12583W        W74114  31.028   9.858  10.112
12584W        W74115  24.004  14.770  14.901
12585W        W74116  18.249  35.001  13.004
12586W        W74117  33.002  14.776   9.481
12587W        W74118  42.942  13.784   2.761
12588W        W74119  11.839   5.241   2.409
12589W        W74120  36.071  35.925   4.732
12590W        W74121   2.873  20.096   2.811
12591W        W74122   8.168  13.679  10.619
12592W        W74123  13.339  32.949   9.662
12593W        W74124  29.586  39.470  12.373
12594W        W74125  15.596  31.909   4.614
12595W        W74126  36.592  20.637   2.395
12596W        W74127  28.159  41.882  14.388
12597W        W74128  39.825  25.172  12.538
12598W        W74129   4.447  33.101  12.383
12599W        W74130  14.156   6.855   1.935
12600W        W74131  28.446  33.597  11.023
12601W        W74132  44.822   6.390  12.466
12602W        W74133  43.413  40.979  13.977
12603W        W74134  43.947  22.550  12.940
12604W        W74135  18.548  43.970  10.407
12605W        W74136  33.081   7.794  12.029
12606W        W74137  28.600  30.004   4.689
12607W        W74138  40.384  39.424  13.511
12608W        W74139  30.494  19.636  10.536
12609W        W74140  22.691   3.459   9.971
12610W        W74141   1.845  13.761  10.409
12611W        W74142  32.068  42.374  10.447
12612W        W74143  32.997   3.269  12.078
12613W        W74144  42.524   8.222   2.210
12614W        W74145   7.193  26.564   3.227
12615W        W74146  13.822  17.093  11.550
12616W        W74147  26.508   4.220   1.252
12617W        W74148  10.305  14.689  10.483
12618W        W74149  27.149   7.187   3.179
12619W        W74150   6.218  21.132  10.996
12620W        W74151  18.552   7.907   2.327
12621W        W74152   1.848  28.526  12.421
12622W        W74153  14.794  25.195  13.892
12623W        W74154  10.370  30.950   1.435
12624W        W74155  42.294  36.516   3.859
12625W        W74156  19.745  14.638  11.078
12626W        W74157  32.885  22.649   1.870
12627W        W74158  15.243  30.096  10.449
12628W        W74159  23.122   7.820  11.019
12629W        W74160  23.630   2.778  14.854
12630W        W74161  15.648  22.600  13.962
12631W        W74162  15.257  22.685  11.089
12632W        W74163  17.669  18.178   0.964
12633W        W74164  10.275  31.135  14.451
12634W        W74165  17.227  38.419  14.945
12635W        W74166  26.620  11.282   4.728
12636W        W74167  30.539   1.913  13.513
12637W        W74168  10.683   9.196   4.198
12638W        W74169  18.629  30.920   0.378
12639W        W74170  35.027  19.186   4.331
12640W        W74171  18.694  10.756   3.805
12641W        W74172  38.848  23.161   0.264
12642W        W74173  14.776  13.128  12.561
12643W        W74174  19.612  10.716  10.405
12644W        W74175  36.985   4.904  14.421
12645W        W74176  39.472  43.948   2.335
12646W        W74177  31.444  12.253  11.378
12647W        W74178   5.692  17.558  12.906
12648W        W74179  42.457  33.482  12.928
12649W        W74180  28.118  14.134   2.206
12650W        W74181  37.940  28.647   2.274
12651W        W74182   0.359  40.970   3.718
12652W        W74183   6.839  12.821   2.360
12653W        W74184  42.527  16.656   2.764
12654W        W74185   4.703  33.590  14.941
12655W        W74186  39.843  22.061  13.391
12656W        W74187  36.401   5.905  11.897
12657W        W74188   7.899   4.750  11.569
12658W        W74189  20.650   8.362   0.335
12659W        W74190  12.239  19.655  12.497
12660W        W74191  32.978   4.712   5.183
12661W        W74192   3.900  35.042   4.325
12662W        W74193   4.421  15.295  11.436
12663W        W74194  28.029  41.915   2.342
12664W        W74195  38.524  12.161   2.279
12665W        W74196  25.509  20.145  13.975
12666W        W74197  33.963  18.620  13.480
12667W        W74198  28.100  25.667   1.753
12668W        W74199   5.315  39.031  12.916
12669W        W74200   6.719   8.812  11.525
12670W        W74201  14.135  21.135   4.833
12671W        W74202  16.210   3.395  13.047
12672W        W74203  31.551  29.056  12.870
12673W        W74204  19.683  44.326   1.722
12674W        W74205  16.794  22.562   2.359
12675W        W74206  17.126  33.522   5.176
12676W        W74207  44.765  33.045   1.414
12677W        W74208  32.602   6.908  13.452
12678W        W74209  40.975  20.140  14.360
12679W        W74210  22.203  17.206  14.348
12680W        W74211  43.279   5.338  11.446
12681W        W74212  41.499  18.756  14.449
12682W        W74213   7.380   9.330  11.466
12683W        W74214  10.769  36.040   2.750
12684W        W74215  33.394  14.805   0.891
12685W        W74216  39.398  28.054   1.709
12686W        W74217  44.335   5.930   4.753
12687W        W74218  23.719  19.098  14.277
12688W        W74219  32.480  24.080  12.835
12689W        W74220  31.420  28.654  11.056
12690W        W74221  39.493  20.607  11.968
12691W        W74222  39.055  41.437  14.868
12692W        W74223  12.761  22.143  12.375
12693W        W74224   0.921  14.654  13.987
12694W        W74225  16.727  41.862   1.406
12695W        W74226   8.236   8.747  13.838
12696W        W74227  28.930   8.807  11.500
12697W        W74228  38.510  36.915   4.767
12698W        W74229  10.206  40.938  10.947
12699W        W74230   0.841  42.408   1.225
12700W        W74231  14.191   4.365  10.940
12701W        W74232   0.370  19.077  13.481
12702W        W74233   4.374  29.018  13.415
12703W        W74234  41.831  38.379   4.283
12704W        W74235  39.831  16.670  13.360
12705W        W74236  14.783  12.755   3.341
12706W        W74237  33.884  31.444   0.317
12707W        W74238  23.086  10.209   0.393
12708W        W74239  15.779   3.262   2.852
12709W        W74240  26.042  19.049   1.392
12710W        W74241  43.487  41.377  12.519
12711W        W74242  21.696  16.712  13.853
12712W        W74243  29.601  20.071   3.367
12713W        W74244  36.590  39.921  14.901
12714W        W74245  16.287   5.708   0.256
12715W        W74246   1.785  41.948  13.827
12716W        W74247  34.110  36.398  14.812
12717W        W74248  38.941  17.238   3.345
12718W        W74249  38.949  22.153   1.438
12719W        W74250   8.248  36.489  11.605
12720W        W74251  29.567  11.667   4.708
12721W        W74252  36.923   4.899   2.271
12722W        W74253  32.432  39.402   3.697
12723W        W74254   4.218   7.802   1.831
12724W        W74255  39.844   2.314  14.820
12725W        W74256   6.388  38.943  11.868
12726W        W74257  29.154  37.335   0.395
12727W        W74258  17.076  15.100   4.235
12728W        W74259  41.858   7.682   3.704
12729W        W74260  39.489  44.381   1.428
12730W        W74261  15.204  10.869  14.329
12731W        W74262  31.935  21.706  12.516
12732W        W74263  29.538  18.137  13.819
12733W        W74264  30.034   3.298  13.989
12734W        W74265  19.738  33.958   2.739
12735W        W74266  17.664  33.096   2.846
12736W        W74267  18.610  21.528   1.712
12737W        W74268   2.838  40.539  11.507
12738W        W74269   5.368   1.743   4.613
12739W        W74270  30.607  12.327   1.438
12740W        W74271  44.837  38.845  11.414
12741W        W74272  36.423   3.258   1.793
12742W        W74273   6.821  31.048   0.351
12743W        W74274   3.422   4.250   4.287
12744W        W74275  26.041  34.113  13.320
12745W        W74276  11.648  18.615  10.530
12746W        W74277  33.410  21.144  11.979
12747W        W74278  43.443   8.758  12.508
12748W        W74279  13.182   1.425  13.892
12749W        W74280  12.224  29.538   3.181
12750W        W74281  20.765  32.016   4.248
12751W        W74282   5.721  33.919  11.878
12752W        W74283  20.237   5.375   3.745
12753W        W74284  32.564   0.962  11.899
12754W        W74285  24.033  44.776   4.798
12755W        W74286  20.701  27.166   3.646
12756W        W74287  36.450  40.876   1.823
12757W        W74288  44.003  18.564  14.927
12758W        W74289  17.606  41.491   1.361
12759W        W74290  23.105  39.911  14.999
12760W        W74291  11.681  33.876   3.822
12761W        W74292  27.092  15.175  13.010
12762W        W74293  26.156  36.978  11.595
12763W        W74294  21.198  11.365   1.881
12764W        W74295  38.975   8.789   2.826
12765W        W74296   5.836  26.094  11.096
12766W        W74297  15.693  25.694   4.823
12767W        W74298  39.836  21.071   0.860
12768W        W74299  20.594   8.241  14.479
12769W        W74300   9.281  39.495  11.043
12770W        W74301  18.242   5.207  11.022
12771W        W74302  15.199  24.157   2.295
12772W        W74303   3.750  30.130   0.775
12773W        W74304   1.469  27.635   2.198
12774W        W74305  18.057   7.212   3.237
12775W        W74306  39.512   7.251  14.932
12776W        W74307  35.969  32.512  14.305
12777W        W74308  41.033  17.168   0.394
12778W        W74309  12.824  19.589   3.838
12779W        W74310  38.058  29.437   3.749
12780W        W74311  24.527  44.478   0.953
12781W        W74312  34.992  26.477  13.342
12782W        W74313  33.975   7.273   0.817
12783W        W74314  21.537  15.259  10.556
12784W        W74315  17.101  36.925   3.689
12785W        W74316   3.440  24.030  11.952
12786W        W74317  18.292  36.901  11.035
12787W        W74318  44.962  20.531   3.176
12788W        W74319  27.481  31.128   1.422
12789W        W74320  32.906  25.152  13.807
12790W        W74321  14.157  10.716   3.854
12791W        W74322   0.943   8.389  12.923
12792W        W74323  34.430  39.445  13.373
12793W        W74324   6.290  15.279   1.773
12794W        W74325  24.161  15.699  13.967
12795W        W74326  44.995  16.147  14.399
12796W        W74327  39.508  14.232   0.855
12797W        W74328  26.065  36.367  11.065
12798W        W74329   8.305  19.192   1.429
12799W        W74330  22.738  40.917   3.720
12800W        W74331  42.301   2.431  11.939
12801W        W74332  33.952  36.501   0.915
12802W        W74333  22.242  42.850   0.357
12803W        W74334  27.643  37.496   1.831
12804W        W74335  24.084  14.247   5.306
12805W        W74336  36.872  43.906   4.135
12806W        W74337  19.181  23.070  13.890
12807W        W74338   8.796  43.991  13.943
12808W        W74339   1.958  34.873  11.897
12809W        W74340  44.369  27.084  12.395
12810W        W74341   6.731   9.277   1.338
12811W        W74342  37.903  23.028   0.736
12812W        W74343   5.882  15.299   0.455
12813W        W74344   4.244  29.450  14.972
12814W        W74345   2.299  25.613  12.502
12815W        W74346  27.658  20.043   2.378
12816W        W74347   6.679  17.065   3.824
12817W        W74348  36.093  15.174   5.677
12818W        W74349  44.356  19.107   3.802
12819W        W74350  39.356   2.827   4.268
12820W        W74351  44.301  12.671  11.384
12821W        W74352  21.039  19.132  10.535
12822W        W74353   8.277  22.199  10.941
12823W        W74354   0.254  20.561  14.422
12824W        W74355  24.698  24.690  11.578
12825W        W74356  30.159  42.935   1.234
12826W        W74357  25.478  26.007   3.219
12827W        W74358  16.231  26.642  13.969
12828W        W74359  27.004  36.518  12.493
12829W        W74360  35.046  22.526   5.196
12830W        W74361  14.302  15.178  14.342
12831W        W74362  32.021   7.836  13.495
12832W        W74363  34.488  13.183   3.246
12833W        W74364  41.400  28.133   3.252
12834W        W74365   4.368  30.484  11.374
12835W        W74366  22.046  13.797   0.311
12836W        W74367  12.123  28.080  14.030
12837W        W74368   4.270   2.836   4.694
12838W        W74369  12.632  27.558   1.295
12839W        W74370  31.998  30.630   3.287
12840W        W74371  19.113  11.669   3.719
12841W        W74372  24.083  44.789  12.430
12842W        W74373  39.531  22.505  14.903
12843W        W74374  26.148  34.383  12.402
12844W        W74375   1.799   5.928   2.218
12845W        W74376  33.948  32.986  12.832
12846W        W74377  25.153   4.792   2.322
12847W        W74378  10.174  25.477  14.977
12848W        W74379  23.678  39.383   2.301
12849W        W74380  21.184  32.480   3.320
12850W        W74381  38.417   2.401   2.266
12851W        W74382  34.416  40.496   0.309
12852W        W74383  26.516  17.144   5.112
12853W        W74384   2.300   2.807  13.031
12854W        W74385   5.402  39.867   0.929
12855W        W74386  16.083  15.133  14.434
12856W        W74387  24.212   9.693  13.349
12857W        W74388  30.467   4.718  13.396
12858W        W74389  17.742  31.132   1.818
12859W        W74390   3.227  19.049   0.784
12860W        W74391  15.817  43.862  13.818
12861W        W74392  20.739  38.554   1.911
12862W        W74393  41.917  34.112  13.910
12863W        W74394   2.233  22.176  11.063
12864W        W74395  41.417  21.590  12.999
12865W        W74396  22.223  27.532  14.482
12866W        W74397  33.419  19.766  14.837
12867W        W74398  13.621  43.480  13.356
12868W        W74399   6.302  35.445  14.417
12869W        W74400  33.012  18.757   1.885
12870W        W74401  43.463   4.322  14.355
12871W        W74402   2.962  24.999   3.152
12872W        W74403  38.945  10.876  12.911
12873W        W74404   5.843  42.282   1.210
12874W        W74405  36.938  36.386   1.830
12875W        W74406  36.589   6.244   4.344
12876W        W74407   4.257  44.441   3.666
12877W        W74408   7.280   6.211   0.249
12878W        W74409  41.794  36.990   1.696
12879W        W74410  21.514  32.444  13.364
12880W        W74411  35.544  39.896   2.699
12881W        W74412   9.341  32.014   4.730
12882W        W74413   1.305  26.474   4.228
12883W        W74414  39.331  11.624  11.583
12884W        W74415  41.007  27.687   2.804
12885W        W74416   8.843  27.150  14.944
12886W        W74417  27.598  31.468  14.888
12887W        W74418  33.408  15.821  13.849
12888W        W74419  13.338  41.016   0.383
12889W        W74420  15.590  15.817  11.886
12890W        W74421  17.597   3.259   3.795
12891W        W74422   8.901  13.713  11.400
12892W        W74423  37.499   5.728  13.450
12893W        W74424  21.546  34.068  12.363
12894W        W74425  17.260   8.759   0.390
12895W        W74426  35.076  36.860   4.254
12896W        W74427   4.246  32.900   0.959
12897W        W74428  41.411   7.763   3.353
12898W        W74429  12.339  22.234   3.737
12899W        W74430  12.285  13.796  14.455
12900W        W74431  18.649   6.415  14.403
12901W        W74432  39.557  30.558   3.155
12902W        W74433   1.421  27.470   3.329
12903W        W74434  12.628  23.111   1.707
12904W        W74435   8.393  38.546  14.994
12905W        W74436  24.997  28.612  11.068
12906W        W74437   3.329  15.609   3.287
12907W        W74438  44.934  25.582  14.496
12908W        W74439   4.731  43.848  10.499
12909W        W74440  22.577  15.627   1.699
12910W        W74441  36.435  35.560   0.357
12911W        W74442   1.923  22.115  12.031
12912W        W74443  17.676  44.360  11.006
12913W        W74444  13.285  43.508  13.871
12914W        W74445  42.947  34.976  13.529
12915W        W74446  44.822  33.424  11.867
12916W        W74447  30.587  33.396  12.006
12917W        W74448  43.915  21.724  12.074
12918W        W74449  15.296  18.063   0.367
12919W        W74450  41.391  26.096   2.244
12920W        W74451  12.637  13.779   2.374
12921W        W74452  18.071  22.725   5.116
12922W        W74453  38.479  27.059  11.438
12923W        W74454   2.447  27.111  14.472
12924W        W74455   6.707   5.769   4.810
12925W        W74456  14.140  20.150  11.983
12926W        W74457   7.722  39.387   4.347
12927W        W74458  11.291   0.284  10.622
12928W        W74459  10.330  10.633   2.767
12929W        W74460   1.932  18.267   1.918
12930W        W74461   4.416   4.247  10.910
12931W        W74462  14.224  11.339   0.417
12932W        W74463  35.585  22.026  12.427
12933W        W74464  10.842  37.068  11.000
12934W        W74465  19.648  32.889  13.994
12935W        W74466  38.008  28.930   0.853
12936W        W74467  21.543  42.983   4.710
12937W        W74468   7.900  28.661  13.344
12938W        W74469  26.980  34.398  11.385
12939W        W74470  11.139   3.409  13.013
12940W        W74471  40.317   9.217   2.848
12941W        W74472   9.787  17.706  12.080
12942W        W74473   5.833  18.649   0.397
12943W        W74474   8.752   6.809  11.450
12944W        W74475  24.066  34.119   1.230
12945W        W74476  17.200  37.858   0.907
12946W        W74477  28.047  40.813  14.370
12947W        W74478  24.484  27.494  10.022
12948W        W74479   2.907  35.418   2.797
12949W        W74480  22.103   7.228  11.028
12950W        W74481   2.345  42.395   0.350
12951W        W74482  24.545  39.546  12.026
12952W        W74483  15.198  32.523   3.860
12953W        W74484  22.054  35.529  11.487
12954W        W74485  32.907  30.133   1.889
12955W        W74486  43.426  24.504  10.438
12956W        W74487  25.211  25.542   0.893
12957W        W74488  43.915  37.521   3.748
12958W        W74489  12.690  19.147   2.253
12959W        W74490  25.484  31.113   1.272
12960W        W74491  25.208  13.686  12.884
12961W        W74492  37.966   9.281   2.693
12962W        W74493  30.603   3.929   2.901
12963W        W74494   9.264  39.967  14.816
12964W        W74495   3.896  18.259   1.740
12965W        W74496   9.699  44.809  14.024
12966W        W74497   7.889  29.452   3.283
12967W        W74498  19.688  37.349   4.217
12968W        W74499   5.273  10.318   4.715
12969W        W74500  12.234  26.496  12.929
12970W        W74501   9.794  41.349   0.763
12971W        W74502   4.914   7.331  14.307
12972W        W74503  31.602  21.161   0.363
12973W        W74504   1.947  31.433  12.997
12974W        W74505  19.728  37.082  13.952
12975W        W74506  21.136  35.539   3.831
12976W        W74507  28.050  29.664   3.864
12977W        W74508  19.192  39.928  13.040
12978W        W74509  29.476   9.150  10.411
12979W        W74510  18.631  36.080  13.958
12980W        W74511   9.702  41.466   2.333
12981W        W74512  17.649  20.652   1.780
12982W        W74513  20.577   5.328  13.441
12983W        W74514  13.751  42.028  12.037
12984W        W74515  20.082  43.454   0.419
12985W        W74516   4.379  24.539   1.326
12986W        W74517  13.709  24.168   3.854
12987W        W74518   7.400   9.728   3.818
12988W        W74519  39.887   3.275   1.316
12989W        W74520  20.097   1.879  14.477
12990W        W74521   7.333  42.516   0.303
12991W        W74522  16.224  15.721   1.931
12992W        W74523  36.036  13.277  12.872
12993W        W74524  44.303  16.722  14.346
12994W        W74525  24.046  42.464  11.053
12995W        W74526   6.790  32.048  12.868
12996W        W74527  38.500  16.121  11.905
12997W        W74528  22.101  17.062   1.347
12998W        W74529  33.406  16.761   9.952
12999W        W74530  30.457  13.220  12.395
13000W        W74531   7.292  32.522  13.842
13001W        W74532  37.899  18.587   1.234
13002W        W74533  34.921  23.138   0.396
13003W        W74534   4.215  14.293  13.374
13004W        W74535  12.838  22.585  14.918
13005W        W74536  16.125   9.390  10.589
13006W        W74537   3.230  43.893   4.117
13007W        W74538   9.387   9.848  10.955
13008W        W74539   8.278  22.067   2.186
13009W        W74540  35.517  31.455  12.459
13010W        W74541   4.902  17.082  13.833
13011W        W74542  25.692  37.984   0.768
13012W        W74543  29.527  22.719   5.099
13013W        W74544  40.848   4.848  14.302
13014W        W74545   8.722  11.184   0.879
13015W        W74546  13.661  11.253  14.432
13016W        W74547  11.308  29.642   2.854
13017W        W74548  10.795  38.519   2.794
13018W        W74549  43.012  20.569  14.478
13019W        W74550   3.442  18.088  11.565
13020W        W74551  30.043  30.497  11.918
13021W        W74552  35.901   2.786  11.524
13022W        W74553   0.407  44.296  12.893
13023W        W74554  36.393   7.900   0.344
13024W        W74555  41.456  30.066   4.729
13025W        W74556  43.819  19.558  13.406
13026W        W74557  11.817  33.508  14.308
13027W        W74558  24.585  16.076   2.767
13028W        W74559  43.459   0.777   0.875
13029W        W74560  32.966  44.421   2.210
13030W        W74561  14.253  38.893   0.250
13031W        W74562  37.401   3.262   4.693
13032W        W74563  15.315   8.254  14.350
13033W        W74564  44.946   5.381   1.861
13034W        W74565  30.580  19.199   4.707
13035W        W74566   9.651  14.761  10.412
13036W        W74567  21.626  24.560  12.051
13037W        W74568  41.911  20.071  14.365
13038W        W74569  19.184  34.068  11.987
13039W        W74570  14.593  28.537   4.341
13040W        W74571  29.045  27.147  12.989
13041W        W74572  26.507  27.630  13.318
13042W        W74573  31.434   0.775  11.939
13043W        W74574  30.114  42.423   1.261
13044W        W74575   7.318  44.332   1.291
13045W        W74576  43.318   6.416  12.572
13046W        W74577  25.058  38.976  13.816
13047W        W74578  13.807  40.886  11.958
13048W        W74579  10.292   0.876   1.886
13049W        W74580  41.951  27.681  13.479
13050W        W74581   3.319  38.493   2.818
13051W        W74582  30.152  10.706  14.883
13052W        W74583  28.174   6.865   2.736
13053W        W74584  39.378   8.198   4.302
13054W        W74585   8.754  11.130   4.334
13055W        W74586  37.570  20.086  11.061
13056W        W74587  38.568  15.621   2.323
13057W        W74588  25.041  31.441   2.685
13058W        W74589  39.520   3.804  14.836
13059W        W74590   6.343  26.610   1.805
13060W        W74591  21.133   7.315   4.786
13061W        W74592   7.300  28.978  13.800
13062W        W74593   5.797  17.790  10.573
13063W        W74594   3.411  27.038   0.921
13064W        W74595  34.478  30.017  12.885
13065W        W74596  41.294  36.994   2.366
13066W        W74597  38.029  41.827  11.122
13067W        W74598   0.792  22.599   0.729
13068W        W74599  35.904  15.274  12.882
13069W        W74600  34.039   1.428  14.954
13070W        W74601  30.484  25.613  14.830
13071W        W74602  21.087  18.143  12.409
13072W        W74603   6.837  44.910  10.445
13073W        W74604  25.512  37.968  11.943
13074W        W74605  33.023  26.144  14.921
13075W        W74606  11.201  39.003   2.386
13076W        W74607  31.017  13.308   1.441
13077W        W74608  15.154  26.090   4.260
13078W        W74609  42.815  16.101   4.809
13079W        W74610  43.837   9.736  10.892
13080W        W74611  30.616  26.042  11.461
13081W        W74612  26.038  12.687   1.798
13082W        W74613  36.992  44.291   1.787
13083W        W74614   2.877  38.506   1.291
13084W        W74615  20.178  10.367   4.269
13085W        W74616  42.804  43.447  11.885
13086W        W74617  18.616  41.831   0.303
13087W        W74618  18.187  14.815   2.727
13088W        W74619   1.886   8.275  11.081
13089W        W74620  10.872  29.923  11.609
13090W        W74621  23.113  41.807   2.353
13091W        W74622  43.338  33.130  12.348
13092W        W74623   9.158  15.630  14.852
13093W        W74624  10.313  37.400  11.970
13094W        W74625  27.513  35.424   3.719
13095W        W74626  15.591   5.720   4.341
13096W        W74627  43.904  24.637   2.218
13097W        W74628  20.091  31.448  10.406
13098W        W74629  19.143  39.987   4.343
13099W        W74630  34.044  25.018   4.140
13100W        W74631  31.445   6.768  13.526
13101W        W74632  15.235  24.090   1.862
13102W        W74633  40.381   0.786   4.251
13103W        W74634  42.028  41.374  12.891
13104W        W74635  18.609  18.226   3.767
13105W        W74636  33.995  27.527  13.437
13106W        W74637   2.470   8.667  12.502
13107W        W74638  18.195  26.480  11.400
13108W        W74639  25.549  24.166   2.393
13109W        W74640  40.531  40.339   1.712
13110W        W74641   1.942  41.923   3.212
13111W        W74642  15.302   4.307  13.414
13112W        W74643   9.302  27.164  14.408
13113W        W74644   4.727  42.481  14.917
13114W        W74645  14.324  39.546   3.706
13115W        W74646  24.166  40.473  13.983
13116W        W74647  36.385  17.289  14.769
13117W        W74648  33.881  12.172  14.000
13118W        W74649  21.141  40.347  12.531
13119W        W74650   8.255  18.676   2.763
13120W        W74651  34.471  38.025   1.825
13121W        W74652  24.155   3.369   4.276
13122W        W74653  42.410  31.473   3.638
13123W        W74654  34.019   6.348  12.381
13124W        W74655  30.426  36.511  13.427
13125W        W74656   7.865   9.664   2.182
13126W        W74657  28.145  15.814   2.881
13127W        W74658  40.896  30.144  14.386
13128W        W74659  19.175  30.482  12.948
13129W        W74660  10.731  25.075  10.956
13130W        W74661  20.201  33.526  10.974
13131W        W74662  27.167  24.495  11.086
13132W        W74663   5.392  21.659   4.144
13133W        W74664  12.820  22.746  12.070
13134W        W74665  14.180   2.793  11.903
13135W        W74666  38.549  15.803   1.841
13136W        W74667  18.107   1.352   4.155
13137W        W74668  33.911  40.828  11.872
13138W        W74669  21.688   9.315  14.920
13139W        W74670  27.049  35.023  12.070
13140W        W74671  40.890  40.824   1.811
13141W        W74672  42.523  10.681  10.591
13142W        W74673  29.070  25.131  11.881
13143W        W74674  14.122  25.168  13.507
13144W        W74675  44.758  38.523   3.843
13145W        W74676  36.876  30.053  12.913
13146W        W74677  28.143  21.110  14.810
13147W        W74678   5.395   7.838   0.286
13148W        W74679  43.951  28.179   1.213
13149W        W74680  44.856  27.197   2.789
13150W        W74681  19.592  29.483   0.279
13151W        W74682  24.141   5.869  12.550
13152W        W74683  26.997  15.327   1.889
13153W        W74684   3.816  39.996  14.385
13154W        W74685  31.420  32.410  11.038
13155W        W74686  10.171   4.330   1.230
13156W        W74687   0.410  13.671   0.730
13157W        W74688  34.031  24.537   1.931
13158W        W74689  16.189  40.893   2.262
13159W        W74690  35.966  12.814   4.279
13160W        W74691  40.448   9.170   2.241
13161W        W74692  32.012  44.339   1.753
13162W        W74693   1.433  27.637   3.796
13163W        W74694  43.971  24.713  10.895
13164W        W74695  38.034  29.511  14.398
13165W        W74696   3.913  40.034  11.089
13166W        W74697   8.296  35.596  11.903
13167W        W74698  31.150  40.959  13.312
13168W        W74699  25.602  20.571   0.359
13169W        W74700  17.224   4.387   4.760
13170W        W74701  44.358   4.823  10.409
13171W        W74702  10.330   0.438   0.329
13172W        W74703   1.763   9.278   3.714
13173W        W74704  25.619  32.978  14.431
13174W        W74705  38.534  30.500   0.871
13175W        W74706  29.658   1.898  14.470
13176W        W74707  27.683  40.490   4.172
13177W        W74708   6.803  21.061   0.816
13178W        W74709  17.791  21.646   2.211
13179W        W74710   7.371   4.208   3.151
13180W        W74711   2.923   1.761   3.200
13181W        W74712  44.445  21.676   2.708
13182W        W74713   3.885   0.354  14.368
13183W        W74714  16.752  20.653   0.433
13184W        W74715  32.969  36.879  14.979
13185W        W74716  13.317  10.657   4.680
13186W        W74717  12.245   4.708  12.861
13187W        W74718  39.970  41.826  13.853
13188W        W74719  19.643  10.797  13.794
13189W        W74720  44.989   3.436   3.834
13190W        W74721  12.754  12.620   1.726
13191W        W74722   0.392  40.991   3.344
13192W        W74723  18.122  13.762   1.854
13193W        W74724  34.565   1.898   2.713
13194W        W74725  32.903  18.191   1.814
13195W        W74726  36.064  18.670  13.395
13196W        W74727  12.697  23.045  11.040
13197W        W74728  32.040  22.044  13.829
13198W        W74729  29.576   7.405   1.849
13199W        W74730  42.383  42.299  11.856
13200W        W74731   9.203  19.057   4.679
13201W        W74732  37.855  12.257   1.361
13202W        W74733  41.480  43.924   0.475
13203W        W74734   1.313  43.993   1.835
13204W        W74735  29.651  13.809   2.382
13205W        W74736  27.037  18.704   3.189
13206W        W74737   1.824  31.634   2.691
13207W        W74738  18.189  21.071  11.095
13208W        W74739   9.371  29.504   4.188
13209W        W74740  10.771  14.153   0.923
13210W        W74741  41.302   7.884  13.396
13211W        W74742  31.114  14.658   0.794
13212W        W74743  25.604  37.377   0.255
13213W        W74744   7.400  28.596   4.121
13214W        W74745  33.538   9.289   2.232
13215W        W74746  42.935  42.453   3.173
13216W        W74747  35.903   5.361   4.683
13217W        W74748  28.462  34.404  13.503
13218W        W74749  10.204  25.593   4.747
13219W        W74750   9.643  12.310  14.920
13220W        W74751   6.711  41.307   4.300
13221W        W74752  12.670  20.599  14.317
13222W        W74753  41.485  40.942   1.782
13223W        W74754  16.635  22.162   1.931
13224W        W74755  23.553   4.411   3.629
13225W        W74756  14.723   4.248  13.325
13226W        W74757   2.336  11.302   4.335
13227W        W74758  38.969  16.259   3.694
13228W        W74759  24.173  24.033   2.766
13229W        W74760   7.172   9.706   4.645
13230W        W74761  31.938   1.813   4.158
13231W        W74762  11.679   1.958  11.474
13232W        W74763  38.888  15.205   9.998
13233W        W74764  17.303  23.061   0.736
13234W        W74765  11.372  19.666  14.295
13235W        W74766  16.586  15.807   3.860
13236W        W74767  31.634  33.129  13.488
13237W        W74768  23.580  12.149   1.220
13238W        W74769   7.829   6.821   4.644
13239W        W74770  20.236  44.893   1.915
13240W        W74771  39.524  22.713   2.838
13241W        W74772  22.702  40.930  14.433
13242W        W74773  29.924  37.052   1.291
13243W        W74774  29.568  22.676  12.567
13244W        W74775  28.130  21.026  12.492
13245W        W74776  34.607  41.787  13.357
13246W        W74777   0.346  42.523  11.519
13247W        W74778  17.627   5.438  10.526
13248W        W74779  31.929  39.956  12.562
13249W        W74780  36.448  38.065  14.990
13250W        W74781  33.108  12.343   2.242
13251W        W74782  15.702  33.889  12.006
13252W        W74783  24.638  27.618  12.874
13253W        W74784  44.412   7.853   5.296
13254W        W74785  24.171   6.303  12.968
13255W        W74786   7.741  36.386  13.998
13256W        W74787  24.510  26.684   4.740
13257W        W74788  12.357  16.215   2.283
13258W        W74789  29.093   3.460  11.026
13259W        W74790  28.680  15.306  14.981
13260W        W74791  11.710  42.869   2.715
13261W        W74792  24.482   5.812  13.412
13262W        W74793  14.750  38.998   3.720
13263W        W74794   5.195  36.060   3.215
13264W        W74795  30.574  12.691  14.285
13265W        W74796  41.878  27.557  10.931
13266W        W74797  31.428  30.942   2.764
13267W        W74798  19.574   2.860  14.975
13268W        W74799  21.661  35.383  13.514
13269W        W74800   8.166  35.011  10.534
13270W        W74801  39.546  41.031  11.520
13271W        W74802  24.723   4.264  14.333
13272W        W74803  37.563  39.858  12.439
13273W        W74804  36.001  33.923   3.267
13274W        W74805  12.750   5.899   0.292
13275W        W74806   0.747  24.197   2.878
13276W        W74807  28.959  14.599  11.902
13277W        W74808  32.138  39.318   2.285
13278W        W74809  27.645  37.869  12.068
13279W        W74810  22.603  38.909   3.258
13280W        W74811   7.319  19.084  10.578
13281W        W74812  23.606  29.618   0.881
13282W        W74813   6.248  41.489   3.243
13283W        W74814  43.965  20.092   3.262
13284W        W74815  11.311  13.168   0.808
13285W        W74816  28.455  17.263  12.039
13286W        W74817  14.672   9.327  11.546
13287W        W74818  19.595  22.747   4.231
13288W        W74819  24.218  14.321   9.984
13289W        W74820   0.309  10.384   2.383
13290W        W74821   7.199  20.142   4.614
13291W        W74822   4.732  13.170   4.287
13292W        W74823  30.615  27.079   3.157
13293W        W74824  15.746   0.390   3.810
13294W        W74825  21.676  31.408   0.824
13295W        W74826  25.579  23.539  11.392
13296W        W74827  16.685  25.471   4.707
13297W        W74828  27.565  25.111  13.872
13298W        W74829   7.857  10.811  14.511
13299W        W74830  43.940   9.690   1.307
13300W        W74831  16.077  25.611  10.041
13301W        W74832  37.498  18.656   2.405
13302W        W74833  38.961   9.316  13.394
13303W        W74834  12.176  43.780  14.000
13304W        W74835   9.859  14.819   2.328
13305W        W74836   9.214   3.353  11.489
13306W        W74837  38.984  36.350   5.171
13307W        W74838   6.303  36.349  12.410
13308W        W74839  24.179  34.496  13.849
13309W        W74840  37.545   0.267  10.629
13310W        W74841  39.913   5.401   1.321
13311W        W74842  30.952  31.042   4.683
13312W        W74843  41.892   7.200  13.931
13313W        W74844   2.285  13.698   2.230
13314W        W74845  22.716  33.446   1.898
13315W        W74846  33.058  32.910   0.289
13316W        W74847   9.711  42.780   1.873
13317W        W74848  20.582   5.767  12.414
13318W        W74849  44.316   4.428  14.317
13319W        W74850  42.965  13.285  11.080
13320W        W74851  10.171   5.315  13.435
13321W        W74852  23.521  28.042   5.310
13322W        W74853  30.453  42.438  12.025
13323W        W74854  30.082  16.104   2.805
13324W        W74855  36.062  40.952   2.691
13325W        W74856   3.823  10.352   3.321
13326W        W74857  22.693  25.646   1.385
13327W        W74858  11.682  30.099  10.604
13328W        W74859  44.354  42.948   4.196
13329W        W74860  15.201  40.521  14.787
13330W        W74861   0.276   3.741   2.373
13331W        W74862  42.802  34.403  12.559
13332W        W74863   0.951  17.615  14.841
13333W        W74864  42.902  16.742  13.513
13334W        W74865  41.803  11.314   4.236
13335W        W74866  35.958   4.432   0.296
13336W        W74867  43.787   8.211   2.229
13337W        W74868   6.833  33.488   3.266
13338W        W74869   3.445   9.347   3.284
13339W        W74870   6.691  14.222   0.256
13340W        W74871  38.335  12.763   5.250
13341W        W74872  12.703   3.286   4.189
13342W        W74873  23.657  17.142   4.294
13343W        W74874   2.966  24.079  14.313
13344W        W74875  19.039   8.830   4.652
13345W        W74876   2.874  12.696   1.313
13346W        W74877  24.102  23.567   9.980
13347W        W74878   2.816  16.281   2.282
13348W        W74879  29.572   2.447   4.809
13349W        W74880  21.253  14.292  10.564
13350W        W74881   2.856  20.137   2.405
13351W        W74882  42.805  12.731  12.525
13352W        W74883  33.437  32.519   2.188
13353W        W74884   9.345  26.486  13.794
13354W        W74885   5.392  39.357   0.364
13355W        W74886  40.818  10.141   4.816
13356W        W74887  31.538  20.142   1.761
13357W        W74888  35.999  22.715  13.407
13358W        W74889  38.864   6.275  14.822
13359W        W74890  44.874  12.146   2.737
13360W        W74891  34.924  42.443  13.949
13361W        W74892   2.760  11.794  13.918
13362W        W74893  38.819   9.728  13.483
13363W        W74894  35.855  30.128   4.813
13364W        W74895  25.055  19.540  14.790
13365W        W74896  43.820  42.305  13.990
13366W        W74897  25.205  20.549   0.454
13367W        W74898  41.808  25.587   4.305
13368W        W74899  21.567  21.202  12.019
13369W        W74900  42.993  43.275  12.568
13370W        W74901  37.016   4.898   3.765
13371W        W74902  17.230  13.656   4.187
13372W        W74903  18.564   8.861   4.630
13373W        W74904  34.561  36.911   1.264
13374W        W74905  34.932   9.851  10.510
13375W        W74906  28.122  29.549  12.345
13376W        W74907   8.702  28.980   3.743
13377W        W74908  20.674  44.311   2.890
13378W        W74909  16.626  10.830   0.323
13379W        W74910   0.401  17.626   2.873
13380W        W74911  42.351  22.649  12.879
13381W        W74912   6.764  17.596   3.670
13382W        W74913  25.470  13.193   0.831
13383W        W74914  16.603  31.474   1.700
13384W        W74915  20.217  24.087   0.306
13385W        W74916   4.335   1.267   0.962
13386W        W74917   4.863  13.610   2.274
13387W        W74918  18.687   8.317   2.846
13388W        W74919  18.080  40.441   2.805
13389W        W74920   6.832  43.801  14.445
13390W        W74921  23.492   6.192  10.466
13391W        W74922   1.756  27.087  12.491
13392W        W74923  29.170   7.899   5.100
13393W        W74924  26.123  38.446   2.240
13394W        W74925  25.158  17.796  10.581
13395W        W74926  42.912  40.546  10.473
13396W        W74927  25.216  32.428   0.455
13397W        W74928  20.050  42.948   5.156
13398W        W74929  36.907   8.880  11.012
13399W        W74930  42.977  39.001   4.681
13400W        W74931  20.591  38.372   3.264
13401W        W74932  18.691  39.934  13.870
13402W        W74933  38.505  32.957   0.303
13403W        W74934  43.777  29.930   4.191
13404W        W74935  14.208  27.133   1.924
13405W        W74936  13.202  39.052  10.000
13406W        W74937  28.653  33.536   1.354
13407W        W74938  40.034  35.084   1.864
13408W        W74939  35.569  44.452   1.870
13409W        W74940  29.981   3.737  11.978
13410W        W74941  33.516  39.963   4.825
13411W        W74942  17.569  24.010   3.743
13412W        W74943  36.506  19.565  11.066
13413W        W74944   4.849   6.917   0.751
13414W        W74945  20.217  39.936  10.430
13415W        W74946   2.441  31.569  11.928
13416W        W74947  20.249  18.695   4.825
13417W        W74948  37.569  38.426   5.629
13418W        W74949   3.318  34.105   0.368
13419W        W74950  29.614  41.867   3.287
13420W        W74951  30.503  17.739  13.957
13421W        W74952   2.803  23.123  13.003
13422W        W74953  14.654  27.968  12.823
13423W        W74954   8.280  11.316   0.419
13424W        W74955  32.016   2.843   4.774
13425W        W74956  23.539  32.496   1.233
13426W        W74957  25.482  35.521  12.069
13427W        W74958  26.015  41.465  11.432
13428W        W74959  32.004  34.078   1.371
13429W        W74960  11.867   2.352   2.209
13430W        W74961  25.551  27.464   4.338
13431W        W74962  26.627   5.748  14.028
13432W        W74963  26.583  22.660   4.655
13433W        W74964  43.511  10.875   0.255
13434W        W74965   5.731  44.394  12.351
13435W        W74966  15.319  32.561   3.193
13436W        W74967  34.092  33.621  13.407
13437W        W74968  26.515  39.894   3.643
13438W        W74969  10.266  34.021   2.727
13439W        W74970  25.559   3.412   3.250
13440W        W74971  15.250  18.126   3.283
13441W        W74972   9.315  17.685  11.940
13442W        W74973  14.762  42.470  14.492
13443W        W74974  25.216  13.110  14.878
13444W        W74975   2.231   9.178  10.490
13445W        W74976  38.387   6.871  12.874
13446W        W74977  17.237  11.179  14.939
13447W        W74978   1.327   1.803   3.652
13448W        W74979  16.573  27.636   0.469
13449W        W74980   9.702  31.503   1.364
13450W        W74981  30.020  21.081  10.981
13451W        W74982  38.888  41.990  11.056
13452W        W74983  17.750  17.287   0.481
13453W        W74984  14.641  44.449   9.940
13454W        W74985  12.688   4.767   2.756
13455W        W74986  26.135  10.668   1.382
13456W        W74987  33.958  10.834  10.442
13457W        W74988  27.139   2.755   4.219
13458W        W74989  12.753  19.041   1.723
13459W        W74990  43.775   7.343   3.337
13460W        W74991  12.263   9.336   0.748
13461W        W74992  15.690   8.161  11.398
13462W        W74993  22.239  33.570  11.469
13463W        W74994  20.256  21.592  14.814
13464W        W74995  28.456  18.063   4.816
13465W        W74996  35.054  42.347   4.227
13466W        W74997   7.724   9.769  12.015
13467W        W74998   1.813  42.969   3.652
13468W        W74999  31.603  12.150   0.736
13469W        W75000  24.637   6.705   0.469
13470W        W75001  21.068  41.943   3.212
13471W        W75002  34.609  12.786  14.431
13472W        W75003  12.136  26.690   0.809
13473W        W75004   5.417  26.191  13.984
13474W        W75005   4.360  14.664  13.038
13475W        W75006   6.696   8.894  10.965
13476W        W75007  22.065  26.685   3.164
13477W        W75008  24.662  39.874   4.772
13478W        W75009  13.214  18.775   2.283
13479W        W75010  32.136   2.439  12.410
13480W        W75011  29.517   7.886  11.935
13481W        W75012  37.548  27.474  11.901
13482W        W75013  20.720  23.541  11.483
13483W        W75014  30.110  13.687  14.457
13484W        W75015   6.734  44.263   3.735
13485W        W75016   0.337  32.627   3.272
13486W        W75017  36.014  22.179   0.960
13487W        W75018   9.382  34.405  11.046
13488W        W75019  44.375   4.872  13.942
13489W        W75020  11.704  10.187  13.935
13490W        W75021  16.587  43.288   0.881
13491W        W75022  23.505  34.077  13.960
13492W        W75023   9.774  26.084   2.797
13493W        W75024  29.080  11.133  12.974
13494W        W75025  21.162  37.831  10.053
13495W        W75026  39.830  12.787  12.893
13496W        W75027  16.734  21.563   3.357
13497W        W75028  21.111  11.786  14.368
13498W        W75029   6.727  32.040  14.941
13499W        W75030  20.031  28.674  13.899
13500W        W75031  37.456   2.325   5.131
13501W        W75032   3.798  11.204   3.210
13502W        W75033   9.805  25.495  14.018
13503W        W75034  14.600   3.307  11.965
13504W        W75035   8.767  19.545   1.300
13505W        W75036  40.535   0.446  11.896
13506W        W75037  30.957  38.422   4.118
13507W        W75038  26.679  43.892  12.556
13508W        W75039  41.342  44.950  13.315
13509W        W75040  33.390   3.731  13.990
13510W        W75041  39.440   6.745  14.347
13511W        W75042  27.952  36.427   1.338
13512W        W75043  44.380  32.012   4.838
13513W        W75044  27.570  28.099   2.287
13514W        W75045  27.168  20.623  13.371
13515W        W75046  22.606  18.769   1.885
13516W        W75047  35.071  44.980   0.891
13517W        W75048  35.394  28.095   2.268
13518W        W75049  36.480   8.889   0.475
13519W        W75050   3.888  24.007  14.349
13520W        W75051  38.456  25.013  11.861
13521W        W75052  32.986  37.959   2.324
13522W        W75053   5.277  44.861   2.698
13523W        W75054  17.625   7.300   4.801
13524W        W75055  17.599  12.707   0.296
13525W        W75056   3.914  22.190   2.850
13526W        W75057   4.340  19.082   2.679
13527W        W75058  22.709  29.437  13.016
13528W        W75059  40.054   1.924   4.252
13529W        W75060  43.430  29.495  11.427
13530W        W75061  30.563  10.201   1.769
13531W        W75062  15.611  43.839  14.494
13532W        W75063   5.203   8.181   2.732
13533W        W75064   1.283   5.233  13.485
13534W        W75065  32.450  34.945   0.264
13535W        W75066  12.285   5.705   1.851
13536W        W75067  17.137  17.650  12.832
13537W        W75068  41.885   6.367  14.888
13538W        W75069  20.643   8.847   1.897
13539W        W75070   7.896  17.645   1.749
13540W        W75071  24.546  43.003   0.414
13541W        W75072  23.048  40.816   3.209
13542W        W75073  11.207  42.334  11.075
13543W        W75074   1.939  18.100  11.511
13544W        W75075  40.925  37.883  12.981
13545W        W75076  18.546  30.995   3.812
13546W        W75077   1.831  40.484  10.950
13547W        W75078  20.169  12.810   2.285
13548W        W75079  39.033  25.218  14.287
13549W        W75080   6.740  20.579  12.400
13550W        W75081  32.948  33.109   0.885
13551W        W75082   8.214  18.229   0.740
13552W        W75083  14.284   6.919  12.474
13553W        W75084  35.879  23.149  11.045
13554W        W75085  42.841   1.475   3.150
13555W        W75086  40.885  34.458  11.451
13556W        W75087  27.546  34.495   2.832
13557W        W75088  23.547  26.513   1.807
13558W        W75089  43.405  40.364   1.882
13559W        W75090  35.859  27.191   1.375
13560W        W75091  34.475   2.837  11.126
13561W        W75092   7.222  30.450  11.900
13562W        W75093  31.612   0.776  14.009
13563W        W75094  19.065  42.844   3.150
13564W        W75095  25.210  37.871  13.957
13565W        W75096  34.113  39.026   5.231
13566W        W75097  35.487  31.536   3.148
13567W        W75098  39.459  22.606  13.463
13568W        W75099  19.133  16.590   3.720
13569W        W75100  11.849  39.032   1.284
13570W        W75101   3.724   0.372   0.346
13571W        W75102  41.398  29.924   2.181
13572W        W75103  25.510   9.835  11.060
13573W        W75104  22.504  23.150  12.404
13574W        W75105  37.378  10.832  14.770
13575W        W75106  40.993  20.236   3.324
13576W        W75107   8.692  30.030  11.481
13577W        W75108   1.282  13.253   1.874
13578W        W75109   8.798  10.290  12.911
13579W        W75110   4.905  13.171   0.900
13580W        W75111  42.927  12.645  14.935
13581W        W75112  16.074   9.676  12.978
13582W        W75113  41.813   3.809  11.372
13583W        W75114   6.217  40.840  14.943
13584W        W75115   4.912   4.413   3.850
13585W        W75116  16.082  16.298   4.735
13586W        W75117  12.633  22.013   4.335
13587W        W75118  40.886   1.904   4.826
13588W        W75119  40.430   3.889  12.395
13589W        W75120  36.489   9.682   1.793
13590W        W75121   1.776  27.944   4.684
13591W        W75122  34.912   4.312   0.790
13592W        W75123  34.017  31.049   3.231
13593W        W75124  29.647  28.036   0.734
13594W        W75125  30.542   1.973  13.853
13595W        W75126  25.528  10.877   1.283
13596W        W75127  31.103  32.940  14.282
13597W        W75128  12.824   0.902   3.265
13598W        W75129  40.529  23.002   2.797
13599W        W75130  19.044   4.853  13.884
13600W        W75131  24.614   0.985   3.159
13601W        W75132  37.423  13.250  11.125
13602W        W75133  20.060  38.495   3.222
13603W        W75134  31.946   6.727  12.018
13604W        W75135   9.741   1.337   3.293
13605W        W75136  39.377  10.379   3.169
13606W        W75137   0.866  17.196   3.372
13607W        W75138   9.746  44.938   2.218
13608W        W75139   1.758  34.437  14.474
13609W        W75140  15.268  35.951  14.295
13610W        W75141  41.529  26.672   2.770
13611W        W75142  31.992  37.548  10.532
13612W        W75143  42.500   1.907  13.968
13613W        W75144  28.624  29.954   0.385
13614W        W75145  27.454  33.490  11.021
13615W        W75146  35.531  25.210   4.205
13616W        W75147   9.358   4.860  10.447
13617W        W75148  15.754  33.041   0.381
13618W        W75149  22.085  38.024   4.191
13619W        W75150  20.600   7.756  14.982
13620W        W75151  33.388  34.464   3.718
13621W        W75152   0.866  16.679   4.256
13622W        W75153  35.048  14.105   1.262
13623W        W75154  41.937  23.586  15.000
13624W        W75155  36.533   6.280  11.867
13625W        W75156  39.498  23.683   0.882
13626W        W75157  11.802  34.087   1.746
13627W        W75158  37.441   0.836  14.444
13628W        W75159  23.702  42.414  11.549
13629W        W75160  22.652   0.883   0.929
13630W        W75161   3.712  35.450  11.108
13631W        W75162  14.217  17.275   3.847
13632W        W75163  39.976  14.620   4.818
13633W        W75164  36.943  41.970  10.416
13634W        W75165  37.965  36.884  11.872
13635W        W75166   1.297   5.436   2.739
13636W        W75167   8.238  44.953   3.766
13637W        W75168  32.590   9.883  14.902
13638W        W75169  14.220  24.150  13.524
13639W        W75170  14.192   6.873   1.241
13640W        W75171  19.223  27.535   3.718
13641W        W75172  35.424  19.763  12.496
13642W        W75173  14.826  15.137  13.030
13643W        W75174  42.018  39.498  13.434
13644W        W75175   4.305  33.949  13.331
13645W        W75176  10.254   7.790  13.950
13646W        W75177  10.870  37.482  10.624
13647W        W75178   2.800  32.563   4.778
13648W        W75179  36.977  25.601   2.848
13649W        W75180  33.078  37.053  11.578
13650W        W75181  27.954   0.972   3.728
13651W        W75182  42.358  25.616   3.773
13652W        W75183   5.837  11.708   3.843
13653W        W75184  37.848  35.953   4.260
13654W        W75185  20.626   7.190  12.950
13655W        W75186  37.385  22.567   0.856
13656W        W75187  42.002  40.001   2.699
13657W        W75188  15.622  15.128   3.830
13658W        W75189  31.982  13.610  14.951
13659W        W75190  39.538  22.123   1.266
13660W        W75191   6.392  20.573   3.645
13661W        W75192  22.620  21.247   2.191
13662W        W75193   9.317  11.801   2.289
13663W        W75194  22.576  44.988  11.005
13664W        W75195   7.332  39.438   0.383
13665W        W75196   3.891   5.243  13.869
13666W        W75197   5.428  13.765  14.855
13667W        W75198  33.077  12.318  13.472
13668W        W75199   6.231  21.125   0.771
13669W        W75200  24.041  12.275  13.348
13670W        W75201   9.648  44.815   9.629
13671W        W75202   7.711   4.845   4.309
13672W        W75203  29.551   3.872   2.758
13673W        W75204  30.457  28.020  10.586
13674W        W75205  40.441   6.323   2.320
13675W        W75206  34.387   9.845  12.400
13676W        W75207  13.651  41.309  13.416
13677W        W75208  34.937  36.365  13.892
13678W        W75209  33.055  10.274  14.840
13679W        W75210   8.261   7.903   4.255
13680W        W75211  38.985  37.074   9.924
13681W        W75212   8.842  14.254   5.151
13682W        W75213   8.259  34.406  14.762
13683W        W75214  16.743  27.677   2.331
13684W        W75215  13.638  18.603  14.830
13685W        W75216   5.381  38.504   2.246
13686W        W75217  30.544   3.854  14.470
13687W        W75218  34.393   9.821  12.982
13688W        W75219  27.177   5.198   2.690
13689W        W75220   2.922   1.300   1.724
13690W        W75221   9.650  36.915   3.663
13691W        W75222  31.479  38.891   3.785
13692W        W75223   7.760  33.578  10.987
13693W        W75224  22.198  44.494   2.820
13694W        W75225  37.563  13.722  14.822
13695W        W75226  40.018  37.850   4.304
13696W        W75227   2.422  10.331  12.869
13697W        W75228  40.543  36.481   3.770
13698W        W75229  44.986  10.376   0.885
13699W        W75230   3.237  41.428  10.041
13700W        W75231  41.807  36.486  10.424
13701W        W75232  27.114   8.807   0.842
13702W        W75233  42.331  25.605  12.406
13703W        W75234  33.465   2.245   4.345
13704W        W75235  41.320  44.979   3.160
13705W        W75236   7.387  42.817  13.474
13706W        W75237  20.265   9.732  10.573
13707W        W75238   4.221  25.555   2.723
13708W        W75239  11.230  13.204  13.406
13709W        W75240  18.731  23.534   1.824
13710W        W75241  28.459   7.248   4.660
13711W        W75242  13.599  43.509  14.306
13712W        W75243  38.472  24.686  13.916
13713W        W75244  42.885  42.318  12.008
13714W        W75245  27.590   6.752   3.170
13715W        W75246  21.632   5.854   3.321
13716W        W75247  43.445  13.764  12.418
13717W        W75248  23.205  40.521  11.416
13718W        W75249  13.198  14.738  11.404
13719W        W75250  44.264  42.846  10.142
13720W        W75251   1.961  39.352  13.382
13721W        W75252  16.267  44.987   4.211
13722W        W75253  30.594   0.262  10.492
13723W        W75254  44.974  29.655   2.195
13724W        W75255  24.498  40.500   1.448
13725W        W75256  38.435  14.618   4.638
13726W        W75257  15.657  16.789  10.592
13727W        W75258   4.714   4.705  13.997
13728W        W75259  37.476  20.077   5.252
13729W        W75260  13.321  19.261   0.964
13730W        W75261  10.656  31.141  12.960
13731W        W75262  28.015  17.771  11.947
13732W        W75263  28.996  19.216  13.931
13733W        W75264   6.914  23.221   4.211
13734W        W75265  17.302   0.778  12.959
13735W        W75266  37.054  43.495  14.456
13736W        W75267  39.931  10.850  11.393
13737W        W75268  36.479  33.545  10.067
13738W        W75269  22.607  43.374   2.179
13739W        W75270  14.646  19.580  12.935
13740W        W75271  27.582  20.162   0.831
13741W        W75272  40.510  12.612   4.239
13742W        W75273  25.073  18.054  14.303
13743W        W75274  20.132   6.394   3.351
13744W        W75275  17.168  20.654   2.862
13745W        W75276  32.098  23.640  11.519
13746W        W75277  44.829   2.906   0.831
13747W        W75278   9.173  31.119  13.542
13748W        W75279  38.451   9.192  11.549
13749W        W75280  10.177  24.611   3.823
13750W        W75281  41.468  44.879  14.303
13751W        W75282   7.346  32.427   4.172
13752W        W75283  44.989  15.672  12.955
13753W        W75284  17.569  11.138   2.337
13754W        W75285  15.235   6.316  13.042
13755W        W75286  33.477  17.591  10.524
13756W        W75287  20.156  13.836   4.697
13757W        W75288  10.357  22.725   1.705
13758W        W75289  33.013  16.084  12.453
13759W        W75290  17.228  41.969   0.436
13760W        W75291  37.883  26.069  14.944
13761W        W75292  33.985  23.619   0.925
13762W        W75293  19.692   5.834  12.441
13763W        W75294   7.382  44.903   0.456
13764W        W75295   5.219  28.666  13.520
13765W        W75296  42.786  36.908  10.455
13766W        W75297  23.177  25.197  14.986
13767W        W75298  14.614  37.507  12.535
13768W        W75299  21.064  35.059  11.611
13769W        W75300  12.733  11.642   0.779
13770W        W75301  29.919  39.851   2.406
13771W        W75302  18.117   2.904   3.759
13772W        W75303  16.706   2.723   1.845
13773W        W75304  24.605   4.891   4.315
13774W        W75305  33.545  11.680   1.280
13775W        W75306   2.458  26.675  13.893
13776W        W75307  23.201   6.805   3.705
13777W        W75308   0.386  35.958   2.198
13778W        W75309  20.266   2.288   4.824
13779W        W75310   0.454   8.709  14.296
13780W        W75311   4.816  10.765   2.696
13781W        W75312  42.888  29.010  11.084
13782W        W75313   9.327   4.871   0.820
13783W        W75314  11.692  31.143  12.380
13784W        W75315  16.110  28.038  13.874
13785W        W75316  17.792  30.518   4.332
13786W        W75317  37.036  36.570  11.019
13787W        W75318  17.076   3.764   1.241
13788W        W75319   7.849  41.385  11.072
13789W        W75320  22.664  17.785   0.316
13790W        W75321   3.334   4.724   4.171
13791W        W75322  36.075  25.982  10.988
13792W        W75323  11.342  29.525   2.278
13793W        W75324  23.059   3.888  10.523
13794W        W75325  17.286   4.367   0.242
13795W        W75326  43.454  10.850  13.373
13796W        W75327  34.043  20.137  11.571
13797W        W75328  40.894  10.171  12.577
13798W        W75329  41.326   2.296   3.261
13799W        W75330  12.318  35.916  12.571
13800W        W75331   3.922  14.321   1.721
13801W        W75332  43.930  33.904  13.903
13802W        W75333  22.625  17.626  13.363
13803W        W75334  36.991  22.560   1.925
13804W        W75335  10.774  20.702  10.933
13805W        W75336  33.427  29.616   4.303
13806W        W75337  36.083  20.110   2.333
13807W        W75338   3.390   7.224  10.906
13808W        W75339  27.063  37.457  11.576
13809W        W75340   1.854   9.722  11.424
13810W        W75341  31.597  18.627   0.911
13811W        W75342  21.704  39.498   1.353
13812W        W75343  35.479  19.170  10.953
13813W        W75344  32.522  31.046   3.315
13814W        W75345  15.319  31.128   0.252
13815W        W75346  29.170  21.757  14.883
13816W        W75347  33.622  13.235  12.879
13817W        W75348  13.744   5.925  11.392
13818W        W75349  27.042  12.785   3.650
13819W        W75350  22.079  29.647   1.259
13820W        W75351  22.612  34.934   0.798
13821W        W75352  27.464  19.544   4.346
13822W        W75353  38.022   8.819  14.855
13823W        W75354  13.318  18.113   5.132
13824W        W75355  15.238   0.752  10.492
13825W        W75356   1.461  13.182   1.379
13826W        W75357  30.508  31.125  10.466
13827W        W75358  20.600  16.219  11.082
13828W        W75359   8.315  18.661  10.533
13829W        W75360  27.196   8.772   2.870
13830W        W75361  27.618  35.045   0.373
13831W        W75362  36.012  33.485  11.491
13832W        W75363  35.385  35.109   4.760
13833W        W75364  17.567  30.604   3.654
13834W        W75365   7.404   1.938   1.698
13835W        W75366  10.183   3.233   3.183
13836W        W75367   7.236  31.500   1.223
13837W        W75368  28.520  37.957   4.149
13838W        W75369   9.208  14.704   1.332
13839W        W75370  19.248  31.136  13.007
13840W        W75371   3.808  31.915  12.989
13841W        W75372   9.709  21.568  14.292
13842W        W75373  37.433  22.171  13.884
13843W        W75374   4.227  34.120   3.705
13844W        W75375  43.458  42.403  12.571
13845W        W75376  31.935  14.290  13.395
13846W        W75377  39.325   2.818  11.005
13847W        W75378  15.173  16.585   0.394
13848W        W75379  22.547  24.187  11.999
13849W        W75380  26.026  18.087   1.403
13850W        W75381  40.032  10.732   2.864
13851W        W75382   9.877   5.396   9.986
13852W        W75383  38.908  34.928  14.363
13853W        W75384  41.013   4.445  10.561
13854W        W75385   6.798   3.946  14.299
13855W        W75386  10.262  12.669   3.384
13856W        W75387  21.067   7.767  11.971
13857W        W75388  43.922  22.509   3.335
13858W        W75389  28.071  32.475  11.612
13859W        W75390  15.234  40.962   3.365
13860W        W75391   6.727  38.410   1.914
13861W        W75392  33.125  30.049   4.264
13862W        W75393  11.656  36.471  14.777
13863W        W75394  21.198   7.286  13.546
13864W        W75395  36.552  40.804   5.104
13865W        W75396  16.091  13.258   1.337
13866W        W75397  27.125  43.379  13.855
13867W        W75398  19.141  21.563  11.970
13868W        W75399   9.667  11.829   1.247
13869W        W75400   1.428   4.269   4.347
13870W        W75401   1.952  16.603  13.816
13871W        W75402  43.811   9.184  11.954
13872W        W75403  38.545  15.658   1.284
13873W        W75404  14.334   4.800  12.994
13874W        W75405  13.311  19.694  10.423
13875W        W75406  26.565  11.639   0.411
13876W        W75407  17.245   6.863  13.956
13877W        W75408  40.803   9.715  13.051
13878W        W75409  21.745  31.915  14.473
13879W        W75410  22.116   4.917   0.319
13880W        W75411  28.121  19.071  14.025
13881W        W75412   4.258  33.012   0.419
13882W        W75413  36.986  27.465  12.068
13883W        W75414   1.286  15.186   1.318
13884W        W75415   2.944  13.316   0.943
13885W        W75416   8.304   6.891   3.252
13886W        W75417  37.903  12.145  13.309
13887W        W75418  11.750  33.054   0.400
13888W        W75419  21.669  31.983   0.442
13889W        W75420  37.893   4.815   4.158
13890W        W75421  17.616  24.488   4.832
13891W        W75422  25.493  28.985   2.843
13892W        W75423   5.707  12.358  14.419
13893W        W75424  34.561   5.258  13.858
13894W        W75425  29.452  15.105  12.875
13895W        W75426  28.150  39.811  11.120
13896W        W75427  23.510   5.208   0.926
13897W        W75428  22.014  19.587  14.989
13898W        W75429  28.020  12.198   2.313
13899W        W75430   2.439  19.181   1.261
13900W        W75431  29.536  23.734  10.429
13901W        W75432  15.723   0.820   3.730
13902W        W75433   0.863  22.031  13.434
13903W        W75434  19.092  35.881   2.683
13904W        W75435  20.589  28.504  10.937
13905W        W75436  15.787  32.922   1.880
13906W        W75437   4.431  42.440  13.436
13907W        W75438   6.296  32.987   2.818
13908W        W75439   5.214  23.687   3.775
13909W        W75440   5.352  22.109  13.536
13910W        W75441  21.608  28.609  13.016
13911W        W75442  40.829  28.576   0.905
13912W        W75443   1.965  26.664   0.377
13913W        W75444   5.747  26.477  11.104
13914W        W75445   1.453  25.527  12.988
13915W        W75446  27.544  26.105   4.796
13916W        W75447  24.495  22.134  10.466
13917W        W75448  28.147   8.383   3.768
13918W        W75449  28.473  12.772  14.920
13919W        W75450  30.642  32.503  14.492
13920W        W75451  37.917   7.278  14.315
13921W        W75452  11.220  19.677   4.293
13922W        W75453  30.485  38.466  12.566
13923W        W75454   6.710   9.281  10.966
13924W        W75455  38.950  28.444  13.449
13925W        W75456  25.659  41.318  10.895
13926W        W75457   1.839  10.649   4.243
13927W        W75458   0.863  25.709   0.831
13928W        W75459  34.110  27.059  13.919
13929W        W75460  18.271  40.895  11.391
13930W        W75461  40.466  19.220   1.904
13931W        W75462  29.168   5.384   3.650
13932W        W75463  11.238  35.391  13.316
13933W        W75464  44.826   2.235   3.244
13934W        W75465  25.497   2.798  13.921
13935W        W75466  30.429  21.658   4.249
13936W        W75467  11.285   0.386  13.532
13937W        W75468  37.965  38.983  13.325
13938W        W75469   5.703  31.628  12.427
13939W        W75470  13.338  23.649   1.346
13940W        W75471  25.517  21.621   4.636
13941W        W75472  14.785  41.948  11.512
13942W        W75473  12.170   1.913   3.234
13943W        W75474   3.227  37.976  11.079
13944W        W75475  11.147   0.859   2.380
13945W        W75476   7.375  18.594   4.744
13946W        W75477  12.780  39.947   0.313
13947W        W75478  11.862  27.538  11.435
13948W        W75479  13.288  30.082  12.424
13949W        W75480  18.786   0.259  12.427
13950W        W75481   4.319   8.883  11.912
13951W        W75482  16.752  26.681  11.484
13952W        W75483  17.610  25.016   1.837
13953W        W75484  19.590  11.298  13.992
13954W        W75485  19.743  23.067  13.877
13955W        W75486  42.893  33.074   2.731
13956W        W75487   4.344  29.580  12.013
13957W        W75488  15.729   7.736  13.828
13958W        W75489  19.534  10.240  10.513
13959W        W75490  30.477  26.173   1.368
13960W        W75491  41.391   1.449  12.896
13961W        W75492  37.478   2.315   1.405
13962W        W75493   7.858  21.588  13.917
13963W        W75494   2.266  33.025  11.457
13964W        W75495  37.992  25.023   0.761
13965W        W75496  37.347  28.554   3.835
13966W        W75497  28.637  33.393   4.725
13967W        W75498   8.816  18.236   0.309
13968W        W75499  36.537  44.946  10.910
13969W        W75500  13.117  21.605   0.432
13970W        W75501   8.165  31.631   4.606
13971W        W75502  38.490  41.360  11.013
13972W        W75503  44.952  15.636   4.335
13973W        W75504  40.434  12.130   1.697
13974W        W75505   3.398  15.628  11.088
13975W        W75506  20.566  11.157   1.432
13976W        W75507  29.173  38.464  11.030
13977W        W75508   0.970  38.387   1.885
13978W        W75509  17.613  23.050  10.956
13979W        W75510  24.723  20.734   0.355
13980W        W75511  27.147   2.321  11.589
13981W        W75512  10.862  35.887   4.226
13982W        W75513   5.233   4.826   0.952
13983W        W75514   8.837  21.517   4.222
13984W        W75515  28.511   8.718   2.327
13985W        W75516  39.038   8.730   2.366
13986W        W75517  15.681  25.118  10.431
13987W        W75518  26.954  42.948  12.970
13988W        W75519   8.226  31.148  13.546
13989W        W75520  44.376  29.648   0.799
13990W        W75521  43.983  24.022  11.995
13991W        W75522  18.086   1.349   4.624
13992W        W75523   9.711  18.623  13.037
13993W        W75524  21.717  10.193   0.448
13994W        W75525  26.162  44.457   0.762
13995W        W75526  44.282  33.443   5.149
13996W        W75527   1.907  18.152   2.730
13997W        W75528  32.109   9.353  11.549
13998W        W75529  31.493  23.070  13.421
13999W        W75530  14.781  41.839   2.400
14000W        W75531  39.322  24.078  11.376
14001W        W75532   5.399  39.040   9.958
14002W        W75533  41.500  38.419   4.728
14003W        W75534   3.329  14.661  12.344
14004W        W75535   9.773  26.475  10.595
14005W        W75536  30.421   2.446   4.153
14006W        W75537  22.231  11.240  12.420
14007W        W75538  25.655   8.732   5.315
14008W        W75539   5.436  36.068   2.381
14009W        W75540  11.258  39.444  12.457
14010W        W75541  39.403  19.600  11.860
14011W        W75542  41.363  29.069   3.813
14012W        W75543  35.995  19.646   0.833
14013W        W75544  34.037  35.549  13.874
14014W        W75545   1.935  40.031   2.766
14015W        W75546  17.657  32.450  13.377
14016W        W75547  34.018  41.834  11.595
14017W        W75548   8.852   4.299  14.880
14018W        W75549  31.974  44.280  10.996
14019W        W75550  30.466  18.270   4.603
14020W        W75551  22.007  19.062   3.236
14021W        W75552   7.742  23.199   1.236
14022W        W75553  26.001   4.809  11.534
14023W        W75554  28.662  25.479  14.007
14024W        W75555   1.348   3.445   2.662
14025W        W75556  44.799  10.782   2.185
14026W        W75557  17.676  14.256  11.936
14027W        W75558  24.650  12.256   0.881
14028W        W75559  37.550  13.247  11.471
14029W        W75560   9.775   7.691   3.320
14030W        W75561  30.499  23.075  13.923
14031W        W75562  42.921   4.820  11.060
14032W        W75563  31.070  17.746  13.535
14033W        W75564   2.786  43.968  11.424
14034W        W75565  39.460   8.200   1.277
14035W        W75566   0.255  40.805  12.528
14036W        W75567  41.956  13.699   2.767
14037W        W75568  38.912   9.289   1.231
14038W        W75569  28.537   7.293  13.434
14039W        W75570   2.286  40.900   0.311
14040W        W75571  16.312  17.640  12.347
14041W        W75572   9.691   2.356   3.775
14042W        W75573   9.671   6.329   1.920
14043W        W75574  44.000  25.201   2.311
14044W        W75575  42.863  30.553   2.884
14045W        W75576  29.652   9.685   5.696
14046W        W75577  11.757  36.991   0.941
14047W        W75578  14.786  28.452  11.023
14048W        W75579  39.553   1.742  13.040
14049W        W75580   8.769  27.996  14.391
14050W        W75581   9.240   0.426   3.784
14051W        W75582  21.139   3.815  11.580
14052W        W75583  24.028  40.827  11.589
14053W        W75584  25.132  26.579  10.508
14054W        W75585  14.690  27.491   3.248
14055W        W75586  31.043  25.064   2.691
14056W        W75587  30.962  36.507   2.279
14057W        W75588  35.386  36.438  12.064
14058W        W75589  20.662   0.959   0.891
14059W        W75590  30.985  33.047   4.616
14060W        W75591  24.169   9.347  12.898
14061W        W75592  24.715  39.056  13.863
14062W        W75593  16.804  11.707  11.929
14063W        W75594   5.234   2.915   4.637
14064W        W75595  17.228  44.401  14.806
14065W        W75596  39.028   1.396   0.793
14066W        W75597  31.939  11.314   3.869
14067W        W75598  25.062  20.730   2.825
14068W        W75599  31.084  27.183   2.241
14069W        W75600  32.983   1.327  12.517
14070W        W75601   6.916  12.657   0.367
14071W        W75602  26.678  24.036   3.352
14072W        W75603  39.456  33.066   1.708
14073W        W75604  28.080  33.129   3.353
14074W        W75605  43.858  38.451  13.921
14075W        W75606  17.257  42.793  12.340
14076W        W75607   5.785  22.076  12.850
14077W        W75608  19.071  18.058   0.893
14078W        W75609  44.289   5.366   1.905
14079W        W75610  10.304  38.879   0.391
14080W        W75611  33.590  39.516  12.491
14081W        W75612  22.120  14.624   3.649
14082W        W75613  37.922   6.806  14.402
14083W        W75614  13.669  16.291  11.019
14084W        W75615  15.143   8.372  10.442
14085W        W75616  12.718  43.931  14.279
14086W        W75617  14.330  18.155   2.813
14087W        W75618   6.351  15.748  11.581
14088W        W75619  13.238  25.963  13.883
14089W        W75620  11.227  17.726  12.045
14090W        W75621  24.615  39.547  13.967
14091W        W75622  13.814  23.057   1.376
14092W        W75623  13.287  14.204  13.385
14093W        W75624  36.936   1.818  14.960
14094W        W75625  24.171  37.945   0.452
14095W        W75626   5.912  17.150  12.031
14096W        W75627   4.737  23.145   0.884
14097W        W75628  37.022   8.761  13.321
14098W        W75629   5.758  13.711  13.457
14099W        W75630   5.214  36.496   1.878
14100W        W75631  38.896  36.087  14.406
14101W        W75632  32.985  17.769   0.766
14102W        W75633  37.038   8.884   4.780
14103W        W75634  32.976   1.438  11.079
14104W        W75635  37.465  17.090   4.185
14105W        W75636  28.032  38.832   3.213
14106W        W75637  22.656   1.972  10.097
14107W        W75638  43.477  15.101  14.890
14108W        W75639  30.509  27.619  11.479
14109W        W75640  32.127  31.571   2.879
14110W        W75641  29.608  40.855  11.970
14111W        W75642  39.389   1.440   1.757
14112W        W75643  10.833  11.710  10.469
14113W        W75644   2.729   0.770  13.819
14114W        W75645  40.419  34.080   0.383
14115W        W75646   8.368  37.878  11.601
14116W        W75647   6.268  25.041   4.285
14117W        W75648  10.715  44.843   2.278
14118W        W75649  14.155  22.730  12.383
14119W        W75650   9.825  23.571   2.889
14120W        W75651   2.439   8.662  13.480
14121W        W75652   8.807  38.343  14.480
14122W        W75653  32.618  15.279  14.391
14123W        W75654  13.650  41.039   0.288
14124W        W75655  29.496  18.708   0.794
14125W        W75656  13.744  40.960   2.414
14126W        W75657  38.852  38.879  11.067
14127W        W75658  23.028  30.069  11.925
14128W        W75659  40.378  39.538   2.210
14129W        W75660   3.723  29.507   2.861
14130W        W75661  30.923  27.093  11.075
14131W        W75662  10.331  41.042   1.861
14132W        W75663   6.314  33.110   2.391
14133W        W75664  32.032  32.981   2.848
14134W        W75665  38.923   4.900  13.824
14135W        W75666   8.344  14.233   4.823
14136W        W75667  31.431  20.686   2.663
14137W        W75668  18.769  10.694  12.911
14138W        W75669  29.940  23.545  11.061
14139W        W75670   6.807  32.521   1.821
14140W        W75671  28.538  31.411  12.393
14141W        W75672   6.800  14.699  10.546
14142W        W75673   7.183   6.309   3.227
14143W        W75674  11.836  19.758   4.267
14144W        W75675  43.439  21.724   1.235
14145W        W75676   1.308  18.581   1.403
14146W        W75677  13.268  20.049   3.673
14147W        W75678  33.969   2.784  14.959
14148W        W75679  26.598  37.078  11.104
14149W        W75680   7.406  11.276  13.948
14150W        W75681  35.443  13.330   0.858
14151W        W75682  17.787  39.972   1.447
14152W        W75683  24.144  42.868  14.486
14153W        W75684  41.809  42.292   2.846
14154W        W75685   3.932  41.351   5.297
14155W        W75686  15.658  25.214   9.954
14156W        W75687  34.101   3.306  14.502
14157W        W75688  31.136  41.417  14.311
14158W        W75689   7.218  43.013   2.708
14159W        W75690  34.392   0.824  13.826
14160W        W75691   2.245  30.527  13.834
14161W        W75692  36.027  33.990  11.979
14162W        W75693  14.230  11.210  10.499
14163W        W75694  30.644  32.899  13.030
14164W        W75695  30.467  36.392   4.660
14165W        W75696  14.126  34.509  14.492
14166W        W75697  27.532  32.890   0.740
14167W        W75698  40.322   0.940  12.444
14168W        W75699  31.946  16.580  11.862
14169W        W75700  38.481   0.270  11.384
14170W        W75701  16.700  14.757   4.169
14171W        W75702   0.790  17.102  11.525
14172W        W75703  32.512  30.004  11.550
14173W        W75704   2.927  36.377  14.911
14174W        W75705  12.652  13.615   4.147
14175W        W75706  32.909   4.313   4.632
14176W        W75707  14.119  18.289  14.389
14177W        W75708  28.040  42.991   1.915
14178W        W75709   5.920  35.474  13.818
14179W        W75710  31.563  35.567  13.889
14180W        W75711  16.118  41.297  11.436
14181W        W75712  42.923  18.117   0.330
14182W        W75713  40.541   9.246   5.218
14183W        W75714  24.061  38.964   2.333
14184W        W75715  22.567  23.144   2.233
14185W        W75716  22.247  34.510  10.888
14186W        W75717  39.465  18.595   3.288
14187W        W75718  28.985  35.978   1.807
14188W        W75719  21.177  43.889   3.220
14189W        W75720  16.236  21.037  10.553
14190W        W75721  43.816  34.896   1.883
14191W        W75722  43.487  39.523  12.472
14192W        W75723   5.256  22.227  11.002
14193W        W75724  11.313  42.412   4.738
14194W        W75725  33.108  21.215  14.315
14195W        W75726  10.371   6.241   5.150
14196W        W75727   2.821  16.075  13.364
14197W        W75728  39.963  14.817  14.354
14198W        W75729   4.236  14.257   1.312
14199W        W75730   5.335   6.876   2.402
14200W        W75731   8.744   0.413   1.416
14201W        W75732  18.133  43.991  12.350
14202W        W75733   7.184  20.135  12.912
14203W        W75734  38.895  36.871  12.418
14204W        W75735  40.828  37.431   2.417
14205W        W75736  40.517  42.829  11.989
14206W        W75737  37.951   8.729  11.392
14207W        W75738  43.455   2.427   1.269
14208W        W75739  35.901  19.075   3.146
14209W        W75740  14.598   3.929  10.988
14210W        W75741   1.956   5.382  13.871
14211W        W75742  19.178  12.635  10.547
14212W        W75743  12.701   4.325   0.939
14213W        W75744   1.926   3.794  12.975
14214W        W75745  41.300  31.971   0.458
14215W        W75746  44.380  40.405  13.922
14216W        W75747   7.193   0.469   2.329
14217W        W75748   9.794  24.526   4.615
14218W        W75749   6.333  34.881   4.128
14219W        W75750   4.264  43.423   1.295
14220W        W75751  13.273  24.040  10.441
14221W        W75752  13.828  30.943   2.376
14222W        W75753  39.535  16.773   2.771
14223W        W75754  30.485  41.850   0.732
14224W        W75755  34.086  37.850  12.835
14225W        W75756  22.713  30.637  13.307
14226W        W75757   5.236  14.652  11.073
14227W        W75758  34.525  42.409  12.350
14228W        W75759  14.606  30.446  14.352
14229W        W75760  44.906  40.827   2.817
14230W        W75761  36.582   3.867   1.401
14231W        W75762  41.939  14.615  14.301
14232W        W75763   2.291  21.040  14.351
14233W        W75764   9.783  33.610   0.911
14234W        W75765  44.349   9.836  12.959
14235W        W75766   2.925  35.870  11.603
14236W        W75767   4.307   2.239   1.411
14237W        W75768  12.853   0.746  10.937
14238W        W75769   8.745  10.811  13.910
14239W        W75770   0.948  33.557   2.178
14240W        W75771  42.863  17.131  11.487
14241W        W75772  43.776  10.794   2.805
14242W        W75773  41.311  19.103  12.342
14243W        W75774  41.985  37.930   1.370
14244W        W75775  19.563   5.317   4.673
14245W        W75776  31.968  28.486   4.719
14246W        W75777  42.895  12.817  13.024
14247W        W75778   0.832  10.633  11.500
14248W        W75779  16.673   2.399  12.982
14249W        W75780  44.390  32.100  14.441
14250W        W75781  13.724   1.481  13.039
14251W        W75782  44.488  14.208  10.437
14252W        W75783  28.020  13.231   0.430
14253W        W75784  38.488  40.857  14.770
14254W        W75785  37.536  36.093   1.220
14255W        W75786   2.897  34.438  12.395
14256W        W75787   9.826  16.720  12.469
14257W        W75788  24.091  38.476   2.797
14258W        W75789   3.950  35.489  14.925
14259W        W75790  20.761   1.309  10.637
14260W        W75791  43.463  17.795   1.375
14261W        W75792  32.522  36.048   2.219
14262W        W75793  26.147   2.766   0.350
14263W        W75794  34.595   5.417   1.707
14264W        W75795  17.798  23.220   4.197
14265W        W75796   7.293  26.564   2.843
14266W        W75797  34.022  31.574   2.292
14267W        W75798  15.637  20.109  13.019
14268W        W75799  13.125  29.440  12.505
14269W        W75800   0.473  33.877  14.352
14270W        W75801  24.692  17.733  13.834
14271W        W75802  21.549   0.481  14.294
14272W        W75803  39.857  44.318   2.873
14273W        W75804   9.220  35.512   3.860
14274W        W75805  21.086  13.206   0.321
14275W        W75806  30.027   5.232   0.472
14276W        W75807  44.833  18.756   0.781
14277W        W75808  18.584  19.253   0.466
14278W        W75809  40.047  44.843   2.691
14279W        W75810  38.835  17.229   0.418
14280W        W75811   5.693   5.222  12.954
14281W        W75812  22.537  26.561   4.311
14282W        W75813  20.147  34.018   0.841
14283W        W75814  27.115   6.302   3.779
14284W        W75815  12.807  18.141  11.422
14285W        W75816   8.719  10.722   3.152
14286W        W75817  28.930  32.556  11.924
14287W        W75818  44.918  28.622   0.263
14288W        W75819  18.627  34.936  14.904
14289W        W75820   5.876  37.059  11.984
14290W        W75821  43.921   2.269   0.343
14291W        W75822  16.741  18.690   3.282
14292W        W75823  18.292  16.249   1.274
14293W        W75824  17.076  38.943   2.721
14294W        W75825  43.420  39.857   3.744
14295W        W75826   9.761  38.383  11.604
14296W        W75827  21.591  14.769  13.873
14297W        W75828  40.370  42.438  12.915
14298W        W75829   9.835  37.378  14.441
14299W        W75830  30.471  39.909  14.426
14300W        W75831   1.322   2.413  14.277
14301W        W75832  28.569  17.646  12.516
14302W        W75833  44.977  20.246  12.424
14303W        W75834   0.374  10.329   0.270
14304W        W75835  41.451   9.816   4.321
14305W        W75836  44.959   9.268  14.932
14306W        W75837  25.541  34.064   3.759
14307W        W75838   3.867  28.669   9.460
14308W        W75839   8.848  31.516   1.342
14309W        W75840  40.545   8.733  12.404
14310W        W75841  24.032   6.403  13.488
14311W        W75842  41.839  25.648  12.945
14312W        W75843  34.438  17.063  12.395
14313W        W75844  37.496  10.646   2.378
14314W        W75845  38.856  13.813   4.251
14315W        W75846  33.560  32.047  12.407
14316W        W75847  25.045  34.394  11.126
14317W        W75848  12.813  33.911   0.411
14318W        W75849  35.903  17.307  12.947
14319W        W75850  26.158  14.153   4.764
14320W        W75851  17.704  21.705   4.214
14321W        W75852  32.079  10.195   3.325
14322W        W75853   6.223  38.364   1.439
14323W        W75854  24.180  14.805   0.833
14324W        W75855  29.090  40.433  10.890
14325W        W75856  41.939  25.163   4.745
14326W        W75857   8.678   4.304   1.783
14327W        W75858   7.351  16.714   4.832
14328W        W75859  20.220  19.697  11.892
14329W        W75860   4.242  27.102  14.835
14330W        W75861   7.332  21.182   4.728
14331W        W75862  13.719  43.828   2.878
14332W        W75863  11.644  38.429   0.342
14333W        W75864  39.551  19.564  11.500
14334W        W75865  32.994   2.901  12.044
14335W        W75866  43.894  36.085   4.762
14336W        W75867  44.932  11.343   2.839
14337W        W75868  30.974  36.009  11.544
14338W        W75869  42.292  30.468   2.281
14339W        W75870  16.700  36.847   0.439
14340W        W75871  18.109   6.399   3.869
14341W        W75872  39.358  23.591  14.345
14342W        W75873  24.207   4.859   3.851
14343W        W75874  15.731  10.370   0.879
14344W        W75875   8.865  36.476   3.360
14345W        W75876  28.483  32.062   1.737
14346W        W75877   6.682  29.610  12.577
14347W        W75878   1.803  21.534   5.311
14348W        W75879  22.049  35.384  10.509
14349W        W75880   5.817  31.448   2.202
14350W        W75881  14.604  37.522   3.677
14351W        W75882  11.219  23.197   3.765
14352W        W75883  40.868   9.740  13.402
14353W        W75884   0.748   5.830  13.927
14354W        W75885  32.124  32.913  14.872
14355W        W75886  15.662  41.795  13.048
14356W        W75887   4.277  40.846   2.185
14357W        W75888  20.096  43.825   2.182
14358W        W75889   7.324  38.389  13.399
14359W        W75890  28.034  32.502  12.835
14360W        W75891   6.861  23.117  11.028
14361W        W75892  33.956  10.818  10.907
14362W        W75893  22.091  13.804  14.835
14363W        W75894  43.493  14.181   0.850
14364W        W75895  37.364  26.565  11.006
14365W        W75896  23.657   8.815  11.420
14366W        W75897  42.850  30.629   3.724
14367W        W75898  38.401   8.234  12.418
14368W        W75899  12.199  32.886   2.819
14369W        W75900   9.210  41.794  13.324
14370W        W75901  37.373   0.404   3.733
14371W        W75902  29.027  13.267  10.992
14372W        W75903  38.545  29.153  12.926
14373W        W75904  38.399  23.505  12.526
14374W        W75905  14.749   2.464   3.813
14375W        W75906  32.905   0.296  10.451
14376W        W75907  24.164  31.900   2.741
14377W        W75908  36.017  25.973  10.527
14378W        W75909  29.588   2.932   0.317
14379W        W75910  22.684  38.072   3.698
14380W        W75911   6.260  37.516   4.166
14381W        W75912  41.453   4.343   2.763
14382W        W75913  26.583  35.395  13.483
14383W        W75914   9.786   4.241   0.384
14384W        W75915  38.405  14.306   1.313
14385W        W75916  40.027  13.815   0.953
14386W        W75917  20.228   6.808  11.537
14387W        W75918  19.656  36.855  11.471
14388W        W75919   5.864   7.874   2.881
14389W        W75920  23.183   1.347  10.919
14390W        W75921  23.218  20.536  10.889
14391W        W75922   8.792  18.684  14.030
14392W        W75923   3.454  13.671   0.375
14393W        W75924  44.781  22.637   0.407
14394W        W75925  21.030  32.974   3.795
14395W        W75926  20.140  18.679  14.876
14396W        W75927  25.010  22.582   0.300
14397W        W75928  37.064  41.876  12.456
14398W        W75929  21.125  35.534  14.277
14399W        W75930  15.698  36.573   1.893
14400W        W75931  44.814  41.987   2.694
14401W        W75932   9.270  25.987  14.505
14402W        W75933   7.266  28.623   1.895
14403W        W75934  37.386  11.621   3.749
14404W        W75935  33.600  15.323   1.912
14405W        W75936  44.273  18.654  14.778
14406W        W75937  19.583   1.329   1.872
14407W        W75938  32.463  18.600  12.506
14408W        W75939  22.647  22.599   4.144
14409W        W75940  19.704  17.221  12.570
14410W        W75941  43.798  20.159  11.607
14411W        W75942   3.850  28.470  14.782
14412W        W75943  20.693  42.982  12.577
14413W        W75944   9.196  19.746   1.721
14414W        W75945  39.556   0.396  12.825
14415W        W75946  13.754  44.411  14.031
14416W        W75947  32.949  16.715   2.232
14417W        W75948  21.140   6.404  14.027
14418W        W75949  12.182  26.700  10.937
14419W        W75950  36.023  22.509  11.447
14420W        W75951   1.842   2.895   1.859
14421W        W75952  26.539   4.300  11.945
14422W        W75953  22.166  25.205  13.809
14423W        W75954  39.554  10.310  12.840
14424W        W75955  23.186   1.238   4.723
14425W        W75956   6.822  10.785   4.201
14426W        W75957  17.209  15.751  13.935
14427W        W75958  25.682  34.974  14.937
14428W        W75959  36.995  13.304  10.624
14429W        W75960  33.100  39.024   1.256
14430W        W75961  21.238  19.285   3.384
14431W        W75962  32.142  33.517   1.724
14432W        W75963  17.784  38.533  13.956
14433W        W75964  42.338  43.013   4.618
14434W        W75965   4.377   3.784  10.434
14435W        W75966  12.714  39.955   4.683
14436W        W75967  25.700  11.225  12.942
14437W        W75968  21.225  23.559   4.208
14438W        W75969  30.567  42.870   2.305
14439W        W75970  10.355  14.227  11.118
14440W        W75971  32.953  41.468   1.803
14441W        W75972  30.511   8.724  11.555
14442W        W75973  38.566  24.186  10.942
14443W        W75974   5.384  37.961  10.499
14444W        W75975  18.064  14.655   3.862
14445W        W75976  35.935  27.467  12.963
14446W        W75977  15.307  24.142   1.267
14447W        W75978   4.731   3.778  14.463
14448W        W75979   2.255  35.502   0.754
14449W        W75980  37.545   0.261  13.928
14450W        W75981   3.255  17.793  13.379
14451W        W75982  24.042  16.764  14.338
14452W        W75983  38.999  11.810  10.929
14453W        W75984  24.093   5.285  14.019
14454W        W75985  44.505   9.774   3.239
14455W        W75986   3.865   7.898  14.855
14456W        W75987  38.933   6.732   0.805
14457W        W75988  27.999   5.840   1.213
14458W        W75989  35.043  24.572  12.088
14459W        W75990  27.134  42.467  12.502
14460W        W75991  10.781  33.565  13.838
14461W        W75992   2.469  23.006   2.887
14462W        W75993  31.083   9.306   0.750
14463W        W75994  42.838   1.364  13.850
14464W        W75995  20.231  22.635   0.474
14465W        W75996  23.240  13.347  10.404
14466W        W75997  44.932  19.064  13.996
14467W        W75998  34.005  41.936   1.256
14468W        W75999  36.054  39.866   5.568
14469W        W76000  38.838   7.756   4.773
14470W        W76001  28.973  35.048   3.763
14471W        W76002   9.239  32.446   0.930
14472W        W76003  15.304  20.569   1.822
14473W        W76004  13.677  23.225  11.387
14474W        W76005  37.366   2.453   3.844
14475W        W76006   4.407  19.082   4.247
14476W        W76007  23.164   2.370  12.343
14477W        W76008  26.068  20.244  10.474
14478W        W76009  42.883  25.133   1.931
14479W        W76010  16.182  25.025  14.420
14480W        W76011  11.857  44.990   2.665
14481W        W76012   7.309  20.765  14.333
14482W        W76013  26.170  23.581   3.372
14483W        W76014  31.424  11.667   0.849
14484W        W76015   0.398  42.901  13.928
14485W        W76016   6.915  22.648   0.829
14486W        W76017  25.048  13.125   4.803
14487W        W76018   8.216  11.170   3.295
14488W        W76019  43.842  15.084  14.417
14489W        W76020  44.442  36.841   3.285
14490W        W76021   5.921   1.456  13.457
14491W        W76022  34.054   2.399   0.767
14492W        W76023  32.472   1.465   4.299
14493W        W76024  15.250  38.381  12.509
14494W        W76025  27.601  12.258  13.807
14495W        W76026  27.126  10.750  10.604
14496W        W76027  19.705  38.979   2.375
14497W        W76028  12.690  20.765   0.873
14498W        W76029   1.415  22.583   2.268
14499W        W76030  20.128  33.906   2.202
14500W        W76031   5.834   7.896   0.737
14501W        W76032  26.636  26.476   3.243
14502W        W76033  34.001  12.779   1.423
14503W        W76034   5.194  29.127  11.504
14504W        W76035   8.294  11.132  11.429
14505W        W76036  32.051  39.512  13.514
14506W        W76037  17.642  22.695  12.864
14507W        W76038   5.886   9.857   0.457
14508W        W76039   3.950  22.145   3.177
14509W        W76040  35.103   0.917   0.938
14510W        W76041  42.435  24.208  12.014
14511W        W76042   0.949  14.597   0.292
14512W        W76043  20.765  24.032   0.957
14513W        W76044  42.326   8.677  10.928
14514W        W76045  13.702  26.683   3.271
14515W        W76046  31.900  44.272   5.238
14516W        W76047  34.515  44.981  14.844
14517W        W76048  14.708  19.197  12.421
14518W        W76049  38.031  38.562   4.809
14519W        W76050  31.095  37.468   4.150
14520W        W76051  13.281  33.409   2.878
14521W        W76052  44.987   0.879  11.565
14522W        W76053  24.529  32.071   9.636
14523W        W76054  31.102  20.035  13.394
14524W        W76055  40.937  37.534  14.913
14525W        W76056  39.064  44.799   1.251
14526W        W76057  11.183   1.284   0.262
14527W        W76058  42.014  15.297   0.797
14528W        W76059  36.435  16.633   1.830
14529W        W76060  36.906   0.261   3.314
14530W        W76061  35.979  12.708   4.784
14531W        W76062   8.774  29.507   1.322
14532W        W76063  23.206  24.016   3.198
14533W        W76064  39.910  26.080   0.783
14534W        W76065  36.883  33.587   3.860
14535W        W76066  34.547   4.804   1.875
14536W        W76067  10.873  13.232   3.832
14537W        W76068  35.027  12.800  10.889
14538W        W76069  21.230  30.030   2.697
14539W        W76070  25.994  20.247   1.317
14540W        W76071   7.173  37.461  13.811
14541W        W76072  12.750  21.729  12.934
14542W        W76073  21.167  24.195  13.983
14543W        W76074  32.019  40.858   3.835
14544W        W76075  31.496   3.407  12.860
14545W        W76076  41.503  17.664   0.832
14546W        W76077   5.250  11.261  13.015
14547W        W76078  23.236  20.668   3.289
14548W        W76079  15.697  12.726   1.398
14549W        W76080  41.814   3.225  12.469
14550W        W76081  15.738  44.388   3.383
14551W        W76082  22.734  16.289  14.787
14552W        W76083  34.570  38.003  14.835
14553W        W76084   8.376  19.146  10.440
14554W        W76085  24.195  24.186  12.955
14555W        W76086  13.685  31.966   0.866
14556W        W76087  23.501  12.214   1.762
14557W        W76088  41.794  43.820  10.910
14558W        W76089  40.434  43.990  11.888
14559W        W76090  34.868  13.824   0.409
14560W        W76091  16.194   9.324  14.328
14561W        W76092  18.183  28.042   4.256
14562W        W76093  35.045   7.190  13.969
14563W        W76094  30.456   0.485   1.306
14564W        W76095  10.329  26.128  12.360
14565W        W76096  14.106  26.023   4.314
14566W        W76097  42.466  23.691   0.937
14567W        W76098  36.972  26.049  10.409
14568W        W76099   0.809  22.636   1.919
14569W        W76100   8.402  19.726  13.999
14570W        W76101  25.146  28.532   4.697
14571W        W76102  14.777  29.008  13.993
14572W        W76103  37.555   5.739   1.766
14573W        W76104  20.523  16.687   1.904
14574W        W76105  17.194   1.238  13.922
14575W        W76106   9.651   6.349   2.216
14576W        W76107   8.729  23.726  13.500
14577W        W76108  11.751  20.127   4.727
14578W        W76109  26.646  23.075   2.687
14579W        W76110  20.543  17.691  14.782
14580W        W76111  30.540   1.822  12.027
14581W        W76112  31.629  23.119  12.859
14582W        W76113  42.846  20.053   1.359
14583W        W76114  24.026  14.735   3.378
14584W        W76115  27.105  17.112  12.884
14585W        W76116   8.357  11.855  12.863
14586W        W76117  27.003  15.649  13.403
14587W        W76118  32.630  20.132  14.828
14588W        W76119  42.426   5.368  10.589
14589W        W76120  34.045  10.260  14.395
14590W        W76121   0.299  22.154   1.321
14591W        W76122  35.468  17.213   4.259
14592W        W76123   0.833  34.436  10.118
14593W        W76124  41.902  43.961  14.844
14594W        W76125  34.969  18.567  14.321
14595W        W76126  17.796  34.538  10.986
14596W        W76127   4.743  26.952  13.952
14597W        W76128  26.627  17.565  13.978
14598W        W76129   2.787  34.597  10.966
14599W        W76130   2.338  40.487   0.403
14600W        W76131  33.596  32.592  12.094
14601W        W76132  25.612  26.501  10.485
14602W        W76133  23.700   9.329  14.504
14603W        W76134  20.191  16.579   4.800
14604W        W76135  44.409  40.973   1.222
14605W        W76136  28.051  36.962  14.801
14606W        W76137  21.604  41.897   2.299
14607W        W76138  11.695  41.468   0.246
14608W        W76139  14.331   1.866  14.873
14609W        W76140  16.619  22.039  10.448
14610W        W76141  23.673  16.226   0.769
14611W        W76142  10.829  40.416  13.819
14612W        W76143   9.150   6.322   3.731
14613W        W76144  11.356   0.273  13.826
14614W        W76145  43.419  10.636   2.839
14615W        W76146   6.397  21.679  11.608
14616W        W76147  22.235  40.332  14.961
14617W        W76148  29.577  17.136   3.633
14618W        W76149  34.420  22.662   3.737
14619W        W76150  39.989  44.831  10.995
14620W        W76151   1.380  32.039  13.525
14621W        W76152  40.009  22.075   0.958
14622W        W76153   3.873  21.677  10.477
14623W        W76154   4.280  32.979   4.600
14624W        W76155  21.088  18.142   3.817
14625W        W76156  12.676  30.021  12.432
14626W        W76157   6.848  20.259   0.473
14627W        W76158  30.530  22.163   1.382
14628W        W76159  10.195   3.812   3.262
14629W        W76160  43.806  22.593  12.019
14630W        W76161  16.605  43.935   2.859
14631W        W76162  16.626  29.589  13.960
14632W        W76163  42.468   2.756  13.822
14633W        W76164  27.134   7.907  12.545
14634W        W76165  44.409  41.800   2.216
14635W        W76166  13.298   3.801   3.822
14636W        W76167  17.587  23.663   4.742
14637W        W76168  38.937  25.714   3.693
14638W        W76169  18.185   2.820  12.973
14639W        W76170  18.119  16.278   3.734
14640W        W76171  41.880  25.209   0.833
14641W        W76172  37.029  40.053   1.732
14642W        W76173  21.713   5.746   4.696
14643W        W76174  25.675   3.342  11.428
14644W        W76175  23.704  22.625   0.813
14645W        W76176  41.927  28.642   3.344
14646W        W76177  36.039  32.017   3.158
14647W        W76178  15.205  41.494   4.284
14648W        W76179  10.878  29.454   1.275
14649W        W76180  29.481  39.877  14.420
14650W        W76181  13.809  41.851  13.542
14651W        W76182   7.750  24.065   3.664
14652W        W76183   6.728   8.872   3.360
14653W        W76184  39.848  12.785  11.128
14654W        W76185  27.114  40.320   1.430
14655W        W76186  16.153   4.450  13.934
14656W        W76187  10.175  41.898   1.785
14657W        W76188  34.088   3.805  14.926
14658W        W76189  11.323  34.457   2.368
14659W        W76190  33.624   6.808  10.548
14660W        W76191   8.851  23.089   0.375
14661W        W76192   0.910  17.216  10.641
14662W        W76193  29.164   6.251   0.813
14663W        W76194  36.407  18.599  14.820
14664W        W76195   3.880  37.994   0.422
14665W        W76196  25.602  12.631  13.348
14666W        W76197  19.049  13.789  10.887
14667W        W76198  38.398  36.384  14.825
14668W        W76199  30.508  42.293   3.656
14669W        W76200  17.622  29.437   0.304
14670W        W76201   4.401  44.911  14.307
14671W        W76202  16.611  24.032   3.233
14672W        W76203  17.557  35.101  13.060
14673W        W76204  16.296  30.153   1.787
14674W        W76205  18.773  29.498   4.226
14675W        W76206  32.443  42.780   4.250
14676W        W76207   5.425  20.128   0.245
14677W        W76208  24.660  17.143   2.369
14678W        W76209   1.915  23.695  10.496
14679W        W76210  31.092  41.536   4.336
14680W        W76211  24.653  21.740  11.559
14681W        W76212  30.024  42.918   3.779
14682W        W76213  16.570  44.380   2.316
14683W        W76214   9.888   7.760   3.775
14684W        W76215  15.822  26.497  12.378
14685W        W76216  10.237   9.664  12.907
14686W        W76217  19.724  24.096   9.551
14687W        W76218  39.035  10.306   3.296
14688W        W76219   5.258  22.598   0.339
14689W        W76220   1.845  42.283   1.713
14690W        W76221  35.502  43.296   1.851
14691W        W76222  37.839  22.523   1.264
14692W        W76223  36.018  34.405  10.591
14693W        W76224   4.385   9.194   2.246
14694W        W76225   8.307  37.485   1.794
14695W        W76226  31.030  34.540   4.600
14696W        W76227  35.036  18.677  11.985
14697W        W76228  44.424  40.024  14.336
14698W        W76229   3.429   1.748  10.415
14699W        W76230  13.763  19.625  12.896
14700W        W76231   4.349  19.215  10.406
14701W        W76232  34.055   4.319  12.882
14702W        W76233  19.191  39.480   4.146
14703W        W76234   1.250  20.038  13.908
14704W        W76235  34.603  35.358  11.454
14705W        W76236  28.148  27.040   3.246
14706W        W76237  13.617  18.680   0.919
14707W        W76238  14.681  27.007  12.483
14708W        W76239  39.556  17.226  14.920
14709W        W76240  19.246  37.871  11.932
14710W        W76241  23.525  31.416  12.993
14711W        W76242  23.490   3.381   2.179
14712W        W76243  34.014  33.943   0.868
14713W        W76244  24.188  36.958  10.467
14714W        W76245   6.393  37.836  10.445
14715W        W76246  32.027  37.071   4.329
14716W        W76247  25.710  21.167  11.586
14717W        W76248  19.105  36.549  14.014
14718W        W76249  40.876   6.422  10.552
14719W        W76250  36.997   0.840   4.203
14720W        W76251   4.712  23.584   4.154
14721W        W76252   6.382  26.461  11.006
14722W        W76253  36.863  11.754   2.255
14723W        W76254   5.272  42.886   3.322
14724W        W76255  34.383  17.105   0.750
14725W        W76256  33.962   5.705   1.700
14726W        W76257  28.184  39.906  14.028
14727W        W76258   1.840  16.114  14.393
14728W        W76259  21.710  17.078  14.942
14729W        W76260  17.638  23.703   0.904
14730W        W76261   8.336   7.289   0.924
14731W        W76262   0.298   6.754  14.835
14732W        W76263  24.154  12.805  10.412
14733W        W76264   5.301  18.604  12.834
14734W        W76265  16.124  18.128  11.119
14735W        W76266  30.422  31.089   3.324
14736W        W76267  19.283  18.671   2.228
14737W        W76268  19.657  40.406  11.458
14738W        W76269  42.409  19.746  10.494
14739W        W76270  40.412  40.858   3.345
14740W        W76271  33.486  15.675   3.830
14741W        W76272  26.469  22.024  10.542
14742W        W76273  27.156  26.018   1.439
14743W        W76274  41.922  40.400   3.701
14744W        W76275  10.221  31.460   4.353
14745W        W76276  27.628  21.153  14.010
14746W        W76277  38.378  15.748   4.139
14747W        W76278  12.283   9.185  13.520
14748W        W76279  39.987  37.426   4.686
14749W        W76280   8.882  12.177   3.250
14750W        W76281  34.866  15.306  12.546
14751W        W76282  15.149  41.457   3.824
14752W        W76283  35.958  39.846  10.920
14753W        W76284  13.135  11.787   3.650
14754W        W76285  26.205  35.900  14.809
14755W        W76286  13.231  22.021   0.891
14756W        W76287  39.316   0.251   4.791
14757W        W76288  31.623  12.278   2.869
14758W        W76289  41.456  38.549   3.376
14759W        W76290  34.503  33.472  10.487
14760W        W76291   5.436  26.700  12.514
14761W        W76292  14.659  29.594  14.789
14762W        W76293  20.034  16.141   3.322
14763W        W76294  21.630  33.979  13.485
14764W        W76295  37.916  10.208  14.345
14765W        W76296   1.807  40.458  10.597
14766W        W76297  14.616   4.779  12.841
14767W        W76298   9.266   8.229   1.746
14768W        W76299  20.613   6.228  10.442
14769W        W76300   5.777  35.382   3.721
14770W        W76301  35.398  12.255  12.982
14771W        W76302  36.953   4.817  11.987
14772W        W76303  35.913  14.828   2.807
14773W        W76304  39.446  43.430  12.417
14774W        W76305  28.653  11.842   0.448
14775W        W76306  40.911   8.850   0.386
14776W        W76307  22.571  20.176   2.826
14777W        W76308  29.569   9.873  14.483
14778W        W76309  27.104  41.385  13.821
14779W        W76310   9.834  18.144  11.086
14780W        W76311  12.611   0.398   2.817
14781W        W76312  21.243  25.164  14.832
14782W        W76313  32.600  36.847   2.404
14783W        W76314  25.111  20.586   4.269
14784W        W76315  19.639   0.332   2.714
14785W        W76316  23.619  18.587   4.827
14786W        W76317  39.885  32.620   4.649
14787W        W76318  27.520   1.301   3.637
14788W        W76319  26.700  25.676   2.399
14789W        W76320   5.295  39.984   1.824
14790W        W76321  36.350  20.567  10.615
14791W        W76322  30.103  34.035   4.128
14792W        W76323  43.491  43.888  13.370
14793W        W76324  35.910   1.864   0.952
14794W        W76325  40.303  17.710  12.916
14795W        W76326   4.448  20.561   2.871
14796W        W76327   5.418   3.859   1.294
14797W        W76328  25.066  31.422   4.285
14798W        W76329  32.014  36.026  10.155
14799W        W76330   7.255  20.080   2.844
14800W        W76331  32.433   3.921   1.894
14801W        W76332  19.583  39.877   1.751
14802W        W76333  36.557   0.895  14.358
14803W        W76334   1.277  10.291   2.785
14804W        W76335   2.339   0.927  12.988
14805W        W76336  22.704  15.658   3.735
14806W        W76337  21.113   1.948   1.797
14807W        W76338  20.110   8.737  12.431
14808W        W76339  37.974   7.234   2.373
14809W        W76340  32.522  34.974  10.436
14810W        W76341   2.903  10.203   4.177
14811W        W76342  37.356  18.198  14.329
14812W        W76343  43.953  15.120   3.839
14813W        W76344  43.298  18.546   3.706
14814W        W76345  19.098  37.946  13.809
14815W        W76346  40.963  42.468   3.212
14816W        W76347  17.747   7.806  14.883
14817W        W76348  19.692   3.344  12.079
14818W        W76349  32.024   3.344  13.063
14819W        W76350   6.686  34.515  11.037
14820W        W76351   2.885  17.102  14.379
14821W        W76352  15.273  22.246  14.320
14822W        W76353  42.918   1.806  13.339
14823W        W76354  10.692  27.562  12.539
14824W        W76355   4.247  31.608   4.702
14825W        W76356  41.012  30.913  14.355
14826W        W76357  39.317  30.956  14.438
14827W        W76358  36.457  14.617   3.150
14828W        W76359  41.800   2.289   4.676
14829W        W76360  23.586   2.344  14.822
14830W        W76361  43.387  10.800   2.186
14831W        W76362  20.245  28.172  14.940
14832W        W76363  35.561  20.081  14.346
14833W        W76364  22.055  10.218  11.979
14834W        W76365  10.151  34.953   0.890
14835W        W76366  31.545  28.509   2.668
14836W        W76367  32.604  11.848   1.778
14837W        W76368  33.091  23.215   1.915
14838W        W76369  19.229  23.700  12.933
14839W        W76370  21.660  42.795   3.813
14840W        W76371  35.568  34.487  11.507
14841W        W76372  36.939  21.517   4.251
14842W        W76373  18.695  38.979  13.921
14843W        W76374   7.403  23.561  13.419
14844W        W76375  14.616  35.360   0.847
14845W        W76376  27.051   5.709   1.367
14846W        W76377  34.969  16.254  13.064
14847W        W76378  11.864  18.648   0.434
14848W        W76379   1.968  35.096   4.315
14849W        W76380   0.336  11.768   4.838
14850W        W76381   0.290  32.114  13.858
14851W        W76382  24.209  25.644   3.157
14852W        W76383   8.808  19.064  14.818
14853W        W76384  44.380  23.203  12.065
14854W        W76385   3.432  21.663  11.385
14855W        W76386  38.522  13.740  13.970
14856W        W76387  18.783  24.658   1.863
14857W        W76388  28.470  32.486   3.854
14858W        W76389  42.900   8.374   3.325
14859W        W76390  19.550  24.108   1.415
14860W        W76391  38.523  19.216  13.342
14861W        W76392  18.614  27.574   3.167
14862W        W76393   6.226   0.284   0.904
14863W        W76394  20.072   8.331  10.507
14864W        W76395  43.823   2.916   2.688
14865W        W76396  21.686  30.037   5.295
14866W        W76397   0.491  24.189  14.968
14867W        W76398  43.884   7.192   2.385
14868W        W76399   9.236  35.047  11.126
14869W        W76400  22.144  37.357   0.916
14870W        W76401  18.729  22.136  14.983
14871W        W76402  20.195  40.041   3.172
14872W        W76403  36.872  44.447  10.452
14873W        W76404  11.674   3.450   2.415
14874W        W76405  34.881   8.324   3.228
14875W        W76406  21.744   9.227  11.475
14876W        W76407   3.739  41.794  11.404
14877W        W76408  11.713   4.429   4.197
14878W        W76409   6.240   5.849   4.712
14879W        W76410  29.587  44.834  12.060
14880W        W76411  21.039  11.834   3.344
14881W        W76412  28.001   4.444   2.762
14882W        W76413  29.111  20.128  14.856
14883W        W76414  33.421  10.146  14.312
14884W        W76415  40.459  32.488   1.291
14885W        W76416  10.662  22.135   2.805
14886W        W76417  38.923  25.605  11.443
14887W        W76418  25.493   4.215   0.746
14888W        W76419   9.865  28.016  12.388
14889W        W76420   3.306  33.590  14.506
14890W        W76421  42.881  30.917   4.600
14891W        W76422  34.436  37.422  12.985
14892W        W76423  35.394   3.299  11.119
14893W        W76424  35.414  17.280   3.293
14894W        W76425  11.650  43.861   1.445
14895W        W76426  11.803  42.848  11.558
14896W        W76427  21.721  29.022  13.442
14897W        W76428  10.695   2.852  13.996
14898W        W76429   8.333   6.785  11.494
14899W        W76430   8.205  24.193  10.443
14900W        W76431  12.624  20.114   2.317
14901W        W76432  24.191  19.542  10.612
14902W        W76433  10.816   2.830  11.946
14903W        W76434  24.131   3.733   3.328
14904W        W76435  42.416  28.543  11.032
14905W        W76436  43.866   7.761   2.767
14906W        W76437  25.708  11.284   2.221
14907W        W76438   5.765  24.570   3.151
14908W        W76439  29.953  10.744  12.374
14909W        W76440  10.655  34.112  13.034
14910W        W76441   6.914   9.303  14.995
14911W        W76442  44.372   1.736  12.453
14912W        W76443  25.527   9.347  12.994
14913W        W76444  28.519  27.011  12.482
14914W        W76445  43.443   1.419  11.532
14915W        W76446  12.299  18.190  12.502
14916W        W76447  40.489  12.857  12.996
14917W        W76448  30.487  13.728   3.165
14918W        W76449   2.399  29.538  12.963
14919W        W76450   8.730  29.170   1.694
14920W        W76451  42.953  34.527   4.820
14921W        W76452  26.024  24.204  13.515
14922W        W76453   6.896   0.288  10.914
14923W        W76454  18.285  28.604   2.272
14924W        W76455  38.018  21.515  11.019
14925W        W76456  13.251  11.354  11.116
14926W        W76457   8.892   0.432  13.826
14927W        W76458   1.332  38.507  13.933
14928W        W76459  22.552  28.446  14.394
14929W        W76460  42.974   0.797   0.361
14930W        W76461   4.322   9.296   4.671
14931W        W76462  24.045  27.962  14.356
14932W        W76463  24.087   9.664   4.144
14933W        W76464  33.009  17.272  11.604
14934W        W76465  31.955  43.012  14.962
14935W        W76466  37.426  38.950   1.314
14936W        W76467  31.641  32.540   1.407
14937W        W76468  21.663  30.065   1.897
14938W        W76469   6.417  37.463   0.466
14939W        W76470  32.401   9.742  14.463
14940W        W76471  23.086  26.016   1.857
14941W        W76472  28.973  17.108   2.854
14942W        W76473   4.920   7.815  13.529
14943W        W76474  19.144   2.465  13.029
14944W        W76475   8.177   3.822  13.907
14945W        W76476  33.400  13.198  13.822
14946W        W76477  25.653  10.843  12.890
14947W        W76478  28.486   7.665   5.621
14948W        W76479  20.650  37.901  14.315
14949W        W76480  27.663  21.243  10.898
14950W        W76481  26.557  39.405   3.263
14951W        W76482  40.858  41.921  11.382
14952W        W76483  15.232  14.649  12.916
14953W        W76484  32.131   3.895   2.791
14954W        W76485  28.621  22.045   1.213
14955W        W76486  33.419  41.382  13.058
14956W        W76487  37.002  21.690  14.991
14957W        W76488  30.037  44.881   0.309
14958W        W76489  10.375  34.036  14.342
14959W        W76490  31.632  39.357   0.889
14960W        W76491  25.141  28.960  12.527
14961W        W76492  30.572  14.307  12.055
14962W        W76493  26.484  30.627  13.426
14963W        W76494  37.059  34.503  12.007
14964W        W76495  36.073  21.036  12.082
14965W        W76496  29.638  10.141   3.295
14966W        W76497   8.335  20.257   4.204
14967W        W76498   8.779  16.272  10.584
14968W        W76499  34.981   8.682   5.191
14969W        W76500   1.339   6.768  13.369
14970W        W76501   1.298  19.112   2.710
14971W        W76502  17.611  28.020  13.347
14972W        W76503  17.135  42.855   2.884
14973W        W76504  43.490  33.527  14.486
14974W        W76505  28.003  36.374   0.436
14975W        W76506  13.645  16.573  11.875
14976W        W76507   1.426   0.887   0.756
14977W        W76508  33.591   0.758   5.099
14978W        W76509  42.872  35.880   4.244
14979W        W76510   9.292  40.451   3.861
14980W        W76511  34.371  24.172   0.351
14981W        W76512  32.986  22.591  11.984
14982W        W76513  32.904  42.309  12.564
14983W        W76514  36.471  25.539   4.259
14984W        W76515  13.221  37.452   4.689
14985W        W76516   5.704   8.338  14.430
14986W        W76517   9.191  33.004   0.345
14987W        W76518  27.155  26.474  11.096
14988W        W76519  36.579   4.245   2.193
14989W        W76520  37.035  14.793   0.814
14990W        W76521  27.523  12.768   1.743
14991W        W76522  20.558  43.484  12.340
14992W        W76523  28.626   3.324  13.413
14993W        W76524  22.556  26.049  12.924
14994W        W76525   4.922  28.945  10.131
14995W        W76526  13.822  16.119  12.019
14996W        W76527  25.593  10.188   2.724
14997W        W76528  44.977  10.159  12.962
14998W        W76529  30.097  39.998   2.774
14999W        W76530  16.164   3.234   4.147
15000W        W76531   2.370   7.761  10.430
15001W        W76532   1.418   6.218   1.710
15002W        W76533  12.215  38.820   2.828
15003W        W76534  38.478  22.726  11.996
15004W        W76535   1.740   2.244  13.376
15005W        W76536  29.153  20.215  11.899
15006W        W76537  43.764  36.448   2.349
15007W        W76538   1.850  22.581   2.211
15008W        W76539  15.728   1.824   4.831
15009W        W76540  13.841  29.474  11.043
15010W        W76541  38.520   3.944   1.868
15011W        W76542  11.802   4.939   3.766
15012W        W76543  32.608   2.767   3.367
15013W        W76544  14.324  10.876   2.791
15014W        W76545  40.376  21.582  12.053
15015W        W76546  40.820  18.252  12.574
15016W        W76547  32.122  32.502  10.593
15017W        W76548  19.205  38.825  13.820
15018W        W76549  21.619  31.452   5.181
15019W        W76550  19.571  22.649   4.767
15020W        W76551  38.027  36.085  10.150
15021W        W76552   3.858  21.156  14.448
15022W        W76553  17.619  22.104  14.811
15023W        W76554   0.767  30.449   4.739
15024W        W76555  35.370  15.216   4.748
15025W        W76556  16.229  39.812   3.693
15026W        W76557  29.645  10.656  10.616
15027W        W76558  14.226  38.989  11.929
15028W        W76559  32.898  25.472   0.372
15029W        W76560  28.981  24.160  14.311
15030W        W76561   7.751  41.891  11.948
15031W        W76562  24.070  28.003   3.658
15032W        W76563   6.738  27.484  12.041
15033W        W76564  12.833   4.917   3.824
15034W        W76565  43.490  21.753  13.029
15035W        W76566   9.161  21.548   3.147
15036W        W76567  12.274  27.676   2.388
15037W        W76568  39.325  16.752   3.208
15038W        W76569  13.788  12.633   1.900
15039W        W76570  19.703  42.511   1.869
15040W        W76571  34.421   9.194  12.351
15041W        W76572   3.409   6.348  13.350
15042W        W76573  11.641   5.408   2.757
15043W        W76574  12.645  29.460   4.323
15044W        W76575   1.454   8.293   3.170
15045W        W76576  36.098  13.746  13.791
15046W        W76577   2.750  15.262   0.272
15047W        W76578  19.040   8.239   4.237
15048W        W76579  11.795   4.798  14.366
15049W        W76580  43.411  11.229   3.702
15050W        W76581  25.712  20.120   0.903
15051W        W76582  23.083  37.856   2.231
15052W        W76583  11.367   5.410   4.765
15053W        W76584   5.292  13.830   2.736
15054W        W76585  20.132  10.740  13.886
15055W        W76586  42.863  31.092   2.362
15056W        W76587  42.925  27.102   2.860
15057W        W76588  41.936  30.427   0.470
15058W        W76589  22.517   8.716  13.352
15059W        W76590  22.172   9.782   4.263
15060W        W76591  27.182   2.900   4.675
15061W        W76592  21.712  43.808   1.807
15062W        W76593  11.726  35.481  12.393
15063W        W76594  34.599  12.715   1.382
15064W        W76595   1.753  15.266   2.847
15065W        W76596  10.337  28.952   1.747
15066W        W76597   0.308   3.768   3.274
15067W        W76598   3.423  43.007   2.387
15068W        W76599   5.214   9.785  13.479
15069W        W76600   4.831  15.173   2.723
15070W        W76601  38.919   2.424  11.574
15071W        W76602   9.178   6.406  11.896
15072W        W76603   7.245   7.740  14.767
15073W        W76604  17.300   4.765  14.305
15074W        W76605   0.378  18.127   3.230
15075W        W76606  32.632  22.655   3.285
15076W        W76607  17.208  40.972   4.143
15077W        W76608  15.291  15.641   2.705
15078W        W76609  19.695   4.429   0.836
15079W        W76610  34.978  41.947  13.364
15080W        W76611   3.420   7.699  12.887
15081W        W76612  27.494  11.236  13.970
15082W        W76613  10.835  19.728   3.280
15083W        W76614  10.221   1.734   3.658
15084W        W76615  10.318  12.757   2.896
15085W        W76616  28.032  30.578   1.254
15086W        W76617  42.424  24.120   2.379
15087W        W76618  25.707  25.212  12.011
15088W        W76619   7.380  15.281  11.498
15089W        W76620   1.450  10.314   0.726
15090W        W76621  13.825  40.861  10.912
15091W        W76622  11.719  40.480  10.432
15092W        W76623  25.981  21.727  12.872
15093W        W76624  23.049  34.945   4.624
15094W        W76625  23.031  44.349   3.262
15095W        W76626  33.576  33.583   3.638
15096W        W76627  41.884  42.003  14.395
15097W        W76628  25.636  36.940   0.283
15098W        W76629  42.294  34.087  11.116
15099W        W76630  33.079  21.047   0.419
15100W        W76631  17.129   6.187  11.554
15101W        W76632   4.798  42.417  13.500
15102W        W76633   4.325  16.180  10.955
15103W        W76634  23.085  35.083  12.036
15104W        W76635  37.085  23.572  14.844
15105W        W76636  26.025   0.410  12.918
15106W        W76637  24.712  42.345   4.785
15107W        W76638  34.961  20.193   1.773
15108W        W76639  13.674  13.112   3.858
15109W        W76640  20.134   4.733  12.848
15110W        W76641  20.676   8.760  13.462
15111W        W76642  37.905   7.233  10.980
15112W        W76643  41.872  40.891   4.281
15113W        W76644  21.094   5.388   3.704
15114W        W76645  16.615   9.680  11.003
15115W        W76646   5.916  27.088  13.430
15116W        W76647  19.206  29.431  11.013
15117W        W76648  30.621  18.759  10.142
15118W        W76649  12.182  24.527   4.616
15119W        W76650  14.188   8.177   0.393
15120W        W76651  20.178   8.178   2.388
15121W        W76652  21.728  24.082   0.398
15122W        W76653  24.033   8.181   4.680
15123W        W76654  10.240  42.997  11.076
15124W        W76655  27.178  16.117  11.988
15125W        W76656  37.949  35.436   3.757
15126W        W76657  37.505  25.026   0.298
15127W        W76658  10.778   4.344  12.554
15128W        W76659  30.462   2.357   5.294
15129W        W76660  18.548  33.607  10.540
15130W        W76661  24.122  20.536  10.429
15131W        W76662  18.244  41.394  12.867
15132W        W76663  15.810   5.289  11.551
15133W        W76664  19.204  40.989   4.325
15134W        W76665  39.030   9.297  12.039
15135W        W76666  39.511  41.014  10.897
15136W        W76667  19.688   3.894  14.281
15137W        W76668  37.452  14.803   3.171
15138W        W76669  25.599   5.294  14.422
15139W        W76670  36.451  31.613   3.705
15140W        W76671  21.054  33.589   3.320
15141W        W76672  39.867  13.833   4.724
15142W        W76673   6.245  11.307  10.642
15143W        W76674   8.262   9.383   0.310
15144W        W76675  34.897  41.429   0.796
15145W        W76676  19.547   4.228   2.241
15146W        W76677  23.060  36.893  11.002
15147W        W76678  41.861   3.746   2.356
15148W        W76679  28.530  35.911  12.568
15149W        W76680  39.409  27.479   1.715
15150W        W76681  17.081   4.840   1.351
15151W        W76682  20.573   9.707  12.971
15152W        W76683   2.939  34.008  10.443
15153W        W76684  40.323  22.539  13.950
15154W        W76685  40.340   4.763  10.418
15155W        W76686   1.967  33.564   0.808
15156W        W76687   1.767  41.535  14.491
15157W        W76688  43.831  18.186   3.170
15158W        W76689   7.365  41.385  10.935
15159W        W76690  36.465   7.301   5.295
15160W        W76691  26.137  39.888   1.713
15161W        W76692  36.402  36.423  11.399
15162W        W76693  39.409  38.899  12.893
15163W        W76694  16.572   4.260   1.930
15164W        W76695  41.871  31.595  12.914
15165W        W76696  37.493  25.545  13.425
15166W        W76697   9.749  24.039  13.003
15167W        W76698   3.850  44.860   1.907
15168W        W76699   4.707  21.561  14.436
15169W        W76700  29.665  32.490  11.572
15170W        W76701  25.038   5.304   1.255
15171W        W76702  21.083  11.258  10.463
15172W        W76703  15.098  24.721  12.580
15173W        W76704  13.230  37.541  13.954
15174W        W76705  30.650   2.840  12.952
15175W        W76706  22.551  41.473  14.430
15176W        W76707  38.026   7.210   0.878
15177W        W76708  29.606  36.353  14.889
15178W        W76709  27.526  25.486   0.888
15179W        W76710  34.614  17.136   0.396
15180W        W76711  13.700  15.810   1.367
15181W        W76712   7.684   5.205  14.787
15182W        W76713  14.645  19.653   5.239
15183W        W76714  34.110  10.633   3.338
15184W        W76715  39.815  11.638  14.465
15185W        W76716  18.754   6.350   1.310
15186W        W76717  12.291  41.844   1.795
15187W        W76718   1.418  25.095  14.451
15188W        W76719   2.382   4.934  13.427
15189W        W76720  27.674  41.311  10.888
15190W        W76721  17.219  27.572  11.111
15191W        W76722  26.668   1.435  12.876
15192W        W76723  14.762  11.628  10.495
15193W        W76724  22.166  23.206  13.823
15194W        W76725   3.365  29.043  12.455
15195W        W76726  29.549  21.527  14.841
15196W        W76727  43.784  21.106  11.508
15197W        W76728  10.748  30.015  12.041
15198W        W76729  18.153  38.901  10.133
15199W        W76730  16.785  40.335  10.579
15200W        W76731  41.456   9.350  11.963
15201W        W76732  41.484  43.377  14.894
15202W        W76733  31.057  29.545  14.014
15203W        W76734  44.498   2.837   0.854
15204W        W76735   3.348  15.618   0.849
15205W        W76736  14.183  37.494  12.381
15206W        W76737  23.648  14.115  13.321
15207W        W76738  26.109  18.150   3.860
15208W        W76739   7.860  30.109   3.205
15209W        W76740   7.272   9.210   1.255
15210W        W76741  43.770   1.261  12.560
15211W        W76742  18.720  35.888  10.601
15212W        W76743  37.418   3.877   2.792
15213W        W76744  23.067  29.069  14.867
15214W        W76745  21.083  39.036  12.877
15215W        W76746  16.275  29.140   3.355
15216W        W76747   4.371   4.394  12.850
15217W        W76748  13.291   7.183   2.191
15218W        W76749   0.445  33.421   4.806
15219W        W76750  22.619  42.981   0.747
15220W        W76751   9.349   6.369   3.242
15221W        W76752  18.168  15.796  14.030
15222W        W76753  12.838  17.139   3.277
15223W        W76754  13.783  44.761   4.192
15224W        W76755  29.083  36.993  14.499
15225W        W76756  44.826  28.444  13.515
15226W        W76757  40.985  38.924   4.304
15227W        W76758   7.366   4.385  10.968
15228W        W76759   9.760  11.136  12.500
15229W        W76760  39.033  13.227   2.789
15230W        W76761   0.888  36.067   0.834
15231W        W76762  24.565  20.100  11.518
15232W        W76763  11.172  38.340   2.745
15233W        W76764   7.245  20.126   2.368
15234W        W76765  23.171   5.777  13.386
15235W        W76766  19.739  27.472   1.355
15236W        W76767  28.054  41.796   1.754
15237W        W76768   6.681  14.149   4.266
15238W        W76769  34.591  35.042  10.155
15239W        W76770   5.859  33.908   2.742
15240W        W76771   9.254  33.450   4.173
15241W        W76772   7.842  43.288  11.429
15242W        W76773   3.352  18.642   2.826
15243W        W76774  27.682   3.291   2.317
15244W        W76775  29.979  41.358   0.446
15245W        W76776  41.492  18.104  10.488
15246W        W76777  12.259  11.190   4.154
15247W        W76778  22.244  22.029   4.606
15248W        W76779  28.641  24.052  13.974
15249W        W76780  22.508   8.286   3.770
15250W        W76781  24.611  38.007  13.522
15251W        W76782  22.550  34.383   0.965
15252W        W76783  11.128  26.030  11.379
15253W        W76784  20.085   4.810   1.389
15254W        W76785  31.413  31.634   2.273
15255W        W76786  15.090  13.275  13.523
15256W        W76787  14.139  17.119  13.032
15257W        W76788   5.313  33.968  12.387
15258W        W76789  41.301   5.848  13.413
15259W        W76790  19.084   5.241   1.340
15260W        W76791  37.554  33.901  12.077
15261W        W76792   5.335   4.771   1.401
15262W        W76793   8.887  40.936   0.888
15263W        W76794  19.258  21.104   3.157
15264W        W76795   6.811   5.737  14.323
15265W        W76796  37.392  26.032  12.363
15266W        W76797  10.174  35.013   2.324
15267W        W76798  29.170  25.643  12.567
15268W        W76799  11.666  12.155  10.944
15269W        W76800  24.159   7.237  11.382
15270W        W76801  37.466  34.887   3.848
15271W        W76802  44.382  42.938  14.289
15272W        W76803  30.042  30.540   1.723
15273W        W76804  13.803   1.301  13.932
15274W        W76805   1.970  29.046   1.706
15275W        W76806   3.777  32.065  13.338
15276W        W76807  13.777   1.875  14.801
15277W        W76808  15.692  16.634   2.319
15278W        W76809  37.012   6.257  13.905
15279W        W76810  42.310  32.422  11.437
15280W        W76811  31.121   4.837   0.288
15281W        W76812  43.899  39.361  10.449
15282W        W76813  42.290   4.212  12.890
15283W        W76814  39.870   4.404  14.840
15284W        W76815  10.238  34.032   0.365
15285W        W76816  33.026  31.932  11.893
15286W        W76817   6.911   6.329  13.987
15287W        W76818   7.311  22.515  13.059
15288W        W76819  37.967  42.831  12.073
15289W        W76820  13.279  16.767  13.858
15290W        W76821  36.562  40.430  11.396
15291W        W76822  30.981  36.426  14.393
15292W        W76823  33.949  21.536   2.362
15293W        W76824  38.013  22.076  11.884
15294W        W76825   5.779   5.775   3.825
15295W        W76826   1.287  32.975   0.731
15296W        W76827  34.864  18.769   0.887
15297W        W76828  19.577  18.710   1.367
15298W        W76829  28.985   4.297  14.458
15299W        W76830   2.904  17.068   0.948
15300W        W76831  23.122   3.297  10.516
15301W        W76832  44.309  16.683   3.376
15302W        W76833  41.901  36.025  13.496
15303W        W76834  33.119  11.853  14.396
15304W        W76835  10.705   4.706  10.079
15305W        W76836  44.479  22.064   4.800
15306W        W76837  16.238  31.525   1.215
15307W        W76838   7.396  43.821   1.253
15308W        W76839  21.735  19.136  11.038
15309W        W76840  40.338  25.201   1.269
15310W        W76841  33.118  14.743  11.960
15311W        W76842   9.333  20.214   0.812
15312W        W76843   4.450  23.180  12.359
15313W        W76844  18.178  24.560   2.759
15314W        W76845  39.560  21.184  13.481
15315W        W76846  21.652  29.101  12.382
15316W        W76847  38.564  27.004   2.201
15317W        W76848   0.482   5.826  10.614
15318W        W76849   3.341  27.138  13.836
15319W        W76850  33.080  10.666  10.981
15320W        W76851   4.901   0.818   0.371
15321W        W76852  23.659   7.324   4.128
15322W        W76853  34.602  24.625  10.910
15323W        W76854  29.464   8.240   2.750
15324W        W76855  16.652  30.502  11.411
15325W        W76856   7.175  38.968  10.524
15326W        W76857  17.075  17.580   1.902
15327W        W76858  19.249  29.433  12.492
15328W        W76859   1.250  31.900   2.365
15329W        W76860  18.748  25.975  10.996
15330W        W76861   4.345  14.255   3.369
15331W        W76862  41.534  27.584  14.000
15332W        W76863  44.460  42.002   4.688
15333W        W76864  11.230  39.361  10.629
15334W        W76865  25.103  32.009  12.460
15335W        W76866  24.148  15.659   3.849
15336W        W76867  17.304  10.348   2.417
15337W        W76868   8.332   2.882   4.351
15338W        W76869  28.077  22.523   3.250
15339W        W76870   0.897  12.136  10.471
15340W        W76871  44.376   6.284   2.719
15341W        W76872  37.394  11.169  12.378
15342W        W76873  30.158  34.573  11.560
15343W        W76874  17.595  37.464  10.472
15344W        W76875  29.440  20.747  10.451
15345W        W76876  16.679  38.987   3.861
15346W        W76877  29.658   3.395  10.639
15347W        W76878  33.394  24.078   2.336
15348W        W76879  37.974  25.083  13.335
15349W        W76880  37.850   9.309  14.020
15350W        W76881   3.777  16.103   0.348
15351W        W76882  20.172  16.311  13.313
15352W        W76883  44.911   1.905  14.384
15353W        W76884  36.486  33.877   2.347
15354W        W76885  41.032   0.296   1.844
15355W        W76886  24.016  39.858  14.977
15356W        W76887   5.835  44.938  11.955
15357W        W76888   1.279  29.021   4.159
15358W        W76889  31.980  44.885  11.877
15359W        W76890  44.801  27.057   0.456
15360W        W76891  31.045  17.566   4.234
15361W        W76892  15.127  34.872  11.589
15362W        W76893  38.413  16.760  14.366
15363W        W76894  22.624   2.819   4.720
15364W        W76895  22.717   6.414   2.236
15365W        W76896  13.791  43.938   2.349
15366W        W76897   1.796  23.145  11.884
15367W        W76898  37.860  20.147  14.328
15368W        W76899   5.266   0.754   0.891
15369W        W76900  35.569   0.758  12.463
15370W        W76901  10.809  28.132   1.710
15371W        W76902  22.123  14.325   4.664
15372W        W76903  25.022  24.489  10.643
15373W        W76904  26.690  20.223   4.286
15374W        W76905  32.459  22.542  14.323
15375W        W76906  37.570  16.298   2.333
15376W        W76907  21.519  41.478   3.772
15377W        W76908  32.560  34.880  14.474
15378W        W76909   1.252  17.585  12.541
15379W        W76910   8.832  16.630  11.492
15380W        W76911   4.238  35.027   1.224
15381W        W76912   7.690  21.147  10.483
15382W        W76913  23.576   8.843  11.948
15383W        W76914  14.753  28.655  13.977
15384W        W76915   3.413  20.268  11.858
15385W        W76916  22.604   0.757  14.795
15386W        W76917  39.971  12.361   1.792
15387W        W76918  23.065  34.050  11.491
15388W        W76919  18.101  16.772  13.026
15389W        W76920  22.729  19.676   2.340
15390W        W76921  23.122  23.546   3.787
15391W        W76922  36.999  27.955   3.198
15392W        W76923  35.070  28.520   2.178
15393W        W76924  32.052  36.963   3.346
15394W        W76925  25.498  38.961  10.099
15395W        W76926  32.439  44.307   0.817
15396W        W76927  33.575  12.620   1.746
15397W        W76928  22.712   9.226   0.454
15398W        W76929   0.859  41.833  10.507
15399W        W76930  14.615  16.251   0.950
15400W        W76931  27.581  20.188  12.944
15401W        W76932   9.280  14.229   9.927
15402W        W76933  40.948  20.560   2.667
15403W        W76934  36.896   7.189  11.545
15404W        W76935  34.523  36.421   4.324
15405W        W76936   2.360  13.347   4.806
15406W        W76937  30.111  11.151   5.639
15407W        W76938  42.995  11.858   0.269
15408W        W76939  27.151  31.924   0.768
15409W        W76940   5.914   6.788  14.846
15410W        W76941  15.656   0.408  14.458
15411W        W76942  23.171  12.632  11.518
15412W        W76943  11.319   4.886   1.216
15413W        W76944  10.193   9.851   1.855
15414W        W76945   2.807  27.501  13.345
15415W        W76946  22.133  22.131  13.354
15416W        W76947  32.565  15.611   3.726
15417W        W76948  23.530  14.681  14.408
15418W        W76949  24.088  19.743  14.775
15419W        W76950  19.611   1.408  14.277
15420W        W76951   8.288  34.885   4.786
15421W        W76952  33.910  24.616  14.495
15422W        W76953  30.049  37.578   0.787
15423W        W76954  12.341  29.577  11.546
15424W        W76955  23.522   8.734   4.214
15425W        W76956  25.194  43.814   4.210
15426W        W76957  39.818  14.698   1.779
15427W        W76958   1.322  15.712   1.410
15428W        W76959   0.352   7.401  12.990
15429W        W76960  30.606  23.102   1.392
15430W        W76961   2.455  35.509  13.983
15431W        W76962  30.051  21.523   2.190
15432W        W76963  40.485  17.615  13.822
15433W        W76964   2.766   6.416  14.302
15434W        W76965  40.323  44.964   4.623
15435W        W76966  26.183   6.335   3.799
15436W        W76967  19.672   1.818   2.291
15437W        W76968  43.860  36.923   4.269
15438W        W76969  27.016  21.705  13.403
15439W        W76970   8.853  28.115   3.316
15440W        W76971  11.625  32.900   1.766
15441W        W76972  37.922  32.089  10.430
15442W        W76973  20.707   2.758  12.381
15443W        W76974   3.857  22.203   0.890
15444W        W76975  34.022  43.393  13.512
15445W        W76976  23.714  43.789   2.266
15446W        W76977  34.546  40.021  14.998
15447W        W76978   3.379  19.157   2.882
15448W        W76979   5.257  11.817  14.445
15449W        W76980  30.534  35.946  13.871
15450W        W76981  13.312  26.689  12.429
15451W        W76982  35.571  32.597  12.923
15452W        W76983  22.591   7.343  14.914
15453W        W76984  29.102  39.481   4.328
15454W        W76985   5.694   8.724   2.844
15455W        W76986  11.738  18.167   0.385
15456W        W76987  41.499  15.131   0.433
15457W        W76988  29.014  22.050  11.104
15458W        W76989   6.707  24.202  11.912
15459W        W76990  26.650  38.487   2.738
15460W        W76991  14.206  28.441  11.049
15461W        W76992   2.912  16.282  11.864
15462W        W76993   5.392  28.609  14.898
15463W        W76994  14.767  10.681  12.509
15464W        W76995  40.049   1.954   3.723
15465W        W76996  31.079  43.292   0.826
15466W        W76997  37.960  20.713  10.408
15467W        W76998  18.094   7.389  12.387
15468W        W76999   2.770  32.537  13.413
15469W        W77000  23.135   5.305  11.023
15470W        W77001  33.601  17.127   4.821
15471W        W77002  42.986  41.924   0.357
15472W        W77003  15.138  22.099  12.895
15473W        W77004   0.931  38.823   2.816
15474W        W77005  42.408  30.454   1.769
15475W        W77006  22.513   1.810  14.497
15476W        W77007  40.986   2.300   1.266
15477W        W77008   4.404  28.971  10.543
15478W        W77009   9.240   7.892  13.946
15479W        W77010  40.818  17.304  10.902
15480W        W77011   7.731   5.341   2.789
15481W        W77012   2.857  31.108  14.851
15482W        W77013  23.577  42.027   4.700
15483W        W77014  28.026  25.992   2.820
15484W        W77015  21.035  44.885  11.595
15485W        W77016  31.568  44.349   4.151
15486W        W77017  39.522  39.813  12.001
15487W        W77018  35.579  23.159  13.933
15488W        W77019  35.464  24.534   3.791
15489W        W77020  42.368  44.455   0.858
15490W        W77021   9.370  23.163   4.777
15491W        W77022  41.994  10.834  13.313
15492W        W77023  16.779   5.407  12.375
15493W        W77024  36.498  33.049  12.527
15494W        W77025  31.426  13.107  11.118
15495W        W77026  39.823  28.012   4.805
15496W        W77027  18.165   7.278  10.907
15497W        W77028  30.998  19.149  14.995
15498W        W77029  12.202   7.799   3.802
15499W        W77030  20.083  24.576   3.375
15500W        W77031  12.349   4.407   0.889
15501W        W77032  17.796  17.687  12.897
15502W        W77033   7.296  32.523  12.945
15503W        W77034  39.408  25.059   0.906
15504W        W77035  15.226  29.428   9.953
15505W        W77036  41.339  25.477   0.821
15506W        W77037  33.435  16.092   0.349
15507W        W77038  31.417  42.932  14.904
15508W        W77039   0.800  18.605  12.978
15509W        W77040   5.334  33.890   3.297
15510W        W77041  28.181  26.032   1.857
15511W        W77042  13.220  44.011   2.826
15512W        W77043   2.811  16.757  14.453
15513W        W77044  21.214  15.713  12.899
15514W        W77045  21.652  34.901  13.409
15515W        W77046  30.587  25.672   0.808
15516W        W77047  33.506  11.321  11.866
15517W        W77048  28.019  23.192  14.433
15518W        W77049  11.220  30.092  14.860
15519W        W77050  17.610   9.796  10.437
15520W        W77051  19.042   9.833  10.547
15521W        W77052   7.716  41.011  12.409
15522W        W77053  28.547   0.786   1.907
15523W        W77054  39.455  41.428   2.318
15524W        W77055  14.719   1.797   0.455
15525W        W77056  31.083  12.689   4.638
15526W        W77057  31.028  37.340   3.859
15527W        W77058  15.144  13.823   3.697
15528W        W77059  37.511   6.779  13.423
15529W        W77060  41.409  37.076  13.809
15530W        W77061   9.321  19.538  14.494
15531W        W77062  32.046  29.567   1.882
15532W        W77063  34.451  17.643  12.496
15533W        W77064   8.835   5.437  13.836
15534W        W77065  40.904  23.206  11.593
15535W        W77066  10.139   5.837   3.365
15536W        W77067  37.903  44.278  14.899
15537W        W77068  35.946  35.074  12.345
15538W        W77069  43.864  16.246  14.463
15539W        W77070   7.796  14.154   4.261
15540W        W77071  31.119   3.452  11.995
15541W        W77072   2.367  16.116   1.424
15542W        W77073  19.133  14.784  12.026
15543W        W77074  29.053  19.043   4.729
15544W        W77075  24.153   7.786   1.842
15545W        W77076  14.174  30.143  11.121
15546W        W77077  44.814   0.350   3.280
15547W        W77078  18.093   9.765  12.074
15548W        W77079   7.763  10.664  13.394
15549W        W77080  27.093  10.247  11.066
15550W        W77081  15.798  19.270   1.358
15551W        W77082  30.587  11.854   1.258
15552W        W77083  41.353  17.195  13.526
15553W        W77084  24.704  17.555   1.393
15554W        W77085  19.277  26.642  12.522
15555W        W77086  33.467  33.062   1.408
15556W        W77087  19.100  38.363  11.914
15557W        W77088  11.722  27.677  14.811
15558W        W77089   3.866   6.753  11.407
15559W        W77090  12.724  21.218   3.653
15560W        W77091  43.792  14.200  14.367
15561W        W77092   3.947   0.480  12.051
15562W        W77093  16.649  16.681   1.852
15563W        W77094  43.501  37.544   1.885
15564W        W77095  14.698  37.084  15.000
15565W        W77096   0.270  12.800   3.650
15566W        W77097  17.222  21.114  11.009
15567W        W77098  16.763  19.128  14.765
15568W        W77099   4.943  35.921  11.894
15569W        W77100  13.220  32.048  14.416
15570W        W77101  29.062   1.345  10.445
15571W        W77102   1.474  10.172  10.485
15572W        W77103   5.402  23.015  14.974
15573W        W77104   4.862  35.014  12.929
15574W        W77105  27.954  10.148  11.928
15575W        W77106  36.350  44.984   4.643
15576W        W77107  15.772  31.635   3.645
15577W        W77108  12.658  34.505  13.018
15578W        W77109  22.675  37.525  14.321
15579W        W77110   8.729  11.348  12.846
15580W        W77111  23.617  24.142  14.963
15581W        W77112   9.346  37.030   4.758
15582W        W77113  20.756  41.513   4.668
15583W        W77114  10.170  12.280  12.541
15584W        W77115  22.211   3.898   0.277
15585W        W77116  42.832  33.586   4.601
15586W        W77117  16.721  13.166  10.451
15587W        W77118  41.887  22.996   0.889
15588W        W77119  35.361  25.651   0.397
15589W        W77120   9.872  20.111  11.111
15590W        W77121   2.444  14.797   3.377
15591W        W77122  43.365  20.057  12.453
15592W        W77123  39.884  32.618  12.889
15593W        W77124  41.016   4.741   1.865
15594W        W77125  13.631  29.631   1.240
15595W        W77126  14.605  19.757   2.880
15596W        W77127  34.100  32.903   3.283
15597W        W77128  24.192  43.854   1.721
15598W        W77129  10.722  38.025   4.630
15599W        W77130  17.564  44.313  12.400
15600W        W77131  32.940  42.397   0.862
15601W        W77132  25.533  31.964  13.533
15602W        W77133   9.380  24.608   3.816
15603W        W77134  18.690  36.962  12.580
15604W        W77135   9.205  35.891   0.787
15605W        W77136  41.404   5.822   4.739
15606W        W77137  40.810  28.966   1.344
15607W        W77138  21.564   6.699  13.546
15608W        W77139  31.584  41.837  10.438
15609W        W77140  29.005  42.903  13.807
15610W        W77141  37.964  43.489   0.790
15611W        W77142  42.455  25.496  14.389
15612W        W77143  10.200   4.413   3.685
15613W        W77144   1.731   3.931  12.526
15614W        W77145   5.915  41.028  14.376
15615W        W77146  33.555  13.250  10.040
15616W        W77147  34.999  42.389  14.821
15617W        W77148  29.972  29.995  11.417
15618W        W77149   1.437  42.345  10.567
15619W        W77150  29.647  11.305   4.272
15620W        W77151  10.753  31.996   2.336
15621W        W77152  31.452  36.914   2.401
15622W        W77153  30.914  29.638  12.962
15623W        W77154  16.739  29.028  13.905
15624W        W77155  28.533  25.643   2.250
15625W        W77156  11.777  10.653  13.902
15626W        W77157  14.116  25.505   3.268
15627W        W77158  17.066  43.276  13.013
15628W        W77159  31.917  23.577  10.486
15629W        W77160   4.305   6.727   1.766
15630W        W77161  44.468  28.625  10.962
15631W        W77162  11.640  31.530  13.834
15632W        W77163  24.648  36.399  11.453
15633W        W77164  26.481  37.991  14.511
15634W        W77165  35.914  38.987   2.745
15635W        W77166  40.415  38.901  13.971
15636W        W77167   3.861  19.763   2.900
15637W        W77168  14.126  41.335   2.282
15638W        W77169  13.167   2.947   5.623
15639W        W77170  13.730  16.104   2.664
15640W        W77171  18.592  41.416   1.259
15641W        W77172  31.493  42.898   2.338
15642W        W77173  21.602  34.008   4.235
15643W        W77174  23.565  28.932   1.842
15644W        W77175   2.870  43.952  13.385
15645W        W77176  19.119   3.933   1.219
15646W        W77177  25.621   3.262   1.298
15647W        W77178  19.095  33.391  10.992
15648W        W77179  12.206  24.633   3.213
15649W        W77180  37.030  42.903  14.463
15650W        W77181  18.571  30.147   3.325
15651W        W77182  42.978   1.778   1.706
15652W        W77183  19.607  30.495  12.499
15653W        W77184  11.667  15.738   5.230
15654W        W77185  24.981   9.209   0.424
15655W        W77186  39.832  28.650   2.253
15656W        W77187  30.112   8.163  12.042
15657W        W77188  25.562  12.357   1.792
15658W        W77189   9.224  34.369   3.316
15659W        W77190  26.523  16.124  14.322
15660W        W77191  10.352   6.819  10.909
15661W        W77192   5.877   5.831  10.623
15662W        W77193   1.919   7.251   2.216
15663W        W77194   4.768   8.290   2.224
15664W        W77195  29.439   1.243   3.667
15665W        W77196  24.523  26.538   2.734
15666W        W77197   5.743   9.163  11.467
15667W        W77198  23.142  44.910  13.799
15668W        W77199  28.932  14.753   3.212
15669W        W77200  30.504  29.071   3.824
15670W        W77201  11.819  11.722   0.850
15671W        W77202  16.592  14.334   0.444
15672W        W77203   2.329   9.252   3.676
15673W        W77204  21.168  18.729  14.964
15674W        W77205  29.927  12.264  14.419
15675W        W77206   4.327  39.045   2.208
15676W        W77207  41.322  41.827  10.514
15677W        W77208  15.621  21.262   0.799
15678W        W77209  29.431   0.347  13.015
15679W        W77210  27.149  44.787   4.634
15680W        W77211  19.102  35.933  12.006
15681W        W77212   9.244  10.817  14.326
15682W        W77213   9.276  34.945   3.275
15683W        W77214  13.724   4.729  13.062
15684W        W77215  34.582  10.380   5.302
15685W        W77216  15.327  29.497   5.111
15686W        W77217   0.345  18.677  14.992
15687W        W77218  17.784  24.508  14.808
15688W        W77219  27.181  38.443  12.084
15689W        W77220   0.989  10.721   1.339
15690W        W77221  10.349  38.496  13.307
15691W        W77222  13.214  41.919  10.538
15692W        W77223  19.543  19.086   1.424
15693W        W77224  22.546  27.684  13.806
15694W        W77225  29.019  13.672  11.431
15695W        W77226   1.746  29.524   1.846
15696W        W77227  14.596  17.114   1.402
15697W        W77228  12.837   8.878  13.334
15698W        W77229  16.661  13.708   3.165
15699W        W77230  42.782  44.975   2.728
15700W        W77231  38.360  44.915   4.126
15701W        W77232  17.165  42.364  11.415
15702W        W77233  33.565  36.099  12.920
15703W        W77234  44.008   0.267  11.445
15704W        W77235  32.467  35.106   4.618
15705W        W77236   0.289  30.470  12.848
15706W        W77237  16.695  23.576   2.359
15707W        W77238  41.468  18.281  14.007
15708W        W77239  16.715  18.058  14.029
15709W        W77240   4.769  12.134   2.720
15710W        W77241   8.785  30.477   3.629
15711W        W77242   5.717  17.779   4.658
15712W        W77243  28.966  34.077  11.084
15713W        W77244  44.842  15.121  13.476
15714W        W77245   4.777   5.909  10.053
15715W        W77246   9.317  41.354  13.346
15716W        W77247   8.700   1.740   1.932
15717W        W77248  18.157  38.859   2.207
15718W        W77249   0.448  21.527  13.003
15719W        W77250  20.594  40.052  13.974
15720W        W77251  38.033  44.803  11.606
15721W        W77252  10.264  17.609  12.927
15722W        W77253  44.379  28.517   4.712
15723W        W77254  34.977  20.578  13.393
15724W        W77255  18.649   5.750  13.959
15725W        W77256  39.884  19.655   2.760
15726W        W77257  34.438  32.536   1.380
15727W        W77258  38.992  14.293  11.389
15728W        W77259  18.629  18.255  11.906
15729W        W77260  43.774   1.280   1.806
15730W        W77261  36.020  28.057  12.580
15731W        W77262  30.996  26.462  10.614
15732W        W77263  34.027  26.651  11.414
15733W        W77264  35.467  37.377   4.349
15734W        W77265  34.909  27.692  14.858
15735W        W77266  28.566  27.687  14.473
15736W        W77267  19.200  44.903  12.869
15737W        W77268  35.366  44.888  10.486
15738W        W77269  42.372  42.863  11.536
15739W        W77270  19.139  15.625  14.482
15740W        W77271  26.101   6.412   3.156
15741W        W77272  13.721  21.251  13.034
15742W        W77273   1.435  31.956   1.760
15743W        W77274  10.739  14.605  10.480
15744W        W77275  19.613   6.386   4.639
15745W        W77276  37.030  30.634   2.404
15746W        W77277   2.265  12.274  10.903
15747W        W77278   0.871  39.902  10.446
15748W        W77279  14.262  15.719   3.823
15749W        W77280  30.540  42.447  11.022
15750W        W77281  33.045  13.220  13.915
15751W        W77282  44.881  29.002   4.809
15752W        W77283  18.119  29.483  11.891
15753W        W77284  10.232  14.656   3.197
15754W        W77285  36.402  26.650  14.834
15755W        W77286  39.879   2.361   0.482
15756W        W77287  12.682  12.297   0.297
15757W        W77288   9.212  33.545   2.842
15758W        W77289  24.551  13.139  11.022
15759W        W77290  37.905  12.823   4.212
15760W        W77291  20.720  19.737   2.292
15761W        W77292  37.834  19.617   2.824
15762W        W77293  25.506  33.994  12.378
15763W        W77294  14.723  13.146  13.333
15764W        W77295  35.968  24.638   0.903
15765W        W77296  44.475  30.588   3.339
15766W        W77297  14.757   6.323  14.803
15767W        W77298   3.932   8.274   1.841
15768W        W77299  15.085  34.961   4.770
15769W        W77300  44.409  11.361   0.372
15770W        W77301  40.834   7.386  12.039
15771W        W77302   6.192  17.218   2.770
15772W        W77303  17.073   3.812  14.501
15773W        W77304  24.712   9.737   4.218
15774W        W77305  35.060  29.102   3.858
15775W        W77306  28.045  31.904  11.608
15776W        W77307   7.330  42.784   1.854
15777W        W77308  32.467  35.551   3.262
15778W        W77309  30.502  12.351  11.855
15779W        W77310  25.104   9.867   3.358
15780W        W77311  10.673  39.020   3.342
15781W        W77312  37.367  17.134  12.091
15782W        W77313  29.054  36.072   0.884
15783W        W77314  44.401  30.468  11.005
15784W        W77315   4.305   8.685   3.215
15785W        W77316  29.050  22.634  13.970
15786W        W77317   3.245  23.641  10.953
15787W        W77318  16.678   7.749   3.315
15788W        W77319  34.960  11.369   0.757
15789W        W77320   8.192  22.740  13.454
15790W        W77321   1.973  32.593   4.663
15791W        W77322  27.583  17.151   1.388
15792W        W77323  21.684   1.284   1.857
15793W        W77324  38.862  22.728  13.916
15794W        W77325   9.266   1.761   0.345
15795W        W77326  42.838  35.976   3.658
15796W        W77327  41.845   0.983  11.471
15797W        W77328  13.146  12.826   2.814
15798W        W77329   2.914  22.219  12.394
15799W        W77330  27.678  22.065  12.046
15800W        W77331  37.877   2.322  11.589
15801W        W77332  43.466  23.228  14.396
15802W        W77333  40.987  11.740  11.516
15803W        W77334  40.839  34.509   4.273
15804W        W77335  22.649  22.668   3.333
15805W        W77336  31.015  30.022   2.303
15806W        W77337  11.214  34.438   2.885
15807W        W77338  32.118   8.368   3.233
15808W        W77339  41.005  31.141   1.233
15809W        W77340  18.691  44.363   3.273
15810W        W77341  41.481  11.182   3.863
15811W        W77342  34.043  20.712  11.445
15812W        W77343   8.834  32.003  13.007
15813W        W77344   3.458  28.561  14.350
15814W        W77345  13.290  40.964  12.360
15815W        W77346  13.164  12.117   0.267
15816W        W77347   2.252  18.167  10.443
15817W        W77348  15.694   6.201  11.473
15818W        W77349   5.340  13.806  11.551
15819W        W77350  24.009  16.693  14.029
15820W        W77351   7.698  28.639  12.056
15821W        W77352  40.374  22.504   4.671
15822W        W77353  23.154  42.454  10.498
15823W        W77354  34.096   9.837   0.965
15824W        W77355   8.744  38.829   0.728
15825W        W77356  33.443  18.583  13.462
15826W        W77357  11.248  41.468   0.379
15827W        W77358  33.518  21.576  11.554
15828W        W77359  17.801   0.750  11.610
15829W        W77360  24.124  18.097  11.535
15830W        W77361  42.980   5.698  12.976
15831W        W77362  10.264  38.966   1.218
15832W        W77363   7.877  43.016   2.774
15833W        W77364   6.207  38.566  13.355
15834W        W77365   7.684  35.402   3.245
15835W        W77366  44.269  25.643  11.902
15836W        W77367   3.223  29.498   0.249
15837W        W77368  18.128   1.785  12.898
15838W        W77369   1.299  31.035  14.911
15839W        W77370  29.586   0.400   2.230
15840W        W77371  40.379  15.087   1.835
15841W        W77372  11.224  44.502  14.389
15842W        W77373   9.392  15.811  13.345
15843W        W77374  20.609  11.325   0.258
15844W        W77375  27.948   6.198  10.450
15845W        W77376  33.514   7.863   0.324
15846W        W77377  10.822  29.000  11.035
15847W        W77378   0.915   7.885  10.972
15848W        W77379   9.315  25.974   1.313
15849W        W77380  31.465   8.858   2.342
15850W        W77381  31.113   8.403  14.874
15851W        W77382   3.858  16.136  12.916
15852W        W77383  32.053  29.460   5.279
15853W        W77384  38.914  34.388  12.930
15854W        W77385  19.179  12.767   1.901
15855W        W77386  15.185   0.465   4.790
15856W        W77387  28.086  18.733  10.039
15857W        W77388  36.413  21.614  13.459
15858W        W77389  22.006  40.375   0.447
15859W        W77390  42.332   4.901   2.388
15860W        W77391  36.049  12.321  12.472
15861W        W77392  13.187  42.970   3.788
15862W        W77393  28.045  23.187   0.833
15863W        W77394   9.358  42.835   4.145
15864W        W77395  39.944  40.421   2.712
15865W        W77396  40.487  16.764   1.925
15866W        W77397   2.397   6.263   4.808
15867W        W77398  35.010  41.978  14.314
15868W        W77399  41.848  34.531  13.425
15869W        W77400  15.178  38.023  10.996
15870W        W77401  35.390  23.999  12.534
15871W        W77402  26.986  21.096  10.514
15872W        W77403  37.926  32.104  11.027
15873W        W77404  34.948  10.772   1.742
15874W        W77405   9.301   9.723  11.424
15875W        W77406   9.752  20.188  14.792
15876W        W77407  35.505  14.705   2.709
15877W        W77408   4.216  18.125   3.225
15878W        W77409  34.978  42.353   1.435
15879W        W77410  27.652  37.913  13.861
15880W        W77411  40.016  32.428  10.639
15881W        W77412  13.828  17.126   3.768
15882W        W77413  33.905  19.582  14.017
15883W        W77414  12.767  15.204  11.928
15884W        W77415  36.928  11.827  11.610
15885W        W77416  21.598  20.654   2.876
15886W        W77417  16.264  42.417  10.507
15887W        W77418  35.862   1.432  11.865
15888W        W77419  25.470   9.863   1.716
15889W        W77420   1.305  17.662  11.021
15890W        W77421  36.519  28.434  13.501
15891W        W77422  32.915  43.792   4.677
15892W        W77423   3.847  24.651  11.508
15893W        W77424  43.825  25.567  14.508
15894W        W77425  28.144  31.452  11.970
15895W        W77426  38.859  32.104  10.122
15896W        W77427  37.533   7.724  13.923
15897W        W77428  32.526  34.394  13.474
15898W        W77429  43.822  30.615  14.871
15899W        W77430  27.651  33.406   1.358
15900W        W77431  36.865  14.267   3.330
15901W        W77432  29.028   1.894  10.644
15902W        W77433  40.958  17.791   2.665
15903W        W77434  32.041  22.099   4.745
15904W        W77435  24.549   6.819   4.235
15905W        W77436   0.378  28.471   1.287
15906W        W77437  27.000  33.442   9.937
15907W        W77438  14.754  25.582   9.542
15908W        W77439  11.303  33.894  10.586
15909W        W77440  44.979   7.701  13.062
15910W        W77441  16.682   3.312   3.805
15911W        W77442   0.459  22.137  13.389
15912W        W77443  43.851   5.884  10.413
15913W        W77444   6.885  16.152  10.995
15914W        W77445  36.961  25.124   0.457
15915W        W77446   6.800  11.161  14.803
15916W        W77447   1.276   8.169  14.328
15917W        W77448  25.603   0.787   4.800
15918W        W77449   3.943  36.056  12.865
15919W        W77450  44.955  19.540   1.860
15920W        W77451   1.239   3.824  10.434
15921W        W77452   0.254  34.554   4.185
15922W        W77453  25.211  28.550   1.880
15923W        W77454  44.999  40.039   1.709
15924W        W77455  10.297  10.252   2.726
15925W        W77456  35.002   7.284  14.320
15926W        W77457   2.945   6.823   0.363
15927W        W77458   3.915  21.640   9.969
15928W        W77459  28.625  31.503   9.440
15929W        W77460  40.003   0.472  12.370
15930W        W77461  10.871  21.566  12.885
15931W        W77462  40.380  34.047  13.955
15932W        W77463   1.337   3.428  13.956
15933W        W77464   7.796  39.504   4.627
15934W        W77465  28.082  18.094  13.962
15935W        W77466  36.571  13.197   3.194
15936W        W77467  37.563  43.773   1.441
15937W        W77468  25.667   9.322  13.924
15938W        W77469   9.834  21.593  13.946
15939W        W77470  36.369   9.673  11.565
15940W        W77471  20.644  33.088  10.478
15941W        W77472  16.208  16.682   2.863
15942W        W77473  23.157  17.643  12.398
15943W        W77474   7.893  24.482  11.597
15944W        W77475  26.967  28.933  10.462
15945W        W77476   8.206   9.708  12.444
15946W        W77477  11.347   5.751   0.264
15947W        W77478  28.125  17.124  11.602
15948W        W77479  26.606   0.485  13.355
15949W        W77480  36.093  16.242   9.443
15950W        W77481  30.948  35.432  12.829
15951W        W77482  25.142  42.997  12.090
15952W        W77483  25.565  35.406   3.332
15953W        W77484  22.535  41.807  12.500
15954W        W77485  38.542  28.463  12.529
15955W        W77486  35.534  39.959   4.694
15956W        W77487  31.570  11.730   4.330
15957W        W77488  10.775   6.375   1.860
15958W        W77489  37.355  39.877  13.525
15959W        W77490  29.541  40.934  10.417
15960W        W77491   2.953  44.371  14.378
15961W        W77492  42.848  38.353   2.751
15962W        W77493   4.803  37.367   2.687
15963W        W77494  27.689  18.701   2.789
15964W        W77495  42.492  42.030  13.448
15965W        W77496  23.039   1.931   2.184
15966W        W77497  38.445  38.337   1.362
15967W        W77498  28.547  23.492  14.403
15968W        W77499  35.973  22.191   1.350
15969W        W77500  25.091  22.065  11.890
15970W        W77501  13.741   9.850   1.760
15971W        W77502  16.161  36.457  12.000
15972W        W77503  12.623  30.522  13.435
15973W        W77504  43.973   8.179   1.230
15974W        W77505  39.467  39.526  11.991
15975W        W77506   0.262  17.747   4.172
15976W        W77507  21.652  18.590  13.036
15977W        W77508  28.154  16.249   0.775
15978W        W77509  43.455   3.800   0.914
15979W        W77510   1.825  34.902  12.527
15980W        W77511   5.361  15.242  12.402
15981W        W77512  11.756  11.703  12.923
15982W        W77513  40.863  20.613  12.093
15983W        W77514  33.089  37.856  11.509
15984W        W77515  22.073  36.355  11.066
15985W        W77516  39.554   7.708  11.432
15986W        W77517  27.134  23.659  13.400
15987W        W77518   5.353  29.956   3.161
15988W        W77519  35.955  30.007   1.426
15989W        W77520  14.819  26.624   4.734
15990W        W77521  30.652  13.757  14.020
15991W        W77522  16.630  24.639  13.482
15992W        W77523  22.705  35.864  11.600
15993W        W77524  37.835  43.804   2.289
15994W        W77525  17.785  15.767   0.900
15995W        W77526  23.571  44.322  13.413
15996W        W77527   6.734  32.436   1.253
15997W        W77528  18.581  20.067  10.515
15998W        W77529  44.828  13.161  13.981
15999W        W77530   0.778   9.754   3.852
16000W        W77531  13.713  24.029   1.741
16001W        W77532  11.187  20.734   3.236
16002W        W77533  23.131   4.378   3.265
16003W        W77534  33.438   2.880   1.890
16004W        W77535  44.305  16.609  11.398
16005W        W77536  36.852   8.336  13.479
16006W        W77537  14.637  43.415   0.467
16007W        W77538  13.779  17.771   2.808
16008W        W77539  25.112   3.272   4.275
16009W        W77540  31.012  21.713  11.934
16010W        W77541  39.551  16.770  12.980
16011W        W77542  43.367  18.710   2.718
16012W        W77543  14.326   2.804  14.761
16013W        W77544  13.246   2.963  12.905
16014W        W77545  32.545  38.521   0.882
16015W        W77546  17.116  19.658   1.427
16016W        W77547  44.411  43.823  10.055
16017W        W77548  38.840  26.983  13.023
16018W        W77549   3.233  23.074  12.486
16019W        W77550  10.352   9.802  10.480
16020W        W77551  23.012  16.268  14.949
16021W        W77552   1.877  15.328  12.515
16022W        W77553  37.045  28.162  14.961
16023W        W77554  20.547  37.997  13.899
16024W        W77555  17.246  19.699  13.360
16025W        W77556  16.127   5.714   3.649
16026W        W77557   4.251  43.904  10.525
16027W        W77558  11.860  32.132  10.475
16028W        W77559   1.383  43.319  11.524
16029W        W77560  15.196  12.273  13.388
16030W        W77561  27.580  15.099  12.540
16031W        W77562  42.028  38.436  11.876
16032W        W77563  43.346  24.214   3.299
16033W        W77564  12.826  26.951  14.389
16034W        W77565  14.791   1.379   0.824
16035W        W77566  20.242   8.293  14.467
16036W        W77567  37.890  34.425   1.763
16037W        W77568  11.721  18.757   1.855
16038W        W77569   1.905   6.331   2.803
16039W        W77570  14.313  27.644   3.779
16040W        W77571   8.893  33.536  13.025
16041W        W77572  22.692  15.775   3.372
16042W        W77573  41.868   1.855   2.665
16043W        W77574  18.216  32.078  13.339
16044W        W77575  40.985  30.937  10.460
16045W        W77576  12.157  26.469   4.340
16046W        W77577  20.048  10.787   4.828
16047W        W77578  32.613  36.910   1.255
16048W        W77579  36.909  19.225   4.209
16049W        W77580  25.192  22.525  12.419
16050W        W77581  31.998   9.252   1.313
16051W        W77582  31.126  16.098  13.494
16052W        W77583   2.927  34.505   1.378
16053W        W77584  30.973  16.622   1.811
16054W        W77585   0.798   9.249   0.964
16055W        W77586  28.568  13.665  12.380
16056W        W77587   2.459   9.884  13.791
16057W        W77588  36.398   2.788  10.413
16058W        W77589  38.913   1.843  13.042
16059W        W77590  14.682  44.389   3.652
16060W        W77591  18.270  22.524   2.745
16061W        W77592   4.323   2.847  13.398
16062W        W77593  41.507  34.543   3.254
16063W        W77594   6.881   1.782  10.983
16064W        W77595  32.118   6.253   0.406
16065W        W77596  25.713   3.810   2.340
16066W        W77597   3.241   0.834  11.594
16067W        W77598   0.777  40.841  12.563
16068W        W77599  12.162  38.019  11.897
16069W        W77600  20.124   0.401   3.290
16070W        W77601   5.362  42.430  14.921
16071W        W77602  37.915  34.592   0.801
16072W        W77603   2.792  43.405  11.105
16073W        W77604   1.271  43.303  14.992
16074W        W77605  15.311   2.243  14.911
16075W        W77606   2.393  10.185  10.469
16076W        W77607  37.504  26.035   1.427
16077W        W77608  24.043   9.369   4.223
16078W        W77609   5.740  20.082  12.461
16079W        W77610  44.408  36.873  11.876
16080W        W77611  29.991  15.282  11.529
16081W        W77612  24.112  24.586  14.504
16082W        W77613  10.340  44.994  13.425
16083W        W77614  32.444  15.689  13.997
16084W        W77615  25.173  20.206   4.835
16085W        W77616  26.504  25.711  12.847
16086W        W77617  14.222  30.933  12.041
16087W        W77618  37.922  21.095   4.761
16088W        W77619   0.819  20.201  12.857
16089W        W77620  16.594  35.548  10.495
16090W        W77621  10.322  21.563  11.892
16091W        W77622  32.520  21.113   0.830
16092W        W77623   6.791  31.511  13.435
16093W        W77624  29.476   1.397  11.056
16094W        W77625  43.967  36.980  12.580
16095W        W77626  35.468  44.995   1.347
16096W        W77627  31.459  41.504   2.201
16097W        W77628  33.457  41.444  14.008
16098W        W77629   0.760  20.272   0.272
16099W        W77630  23.720  43.391   3.285
16100W        W77631  30.091  11.332  14.005
16101W        W77632  35.993  16.088  11.443
16102W        W77633   2.297  28.182  10.096
16103W        W77634   4.446  44.389   1.920
16104W        W77635  28.090  40.803  14.975
16105W        W77636  41.347  30.933   2.777
16106W        W77637  42.369   6.286   4.598
16107W        W77638  27.020   3.319   4.793
16108W        W77639  40.026  20.626   4.298
16109W        W77640  21.130   7.293   4.175
16110W        W77641  37.566   4.862   2.208
16111W        W77642  13.708  21.154  14.508
16112W        W77643   5.292  33.073  14.434
16113W        W77644  16.275  40.522  14.865
16114W        W77645  35.490  11.829  11.541
16115W        W77646  29.532  24.176  13.444
16116W        W77647  39.878   1.385   2.206
16117W        W77648  11.776  31.519  14.831
16118W        W77649  25.642   4.435   1.766
16119W        W77650  36.509  27.027  10.626
16120W        W77651  32.422  15.735  13.019
16121W        W77652   9.151  26.142   2.336
16122W        W77653  35.459  36.075   9.616
16123W        W77654  10.795   8.204  14.383
16124W        W77655   2.815  17.064  10.597
16125W        W77656  25.488  11.658  12.925
16126W        W77657  21.653   1.405   0.950
16127W        W77658  20.656   5.828   1.404
16128W        W77659  27.184  40.502  14.484
16129W        W77660   4.227  10.663   2.704
16130W        W77661  18.265   3.873   1.311
16131W        W77662  33.436  42.516   5.183
16132W        W77663   3.343  44.965  11.050
16133W        W77664  11.815  35.559  14.827
16134W        W77665  25.098  20.259   3.841
16135W        W77666  42.320  12.782   4.751
16136W        W77667  12.177  16.687   3.656
16137W        W77668  24.057  12.263  10.640
16138W        W77669   2.886  26.152   0.395
16139W        W77670  44.435   2.365  12.355
16140W        W77671  10.328  33.982   3.729
16141W        W77672  29.569  25.597  12.874
16142W        W77673  38.889  28.481  14.862
16143W        W77674  23.028  40.434   3.795
16144W        W77675  12.203  11.741   4.247
16145W        W77676  39.060  35.915  13.451
16146W        W77677  41.870  19.570   2.706
16147W        W77678  17.644   9.313   1.925
16148W        W77679   5.345  36.027   4.132
16149W        W77680  29.522  32.418  10.618
16150W        W77681  27.645   6.847   2.331
16151W        W77682  36.865  13.272   0.911
16152W        W77683  17.270  20.148   1.309
16153W        W77684   8.834  20.751   3.264
16154W        W77685  17.647  15.293   3.196
16155W        W77686  25.541  40.312  14.360
16156W        W77687   8.307   2.810  12.945
16157W        W77688   3.848   4.377   2.358
16158W        W77689  17.174  12.849   2.873
16159W        W77690  35.852  41.468  10.900
16160W        W77691  37.941   5.275  13.396
16161W        W77692  27.996  26.691   2.834
16162W        W77693  17.127   0.779  14.813
16163W        W77694  21.188   0.824   0.303
16164W        W77695  29.640  33.029   4.768
16165W        W77696  44.315   7.393   1.366
16166W        W77697  29.046  17.649  12.385
16167W        W77698   3.382  27.971   0.414
16168W        W77699  40.497  43.472   3.639
16169W        W77700  25.129  28.999   2.297
16170W        W77701  42.454  21.031  11.971
16171W        W77702  44.320  27.653   4.759
16172W        W77703  43.826  27.511   2.672
16173W        W77704  38.429   8.806   0.862
16174W        W77705  38.075  13.648  14.913
16175W        W77706  28.089  27.166   0.846
16176W        W77707  35.389  35.023   0.894
16177W        W77708  37.976  21.165  14.347
16178W        W77709  26.526   7.772   2.703
16179W        W77710  43.843  36.579  14.292
16180W        W77711  36.891  37.354   3.382
16181W        W77712  26.079  15.751  14.030
16182W        W77713  31.465  38.071   2.341
16183W        W77714   9.284  44.882  11.464
16184W        W77715  23.657  34.406   0.424
16185W        W77716  37.062  12.722  13.864
16186W        W77717  33.409  26.194   2.689
16187W        W77718  25.472  15.641  10.049
16188W        W77719  15.632  15.703   3.305
16189W        W77720  44.470  12.298   4.337
16190W        W77721   7.220  12.730  10.895
16191W        W77722  41.958  12.285  13.999
16192W        W77723  28.610  12.241   5.735
16193W        W77724  33.494  22.713  11.083
16194W        W77725  13.690   6.889  14.008
16195W        W77726   2.380  19.586   3.663
16196W        W77727  30.928  25.659  12.417
16197W        W77728  13.647  14.132   3.784
16198W        W77729  23.011   4.396   3.670
16199W        W77730  15.260   5.889   3.336
16200W        W77731  31.933  44.927  14.805
16201W        W77732  27.196  43.901  12.496
16202W        W77733  29.433  40.306   4.282
16203W        W77734  28.674  30.107  10.552
16204W        W77735  30.934  40.810   4.133
16205W        W77736  39.341  35.895   1.430
16206W        W77737   0.817  15.210   0.835
16207W        W77738  34.067  30.029   4.150
16208W        W77739  29.481   0.869  13.534
16209W        W77740  24.196  18.106   3.329
16210W        W77741  28.454  29.170   4.597
16211W        W77742  40.979  21.099  11.490
16212W        W77743   3.751  41.002  10.949
16213W        W77744  19.692   8.767   1.726
16214W        W77745   2.778  25.156   3.677
16215W        W77746   2.382  21.260   4.611
16216W        W77747  25.146  19.581   4.640
16217W        W77748  43.508  29.160   3.642
16218W        W77749  40.046  35.520  12.059
16219W        W77750  11.818  37.375  12.383
16220W        W77751  20.122  33.615  14.405
16221W        W77752  40.901   7.785   0.935
16222W        W77753   9.371  37.896   1.346
16223W        W77754  21.582   7.687   0.396
16224W        W77755  15.627  30.019   0.254
16225W        W77756  37.426  18.209   0.260
16226W        W77757   6.873  42.475  13.347
16227W        W77758  17.147  29.553  11.516
16228W        W77759  15.286  39.344  12.384
16229W        W77760  42.871   1.956   2.348
16230W        W77761  31.970  25.648   4.633
16231W        W77762  13.329   3.457   0.396
16232W        W77763  27.992   2.389   1.840
16233W        W77764  21.238  34.541  10.931
16234W        W77765  31.032   8.675   0.321
16235W        W77766  34.454  15.757  11.968
16236W        W77767  20.662  20.740   0.410
16237W        W77768   9.209  16.797   0.388
16238W        W77769   7.766  28.035   5.112
16239W        W77770  29.669  11.699  14.447
16240W        W77771  27.994   7.897   2.891
16241W        W77772  39.434  17.677  10.558
16242W        W77773   9.728  35.879  12.894
16243W        W77774  40.391   0.746   1.317
16244W        W77775  39.452   6.299  11.469
16245W        W77776   1.798   4.844   3.263
16246W        W77777   6.289  17.767   4.704
16247W        W77778  15.266  32.545   4.601
16248W        W77779  17.770   5.301   4.833
16249W        W77780  12.765  19.681  13.468
16250W        W77781  18.221  22.626  14.800
16251W        W77782   1.782   6.904  10.897
16252W        W77783  31.977  35.068  14.452
16253W        W77784  42.449  16.625  10.425
16254W        W77785  44.859  22.725   0.924
16255W        W77786   2.370  15.106  11.988
16256W        W77787  12.682  43.805   0.893
16257W        W77788  19.133  44.434   2.883
16258W        W77789  31.594   7.832  13.902
16259W        W77790   4.287   0.930  13.004
16260W        W77791  25.559   4.785   3.782
16261W        W77792  44.826  23.632  13.051
16262W        W77793  41.343  38.995  13.307
16263W        W77794   4.870  25.537  14.007
16264W        W77795  37.861  33.439   1.211
16265W        W77796  44.334  19.681  11.020
16266W        W77797  27.083  26.471   0.787
16267W        W77798  32.906  33.536  13.003
16268W        W77799   7.733  44.280  10.061
16269W        W77800  11.831  27.183  12.993
16270W        W77801  36.857  24.225   3.330
16271W        W77802  20.525  36.559   0.472
16272W        W77803  43.299  29.650   4.681
16273W        W77804  10.353  24.062  14.371
16274W        W77805  38.978   8.722   4.786
16275W        W77806  35.393  34.515   4.802
16276W        W77807  12.667  11.768  14.274
16277W        W77808  17.141  40.954  14.943
16278W        W77809  18.166  17.791  11.486
16279W        W77810   1.750   9.701  10.954
16280W        W77811  14.153  32.976  14.938
16281W        W77812   1.965  44.298   2.812
16282W        W77813  12.137  14.693  13.816
16283W        W77814   9.246  16.803  10.452
16284W        W77815  31.605  41.995   0.856
16285W        W77816   9.217   9.815  13.792
16286W        W77817  42.781  13.656   3.256
16287W        W77818  20.748   4.445  10.489
16288W        W77819  37.922  25.543   0.406
16289W        W77820  23.714  21.541  13.820
16290W        W77821   0.457  10.148  13.048
16291W        W77822  43.824  10.637   1.383
16292W        W77823  17.256  38.835  11.587
16293W        W77824  27.048  39.474   4.174
16294W        W77825  27.691   0.742  14.784
16295W        W77826  38.411   1.315   3.324
16296W        W77827  23.002  13.231  11.525
16297W        W77828  33.546  19.235   9.986
16298W        W77829  43.492   2.461   0.342
16299W        W77830  12.832  12.266  12.922
16300W        W77831   1.304  32.028   0.416
16301W        W77832  35.025  40.374   3.154
16302W        W77833   8.284  34.525   2.331
16303W        W77834  23.992  28.055   4.235
16304W        W77835  40.532  29.657  14.444
16305W        W77836  12.648  19.251  13.375
16306W        W77837  41.452  19.048  14.470
16307W        W77838  16.103  11.146  10.412
16308W        W77839  13.273   5.417  13.309
16309W        W77840  10.343  30.974   5.192
16310W        W77841   4.331  15.673  11.493
16311W        W77842  15.612  40.449   1.864
16312W        W77843  10.327  30.963   9.499
16313W        W77844  18.223  40.547  12.925
16314W        W77845  33.876   7.804   1.234
16315W        W77846  37.384  28.553  11.071
16316W        W77847  23.033  28.128   4.227
16317W        W77848  37.340  26.126   2.713
16318W        W77849  41.957   3.294  11.961
16319W        W77850   6.374  44.308   4.706
16320W        W77851   7.414   8.389   3.854
16321W        W77852   4.420  39.464   0.804
16322W        W77853  19.550  32.515  12.073
16323W        W77854  42.343   6.828  11.451
16324W        W77855  42.788  34.496  14.817
16325W        W77856  38.938  40.397  12.968
16326W        W77857  26.999  43.787  11.105
16327W        W77858  39.495   4.863  14.323
16328W        W77859  40.370  22.589  11.120
16329W        W77860  20.138   7.406  12.902
16330W        W77861  40.444  38.537   4.311
16331W        W77862  23.027  44.998   3.229
16332W        W77863  33.544  16.137  13.792
16333W        W77864  13.831  39.854  10.949
16334W        W77865  19.569  42.923  14.919
16335W        W77866  17.699  29.512   3.682
16336W        W77867  19.124   4.781  10.154
16337W        W77868  42.827  29.652   2.269
16338W        W77869  30.518  13.660   0.393
16339W        W77870   2.862  28.978  13.515
16340W        W77871  36.852  25.662   4.174
16341W        W77872  17.614  27.529   4.266
16342W        W77873  42.517  17.650  13.425
16343W        W77874  29.102  42.897   3.699
16344W        W77875  43.932  14.155  13.019
16345W        W77876   8.202  27.022  11.427
16346W        W77877  27.035  43.477  12.898
16347W        W77878  17.175  39.961   4.254
16348W        W77879  25.216  20.077   2.759
16349W        W77880  37.461  16.248  12.483
16350W        W77881   1.741  18.569  11.394
16351W        W77882  16.595  24.173  13.477
16352W        W77883   7.216  12.165  14.346
16353W        W77884  10.798  35.105   1.343
16354W        W77885  10.168  27.098  11.922
16355W        W77886  36.347  29.570  14.930
16356W        W77887  18.231  28.490  12.052
16357W        W77888   7.870  33.015   2.745
16358W        W77889   3.783  23.719   3.282
16359W        W77890  37.955   0.434  14.833
16360W        W77891  32.610  44.352  14.475
16361W        W77892  16.316   5.427  13.422
16362W        W77893  11.216  11.372   2.347
16363W        W77894   7.210   0.366  12.571
16364W        W77895   8.736   2.826   1.910
16365W        W77896  42.908  19.547   1.921
16366W        W77897  32.590  31.568   3.823
16367W        W77898  43.415  34.987  11.392
16368W        W77899  30.592  27.973  13.834
16369W        W77900  15.681   5.700   3.245
16370W        W77901  24.166  28.007   3.299
16371W        W77902  23.102  34.079   3.347
16372W        W77903  42.364  18.767   4.118
16373W        W77904  24.155  35.095  14.997
16374W        W77905  19.235  14.123  11.391
16375W        W77906   2.884  13.217   3.306
16376W        W77907  23.574   8.705  10.628
16377W        W77908  36.961   1.837  13.418
16378W        W77909  24.551   7.363  14.870
16379W        W77910  42.327  13.263  10.576
16380W        W77911  38.845  24.519   3.687
16381W        W77912  19.713  25.021   0.780
16382W        W77913  37.582  39.035   0.859
16383W        W77914   3.909  43.989   4.214
16384W        W77915  12.791  34.109  13.496
16385W        W77916  33.548   3.373  14.402
16386W        W77917  38.569   7.758  10.614
16387W        W77918   9.395   3.302  11.027
16388W        W77919   0.770  29.501   4.693
16389W        W77920   8.768   4.791  10.571
16390W        W77921  25.698  42.495  12.896
16391W        W77922  15.735   6.303  12.580
16392W        W77923  44.778  38.892  12.044
16393W        W77924  34.413  35.536   5.245
16394W        W77925  38.422  29.101  14.921
16395W        W77926  43.292  33.034  12.965
16396W        W77927  20.701  30.926  12.076
16397W        W77928  13.671  21.650   4.330
16398W        W77929  23.689  14.711   2.179
16399W        W77930  26.019  27.099  10.942
16400W        W77931  29.163  15.696   4.692
16401W        W77932  14.616  15.328  12.381
16402W        W77933   9.674  31.147   2.240
16403W        W77934  32.553  14.589   0.265
16404W        W77935  20.621  17.107   0.891
16405W        W77936  42.909  25.703  11.856
16406W        W77937  20.646  23.561   1.240
16407W        W77938  20.075  14.199   4.172
16408W        W77939   3.794  12.667  11.905
16409W        W77940  38.942  41.456  11.551
16410W        W77941  33.899  27.167  14.375
16411W        W77942   1.324  25.069   3.232
16412W        W77943   9.807  34.384   3.360
16413W        W77944   0.429   2.749   1.371
16414W        W77945  35.383   5.232  12.001
16415W        W77946   9.393  19.082  13.344
16416W        W77947  11.822  16.789  12.965
16417W        W77948  28.115  30.946   5.202
16418W        W77949  31.044  43.399  13.524
16419W        W77950  32.140  10.869  11.532
16420W        W77951  14.334  19.587   5.172
16421W        W77952   7.865  38.456  13.944
16422W        W77953  11.223  39.930  13.434
16423W        W77954  17.103  16.649   4.346
16424W        W77955  20.203  27.122  10.484
16425W        W77956  26.098   8.716  14.499
16426W        W77957  39.384   5.757  14.994
16427W        W77958  38.414   0.389   4.173
16428W        W77959  31.554   0.288   2.324
16429W        W77960  34.518  29.982   1.324
16430W        W77961  39.002   1.246  11.454
16431W        W77962   2.342  22.132  14.852
16432W        W77963  41.323  15.241   3.760
16433W        W77964  44.895  10.218  11.459
16434W        W77965   5.387  14.215  13.940
16435W        W77966  27.158  18.228  12.570
16436W        W77967  39.491  35.581   2.395
16437W        W77968   0.768  14.800  10.925
16438W        W77969  12.255   5.216  14.944
16439W        W77970  10.656  30.114  14.344
16440W        W77971  11.792  36.028  10.917
16441W        W77972  38.476  10.673  14.360
16442W        W77973   7.667  20.619  12.574
16443W        W77974  36.570  23.496   2.821
16444W        W77975  17.112   4.907  11.400
16445W        W77976  26.558   8.686   4.275
16446W        W77977   4.242  32.102   1.728
16447W        W77978  37.344  19.640   1.351
16448W        W77979  22.586  11.372   0.337
16449W        W77980  39.947  21.578   1.283
16450W        W77981   0.456   6.782  12.528
16451W        W77982  23.490  18.673  14.420
16452W        W77983   9.738  44.459  10.609
16453W        W77984  31.902   8.790   2.880
16454W        W77985   6.320  22.676  11.099
16455W        W77986  15.755   7.785   4.660
16456W        W77987  28.592  19.545  13.032
16457W        W77988  41.306  39.039   0.883
16458W        W77989  40.933   1.978   0.905
16459W        W77990  15.667  32.111  11.909
16460W        W77991  35.934  26.596  12.937
16461W        W77992  20.610  11.703   1.896
16462W        W77993   2.339  16.715   0.852
16463W        W77994   3.886  38.989   1.848
16464W        W77995  16.671  32.922  11.591
16465W        W77996  44.296   6.714   4.691
16466W        W77997  23.549   1.366  14.425
16467W        W77998   4.912  42.897  14.999
16468W        W77999  22.109  27.008   4.231
16469W        W78000  14.101  31.448  10.409
16470W        W78001  24.225  27.560  13.398
16471W        W78002  18.610   9.210  12.509
16472W        W78003  37.453  25.150  13.917
16473W        W78004  37.000  26.182   2.749
16474W        W78005  26.126  21.077  14.933
16475W        W78006  31.633   4.806  13.834
16476W        W78007   1.360  20.038  12.543
16477W        W78008  41.871   9.302   4.263
16478W        W78009  22.137  19.534   2.272
16479W        W78010   8.842   2.888  14.878
16480W        W78011   8.900  10.296  10.620
16481W        W78012  26.997  22.665   0.835
16482W        W78013  37.882   9.256  13.333
16483W        W78014  33.397  36.932   5.650
16484W        W78015  34.117   7.411   2.343
16485W        W78016  40.032  15.819   1.699
16486W        W78017  29.477  10.687   3.681
16487W        W78018   5.893  28.555   3.350
16488W        W78019   9.847  24.707  13.863
16489W        W78020  23.076  17.739  14.806
16490W        W78021  26.570  31.538   9.981
16491W        W78022  10.869  31.075   4.777
16492W        W78023  27.612   5.793   0.411
16493W        W78024  21.607  32.029   4.684
16494W        W78025  44.827  35.449   3.322
16495W        W78026   0.779  34.046   1.840
16496W        W78027  22.723  31.522   1.313
16497W        W78028  35.972  21.518  12.863
16498W        W78029  43.482  31.477   4.292
16499W        W78030  25.615  37.561   4.179
16500W        W78031  24.995  18.762  14.452
16501W        W78032  36.426  12.161  13.840
16502W        W78033  18.654  23.166  11.534
16503W        W78034  18.617  39.931   1.733
16504W        W78035  36.443  44.881   4.219
16505W        W78036  23.144   0.764  13.446
16506W        W78037   6.771   3.253  12.883
16507W        W78038  10.278   8.670  12.950
16508W        W78039  20.243  23.608  11.595
16509W        W78040  40.018  11.283  13.438
16510W        W78041   6.235  14.616  10.978
16511W        W78042  28.617  21.516  10.907
16512W        W78043  12.826  25.578   2.691
16513W        W78044  35.491  27.114   4.701
16514W        W78045  18.575  24.483  14.365
16515W        W78046  33.086  40.849  11.441
16516W        W78047  21.651  20.176  13.940
16517W        W78048  41.306  35.945   0.828
16518W        W78049  32.631  13.814   2.718
16519W        W78050   2.933   3.894   4.639
16520W        W78051  39.330  24.213  11.856
16521W        W78052  20.109  30.146   0.469
16522W        W78053  44.493  14.817  11.102
16523W        W78054  37.902  36.028  10.437
16524W        W78055  10.296  11.271   0.931
16525W        W78056   9.369   0.335   5.187
16526W        W78057  11.706  14.626   0.788
16527W        W78058  31.436  22.521  10.436
16528W        W78059  12.679  44.412  10.519
16529W        W78060   3.889  43.445  14.892
16530W        W78061  43.012  19.585   3.632
16531W        W78062   6.751   1.877  14.792
16532W        W78063  36.918   7.794   1.798
16533W        W78064  15.684  33.391   2.806
16534W        W78065  28.179  20.215   4.131
16535W        W78066  42.968   3.300   1.882
16536W        W78067  15.695  22.644  14.948
16537W        W78068  26.955  19.057   2.188
16538W        W78069  26.130  33.992  14.436
16539W        W78070  23.523  27.451  14.440
16540W        W78071  10.637  43.942  12.070
16541W        W78072  42.296  35.429   1.301
16542W        W78073   6.745  25.622  11.016
16543W        W78074  38.384  20.040   4.126
16544W        W78075   4.214  14.112   1.897
16545W        W78076  32.919  35.862   0.393
16546W        W78077  33.570  11.713   1.832
16547W        W78078  19.691  13.141   4.637
16548W        W78079  17.167  25.509  10.578
16549W        W78080  40.479  24.673   2.851
16550W        W78081  20.699  42.353  10.990
16551W        W78082   1.306  22.518  10.475
16552W        W78083  14.631  20.562   3.730
16553W        W78084  39.935   3.226   4.156
16554W        W78085  27.142   7.803   1.860
16555W        W78086  15.733  29.535   4.719
16556W        W78087  34.547  16.729  13.002
16557W        W78088  16.096  44.896  12.881
16558W        W78089  41.837   2.844   2.816
16559W        W78090  28.054  15.769  13.411
16560W        W78091   6.205  13.139  12.036
16561W        W78092  19.079  30.510  13.894
16562W        W78093   4.735  16.694  14.350
16563W        W78094  19.544  28.074   0.834
16564W        W78095  36.574  41.855  11.406
16565W        W78096  33.561   0.347  13.343
16566W        W78097  15.158  16.116  10.989
16567W        W78098  11.801  21.567  14.286
16568W        W78099  23.699  40.468   1.388
16569W        W78100   1.962   0.283  11.115
16570W        W78101  30.144   4.225   4.736
16571W        W78102  16.216  15.233   4.786
16572W        W78103  14.133  19.128   4.622
16573W        W78104  29.575  44.971   3.866
16574W        W78105   4.851   9.226   3.838
16575W        W78106  41.308  41.877  11.475
16576W        W78107  38.827   0.821   4.147
16577W        W78108  25.093  12.680  12.061
16578W        W78109  40.858  39.458   2.880
16579W        W78110   9.270  35.421  12.484
16580W        W78111  15.262  32.950  12.041
16581W        W78112   3.948  25.027  11.906
16582W        W78113  41.385  27.093   2.191
16583W        W78114  28.512  17.106  11.522
16584W        W78115  29.963  17.774   4.351
16585W        W78116   2.913  29.050   1.220
16586W        W78117  31.628   0.367   0.438
16587W        W78118  30.619  33.011   1.388
16588W        W78119   4.853  13.707  12.431
16589W        W78120  26.474   6.765   2.865
16590W        W78121  16.790  34.373   3.702
16591W        W78122   3.221  36.021  14.901
16592W        W78123  13.173   9.773   1.867
16593W        W78124  35.543  34.881  14.809
16594W        W78125   3.794  23.124   1.439
16595W        W78126  10.689  31.541   3.780
16596W        W78127  17.255  12.306  11.420
16597W        W78128  12.285  36.354  14.769
16598W        W78129   8.253  39.820   2.722
16599W        W78130  40.407  26.699   0.386
16600W        W78131  28.559  27.458   3.635
16601W        W78132  31.584  28.610  14.008
16602W        W78133  11.247  32.076  14.833
16603W        W78134  28.175  11.799  12.485
16604W        W78135  11.625  28.602   0.330
16605W        W78136  10.859  40.511   2.289
16606W        W78137   1.863   8.192   1.932
16607W        W78138  40.461  12.155   1.447
16608W        W78139  39.054  13.341  13.999
16609W        W78140   7.908  30.941   2.793
16610W        W78141   1.792  30.140   1.887
16611W        W78142  10.763  44.974  10.157
16612W        W78143  30.162  43.800  14.456
16613W        W78144  28.977  35.542   2.359
16614W        W78145  41.396   5.697  12.034
16615W        W78146   2.924  27.169   2.870
16616W        W78147  36.861  42.880   2.664
16617W        W78148  15.254   0.932  13.999
16618W        W78149  27.032  18.551  11.395
16619W        W78150   4.856  15.085  11.049
16620W        W78151  27.669  42.372   2.239
16621W        W78152  23.170   6.272   1.711
16622W        W78153  35.976  39.368   1.897
16623W        W78154  31.153  23.068  11.944
16624W        W78155  34.497  21.159  12.900
16625W        W78156  26.525  41.340   2.177
16626W        W78157  26.177  43.914  14.876
16627W        W78158  35.546  30.548   1.384
16628W        W78159  26.478  19.570   1.758
16629W        W78160  27.582  15.169  14.317
16630W        W78161  26.668   9.789   0.961
16631W        W78162  15.654  27.665  12.945
16632W        W78163  17.306  39.943   0.267
16633W        W78164  38.983  42.384   0.425
16634W        W78165  33.385   3.930  14.446
16635W        W78166  18.218  36.381  14.468
16636W        W78167  23.160   3.223   4.273
16637W        W78168  22.098  19.174  11.537
16638W        W78169  41.806  11.775   1.827
16639W        W78170  30.577   5.401  11.910
16640W        W78171  18.595  38.043  10.941
16641W        W78172  12.639   8.205   0.807
16642W        W78173  38.837  26.557  13.535
16643W        W78174  30.918   2.319   1.432
16644W        W78175  15.663  40.951   3.832
16645W        W78176  39.397  43.912   3.720
16646W        W78177  11.786  18.565   3.191
16647W        W78178  22.722  11.199  10.433
16648W        W78179  15.810  29.551   3.171
16649W        W78180  29.496  38.449   3.803
16650W        W78181  19.742   3.399  14.481
16651W        W78182   1.764   7.298   0.866
16652W        W78183  29.659  43.942  12.910
16653W        W78184  27.517   0.798  10.450
16654W        W78185   0.797   3.284  12.408
16655W        W78186  25.551  36.500   3.234
16656W        W78187  22.224  21.631   1.918
16657W        W78188  43.427  26.695   2.313
16658W        W78189  29.086   4.929   1.868
16659W        W78190  26.198  20.526   2.677
16660W        W78191   7.180  41.356  12.420
16661W        W78192  19.548  37.872  14.378
16662W        W78193   6.204  31.041  11.928
16663W        W78194  37.955   8.197   2.701
16664W        W78195  33.026   8.656   4.343
16665W        W78196  13.628  12.121  11.079
16666W        W78197   9.356   6.225  14.836
16667W        W78198  38.831  29.984   1.769
16668W        W78199  21.589  38.541  12.440
16669W        W78200  37.027   7.401   1.372
16670W        W78201  14.778  29.939  11.436
16671W        W78202  11.319   4.399  11.389
16672W        W78203   7.703  26.481   2.746
16673W        W78204   2.410  12.848  12.028
16674W        W78205  13.709  21.229   1.367
16675W        W78206  42.845  33.108   4.258
16676W        W78207  19.646  33.595  12.503
16677W        W78208  41.933  43.813  12.482
16678W        W78209  23.223  10.205   4.717
16679W        W78210   7.376  14.640  14.356
16680W        W78211  41.009   3.268   5.149
16681W        W78212  39.392  39.950   3.858
16682W        W78213  44.398  38.454   2.808
16683W        W78214  17.226  29.010   4.715
16684W        W78215  32.613   6.816   2.795
16685W        W78216  13.301  17.084   4.672
16686W        W78217  43.387  19.175  14.902
16687W        W78218  28.514  17.739  11.449
16688W        W78219   4.748  18.263   2.187
16689W        W78220  35.435  14.197   0.917
16690W        W78221  20.681  25.699  13.033
16691W        W78222  36.846  27.511   3.231
16692W        W78223   3.902  30.096  13.027
16693W        W78224  26.571  22.227   1.282
16694W        W78225  34.886  26.963   2.853
16695W        W78226   3.417  32.466  12.554
16696W        W78227  39.337  37.911   4.149
16697W        W78228  36.390  43.820  14.877
16698W        W78229  30.556  30.524   0.450
16699W        W78230  44.443  14.655   1.874
16700W        W78231   8.357  38.332   1.754
16701W        W78232  24.188  10.336   2.784
16702W        W78233   9.385  29.987  10.484
16703W        W78234  31.487  11.865  12.517
16704W        W78235   9.774  28.577  12.561
16705W        W78236  10.731  19.094   4.164
16706W        W78237  18.564  15.230   3.300
16707W        W78238  32.434  36.865   1.861
16708W        W78239  18.179  33.484  10.602
16709W        W78240  26.486  41.809  11.989
16710W        W78241  17.592  18.678   4.644
16711W        W78242  25.618  20.734  13.505
16712W        W78243  40.988  11.687   1.862
16713W        W78244   5.210  39.520   2.368
16714W        W78245  39.559  40.303  14.852
16715W        W78246  39.939  21.569   3.711
16716W        W78247   5.417  20.735   3.295
16717W        W78248  44.805  14.757  10.566
16718W        W78249   9.752  19.246   1.907
16719W        W78250  17.135  36.889   0.933
16720W        W78251  14.249  32.615   3.314
16721W        W78252   3.772   7.303   0.282
16722W        W78253  28.483  16.609   4.764
16723W        W78254   3.788  44.960   0.446
16724W        W78255   7.745  23.991   2.339
16725W        W78256  39.481  14.268   4.608
16726W        W78257  24.112  28.458  13.446
16727W        W78258  44.270  44.495   2.733
16728W        W78259  38.883  34.883   3.649
16729W        W78260   7.240   2.415   0.396
16730W        W78261  33.402   5.909   1.809
16731W        W78262  34.038  13.763   4.739
16732W        W78263  16.784  31.401   3.704
16733W        W78264  23.712  32.887  12.490
16734W        W78265   1.429  14.153  12.916
16735W        W78266  16.613  31.505  12.425
16736W        W78267   7.180   3.768  14.966
16737W        W78268  14.123   4.367   0.793
16738W        W78269   3.451  28.635   4.813
16739W        W78270  18.140  39.859  12.365
16740W        W78271   3.280   4.444  10.571
16741W        W78272  35.460   6.249   2.204
16742W        W78273  41.887  33.105   4.814
16743W        W78274   2.289  23.637   5.216
16744W        W78275   8.360   5.365  13.962
16745W        W78276  38.885   9.153   1.861
16746W        W78277  16.719  17.688  10.936
16747W        W78278  15.678  15.266   0.875
16748W        W78279  16.580  13.285  12.466
16749W        W78280  28.570  22.226   3.358
16750W        W78281   4.789  39.408  11.578
16751W        W78282  21.149  13.233  13.878
16752W        W78283  16.279  10.336  10.036
16753W        W78284  38.907  15.659   0.243
16754W        W78285  12.619  14.765  11.478
16755W        W78286  10.342  41.497   1.813
16756W        W78287  34.446  19.743  14.380
16757W        W78288  37.553  23.637  13.481
16758W        W78289  40.009  31.914  13.000
16759W        W78290  35.926  14.806   3.349
16760W        W78291  30.527  35.914  13.376
16761W        W78292  19.570   6.321  12.444
16762W        W78293  39.442  13.841   1.394
16763W        W78294   0.847  14.765  12.502
16764W        W78295  12.151  21.244  14.761
16765W        W78296  40.325  39.009   9.932
16766W        W78297  25.096  40.413   1.924
16767W        W78298  16.262  21.117   3.182
16768W        W78299   6.257  44.318   5.208
16769W        W78300  31.451  42.795   3.826
16770W        W78301  23.217   7.802   3.759
16771W        W78302  27.503   6.889   0.430
16772W        W78303   2.238  27.636   4.223
16773W        W78304  31.437  28.983   3.780
16774W        W78305  36.899  34.080   4.342
16775W        W78306  42.003  15.108   1.292
16776W        W78307  29.163  22.653  14.982
16777W        W78308  41.328   6.260   1.324
16778W        W78309   1.288  34.929  11.595
16779W        W78310  39.980  12.707  12.464
16780W        W78311  30.133   3.880   0.930
16781W        W78312  10.159  19.128   1.398
16782W        W78313  21.514  22.617  13.457
16783W        W78314  42.334  41.914  10.468
16784W        W78315  35.038  19.725   4.687
16785W        W78316  28.612  29.562  11.945
16786W        W78317  14.757   5.748   4.314
16787W        W78318  20.235   6.376  10.028
16788W        W78319  36.548  26.077   1.863
16789W        W78320   1.343   4.892   0.293
16790W        W78321  42.490   5.843  10.579
16791W        W78322  34.542  44.951   0.774
16792W        W78323  14.610  37.875   3.223
16793W        W78324  10.161  37.515   4.615
16794W        W78325   6.204  15.106  12.050
16795W        W78326   8.709  27.024   2.404
16796W        W78327  28.471  23.670  11.967
16797W        W78328   4.914  11.698   5.186
16798W        W78329  40.396   1.300   1.831
16799W        W78330  39.359  14.143   4.178
16800W        W78331  30.136  16.576  10.132
16801W        W78332  12.670  34.107  10.533
16802W        W78333   3.263  39.843  12.376
16803W        W78334  32.023   9.807   5.738
16804W        W78335  35.469   2.229  14.388
16805W        W78336  11.786  44.774   1.774
16806W        W78337  21.181  10.194  13.350
16807W        W78338  10.372   6.759   3.218
16808W        W78339   8.769  13.172  12.068
16809W        W78340  10.303  33.992  13.419
16810W        W78341   9.879  32.946  14.013
16811W        W78342  12.166  44.363  13.355
16812W        W78343  34.030   6.834  13.315
16813W        W78344  29.134  16.157   1.931
16814W        W78345  10.792  39.552  14.002
16815W        W78346  38.926  38.855   0.261
16816W        W78347   9.816   0.343   1.783
16817W        W78348  31.526  39.333   1.843
16818W        W78349  41.993   6.824   3.327
16819W        W78350  22.185  35.988  13.523
16820W        W78351  27.076  15.769  14.826
16821W        W78352  21.226  16.088   0.339
16822W        W78353  19.199  32.587   3.698
16823W        W78354  32.999  11.297  10.487
16824W        W78355  28.989  22.559  11.400
16825W        W78356  35.485   6.789  11.057
16826W        W78357   9.189  16.298   0.319
16827W        W78358  15.257  33.946   0.956
16828W        W78359  27.461  38.930  14.428
16829W        W78360   9.852  37.018  14.289
16830W        W78361  35.517  30.449   0.409
16831W        W78362   8.179  31.475   2.871
16832W        W78363  28.457  34.043   4.157
16833W        W78364  29.019  32.957  13.488
16834W        W78365   5.741  39.553   0.770
16835W        W78366  31.031  22.084   0.374
16836W        W78367   9.840   0.910   2.339
16837W        W78368  11.670  43.389   0.416
16838W        W78369   1.467   1.379   3.350
16839W        W78370  40.540  39.978   1.345
16840W        W78371  27.460  43.981  13.340
16841W        W78372  21.572   5.932  14.015
16842W        W78373  31.978  36.914  11.576
16843W        W78374   4.265   3.453  10.910
16844W        W78375  12.178  29.110   3.312
16845W        W78376   2.951  41.861   0.282
16846W        W78377   9.185  34.938   5.114
16847W        W78378   4.208  41.360  11.403
16848W        W78379  22.085  34.479  11.991
16849W        W78380  27.589  39.974   3.298
16850W        W78381  28.437  10.761   0.769
16851W        W78382   8.276  37.972  13.011
16852W        W78383  14.744  24.063  11.396
16853W        W78384  24.158  29.570   0.309
16854W        W78385  26.952  15.193  12.041
16855W        W78386  37.935  15.593  14.031
16856W        W78387  12.214  20.197  13.455
16857W        W78388  16.314  30.446   4.278
16858W        W78389  39.361  30.515   4.704
16859W        W78390  34.039  29.480  12.002
16860W        W78391   3.936  15.636  12.378
16861W        W78392  10.378  21.579   0.834
16862W        W78393  38.863   0.890  14.797
16863W        W78394   8.200  33.495   3.745
16864W        W78395   2.913  38.072  10.985
16865W        W78396   1.330  16.090  14.290
16866W        W78397  25.544  34.967  10.950
16867W        W78398  29.965  29.079   2.284
16868W        W78399  19.267  22.593   1.221
16869W        W78400  41.501   9.315  11.091
16870W        W78401  19.631  24.000   3.816
16871W        W78402  13.106  22.523   0.245
16872W        W78403  32.547   7.243   0.807
16873W        W78404   1.760  18.110   1.403
16874W        W78405  12.362  31.101   2.186
16875W        W78406  22.686  31.949   1.761
16876W        W78407   1.266  16.161  13.322
16877W        W78408  17.257   3.267  13.414
16878W        W78409  15.128   1.924   2.275
16879W        W78410  10.678  23.628   1.215
16880W        W78411  19.168  31.602   2.797
16881W        W78412  24.483  34.459  13.526
16882W        W78413   4.340  37.949  13.911
16883W        W78414  22.057  11.144   4.785
16884W        W78415  29.436  27.513  14.910
16885W        W78416  42.928  13.693   1.911
16886W        W78417  40.455  29.491   2.405
16887W        W78418   3.379  12.789   0.930
16888W        W78419  28.641  31.595  11.028
16889W        W78420   1.829  29.487  11.109
16890W        W78421  28.077   1.858   2.682
16891W        W78422  24.008   6.361   1.227
16892W        W78423  23.228   9.687   0.910
16893W        W78424   2.295  33.413  11.400
16894W        W78425  31.445   8.700  12.032
16895W        W78426   0.784  34.886  14.879
16896W        W78427  13.668  17.065   0.276
16897W        W78428  16.799  22.097   0.421
16898W        W78429   6.720  37.394   0.960
16899W        W78430  11.284  43.282  14.914
16900W        W78431  44.369  26.473   4.184
16901W        W78432  10.326   0.441   1.389
16902W        W78433  14.234   7.681  10.953
16903W        W78434  21.241  38.072   5.622
16904W        W78435   9.336  16.278   3.361
16905W        W78436  38.074  41.452   4.126
16906W        W78437   0.255  32.572   2.864
16907W        W78438  24.496  33.103  10.108
16908W        W78439  34.538  21.154  14.865
16909W        W78440  35.505  21.208  12.521
16910W        W78441  36.078  29.054   0.852
16911W        W78442  44.486  31.142  12.374
16912W        W78443  30.088  31.911   2.205
16913W        W78444  44.290  22.130   0.836
16914W        W78445  27.066   0.968  12.416
16915W        W78446   2.327  16.260   2.262
16916W        W78447  43.968  24.204  12.914
16917W        W78448  37.550  26.122   4.837
16918W        W78449   3.282  38.999   1.443
16919W        W78450  38.064  28.032   0.425
16920W        W78451  13.215   5.725  13.501
16921W        W78452  16.203  32.624  11.521
16922W        W78453  12.252   0.933   3.204
16923W        W78454  34.100  39.490  14.759
16924W        W78455  33.608  41.850   2.225
16925W        W78456  21.626   4.246   1.735
16926W        W78457  10.847   8.193   2.793
16927W        W78458   1.309   5.743   2.239
16928W        W78459  18.611  35.427  11.991
16929W        W78460   9.888   6.396   1.334
16930W        W78461  26.171  24.583  11.026
16931W        W78462  27.677  39.864  13.006
16932W        W78463  36.392   0.494   3.846
16933W        W78464  39.012  41.933  13.857
16934W        W78465  42.291  37.430  12.418
16935W        W78466   0.322  38.052  12.840
16936W        W78467  29.467  13.833  12.967
16937W        W78468  10.183  16.569   3.366
16938W        W78469  34.978  15.739   0.888
16939W        W78470  38.062  33.026   2.733
16940W        W78471  12.147  41.818  14.814
16941W        W78472  31.606   1.833   4.125
16942W        W78473  22.076  17.686   4.663
16943W        W78474  44.336  15.103   1.705
16944W        W78475  41.526  32.509  11.940
16945W        W78476   0.854  44.400  11.090
16946W        W78477  17.688  14.245   2.778
16947W        W78478   5.870   3.801  13.845
16948W        W78479  23.237  32.028  13.984
16949W        W78480  26.629   8.251   1.314
16950W        W78481  28.507  21.142   2.782
16951W        W78482   9.680  11.755  11.990
16952W        W78483   6.896  29.921   4.639
16953W        W78484   6.397  28.102   1.752
16954W        W78485  25.149  27.997  11.913
16955W        W78486  27.042  32.088   3.317
16956W        W78487  35.058  25.218   2.685
16957W        W78488  31.431  29.006   3.253
16958W        W78489  33.412  29.954  11.428
16959W        W78490  30.618  43.947   0.320
16960W        W78491  24.498  28.669   5.653
16961W        W78492  28.117   3.792  12.096
16962W        W78493  14.627  20.722   4.676
16963W        W78494  34.490  33.482  13.858
16964W        W78495  31.019  12.743   1.300
16965W        W78496  29.616  15.279  12.444
16966W        W78497  19.577  12.806  13.457
16967W        W78498  39.827  24.178  10.618
16968W        W78499  14.122  28.970   0.867
16969W        W78500  10.774   3.731   0.840
16970W        W78501   1.278   0.946   2.339
16971W        W78502  43.945  27.059   1.698
16972W        W78503  40.929   9.726   3.715
16973W        W78504  42.970  12.843   2.300
16974W        W78505  35.962   5.845   0.288
16975W        W78506  32.081  18.157  13.861
16976W        W78507  44.331  33.593   1.740
16977W        W78508  35.459  29.618   3.340
16978W        W78509  22.112  25.099   3.167
16979W        W78510  20.660  33.477   3.685
16980W        W78511  18.191  28.101   4.836
16981W        W78512  39.373  38.424   3.656
16982W        W78513   7.395  15.756   1.704
16983W        W78514  13.305   4.418  13.961
16984W        W78515  28.118  38.857   1.840
16985W        W78516   4.817  14.716   4.134
16986W        W78517   6.725  28.935  14.819
16987W        W78518  15.266  13.264  12.507
16988W        W78519  24.114  18.657   3.759
16989W        W78520   9.369   1.344   0.304
16990W        W78521  26.644  32.085   0.288
16991W        W78522   0.343  40.524  13.931
16992W        W78523  41.995   3.347   1.866
16993W        W78524  44.337  15.593   2.384
16994W        W78525  16.211   3.875   1.230
16995W        W78526   1.785  34.578   3.715
16996W        W78527  33.082  15.682   3.308
16997W        W78528  44.301  20.752   0.923
16998W        W78529  27.564  38.351  10.482
16999W        W78530  12.743  42.996   3.348
17000W        W78531   9.379  44.414  13.812
17001W        W78532  33.584  18.265   5.215
17002W        W78533   2.392   0.768  14.908
17003W        W78534  18.224  35.055  13.880
17004W        W78535  38.951  41.915  12.915
17005W        W78536  42.297   4.356  13.843
17006W        W78537  22.642  15.214  11.917
17007W        W78538  12.811   9.349   3.840
17008W        W78539  43.345  21.202  14.002
17009W        W78540  33.032  27.094  14.761
17010W        W78541  21.157  36.017  12.916
17011W        W78542  44.754  21.181   1.835
17012W        W78543  16.721  42.032   4.316
17013W        W78544  17.133  44.984   4.129
17014W        W78545   5.352  23.702  14.872
17015W        W78546   2.456  31.049  13.452
17016W        W78547   2.793  14.653   2.851
17017W        W78548  22.080  22.173  11.032
17018W        W78549  11.219  25.512   3.341
17019W        W78550  10.871  35.973   2.391
17020W        W78551  16.121  37.875   1.698
17021W        W78552  13.723  11.336   1.736
17022W        W78553  32.928  26.203   0.395
17023W        W78554  14.305  43.511  10.567
17024W        W78555   2.787  41.464  12.073
17025W        W78556  25.051  24.542  14.474
17026W        W78557   3.824  38.354  14.514
17027W        W78558  12.704   6.819   4.664
17028W        W78559  33.913  35.560   2.834
17029W        W78560  32.121  33.091   0.465
17030W        W78561  38.456   3.937  11.887
17031W        W78562  38.546  41.538   2.244
17032W        W78563  43.997   0.979   1.827
17033W        W78564  18.276  25.565  14.283
17034W        W78565  25.513  43.777   4.285
17035W        W78566   5.902  10.147   2.825
17036W        W78567  44.263  28.564  12.847
17037W        W78568   4.409  21.080   4.618
17038W        W78569  21.561  42.327  12.083
17039W        W78570   1.441  24.723  12.469
17040W        W78571  21.205  24.615  14.841
17041W        W78572   3.910  33.443  13.349
17042W        W78573  29.974  38.871  10.532
17043W        W78574   6.280  37.031   4.132
17044W        W78575   1.754  29.610  13.535
17045W        W78576  43.927  30.046  14.881
17046W        W78577   8.804  43.928  13.459
17047W        W78578  17.673  25.665  11.039
17048W        W78579  42.790  31.533   3.341
17049W        W78580  16.192   7.319   0.316
17050W        W78581   8.277  30.422   2.844
17051W        W78582  41.820  13.206   2.731
17052W        W78583  41.300  16.695   2.897
17053W        W78584   9.216  35.598  10.419
17054W        W78585  36.032  27.629   1.338
17055W        W78586  11.682  42.486  13.878
17056W        W78587   2.297   1.906  14.428
17057W        W78588  14.783  31.455  13.835
17058W        W78589   4.874  30.118  12.860
17059W        W78590   6.395  44.966  13.827
17060W        W78591  11.757  30.627   9.590
17061W        W78592  17.084  18.631   2.826
17062W        W78593   1.894  18.277  11.857
17063W        W78594  27.621  32.939  14.857
17064W        W78595  15.263  26.472   1.698
17065W        W78596  36.997  17.275  10.979
17066W        W78597   6.823   4.209   3.634
17067W        W78598  34.087   4.446   3.834
17068W        W78599  17.784  28.976   2.394
17069W        W78600  34.573   8.304   3.188
17070W        W78601  41.020  40.049   2.750
17071W        W78602   6.762  40.815  12.065
17072W        W78603  21.020  41.499   1.855
17073W        W78604  43.931  11.792   2.751
17074W        W78605   2.862   1.370   4.802
17075W        W78606  11.717  22.526   0.480
17076W        W78607  39.951  38.896   4.720
17077W        W78608  19.680   5.734   4.730
17078W        W78609  32.409  39.382   0.937
17079W        W78610  32.578   2.838  12.485
17080W        W78611  10.212  36.915   4.831
17081W        W78612  22.697  14.823   1.279
17082W        W78613  19.120  19.538   1.337
17083W        W78614   6.914  44.431  13.792
17084W        W78615  23.623   4.291  14.839
17085W        W78616  41.439   0.756  13.981
17086W        W78617   4.357  31.578  13.905
17087W        W78618  42.942  15.602   2.187
17088W        W78619  31.087   2.830  11.098
17089W        W78620   2.375  15.170   3.312
17090W        W78621  10.878  18.680   2.195
17091W        W78622  14.745  36.373  10.508
17092W        W78623  28.480  13.630   1.420
17093W        W78624  22.588   5.233   4.833
17094W        W78625  34.955  12.848   0.277
17095W        W78626  23.119   3.294  13.960
17096W        W78627  20.233   8.855  12.059
17097W        W78628   3.765  37.457  11.910
17098W        W78629  42.907  21.534  13.454
17099W        W78630   7.842   7.206   4.208
17100W        W78631   0.837  23.628  13.482
17101W        W78632   0.361  20.043   1.323
17102W        W78633   0.443  43.415   1.347
17103W        W78634  30.972  23.521  11.607
17104W        W78635   7.412  17.772   4.709
17105W        W78636  34.411  29.048  14.461
17106W        W78637   0.871  21.153  14.810
17107W        W78638  18.690  32.468  12.067
17108W        W78639  10.724  41.421   1.339
17109W        W78640  11.627  36.468  11.465
17110W        W78641  33.465  31.105   0.883
17111W        W78642  16.188   7.787   0.359
17112W        W78643  34.883   1.841  13.802
17113W        W78644  41.451  31.044  13.876
17114W        W78645  22.219  17.164   4.685
17115W        W78646  34.378   0.454   0.785
17116W        W78647  28.043  18.127   2.741
17117W        W78648  14.646   7.259   0.728
17118W        W78649   9.802  31.035  12.855
17119W        W78650  35.567   2.445  11.553
17120W        W78651  21.136  44.839   0.415
17121W        W78652  25.129  12.198  10.611
17122W        W78653   2.895  24.996  12.409
17123W        W78654  37.054  19.682  12.056
17124W        W78655  24.715  14.299  14.325
17125W        W78656  28.056   3.884   4.127
17126W        W78657  36.076  37.077   2.785
17127W        W78658  38.005   9.247   0.308
17128W        W78659  38.039  23.711   3.865
17129W        W78660  38.432  28.504  14.765
17130W        W78661  23.568  11.209  14.475
17131W        W78662  41.427  13.738   2.193
17132W        W78663  26.509  13.688  12.909
17133W        W78664  15.284  40.408  10.899
17134W        W78665  25.584  33.595  12.474
17135W        W78666  38.401  28.086  13.888
17136W        W78667  38.479  21.638   1.395
17137W        W78668  37.082  43.509  13.822
17138W        W78669  43.479  31.960  14.308
17139W        W78670  22.574  33.525   9.992
17140W        W78671  18.289  27.650   9.947
17141W        W78672  27.125  26.586  14.328
17142W        W78673  13.338  43.766   3.748
17143W        W78674  22.229   0.259  13.948
17144W        W78675  27.184   8.281  10.898
17145W        W78676  43.976  11.807  14.310
17146W        W78677  34.541  23.646  13.844
17147W        W78678  22.009  30.582   1.702
17148W        W78679  40.531  42.820  11.415
17149W        W78680   4.874   8.690   0.418
17150W        W78681  27.070  21.151  13.430
17151W        W78682  17.589   5.888   3.386
17152W        W78683  16.211  12.839   3.775
17153W        W78684  13.657  13.638  13.526
17154W        W78685  19.244  19.624  14.770
17155W        W78686  44.281  12.655   2.710
17156W        W78687  43.323  19.610  14.467
17157W        W78688  36.912  39.024  10.981
17158W        W78689  35.878   7.248  11.605
17159W        W78690   8.164  33.379   0.400
17160W        W78691  29.548  34.462  14.002
17161W        W78692  31.414  44.847   1.257
17162W        W78693  14.743   0.344   0.293
17163W        W78694  34.062  14.258  10.999
17164W        W78695  39.991  25.111   0.825
17165W        W78696  43.832  31.079  10.904
17166W        W78697  37.876  24.510   0.790
17167W        W78698  29.668  33.554   1.761
17168W        W78699  30.431  20.060   2.395
17169W        W78700  33.954  39.543  13.483
17170W        W78701   4.809  12.204   0.341
17171W        W78702   4.941   3.955   3.691
17172W        W78703  26.953  44.777  14.303
17173W        W78704  25.540  31.433   1.324
17174W        W78705  20.117  13.792   0.442
17175W        W78706  43.934  26.483   2.734
17176W        W78707  27.505  36.899  12.036
17177W        W78708  24.481  35.542  13.809
17178W        W78709  32.934  12.307  12.393
17179W        W78710  17.254   2.770   4.332
17180W        W78711  14.662   3.424  13.023
17181W        W78712  15.184   1.429  11.395
17182W        W78713  24.586   4.354  10.924
17183W        W78714  12.785  26.999   0.478
17184W        W78715  28.984  39.045   1.355
17185W        W78716  17.688   6.349  10.432
17186W        W78717  15.143   9.709  12.341
17187W        W78718   8.748  28.972  14.477
17188W        W78719  41.496  42.399  13.057
17189W        W78720  26.643  29.118  14.304
17190W        W78721  11.849   4.760  12.531
17191W        W78722  33.489  26.964   0.406
17192W        W78723  37.984   5.394  11.386
17193W        W78724  36.856  37.520   2.849
17194W        W78725   9.361  19.755   4.339
17195W        W78726  11.213  36.394   1.697
17196W        W78727   1.477  13.815  14.012
17197W        W78728  25.561   4.720  11.858
17198W        W78729  12.661  43.514  10.577
17199W        W78730  41.815   9.225   3.210
17200W        W78731  24.188  12.249   0.922
17201W        W78732   6.270   1.296  14.359
17202W        W78733   7.900  26.637  13.519
17203W        W78734  40.054  35.943   1.280
17204W        W78735   3.409  38.560   2.305
17205W        W78736  14.119   1.924  11.056
17206W        W78737  32.522   3.286   3.830
17207W        W78738  30.428  36.859   4.809
17208W        W78739  43.485   0.796  10.921
17209W        W78740  10.193  27.972   1.847
17210W        W78741  37.538  41.512   3.383
17211W        W78742  23.114   1.350   0.732
17212W        W78743  33.574  32.920  12.472
17213W        W78744  29.098  21.637  12.388
17214W        W78745  36.435  32.978  14.926
17215W        W78746   0.967  37.342  13.485
17216W        W78747  35.584  11.364  12.357
17217W        W78748  36.571  23.046   2.266
17218W        W78749  16.772   6.730   2.183
17219W        W78750  40.890  42.285   1.313
17220W        W78751   7.192  10.301  13.385
17221W        W78752  44.787   2.735   0.399
17222W        W78753   1.391   0.793   1.396
17223W        W78754  15.305  24.047   3.259
17224W        W78755   1.898  42.330  12.500
17225W        W78756  31.500  29.939   3.282
17226W        W78757  28.539   4.315   3.800
17227W        W78758  41.990  12.130  14.424
17228W        W78759  43.886  29.005   0.812
17229W        W78760  13.133  16.262   1.351
17230W        W78761  14.332  30.472  14.833
17231W        W78762  40.958  39.862  11.949
17232W        W78763  26.457  28.096   0.761
17233W        W78764   4.206  22.127   4.163
17234W        W78765  21.021  34.606  12.408
17235W        W78766   6.734  42.950   1.262
17236W        W78767   6.741  25.016  11.859
17237W        W78768  10.246  16.256  14.309
17238W        W78769  26.513  23.499   2.829
17239W        W78770  24.979  40.875   4.602
17240W        W78771  41.461  13.672   0.308
17241W        W78772  17.265   0.287   0.316
17242W        W78773   0.289   4.818   2.836
17243W        W78774  34.587  28.068   4.216
17244W        W78775  16.218   6.718  14.026
17245W        W78776  43.802  21.727  14.381
17246W        W78777  35.895  11.628  13.381
17247W        W78778  26.622  42.941   3.243
17248W        W78779  31.062  26.166   4.200
17249W        W78780  40.345   3.881   0.246
17250W        W78781  34.410  35.905   9.667
17251W        W78782   6.783  18.273   2.233
17252W        W78783   2.260  12.790   3.752
17253W        W78784  40.830  44.264   3.797
17254W        W78785  19.167  26.072  13.912
17255W        W78786  43.411   7.702  14.292
17256W        W78787   1.464  33.917  13.887
17257W        W78788  14.673   4.766  13.401
17258W        W78789  25.068  20.757   4.712
17259W        W78790  40.973  15.272  13.954
17260W        W78791  33.123   2.873  10.592
17261W        W78792  39.832  31.973   3.337
17262W        W78793   8.843   7.767   2.893
17263W        W78794  40.914  15.692   2.377
17264W        W78795  13.132  40.350  10.642
17265W        W78796  10.767  39.035  13.367
17266W        W78797  44.883  26.992   3.710
17267W        W78798  28.999  38.840  11.053
17268W        W78799  13.221  27.668   3.170
17269W        W78800  43.883  13.254   3.640
17270W        W78801   3.304  28.168  11.372
17271W        W78802   3.354  29.996  13.435
17272W        W78803  24.629  44.789   0.807
17273W        W78804  36.590  38.558  10.546
17274W        W78805   6.375  18.627   4.313
17275W        W78806  22.137  16.223   1.762
17276W        W78807   7.840  43.844  13.432
17277W        W78808  15.604   7.330  10.508
17278W        W78809  27.991  42.935   2.877
17279W        W78810  16.230   8.793   4.722
17280W        W78811  34.043  33.049  10.948
17281W        W78812  17.292   3.886  14.900
17282W        W78813  32.962  14.614   1.393
17283W        W78814  18.786  19.659   2.306
17284W        W78815  30.534  30.443  11.612
17285W        W78816  38.053   6.799   3.841
17286W        W78817  26.081  22.223   0.800
17287W        W78818  39.875  36.364   1.826
17288W        W78819  12.775  41.831   4.639
17289W        W78820   5.929  25.020  13.866
17290W        W78821   5.212  36.367   0.481
17291W        W78822  44.314  43.465  13.880
17292W        W78823   4.345  35.989   2.859
17293W        W78824   4.724   7.413  13.948
17294W        W78825  21.725  36.493  13.385
17295W        W78826  10.341  39.031  13.926
17296W        W78827  15.716  36.903   3.698
17297W        W78828  41.895  32.458  12.394
17298W        W78829   3.226  36.018  11.523
17299W        W78830   4.807  16.218  10.467
17300W        W78831  24.669  28.518  11.419
17301W        W78832  38.523  30.619   2.212
17302W        W78833   2.252  44.788  13.431
17303W        W78834  18.239  41.529   2.357
17304W        W78835  12.160   0.763  10.918
17305W        W78836  31.438  33.122  14.482
17306W        W78837  26.582  31.021   3.337
17307W        W78838   6.851  32.952  14.778
17308W        W78839  43.505  39.846  13.029
17309W        W78840  20.589  16.115   3.644
17310W        W78841  10.259  13.112   2.727
17311W        W78842   2.255  28.991  13.512
17312W        W78843  12.664  29.050   3.860
17313W        W78844  19.631  41.476  14.357
17314W        W78845   6.216  15.620  10.014
17315W        W78846  41.934  23.711  10.968
17316W        W78847  24.180  27.526   2.848
17317W        W78848  26.133   1.965  11.018
17318W        W78849  11.272  25.664  11.388
17319W        W78850  22.527  28.951  11.953
17320W        W78851  38.526  36.437  11.894
17321W        W78852  18.227  36.554   3.783
17322W        W78853   3.927   9.389  14.845
17323W        W78854  34.558   1.382  10.619
17324W        W78855  38.850  15.186   0.747
17325W        W78856  40.017  10.217   2.336
17326W        W78857  21.626   6.683  11.491
17327W        W78858  14.214  12.626   4.196
17328W        W78859  23.180  23.183  10.407
17329W        W78860  35.888   7.835   2.753
17330W        W78861  16.611   7.891   1.293
17331W        W78862  30.598  12.342  10.491
17332W        W78863  24.119   8.752   5.206
17333W        W78864  18.076  15.701   3.334
17334W        W78865   9.709   5.860   1.704
17335W        W78866  19.168  29.600   0.931
17336W        W78867  30.439   3.757   0.324
17337W        W78868  31.547  15.288   2.410
17338W        W78869   6.417  11.686  13.324
17339W        W78870  34.069  18.140   4.677
17340W        W78871   2.456   4.899   4.679
17341W        W78872  27.545  21.069  11.884
17342W        W78873  24.512  19.687  13.929
17343W        W78874   0.341  43.340  12.013
17344W        W78875  30.919   1.790  13.050
17345W        W78876  30.975  26.658  11.857
17346W        W78877  35.390  28.026  13.932
17347W        W78878  20.703  11.135   4.135
17348W        W78879   9.696  15.099   2.880
17349W        W78880   1.440  10.763  12.380
17350W        W78881  35.367  25.664  12.523
17351W        W78882  17.714  21.244  10.936
17352W        W78883   1.440  29.501  14.900
17353W        W78884  41.032  15.219  12.000
17354W        W78885   9.314  38.973   3.712
17355W        W78886  16.723   0.816   0.383
17356W        W78887  40.972   9.743  11.556
17357W        W78888   1.448  25.099  13.991
17358W        W78889  33.601  19.583  14.417
17359W        W78890   0.908  29.966  14.476
17360W        W78891   5.746   6.357   2.414
17361W        W78892   1.421   0.877  12.853
17362W        W78893  22.557  36.042  10.140
17363W        W78894   7.299  14.135  10.504
17364W        W78895  37.942  13.720  12.507
17365W        W78896  29.037  42.990  14.388
17366W        W78897  37.840  34.001   0.475
17367W        W78898  28.053  34.597   1.789
17368W        W78899  14.124  26.478   2.215
17369W        W78900  10.777  40.833   4.601
17370W        W78901  33.444  17.690   5.222
17371W        W78902  35.096  32.098  11.409
17372W        W78903  10.380  43.310   3.324
17373W        W78904  21.132  33.113   4.193
17374W        W78905  10.827  39.045  14.362
17375W        W78906   1.852  14.782  14.325
17376W        W78907  44.782  19.188   0.752
17377W        W78908  36.410   0.965   1.239
17378W        W78909  25.005  25.074   0.731
17379W        W78910  24.117  44.439   1.745
17380W        W78911  20.039  35.930   0.915
17381W        W78912  41.304  22.054   3.730
17382W        W78913  39.502   6.858  12.469
17383W        W78914  14.240  17.702   4.301
17384W        W78915  22.129  39.506  11.948
17385W        W78916   2.906  37.080   4.723
17386W        W78917   8.780  44.297   3.696
17387W        W78918  40.830  36.030  14.277
17388W        W78919  32.607  25.522  10.516
17389W        W78920  38.058  25.500  11.456
17390W        W78921  37.901  39.346   4.189
17391W        W78922  20.038  11.861  11.539
17392W        W78923  31.526  18.719  11.081
17393W        W78924  18.715  11.791   0.818
17394W        W78925   9.722  23.620   2.412
17395W        W78926  44.306  10.837   2.353
17396W        W78927   6.265  24.602  13.873
17397W        W78928  38.456   5.925   2.350
17398W        W78929  31.954  27.094  12.458
17399W        W78930  30.044  24.045   4.650
17400W        W78931  18.642  19.614  13.000
17401W        W78932   7.235  44.311  11.484
17402W        W78933   8.327  11.667  12.482
17403W        W78934  20.090  18.566  10.961
17404W        W78935  16.088  38.827  13.479
17405W        W78936  22.552  18.747   5.082
17406W        W78937   0.928   2.927   4.175
17407W        W78938   6.271  38.016  11.611
17408W        W78939  25.161  33.118  14.390
17409W        W78940  21.653  42.881   2.319
17410W        W78941   9.310   0.914  14.775
17411W        W78942  37.562  42.794  12.459
17412W        W78943  26.700  15.115  14.283
17413W        W78944  43.503  40.350   3.350
17414W        W78945  29.144  16.764   0.929
17415W        W78946  31.069  25.095   1.766
17416W        W78947   0.491  21.651   3.773
17417W        W78948   8.875   9.291  14.458
17418W        W78949   4.906  23.064   0.311
17419W        W78950  38.952   0.883   2.878
17420W        W78951  12.181  12.739  10.903
17421W        W78952  14.324  37.950  14.395
17422W        W78953   8.706  41.878   4.128
17423W        W78954  22.021  42.427  12.019
17424W        W78955  21.102  37.024  11.009
17425W        W78956  38.425  31.117   2.790
17426W        W78957   9.729   0.891   0.343
17427W        W78958  20.054   5.798  12.068
17428W        W78959  25.991   1.298  11.552
17429W        W78960   7.799  16.686   1.796
17430W        W78961  32.567  31.494  11.603
17431W        W78962  15.296  14.305  13.500
17432W        W78963   3.833  22.623  11.001
17433W        W78964  17.662  10.236  13.324
17434W        W78965  19.184  16.631  14.407
17435W        W78966  29.505   9.844  12.536
17436W        W78967  24.065  33.593   4.241
17437W        W78968   7.815  30.974   3.351
17438W        W78969  18.260  41.945  14.362
17439W        W78970   7.367  30.052  11.919
17440W        W78971  16.626  41.015  11.872
17441W        W78972   1.275  35.854   0.793
17442W        W78973  37.422  35.856  10.133
17443W        W78974  29.106  25.972  11.928
17444W        W78975   5.759  41.820  13.449
17445W        W78976  41.496  43.867   3.240
17446W        W78977  10.312   1.922   3.374
17447W        W78978  25.572   0.468   4.713
17448W        W78979  35.073  34.404   5.091
17449W        W78980  17.277  30.970   0.868
17450W        W78981  28.550   7.893  10.610
17451W        W78982  30.030  42.928  13.376
17452W        W78983  41.969  15.810   1.312
17453W        W78984  25.219   4.781   5.190
17454W        W78985   3.835   5.914  10.440
17455W        W78986  25.160  27.509   2.187
17456W        W78987  38.404  14.142  12.910
17457W        W78988  16.130   4.279   4.769
17458W        W78989  29.063  13.720   3.213
17459W        W78990  34.034   6.232  11.913
17460W        W78991  22.592  26.124   1.747
17461W        W78992   1.363  11.288  14.282
17462W        W78993  43.842  10.672   3.859
17463W        W78994   8.399  35.368   2.331
17464W        W78995  39.048  34.018   1.896
17465W        W78996  44.467  39.484   0.885
17466W        W78997  43.777  19.049   0.832
17467W        W78998  43.005  38.021  11.871
17468W        W78999  20.687   6.703  10.912
17469W        W79000   2.266  44.346   3.631
17470W        W79001  40.979  37.530   2.682
17471W        W79002  11.164   6.239   0.809
17472W        W79003  22.199  32.490  14.315
17473W        W79004  24.615  22.203  14.967
17474W        W79005  32.057  33.457   2.846
17475W        W79006  12.309  34.565  13.420
17476W        W79007   3.421  22.080   3.832
17477W        W79008  30.591  37.910   0.756
17478W        W79009   2.344  33.966   4.610
17479W        W79010   5.929  42.284  13.827
17480W        W79011  35.995   3.752   1.873
17481W        W79012  27.566  17.647  13.957
17482W        W79013  42.910  13.738  11.573
17483W        W79014   2.429  38.001   1.762
17484W        W79015   7.699   4.752  13.911
17485W        W79016  33.015  24.994   4.620
17486W        W79017  13.247  21.564   2.325
17487W        W79018  23.132  43.994   0.450
17488W        W79019  31.495  14.262  14.854
17489W        W79020  35.370  27.505  12.969
17490W        W79021   5.204  42.346   2.381
17491W        W79022  24.161  13.316  14.444
17492W        W79023  33.463  37.044   0.387
17493W        W79024  27.132  34.059  11.048
17494W        W79025  27.644  31.518  12.879
17495W        W79026  44.902  26.037  10.509
17496W        W79027  16.686  29.107  11.912
17497W        W79028  41.878  44.809   3.681
17498W        W79029  28.969  13.634   1.444
17499W        W79030  36.405  25.089  12.946
17500W        W79031   7.791  38.523  13.423
17501W        W79032  33.415  34.088  11.031
17502W        W79033  41.351   2.809   3.283
17503W        W79034  33.401  31.580   0.310
17504W        W79035  42.995   9.683  10.452
17505W        W79036  17.633  23.598  13.458
17506W        W79037  12.651   5.737  11.926
17507W        W79038  25.106  40.034   1.440
17508W        W79039  25.081  12.166  11.929
17509W        W79040  27.669   9.378  12.545
17510W        W79041  39.544  27.996  14.310
17511W        W79042  12.181  31.046   1.873
17512W        W79043   4.389  37.550   1.334
17513W        W79044   5.696   0.833  11.376
17514W        W79045   8.832  12.158  14.465
17515W        W79046  16.735  43.964  12.044
17516W        W79047  11.718   6.737   2.371
17517W        W79048  36.431  29.479  14.483
17518W        W79049   3.811   0.312   2.307
17519W        W79050   9.252  15.115  10.467
17520W        W79051  10.718  38.500   0.357
17521W        W79052  41.954  42.866   2.400
17522W        W79053  25.119  19.129  12.083
17523W        W79054  11.206  34.080   0.351
17524W        W79055  27.507  16.755   4.634
17525W        W79056  43.392  23.100  13.959
17526W        W79057  33.954   0.987  14.431
17527W        W79058   7.758  40.483  11.915
17528W        W79059  18.101   0.411   0.284
17529W        W79060  27.649  22.689   2.738
17530W        W79061  35.060   9.722  12.396
17531W        W79062  26.093  34.882   4.704
17532W        W79063  28.094   5.226   3.824
17533W        W79064  25.033  35.038   1.856
17534W        W79065  29.492   0.756   0.261
17535W        W79066  34.576  12.779  14.855
17536W        W79067   6.692  22.742  13.433
17537W        W79068   3.901  43.293   2.190
17538W        W79069  41.029   2.967   2.837
17539W        W79070  24.494  27.623   3.282
17540W        W79071  20.717  43.302   3.665
17541W        W79072   4.406  28.499   1.894
17542W        W79073  29.997  11.725   9.607
17543W        W79074  27.077  29.164  11.966
17544W        W79075  38.531   6.410   0.339
17545W        W79076  16.198  20.218   0.809
17546W        W79077  28.000  15.623   1.905
17547W        W79078  13.607  24.501  14.001
17548W        W79079  30.607   5.863   2.362
17549W        W79080  30.049  37.934   3.186
17550W        W79081  37.004   3.424  14.303
17551W        W79082  22.715   3.376  13.388
17552W        W79083   3.732  30.926   4.649
17553W        W79084   8.195  21.136   3.832
17554W        W79085  31.433  11.351   3.698
17555W        W79086  16.780  17.243   2.353
17556W        W79087  27.024  22.735   1.298
17557W        W79088  44.474  39.386   4.811
17558W        W79089  34.963   4.917  11.040
17559W        W79090   9.668  21.516  13.541
17560W        W79091  37.879  19.638   2.348
17561W        W79092   4.711  32.043  13.359
17562W        W79093  17.297  37.918  10.411
17563W        W79094   2.849  30.134  13.463
17564W        W79095  32.566  31.642  12.959
17565W        W79096  10.219  26.610  14.759
17566W        W79097   5.747   4.702   0.742
17567W        W79098   4.434   9.785  11.498
17568W        W79099  22.237  15.257  11.897
17569W        W79100   7.802  26.087   2.755
17570W        W79101  33.386  31.549  11.562
17571W        W79102  41.955   7.302   5.242
17572W        W79103  12.731   0.275  11.914
17573W        W79104  31.596   8.207   0.418
17574W        W79105  35.458   5.238  10.975
17575W        W79106   6.190   2.813  13.064
17576W        W79107   5.692  28.519   4.202
17577W        W79108  38.339  10.714  13.048
17578W        W79109   6.912  14.727   1.785
17579W        W79110  18.099  20.600  11.500
17580W        W79111  12.226   4.397  12.967
17581W        W79112  36.914   5.766  13.003
17582W        W79113  21.694  20.722  11.533
17583W        W79114  44.496  17.167   4.330
17584W        W79115  27.476  14.211  13.917
17585W        W79116  28.517  22.221  13.309
17586W        W79117  39.467  13.303   3.755
17587W        W79118  24.701  19.110  14.963
17588W        W79119  23.695  41.484   3.828
17589W        W79120  38.960  27.673   4.662
17590W        W79121  15.589   1.276   4.191
17591W        W79122   1.406  17.741   0.296
17592W        W79123  11.833  14.338  11.099
17593W        W79124  40.539  25.678   1.294
17594W        W79125   1.938  44.958   0.853
17595W        W79126  40.533   1.474  12.890
17596W        W79127  34.943  35.866   5.576
17597W        W79128  25.046  12.237   4.637
17598W        W79129   9.738  12.751   2.699
17599W        W79130  38.905  15.089   2.407
17600W        W79131  25.478  27.002  11.069
17601W        W79132  36.065  26.560  11.941
17602W        W79133  44.840   7.294  10.522
17603W        W79134  11.199  43.292  13.419
17604W        W79135  22.064  42.422  14.842
17605W        W79136  29.107  44.271   0.806
17606W        W79137  23.201   9.206   3.871
17607W        W79138   7.387  24.077   3.305
17608W        W79139   7.198  19.579  14.280
17609W        W79140  42.024  36.390   2.748
17610W        W79141  11.658  41.969   4.769
17611W        W79142  16.681  39.318  10.599
17612W        W79143  19.711   2.847   1.222
17613W        W79144  30.500   7.380  14.339
17614W        W79145   6.417  35.961  13.491
17615W        W79146  27.046  44.798  10.896
17616W        W79147   9.334  34.052  11.009
17617W        W79148  24.578  31.970  12.937
17618W        W79149  16.081  19.166  10.983
17619W        W79150  13.729  28.090   3.806
17620W        W79151  23.563  19.576   3.329
17621W        W79152  29.466  21.110  13.863
17622W        W79153  20.232   2.426   3.218
17623W        W79154  35.012   6.225   2.198
17624W        W79155  42.526  27.671  10.540
17625W        W79156  19.545   8.851  13.403
17626W        W79157  19.561  33.006   2.720
17627W        W79158  10.782  39.906  14.957
17628W        W79159  40.900  10.360  11.094
17629W        W79160  27.966  43.936   3.350
17630W        W79161  44.011   4.758   1.373
17631W        W79162  36.986   2.838  12.823
17632W        W79163  36.452   6.284  10.638
17633W        W79164  43.323   9.770  12.958
17634W        W79165   5.215  18.091   1.794
17635W        W79166  33.931  35.596   0.468
17636W        W79167  43.907  26.546   1.251
17637W        W79168  38.919   5.692  11.477
17638W        W79169  36.556  43.380   1.256
17639W        W79170   7.895  19.594  12.505
17640W        W79171   9.162  38.329   2.704
17641W        W79172   5.422  12.262   0.408
17642W        W79173  41.400   2.226   1.346
17643W        W79174  29.569   4.386   3.778
17644W        W79175  12.352  32.566   4.606
17645W        W79176  44.291  37.421   0.315
17646W        W79177  41.960  18.213   3.296
17647W        W79178  25.977  25.115   1.401
17648W        W79179  14.094   0.470  11.612
17649W        W79180   4.372  26.075  12.053
17650W        W79181  23.551  31.424   2.685
17651W        W79182   5.320   0.832   0.474
17652W        W79183  11.364  44.982   2.726
17653W        W79184   5.803   4.238  14.329
17654W        W79185   3.315  44.876  12.358
17655W        W79186  36.406  35.383   3.194
17656W        W79187  19.063  31.506   0.481
17657W        W79188  29.540  40.491   2.696
17658W        W79189  12.305   0.384   2.283
17659W        W79190  22.196   0.834  14.904
17660W        W79191  41.915   3.892   1.246
17661W        W79192  32.065  22.660  10.602
17662W        W79193  31.116  30.111   3.289
17663W        W79194  17.719  39.945  10.566
17664W        W79195  32.502  43.306  10.639
17665W        W79196  28.161  24.156  11.082
17666W        W79197  38.933  18.733  13.966
17667W        W79198  23.176  38.511   0.429
17668W        W79199  17.304   2.356  12.035
17669W        W79200  31.569  11.173   4.699
17670W        W79201   7.875  42.286  14.314
17671W        W79202  25.612  23.070   1.709
17672W        W79203  23.112  26.087  10.888
17673W        W79204  30.163  20.095  11.544
17674W        W79205  39.470  40.949   3.740
17675W        W79206   5.213  18.091  12.017
17676W        W79207   4.724  42.785  14.487
17677W        W79208   0.812  21.540  14.290
17678W        W79209  11.688  12.742  12.867
17679W        W79210  12.773  37.972   0.370
17680W        W79211  20.270  40.384   2.200
17681W        W79212  33.580  16.682   0.953
17682W        W79213  27.145   5.803   0.827
17683W        W79214  41.390  11.844   4.194
17684W        W79215  36.539  30.015   0.728
17685W        W79216  22.739  22.688  13.409
17686W        W79217   9.165   2.912   3.176
17687W        W79218   6.238  19.776   4.242
17688W        W79219  35.364  12.628  13.443
17689W        W79220  41.815  35.007   3.767
17690W        W79221  22.561  15.299  14.844
17691W        W79222   7.289   7.327   3.340
17692W        W79223  26.671   3.766   0.428
17693W        W79224  27.637  35.882   1.261
17694W        W79225  31.552  42.343   0.845
17695W        W79226  12.283  27.544  13.046
17696W        W79227  41.997  15.300  12.380
17697W        W79228  21.065  37.982  13.425
17698W        W79229  34.891   0.292   4.258
17699W        W79230  18.632  41.872   3.870
17700W        W79231  26.656  43.902   4.282
17701W        W79232  39.011  17.065  11.375
17702W        W79233  30.553  11.731  11.090
17703W        W79234  29.163  28.028   2.192
17704W        W79235  11.645  29.999  13.417
17705W        W79236  39.038   5.875   3.270
17706W        W79237  12.136  35.046  13.012
17707W        W79238  12.225   3.409  11.558
17708W        W79239  20.195  14.123  11.906
17709W        W79240  34.109   4.793   2.280
17710W        W79241  39.405  25.048   2.199
17711W        W79242  21.546   3.765  12.076
17712W        W79243  26.552  22.510   2.238
17713W        W79244  44.941  36.499   3.687
17714W        W79245   9.170   5.877   4.200
17715W        W79246  13.764   5.899  12.431
17716W        W79247  13.237  28.024   1.783
17717W        W79248  19.235  21.227   4.606
17718W        W79249  33.061  15.747  11.929
17719W        W79250  13.739   2.390   3.346
17720W        W79251  28.673  21.163  11.080
17721W        W79252  25.673  17.778   0.913
17722W        W79253   9.260  33.914  13.971
17723W        W79254   9.846   4.758  11.980
17724W        W79255  14.173  10.301   2.820
17725W        W79256  36.500  13.272  11.993
17726W        W79257  24.639  40.001   3.843
17727W        W79258   7.906  31.069  13.015
17728W        W79259  41.356  13.280   2.675
17729W        W79260  21.731  10.347   3.368
17730W        W79261  28.931   1.464  14.350
17731W        W79262  33.978  12.230  13.445
17732W        W79263  41.981  16.697   1.851
17733W        W79264   5.358  24.532  11.929
17734W        W79265  17.574  39.534   0.455
17735W        W79266  37.539   9.872  11.932
17736W        W79267  29.103  44.290  10.407
17737W        W79268  32.527  33.946  13.996
17738W        W79269  43.968   1.734   3.859
17739W        W79270   9.290  36.416  10.457
17740W        W79271  13.245  36.008  11.436
17741W        W79272  20.064  29.969  14.367
17742W        W79273   8.333  41.404   3.645
17743W        W79274  34.991   2.325   2.335
17744W        W79275  28.007  14.649  14.396
17745W        W79276   2.395   2.387  14.515
17746W        W79277  31.923  17.213  14.877
17747W        W79278  30.491  36.037  10.494
17748W        W79279  17.141  10.783  14.886
17749W        W79280  15.658  15.775   2.313
17750W        W79281  41.842   2.283   1.411
17751W        W79282  14.294   9.304   3.385
17752W        W79283  37.441   8.231   5.653
17753W        W79284  13.666  37.981  13.057
17754W        W79285  14.199  23.049  14.849
17755W        W79286  14.629  25.511  14.363
17756W        W79287  28.953  39.496   3.717
17757W        W79288  42.911  39.003  12.474
17758W        W79289  27.947   6.895  10.419
17759W        W79290  21.630  38.411  14.393
17760W        W79291  16.257   3.271   0.939
17761W        W79292  16.134  36.926   3.785
17762W        W79293  23.220  34.490  14.354
17763W        W79294  34.507  18.721  12.532
17764W        W79295  36.003   5.256  14.832
17765W        W79296  11.811   8.211  11.438
17766W        W79297  37.350   5.874   4.203
17767W        W79298  40.924  25.575  14.459
17768W        W79299  26.091  38.387  11.403
17769W        W79300  32.460   3.453  14.356
17770W        W79301  17.131  38.437  13.441
17771W        W79302   7.731  36.392   1.901
17772W        W79303  44.994  21.165   2.684
17773W        W79304   3.319  41.367  13.499
17774W        W79305  10.326  26.973  14.927
17775W        W79306  43.513   4.358   2.846
17776W        W79307  38.536   5.321   1.341
17777W        W79308   2.397   9.323   3.337
17778W        W79309  20.189   7.297  14.469
17779W        W79310  16.289   4.715  10.075
17780W        W79311  35.027  41.350  14.477
17781W        W79312  30.998   7.882  11.473
17782W        W79313  13.175   6.392   4.681
17783W        W79314  16.117  22.616  12.902
17784W        W79315   1.324  19.749   3.159
17785W        W79316  20.653  29.173  14.979
17786W        W79317   4.700   6.702   2.773
17787W        W79318  16.182  12.671   2.341
17788W        W79319  31.508  38.032   3.816
17789W        W79320  32.500  18.170  13.033
17790W        W79321   1.390  44.844  13.371
17791W        W79322   5.883   4.241  14.878
17792W        W79323  37.445  15.096   3.748
17793W        W79324  14.254  26.010  13.325
17794W        W79325  30.930  26.507  11.404
17795W        W79326  27.032  42.502   0.458
17796W        W79327   5.401  17.218  12.943
17797W        W79328  31.918  27.576  14.763
17798W        W79329  11.295  44.000  13.003
17799W        W79330   2.273   6.290  10.442
17800W        W79331  14.147   0.906   4.714
17801W        W79332  10.160  34.055   4.806
17802W        W79333   6.226  31.119   2.381
17803W        W79334  25.119   9.189  10.564
17804W        W79335  23.080  31.598   1.733
17805W        W79336  22.997  10.682  13.846
17806W        W79337  41.797  15.212   4.148
17807W        W79338  32.894  34.588  12.561
17808W        W79339  13.194   2.844  10.085
17809W        W79340  15.743  14.676  14.514
17810W        W79341  22.231  26.199   2.383
17811W        W79342  23.127  20.712  14.845
17812W        W79343  27.649   1.896   1.438
17813W        W79344   5.243  24.643   4.273
17814W        W79345  35.076  35.927   3.742
17815W        W79346  19.262  38.353  13.416
17816W        W79347  30.023   4.768  12.866
17817W        W79348  11.258  16.218   4.234
17818W        W79349  24.190  13.727  11.484
17819W        W79350  14.681  10.816   1.230
17820W        W79351  42.425  25.511  11.478
17821W        W79352  38.355  21.589  12.086
17822W        W79353  17.198  25.093  10.008
17823W        W79354   3.806   5.194  11.903
17824W        W79355  13.311  36.866   0.477
17825W        W79356  16.094   3.914   2.215
17826W        W79357  30.548   2.448   3.862
17827W        W79358  35.388  31.951   0.924
17828W        W79359   4.775  12.151  12.456
17829W        W79360  21.701  27.599   4.656
17830W        W79361  36.456   2.378  13.523
17831W        W79362  36.024  17.758   2.357
17832W        W79363  25.987  16.667  12.891
17833W        W79364  20.143  35.430  11.116
17834W        W79365   5.719  21.154   1.835
17835W        W79366  22.540  30.509   3.381
17836W        W79367  38.945   7.298   2.291
17837W        W79368  44.300  34.518  11.505
17838W        W79369  34.475  21.604  13.062
17839W        W79370   6.370  43.396  12.882
17840W        W79371  17.144   3.784  11.956
17841W        W79372   2.364  34.079  11.896
17842W        W79373   3.714   3.397   1.780
17843W        W79374   1.431  39.484   1.386
17844W        W79375  10.382  12.173   2.729
17845W        W79376  15.595  26.640  14.006
17846W        W79377   5.253   7.673   2.671
17847W        W79378  22.702   3.725  13.424
17848W        W79379  39.871  23.219   1.319
17849W        W79380  36.904  40.917  13.958
17850W        W79381  37.431  12.854   5.259
17851W        W79382  43.013  25.142  12.033
17852W        W79383   0.380   9.166   3.255
17853W        W79384  22.146  29.010   2.825
17854W        W79385  44.358  15.667   3.703
17855W        W79386  19.580  20.572   0.255
17856W        W79387  44.958   0.394   1.720
17857W        W79388  38.840  17.265   0.894
17858W        W79389  36.967  15.656   4.138
17859W        W79390  19.767  27.014  13.337
17860W        W79391  13.148   8.881   0.897
17861W        W79392  21.693  14.615   2.398
17862W        W79393  24.141  33.428  13.438
17863W        W79394  10.363   1.939  12.443
17864W        W79395  41.328  20.211   1.293
17865W        W79396  28.008  12.183   1.354
17866W        W79397   3.250  23.730  11.380
17867W        W79398  27.108  10.247  12.528
17868W        W79399  23.706   4.350   0.760
17869W        W79400  29.996   3.916   2.849
17870W        W79401  25.208  14.296   4.686
17871W        W79402  30.097  29.554  14.455
17872W        W79403   3.712  34.370  11.971
17873W        W79404  34.533  30.992  10.566
17874W        W79405  34.092  44.008  10.602
17875W        W79406  13.766  27.192  11.580
17876W        W79407  35.091  37.049   2.300
17877W        W79408   7.686  39.841  14.432
17878W        W79409  11.678  35.971  10.077
17879W        W79410   7.805  27.543   2.872
17880W        W79411   0.261  18.682  11.427
17881W        W79412  11.221  41.955   3.150
17882W        W79413  23.996  13.630  12.487
17883W        W79414  18.171   7.349  12.975
17884W        W79415  24.715  25.209  13.476
17885W        W79416  10.358  11.800  11.952
17886W        W79417  19.229  40.309  14.841
17887W        W79418  27.188  16.208   3.703
17888W        W79419  17.117  41.886   0.727
17889W        W79420  13.795  32.971  11.414
17890W        W79421  21.635   9.181  10.445
17891W        W79422  34.477  24.994  12.961
17892W        W79423  19.103  38.928  12.413
17893W        W79424  24.494  19.586   1.277
17894W        W79425   9.329  35.945  14.508
17895W        W79426  10.703   9.257  11.113
17896W        W79427  39.869  40.869   0.313
17897W        W79428   2.885  39.395   2.677
17898W        W79429  39.338   3.722  10.640
17899W        W79430  44.797  16.238  13.838
17900W        W79431   5.295  17.290  13.349
17901W        W79432  14.745   2.956  13.346
17902W        W79433  11.318  43.377   3.264
17903W        W79434  25.971  29.128   2.251
17904W        W79435  25.998  40.360   1.390
17905W        W79436  40.407  35.092  13.025
17906W        W79437   3.239  26.993  10.094
17907W        W79438  29.601  40.806   1.930
17908W        W79439   6.380  35.939  12.363
17909W        W79440  27.948  32.010   1.367
17910W        W79441  29.020  37.955  11.986
17911W        W79442   2.845  29.629  11.541
17912W        W79443  13.707  27.603   2.767
17913W        W79444  43.485  34.472   2.379
17914W        W79445  17.648  40.491  11.476
17915W        W79446  20.629   0.447   4.302
17916W        W79447   5.716  18.088  12.400
17917W        W79448   2.458  24.013   2.216
17918W        W79449  31.571  21.137  10.597
17919W        W79450  34.480   7.687   0.283
17920W        W79451  34.970  38.524  13.512
17921W        W79452  27.183  16.743  12.869
17922W        W79453  42.309  42.841   2.265
17923W        W79454  30.136  21.194   5.198
17924W        W79455  14.810  29.079   4.739
17925W        W79456  31.082   1.237   2.370
17926W        W79457   1.945  32.061   2.876
17927W        W79458   8.331  24.994   2.679
17928W        W79459  35.903  37.402  13.042
17929W        W79460  33.536  20.632  13.914
17930W        W79461  36.947  11.264  11.470
17931W        W79462   5.325   0.257   0.759
17932W        W79463  42.979   4.303  14.859
17933W        W79464  30.534   8.196  14.392
17934W        W79465  34.023   9.865   2.807
17935W        W79466  21.706  37.023   5.743
17936W        W79467   3.875  39.065  14.815
17937W        W79468  22.586  14.122  12.547
17938W        W79469  30.128   1.273  11.858
17939W        W79470  42.818   9.388   0.291
17940W        W79471   9.862  10.665  11.416
17941W        W79472   0.878  33.004  14.025
17942W        W79473  16.620  12.759  11.913
17943W        W79474  16.227  41.302   5.083
17944W        W79475   0.432   2.861  13.935
17945W        W79476  19.542  29.475   3.738
17946W        W79477  18.123  26.683  12.974
17947W        W79478   1.855   2.259   0.339
17948W        W79479  13.174  15.625   3.854
17949W        W79480  17.248  19.218   3.633
17950W        W79481  21.116  24.649   0.924
17951W        W79482  21.674  21.575  14.438
17952W        W79483  12.355  43.468   0.410
17953W        W79484  33.501  20.061  14.329
17954W        W79485  40.318  27.054  11.900
17955W        W79486  39.995  40.514  10.956
17956W        W79487  30.505  12.310   0.443
17957W        W79488  30.466  41.877  13.411
17958W        W79489  10.732  35.522  10.939
17959W        W79490  36.942  10.836  14.330
17960W        W79491  21.047  24.594  12.398
17961W        W79492  42.414  18.052   1.450
17962W        W79493  23.597   1.310   0.284
17963W        W79494   5.772  19.183   2.305
17964W        W79495   3.797  41.392   2.855
17965W        W79496  40.866  36.868   2.682
17966W        W79497  24.157   6.391  11.564
17967W        W79498  42.834  23.094   2.332
17968W        W79499   7.281  31.002   2.751
17969W        W79500  10.179  34.492  13.497
17970W        W79501   8.847   8.730  13.451
17971W        W79502  35.416  30.513   2.405
17972W        W79503  42.869   3.830   0.936
17973W        W79504   6.864   5.243  14.279
17974W        W79505  39.838  11.354   4.783
17975W        W79506  20.558  44.954   2.387
17976W        W79507   1.884  37.914   4.714
17977W        W79508  20.240   9.340   2.891
17978W        W79509   4.817  13.630   4.750
17979W        W79510  32.508  11.622  13.464
17980W        W79511  33.422  19.756   3.702
17981W        W79512  33.020  36.066  10.523
17982W        W79513  34.374  19.640   4.753
17983W        W79514   5.315  43.350  12.904
17984W        W79515  14.754   3.769  13.854
17985W        W79516  11.806  20.260   1.274
17986W        W79517  41.529  12.852  13.907
17987W        W79518  24.113   5.269   3.736
17988W        W79519   5.264  21.137   3.257
17989W        W79520  11.722  29.446  13.420
17990W        W79521   6.677  17.641   0.831
17991W        W79522  43.950  23.110   2.409
17992W        W79523   5.367   0.296  11.995
17993W        W79524  30.447  10.262   3.186
17994W        W79525  20.188  41.314   1.308
17995W        W79526  25.063  25.120   4.351
17996W        W79527  43.866   2.862   1.831
17997W        W79528  44.881   8.886   3.153
17998W        W79529  26.676  33.042   3.238
17999W        W79530   1.283  42.926   2.358
18000W        W79531  35.913  25.515  13.028
18001W        W79532  33.510  19.208   3.819
18002W        W79533  37.905  36.955   2.675
18003W        W79534   3.894   3.753   3.162
18004W        W79535   5.785  34.962   2.862
18005W        W79536  41.893  16.300   3.308
18006W        W79537  27.003  30.153   4.285
18007W        W79538  24.668  37.882  14.463
18008W        W79539  11.283   5.198  13.047
18009W        W79540  27.573  11.835  10.489
18010W        W79541  15.612  43.345   1.885
18011W        W79542  22.152  30.073   2.795
18012W        W79543  26.010  18.141  12.406
18013W        W79544  38.945  35.562   3.867
18014W        W79545  14.317  32.508  14.383
18015W        W79546  34.113  33.132   0.879
18016W        W79547  18.075  35.983   0.741
18017W        W79548  27.599  37.863   2.392
18018W        W79549  19.718  43.374  14.017
18019W        W79550   9.854  39.981   3.647
18020W        W79551  20.572  30.451   0.959
18021W        W79552  30.019  31.581   4.328
18022W        W79553  36.921   3.859  14.847
18023W        W79554   5.840   0.322  11.604
18024W        W79555  37.990  13.241   4.693
18025W        W79556  33.013  23.576  14.476
18026W        W79557   4.707  35.429   3.735
18027W        W79558  35.426  26.683   2.258
18028W        W79559   6.277   5.207   1.845
18029W        W79560  13.250  21.553   3.346
18030W        W79561  34.053  36.873  12.366
18031W        W79562  33.400  14.246  12.567
18032W        W79563   4.844   1.952   2.324
18033W        W79564  22.537  34.075  10.559
18034W        W79565  25.671  21.160  12.392
18035W        W79566  30.143  28.525   4.180
18036W        W79567  18.185   3.415  14.275
18037W        W79568  23.191  32.446  14.397
18038W        W79569  28.968   2.287  11.112
18039W        W79570  19.209  10.160  12.952
18040W        W79571  19.670  15.182  12.981
18041W        W79572   4.917   5.401  13.855
18042W        W79573  41.427  30.941  12.943
18043W        W79574  37.406  44.397  12.058
18044W        W79575  44.825   9.260   4.662
18045W        W79576  10.207  25.141  13.793
18046W        W79577  13.243  42.813  11.484
18047W        W79578  31.440   3.732  10.510
18048W        W79579  33.998  20.667  14.401
18049W        W79580   6.800  18.101   4.250
18050W        W79581  25.107  11.732   2.717
18051W        W79582   0.362   9.163  10.452
18052W        W79583   3.437  43.997  10.923
18053W        W79584  23.532  22.698   4.158
18054W        W79585   2.311  14.306   3.778
18055W        W79586  10.382  32.041  10.503
18056W        W79587  24.521  28.931  12.983
18057W        W79588  36.483  39.887  12.009
18058W        W79589  15.747  17.561  14.821
18059W        W79590  41.804  38.820   4.139
18060W        W79591  11.329  42.797   4.811
18061W        W79592  37.838  18.072  10.141
18062W        W79593  42.877  11.794  13.850
18063W        W79594  32.504  34.024   3.647
18064W        W79595  35.936   9.701  11.506
18065W        W79596  39.983  36.992  11.076
18066W        W79597  19.777  11.785   3.783
18067W        W79598  16.191   4.324  12.448
18068W        W79599  11.182   1.314   1.861
18069W        W79600  28.535  33.044   1.370
18070W        W79601  31.518   8.187   3.218
18071W        W79602  11.341  14.192   2.195
18072W        W79603   7.318  10.383   0.377
18073W        W79604   4.312   1.301   4.241
18074W        W79605  42.481  37.922   4.262
18075W        W79606  29.114  13.162   4.315
18076W        W79607  29.047  20.213  11.041
18077W        W79608   9.818  27.034   2.391
18078W        W79609  36.347   9.857  12.358
18079W        W79610  41.485   0.765  13.479
18080W        W79611  24.126  19.624   1.243
18081W        W79612  29.043  31.490  10.517
18082W        W79613  18.295  15.741  10.525
18083W        W79614  32.519  26.538  12.410
18084W        W79615   6.738   3.854   1.747
18085W        W79616   3.347  44.913  14.865
18086W        W79617   4.318  43.492   2.687
18087W        W79618  15.151   1.739   0.957
18088W        W79619  31.899  11.699   2.663
18089W        W79620  30.423  11.209  12.904
18090W        W79621   5.409  11.186   3.261
18091W        W79622  23.622   3.891  13.461
18092W        W79623  28.159   4.266  11.040
18093W        W79624  19.082  44.292   0.925
18094W        W79625   0.833  15.589  13.996
18095W        W79626  15.109  20.578  14.833
18096W        W79627   5.853   5.258   3.146
18097W        W79628  38.002  24.638   0.436
18098W        W79629  38.392  36.083   3.757
18099W        W79630  19.060  17.277   0.744
18100W        W79631  40.891  14.323  13.425
18101W        W79632   9.165  32.587  11.564
18102W        W79633   5.881  39.015  11.040
18103W        W79634  44.893  17.610  11.855
18104W        W79635  32.462  20.667  12.886
18105W        W79636  27.133  10.734  14.965
18106W        W79637  44.292  26.163   2.347
18107W        W79638  37.430  30.546  12.897
18108W        W79639   3.265   4.743   3.765
18109W        W79640  38.858  32.048   3.199
18110W        W79641   1.773  19.202   3.267
18111W        W79642  10.299  23.136   4.322
18112W        W79643  44.790   2.787   3.696
18113W        W79644  18.717   5.705  10.460
18114W        W79645  37.502  24.084  14.887
18115W        W79646  10.369  23.499   2.902
18116W        W79647  11.356  38.031   4.241
18117W        W79648  42.461  36.001  12.836
18118W        W79649   7.689   6.734  10.992
18119W        W79650  27.062  23.554  10.946
18120W        W79651   8.655   0.808  11.528
18121W        W79652   1.384  42.450  13.404
18122W        W79653  30.412  34.929  12.862
18123W        W79654  24.975  16.629   4.674
18124W        W79655  44.903  16.755   0.901
18125W        W79656  40.463  44.787   3.711
18126W        W79657  14.828  42.457   0.792
18127W        W79658   3.735  28.456   1.816
18128W        W79659  21.246  44.434  11.118
18129W        W79660  31.636   5.810   4.323
18130W        W79661  25.666   6.708   3.799
18131W        W79662  37.386  38.465   2.184
18132W        W79663  32.477  30.003   3.372
18133W        W79664  41.891  38.830   1.842
18134W        W79665  28.615  43.799  11.414
18135W        W79666  16.190   2.370   0.851
18136W        W79667   6.227   1.474  10.513
18137W        W79668  25.563  15.249   3.643
18138W        W79669  12.188  25.139  10.610
18139W        W79670  40.518  42.480  11.042
18140W        W79671  24.545  14.636   0.801
18141W        W79672   7.769  11.286   0.827
18142W        W79673   2.807  22.113   3.704
18143W        W79674  40.534  26.024  14.405
18144W        W79675  29.959  28.542  13.405
18145W        W79676  15.322  15.287  11.880
18146W        W79677  39.884  15.217  13.822
18147W        W79678  18.672  30.466   4.346
18148W        W79679  17.071  26.140   3.247
18149W        W79680  35.039  14.740  10.607
18150W        W79681   5.290  23.211   2.331
18151W        W79682   7.243  12.690  10.522
18152W        W79683  31.529  33.084  10.437
18153W        W79684   5.761  13.130   4.772
18154W        W79685  40.943   1.267  12.560
18155W        W79686   4.771  41.803  13.895
18156W        W79687  18.051  11.222   3.372
18157W        W79688  40.978  33.523  11.989
18158W        W79689  28.988   1.936  12.448
18159W        W79690  28.673  44.838  13.338
18160W        W79691  39.854  43.801   4.700
18161W        W79692  44.462  21.131   3.346
18162W        W79693  33.603  21.531   2.837
18163W        W79694  40.494  30.453  11.438
18164W        W79695  17.710  16.220   4.259
18165W        W79696   7.402   3.712   0.377
18166W        W79697  41.523   6.880   4.177
18167W        W79698  42.931  17.725  14.928
18168W        W79699   0.444  20.720  13.510
18169W        W79700  36.932  15.327   5.678
18170W        W79701  42.527  37.530   1.788
18171W        W79702  22.702  11.329  14.022
18172W        W79703  25.645  22.680   4.194
18173W        W79704  19.209  26.994  11.432
18174W        W79705  26.509   2.289  11.076
18175W        W79706  24.016  10.273  14.024
18176W        W79707  37.901   4.299  13.498
18177W        W79708   7.187  12.672   0.788
18178W        W79709  11.784  36.510  12.456
18179W        W79710  44.866  31.971   1.869
18180W        W79711  25.060  41.871   1.356
18181W        W79712  24.609   8.807  14.457
18182W        W79713   9.330  25.666   1.269
18183W        W79714  12.697  41.446  12.428
18184W        W79715  21.197  41.393  14.486
18185W        W79716   5.773  14.268   0.756
18186W        W79717  22.552  37.361  13.547
18187W        W79718  14.145  31.949  13.024
18188W        W79719  38.992  21.186   3.710
18189W        W79720  28.183  36.577  12.366
18190W        W79721  26.043  42.933  13.937
18191W        W79722  31.974  26.174   4.728
18192W        W79723  38.975  31.443  13.392
18193W        W79724  16.601  44.778   1.323
18194W        W79725   9.230   3.309   4.790
18195W        W79726  28.135  37.507   4.294
18196W        W79727  42.507  34.894  13.956
18197W        W79728  41.426  42.933  13.345
18198W        W79729  20.600  25.552  10.432
18199W        W79730   5.828  29.929  14.941
18200W        W79731  17.772   5.708   1.867
18201W        W79732  19.165  33.939   2.251
18202W        W79733   9.346   7.674   3.687
18203W        W79734   5.214  33.074  10.899
18204W        W79735  30.475  16.743   1.862
18205W        W79736  14.690  33.029  10.438
18206W        W79737  21.758   8.834  12.005
18207W        W79738  18.698  12.696   2.783
18208W        W79739  23.598  27.090   3.362
18209W        W79740  37.963  17.107   1.299
18210W        W79741   5.423  25.654  10.449
18211W        W79742  38.387  26.665   4.715
18212W        W79743  28.008   7.767  11.906
18213W        W79744  44.492  42.948   0.342
18214W        W79745  32.083  24.522  10.611
18215W        W79746  32.599  28.493   4.599
18216W        W79747  17.747  18.078   2.840
18217W        W79748   3.892   1.772  12.460
18218W        W79749   8.160   9.330  11.548
18219W        W79750  35.015   7.803   3.317
18220W        W79751  41.440  14.680  13.800
18221W        W79752  13.144  34.014   0.727
18222W        W79753  36.469  32.519  11.575
18223W        W79754  37.545  44.461  14.993
18224W        W79755  17.760   3.222  13.441
18225W        W79756  14.113  34.591  13.503
18226W        W79757  25.517  44.764  12.540
18227W        W79758  34.536  10.189   2.303
18228W        W79759  30.154  17.107  13.420
18229W        W79760   1.911  36.915  11.588
18230W        W79761   9.699  13.733  10.421
18231W        W79762  14.764  26.194   2.178
18232W        W79763   2.791   5.855  13.358
18233W        W79764  17.566  41.848  13.930
18234W        W79765  19.713  20.124  14.971
18235W        W79766  12.717  17.710  14.853
18236W        W79767  29.945   2.851   4.742
18237W        W79768  12.715  17.191  14.776
18238W        W79769  14.604  12.684  11.449
18239W        W79770  35.922  10.288  10.926
18240W        W79771  27.582  25.132  14.398
18241W        W79772  21.636  33.012   4.606
18242W        W79773  44.986  21.584   4.329
18243W        W79774  40.938  18.091  11.407
18244W        W79775  27.499   0.966  11.563
18245W        W79776  42.822   4.443   2.813
18246W        W79777  34.604  15.282  11.879
18247W        W79778   1.792  44.373  11.491
18248W        W79779  15.743  31.414  11.954
18249W        W79780  18.060  40.020   3.790
18250W        W79781   9.193  41.379  14.403
18251W        W79782  40.810  13.609  13.910
18252W        W79783   1.376   9.173  11.030
18253W        W79784   0.915  39.454   2.331
18254W        W79785  39.816  28.180   2.372
18255W        W79786  33.969  29.607   3.727
18256W        W79787   3.331   6.871   3.770
18257W        W79788  39.459  37.552   2.863
18258W        W79789  10.258  25.124   1.225
18259W        W79790  36.398  12.359  14.463
18260W        W79791  39.314  26.202  12.943
18261W        W79792  18.109  23.007   5.310
18262W        W79793  17.796  11.766   0.857
18263W        W79794  24.529  44.988   3.363
18264W        W79795  14.339  17.213   4.314
18265W        W79796  13.624  30.965   1.377
18266W        W79797  10.200  11.219  11.567
18267W        W79798  30.935   0.339  12.514
18268W        W79799  22.166  12.357   3.796
18269W        W79800  15.196  30.999  14.422
18270W        W79801  33.466  30.486   2.276
18271W        W79802  26.009  37.551   4.222
18272W        W79803  28.575  18.130   4.345
18273W        W79804  10.826   4.886  13.006
18274W        W79805  15.582  26.017   3.658
18275W        W79806  15.730   5.840   1.901
18276W        W79807   2.339  28.460  13.891
18277W        W79808  28.654  14.168  10.549
18278W        W79809  40.317  11.325  12.860
18279W        W79810  28.644  42.460   1.832
18280W        W79811  25.582  34.441  12.950
18281W        W79812  30.056  28.139  13.024
18282W        W79813  25.705  43.435  11.559
18283W        W79814  11.725   3.719  14.470
18284W        W79815   6.885  10.216  14.281
18285W        W79816   9.750   0.381   9.474
18286W        W79817   0.818  10.236   1.443
18287W        W79818   0.363  21.211   4.765
18288W        W79819  18.060   0.487   2.388
18289W        W79820  39.954   3.859  11.107
18290W        W79821  15.719  11.159   4.698
18291W        W79822  23.060  35.568   4.695
18292W        W79823  30.639  14.796   4.171
18293W        W79824  22.710  40.306   3.362
18294W        W79825  31.531  16.279   3.226
18295W        W79826  27.488  31.555   1.395
18296W        W79827  44.811   4.921   0.323
18297W        W79828  20.648  20.265  14.490
18298W        W79829  43.403   9.167   4.789
18299W        W79830   7.769   9.750   3.820
18300W        W79831  31.597  27.453  10.489
18301W        W79832  25.553  15.674   2.787
18302W        W79833  21.706   5.698  11.376
18303W        W79834  32.953  32.966   4.320
18304W        W79835  40.940  15.103   0.296
18305W        W79836  38.448  40.027  10.130
18306W        W79837   5.851  29.448  12.070
18307W        W79838  31.069  15.264  14.931
18308W        W79839  28.588  30.570  13.964
18309W        W79840  27.558  36.476  12.396
18310W        W79841   1.964  23.236  14.372
18311W        W79842  37.510  43.359   3.717
18312W        W79843  44.301  42.974  11.086
18313W        W79844  37.936  40.971   3.271
18314W        W79845  32.499  38.937   3.346
18315W        W79846  15.235   7.680  14.325
18316W        W79847   4.815  12.839  11.862
18317W        W79848  32.510   8.230   2.201
18318W        W79849  28.664  21.565   2.760
18319W        W79850  43.312   3.732   1.427
18320W        W79851   6.260  21.077   2.903
18321W        W79852   7.413   8.330   4.722
18322W        W79853   7.848  10.157   5.281
18323W        W79854  18.175  43.896  13.989
18324W        W79855   9.875   1.280   3.737
18325W        W79856   7.361  28.511  14.435
18326W        W79857  28.156  20.070  13.424
18327W        W79858   2.317  38.524  13.990
18328W        W79859   6.776  37.425  14.805
18329W        W79860  11.271   9.217   1.828
18330W        W79861  17.234  20.546  13.351
18331W        W79862  35.542  41.529  12.567
18332W        W79863  10.297  41.537  14.928
18333W        W79864  43.824  34.935   1.405
18334W        W79865  35.594  14.271   0.345
18335W        W79866   0.986  17.724  10.589
18336W        W79867  24.125  11.663  12.867
18337W        W79868   4.319  26.177  13.392
18338W        W79869  40.017  33.047  12.435
18339W        W79870  35.905   3.259   2.896
18340W        W79871  40.514   7.293  11.508
18341W        W79872  18.183  42.952   1.213
18342W        W79873  37.466   0.395   2.214
18343W        W79874   1.835  35.869  11.470
18344W        W79875   7.231  16.160  11.925
18345W        W79876   1.318  37.057   1.708
18346W        W79877  37.009  32.024  10.006
18347W        W79878  22.742  16.104   3.696
18348W        W79879  29.135  29.589  12.879
18349W        W79880  40.474  13.211  10.925
18350W        W79881  22.646  24.512   1.775
18351W        W79882   2.792  22.170  10.897
18352W        W79883  15.593  31.407   3.208
18353W        W79884  10.144  23.680   0.750
18354W        W79885  39.853  15.271  12.842
18355W        W79886  23.612  20.544   1.418
18356W        W79887  41.368  42.945   1.876
18357W        W79888  36.988  40.952   0.444
18358W        W79889  15.147  30.112  11.440
18359W        W79890  11.265  40.971  10.515
18360W        W79891  28.547  20.569   0.941
18361W        W79892  34.099  23.170   4.775
18362W        W79893  12.356  40.546  11.496
18363W        W79894  37.870  14.826  12.534
18364W        W79895  20.654  18.601   4.140
18365W        W79896  28.634  17.229  13.012
18366W        W79897  37.512   5.738  14.861
18367W        W79898   0.951  38.462   4.697
18368W        W79899  22.109  28.161   0.750
18369W        W79900  44.806  20.126  11.424
18370W        W79901  32.021  26.207   1.735
18371W        W79902  18.140  19.212   0.417
18372W        W79903  29.979  42.330  14.506
18373W        W79904  35.102  41.812  12.521
18374W        W79905  17.759  21.644  13.377
18375W        W79906  35.004   7.415  12.884
18376W        W79907  28.578  13.696  11.062
18377W        W79908  37.418  18.769  13.063
18378W        W79909  30.527  23.696   3.739
18379W        W79910  32.524  16.667  11.866
18380W        W79911   7.803  44.975   3.386
18381W        W79912   7.275  17.772   2.379
18382W        W79913  16.130  39.889  10.585
18383W        W79914  13.199  16.677   0.833
18384W        W79915  44.846  41.037  14.435
18385W        W79916   0.898  30.553   1.903
18386W        W79917  43.810  18.566  12.960
18387W        W79918  38.840  40.836   4.283
18388W        W79919  44.426  29.945  11.574
18389W        W79920  29.548  38.456   2.754
18390W        W79921   5.404   0.980  12.032
18391W        W79922  34.477  22.151   0.339
18392W        W79923  32.601  27.109  10.597
18393W        W79924  11.663  26.607  10.543
18394W        W79925  14.609   4.773  10.421
18395W        W79926  20.109   1.935  13.498
18396W        W79927  29.491   2.272  10.448
18397W        W79928  30.954  41.511  12.466
18398W        W79929  32.556  15.176   0.444
18399W        W79930  25.581   6.329   3.300
18400W        W79931   6.898  39.491   4.123
18401W        W79932  29.126   4.419  12.386
18402W        W79933  41.907  17.736   3.798
18403W        W79934  41.467  35.069  12.539
18404W        W79935  17.785  13.786   2.213
18405W        W79936  33.012  10.183  14.363
18406W        W79937  23.162  14.184   3.850
18407W        W79938  22.720  39.469   0.804
18408W        W79939  31.989   3.886   0.273
18409W        W79940  11.303  42.322   1.352
18410W        W79941  14.304   1.859  13.430
18411W        W79942  11.193  42.823  11.457
18412W        W79943  31.520  20.710  11.035
18413W        W79944  30.461   7.874  14.434
18414W        W79945   8.867  27.198  12.442
18415W        W79946  16.709  22.652   9.976
18416W        W79947  33.469  42.933   3.280
18417W        W79948  41.869  27.532   2.876
18418W        W79949  12.349   0.792  13.796
18419W        W79950   9.682  40.499   2.368
18420W        W79951  35.108   7.840  10.898
18421W        W79952   4.939  42.433  10.938
18422W        W79953  43.460  38.928  11.443
18423W        W79954  44.443  18.653  10.624
18424W        W79955   1.435   6.388  11.554
18425W        W79956  38.956  25.163  10.074
18426W        W79957  28.151  22.088   4.196
18427W        W79958  44.342  21.200  13.467
18428W        W79959   3.889   9.220  13.009
18429W        W79960  44.854  13.704   2.678
18430W        W79961  10.171  21.136   0.878
18431W        W79962  32.953   9.177  10.475
18432W        W79963  37.924   6.390   4.744
18433W        W79964  12.760  28.590   0.414
18434W        W79965   5.204   7.278  12.360
18435W        W79966   0.825  44.433   3.329
18436W        W79967  28.972   2.390  10.443
18437W        W79968  36.374  11.356  12.039
18438W        W79969  35.995  43.399  14.489
18439W        W79970  21.191  12.216  12.541
18440W        W79971   7.388  22.121  13.852
18441W        W79972   7.278  39.478   1.908
18442W        W79973  14.609  13.254   4.765
18443W        W79974   1.926   1.873   3.350
18444W        W79975  43.443   0.882  11.541
18445W        W79976   5.212  37.017  13.825
18446W        W79977  34.481  15.132  12.386
18447W        W79978  43.374  28.457  14.969
18448W        W79979  37.448  12.766   9.962
18449W        W79980  26.040  26.007   1.734
18450W        W79981  33.108  40.890   0.367
18451W        W79982  19.706  41.859  11.515
18452W        W79983  31.050  15.216  14.308
18453W        W79984   3.876  11.746   2.316
18454W        W79985  19.075  23.057  11.528
18455W        W79986  15.810  44.808   0.272
18456W        W79987  13.693  25.554   4.639
18457W        W79988  10.638  24.210   1.235
18458W        W79989   5.238  26.108   1.700
18459W        W79990  24.583   5.397  14.488
18460W        W79991  43.411  11.859  11.494
18461W        W79992  40.361  22.668   3.860
18462W        W79993  42.301  40.026   2.357
18463W        W79994  30.081  18.701  13.028
18464W        W79995  36.521  23.023   4.726
18465W        W79996  38.475   2.428  11.856
18466W        W79997  39.548  28.116  11.482
18467W        W79998   6.292  36.045  10.612
18468W        W79999   9.325  36.566  12.501
18469W        W80000  37.043   0.357   1.434
18470W        W80001  34.093  38.844   3.826
18471W        W80002  39.808  29.652  11.090
18472W        W80003  37.085  35.044  14.453
18473W        W80004  43.891   1.264  13.862
18474W        W80005  32.425  17.207   3.661
18475W        W80006  18.144  32.955  13.359
18476W        W80007  40.920  16.225  10.615
18477W        W80008  17.672  13.291   2.191
18478W        W80009  17.184  36.893   1.322
18479W        W80010  17.639  32.572   2.886
18480W        W80011  38.328   4.847  12.446
18481W        W80012  29.946  26.535  13.934
18482W        W80013  41.461  10.314   1.363
18483W        W80014  36.963  21.116   0.265
18484W        W80015  40.545  22.251   3.370
18485W        W80016   8.238   5.300   0.791
18486W        W80017  21.684  31.988   3.666
18487W        W80018   6.332  12.167  12.040
18488W        W80019  37.560  13.653   1.727
18489W        W80020  15.234  41.912   2.237
18490W        W80021  27.046   0.290  14.423
18491W        W80022   6.890  30.437  10.409
18492W        W80023   4.710  36.896   3.665
18493W        W80024  40.514  24.219   4.220
18494W        W80025   5.393  18.065   3.711
18495W        W80026  41.510   8.812  14.388
18496W        W80027  26.977   2.812   0.335
18497W        W80028  21.512  18.204   2.738
18498W        W80029   3.376  42.494  13.895
18499W        W80030  17.711  38.423   3.807
18500W        W80031  34.976   6.715  11.128
18501W        W80032  24.218  44.293  12.498
18502W        W80033  30.044  33.436   0.265
18503W        W80034  18.550  36.014  12.844
18504W        W80035  28.489   0.748   2.715
18505W        W80036   7.305  30.540  12.906
18506W        W80037  26.513  26.666   9.945
18507W        W80038  15.100  18.764  10.549
18508W        W80039  21.574   4.914   3.254
18509W        W80040  21.090  25.139  12.933
18510W        W80041  40.806   5.778   4.611
18511W        W80042  39.054  35.503  10.459
18512W        W80043  18.570   8.262   4.190
18513W        W80044  27.107   3.812   0.951
18514W        W80045  20.115  20.065   0.442
18515W        W80046  17.178  22.134  14.805
18516W        W80047  31.485  34.370   3.846
18517W        W80048   8.336  35.004   2.709
18518W        W80049   2.245   7.221   0.372
18519W        W80050   6.407  17.217  12.831
18520W        W80051  25.713  23.515   4.148
18521W        W80052  21.068  43.322   3.229
18522W        W80053  37.937  35.540  12.347
18523W        W80054   9.150   3.835  11.427
18524W        W80055  40.919   4.893   0.768
18525W        W80056  14.685   8.835   1.441
18526W        W80057  41.026   2.922  13.017
18527W        W80058  12.230  30.097   0.301
18528W        W80059   1.878  39.820  14.482
18529W        W80060  43.863  38.557  12.974
18530W        W80061  15.280  16.172   0.267
18531W        W80062  14.236  35.404   2.786
18532W        W80063  37.955  44.997  14.331
18533W        W80064  20.522  27.017   0.261
18534W        W80065  22.595  39.896  13.803
18535W        W80066  16.666   7.369  10.952
18536W        W80067  19.539  10.231  14.363
18537W        W80068  39.419  15.289   3.654
18538W        W80069   9.236  19.606  14.029
18539W        W80070  29.660   6.762   4.116
18540W        W80071  20.072  33.623   4.165
18541W        W80072  23.182  36.993  11.593
18542W        W80073   6.190  11.309  14.446
18543W        W80074  13.733   1.389   9.489
18544W        W80075  21.196  36.850   3.712
18545W        W80076  23.691   8.729  13.862
18546W        W80077  26.641  39.338  13.972
18547W        W80078  33.471  44.320  12.986
18548W        W80079  24.482  34.369  13.009
18549W        W80080  16.139  33.913  11.529
18550W        W80081   5.208  13.236  10.478
18551W        W80082  34.905  20.264  12.081
18552W        W80083  14.808  42.377  13.993
18553W        W80084  10.649   6.718   2.687
18554W        W80085  17.580  35.905  14.432
18555W        W80086  20.275   6.390   2.710
18556W        W80087  30.966  44.854   4.742
18557W        W80088   8.721  34.963  11.583
18558W        W80089  41.027   1.796   4.152
18559W        W80090  12.790  14.100  12.059
18560W        W80091  17.240  31.041   3.246
18561W        W80092  38.026   8.403   3.857
18562W        W80093  32.049  32.940  12.504
18563W        W80094  24.139  32.128  11.607
18564W        W80095  41.972  16.180   0.368
18565W        W80096  37.065  35.592  14.307
18566W        W80097  15.246  35.600   4.321
18567W        W80098  14.118  13.295  11.506
18568W        W80099  13.235  28.172   0.839
18569W        W80100  32.000  19.664   1.925
18570W        W80101  30.515  21.755  13.511
18571W        W80102  10.879  10.801   4.127
18572W        W80103  40.494  26.106   3.778
18573W        W80104   9.161  14.149   4.606
18574W        W80105   2.775  18.624  11.126
18575W        W80106  43.474  15.103   0.433
18576W        W80107  43.918  37.886   2.350
18577W        W80108  22.632  42.457  13.924
18578W        W80109  44.433  33.532  12.033
18579W        W80110  37.514  28.574  13.531
18580W        W80111  33.024  25.625   2.776
18581W        W80112  22.205  15.663  14.887
18582W        W80113  40.379  43.290   0.412
18583W        W80114  41.038  15.177   4.221
18584W        W80115  22.071  36.071   4.602
18585W        W80116  12.826  40.395   4.330
18586W        W80117  38.519  44.799   0.797
18587W        W80118  24.584   5.756   0.363
18588W        W80119  27.504   4.806  12.960
18589W        W80120  23.241  40.359  14.475
18590W        W80121  41.361  13.245   1.926
18591W        W80122  36.053   9.255  12.993
18592W        W80123   8.331   7.830   1.430
18593W        W80124  37.474  23.118  12.926
18594W        W80125  29.636  42.833   4.761
18595W        W80126  11.176   5.439   1.914
18596W        W80127  42.347  43.356  13.936
18597W        W80128   8.678  41.374  10.953
18598W        W80129  24.191  37.914  11.022
18599W        W80130  26.674  19.197   3.255
18600W        W80131  29.171  25.709   2.280
18601W        W80132   2.930  22.567  10.934
18602W        W80133  16.122  19.144  11.904
18603W        W80134   6.819  37.415  12.399
18604W        W80135  27.514  38.852  14.866
18605W        W80136  23.998  10.271  14.966
18606W        W80137  43.450  18.646   2.190
18607W        W80138   7.859  21.119   0.461
18608W        W80139  13.639  35.908  11.419
18609W        W80140  24.706   1.290  11.409
18610W        W80141  36.409  37.411  13.878
18611W        W80142  15.605  12.627  10.088
18612W        W80143  18.628  25.603   0.319
18613W        W80144  38.860  14.660  14.437
18614W        W80145   7.719  42.973  14.027
18615W        W80146   3.711  13.813  12.898
18616W        W80147  42.410  41.898   1.885
18617W        W80148  18.169  13.652   3.835
18618W        W80149   5.399  25.480   5.114
18619W        W80150  41.328  26.193   1.279
18620W        W80151   1.458  13.119  10.985
18621W        W80152  31.535   4.274  11.470
18622W        W80153  10.207  42.865  13.887
18623W        W80154  25.154   2.294  10.433
18624W        W80155  44.280   4.446  12.972
18625W        W80156  14.695   5.905  14.846
18626W        W80157  38.998  29.154  10.543
18627W        W80158  25.175  28.989  13.999
18628W        W80159  10.657  30.486   5.117
18629W        W80160  36.072  44.793  10.580
18630W        W80161  15.765  32.926   3.247
18631W        W80162  32.969   9.680  14.356
18632W        W80163  32.063   3.422  10.959
18633W        W80164  10.362   5.396   2.385
18634W        W80165  19.546  39.356  11.543
18635W        W80166  41.799  41.323  14.326
18636W        W80167  25.983  41.790   4.190
18637W        W80168  41.795  24.217   0.742
18638W        W80169  16.773  36.573  10.941
18639W        W80170  43.491   9.865  13.380
18640W        W80171  17.627  21.227   2.789
18641W        W80172  15.740   9.157  12.828
18642W        W80173   6.686  35.507  11.524
18643W        W80174   3.939   4.770  14.465
18644W        W80175  42.309   3.428  12.344
18645W        W80176   0.360  10.167  12.075
18646W        W80177   7.181  34.510   1.719
18647W        W80178   4.204   7.849   3.671
18648W        W80179  31.022  14.176   3.326
18649W        W80180  10.170  24.607  12.992
18650W        W80181  21.144   4.384   1.703
18651W        W80182  28.066  39.433   0.735
18652W        W80183  11.633  17.178   4.729
18653W        W80184  30.609  28.467   4.234
18654W        W80185  24.056  31.515  12.081
18655W        W80186   0.782  12.236  11.493
18656W        W80187  40.855  21.069   2.322
18657W        W80188  22.663   5.403   3.186
18658W        W80189   3.342  18.069  10.412
18659W        W80190  10.794  31.463  13.381
18660W        W80191  32.005  23.521   3.370
18661W        W80192  44.436  39.536  13.368
18662W        W80193  18.230  16.290   0.368
18663W        W80194  36.092   2.305   4.342
18664W        W80195  44.002  33.987  12.834
18665W        W80196   2.823  16.215  12.559
18666W        W80197   3.230   1.894  12.418
18667W        W80198  39.434  17.297   3.282
18668W        W80199  21.258  25.082   2.319
18669W        W80200  41.865  18.747  12.924
18670W        W80201  30.164  32.887   3.759
18671W        W80202  22.700  35.900   1.329
18672W        W80203  24.997  39.061  11.599
18673W        W80204  19.571  43.361  14.280
18674W        W80205   4.846  34.025   0.477
18675W        W80206  35.395  26.605  14.765
18676W        W80207  30.472  33.550   3.185
18677W        W80208  36.872  16.647   2.393
18678W        W80209  20.211  30.473  14.469
18679W        W80210  42.493  21.686   2.806
18680W        W80211  28.071  44.863   2.285
18681W        W80212  31.898  39.424  10.097
18682W        W80213   1.762  27.546   1.307
18683W        W80214  43.946   7.363   0.243
18684W        W80215   1.962  21.749   0.847
18685W        W80216  29.956  17.565  13.826
18686W        W80217  32.503  39.366  14.304
18687W        W80218  13.201   0.864  11.380
18688W        W80219  32.570  27.996   0.831
18689W        W80220  44.800  32.043  10.917
18690W        W80221  40.859  32.442  11.992
18691W        W80222  37.437  21.609  13.884
18692W        W80223  32.898   3.256  13.325
18693W        W80224  38.840  42.526   2.262
18694W        W80225  29.485   0.951   0.927
18695W        W80226  44.866  12.336   4.641
18696W        W80227  18.577  22.606   4.815
18697W        W80228  24.573   4.862  11.385
18698W        W80229  26.079  36.878  14.991
18699W        W80230  35.967   9.797   4.604
18700W        W80231  20.632  26.054  12.984
18701W        W80232  30.518   4.754   1.262
18702W        W80233  25.504  41.946   1.931
18703W        W80234   0.433  41.939   0.327
18704W        W80235  18.282  25.644  12.900
18705W        W80236   9.296  30.516  10.937
18706W        W80237  30.085  26.188  11.084
18707W        W80238  43.510  16.237  12.357
18708W        W80239  26.171  43.954  11.103
18709W        W80240  31.046  32.095  12.359
18710W        W80241  44.258  22.686   5.195
18711W        W80242  14.306  41.971  14.907
18712W        W80243   7.761  36.369  11.608
18713W        W80244  36.421   4.341  13.925
18714W        W80245  41.510  35.092   4.351
18715W        W80246  28.000  30.065   1.779
18716W        W80247  43.350  12.845   4.201
18717W        W80248  30.159  19.187   1.389
18718W        W80249   5.343  13.810  10.943
18719W        W80250  37.935  41.477  12.897
18720W        W80251  30.633  38.542   0.359
18721W        W80252  31.125  27.502   3.741
18722W        W80253  18.580   8.319   1.310
18723W        W80254  43.868   2.769  14.912
18724W        W80255  39.354  25.182  12.932
18725W        W80256  14.703   2.468  14.790
18726W        W80257  23.207   1.761   4.272
18727W        W80258   3.370  18.174   0.327
18728W        W80259  44.489  21.550   3.841
18729W        W80260   1.773  37.470  14.503
18730W        W80261  41.297  24.180  13.799
18731W        W80262  24.127  24.559   3.375
18732W        W80263  37.504  32.507   4.140
18733W        W80264   6.331  27.489  10.953
18734W        W80265  38.542  30.473   4.717
18735W        W80266  43.824  30.516  10.962
18736W        W80267  12.299   5.280   3.662
18737W        W80268  25.704   7.668  10.593
18738W        W80269   3.358  42.423  13.445
18739W        W80270   5.398  36.901  10.542
18740W        W80271  15.265  37.389   1.809
18741W        W80272  23.219  43.473  13.519
18742W        W80273  41.530  30.951   0.900
18743W        W80274  41.499  22.728  10.969
18744W        W80275  40.890  19.115   3.734
18745W        W80276  40.925  14.697   4.153
18746W        W80277  33.021  38.847   3.653
18747W        W80278  43.953  35.052   2.250
18748W        W80279  11.284   7.782   2.823
18749W        W80280  14.700  26.642  13.949
18750W        W80281   5.894   5.421   1.855
18751W        W80282  11.132  32.045   0.311
18752W        W80283  33.007  19.739   3.813
18753W        W80284  15.134   9.679   4.152
18754W        W80285  22.568   3.863   1.787
18755W        W80286  16.220  11.209   4.611
18756W        W80287  17.649  34.599  14.996
18757W        W80288  32.486  11.634   2.771
18758W        W80289  38.999  13.671  14.961
18759W        W80290  30.058   3.868   3.235
18760W        W80291  31.130  38.001  13.355
18761W        W80292  22.181  19.147  11.934
18762W        W80293  36.876  29.974  11.964
18763W        W80294  37.567  26.579   4.700
18764W        W80295  44.409  39.497  10.976
18765W        W80296  36.514  19.748   1.360
18766W        W80297  32.451   0.287  13.840
18767W        W80298  24.998  38.441   1.215
18768W        W80299   4.330   1.412   0.253
18769W        W80300  35.384  23.220   3.346
18770W        W80301  40.461  38.536   1.783
18771W        W80302  28.976  28.080  11.996
18772W        W80303   7.813   8.722  13.994
18773W        W80304  40.885  35.370  13.996
18774W        W80305  37.856  33.022   1.855
18775W        W80306  36.002  22.663   2.411
18776W        W80307  33.965   8.169   4.706
18777W        W80308  44.306   9.227  14.373
18778W        W80309   6.885  43.489  10.482
18779W        W80310  22.021   3.927   1.754
18780W        W80311   4.889  42.316  14.029
18781W        W80312  30.428  38.331  11.528
18782W        W80313  31.478  35.386   1.878
18783W        W80314  32.021  35.995   2.213
18784W        W80315   3.799  21.673  12.536
18785W        W80316  12.291  22.526   3.176
18786W        W80317  33.083  24.163   2.829
18787W        W80318  23.987  26.479  13.018
18788W        W80319  22.537  12.834  14.380
18789W        W80320  25.495  30.429   2.366
18790W        W80321  36.503   5.293  12.534
18791W        W80322  31.427  24.065  12.565
18792W        W80323  29.953  21.574   1.863
18793W        W80324  30.969  10.749  12.379
18794W        W80325  42.953  20.688   3.160
18795W        W80326  40.417  42.432   3.370
18796W        W80327  39.923  17.773   1.426
18797W        W80328  15.581   5.752   3.701
18798W        W80329  17.676   4.208   2.393
18799W        W80330  36.985  24.131  14.423
18800W        W80331   4.785  41.986  11.482
18801W        W80332  23.228  41.450   3.317
18802W        W80333  37.836  28.090  11.465
18803W        W80334  30.011  20.061  10.499
18804W        W80335  25.980  41.032   4.226
18805W        W80336  32.997  43.934   0.286
18806W        W80337  41.031  28.976  13.421
18807W        W80338  37.874  33.126  13.812
18808W        W80339   8.900  24.181   0.955
18809W        W80340  24.498  19.218  10.921
18810W        W80341  23.716  35.967   1.737
18811W        W80342  28.661  36.506  11.607
18812W        W80343   3.388  22.562   5.796
18813W        W80344  20.092  12.664  13.369
18814W        W80345  16.750  31.073   3.635
18815W        W80346  44.483  10.176   3.649
18816W        W80347  23.020  32.932  13.879
18817W        W80348   4.895  24.586   2.836
18818W        W80349  22.006  33.111  11.052
18819W        W80350  41.817  22.589  10.946
18820W        W80351  13.802   8.280  10.952
18821W        W80352   7.193  32.581  11.029
18822W        W80353  40.031   7.172  12.089
18823W        W80354  18.732  17.630  14.315
18824W        W80355   3.422  34.522  13.010
18825W        W80356  23.010  10.648   3.658
18826W        W80357  25.165  10.280   4.758
18827W        W80358  22.107  33.087  14.485
18828W        W80359  14.196  25.158  11.973
18829W        W80360  16.195   4.359   4.206
18830W        W80361  33.087  14.295   4.305
18831W        W80362  27.058  37.466   3.758
18832W        W80363   5.812  34.556  12.015
18833W        W80364   2.454  41.382   9.948
18834W        W80365  22.501  11.756   1.713
18835W        W80366  40.353   4.285   3.796
18836W        W80367  39.840  33.082  14.287
18837W        W80368  16.146  11.356   0.956
18838W        W80369   6.367   4.807   4.819
18839W        W80370  38.419  38.847  11.876
18840W        W80371  15.192  35.369   3.694
18841W        W80372  28.447   8.901   2.834
18842W        W80373   7.727  11.210  12.445
18843W        W80374   3.270   7.415  11.964
18844W        W80375  33.412   9.683   1.329
18845W        W80376  14.201  14.756  11.515
18846W        W80377  40.334  34.552   1.319
18847W        W80378   1.852  44.005  10.564
18848W        W80379   3.900  36.549   3.667
18849W        W80380  20.154  18.191  13.484
18850W        W80381  17.622  41.028   2.691
18851W        W80382  24.150   7.179   9.971
18852W        W80383  14.270  10.211  10.537
18853W        W80384  20.762   5.754  13.312
18854W        W80385  33.399  27.588  14.438
18855W        W80386   9.239  30.412   4.347
18856W        W80387  41.466  43.781  12.000
18857W        W80388  14.247  14.682   3.801
18858W        W80389  18.636  25.577  12.894
18859W        W80390  11.326  11.303   4.771
18860W        W80391   9.829   6.865  14.920
18861W        W80392  33.887  28.956  13.435
18862W        W80393   4.732  32.464  13.005
18863W        W80394  34.372   3.375   4.774
18864W        W80395  17.092  21.203   5.306
18865W        W80396   5.731   4.450  12.968
18866W        W80397  39.378  42.494  13.799
18867W        W80398  34.402  41.847   0.849
18868W        W80399  21.090  29.050  11.385
18869W        W80400  39.412  40.499   1.338
18870W        W80401  35.392  21.635  14.341
18871W        W80402   9.228   9.238   2.703
18872W        W80403  30.549  37.348   3.776
18873W        W80404   7.819  20.556  13.798
18874W        W80405  41.475  26.068  12.478
18875W        W80406  40.012  39.544   4.629
18876W        W80407  29.031  23.612   0.427
18877W        W80408  19.067  22.020   2.239
18878W        W80409   3.811  32.616   4.328
18879W        W80410   3.217   3.279  13.507
18880W        W80411  27.101  40.012   4.351
18881W        W80412   1.931  30.608  14.833
18882W        W80413  18.185   6.721  10.448
18883W        W80414  10.704  20.116   1.779
18884W        W80415  37.482   5.761   2.875
18885W        W80416  40.547  19.540   1.351
18886W        W80417   4.392  36.576  13.055
18887W        W80418  30.994  40.323   3.868
18888W        W80419  36.094   7.359  13.974
18889W        W80420  29.603  32.530   2.822
18890W        W80421  21.135   1.479  10.943
18891W        W80422  32.531  35.484   0.841
18892W        W80423  40.542  38.830   4.132
18893W        W80424  24.607  22.052  14.300
18894W        W80425   4.260  14.283   0.776
18895W        W80426  24.529  30.649   2.232
18896W        W80427  37.439  39.383  11.114
18897W        W80428   5.825  34.562   1.426
18898W        W80429  10.178  28.075   4.217
18899W        W80430  33.127  35.557   1.222
18900W        W80431  23.090  23.605   1.215
18901W        W80432  40.479  10.707   2.276
18902W        W80433  39.331  26.154   1.890
18903W        W80434  15.125   2.412   2.238
18904W        W80435  26.158   5.892   3.674
18905W        W80436  33.547  43.331   2.402
18906W        W80437  35.385  34.419   0.788
18907W        W80438  24.037  13.206  13.426
18908W        W80439   1.359  31.530  10.630
18909W        W80440  15.756  25.524  14.489
18910W        W80441  24.166  32.409   4.611
18911W        W80442  35.515  34.379  13.996
18912W        W80443  17.297  20.633  10.445
18913W        W80444  13.107  23.149  11.883
18914W        W80445  23.022  21.751   1.220
18915W        W80446  33.584  41.433  10.547
18916W        W80447  16.638  29.445  14.373
18917W        W80448  17.556  36.004  11.861
18918W        W80449   2.389   3.905  12.054
18919W        W80450  39.487  28.034  14.858
18920W        W80451   4.769  44.896  13.944
18921W        W80452  42.470  43.365   4.754
18922W        W80453   1.951  11.717  13.968
18923W        W80454   3.440   6.850  12.010
18924W        W80455  10.782  41.297  14.899
18925W        W80456  40.018   7.695  13.019
18926W        W80457  26.050  42.792   0.465
18927W        W80458  33.477  15.267  10.595
18928W        W80459  34.525  29.498  13.998
18929W        W80460  23.176  23.019   2.269
18930W        W80461  40.383  29.556  12.356
18931W        W80462  37.337  32.399   1.368
18932W        W80463  42.855  31.530  12.950
18933W        W80464  20.530   3.437   2.348
18934W        W80465  24.064  29.931   2.301
18935W        W80466  42.939  29.020  14.930
18936W        W80467   4.826  38.845  11.415
18937W        W80468  40.356  24.225   3.784
18938W        W80469   9.222  19.721  11.120
18939W        W80470  41.978  41.861   4.738
18940W        W80471  26.118  25.056  10.454
18941W        W80472   9.880  31.050   5.274
18942W        W80473  35.592  24.014  12.025
18943W        W80474  36.414  29.095   1.764
18944W        W80475  29.094   0.947   1.907
18945W        W80476  30.073  28.150  13.961
18946W        W80477   4.353   4.425   4.799
18947W        W80478  12.642   8.813   3.847
18948W        W80479   5.758   0.248  14.909
18949W        W80480   8.381   2.470   3.676
18950W        W80481  32.502  41.445   4.706
18951W        W80482  22.708  42.884  10.457
18952W        W80483  40.831  36.493  14.791
18953W        W80484  44.386  28.627   3.221
18954W        W80485  20.764  38.329   2.253
18955W        W80486  38.555  18.626  11.973
18956W        W80487  16.088  22.148  13.450
18957W        W80488  35.909   9.208   1.721
18958W        W80489  23.588  35.893  10.473
18959W        W80490  17.621  11.856  11.382
18960W        W80491  31.085   3.357   1.320
18961W        W80492  29.967  16.674  10.630
18962W        W80493   5.812  18.708  14.789
18963W        W80494   3.345   1.419   0.939
18964W        W80495  17.200  11.310   0.305
18965W        W80496  17.266  32.546   3.354
18966W        W80497  18.192   2.472   1.224
18967W        W80498  42.465  11.765  13.869
18968W        W80499   8.313   0.325  12.571
18969W        W80500  34.882   0.913   4.721
18970W        W80501  12.151   3.457  12.944
18971W        W80502  32.012  29.533   0.728
18972W        W80503  28.514  38.483   1.432
18973W        W80504   9.195  43.434   3.864
18974W        W80505  24.494  32.000  12.058
18975W        W80506   1.398  28.162  14.487
18976W        W80507  19.210  41.301  11.052
18977W        W80508  28.617  12.852   0.767
18978W        W80509  35.990  23.019  10.596
18979W        W80510  38.997   2.420   0.465
18980W        W80511  16.630  14.340   4.147
18981W        W80512   3.801  32.946  13.968
18982W        W80513  12.268  34.898   3.274
18983W        W80514   7.869  26.471  11.594
18984W        W80515  43.370  21.616   0.755
18985W        W80516  16.644  11.755   4.114
18986W        W80517  18.216  12.140  13.995
18987W        W80518  30.983  14.337  11.475
18988W        W80519  28.929  33.958   1.306
18989W        W80520  24.529  28.681  13.014
18990W        W80521   7.367  20.728  13.938
18991W        W80522  20.256   4.392  12.465
18992W        W80523  14.282  25.092   5.157
18993W        W80524  17.081  15.205  12.493
18994W        W80525  10.143  26.665  11.027
18995W        W80526  21.621  14.188  12.482
18996W        W80527  11.199  33.942   4.312
18997W        W80528  33.525  34.514  12.531
18998W        W80529  41.412  32.114   4.204
18999W        W80530  30.955  16.601   3.261
19000W        W80531   2.735  16.208   3.371
19001W        W80532   3.721   1.813   2.254
19002W        W80533  42.947  10.181   2.811
19003W        W80534  30.597  34.419   0.300
19004W        W80535   0.856  39.440   3.293
19005W        W80536  11.652   5.213  12.077
19006W        W80537   3.257  10.814  14.397
19007W        W80538  34.918  25.480  13.945
19008W        W80539  18.696  22.997   1.869
19009W        W80540  43.989  12.653  12.459
19010W        W80541  36.472  42.820   2.415
19011W        W80542  16.710   3.336  12.872
19012W        W80543  20.667   8.802   5.266
19013W        W80544  11.208  40.414  13.322
19014W        W80545   3.762  26.996  14.919
19015W        W80546  13.290   1.877  14.808
19016W        W80547  33.622  40.901   2.403
19017W        W80548  35.081  35.394   0.412
19018W        W80549  10.379  27.588  12.400
19019W        W80550  11.775  43.309  13.367
19020W        W80551  15.669  25.082  13.341
19021W        W80552  12.250  13.118   4.193
19022W        W80553  41.380  39.520  14.991
19023W        W80554  34.067  15.699   2.380
19024W        W80555  35.914   1.798  10.540
19025W        W80556  16.700  18.259  10.420
19026W        W80557  43.798  19.536  12.065
19027W        W80558  25.660  32.034  13.969
19028W        W80559  32.493  21.178  10.473
19029W        W80560  28.514  25.484  14.296
19030W        W80561  43.015   4.726  13.418
19031W        W80562  38.973  16.573  12.031
19032W        W80563   7.734  44.442   1.313
19033W        W80564  30.092  25.498  13.489
19034W        W80565   8.825  19.129   0.432
19035W        W80566  37.973  34.579   2.813
19036W        W80567  22.633  26.073  12.043
19037W        W80568  26.095  19.047   4.819
19038W        W80569  41.380   5.747   1.281
19039W        W80570  16.228  31.991   4.229
19040W        W80571  36.089   1.425   2.820
19041W        W80572  12.696  39.482   2.252
19042W        W80573  25.540  21.591  10.409
19043W        W80574  42.969   9.699   4.321
19044W        W80575   0.798  24.616  13.041
19045W        W80576  37.491   4.869   4.182
19046W        W80577  29.554   0.773   1.928
19047W        W80578  41.312  30.037   1.296
19048W        W80579  29.989   1.472   1.783
19049W        W80580  24.999  32.892  12.088
19050W        W80581  35.360  35.957   2.232
19051W        W80582   0.345  32.571   1.303
19052W        W80583   3.321  15.776  14.787
19053W        W80584   4.820  30.445  11.122
19054W        W80585  39.320  37.950   2.743
19055W        W80586  38.881  41.419   2.417
19056W        W80587  14.248  27.621  14.310
19057W        W80588  11.278  18.711  14.009
19058W        W80589   9.292  34.391   2.352
19059W        W80590  43.832  12.173  11.071
19060W        W80591  13.150  12.760   2.370
19061W        W80592  26.162  38.458  10.601
19062W        W80593   9.236  41.439  11.119
19063W        W80594  14.659  38.916   2.742
19064W        W80595  24.110  23.049  11.485
19065W        W80596  39.857  42.931  11.978
19066W        W80597  19.047   9.274   2.369
19067W        W80598   4.429  18.647  11.419
19068W        W80599  13.745  22.681   3.275
19069W        W80600  39.472  35.868   4.188
19070W        W80601  23.060   5.292   4.650
19071W        W80602  11.209  19.707   4.622
19072W        W80603  42.297  15.690  13.533
19073W        W80604  40.965  17.284   2.818
19074W        W80605  27.174  40.514   0.419
19075W        W80606  39.534   9.310   9.638
19076W        W80607   3.278  25.478  13.863
19077W        W80608  15.619  19.691  12.499
19078W        W80609  21.744  12.212   2.285
19079W        W80610  31.435  17.062  11.502
19080W        W80611  41.378   0.391   2.192
19081W        W80612  22.049  35.587  11.117
19082W        W80613  30.013  25.541  11.457
19083W        W80614   4.919  36.088  14.393
19084W        W80615  18.651  23.238   3.701
19085W        W80616  33.921  39.516  12.403
19086W        W80617  10.205  10.250   1.392
19087W        W80618  38.412  40.419  14.366
19088W        W80619   3.839  37.377   3.224
19089W        W80620  25.034  36.538  14.836
19090W        W80621  25.698  31.454   2.859
19091W        W80622  13.248  33.883  13.950
19092W        W80623  27.975  23.176   3.353
19093W        W80624  22.031  32.139  12.921
19094W        W80625   9.679  32.581  11.464
19095W        W80626   4.814  24.083   2.805
19096W        W80627  24.681  32.885  11.507
19097W        W80628   6.390  41.800   0.263
19098W        W80629  38.529  12.263  10.980
19099W        W80630  43.793  39.377   0.831
19100W        W80631   3.279  40.953  10.924
19101W        W80632  22.136  43.343   4.250
19102W        W80633  40.922  21.188   0.448
19103W        W80634  36.979  13.181   4.753
19104W        W80635  12.631  11.680  11.562
19105W        W80636  20.720  39.913  13.499
19106W        W80637  42.787  20.570   4.139
19107W        W80638  30.424   0.424   4.795
19108W        W80639   8.806  32.621   5.153
19109W        W80640   5.279  44.880  13.926
19110W        W80641   8.402   3.738   1.830
19111W        W80642  34.086  14.792  13.957
19112W        W80643  15.751  33.023  12.508
19113W        W80644  10.257  26.561  13.819
19114W        W80645  37.477  30.539  11.044
19115W        W80646  17.234   5.802  14.278
19116W        W80647  25.986  26.152  12.436
19117W        W80648  15.286  18.587   3.800
19118W        W80649   7.745  37.401  11.509
19119W        W80650   3.404  36.585  11.590
19120W        W80651  20.698  13.785   2.387
19121W        W80652  34.883  31.975   2.405
19122W        W80653   3.215  10.788   2.693
19123W        W80654  35.944  35.482   1.256
19124W        W80655   7.885  24.030   0.448
19125W        W80656  29.020  26.561   2.392
19126W        W80657  33.898  35.443  10.438
19127W        W80658   4.421  39.473   1.865
19128W        W80659  33.882  32.419   0.449
19129W        W80660  30.949  42.439   1.342
19130W        W80661   9.376  19.063   1.717
19131W        W80662  27.090  41.508  13.384
19132W        W80663   0.423  21.029  12.367
19133W        W80664  32.587  10.739   2.345
19134W        W80665  16.268   7.849  12.380
19135W        W80666   7.211  17.089  14.779
19136W        W80667  37.941  19.200  11.910
19137W        W80668  10.772  34.004   4.233
19138W        W80669  42.337  24.695  10.535
19139W        W80670  39.836   4.332   3.719
19140W        W80671  15.628  14.337   5.313
19141W        W80672  42.468  42.981  12.033
19142W        W80673  29.134  39.956  11.009
19143W        W80674  15.213  32.510  11.117
19144W        W80675  25.063  13.153   0.262
19145W        W80676  19.621  19.240   2.872
19146W        W80677  44.328  22.578   4.654
19147W        W80678  34.020  19.078   2.693
19148W        W80679  15.216  30.590  10.531
19149W        W80680  14.785   4.349  14.897
19150W        W80681  33.955  13.109  14.356
19151W        W80682   4.751  40.958   1.769
19152W        W80683  30.943  38.076  11.075
19153W        W80684  11.681  28.510   0.857
19154W        W80685  16.222  42.511  12.559
19155W        W80686  34.899  32.627   1.750
19156W        W80687   7.765  31.593   0.477
19157W        W80688  36.447  12.131  11.484
19158W        W80689   1.301  39.313   3.829
19159W        W80690   4.941  34.067  12.392
19160W        W80691  25.170  21.607   4.142
19161W        W80692   1.738   9.155   0.362
19162W        W80693   8.807  26.521   2.220
19163W        W80694  39.872  40.051   3.180
19164W        W80695  32.006  37.877   2.190
19165W        W80696  23.176  26.143   1.307
19166W        W80697  22.578  35.572   4.629
19167W        W80698  33.420  17.292   0.908
19168W        W80699  39.941  22.567  11.429
19169W        W80700  28.978  19.258  14.926
19170W        W80701  20.640  39.453  13.437
19171W        W80702   0.288  36.399  11.908
19172W        W80703   3.229  26.538   4.820
19173W        W80704  33.979  31.977   3.657
19174W        W80705  33.926  23.203  11.455
19175W        W80706  29.080  26.689   3.336
19176W        W80707  22.595  35.573   3.164
19177W        W80708  10.176   3.891   4.821
19178W        W80709  24.196  29.618   3.150
19179W        W80710  43.475   6.239  13.006
19180W        W80711   7.828  29.452  12.406
19181W        W80712   1.975  10.732  11.522
19182W        W80713  44.846   3.239   1.793
19183W        W80714   5.804  35.426   3.316
19184W        W80715  29.043  14.156   2.268
19185W        W80716   1.740   4.870   0.384
19186W        W80717  21.574  16.218  12.018
19187W        W80718   4.284  43.777  14.021
19188W        W80719   9.671   8.331   4.248
19189W        W80720  20.740  35.982  14.466
19190W        W80721  15.703  22.708   2.679
19191W        W80722  19.569   1.448   3.779
19192W        W80723  10.748  26.141  12.578
19193W        W80724  25.673  24.125   4.811
19194W        W80725   0.920  33.946   2.222
19195W        W80726  16.181  24.158  13.804
19196W        W80727   1.830  30.943   3.746
19197W        W80728  29.055   7.862   9.594
19198W        W80729  33.561  33.520   1.439
19199W        W80730  33.429  34.403  13.450
19200W        W80731  13.113  13.620  10.982
19201W        W80732  19.731   0.343  10.993
19202W        W80733  13.728  42.016   3.793
19203W        W80734  27.988  28.963  11.088
19204W        W80735  40.887  20.220   2.381
19205W        W80736   3.286  12.647  10.442
19206W        W80737  36.435   2.363   0.266
19207W        W80738   5.820   2.962   4.628
19208W        W80739   6.800  23.554   1.856
19209W        W80740  15.587  36.439   3.754
19210W        W80741   9.322  34.096   2.253
19211W        W80742   1.424  27.635   4.253
19212W        W80743  19.064  31.587  11.072
19213W        W80744   6.831  40.913   2.346
19214W        W80745  25.470  35.942   1.378
19215W        W80746  36.560  30.523   3.747
19216W        W80747  15.669  37.052   4.605
19217W        W80748  25.034  39.538  12.404
19218W        W80749  36.361  21.240  10.405
19219W        W80750  32.408  42.338  10.445
19220W        W80751  32.626  10.786   0.926
19221W        W80752  17.692  42.468  12.515
19222W        W80753  38.058   1.443  11.526
19223W        W80754  24.647  30.507  12.848
19224W        W80755   3.268   6.222   4.756
19225W        W80756  25.202   3.265  12.844
19226W        W80757  26.546   6.376  11.033
19227W        W80758  33.985   1.423   3.698
19228W        W80759  27.180  19.690  14.467
19229W        W80760   9.735  12.635   4.274
19230W        W80761  38.964   7.832   5.315
19231W        W80762  41.397  34.557   2.702
19232W        W80763   5.314  37.052  12.915
19233W        W80764  13.776   2.416  11.492
19234W        W80765  17.158  40.380  13.469
19235W        W80766  24.500  22.582  12.374
19236W        W80767  34.385  33.970   1.791
19237W        W80768  11.841   0.906   4.228
19238W        W80769  14.697  25.213   1.738
19239W        W80770  11.292  21.217   0.370
19240W        W80771   5.249  35.064  10.522
19241W        W80772  25.527  39.973  12.030
19242W        W80773  24.641   4.231  13.933
19243W        W80774  18.271  24.122  11.457
19244W        W80775  29.975  44.443  13.831
19245W        W80776  35.430  15.728   3.857
19246W        W80777  30.949  13.216  12.407
19247W        W80778  40.448  15.304  10.490
19248W        W80779  16.785  35.387   0.731
19249W        W80780  25.218  44.287   4.267
19250W        W80781  23.072  35.508  14.319
19251W        W80782  43.948  25.179   1.757
19252W        W80783  36.888   0.343  11.102
19253W        W80784  37.845  13.227   0.379
19254W        W80785  44.313  12.629  11.986
19255W        W80786  22.101  28.994   2.407
19256W        W80787   9.335  24.595  12.409
19257W        W80788   1.479  22.178   2.676
19258W        W80789  12.827  26.575   0.817
19259W        W80790  11.371  34.977   3.683
19260W        W80791  16.642  37.843  12.063
19261W        W80792   9.765  29.162   0.384
19262W        W80793  24.174  31.497   0.378
19263W        W80794  37.068  13.794  13.399
19264W        W80795  17.597   7.200  11.462
19265W        W80796  13.288   1.734  13.437
19266W        W80797  10.680  11.701  12.475
19267W        W80798  15.328  25.144   9.980
19268W        W80799  43.478  26.484   1.387
19269W        W80800  31.449  17.122   3.207
19270W        W80801  23.496  39.834  11.405
19271W        W80802   2.271  34.532   4.346
19272W        W80803  16.093  19.582  13.033
19273W        W80804  37.987  14.268   2.365
19274W        W80805  43.423  35.083  14.350
19275W        W80806  37.956  34.943  12.468
19276W        W80807  41.884  27.959   4.768
19277W        W80808  41.470  41.972   2.261
19278W        W80809  21.616   8.308  11.956
19279W        W80810   7.873  20.642   3.648
19280W        W80811   4.323  37.943   1.427
19281W        W80812   5.796  27.447   2.379
19282W        W80813   9.237  43.497  13.872
19283W        W80814   3.261  13.226   0.249
19284W        W80815  29.491  24.670   2.328
19285W        W80816  11.764  18.578   2.676
19286W        W80817  10.356  29.437   9.983
19287W        W80818  11.632  42.020   1.757
19288W        W80819  29.110  34.059  12.950
19289W        W80820  19.113  20.620  12.360
19290W        W80821  37.081  17.107  14.923
19291W        W80822   8.892  26.991   4.667
19292W        W80823  27.591  31.522   2.756
19293W        W80824  23.124  41.503   2.261
19294W        W80825  33.020  41.034  11.936
19295W        W80826  14.613  27.019  14.949
19296W        W80827  41.440   2.817  11.504
19297W        W80828   1.255  30.134   1.343
19298W        W80829   7.412  26.992  12.532
19299W        W80830  35.991  20.254  13.014
19300W        W80831  26.093  10.236  10.050
19301W        W80832   2.342   5.773   4.312
19302W        W80833   4.418  35.394   2.741
19303W        W80834  29.131  27.580   2.824
19304W        W80835  41.040  21.526   1.265
19305W        W80836   0.911  16.299  11.380
19306W        W80837   9.680  22.068   2.271
19307W        W80838  19.114  37.494  14.430
19308W        W80839  23.599  16.640   1.694
19309W        W80840  33.121  18.285  13.841
19310W        W80841  22.081  19.040   1.433
19311W        W80842   3.398  17.616  14.315
19312W        W80843  24.649   1.438  14.276
19313W        W80844  25.050  35.854   3.854
19314W        W80845  42.458  33.458   1.767
19315W        W80846   4.800  13.246  14.482
19316W        W80847  41.885   4.393  12.929
19317W        W80848  31.611  10.790   1.309
19318W        W80849  12.227  14.785   0.832
19319W        W80850  17.793  33.621   0.394
19320W        W80851  37.862  20.674   3.833
19321W        W80852  26.053  35.945   2.712
19322W        W80853  12.725  16.200  13.903
19323W        W80854  31.551   8.892  11.589
19324W        W80855  36.086  22.682   3.241
19325W        W80856  42.288  28.076  14.463
19326W        W80857  36.451  11.664   1.739
19327W        W80858  39.863  17.074   1.301
19328W        W80859  25.535  17.173  11.503
19329W        W80860  29.119   6.824  12.880
19330W        W80861   9.281   7.193   2.387
19331W        W80862  34.502  43.919  13.948
19332W        W80863  29.007  23.586   0.742
19333W        W80864   7.265  37.911  14.807
19334W        W80865  27.651  30.110   4.136
19335W        W80866   3.953  24.670  14.782
19336W        W80867  20.561  10.305   1.838
19337W        W80868  19.536  12.665   1.320
19338W        W80869  29.430  43.466  12.431
19339W        W80870  11.233  26.582  12.542
19340W        W80871  30.137  41.806  10.409
19341W        W80872  23.681  10.754   2.770
19342W        W80873   7.293  34.576  14.907
19343W        W80874  31.469  30.449   0.864
19344W        W80875  24.704  43.898   4.297
19345W        W80876   1.364  38.821  12.397
19346W        W80877  17.775  41.809  12.953
19347W        W80878  10.273   3.942  13.024
19348W        W80879  44.978  19.064   2.729
19349W        W80880  36.346  31.076   1.337
19350W        W80881  17.158  12.726   3.333
19351W        W80882  42.860   4.825   4.792
19352W        W80883  13.764  40.420  12.514
19353W        W80884  23.241  24.214  14.510
19354W        W80885  17.209  32.473  12.914
19355W        W80886  23.138  42.889   0.745
19356W        W80887  11.645  44.974  13.033
19357W        W80888  27.547  41.829   3.630
19358W        W80889   1.378  42.944   1.371
19359W        W80890  22.192  41.411  12.438
19360W        W80891   0.806   2.931  11.573
19361W        W80892  20.165   2.410  12.562
19362W        W80893  23.579  38.538  10.988
19363W        W80894  11.845  22.691   1.430
19364W        W80895  20.540  10.369   4.302
19365W        W80896  34.110   8.192   0.942
19366W        W80897  29.459  39.342   1.389
19367W        W80898  42.509   0.965  10.912
19368W        W80899  38.530   0.937  14.296
19369W        W80900  35.379  43.294  10.995
19370W        W80901  15.265  37.531  13.898
19371W        W80902  30.644  14.618   2.199
19372W        W80903   6.896  43.882  10.920
19373W        W80904  27.117  35.046   4.343
19374W        W80905   1.358  11.235  14.992
19375W        W80906  41.901  39.526   0.356
19376W        W80907  33.052   8.169   1.367
19377W        W80908  36.488  43.436  14.952
19378W        W80909  14.654  21.240  13.358
19379W        W80910   5.246  41.799  12.552
19380W        W80911  23.552   8.694  12.453
19381W        W80912  25.177  28.930   4.302
19382W        W80913  32.928  34.612   3.195
19383W        W80914   0.469  12.696  10.612
19384W        W80915  38.423   0.391  12.566
19385W        W80916  13.151  23.195  13.419
19386W        W80917  18.274   9.793  10.427
19387W        W80918  24.572  11.341  11.410
19388W        W80919   6.397  13.734  11.474
19389W        W80920  43.829  30.606  10.591
19390W        W80921  24.649   2.236   1.798
19391W        W80922  21.039  21.208   0.735
19392W        W80923   5.255  40.921  10.506
19393W        W80924   8.165  11.692   0.778
19394W        W80925   9.889  40.887  11.021
19395W        W80926   5.725   0.810  13.357
19396W        W80927  15.130  32.097   3.667
19397W        W80928  23.612  39.976  11.993
19398W        W80929  35.469  22.033   4.703
19399W        W80930  15.732  41.022  10.513
19400W        W80931   2.932   2.261  12.570
19401W        W80932  23.554  12.247  12.501
19402W        W80933  41.524  39.431   2.709
19403W        W80934  31.093   5.382  11.386
19404W        W80935   0.952  30.032   1.904
19405W        W80936   1.841  38.427  11.856
19406W        W80937  12.340  33.496  11.400
19407W        W80938  36.443  33.931   4.671
19408W        W80939  10.851  17.772   0.473
19409W        W80940  13.306   7.317   1.725
19410W        W80941   3.757   7.402   3.317
19411W        W80942  32.129  21.237  14.822
19412W        W80943  10.163   1.795  12.849
19413W        W80944  41.913  23.602   0.872
19414W        W80945  35.580  17.160  14.842
19415W        W80946   5.347  24.620  12.470
19416W        W80947   9.869  41.425   4.609
19417W        W80948  15.628   9.282  11.105
19418W        W80949  42.491  12.270   3.817
19419W        W80950  15.330  15.208   0.333
19420W        W80951  30.019  32.554  11.577
19421W        W80952  16.240  18.750  10.442
19422W        W80953   1.760  19.139  12.974
19423W        W80954   9.169  31.148  10.466
19424W        W80955  24.611  18.625   0.965
19425W        W80956  40.326  27.584   4.247
19426W        W80957  22.632   9.877   3.750
19427W        W80958  31.019  14.268   3.666
19428W        W80959  20.628   5.821   2.234
19429W        W80960  26.962  39.432  12.019
19430W        W80961  24.044   0.845  12.376
19431W        W80962  40.975   4.841   2.884
19432W        W80963  19.193   4.251   3.354
19433W        W80964   5.231   7.284   4.737
19434W        W80965  23.073  31.553  12.460
19435W        W80966   7.189  33.516  12.361
19436W        W80967  12.360   2.755   0.371
19437W        W80968   2.315  16.605  11.873
19438W        W80969  34.101  28.670   0.372
19439W        W80970   1.412   3.742   0.762
19440W        W80971  40.855  31.564   1.231
19441W        W80972  25.037   7.730  13.883
19442W        W80973  43.446   2.403  12.359
19443W        W80974  36.497   7.699  13.033
19444W        W80975   6.295  20.599   4.694
19445W        W80976  28.636  24.612   3.696
19446W        W80977  19.601  26.459  13.930
19447W        W80978  38.561  41.379  13.340
19448W        W80979  32.896  26.487   2.373
19449W        W80980  37.899  29.946  12.031
19450W        W80981  40.464  21.588   0.937
19451W        W80982  22.050  23.037   2.332
19452W        W80983  13.780  12.692  13.997
19453W        W80984  21.046  33.032   3.339
19454W        W80985   6.394  35.518  11.555
19455W        W80986  27.130  30.617  13.022
19456W        W80987  20.174  26.100   3.843
19457W        W80988  24.156  10.678  12.481
19458W        W80989  18.089  15.241  14.777
19459W        W80990   6.343  28.440   0.273
19460W        W80991  19.279  39.546   1.422
19461W        W80992  28.585   2.298   4.745
19462W        W80993  31.068  27.064   1.336
19463W        W80994   4.870  39.548   4.826
19464W        W80995  11.260  27.678  12.556
19465W        W80996  33.615  36.480   1.788
19466W        W80997  27.176  42.358  14.812
19467W        W80998   8.668   7.346  11.415
19468W        W80999  35.976  13.174   2.353
19469W        W81000  38.411   0.803  13.942
19470W        W81001  32.576  28.014  11.582
19471W        W81002   5.197   3.754   1.694
19472W        W81003   8.758   7.214   3.360
19473W        W81004  30.150  14.601   1.283
19474W        W81005  21.724  35.068  11.589
19475W        W81006  25.993   7.379  13.318
19476W        W81007  13.740  25.563   0.480
19477W        W81008   0.460  13.267   4.209
19478W        W81009   5.801   4.713   3.338
19479W        W81010  26.992  38.957   3.374
19480W        W81011  40.519  38.002   3.287
19481W        W81012  18.213  35.415  12.551
19482W        W81013  12.328  42.892   0.927
19483W        W81014  25.184   5.926  13.398
19484W        W81015  19.669  17.602   4.237
19485W        W81016   3.452  19.271  10.596
19486W        W81017  13.624   4.810   1.220
19487W        W81018  17.087  33.000   1.386
19488W        W81019  41.391  30.067   2.790
19489W        W81020   9.250  27.628  14.761
19490W        W81021   7.214  37.978   4.193
19491W        W81022   9.230   0.815   4.270
19492W        W81023  11.818  21.662   4.185
19493W        W81024  28.624  19.625  11.068
19494W        W81025  40.542  28.054   4.118
19495W        W81026  23.690  17.720  14.956
19496W        W81027   5.725  32.886  11.987
19497W        W81028  44.260  36.068  11.080
19498W        W81029  19.128  10.330  14.972
19499W        W81030  35.577   7.411  12.448
19500W        W81031  33.574   6.704  12.350
19501W        W81032  17.062  16.682  11.492
19502W        W81033  15.653  23.190  12.503
19503W        W81034  20.132  32.464   4.628
19504W        W81035  13.810  23.220   1.716
19505W        W81036  31.129  11.855   4.621
19506W        W81037  31.522  21.589  12.880
19507W        W81038  18.715   3.823  13.030
19508W        W81039  19.697  12.355  10.495
19509W        W81040  44.337  27.613  12.391
19510W        W81041  28.141  23.668   3.757
19511W        W81042   0.255  31.057  14.913
19512W        W81043  22.252  28.151  14.400
19513W        W81044  26.059  28.042  12.578
19514W        W81045   6.183  42.806   4.613
19515W        W81046  38.540  36.427  12.444
19516W        W81047  28.021  29.505  10.947
19517W        W81048  26.962  14.301   2.266
19518W        W81049  26.185  29.602   2.679
19519W        W81050  14.244  20.061  13.540
19520W        W81051  21.040  16.638  12.492
19521W        W81052  34.096   6.922   3.336
19522W        W81053  41.026  32.902   4.197
19523W        W81054  14.612  23.629   9.447
19524W        W81055  33.093   2.735  13.825
19525W        W81056  13.163   4.335  11.122
19526W        W81057  24.121   7.875   2.389
19527W        W81058   2.732  41.965   0.744
19528W        W81059   1.974  20.651   4.672
19529W        W81060  44.367  32.533   1.444
19530W        W81061  26.703  20.611   4.321
19531W        W81062  11.709  14.248  12.891
19532W        W81063   4.399  41.986  11.549
19533W        W81064   2.872   0.327   4.663
19534W        W81065   1.802  15.620   1.437
19535W        W81066  19.060  44.453  12.062
19536W        W81067  16.192  14.171  11.932
19537W        W81068  44.281  38.971   3.815
19538W        W81069  44.432  12.846   2.298
19539W        W81070  26.497   5.782   4.727
19540W        W81071  15.738  30.068   1.729
19541W        W81072  27.075  31.125   2.302
19542W        W81073  37.568  30.037  12.386
19543W        W81074  20.663   7.909   0.954
19544W        W81075   9.866  34.906  11.543
19545W        W81076  21.578  14.747   0.945
19546W        W81077  19.555  15.608  12.378
19547W        W81078  14.820  39.870  13.520
19548W        W81079  19.687   0.786   1.860
19549W        W81080  36.438  18.215  11.446
19550W        W81081  14.687  14.299  12.400
19551W        W81082   3.281  34.118  11.533
19552W        W81083  32.433   4.941  11.903
19553W        W81084   2.295  35.443  13.452
19554W        W81085  36.500  43.977   0.368
19555W        W81086   8.353  12.192  14.348
19556W        W81087  35.524   2.293   1.904
19557W        W81088  16.167  27.087   0.804
19558W        W81089   3.751  29.639  11.545
19559W        W81090  26.471   3.394  13.929
19560W        W81091   9.330  36.406   3.375
19561W        W81092  25.697  19.677   2.233
19562W        W81093  37.032  21.059  12.366
19563W        W81094  21.223  12.713  11.086
19564W        W81095   2.472  22.143   4.352
19565W        W81096  44.280  38.033  12.866
19566W        W81097  15.796  19.685  12.889
19567W        W81098  28.086  17.158   2.296
19568W        W81099   8.346  35.085   2.294
19569W        W81100  39.025  43.915   1.332
19570W        W81101  43.849  29.937   2.255
19571W        W81102  10.802   6.297  13.811
19572W        W81103  24.142  31.626  13.051
19573W        W81104  30.434  38.492  13.063
19574W        W81105  30.495  16.078  14.332
19575W        W81106   4.445  13.146   0.764
19576W        W81107  38.527  11.752  13.967
19577W        W81108  43.873   3.826  11.123
19578W        W81109   1.328  28.616  11.594
19579W        W81110  41.894  17.268   4.626
19580W        W81111  40.400  17.179   0.355
19581W        W81112  38.018  27.112  10.611
19582W        W81113  30.946  18.208  13.412
19583W        W81114   1.947   3.289  11.889
19584W        W81115  20.223  35.602   4.706
19585W        W81116  33.893  43.984  11.496
19586W        W81117  27.081  38.474   1.390
19587W        W81118  23.046   8.807   2.305
19588W        W81119  18.237  30.980   0.315
19589W        W81120  24.151  18.628  12.936
19590W        W81121  39.991  42.993  13.538
19591W        W81122  24.655  15.111   0.865
19592W        W81123  24.496  29.983  11.889
19593W        W81124  25.103  44.758  13.463
19594W        W81125  28.160  20.613   2.316
19595W        W81126  19.151  17.256  14.422
19596W        W81127  20.073  27.663  14.487
19597W        W81128   1.750  14.672  13.350
19598W        W81129  44.883   3.295  10.907
19599W        W81130  32.936  39.008  12.348
19600W        W81131  24.644  10.735   3.692
19601W        W81132   9.298  36.582   3.725
19602W        W81133  16.755  27.634   4.297
19603W        W81134  33.921  31.511   1.310
19604W        W81135  26.067  21.612  11.075
19605W        W81136  28.625  25.056  12.013
19606W        W81137  15.671  40.423  12.942
19607W        W81138   8.784  11.286  12.417
19608W        W81139  30.558  30.430  13.449
19609W        W81140  36.476   3.348   5.096
19610W        W81141  42.426  17.619  10.921
19611W        W81142  25.968  35.414  11.893
19612W        W81143  28.667  25.059   3.814
19613W        W81144  23.984  30.474  14.339
19614W        W81145  38.075  24.219   0.345
19615W        W81146  39.332   1.898  14.927
19616W        W81147   6.201  42.806  11.401
19617W        W81148  29.501  36.048  11.424
19618W        W81149  24.572  39.390   1.787
19619W        W81150  33.101  23.138  14.762
19620W        W81151  24.061   2.277   0.270
19621W        W81152  13.145  31.612  10.917
19622W        W81153  15.817  14.202  10.563
19623W        W81154  27.058   9.782   0.334
19624W        W81155   6.349  27.647   1.211
19625W        W81156  32.902  44.987  11.024
19626W        W81157  42.949  30.983   2.851
19627W        W81158  17.610   5.205   1.928
19628W        W81159   3.440  23.724   4.835
19629W        W81160   2.304  41.339   1.854
19630W        W81161  22.628  15.176  13.029
19631W        W81162  24.003  21.092   1.904
19632W        W81163  18.256  41.804   3.371
19633W        W81164  32.948  43.451  10.641
19634W        W81165  32.124   7.885   4.216
19635W        W81166   1.967  27.032  14.375
19636W        W81167  37.506  17.697  11.856
19637W        W81168  36.372  35.384  12.055
19638W        W81169   0.987  33.540  14.009
19639W        W81170   7.716   2.809  13.795
19640W        W81171  24.201  34.489   1.752
19641W        W81172  18.223  31.009  14.908
19642W        W81173  16.693   9.843   1.820
19643W        W81174  27.675  22.995  14.376
19644W        W81175  29.535  19.121  11.487
19645W        W81176  38.436  12.309   0.329
19646W        W81177  19.149  21.669   2.288
19647W        W81178   4.348  14.222  13.924
19648W        W81179   1.414  13.144   2.186
19649W        W81180  39.560  42.974   3.714
19650W        W81181  41.308  30.586  14.787
19651W        W81182  24.670  41.821  11.052
19652W        W81183  31.915  36.377  11.531
19653W        W81184  36.033  20.232   5.188
19654W        W81185  31.599  23.716   0.310
19655W        W81186  21.067  19.269  13.946
19656W        W81187  11.259  33.938   4.636
19657W        W81188   8.859  11.768   2.257
19658W        W81189  23.147  28.591   0.435
19659W        W81190  11.740  21.530   3.266
19660W        W81191  30.115   7.211  11.018
19661W        W81192  44.990  24.517   4.691
19662W        W81193  27.039  43.403  11.431
19663W        W81194  41.811  44.794  12.403
19664W        W81195  37.551  26.507  10.479
19665W        W81196  20.764  29.132   0.833
19666W        W81197  18.072  21.024  13.860
19667W        W81198  14.592  26.587  10.592
19668W        W81199  43.406  39.469   3.784
19669W        W81200  43.890   1.957   4.687
19670W        W81201  16.120   8.700   0.364
19671W        W81202  43.984  28.186  13.395
19672W        W81203  28.076  40.004  12.444
19673W        W81204  10.281  25.984   2.290
19674W        W81205  30.112  36.855  12.957
19675W        W81206   4.423  31.991  14.889
19676W        W81207  17.175  41.910  13.047
19677W        W81208  18.760  34.115   0.785
19678W        W81209   1.433  16.272  11.095
19679W        W81210  38.827  29.135   3.645
19680W        W81211  21.583  19.062  12.031
19681W        W81212  31.453  19.227  10.620
19682W        W81213  17.077   7.405   4.838
19683W        W81214   6.751  28.535  13.414
19684W        W81215  10.872  23.065   2.285
19685W        W81216  14.098  40.886   2.222
19686W        W81217   5.891   7.675  13.364
19687W        W81218  30.112  19.110   1.915
19688W        W81219  24.715  30.032   1.898
19689W        W81220   5.200  38.006  12.361
19690W        W81221  36.019  11.705  14.761
19691W        W81222  28.175   3.799  11.403
19692W        W81223  23.542  41.906   3.387
19693W        W81224  38.510  41.962   1.801
19694W        W81225   8.895  36.564  12.526
19695W        W81226  12.231   0.355  14.767
19696W        W81227  36.093  18.083   1.794
19697W        W81228  16.098  31.636  13.876
19698W        W81229  29.953  36.469   0.447
19699W        W81230  10.653   7.198   2.732
19700W        W81231  40.492  36.844  12.423
19701W        W81232   4.309  44.903   2.844
19702W        W81233  31.485   4.297   3.280
19703W        W81234  16.248   1.308  14.778
19704W        W81235   9.689   5.708   4.276
19705W        W81236  14.627   6.868   4.808
19706W        W81237   4.786  23.121   3.278
19707W        W81238  34.566   9.332  11.925
19708W        W81239  30.651  42.351  12.435
19709W        W81240   8.669   9.767  11.381
19710W        W81241  22.139   1.478   0.481
19711W        W81242  39.521  21.040   1.258
19712W        W81243  20.243  25.599  14.446
19713W        W81244  30.545  32.514   3.156
19714W        W81245  14.174  17.201  12.349
19715W        W81246  43.473  11.790   0.786
19716W        W81247  25.579  41.351  12.002
19717W        W81248  35.531  23.198   1.273
19718W        W81249  44.756  27.178   4.629
19719W        W81250  23.076  41.971  12.022
19720W        W81251  16.786  30.585  14.011
19721W        W81252  22.090  25.539  13.857
19722W        W81253  10.760  30.982   9.655
19723W        W81254  22.172   7.864  10.448
19724W        W81255  10.638  41.823   0.318
19725W        W81256  11.282  20.041  11.989
19726W        W81257   8.246  34.424  13.382
19727W        W81258   4.899  10.798   1.921
19728W        W81259   5.724  10.816   0.905
19729W        W81260  14.602  19.207   0.329
19730W        W81261   6.841  26.630  14.492
19731W        W81262  12.241   7.759  12.016
19732W        W81263   3.896  37.555   4.699
19733W        W81264  37.081   7.252   4.644
19734W        W81265  10.238  41.451  13.500
19735W        W81266  30.042   2.960  14.494
19736W        W81267  12.314  32.530   3.721
19737W        W81268   3.420  40.374  12.915
19738W        W81269  31.006  33.954  12.833
19739W        W81270  14.683  23.649  13.034
19740W        W81271  25.507  39.835  11.394
19741W        W81272  20.031  25.672   2.327
19742W        W81273   1.964   5.204  12.527
19743W        W81274  10.666  24.227   1.896
19744W        W81275  30.086  20.606  13.972
19745W        W81276  34.958   7.886  13.064
19746W        W81277  14.680  37.947  11.022
19747W        W81278  41.435  12.740  13.529
19748W        W81279  30.576  44.429   1.824
19749W        W81280   0.932  21.583  13.362
19750W        W81281  34.377   0.467   3.726
19751W        W81282  34.074  17.303   3.197
19752W        W81283  32.112   1.391   1.359
19753W        W81284  12.188   6.716  11.901
19754W        W81285  14.752  25.621  12.538
19755W        W81286  29.532  28.954  11.581
19756W        W81287   3.338   8.804  14.505
19757W        W81288  19.689  15.196  14.361
19758W        W81289   5.249  23.734  11.470
19759W        W81290  37.382  22.119   3.867
19760W        W81291  35.554  27.022   2.388
19761W        W81292   9.331  14.213   1.302
19762W        W81293  10.858  32.456   5.322
19763W        W81294  21.150  18.580   1.331
19764W        W81295  26.588  19.112  12.979
19765W        W81296  13.285   1.333  11.990
19766W        W81297  17.727  29.933  13.063
19767W        W81298  23.015  43.915  14.891
19768W        W81299   9.772  22.692   1.821
19769W        W81300   8.251  35.529   2.820
19770W        W81301  13.252  33.063  14.981
19771W        W81302   6.190  24.009  14.288
19772W        W81303  10.165   9.750  12.349
19773W        W81304   2.448  16.295   3.864
19774W        W81305  13.213  23.041  10.483
19775W        W81306  21.210  13.695   3.278
19776W        W81307  35.934  38.922  14.446
19777W        W81308   6.838  25.011  10.965
19778W        W81309  33.597  38.544   2.866
19779W        W81310  15.579  10.329   2.864
19780W        W81311   8.746   8.360  11.127
19781W        W81312  34.412  26.137   0.882
19782W        W81313  22.127  35.523   3.157
19783W        W81314  20.757  35.398   4.658
19784W        W81315  39.986  17.172   0.806
19785W        W81316  35.558  14.789   0.745
19786W        W81317  36.430  41.360   4.300
19787W        W81318  14.764  13.289  14.399
19788W        W81319  44.798  42.287  13.015
19789W        W81320   1.310  15.710   0.734
19790W        W81321  43.444  43.793   3.870
19791W        W81322  44.946   3.844   2.829
19792W        W81323   0.754   4.828   0.482
19793W        W81324  40.380   8.828   3.184
19794W        W81325  35.363  37.844  11.895
19795W        W81326  38.424  42.964   4.799
19796W        W81327  13.823  20.189  13.059
19797W        W81328  41.036  23.140  14.513
19798W        W81329  20.552  38.019  13.434
19799W        W81330   0.928  14.094   1.925
19800W        W81331   0.768  34.099  11.861
19801W        W81332  28.660  22.149   0.847
19802W        W81333   2.330  37.031   2.797
19803W        W81334   2.804   3.917  14.324
19804W        W81335   7.352   2.878   3.312
19805W        W81336  41.787  34.051   1.702
19806W        W81337   8.273  17.260   3.711
19807W        W81338  10.311  23.159   4.754
19808W        W81339  33.382  30.061   3.250
19809W        W81340  30.431  33.022  13.792
19810W        W81341  18.130  12.316   1.776
19811W        W81342  23.242  31.080   2.298
19812W        W81343  42.454  40.029  13.915
19813W        W81344  30.563  15.677  10.083
19814W        W81345  29.656  37.389  10.972
19815W        W81346  21.711  42.502  12.849
19816W        W81347  21.511  44.858  14.988
19817W        W81348  10.777  25.202   3.171
19818W        W81349   5.805  30.052  10.623
19819W        W81350  38.884   1.337   2.791
19820W        W81351   2.935   3.942   4.133
19821W        W81352   1.832   2.453   2.226
19822W        W81353  33.416  41.361  13.518
19823W        W81354   3.403  37.411  14.308
19824W        W81355  12.284   0.825  13.437
19825W        W81356  12.787  32.050  14.006
19826W        W81357  31.502   9.819   5.263
19827W        W81358   7.363  35.396  11.880
19828W        W81359  26.617  36.995  11.903
19829W        W81360  21.119  22.721   3.759
19830W        W81361  43.967  11.622  12.043
19831W        W81362  32.484   8.777  12.476
19832W        W81363  29.543  37.425  11.517
19833W        W81364  26.598  13.693  13.488
19834W        W81365  11.228  27.617  12.977
19835W        W81366  36.492  39.486   1.913
19836W        W81367   5.840  42.797  13.022
19837W        W81368  39.316   7.813   1.312
19838W        W81369  10.142   1.266   0.920
19839W        W81370   8.236  34.601   0.729
19840W        W81371  20.539  38.913  13.353
19841W        W81372   9.772  32.487  13.883
19842W        W81373  31.153  19.190  14.483
19843W        W81374  38.908   5.789   2.302
19844W        W81375  33.938  22.095  12.412
19845W        W81376  24.981   7.417   4.695
19846W        W81377  22.625  10.158   3.790
19847W        W81378  39.338  33.379   0.943
19848W        W81379  29.985  38.064   0.874
19849W        W81380  18.261  20.205  13.401
19850W        W81381  31.966  41.507  14.882
19851W        W81382  27.953  26.562   2.335
19852W        W81383   5.424  21.114  13.809
19853W        W81384  30.916  38.367  10.575
19854W        W81385   4.321  36.558   1.450
19855W        W81386  20.154  25.029  13.978
19856W        W81387  14.638   8.820   0.327
19857W        W81388   4.852  42.885  13.835
19858W        W81389  24.037   6.425   4.163
19859W        W81390  15.193  15.610  13.019
19860W        W81391  36.881   3.378   3.670
19861W        W81392   3.411  28.575  12.884
19862W        W81393  20.091  41.896   2.381
19863W        W81394   3.220  30.147   2.738
19864W        W81395   1.779  33.923   4.207
19865W        W81396  24.588   7.684  14.335
19866W        W81397   5.281  39.005   3.761
19867W        W81398  35.538  15.689  11.438
19868W        W81399  16.192  33.466   3.256
19869W        W81400  18.110  33.076  14.395
19870W        W81401  34.919  32.019   2.683
19871W        W81402  36.977  34.535  13.988
19872W        W81403  44.290   0.493   2.260
19873W        W81404  37.447   7.908  11.526
19874W        W81405  13.807  43.815   0.337
19875W        W81406  28.535  20.655   3.385
19876W        W81407   3.854  18.622   1.451
19877W        W81408  41.024  44.361  10.407
19878W        W81409   2.958  17.236   4.646
19879W        W81410  14.810  36.398  14.962
19880W        W81411  14.148  14.282   2.396
19881W        W81412  28.117   7.274  14.002
19882W        W81413   9.739  30.028  12.869
19883W        W81414   1.373  16.792   3.229
19884W        W81415  32.010  13.127   4.286
19885W        W81416  29.657  25.698  12.447
19886W        W81417  28.557  41.516   2.831
19887W        W81418  13.707   8.240  14.488
19888W        W81419  25.138  14.742   3.782
19889W        W81420  29.573  37.064   3.726
19890W        W81421   3.760  43.836  11.394
19891W        W81422  11.288  25.597   4.331
19892W        W81423  18.289   8.243  12.903
19893W        W81424  32.977  23.217   0.319
19894W        W81425  14.232  40.928   1.310
19895W        W81426   6.715   4.437  13.863
19896W        W81427  24.126  11.656   4.334
19897W        W81428  35.446  28.025  10.906
19898W        W81429  22.072  22.541  12.849
19899W        W81430  16.260   0.765  14.824
19900W        W81431   7.234  38.017  12.369
19901W        W81432   4.868  39.348   3.201
19902W        W81433  35.073  38.956   9.944
19903W        W81434  42.966  27.044   4.620
19904W        W81435  27.616  13.647   0.249
19905W        W81436  20.073  19.608   3.363
19906W        W81437  20.183  35.993  14.801
19907W        W81438  21.213  36.987  13.917
19908W        W81439  33.121  42.423   4.782
19909W        W81440  17.103  34.493   1.735
19910W        W81441  35.593  36.551   1.306
19911W        W81442  36.032  24.588   2.862
19912W        W81443  15.138  37.000  13.997
19913W        W81444  22.081  41.382  14.393
19914W        W81445  42.830   2.759  12.472
19915W        W81446  16.196  35.964   2.807
19916W        W81447  37.336   0.305  12.935
19917W        W81448  30.483  37.582  14.363
19918W        W81449  28.002   5.222   4.744
19919W        W81450  33.528  36.549   3.355
19920W        W81451  23.110  10.653   2.178
19921W        W81452   6.386   2.801  12.530
19922W        W81453  25.608  10.746   2.719
19923W        W81454  28.544  15.799  11.538
19924W        W81455  13.789  44.876   2.213
19925W        W81456  36.418  14.161   2.365
19926W        W81457  41.967  28.662   0.839
19927W        W81458  38.435   4.437  11.560
19928W        W81459  40.386  13.622   4.763
19929W        W81460  39.046  29.503  13.437
19930W        W81461  28.524  24.695  13.545
19931W        W81462  10.848  22.154  14.785
19932W        W81463  20.038   6.762   0.472
19933W        W81464   4.391   2.854  12.469
19934W        W81465  44.307   1.453  13.916
19935W        W81466  31.617   3.842   1.271
19936W        W81467   7.297  33.120  11.549
19937W        W81468   0.467  28.171  13.541
19938W        W81469  31.011   1.886  14.440
19939W        W81470  34.402  34.904   3.153
19940W        W81471  32.960  11.624  10.637
19941W        W81472  16.303   2.870   3.730
19942W        W81473  29.055   1.308   1.259
19943W        W81474  42.987   1.972   1.210
19944W        W81475  23.988  41.902   1.715
19945W        W81476  32.558   7.300   5.151
19946W        W81477  11.369  21.195  11.412
19947W        W81478  37.571  14.724  12.045
19948W        W81479   5.839   9.830  12.077
19949W        W81480   8.743  39.912   4.325
19950W        W81481  37.959   8.312  12.451
19951W        W81482   1.348  43.293  12.505
19952W        W81483   6.185  20.130  10.539
19953W        W81484  42.919   1.878  13.005
19954W        W81485  37.997  12.658   3.204
19955W        W81486  37.899  38.035  12.014
19956W        W81487  38.994  18.224  14.820
19957W        W81488  17.629  37.055   4.136
19958W        W81489  24.200  18.096  10.532
19959W        W81490  40.838  10.755  13.797
19960W        W81491  13.125  20.226  13.935
19961W        W81492  18.187  42.950   2.326
19962W        W81493  12.740  26.675   3.161
19963W        W81494  37.515  19.136  12.025
19964W        W81495  20.683  35.856  10.514
19965W        W81496  38.903  22.146  12.032
19966W        W81497   8.394   7.859   2.688
19967W        W81498  44.840  40.801   0.317
19968W        W81499  34.032  18.569   2.329
19969W        W81500   5.228  21.717   1.852
19970W        W81501  34.899  35.520  10.065
19971W        W81502  14.705  39.827  13.864
19972W        W81503   4.944  40.403   2.751
19973W        W81504  34.384  23.528   1.846
19974W        W81505  41.537  18.681   1.920
19975W        W81506  23.096  32.403   4.182
19976W        W81507  39.876  28.112  12.465
19977W        W81508  38.973  43.789  13.844
19978W        W81509  35.563  10.649   0.242
19979W        W81510   5.378  15.813  10.539
19980W        W81511  44.287  24.664  14.933
19981W        W81512  10.299  44.397   5.095
19982W        W81513  37.361  29.959   0.772
19983W        W81514   2.334  17.619  12.460
19984W        W81515  24.570  29.425  12.825
19985W        W81516  32.942   9.747   4.155
19986W        W81517  20.261  39.335   3.645
19987W        W81518  31.143  18.071   5.264
19988W        W81519  38.064   2.469  14.336
19989W        W81520   1.400  36.445   3.296
19990W        W81521  29.571  12.204   1.832
19991W        W81522   8.672  18.763  12.523
19992W        W81523  32.568  23.718  12.068
19993W        W81524  44.875  13.760   1.416
19994W        W81525  21.197  20.050  12.418
19995W        W81526  33.009  37.391   1.437
19996W        W81527  40.342  19.200   3.148
19997W        W81528   5.873  24.149   4.746
19998W        W81529   7.683  16.236  13.937
19999W        W81530  30.109  11.813   4.661
20000W        W81531  27.641   6.801  13.057
20001W        W81532  14.166  31.104   2.877
20002W        W81533  16.290   1.846  13.315
20003W        W81534  37.564  23.996  12.378
20004W        W81535  40.003  40.320   3.773
20005W        W81536  20.548  40.407  10.531
20006W        W81537   0.831  27.150   2.216
20007W        W81538  28.930  26.154  11.078
20008W        W81539  14.185   1.295  14.772
20009W        W81540   5.825  27.497   0.786
20010W        W81541   8.353  30.961  11.984
20011W        W81542   4.817  20.183  12.091
20012W        W81543  44.496  33.079   3.216
20013W        W81544   7.356  17.080   4.597
20014W        W81545  19.754   4.439  10.920
20015W        W81546   4.321   4.274   0.780
20016W        W81547  36.472  12.737   2.687
20017W        W81548   5.343  21.719  14.947
20018W        W81549  42.489  16.223  13.949
20019W        W81550   5.808  29.629   2.669
20020W        W81551  23.020  44.482  10.081
20021W        W81552  28.645  39.963  14.428
20022W        W81553  44.482  14.110  11.471
20023W        W81554  43.891  25.023  11.401
20024W        W81555  32.942  12.825  10.048
20025W        W81556  29.635   8.663  12.426
20026W        W81557   3.855  16.663   3.795
20027W        W81558   4.291  28.537   2.794
20028W        W81559   5.305  29.153  13.426
20029W        W81560  44.809  28.589  11.421
20030W        W81561  25.071  26.005   0.250
20031W        W81562  16.269  13.230  13.402
20032W        W81563  21.695  20.708   3.726
20033W        W81564  37.382  18.571  14.871
20034W        W81565   3.279  43.343  14.434
20035W        W81566  19.695  14.190  11.549
20036W        W81567  41.948   8.237   1.222
20037W        W81568   5.301   9.709  12.093
20038W        W81569  10.270   6.819   0.310
20039W        W81570  21.136  34.984  13.395
20040W        W81571   0.841   5.292  11.981
20041W        W81572  28.564   6.331   4.698
20042W        W81573  15.819   3.282  10.522
20043W        W81574   7.372   0.248   0.768
20044W        W81575   5.279  42.405  10.472
20045W        W81576   4.709  37.077  12.061
20046W        W81577  11.767   3.900   3.777
20047W        W81578  18.790  30.468   4.750
20048W        W81579  17.581  30.137   0.928
20049W        W81580  17.167  30.426   4.236
20050W        W81581   3.313  19.565   2.796
20051W        W81582  42.448  12.353  14.996
20052W        W81583  32.487  29.541   0.917
20053W        W81584  32.943  42.937  11.892
20054W        W81585  19.197  38.006   3.307
20055W        W81586  20.588  44.485   4.741
20056W        W81587  44.978  39.921  10.928
20057W        W81588  13.700  19.054  14.413
20058W        W81589  23.642  32.528   0.910
20059W        W81590  32.607   4.323  12.877
20060W        W81591   2.916   4.410  11.108
20061W        W81592   5.795  22.632   1.872
20062W        W81593  35.403  30.624  11.584
20063W        W81594  27.084  35.597   2.752
20064W        W81595  12.223  21.133   2.359
20065W        W81596  31.976  33.999  10.623
20066W        W81597  12.670  41.527   1.404
20067W        W81598  32.588   2.380   0.453
20068W        W81599  21.611  37.996   0.962
20069W        W81600  37.450  10.797   1.347
20070W        W81601   1.866  39.033  12.934
20071W        W81602  16.730  43.808   0.919
20072W        W81603  41.956  33.496  14.867
20073W        W81604  17.670  30.035  14.012
20074W        W81605   3.721   2.911  14.770
20075W        W81606  21.724  36.895   4.205
20076W        W81607   3.342  11.134   3.363
20077W        W81608   3.789  33.981  12.351
20078W        W81609  31.924  26.494  12.450
20079W        W81610  15.779  37.937   1.709
20080W        W81611  14.275  35.419  13.426
20081W        W81612   4.718  18.277  12.855
20082W        W81613  23.560  10.231  11.889
20083W        W81614  25.046  35.416   0.938
20084W        W81615  39.518  42.846  13.798
20085W        W81616  41.938  39.908  11.491
20086W        W81617  44.376  16.231   1.449
20087W        W81618  33.558  21.164  14.382
20088W        W81619  14.116  16.736  13.362
20089W        W81620  16.193  33.943   4.301
20090W        W81621  29.980  20.587  11.991
20091W        W81622  17.288  37.031   4.283
20092W        W81623  39.028   7.389  13.335
20093W        W81624  14.689  40.469  10.935
20094W        W81625   4.427  27.562   4.195
20095W        W81626  16.222  30.471   2.811
20096W        W81627  30.541   9.162  11.879
20097W        W81628  19.252  38.427  14.361
20098W        W81629  25.031  34.107   3.338
20099W        W81630  13.174  13.600   2.749
20100W        W81631  38.477  14.303   3.359
20101W        W81632   2.264  13.796   3.163
20102W        W81633  36.411  42.419   1.918
20103W        W81634  13.273   9.287  11.375
20104W        W81635   6.344  16.580  13.798
20105W        W81636  13.657  11.795  11.451
20106W        W81637   2.731  19.262   0.829
20107W        W81638  35.029  11.194   1.261
20108W        W81639  30.419  13.163   4.264
20109W        W81640  29.629   6.247   1.815
20110W        W81641  20.274  20.130   1.925
20111W        W81642  30.161   4.803   2.689
20112W        W81643  16.719  24.565  13.834
20113W        W81644   4.745  21.246  14.030
20114W        W81645  29.554  22.567  11.967
20115W        W81646  22.230   1.358  13.467
20116W        W81647  17.743   2.741  10.558
20117W        W81648  12.215  31.949  12.448
20118W        W81649  24.221  11.737   4.788
20119W        W81650  31.406  15.608   1.846
20120W        W81651  14.252   4.725   4.163
20121W        W81652  43.775  37.579  12.354
20122W        W81653  31.944  31.010   3.740
20123W        W81654  17.682  25.054  10.895
20124W        W81655  19.221   0.762   1.416
20125W        W81656  35.556  31.091   2.884
20126W        W81657   2.379  24.670   0.349
20127W        W81658  27.572  35.475   1.416
20128W        W81659  38.002  23.236  13.949
20129W        W81660  18.286  23.566  13.458
20130W        W81661  13.630   7.695  12.943
20131W        W81662  35.929  37.531   1.383
20132W        W81663   2.469  14.715  12.015
20133W        W81664  10.864   3.753   5.122
20134W        W81665  11.802  41.375  12.922
20135W        W81666   5.200  44.381   2.759
20136W        W81667  13.147   7.796  10.516
20137W        W81668   9.305  10.727   1.366
20138W        W81669  18.716   9.325  10.919
20139W        W81670  27.533   7.739  10.477
20140W        W81671   5.200  31.639  10.515
20141W        W81672  12.760  22.683  13.039
20142W        W81673  38.915  33.619   3.785
20143W        W81674  33.939  14.732  13.326
20144W        W81675   7.343  10.327  10.936
20145W        W81676  15.735   5.774  11.499
20146W        W81677  16.231  35.858  14.943
20147W        W81678  34.586  21.611  11.881
20148W        W81679  30.159  40.451   3.153
20149W        W81680  35.933  35.864  11.563
20150W        W81681  12.715  43.277  14.954
20151W        W81682  38.886   4.361  11.573
20152W        W81683  30.061   1.259  13.529
20153W        W81684  22.180  34.903  10.572
20154W        W81685  20.240  34.446  10.467
20155W        W81686  34.528  27.055  14.806
20156W        W81687   1.436  21.732  11.926
20157W        W81688  32.396  34.112  10.557
20158W        W81689  38.542  11.861  11.961
20159W        W81690  18.755  22.501  10.897
20160W        W81691  26.024   6.764  10.469
20161W        W81692  12.205  37.846   2.828
20162W        W81693   8.193  17.287  10.546
20163W        W81694  33.388  28.003   1.345
20164W        W81695  35.526  27.579  13.449
20165W        W81696  16.289  23.499   1.816
20166W        W81697  41.375  40.521  14.994
20167W        W81698   8.773  11.728  14.817
20168W        W81699  25.196  43.006   2.716
20169W        W81700  22.595  37.051   1.836
20170W        W81701  17.231  11.152  11.600
20171W        W81702  25.189   1.379  11.577
20172W        W81703  34.043   0.987   2.747
20173W        W81704  24.187   3.825  12.990
20174W        W81705  25.189  17.566  13.944
20175W        W81706  35.911  13.786  10.433
20176W        W81707  31.484  37.882  13.463
20177W        W81708  19.185   2.360   0.421
20178W        W81709  20.037  39.837   1.336
20179W        W81710  32.141  40.462   2.829
20180W        W81711   3.329  17.246   1.866
20181W        W81712  41.003  31.903   1.720
20182W        W81713  40.846  37.004  10.594
20183W        W81714  39.406   2.351   2.358
20184W        W81715  39.952   9.357   3.344
20185W        W81716  13.734  15.714   2.321
20186W        W81717  15.189   4.337   0.342
20187W        W81718   1.419   7.398  14.845
20188W        W81719  16.665  23.089  13.360
20189W        W81720  33.101  43.009   2.734
20190W        W81721  29.515  43.772   4.336
20191W        W81722  15.605  37.440  14.454
20192W        W81723   5.363  30.127   2.253
20193W        W81724  11.137  29.447   0.748
20194W        W81725  21.082  38.530   4.248
20195W        W81726  18.188   5.707   1.798
20196W        W81727  26.017  24.594  12.367
20197W        W81728  16.662  17.580  12.371
20198W        W81729  38.069  26.699  11.460
20199W        W81730  28.564  34.021   3.324
20200W        W81731  39.506  24.651  14.876
20201W        W81732  32.974  15.754  12.847
20202W        W81733  16.199   3.386   3.359
20203W        W81734  24.588  37.841   0.355
20204W        W81735   4.825  18.130   0.877
20205W        W81736   8.891  42.426  12.839
20206W        W81737  21.624  20.670  11.070
20207W        W81738  10.831  21.245   3.747
20208W        W81739   4.841  26.124   2.193
20209W        W81740  22.078   0.903   3.649
20210W        W81741  37.433  23.023   3.224
20211W        W81742  19.067  34.395   2.805
20212W        W81743  42.856   2.281  10.544
20213W        W81744   1.248   0.860  14.995
20214W        W81745  26.683  38.390  10.590
20215W        W81746   0.873  18.661  13.348
20216W        W81747  17.792  13.231   1.242
20217W        W81748  29.626  38.898  11.432
20218W        W81749  37.921  11.755  10.088
20219W        W81750  27.147   5.279  11.543
20220W        W81751  35.025  15.741   3.155
20221W        W81752  22.240  27.170  11.000
20222W        W81753  12.761   7.314   2.750
20223W        W81754  22.557  36.371  12.497
20224W        W81755  22.611  15.320   4.766
20225W        W81756  30.638   1.959   2.412
20226W        W81757   0.360  13.623  11.508
20227W        W81758   5.859  10.764  11.122
20228W        W81759   0.325  32.911  12.889
20229W        W81760  43.984  41.974  14.305
20230W        W81761  23.194  40.466   4.237
20231W        W81762  34.400  15.272  12.861
20232W        W81763  12.143  43.462  11.478
20233W        W81764  10.146  28.043   0.861
20234W        W81765  38.898  40.417   5.222
20235W        W81766   4.742  14.639   5.159
20236W        W81767  40.510  11.230   1.863
20237W        W81768   6.412  18.188   2.369
20238W        W81769  27.005  44.260   2.863
20239W        W81770  18.722  34.080  12.053
20240W        W81771  42.022  31.908   0.870
20241W        W81772  35.471  25.526   4.352
20242W        W81773  13.778  34.074  12.890
20243W        W81774  13.805  22.248  10.641
20244W        W81775  34.567  30.609  12.075
20245W        W81776  33.089  16.666   0.950
20246W        W81777  30.003  43.981   1.400
20247W        W81778   1.471  23.220   2.327
20248W        W81779  11.629  32.399   5.299
20249W        W81780  17.136  25.498  13.001
20250W        W81781  18.652   6.400   9.954
20251W        W81782  29.667  42.810  10.492
20252W        W81783   2.893   7.771   3.176
20253W        W81784   1.921  26.638  12.932
20254W        W81785  43.323  18.561   0.259
20255W        W81786  12.663  18.740   2.234
20256W        W81787   1.357  42.974   0.289
20257W        W81788  19.240  11.681   0.951
20258W        W81789  27.684   9.860  10.515
20259W        W81790  27.010  36.023  14.434
20260W        W81791   7.282  31.989  12.423
20261W        W81792   7.354   6.840  10.960
20262W        W81793  39.824   9.282  14.864
20263W        W81794  23.067   0.918   2.690
20264W        W81795  27.195  26.005   4.156
20265W        W81796  26.551  14.778   0.762
20266W        W81797   2.419  23.133  10.888
20267W        W81798  41.976   4.403  11.008
20268W        W81799  35.439  24.591   4.144
20269W        W81800  39.041  29.637   0.259
20270W        W81801  28.665  33.989  13.516
20271W        W81802   7.386  35.086  11.108
20272W        W81803  14.324  22.740  10.921
20273W        W81804   6.682  36.080   1.346
20274W        W81805   2.775  36.924  10.905
20275W        W81806  40.956  13.726   0.805
20276W        W81807  24.198  18.715   2.771
20277W        W81808  43.905  29.089   4.211
20278W        W81809  26.483  40.036   2.183
20279W        W81810  37.002  17.592  10.133
20280W        W81811  23.228   6.792  14.295
20281W        W81812  17.779  42.418  14.932
20282W        W81813  26.084   1.413   2.184
20283W        W81814  22.031  11.775   0.844
20284W        W81815  15.589  41.859   2.407
20285W        W81816  44.871   0.295  14.478
20286W        W81817   2.948  15.711  10.485
20287W        W81818  27.017   0.272   4.678
20288W        W81819  44.792  30.545   2.790
20289W        W81820  20.055  34.890  11.531
20290W        W81821  11.264  36.530  12.349
20291W        W81822  39.824  16.308   0.860
20292W        W81823   3.346  18.550  14.780
20293W        W81824   8.284  28.147   0.952
20294W        W81825  22.195  42.504   3.270
20295W        W81826  13.337  29.644   0.289
20296W        W81827  40.812  14.628  12.553
20297W        W81828  43.956  42.797  12.385
20298W        W81829  35.052  34.999   5.093
20299W        W81830   1.930  10.305  13.851
20300W        W81831  34.897  32.115  11.895
20301W        W81832   9.327  33.572  14.500
20302W        W81833  44.807  38.478   2.308
20303W        W81834   9.227  13.730   4.322
20304W        W81835   8.242  36.903   4.140
20305W        W81836  31.616   7.283   4.180
20306W        W81837  28.118  10.840  13.977
20307W        W81838  40.833  43.771   4.731
20308W        W81839  43.912  24.594  13.957
20309W        W81840  16.802  19.255  11.434
20310W        W81841   4.367  12.825  11.109
20311W        W81842   8.689  18.278   2.327
20312W        W81843   9.737  22.631  14.298
20313W        W81844   0.746  31.903  14.872
20314W        W81845   9.181  33.115  12.416
20315W        W81846   3.265   9.797   2.399
20316W        W81847  44.898  29.465   2.682
20317W        W81848  27.495  20.035  11.499
20318W        W81849  36.588  30.065   4.718
20319W        W81850  17.612  28.607  11.602
20320W        W81851  30.544  44.801  12.947
20321W        W81852  30.538  29.497   0.310
20322W        W81853   0.448  25.977  13.914
20323W        W81854   9.329  24.979   2.811
20324W        W81855  41.924  16.291  13.335
20325W        W81856   2.854  37.555   5.288
20326W        W81857  36.531   3.418  13.042
20327W        W81858  42.784  18.052   0.764
20328W        W81859  38.427  38.356  13.962
20329W        W81860  16.619   5.735  14.777
20330W        W81861  28.931   6.853   2.697
20331W        W81862  36.933  32.937  13.871
20332W        W81863  29.930   3.813   2.394
20333W        W81864  19.632  14.718  11.959
20334W        W81865   1.300  22.233  13.061
20335W        W81866   0.956   9.269  11.497
20336W        W81867  44.393  28.096   1.330
20337W        W81868   9.209  20.580  12.476
20338W        W81869   5.302   6.271  11.525
20339W        W81870  21.263   3.381   2.313
20340W        W81871  22.070  44.267   0.747
20341W        W81872  18.162   5.842   2.341
20342W        W81873   9.219  12.250   2.352
20343W        W81874   0.467   4.300   4.675
20344W        W81875  30.135   7.763   2.230
20345W        W81876  24.087  26.108  13.432
20346W        W81877  18.115  23.582   3.376
20347W        W81878  34.587  12.298   3.150
20348W        W81879  12.830  13.229  11.577
20349W        W81880   2.456  41.840   4.724
20350W        W81881  26.599   6.268   1.900
20351W        W81882  12.269  39.866   0.900
20352W        W81883  19.176   1.300  13.045
20353W        W81884  14.767  11.768   0.780
20354W        W81885  30.930  41.341   1.264
20355W        W81886  38.066  27.042   2.851
20356W        W81887  41.391  44.945   1.837
20357W        W81888  11.730  22.166  10.952
20358W        W81889  43.968  31.587  11.598
20359W        W81890  39.472   0.863  10.417
20360W        W81891   4.837  11.286  10.976
20361W        W81892  38.360  18.168  11.518
20362W        W81893  37.450  18.174  11.455
20363W        W81894  37.339  43.411   4.741
20364W        W81895  14.801  43.328  12.912
20365W        W81896  11.146  11.151  14.930
20366W        W81897  36.349  13.147  13.494
20367W        W81898  11.661  12.683  11.489
20368W        W81899  33.528   9.345   4.217
20369W        W81900   8.767  23.228   1.335
20370W        W81901  25.001  37.379   1.749
20371W        W81902  25.069  25.520   4.722
20372W        W81903  12.835  28.460   3.843
20373W        W81904  11.186  13.655  12.008
20374W        W81905  40.503  30.969  12.392
20375W        W81906  41.535  36.542   1.730
20376W        W81907  19.728  27.583   9.961
20377W        W81908  43.286  18.113  14.802
20378W        W81909  13.607  35.586  12.995
20379W        W81910  23.649  40.506  11.404
20380W        W81911  29.537  24.595   1.931
20381W        W81912  18.197  19.723  12.087
20382W        W81913   3.444  35.556   2.334
20383W        W81914  34.962   9.703   4.347
20384W        W81915   6.244  13.677  11.023
20385W        W81916  21.236   0.285  10.995
20386W        W81917  38.474  11.800   0.306
20387W        W81918  11.702  32.103   4.685
20388W        W81919   7.410   2.879   0.290
20389W        W81920  27.961  13.257   0.961
20390W        W81921   9.244  31.631   3.365
20391W        W81922   0.321  24.104  10.530
20392W        W81923   5.287  16.223   0.965
20393W        W81924  20.232  29.116   1.931
20394W        W81925  35.072  12.775   0.738
20395W        W81926   1.871  22.176   4.720
20396W        W81927  42.500  29.154  11.415
20397W        W81928  30.002  41.496   1.280
20398W        W81929  19.124  41.534   4.656
20399W        W81930  14.324  26.982   1.411
20400W        W81931  30.932  22.698   4.146
20401W        W81932  13.326   2.298   5.266
20402W        W81933   3.737  43.922   1.409
20403W        W81934  23.616  16.190  14.765
20404W        W81935  27.959  32.963  11.386
20405W        W81936  30.955  43.797  10.429
20406W        W81937  36.091  16.246   1.221
20407W        W81938  38.052  10.261  14.860
20408W        W81939  31.051  21.253   4.763
20409W        W81940   6.352   2.824   2.821
20410W        W81941  19.283  26.544   0.771
20411W        W81942  36.441  41.817   1.807
20412W        W81943  23.710   9.847  11.113
20413W        W81944  32.914  40.351   1.381
20414W        W81945  25.543  36.482   2.788
20415W        W81946  19.660  28.082   4.641
20416W        W81947  36.454  18.656  13.924
20417W        W81948  41.030   5.882  13.433
20418W        W81949  30.446  40.506  13.492
20419W        W81950  16.599  33.510  14.782
20420W        W81951  37.465  23.719   3.259
20421W        W81952  38.821  40.386  12.412
20422W        W81953  14.811  43.832   0.376
20423W        W81954   7.286   9.221  12.042
20424W        W81955   1.836  23.533   3.324
20425W        W81956  22.239   6.393  11.126
20426W        W81957  37.855  27.517  12.483
20427W        W81958  19.226   7.682   3.706
20428W        W81959  35.061   9.747  12.846
20429W        W81960   5.691  27.473  11.955
20430W        W81961  37.418  36.378  12.842
20431W        W81962  41.354   7.845  14.023
20432W        W81963  18.720  25.583   3.186
20433W        W81964  21.131  36.058  14.355
20434W        W81965  15.771   8.660  14.997
20435W        W81966  23.070  16.268  13.998
20436W        W81967  28.008   6.772  13.840
20437W        W81968   6.246  21.197  11.406
20438W        W81969  27.046   8.320  13.891
20439W        W81970  44.974  36.859   1.437
20440W        W81971  26.018  16.598   3.674
20441W        W81972   1.449  30.074   0.873
20442W        W81973   4.396  41.794  14.965
20443W        W81974  19.250  36.535  11.501
20444W        W81975   8.668  33.516  10.932
20445W        W81976  38.553  30.157  13.312
20446W        W81977  32.575  34.036   2.787
20447W        W81978  34.549  24.712   3.367
20448W        W81979  27.005  29.048  11.089
20449W        W81980  39.847  25.121  11.532
20450W        W81981  31.060  42.929  13.396
20451W        W81982  21.114   1.758   2.226
20452W        W81983   7.827  22.043  11.951
20453W        W81984  40.943  28.596  11.434
20454W        W81985  32.004  21.681   1.240
20455W        W81986  14.757  44.459  12.526
20456W        W81987  26.021  33.417   0.959
20457W        W81988  19.103  34.585  13.315
20458W        W81989  21.644  36.944  13.395
20459W        W81990   6.345  13.723   3.177
20460W        W81991  21.685  42.457   0.790
20461W        W81992  36.570  19.187  14.355
20462W        W81993  39.885  35.990  13.815
20463W        W81994  22.030  28.611  13.871
20464W        W81995   6.686   8.658  10.471
20465W        W81996  40.425  13.236   0.341
20466W        W81997  34.864  19.248  13.436
20467W        W81998  36.370  30.620  10.498
20468W        W81999  31.601  37.464   0.362
20469W        W82000  19.578  35.367  10.442
20470W        W82001  40.891  27.141  14.829
20471W        W82002  14.740  23.129   0.905
20472W        W82003  41.308  14.614  14.469
20473W        W82004   5.234  26.031   2.711
20474W        W82005  10.773  36.351  11.433
20475W        W82006  11.845  21.668   2.735
20476W        W82007   7.184  44.758   2.815
20477W        W82008  30.625  12.612  13.049
20478W        W82009  10.783   7.255  10.957
20479W        W82010   0.399   6.790  10.994
20480W        W82011  39.335  37.007   0.899
20481W        W82012  13.817  35.383  14.485
20482W        W82013  32.519  20.041   4.230
20483W        W82014  14.209  33.483   2.235
20484W        W82015  12.128   1.281  11.386
20485W        W82016  18.572  40.948  12.974
20486W        W82017  25.179   3.265  12.450
20487W        W82018  33.535   6.686   3.747
20488W        W82019  44.788  43.806   1.246
20489W        W82020  12.157  18.552   3.322
20490W        W82021  16.311   7.820   3.184
20491W        W82022   2.956  31.582   4.706
20492W        W82023  40.878   9.700   2.332
20493W        W82024   2.309   9.339   2.800
20494W        W82025   1.413  14.607   1.813
20495W        W82026  12.123  39.017   1.695
20496W        W82027  41.924  25.153   2.401
20497W        W82028  43.992  22.720   0.354
20498W        W82029   9.660  11.650  13.029
20499W        W82030  34.509  29.646   2.805
20500W        W82031  32.931  35.972   4.193
20501W        W82032  41.537  10.686  14.897
20502W        W82033  35.006   1.917  14.829
20503W        W82034   1.858   1.919  11.966
20504W        W82035   1.837   7.804  11.444
20505W        W82036  11.296  41.441   4.207
20506W        W82037  19.275  38.558   4.200
20507W        W82038  39.990  13.311   1.258
20508W        W82039  20.662  13.241  12.941
20509W        W82040   3.875  12.161  14.439
20510W        W82041  25.997   7.705  12.081
20511W        W82042   0.339  18.244   2.885
20512W        W82043  28.490  14.110  14.344
20513W        W82044  44.413  43.823  13.852
20514W        W82045  28.629  41.831  10.577
20515W        W82046  43.837  29.035   2.263
20516W        W82047  38.039  20.060  13.837
20517W        W82048  20.589   6.681   3.639
20518W        W82049   7.746  12.743  13.871
20519W        W82050  14.189  13.797   3.845
20520W        W82051  30.070  15.638   0.774
20521W        W82052  22.202  30.552  12.519
20522W        W82053   6.301  33.445  13.445
20523W        W82054  39.828  38.465  10.531
20524W        W82055   3.782  26.557   5.773
20525W        W82056  27.108  34.054   1.843
20526W        W82057  11.673  14.817  12.372
20527W        W82058  19.657  20.534  11.908
20528W        W82059   2.898  38.032   4.288
20529W        W82060  24.568  32.441   2.694
20530W        W82061  38.549   5.276  13.988
20531W        W82062   1.777   3.435   1.366
20532W        W82063  44.929  42.477  13.428
20533W        W82064   4.810   0.902  12.844
20534W        W82065   3.811   9.778   3.663
20535W        W82066  30.507  11.640  14.343
20536W        W82067  35.058  35.939   4.713
20537W        W82068  18.295  24.116  12.352
20538W        W82069  40.506   4.308   2.283
20539W        W82070   5.689   8.402  14.821
20540W        W82071  27.609  23.720   2.799
20541W        W82072  13.349  33.418   3.738
20542W        W82073  30.951   0.871   1.831
20543W        W82074  25.102  19.229   1.862
20544W        W82075  26.586  42.840   0.319
20545W        W82076  25.003  39.974   0.372
20546W        W82077  38.915  20.535  14.784
20547W        W82078  33.996   1.314  12.911
20548W        W82079   6.803  28.500  11.964
20549W        W82080  33.031  38.044  13.796
20550W        W82081   5.693  31.023  11.957
20551W        W82082  22.243  19.200   0.307
20552W        W82083   8.722   8.175  12.080
20553W        W82084   8.834  32.419  13.474
20554W        W82085   5.828  39.533  13.031
20555W        W82086  23.050  34.567   2.393
20556W        W82087  24.206   7.360  13.366
20557W        W82088  11.834   7.398  13.062
20558W        W82089  36.892  41.961   3.337
20559W        W82090   7.706  19.221  13.964
20560W        W82091  23.997   5.807   0.289
20561W        W82092  37.578  27.101   3.785
20562W        W82093   1.813  41.502  11.067
20563W        W82094  28.013   6.333  12.447
20564W        W82095   3.311  41.990   2.808
20565W        W82096  14.614  15.604   2.219
20566W        W82097   7.315  22.096  11.989
20567W        W82098  21.649  41.852  12.558
20568W        W82099  20.196  10.701  10.956
20569W        W82100  43.889  22.536   2.881
20570W        W82101  16.575  14.728  13.825
20571W        W82102   8.692  22.227  14.404
20572W        W82103  24.496  28.940   4.823
20573W        W82104  10.828  44.904   2.725
20574W        W82105   9.331  16.676  11.981
20575W        W82106   7.325  39.848  14.420
20576W        W82107   4.263  29.008  11.043
20577W        W82108  35.066  33.028   0.300
20578W        W82109  20.063  27.956  11.079
20579W        W82110   9.849  27.498  10.507
20580W        W82111  21.631  29.496   2.276
20581W        W82112  32.913   2.799  12.545
20582W        W82113   7.851   9.212  11.525
20583W        W82114  39.949  14.633   2.822
20584W        W82115  36.405   1.832  12.832
20585W        W82116  18.120  37.852  10.947
20586W        W82117  36.952   5.854   4.341
20587W        W82118   1.826   4.270  12.006
20588W        W82119  13.225  19.712   0.430
20589W        W82120  19.749  23.632   4.631
20590W        W82121  29.548  10.680   3.361
20591W        W82122   3.291  39.000  10.446
20592W        W82123   3.805  41.792  10.516
20593W        W82124  38.483  18.616   0.779
20594W        W82125  26.593  19.625  10.480
20595W        W82126   3.817  23.562  11.114
20596W        W82127  17.597   4.791  11.451
20597W        W82128  41.424  31.037   1.408
20598W        W82129   6.720   4.428  14.295
20599W        W82130  20.194   0.800  10.043
20600W        W82131  11.238  44.802  13.390
20601W        W82132  32.537  44.493  10.451
20602W        W82133   7.803  21.081   3.816
20603W        W82134   4.728  41.366  13.444
20604W        W82135   3.817  21.718   1.315
20605W        W82136  25.706   3.805   4.699
20606W        W82137  35.890  15.636   1.296
20607W        W82138  37.891  28.022   1.727
20608W        W82139  10.827  18.148  12.965
20609W        W82140  18.236  17.656  10.485
20610W        W82141   5.773  21.592  11.587
20611W        W82142  42.307   6.804   0.860
20612W        W82143  36.973  20.188  13.329
20613W        W82144  22.207  19.649   3.181
20614W        W82145  25.705  40.828  12.480
20615W        W82146   9.820  32.104   3.750
20616W        W82147   1.749  28.676   1.411
20617W        W82148   6.301  10.751   3.234
20618W        W82149  26.168  33.084  11.611
20619W        W82150  18.228   6.701  13.539
20620W        W82151   3.315  25.513   3.638
20621W        W82152   0.770  23.180  10.999
20622W        W82153  17.074  39.811   4.704
20623W        W82154  28.587  21.192   1.755
20624W        W82155  11.764  17.751   3.639
20625W        W82156  10.257   8.708  12.083
20626W        W82157  29.457   2.781  11.108
20627W        W82158   2.793  36.464  10.963
20628W        W82159  42.359  26.178  14.966
20629W        W82160  25.202  13.282   1.811
20630W        W82161   6.698  36.553   2.888
20631W        W82162  32.030   2.357   2.310
20632W        W82163   9.665  11.185  14.490
20633W        W82164  13.141  36.029   3.361
20634W        W82165   9.225   0.443  13.392
20635W        W82166  24.102  28.014  13.047
20636W        W82167  25.653   7.374  14.817
20637W        W82168  13.216  29.045   4.693
20638W        W82169  39.509   2.242  11.023
20639W        W82170   5.316  26.636  12.052
20640W        W82171  20.150   7.397   1.813
20641W        W82172  36.962   9.655   1.354
20642W        W82173   4.739  44.860  11.456
20643W        W82174  39.384   3.763  12.075
20644W        W82175   6.344  34.934  13.538
20645W        W82176  22.622   1.414   4.604
20646W        W82177  42.954  15.275  14.946
20647W        W82178  32.137  18.782  14.760
20648W        W82179  15.683  13.250   0.952
20649W        W82180  17.741  27.499  11.393
20650W        W82181   2.800  11.708  11.061
20651W        W82182   6.892   1.894   3.214
20652W        W82183   3.439  14.273  10.588
20653W        W82184   4.716   1.474  11.451
20654W        W82185  44.853  19.255   0.482
20655W        W82186  43.408   2.944   2.216
20656W        W82187  10.846   3.362  11.463
20657W        W82188  25.049  33.988   0.784
20658W        W82189   5.353  31.597   3.689
20659W        W82190  38.325  18.121  12.823
20660W        W82191  36.433  15.674   9.532
20661W        W82192  27.567  33.007   4.211
20662W        W82193  13.606  36.000   4.638
20663W        W82194  32.041   0.840   4.130
20664W        W82195  29.990  35.095   0.302
20665W        W82196  25.160  15.608   3.300
20666W        W82197  14.216  28.522   0.901
20667W        W82198  27.981  37.582  11.905
20668W        W82199   9.830  31.977  14.816
20669W        W82200  44.312  40.007  12.075
20670W        W82201  41.792  20.580  13.842
20671W        W82202  16.707  38.014  11.117
20672W        W82203  33.030   2.830   0.275
20673W        W82204   9.342  16.088  12.902
20674W        W82205  30.624  21.045   3.706
20675W        W82206  39.414  44.367  11.882
20676W        W82207  42.878  20.650  12.353
20677W        W82208  40.323  37.465   1.305
20678W        W82209  26.146  37.396   2.326
20679W        W82210  41.319  35.573  10.468
20680W        W82211  21.253  27.015   3.306
20681W        W82212  30.937  39.841   2.859
20682W        W82213  40.310  15.652  10.518
20683W        W82214   0.962   7.263  11.894
20684W        W82215  42.421  42.794   3.728
20685W        W82216  39.330   0.369  14.420
20686W        W82217  17.629  37.086  14.889
20687W        W82218  44.398   9.209   1.703
20688W        W82219  10.638  23.674  13.312
20689W        W82220   1.793  16.748  10.486
20690W        W82221   2.445  21.637   1.925
20691W        W82222  36.887   5.225   1.823
20692W        W82223   8.781  34.865   3.386
20693W        W82224  39.965  37.019  13.866
20694W        W82225  38.877   6.712  12.349
20695W        W82226   5.800   0.885   0.315
20696W        W82227  21.614  37.865   9.586
20697W        W82228   6.272  32.971   1.276
20698W        W82229  16.194  19.740   5.207
20699W        W82230   7.749  44.917   1.266
20700W        W82231  10.283   8.284   0.449
20701W        W82232  34.000  32.136  11.421
20702W        W82233   0.891  25.141   1.258
20703W        W82234   5.893  14.658  10.624
20704W        W82235  20.716  18.118   0.423
20705W        W82236  38.544  33.883  14.274
20706W        W82237  10.199  34.538  12.061
20707W        W82238  34.553  32.915  13.888
20708W        W82239  10.357  19.139  11.038
20709W        W82240  16.598  22.066  14.764
20710W        W82241   8.782  15.183   0.373
20711W        W82242   6.796  14.621  11.411
20712W        W82243  37.402  16.666  14.372
20713W        W82244  35.468   3.751  11.920
20714W        W82245  38.445  11.154   4.232
20715W        W82246  32.507  43.811   4.738
20716W        W82247  41.454  41.001  14.811
20717W        W82248  30.957  38.002  10.568
20718W        W82249  21.093  31.582   0.288
20719W        W82250  44.956  44.386  13.967
20720W        W82251  44.989   5.360  11.397
20721W        W82252   8.388  39.470   2.333
20722W        W82253  23.053  27.630   1.235
20723W        W82254  27.087  41.319   1.439
20724W        W82255   2.945   7.283  11.533
20725W        W82256  16.622  30.928   4.208
20726W        W82257  34.431  20.242   0.750
20727W        W82258  41.311   7.881   4.630
20728W        W82259  26.698  36.457   4.733
20729W        W82260  29.042   9.691  14.460
20730W        W82261   7.304   5.425  13.360
20731W        W82262  35.855  34.112   1.935
20732W        W82263  40.042  18.196   3.369
20733W        W82264   3.867  24.976  14.418
20734W        W82265   3.397  25.033  11.121
20735W        W82266  24.982  29.967  13.490
20736W        W82267  30.480  31.921   2.188
20737W        W82268  16.646  42.948  11.561
20738W        W82269  11.752  16.572  12.039
20739W        W82270   5.362   1.458  13.372
20740W        W82271   7.252  18.698  13.363
20741W        W82272  27.186  23.063   1.765
20742W        W82273   2.317  11.837  11.081
20743W        W82274  38.357   6.853   4.811
20744W        W82275  38.969  22.075  13.820
20745W        W82276  27.969  19.218  11.055
20746W        W82277  43.962  37.998   0.800
20747W        W82278   9.161  14.642   3.212
20748W        W82279   9.260  44.865   9.572
20749W        W82280  42.330  39.859   1.220
20750W        W82281  12.723  31.039  14.441
20751W        W82282  42.828  38.972  12.042
20752W        W82283   3.353  34.064   2.692
20753W        W82284  41.515  17.168   1.831
20754W        W82285  11.335  26.607  14.989
20755W        W82286  24.190  12.826  14.031
20756W        W82287  23.138  32.113   3.705
20757W        W82288   2.833  30.562   3.690
20758W        W82289   1.864  29.152   2.189
20759W        W82290   4.750  29.591  12.445
20760W        W82291  38.502  21.687   2.763
20761W        W82292  27.965   6.722   1.709
20762W        W82293  28.051  41.796   4.236
20763W        W82294  11.656  43.364   1.450
20764W        W82295   9.250  38.033  13.404
20765W        W82296  25.215  36.440  13.929
20766W        W82297  15.627  21.724  12.947
20767W        W82298   1.904   1.840  11.105
20768W        W82299  33.064   6.780  11.452
20769W        W82300  26.070  23.075   4.351
20770W        W82301  18.708  32.012  12.929
20771W        W82302  12.162  42.814   2.191
20772W        W82303  11.209  16.750  13.424
20773W        W82304  31.138  39.505   1.929
20774W        W82305  41.901  17.201   1.431
20775W        W82306   3.374  32.471  13.046
20776W        W82307  41.043  38.363  14.990
20777W        W82308  35.537  31.023   1.855
20778W        W82309  15.233   0.461  10.938
20779W        W82310  40.968  16.571  11.537
20780W        W82311  21.051  13.316   0.967
20781W        W82312   0.751  32.628   4.728
20782W        W82313   2.306  29.106   1.222
20783W        W82314  41.907  28.944   0.929
20784W        W82315  11.665  44.334   2.398
20785W        W82316  19.683   8.353  12.052
20786W        W82317  42.518  11.848   0.800
20787W        W82318  11.813   2.288  14.371
20788W        W82319  31.034  17.143  11.860
20789W        W82320  24.151  28.527  10.944
20790W        W82321  19.251  15.310  12.873
20791W        W82322   8.724  12.691  11.903
20792W        W82323   4.421  35.037   3.334
20793W        W82324  20.673  33.576   0.734
20794W        W82325   7.776   5.245  10.444
20795W        W82326  32.451  33.436   2.320
20796W        W82327  19.635  18.103  14.344
20797W        W82328  36.404  25.675  13.867
20798W        W82329  22.673  29.544   0.787
20799W        W82330   3.225  28.655  13.982
20800W        W82331  23.536   6.677   0.432
20801W        W82332  22.683  14.760  10.104
20802W        W82333  37.549  42.884   0.786
20803W        W82334  27.661  41.387  14.469
20804W        W82335  44.796  42.495   4.665
20805W        W82336  40.928  40.037  11.050
20806W        W82337   5.691  21.697  12.513
20807W        W82338  29.449  11.307   1.374
20808W        W82339  23.135  42.357  10.969
20809W        W82340  35.920  26.172   3.354
20810W        W82341   6.398  32.552  14.416
20811W        W82342   3.403  11.790   0.258
20812W        W82343  22.007  10.156  11.525
20813W        W82344  30.966   3.725  13.426
20814W        W82345   3.443  19.279   4.241
20815W        W82346   4.941  36.028   3.732
20816W        W82347  14.138  22.033  13.850
20817W        W82348  21.062  40.861  10.933
20818W        W82349  12.353  10.328   3.654
20819W        W82350  39.970  33.473  11.406
20820W        W82351  11.623  15.741  12.021
20821W        W82352   3.404  24.497  13.474
20822W        W82353  35.496  25.094   0.776
20823W        W82354   9.329   8.170   1.286
20824W        W82355  19.045  34.463   1.252
20825W        W82356  34.379  13.322   0.967
20826W        W82357   0.490  16.211  13.530
20827W        W82358   2.357   3.753  14.311
20828W        W82359  24.059   3.412   2.332
20829W        W82360  18.134  18.627  11.502
20830W        W82361  37.500  24.674  12.454
20831W        W82362  16.212  40.544   1.235
20832W        W82363  19.609  23.047   5.201
20833W        W82364  26.495  29.006  14.812
20834W        W82365  18.197  38.544   1.802
20835W        W82366  19.185   2.392  11.084
20836W        W82367  24.664   4.703  13.538
20837W        W82368  13.337  25.040  14.305
20838W        W82369  29.643  22.746   0.270
20839W        W82370  13.234  20.570   4.354
20840W        W82371   8.351  37.074  14.938
20841W        W82372  18.765  15.149  14.317
20842W        W82373  41.347  37.940   3.640
20843W        W82374  24.701  32.536   3.778
20844W        W82375  37.360  31.013  10.484
20845W        W82376  29.023   1.316   3.629
20846W        W82377  22.013  44.767   0.264
20847W        W82378  31.910  34.073  13.950
20848W        W82379  31.035  41.884   0.249
20849W        W82380  21.233  44.504   4.265
20850W        W82381  28.032   0.780   1.244
20851W        W82382  14.144  25.140  13.021
20852W        W82383  39.502  13.314   5.301
20853W        W82384  30.434  26.101  14.026
20854W        W82385  35.454  31.498  11.991
20855W        W82386  16.701   7.212   0.309
20856W        W82387  41.421  29.930   1.825
20857W        W82388  15.612  33.387   4.807
20858W        W82389  13.254  42.345   0.397
20859W        W82390   5.799  40.985   0.900
20860W        W82391  35.871  38.923  12.056
20861W        W82392  38.947  39.369  12.431
20862W        W82393   6.795  44.397  13.413
20863W        W82394   9.275  44.323  13.410
20864W        W82395  44.334   7.771  11.389
20865W        W82396  41.803  26.518   9.920
20866W        W82397   7.365  27.541   4.120
20867W        W82398  20.228  16.687  13.974
20868W        W82399  36.389  21.538  14.372
20869W        W82400   8.781  34.104  11.583
20870W        W82401   6.757   8.743  12.955
20871W        W82402  44.806   1.742  14.907
20872W        W82403  43.417  35.473  11.062
20873W        W82404  26.612  10.829   3.730
20874W        W82405  37.349  21.570  12.923
20875W        W82406  12.278  28.145  10.932
20876W        W82407  15.697   8.890   4.758
20877W        W82408  28.989  27.167   3.800
20878W        W82409  24.566  36.076   3.161
20879W        W82410  27.022   9.204   1.734
20880W        W82411  12.752  35.031  11.922
20881W        W82412  26.605   2.882   0.330
20882W        W82413  38.860  27.638  12.826
20883W        W82414  12.301  34.046   1.227
20884W        W82415  31.639  37.860   5.797
20885W        W82416  28.497  19.062   1.402
20886W        W82417  42.986  13.817   0.390
20887W        W82418  17.122  30.651  14.970
20888W        W82419  43.854  12.739   2.404
20889W        W82420  36.008  38.983   1.300
20890W        W82421  19.601  15.819  14.008
20891W        W82422  31.541   4.420  10.928
20892W        W82423   8.188  22.670  12.893
20893W        W82424  36.484  35.006  10.512
20894W        W82425   9.688   3.870   2.693
20895W        W82426  27.527  16.256  11.116
20896W        W82427  10.211  20.556   3.173
20897W        W82428  23.165  32.135  14.300
20898W        W82429  23.047   9.383   4.123
20899W        W82430  11.795  33.119   0.914
20900W        W82431  31.110  12.797  10.598
20901W        W82432  34.494  25.042   2.182
20902W        W82433  33.494   1.911   4.187
20903W        W82434  26.084  25.532  10.506
20904W        W82435  35.883  38.899   2.336
20905W        W82436   9.756  21.520   3.759
20906W        W82437  41.318  34.509   4.638
20907W        W82438  26.616  21.684   1.906
20908W        W82439   6.384  41.512  14.917
20909W        W82440  39.536  35.888  12.417
20910W        W82441  40.502  41.440  13.388
20911W        W82442   4.854   0.363  13.428
20912W        W82443  21.032  14.129  10.152
20913W        W82444   2.351   6.789  12.479
20914W        W82445  32.949  25.034   0.780
20915W        W82446   8.356  17.733  13.455
20916W        W82447  40.992  22.201  14.914
20917W        W82448  14.173  30.944   1.925
20918W        W82449  24.221   6.803   3.729
20919W        W82450  20.659  33.095   1.228
20920W        W82451   6.807   9.786   1.811
20921W        W82452   1.868  44.443   4.123
20922W        W82453  31.403  40.502   0.295
20923W        W82454  26.976  34.377   4.308
20924W        W82455  37.889  27.018   3.292
20925W        W82456   5.421  30.598  10.512
20926W        W82457  16.642   1.365  11.864
20927W        W82458  32.507  40.030   0.780
20928W        W82459  38.406  14.779  13.843
20929W        W82460   5.715  37.077   2.852
20930W        W82461  43.448   6.239  14.787
20931W        W82462   9.346   2.811  14.283
20932W        W82463  40.514  32.411  14.405
20933W        W82464   1.374  33.888  10.920
20934W        W82465   6.245   6.696   4.326
20935W        W82466   8.217  25.169  10.601
20936W        W82467  39.025  23.998  13.987
20937W        W82468  33.603  16.738  14.923
20938W        W82469  13.719  25.114  14.363
20939W        W82470  23.994  33.445  13.872
20940W        W82471  19.749  26.153  13.985
20941W        W82472  12.194  13.241   2.402
20942W        W82473  10.856  36.970   4.654
20943W        W82474  40.458  30.548   4.676
20944W        W82475  33.564   2.273   1.746
20945W        W82476  14.203  44.462   1.856
20946W        W82477  11.762  38.013   1.734
20947W        W82478  23.993   7.298   3.681
20948W        W82479  41.395  33.918  14.407
20949W        W82480  13.623  16.143  13.377
20950W        W82481   9.165   6.701   3.856
20951W        W82482  36.856   2.370  12.498
20952W        W82483  10.784  31.449   3.317
20953W        W82484   1.317  30.609   3.190
20954W        W82485   3.763   5.906  14.029
20955W        W82486  36.884  36.975  12.563
20956W        W82487   4.240   8.311   0.911
20957W        W82488  35.471  38.874   4.609
20958W        W82489  11.221  27.083   0.457
20959W        W82490   5.282  43.385  11.476
20960W        W82491  22.674   4.739   0.400
20961W        W82492  29.103  28.987  12.828
20962W        W82493   0.932  44.482   1.375
20963W        W82494  37.847   3.777   3.305
20964W        W82495  13.780  14.660   1.217
20965W        W82496  30.012  23.045  11.494
20966W        W82497   3.217   5.726  13.524
20967W        W82498  41.003   4.383   3.337
20968W        W82499   4.259   6.895   2.702
20969W        W82500  25.714   1.763   0.844
20970W        W82501  21.193   6.282   4.178
20971W        W82502  27.003   3.300   0.289
20972W        W82503  27.991  40.334   4.797
20973W        W82504  16.176  29.592  13.431
20974W        W82505  41.395  23.641  10.619
20975W        W82506  23.575  16.096   4.708
20976W        W82507  23.607  30.591   1.853
20977W        W82508  11.816   3.458  13.939
20978W        W82509  23.578  38.976  12.568
20979W        W82510  15.261  16.277   2.679
20980W        W82511   1.820  16.771  13.408
20981W        W82512  25.962  15.644   2.760
20982W        W82513  30.122  18.148   3.840
20983W        W82514  26.469  44.382  10.585
20984W        W82515  21.556   6.728  11.046
20985W        W82516  34.953  13.826  11.567
20986W        W82517  25.998  23.123  11.604
20987W        W82518  34.396  23.561  11.485
20988W        W82519  22.026   4.906  13.899
20989W        W82520  18.161  19.126  14.414
20990W        W82521  34.613  35.100   1.849
20991W        W82522   0.931  25.188  13.512
20992W        W82523  35.004   0.399  11.039
20993W        W82524   9.750   6.841  10.978
20994W        W82525  27.610  12.297   3.666
20995W        W82526  28.153  39.314  12.076
20996W        W82527   1.351   8.159   2.787
20997W        W82528  13.676  31.617  10.973
20998W        W82529  28.588   9.749  11.414
20999W        W82530  44.276  14.617   4.269
21000W        W82531   6.220  21.547  14.356
21001W        W82532  23.576  15.621   0.749
21002W        W82533   1.314  11.188  13.429
21003W        W82534  31.491   8.202   2.257
21004W        W82535  25.701   5.870   1.874
21005W        W82536  14.728   2.396   3.359
21006W        W82537   2.394   7.308  14.509
21007W        W82538  12.321  25.150   1.901
21008W        W82539  13.669  23.104  13.011
21009W        W82540   7.792  19.749  12.824
21010W        W82541  14.299  23.678  10.985
21011W        W82542  13.630  18.294  13.498
21012W        W82543   2.785   8.180  12.883
21013W        W82544   4.833   7.806  10.418
21014W        W82545  30.147  32.934   4.599
21015W        W82546  40.488  31.941   4.791
21016W        W82547  11.832  18.144   0.734
21017W        W82548  24.513  16.080   4.212
21018W        W82549  37.866   0.941   1.742
21019W        W82550  11.788  10.723  12.531
21020W        W82551  14.791  34.519  13.811
21021W        W82552   3.303  27.501   0.880
21022W        W82553   0.256  41.317   0.379
21023W        W82554  42.016  26.560  13.470
21024W        W82555  34.392  19.700   1.361
21025W        W82556  12.661  41.795   0.442
21026W        W82557  35.895   6.398  14.802
21027W        W82558   1.818  30.494   0.946
21028W        W82559   3.914  30.523   0.275
21029W        W82560   5.396  41.916  14.919
21030W        W82561   9.259  21.731   1.447
21031W        W82562  29.164  29.506   1.882
21032W        W82563  12.839   8.831  10.958
21033W        W82564  20.115  36.081  10.495
21034W        W82565   1.770  31.619  11.988
21035W        W82566  21.705  41.325  13.830
21036W        W82567  12.785  30.463  12.471
21037W        W82568  22.225  31.513   5.261
21038W        W82569  24.685  20.679   2.890
21039W        W82570  32.561  12.806   3.773
21040W        W82571  22.997   7.803  13.499
21041W        W82572  12.792  21.115  11.899
21042W        W82573  41.397  31.572   0.780
21043W        W82574  27.542  10.839  13.961
21044W        W82575  34.431  37.968  12.012
21045W        W82576  17.139  30.042  13.431
21046W        W82577  44.899  42.028   4.216
21047W        W82578  26.017  29.096  14.778
21048W        W82579  33.958   6.235   3.240
21049W        W82580  32.950  19.604   4.741
21050W        W82581  38.822   2.961  13.350
21051W        W82582  24.132   8.865  13.006
21052W        W82583  14.607  35.921   2.330
21053W        W82584  41.842  37.917  14.437
21054W        W82585  38.325  26.966  12.081
21055W        W82586  27.085  44.893  14.759
21056W        W82587  16.182   9.685  11.078
21057W        W82588  38.417   9.834   4.148
21058W        W82589  27.068  15.753   9.954
21059W        W82590  20.673   5.199  10.435
21060W        W82591  38.467   3.731  11.478
21061W        W82592  37.069  35.092   2.416
21062W        W82593  27.966  17.093   4.322
21063W        W82594  20.065   7.699  14.451
21064W        W82595  35.903  37.069  14.970
21065W        W82596   5.931  10.240  10.095
21066W        W82597  22.100  20.736  14.942
21067W        W82598  32.991  35.473  12.407
21068W        W82599   7.341  27.557  13.334
21069W        W82600  26.500   5.880  12.487
21070W        W82601   1.463   9.358   1.878
21071W        W82602  14.796   1.417  14.794
21072W        W82603  30.413  16.269   2.310
21073W        W82604  42.350  23.655  14.911
21074W        W82605  13.689  15.628   0.850
21075W        W82606  35.917  41.863   0.933
21076W        W82607  29.625  24.557   0.437
21077W        W82608  11.746   0.957  11.474
21078W        W82609  39.885  21.567  11.599
21079W        W82610  23.509  30.936   1.751
21080W        W82611   8.694  41.941  14.015
21081W        W82612  27.970  17.625  10.067
21082W        W82613   2.765  42.451  13.909
21083W        W82614  24.018   7.883   4.708
21084W        W82615  28.141  36.388   2.303
21085W        W82616  42.316   5.913   3.673
21086W        W82617  37.939   1.947   2.369
21087W        W82618  17.192  18.067   3.333
21088W        W82619   1.883  37.493   2.177
21089W        W82620   0.984  37.574   0.770
21090W        W82621  34.988  26.127  11.977
21091W        W82622  24.532   7.694  12.484
21092W        W82623   6.794  27.544   1.708
21093W        W82624  20.558  43.866  12.088
21094W        W82625  43.425  36.031   4.180
21095W        W82626   9.673  39.934   4.724
21096W        W82627   3.342  14.682  11.929
21097W        W82628  35.532  31.965   4.784
21098W        W82629  15.189  37.002   1.869
21099W        W82630  34.440  30.100  14.452
21100W        W82631   2.786  29.115   0.870
21101W        W82632   6.223  28.655  14.284
21102W        W82633   8.843  15.607   0.738
21103W        W82634  12.237  38.940   0.286
21104W        W82635  26.638  25.625   0.468
21105W        W82636  16.792  32.990  13.917
21106W        W82637  28.512   5.889   5.250
21107W        W82638   6.745  10.759  11.857
21108W        W82639  18.791  30.468   3.226
21109W        W82640  40.973  15.735  13.807
21110W        W82641  26.982  31.003  13.415
21111W        W82642  28.073  21.663   2.313
21112W        W82643  34.569  13.776   0.265
21113W        W82644  18.715  19.107  10.969
21114W        W82645  33.549  42.322   2.297
21115W        W82646   9.394   2.396  14.897
21116W        W82647  15.177  22.072   0.364
21117W        W82648  36.592  32.978   3.156
21118W        W82649  28.672  32.573  14.820
21119W        W82650  24.010  28.504   5.243
21120W        W82651  27.607  33.456   1.793
21121W        W82652  20.264  33.428   4.676
21122W        W82653  28.965  39.378  12.960
21123W        W82654  18.115  18.268   3.207
21124W        W82655  19.695  12.324  14.474
21125W        W82656  10.808  26.961  13.050
21126W        W82657  12.811  34.889  11.576
21127W        W82658  16.155  32.574   4.704
21128W        W82659  43.397  27.015   2.775
21129W        W82660  20.110  19.206  13.415
21130W        W82661  18.077   3.783  11.456
21131W        W82662  15.192  27.953  11.538
21132W        W82663  22.708  35.999   0.298
21133W        W82664  41.354   3.449  11.061
21134W        W82665   6.288  29.550  10.628
21135W        W82666  15.185  33.401  14.945
21136W        W82667  12.692  31.641   4.186
21137W        W82668   6.322   6.319   2.292
21138W        W82669  20.720  32.440   4.248
21139W        W82670  29.009  18.612  13.501
21140W        W82671  40.901  38.326  13.969
21141W        W82672  23.084  30.118   2.859
21142W        W82673   1.749  31.472  11.476
21143W        W82674   6.758  30.464   0.854
21144W        W82675   7.863   8.805   2.791
21145W        W82676  21.735  28.166   1.697
21146W        W82677  13.143  42.401   1.705
21147W        W82678  21.123   4.921   3.314
21148W        W82679   2.240  20.098  11.373
21149W        W82680  19.614   9.360  12.402
21150W        W82681  21.092  42.435  13.324
21151W        W82682  30.967  21.032  10.464
21152W        W82683  15.610  43.881  10.484
21153W        W82684   0.346  30.049   1.368
21154W        W82685  21.254  41.940  13.907
21155W        W82686  35.478  36.082   3.311
21156W        W82687   1.358   5.193   3.343
21157W        W82688  37.898  21.144   2.335
21158W        W82689  17.234  35.514   4.754
21159W        W82690  20.226  13.844  13.386
21160W        W82691   2.804  41.016   4.654
21161W        W82692  14.718  21.205  14.409
21162W        W82693  27.461  27.686   3.776
21163W        W82694  10.675  21.193  11.402
21164W        W82695   7.229   2.880  10.036
21165W        W82696  17.145   9.657   1.338
21166W        W82697  37.942  31.453  10.970
21167W        W82698  23.114   4.919   1.809
21168W        W82699  35.438  12.350  13.319
21169W        W82700  42.879  12.117   3.789
21170W        W82701  21.666   1.379   4.232
21171W        W82702   9.745  19.115   3.644
21172W        W82703  43.317  13.811  12.871
21173W        W82704  30.090  25.634  13.975
21174W        W82705  42.401   5.248   4.674
21175W        W82706   9.214  42.890  11.415
21176W        W82707  30.135  21.150   4.731
21177W        W82708  31.088  34.544   1.365
21178W        W82709  43.012  24.177  11.116
21179W        W82710  22.746  27.968  14.929
21180W        W82711  38.465  44.909  14.927
21181W        W82712   0.455  15.805  13.995
21182W        W82713  33.051  21.046   3.216
21183W        W82714  34.878  36.875   9.669
21184W        W82715   6.757  14.702  11.919
21185W        W82716  17.689  12.614   0.816
21186W        W82717   2.249   0.404  14.940
21187W        W82718   4.305  18.567   1.783
21188W        W82719   3.910  25.638  12.475
21189W        W82720  30.476  28.481  14.996
21190W        W82721   0.836   7.382  10.543
21191W        W82722  17.626  44.871  10.452
21192W        W82723   1.339   1.765  11.529
21193W        W82724  40.800   8.665  12.443
21194W        W82725  34.957  43.846   4.254
21195W        W82726  24.097  14.794   4.738
21196W        W82727  11.666   7.203  13.846
21197W        W82728  44.474  15.192  11.543
21198W        W82729  37.039  16.640  13.914
21199W        W82730  13.171  27.585  10.919
21200W        W82731  26.131   7.715  11.048
21201W        W82732   3.932   9.674   1.925
21202W        W82733  12.623  12.217  14.990
21203W        W82734   8.852  29.456   4.748
21204W        W82735  30.652  25.615  12.470
21205W        W82736  14.339   5.705   2.230
21206W        W82737  30.111   3.414  12.951
21207W        W82738  16.266  12.294  13.795
21208W        W82739  39.809   8.889   0.306
21209W        W82740  44.978  10.210   2.233
21210W        W82741  35.565  10.774  12.017
21211W        W82742  24.229  40.942   2.670
21212W        W82743  18.783  42.835  13.820
21213W        W82744  20.180   4.826  14.959
21214W        W82745   4.851  16.149   3.662
21215W        W82746  11.261  28.010   0.476
21216W        W82747  20.680  15.763   1.795
21217W        W82748  12.710   5.806  13.440
21218W        W82749  28.455   7.772   1.694
21219W        W82750  14.324  32.504  13.048
21220W        W82751  41.465  32.952   1.924
21221W        W82752  22.120   8.810   4.225
21222W        W82753  27.527   0.961   4.169
21223W        W82754  16.291  19.573   1.788
21224W        W82755   4.914  41.348   4.265
21225W        W82756  34.444  35.051   4.780
21226W        W82757  17.780  42.358   2.833
21227W        W82758  17.164  37.403   4.249
21228W        W82759   2.469  11.187  14.022
21229W        W82760  38.357   4.940  10.532
21230W        W82761  30.509  15.822  13.449
21231W        W82762  22.234  18.675   4.723
21232W        W82763   9.249  12.835   1.290
21233W        W82764  41.791  23.133   3.630
21234W        W82765  13.653  23.663   0.919
21235W        W82766  29.102  20.620  14.918
21236W        W82767  16.273   1.394  12.840
21237W        W82768  40.008  34.576   2.881
21238W        W82769  32.587  37.989   2.770
21239W        W82770   3.431   4.735  10.939
21240W        W82771  11.295  12.827  12.407
21241W        W82772  36.472  24.681  12.434
21242W        W82773  35.030   2.722   2.775
21243W        W82774  22.677  11.733  14.901
21244W        W82775  39.387  10.230  10.907
21245W        W82776   9.834  31.406  14.303
21246W        W82777   1.879  44.901   3.372
21247W        W82778   1.937  13.711   1.357
21248W        W82779  25.185  10.269  13.797
21249W        W82780  44.385  44.382  10.485
21250W        W82781  34.080  15.283   3.636
21251W        W82782  22.040  28.449   2.680
21252W        W82783  39.026  38.367   4.726
21253W        W82784   0.807   2.817   0.305
21254W        W82785  26.539  18.280  13.802
21255W        W82786  37.387  34.525   3.813
21256W        W82787   4.405   7.413  13.064
21257W        W82788  38.988  26.703   0.381
21258W        W82789  11.841  43.433   4.598
21259W        W82790   6.726   0.444  11.919
21260W        W82791  24.129   0.304  14.292
21261W        W82792  34.060  42.806   2.823
21262W        W82793  36.847  20.605  12.431
21263W        W82794  26.961  23.148   0.795
21264W        W82795  31.082   8.363   4.599
21265W        W82796  11.274  25.600  14.424
21266W        W82797   2.400   1.433  12.350
21267W        W82798   2.361  42.372  11.435
21268W        W82799  15.272   1.772  11.066
21269W        W82800   2.416  14.117   1.804
21270W        W82801   0.277  24.024  12.052
21271W        W82802   5.434  34.082  13.806
21272W        W82803   8.203  23.493  11.043
21273W        W82804  39.861  26.205  11.489
21274W        W82805   6.815   1.312   1.424
21275W        W82806   2.316   7.308   1.344
21276W        W82807  21.022  21.123  14.928
21277W        W82808  12.648  27.570   2.401
21278W        W82809  14.744  23.125   0.476
21279W        W82810  37.876  18.283  13.950
21280W        W82811  14.810   0.935  14.281
21281W        W82812  27.086  25.120  12.082
21282W        W82813  44.893  32.104   1.426
21283W        W82814  25.164  12.293  13.434
21284W        W82815  34.541  28.446  10.473
21285W        W82816  37.845  15.121   0.869
21286W        W82817  29.444  16.080   1.761
21287W        W82818  42.349  22.592   1.871
21288W        W82819  10.755  29.446   4.723
21289W        W82820   3.384  27.543  11.599
21290W        W82821  29.582  31.144   1.314
21291W        W82822  44.885  44.315   4.725
21292W        W82823  12.788  15.185   3.838
21293W        W82824  26.150  11.309  10.603
21294W        W82825  38.980  41.980  12.549
21295W        W82826  14.819   7.270  13.511
21296W        W82827   4.905   1.886   0.739
21297W        W82828  25.521  24.204  10.482
21298W        W82829  20.155   8.387  11.479
21299W        W82830  27.546   8.161   0.777
21300W        W82831   9.260   7.207  14.972
21301W        W82832  18.727  37.451  11.928
21302W        W82833  25.139  10.805  10.956
21303W        W82834  37.968  28.181  14.937
21304W        W82835  22.578   5.314   1.316
21305W        W82836  30.653  35.449   3.769
21306W        W82837  35.514  37.492  11.118
21307W        W82838  15.205   0.954   3.259
21308W        W82839  37.057  11.787  12.995
21309W        W82840   9.244  22.076  14.312
21310W        W82841  22.243  21.095   4.614
21311W        W82842  11.357  12.814  12.896
21312W        W82843  35.937  17.158   0.754
21313W        W82844  36.406  11.787  10.553
21314W        W82845   5.706  21.240  13.333
21315W        W82846  17.705  42.979   0.308
21316W        W82847  16.611  11.362   2.809
21317W        W82848  36.416  15.591   1.885
21318W        W82849  29.546  43.461   3.189
21319W        W82850  25.048  38.392  10.988
21320W        W82851  17.662  28.451   3.235
21321W        W82852  39.504  40.956   3.258
21322W        W82853  21.160  36.858   0.299
21323W        W82854  18.087  29.942  12.093
21324W        W82855  23.052   5.853   2.311
21325W        W82856   5.336  24.503   1.276
21326W        W82857  21.218  36.558  10.028
21327W        W82858  31.504   6.292  14.849
21328W        W82859   7.812   4.811   1.278
21329W        W82860  35.857  11.750   3.387
21330W        W82861  37.971  15.253   0.249
21331W        W82862  11.728  15.598  10.983
21332W        W82863  25.035  43.435   2.213
21333W        W82864  40.472   1.399  11.873
21334W        W82865  33.480  44.795   1.424
21335W        W82866  37.062   1.731   2.821
21336W        W82867   5.346  36.860  13.478
21337W        W82868  23.715  36.592  13.477
21338W        W82869  31.090  19.260   2.213
21339W        W82870  19.763   3.407  12.845
21340W        W82871   3.226  30.629  12.426
21341W        W82872  20.532  36.958   4.164
21342W        W82873  11.663  27.558  11.990
21343W        W82874  28.673  23.164   2.825
21344W        W82875  40.462   3.328  11.078
21345W        W82876   6.334  24.188   4.627
21346W        W82877  28.068   1.959   2.415
21347W        W82878  42.921  19.537   4.719
21348W        W82879  27.519   0.293  11.915
21349W        W82880   2.924  35.555   2.380
21350W        W82881   1.844  23.714  12.382
21351W        W82882  16.672  29.586  13.534
21352W        W82883   0.321  36.424  10.608
21353W        W82884  28.055  29.950   3.239
21354W        W82885  12.713   4.706   0.316
21355W        W82886  28.041  44.838  11.864
21356W        W82887  31.548   0.934   1.377
21357W        W82888  15.792  43.515   2.295
21358W        W82889  20.136   8.694  11.424
21359W        W82890  42.860  22.207   0.810
21360W        W82891  39.951  43.367   0.373
21361W        W82892  35.017  24.125  11.478
21362W        W82893   4.819  40.006   1.888
21363W        W82894  16.753  35.019   1.264
21364W        W82895   6.808  29.086   2.754
21365W        W82896  16.811  14.245  11.982
21366W        W82897   2.449  23.539   4.258
21367W        W82898  12.616   7.222  12.566
21368W        W82899  26.963  23.615   3.156
21369W        W82900  31.012  10.691   0.289
21370W        W82901  31.445  21.727   0.942
21371W        W82902   1.916  19.690   0.478
21372W        W82903   0.279  15.263   2.726
21373W        W82904  23.081   8.189  13.400
21374W        W82905  35.037  28.032  10.919
21375W        W82906  40.952  36.987  13.961
21376W        W82907  40.809  17.307  11.462
21377W        W82908  26.141  15.293  10.999
21378W        W82909  41.909  35.067   1.793
21379W        W82910  43.865  21.728   2.334
21380W        W82911  33.529  12.212  14.804
21381W        W82912  44.333  40.510   4.156
21382W        W82913  32.066   6.327   2.889
21383W        W82914  11.297  29.099  14.297
21384W        W82915  21.635   3.904   4.267
21385W        W82916  26.097  22.560  10.912
21386W        W82917  10.689  34.094   3.371
21387W        W82918  41.528  26.139   2.868
21388W        W82919  35.013   3.871   1.892
21389W        W82920  14.792  18.144  13.317
21390W        W82921  11.820  35.918   3.293
21391W        W82922  20.054   0.984   2.203
21392W        W82923  38.363  36.382  10.634
21393W        W82924  23.050  24.228   4.278
21394W        W82925   2.906  33.620  14.395
21395W        W82926   6.783  28.171  13.827
21396W        W82927  14.604   3.410   3.379
21397W        W82928  36.398  13.222  12.339
21398W        W82929  31.964  43.856   4.192
21399W        W82930   6.784  27.176  11.071
21400W        W82931  42.890  44.435  14.002
21401W        W82932   1.261   0.795   3.870
21402W        W82933  25.540  38.371   2.876
21403W        W82934  35.466  26.120   1.805
21404W        W82935   3.870   7.229   1.347
21405W        W82936   6.734  23.113   3.245
21406W        W82937  25.599  35.599   3.709
21407W        W82938  38.948  13.149   3.229
21408W        W82939   7.380  39.986  12.551
21409W        W82940  34.571   2.814   3.674
21410W        W82941  14.630  24.549  14.278
21411W        W82942  22.676  22.218  10.442
21412W        W82943  32.971  12.805   5.173
21413W        W82944  32.024   6.837   4.346
21414W        W82945  27.448  29.543  11.464
21415W        W82946   1.753  30.513  11.592
21416W        W82947  13.841  33.615  11.554
21417W        W82948   7.354  41.498   2.834
21418W        W82949  21.647   3.381   0.817
21419W        W82950  44.949  27.014   2.394
21420W        W82951  44.876   1.753   1.243
21421W        W82952  14.809  36.587   3.195
21422W        W82953   5.792  44.853  14.864
21423W        W82954  40.448  40.874  14.279
21424W        W82955   7.687  18.697  14.933
21425W        W82956  23.006  28.953   3.813
21426W        W82957   6.873  26.953   0.784
21427W        W82958  20.677  28.944  12.915
21428W        W82959  13.295  29.056   4.262
21429W        W82960  26.127  11.196  11.092
21430W        W82961  32.474  43.839   1.270
21431W        W82962  37.538  37.993  11.919
21432W        W82963  44.941   4.258   0.476
21433W        W82964  16.718   7.757   2.372
21434W        W82965  36.503   2.964  12.477
21435W        W82966  28.679  31.477   5.690
21436W        W82967  24.516  17.576   0.403
21437W        W82968   3.413  31.540   2.670
21438W        W82969  30.948  27.460   0.386
21439W        W82970  24.165  25.643   1.869
21440W        W82971  41.366  33.050  14.987
21441W        W82972   0.892  30.940   0.459
21442W        W82973   7.840  37.428  10.537
21443W        W82974   7.694  34.902  13.857
21444W        W82975  40.835  30.982  13.352
21445W        W82976  34.603  14.733   2.402
21446W        W82977   3.796   6.323   1.786
21447W        W82978   1.967  44.317  11.894
21448W        W82979  16.127   5.861  14.466
21449W        W82980  16.579  38.899   4.298
21450W        W82981  35.024  42.517   3.216
21451W        W82982  15.780  25.611  13.917
21452W        W82983  10.698  24.053   4.122
21453W        W82984   5.828  38.060  13.497
21454W        W82985  43.897  40.876  11.931
21455W        W82986   5.212  25.536   1.375
21456W        W82987  16.314  15.213  11.927
21457W        W82988  17.797  19.205  12.520
21458W        W82989  41.513  33.607   3.854
21459W        W82990  17.773  28.042   4.176
21460W        W82991  39.872  14.322   1.374
21461W        W82992  43.484   1.940   3.858
21462W        W82993  33.468  23.615   4.254
21463W        W82994  19.272  12.734  11.105
21464W        W82995   2.408   3.895  13.371
21465W        W82996  31.540   4.319   0.254
21466W        W82997  43.017  21.139   1.904
21467W        W82998  17.723  11.257   1.755
21468W        W82999   6.314  18.717   5.204
21469W        W83000  12.341   6.824  12.848
21470W        W83001   2.948  20.691   4.283
21471W        W83002  39.979  28.446  13.473
21472W        W83003  37.366  38.014  12.517
21473W        W83004   1.861  17.627  12.934
21474W        W83005  39.534  42.854  14.293
21475W        W83006   0.403   8.182  13.033
21476W        W83007  26.116  26.139   2.698
21477W        W83008  38.982  34.428  12.506
21478W        W83009  40.869   7.717   2.243
21479W        W83010  36.388   3.263   4.182
21480W        W83011  35.097   4.774  13.493
21481W        W83012  23.556  12.630   4.686
21482W        W83013  33.537   6.226  12.378
21483W        W83014  19.576  42.976   0.911
21484W        W83015  12.174   0.344   4.669
21485W        W83016  23.150  15.650   0.789
21486W        W83017  37.853  13.154  10.072
21487W        W83018  15.255  13.740  12.991
21488W        W83019  37.431  12.627   3.363
21489W        W83020  20.197  43.356   1.878
21490W        W83021  36.010  30.107  14.339
21491W        W83022  34.926   2.445  10.998
21492W        W83023  27.072  36.047  14.977
21493W        W83024  39.558  31.568   4.232
21494W        W83025  32.912  23.628  11.573
21495W        W83026  38.375  18.694   1.731
21496W        W83027  35.593   2.764   3.629
21497W        W83028  33.933  13.302  12.089
21498W        W83029  24.080  39.445   9.997
21499W        W83030   1.473  23.126  12.528
21500W        W83031  25.990  16.248   4.156
21501W        W83032  20.613   8.809   2.364
21502W        W83033  13.801  13.617  12.445
21503W        W83034  42.521  34.962   3.179
21504W        W83035  10.250  31.073   1.740
21505W        W83036   7.352  34.552  12.397
21506W        W83037  11.796  11.797   1.701
21507W        W83038  32.125  21.172   0.787
21508W        W83039  23.512  44.791  13.323
21509W        W83040   6.920  20.703  12.909
21510W        W83041  15.116  14.791   2.286
21511W        W83042  43.370  15.170   2.418
21512W        W83043   4.940  10.339   3.869
21513W        W83044  21.054  16.206  11.543
21514W        W83045  25.182   5.427  13.937
21515W        W83046  32.994  13.209  14.471
21516W        W83047  14.779  20.060  14.913
21517W        W83048  13.156   3.258   1.785
21518W        W83049   6.350  16.743   2.193
21519W        W83050  35.517  13.150  12.571
21520W        W83051  30.449   3.446  14.386
21521W        W83052  30.596  39.553   4.775
21522W        W83053   5.234   1.294  10.610
21523W        W83054  22.152  32.518  13.957
21524W        W83055  10.759  27.101  13.958
21525W        W83056  41.808  20.061  12.065
21526W        W83057  21.713   1.474   0.274
21527W        W83058   6.295  27.996  10.992
21528W        W83059  11.795  36.011   2.279
21529W        W83060  38.891   8.230  12.966
21530W        W83061  33.981  12.716  12.877
21531W        W83062  35.514   0.318  11.419
21532W        W83063  27.467  41.967   0.928
21533W        W83064  28.521  41.462   0.923
21534W        W83065   1.785  20.675   3.868
21535W        W83066  11.683  34.466  12.886
21536W        W83067  20.661  16.805   0.796
21537W        W83068  37.405  11.764  11.051
21538W        W83069  41.897  23.023  12.039
21539W        W83070  39.873  15.629  11.007
21540W        W83071  33.934  37.084  13.817
21541W        W83072   1.745  25.028   2.731
21542W        W83073   5.321  10.179   1.749
21543W        W83074  36.857  36.094  13.820
21544W        W83075   5.884  28.986   2.829
21545W        W83076   3.828  34.970   2.314
21546W        W83077   8.890   4.448  12.024
21547W        W83078  23.984  39.888  13.981
21548W        W83079  32.020   4.431   3.796
21549W        W83080  21.710  44.314   3.272
21550W        W83081  21.691  26.466   4.803
21551W        W83082  40.805  38.406  10.410
21552W        W83083  15.592  19.674   1.761
21553W        W83084  31.618  12.135  14.402
21554W        W83085  32.964  29.608  11.475
21555W        W83086  28.619  28.171  11.468
21556W        W83087  23.152  33.908   0.378
21557W        W83088  31.069   0.983  13.414
21558W        W83089  20.195   3.716  11.114
21559W        W83090  13.255  44.317  12.508
21560W        W83091  31.443   6.835  12.339
21561W        W83092  38.988   8.802   0.290
21562W        W83093   0.746   3.342  10.966
21563W        W83094  41.504  25.125  11.525
21564W        W83095  19.163  26.491  13.520
21565W        W83096   0.907   9.683  12.473
21566W        W83097  43.453  24.092  11.085
21567W        W83098  32.923  34.473   1.717
21568W        W83099  26.076  17.779  10.637
21569W        W83100   2.878  27.155  14.276
21570W        W83101   1.834  30.420   3.365
21571W        W83102  20.240  44.855   1.370
21572W        W83103  39.055  32.936  13.460
21573W        W83104  19.637  24.647   2.378
21574W        W83105  32.105  23.077  14.893
21575W        W83106  38.980  15.784  13.926
21576W        W83107  26.684  15.656   5.274
21577W        W83108  40.537  18.724   4.775
21578W        W83109  39.361  42.353   0.957
21579W        W83110  27.940  33.570  10.929
21580W        W83111  30.480  22.672  13.856
21581W        W83112   1.768  15.670   2.676
21582W        W83113  15.246   9.229   2.815
21583W        W83114  10.310  14.289  13.921
21584W        W83115  24.002  13.128   5.164
21585W        W83116  12.199  18.738   2.683
21586W        W83117  38.421  17.177   0.836
21587W        W83118  22.007  22.689   3.210
21588W        W83119   4.893  15.688   1.877
21589W        W83120   9.690  10.801  12.917
21590W        W83121   1.440  18.657  14.936
21591W        W83122  32.095  34.461  12.580
21592W        W83123  13.325  36.436   2.302
21593W        W83124  29.535  18.622  10.910
21594W        W83125  43.470  18.702  13.503
21595W        W83126  13.836   6.380  11.556
21596W        W83127   5.230  44.375  13.809
21597W        W83128  10.161  23.727  12.004
21598W        W83129  42.996  17.070   1.287
21599W        W83130   2.299   3.255  11.437
21600W        W83131  26.675   9.150  11.964
21601W        W83132   8.322  15.277  12.520
21602W        W83133  27.590  21.152   2.748
21603W        W83134  44.490   4.920   3.322
21604W        W83135  17.717   4.812   0.794
21605W        W83136  16.621  20.127   4.792
21606W        W83137  36.378  39.934  12.371
21607W        W83138  29.456  27.015   0.833
21608W        W83139  43.487  23.610   3.869
21609W        W83140   9.232  31.096   0.818
21610W        W83141  11.839   9.828   4.191
21611W        W83142   6.227  40.351   4.788
21612W        W83143  39.844  39.488  10.597
21613W        W83144   7.339  26.203  14.320
21614W        W83145  21.694   8.355   1.266
21615W        W83146  11.231   4.736   4.784
21616W        W83147   2.967  27.614  10.079
21617W        W83148  13.676  16.703   3.705
21618W        W83149   3.269  22.668  11.466
21619W        W83150  20.534  44.278  12.060
21620W        W83151   1.773  37.490  14.025
21621W        W83152  28.940  13.705   3.705
21622W        W83153  25.169   3.399  10.618
21623W        W83154  43.987  29.161  11.595
21624W        W83155   0.849  27.180   3.159
21625W        W83156  24.046  39.974  10.137
21626W        W83157  37.496  21.608   0.348
21627W        W83158  19.743  17.235   5.143
21628W        W83159   5.895  19.562  12.859
21629W        W83160  33.940   4.252  13.833
21630W        W83161  38.834   3.379   0.818
21631W        W83162  42.376  26.132   1.337
21632W        W83163  32.088   0.486   2.864
21633W        W83164   8.405  20.707  12.832
21634W        W83165   7.673   8.237   4.836
21635W        W83166   0.819   3.953  14.942
21636W        W83167  40.352   5.311  10.588
21637W        W83168  13.610  26.647   2.814
21638W        W83169  38.513  15.724   4.795
21639W        W83170  15.643  42.486  12.954
21640W        W83171  19.127  24.604  13.807
21641W        W83172  25.514  32.578  11.061
21642W        W83173   3.739  27.119  12.936
21643W        W83174   3.239  41.037  13.922
21644W        W83175  31.421   3.724   0.277
21645W        W83176   8.382  27.567  14.815
21646W        W83177  20.198   3.769   1.259
21647W        W83178   0.781  34.991   3.704
21648W        W83179  26.996  14.308  10.934
21649W        W83180  30.522  26.666   2.274
21650W        W83181  31.478  28.956  11.935
21651W        W83182  24.506  18.173  14.331
21652W        W83183   1.931  20.090  12.580
21653W        W83184   0.385  18.633   3.243
21654W        W83185  14.303   6.233   4.314
21655W        W83186  21.232  33.087  11.073
21656W        W83187  23.008  42.856   2.252
21657W        W83188   4.387  10.718  13.347
21658W        W83189  11.182   5.266   2.245
21659W        W83190  19.246   6.352  13.826
21660W        W83191  40.965  12.143   1.430
21661W        W83192   0.927  14.328  11.054
21662W        W83193  11.713  17.759  11.916
21663W        W83194  11.297  40.985   1.925
21664W        W83195  17.758  11.836  11.967
21665W        W83196  25.669  21.742   1.321
21666W        W83197  11.366  27.485  14.864
21667W        W83198   4.225  33.620   4.227
21668W        W83199  44.895  33.460  10.010
21669W        W83200  22.063   1.760   1.318
21670W        W83201   1.477  44.846  14.804
21671W        W83202  40.883  38.405   3.810
21672W        W83203  37.380   0.320   1.808
21673W        W83204  34.990  21.216  14.827
21674W        W83205  23.586   3.259  12.533
21675W        W83206  25.154  16.675   3.633
21676W        W83207  30.921  13.638   2.298
21677W        W83208   6.425  39.405   0.965
21678W        W83209  30.508  17.228   0.247
21679W        W83210   2.836  26.585  14.379
21680W        W83211  11.853  30.513  11.429
21681W        W83212  20.722  44.888   1.907
21682W        W83213  13.242  36.521   1.336
21683W        W83214  33.096  10.161  13.424
21684W        W83215  32.461   8.314   3.277
21685W        W83216   3.889  16.270   0.815
21686W        W83217  10.848  42.897  12.520
21687W        W83218  18.633  38.030  14.305
21688W        W83219  20.124  41.333   3.263
21689W        W83220  18.156   2.434   2.204
21690W        W83221  28.503  27.536   3.161
21691W        W83222   0.835  17.615  14.429
21692W        W83223  23.121  29.496   0.942
21693W        W83224  33.080  38.880   3.232
21694W        W83225  32.489   0.838  13.418
21695W        W83226  10.175   9.193  11.430
21696W        W83227  43.900  22.027  11.530
21697W        W83228   8.282  34.054   2.279
21698W        W83229  23.215   2.815  11.110
21699W        W83230  36.360  31.641  14.324
21700W        W83231  41.969  35.953   0.932
21701W        W83232  28.567  11.736  12.981
21702W        W83233   5.824   6.182  14.341
21703W        W83234  18.634  40.310  12.473
21704W        W83235  37.025  17.141  10.074
21705W        W83236  16.224   0.467   4.172
21706W        W83237  29.661  42.384  12.961
21707W        W83238  16.194  11.652   3.790
21708W        W83239  44.954  26.208  11.090
21709W        W83240  27.530  30.099  11.038
21710W        W83241  41.866  39.464  10.506
21711W        W83242  19.173  38.057   4.664
21712W        W83243  21.116  21.600  14.927
21713W        W83244  14.167  27.553  12.483
21714W        W83245  33.611  11.769   0.900
21715W        W83246   1.342   0.380  10.596
21716W        W83247  21.099   5.290   3.327
21717W        W83248   1.480   4.270  14.777
21718W        W83249  28.986   2.793  10.576
21719W        W83250  43.831  23.196   2.838
21720W        W83251  12.613  11.803   1.920
21721W        W83252   6.263  17.560   1.245
21722W        W83253   7.317  17.153   0.452
21723W        W83254  15.766  24.512  13.478
21724W        W83255  29.932  17.097  11.878
21725W        W83256   1.842   6.921  11.869
21726W        W83257  31.035  30.059  12.999
21727W        W83258  14.261   3.924   3.214
21728W        W83259  13.319  36.501  13.443
21729W        W83260   5.242  25.506  14.811
21730W        W83261   0.472  35.560   4.637
21731W        W83262  24.589  13.150   0.401
21732W        W83263  11.652  14.163  11.858
21733W        W83264  33.566   5.274  11.500
21734W        W83265   3.461  11.311   4.608
21735W        W83266  38.392  44.806   2.328
21736W        W83267  12.622  39.528   4.756
21737W        W83268  24.490  42.971  14.929
21738W        W83269  15.715  31.547   4.737
21739W        W83270   9.221  33.128  13.900
21740W        W83271   5.285  30.601   3.680
21741W        W83272   6.716  23.614  13.025
21742W        W83273  17.713  28.675   0.268
21743W        W83274  29.022  27.178  14.395
21744W        W83275  44.971   7.392   4.598
21745W        W83276  40.378  23.548  12.979
21746W        W83277  26.200  16.199  11.600
21747W        W83278  14.629   6.206   0.904
21748W        W83279  16.107  33.416   5.193
21749W        W83280  39.502  44.818   4.627
21750W        W83281  10.335  14.632   2.205
21751W        W83282  27.947  25.044  12.354
21752W        W83283  43.789  30.592  13.884
21753W        W83284  26.473  39.956  11.534
21754W        W83285  43.809  40.343  12.007
21755W        W83286  33.595   1.364   1.927
21756W        W83287  25.209  24.157  11.010
21757W        W83288  15.165  41.899  13.429
21758W        W83289  18.605   1.395   2.676
21759W        W83290  26.162  42.494   3.638
21760W        W83291  30.639  27.483   2.901
21761W        W83292  27.962   4.780  12.865
21762W        W83293  19.724  36.562  11.878
21763W        W83294  35.368  31.087  13.939
21764W        W83295   1.280  40.544  12.082
21765W        W83296   6.864  28.532   4.180
21766W        W83297   5.378   4.290   2.864
21767W        W83298  29.013  36.422  13.933
21768W        W83299  30.446  10.868  11.083
21769W        W83300  28.461  18.273  14.388
21770W        W83301  13.813  30.104  14.808
21771W        W83302  30.431  22.230   4.262
21772W        W83303   5.316   8.892   0.913
21773W        W83304  28.969  28.530   2.693
21774W        W83305  42.459  30.594  11.914
21775W        W83306  22.680  41.431   2.307
21776W        W83307  42.324  14.149   2.238
21777W        W83308  15.788  11.180   4.214
21778W        W83309  21.757   2.363   1.262
21779W        W83310  31.078  22.714  10.530
21780W        W83311  39.911  25.531   3.833
21781W        W83312   0.388  21.642   3.228
21782W        W83313  40.837  19.104  11.484
21783W        W83314   1.282  37.942   2.745
21784W        W83315  38.851  27.526   2.765
21785W        W83316  30.025  13.658   2.326
21786W        W83317  29.034   6.683   3.696
21787W        W83318  37.539  34.032   4.798
21788W        W83319  36.980  28.068   1.297
21789W        W83320  43.016  36.904  14.323
21790W        W83321  36.416   5.383   2.334
21791W        W83322  38.929   9.190   0.874
21792W        W83323  35.003   3.266  12.029
21793W        W83324  43.287  40.037   2.875
21794W        W83325  11.632   9.253  12.579
21795W        W83326   4.860   4.221  11.581
21796W        W83327   6.788  11.852   0.441
21797W        W83328   7.333   2.892   5.600
21798W        W83329  11.293  25.614  13.874
21799W        W83330  27.055  40.412   0.769
21800W        W83331   5.701  36.414   0.345
21801W        W83332  43.910  31.100   4.760
21802W        W83333  18.183  34.421  14.847
21803W        W83334  16.770  38.051  13.910
21804W        W83335  37.911  34.981  13.510
21805W        W83336  22.552  31.941   4.614
21806W        W83337   3.289   1.942  13.479
21807W        W83338   1.815  39.061   3.382
21808W        W83339  24.587   2.421  14.332
21809W        W83340  21.588   2.868   1.312
21810W        W83341  29.528  39.895   0.321
21811W        W83342  35.551  12.180  14.915
21812W        W83343  44.915   3.883   2.205
21813W        W83344  30.573   9.276  14.849
21814W        W83345   2.878  43.971  14.031
21815W        W83346  15.622  10.821   3.701
21816W        W83347  37.062  41.471  13.848
21817W        W83348  22.069   0.327  13.382
21818W        W83349   2.953   7.879   0.346
21819W        W83350   3.230  41.817   0.342
21820W        W83351  38.392   5.422  10.935
21821W        W83352  36.968   8.693  14.493
21822W        W83353  44.482   0.860   3.866
21823W        W83354  39.947   5.929  11.599
21824W        W83355  20.660  24.592   0.259
21825W        W83356  17.774  29.668  11.097
21826W        W83357   2.245   2.446   2.883
21827W        W83358  25.218  18.267   3.669
21828W        W83359  43.959  33.985   1.376
21829W        W83360  26.178  18.642  14.963
21830W        W83361  23.155  12.854   1.451
21831W        W83362  22.162  34.578  11.491
21832W        W83363   1.258  30.638   1.793
21833W        W83364  37.887   3.254  11.989
21834W        W83365  43.956  14.197  14.836
21835W        W83366  39.536   6.348  14.283
21836W        W83367  33.605  38.405   0.822
21837W        W83368  22.698  20.039  12.548
21838W        W83369  37.010  13.728   3.820
21839W        W83370   2.371  35.588   2.694
21840W        W83371  30.948  15.823  13.998
21841W        W83372  23.588  18.118  10.596
21842W        W83373  43.947   7.395  13.457
21843W        W83374   2.840  15.163  14.436
21844W        W83375  10.654  10.146   4.224
21845W        W83376  33.086  11.214   3.173
21846W        W83377  13.210   6.789  12.352
21847W        W83378   5.825  36.488   4.288
21848W        W83379  14.255  19.143  13.499
21849W        W83380   6.730   8.356  12.468
21850W        W83381  41.474   4.792   3.286
21851W        W83382  24.005  28.101   0.347
21852W        W83383  32.541   9.772   5.296
21853W        W83384  29.925  40.810  12.015
21854W        W83385  15.180  32.888  11.090
21855W        W83386  21.750  39.338  11.988
21856W        W83387  15.583   7.225   3.364
21857W        W83388  32.440  30.607   2.663
21858W        W83389   0.977  22.699   4.599
21859W        W83390  37.035  14.244   0.407
21860W        W83391  13.344  15.088   4.168
21861W        W83392   8.791  27.688  13.428
21862W        W83393   5.260  25.080   0.430
21863W        W83394  36.082  21.219  12.361
21864W        W83395  30.993  18.208  10.128
21865W        W83396  28.042  39.341   3.710
21866W        W83397  18.648  28.557  12.016
21867W        W83398  17.185  21.101  14.443
21868W        W83399  17.215  38.465  12.920
21869W        W83400  32.070  34.521  13.531
21870W        W83401  40.507  21.250   0.735
21871W        W83402  40.492  26.582   2.842
21872W        W83403  35.569  11.361   2.389
21873W        W83404  10.226  32.079   3.687
21874W        W83405  28.175  24.991  10.621
21875W        W83406   7.382  40.352  13.900
21876W        W83407  11.170  35.906   3.776
21877W        W83408  19.260  36.384   3.707
21878W        W83409  35.074   8.698   9.961
21879W        W83410   9.153   8.683   4.116
21880W        W83411  16.751   5.809  11.923
21881W        W83412  34.463  33.103   0.860
21882W        W83413  33.612  20.625   3.870
21883W        W83414   9.804   7.703  13.820
21884W        W83415  27.563  32.486  12.902
21885W        W83416  37.000   5.861   3.160
21886W        W83417  42.319   0.424   0.883
21887W        W83418  12.255  14.099  10.990
21888W        W83419  32.014   9.188   4.201
21889W        W83420  24.504  21.253  14.815
21890W        W83421   2.792  26.129   4.706
21891W        W83422  37.881  38.967   4.187
21892W        W83423   1.313   9.268   2.392
21893W        W83424  38.881  10.643  13.328
21894W        W83425   9.693  29.050  13.946
21895W        W83426  33.077   5.213   1.872
21896W        W83427  15.149  39.427   4.658
21897W        W83428  10.364   0.969   0.294
21898W        W83429  25.468  21.190   0.366
21899W        W83430   7.837  37.024  14.377
21900W        W83431  29.968   7.315   0.928
21901W        W83432  10.167  39.919   9.921
21902W        W83433  17.763  17.272  13.900
21903W        W83434  26.523  19.576  13.043
21904W        W83435  35.884  22.058   2.345
21905W        W83436  23.575  35.376   0.757
21906W        W83437  13.701  17.575   3.316
21907W        W83438  12.626   0.284  13.313
21908W        W83439  38.891  35.986  13.800
21909W        W83440   0.878   1.816  11.568
21910W        W83441  39.357  20.074   0.462
21911W        W83442  21.085  21.100   2.793
21912W        W83443  17.074  16.305   4.252
21913W        W83444  16.668  28.073  14.895
21914W        W83445  25.650  38.394  14.926
21915W        W83446  26.145  22.065   2.403
21916W        W83447  20.731  37.086   1.908
21917W        W83448  26.033  21.139  12.481
21918W        W83449  18.677  11.627   4.140
21919W        W83450  27.603  42.319   1.880
21920W        W83451  26.631   3.257   3.334
21921W        W83452   5.732  36.911  13.474
21922W        W83453  19.632   8.862   0.314
21923W        W83454  10.803  26.516  11.512
21924W        W83455  23.492  40.866   2.833
21925W        W83456  41.838  42.912  10.060
21926W        W83457  12.838  16.135   0.464
21927W        W83458  27.190  44.930  12.046
21928W        W83459   3.461  23.532  10.506
21929W        W83460  16.803  40.042   3.760
21930W        W83461  31.910  42.492   1.216
21931W        W83462  41.532  16.151  11.562
21932W        W83463   4.835  42.014   4.315
21933W        W83464  20.219  27.051  11.398
21934W        W83465  40.873  23.047   3.175
21935W        W83466  36.988  35.067  12.492
21936W        W83467  21.222  14.652  12.999
21937W        W83468  33.546  36.003   3.380
21938W        W83469  38.490  23.732   3.692
21939W        W83470  20.684  21.196   3.256
21940W        W83471  40.898  30.960  14.953
21941W        W83472  17.663  35.548  12.088
21942W        W83473  41.853   4.886  13.003
21943W        W83474  12.823   1.352   4.205
21944W        W83475  22.179  43.898   0.844
21945W        W83476   8.745  24.515   2.310
21946W        W83477  26.651  24.529   3.728
21947W        W83478   1.460  10.338   3.350
21948W        W83479  27.012  17.166   2.706
21949W        W83480  31.111  32.559   3.342
21950W        W83481  25.712  12.850  11.985
21951W        W83482   0.972  29.109  11.971
21952W        W83483  39.422  22.691   1.916
21953W        W83484  10.802  41.347  13.533
21954W        W83485  40.549  19.248  14.480
21955W        W83486  16.152  31.980   3.769
21956W        W83487  20.240  18.578   0.308
21957W        W83488   0.952  18.579  11.541
21958W        W83489   9.783  30.955   9.616
21959W        W83490  26.079  14.323  11.985
21960W        W83491  14.284  29.130  14.922
21961W        W83492   6.246   9.674   3.642
21962W        W83493  26.963   7.179  13.367
21963W        W83494  36.527   1.775   4.212
21964W        W83495  31.457  35.550   0.373
21965W        W83496  24.084  14.761  14.360
21966W        W83497   0.767   4.835  12.934
21967W        W83498  19.565  24.110  14.939
21968W        W83499  30.462   0.440  12.043
21969W        W83500  19.086   3.406  13.014
21970W        W83501   4.432  22.117   1.696
21971W        W83502  27.952  35.885   1.317
21972W        W83503  36.417  42.887   1.926
21973W        W83504  35.001  24.987  10.150
21974W        W83505  17.559  31.481  13.317
21975W        W83506  44.974  17.691   4.321
21976W        W83507  29.924  33.596   0.890
21977W        W83508  15.769  13.319  13.829
21978W        W83509  22.076  25.690   0.366
21979W        W83510  34.399  21.174  12.412
21980W        W83511  10.683  40.345  12.006
21981W        W83512   8.315  14.828  12.956
21982W        W83513  29.668  14.283   0.844
21983W        W83514   8.809  12.323  14.991
21984W        W83515   8.852  34.558   1.271
21985W        W83516  34.429  16.160  11.427
21986W        W83517  36.454   9.826  13.059
21987W        W83518   0.942  37.934   3.650
21988W        W83519  33.066  12.235   3.813
21989W        W83520   6.254   3.315   1.435
21990W        W83521  16.261  41.793  10.954
21991W        W83522  42.347  12.289  13.427
21992W        W83523  11.242  42.833  10.425
21993W        W83524  34.032  17.671   0.447
21994W        W83525  10.318  18.772   0.313
21995W        W83526  26.466  39.376   4.778
21996W        W83527  36.946  13.751  11.375
21997W        W83528   9.235  27.573  11.103
21998W        W83529  41.446  35.881  12.002
21999W        W83530  41.889   0.430  10.090
22000W        W83531  22.059  22.532   3.791
22001W        W83532  32.025   7.669   3.235
22002W        W83533  39.848  21.588  12.398
22003W        W83534  31.896  41.295  10.063
22004W        W83535   9.274  16.117  11.977
22005W        W83536   0.309   1.958   2.673
22006W        W83537  22.503  39.453  10.570
22007W        W83538  37.517  41.043  12.454
22008W        W83539   7.884  12.320  12.055
22009W        W83540   5.918  29.022  12.513
22010W        W83541  16.282   7.399  10.934
22011W        W83542  33.034  39.462  13.925
22012W        W83543  32.009  36.385   2.247
22013W        W83544   5.748  12.195   0.775
22014W        W83545  22.686  12.235  14.760
22015W        W83546  38.987  35.016   2.391
22016W        W83547   1.864  17.159   3.681
22017W        W83548  21.164  44.762  10.446
22018W        W83549  20.130  41.459   0.346
22019W        W83550  11.627  42.296   9.940
22020W        W83551  21.753  30.010  11.114
22021W        W83552  40.965   6.711  11.483
22022W        W83553  14.258  42.355   4.784
22023W        W83554  29.988   3.274   4.668
22024W        W83555   0.399  25.199   2.323
22025W        W83556  28.619  28.172   9.961
22026W        W83557  37.863  16.314  11.415
22027W        W83558  28.545  10.729   3.661
22028W        W83559  13.644  28.154   1.375
22029W        W83560  26.092   7.312   9.990
22030W        W83561  18.138  17.141  12.841
22031W        W83562  10.194  24.134  11.535
22032W        W83563  39.326  43.477  10.934
22033W        W83564  23.603  14.137  14.026
22034W        W83565  31.909   1.396   4.603
22035W        W83566   5.846  38.545   0.413
22036W        W83567  36.371  20.194  11.502
22037W        W83568   0.379  32.010   3.246
22038W        W83569  29.113  36.042   3.852
22039W        W83570  18.112   7.910   0.303
22040W        W83571  27.018  29.477   5.254
22041W        W83572   4.207  17.723   2.408
22042W        W83573  19.537  13.725  10.529
22043W        W83574  30.602  14.709   5.315
22044W        W83575  34.034  12.794  11.049
22045W        W83576  25.064  24.685   0.379
22046W        W83577  22.162  20.580   0.446
22047W        W83578  18.551  26.504  11.512
22048W        W83579  32.921   9.858   1.317
22049W        W83580  19.643  22.138   1.736
22050W        W83581  32.483  27.489  11.128
22051W        W83582  18.570   7.678   3.692
22052W        W83583  27.600  35.476   3.312
22053W        W83584  17.766   4.862   1.895
22054W        W83585   0.961  24.171  11.448
22055W        W83586  10.233  11.166   2.382
22056W        W83587  38.405   1.765  12.376
22057W        W83588  33.409   7.275   4.824
22058W        W83589  26.476  44.366  13.815
22059W        W83590  16.765   2.755   0.376
22060W        W83591  39.885  10.688  14.299
22061W        W83592  28.061  24.562   4.830
22062W        W83593  36.587  25.190   1.231
22063W        W83594  27.628  36.422  14.440
22064W        W83595  44.861  32.517   3.784
22065W        W83596  16.111  12.841  12.377
22066W        W83597  42.471   5.738   4.719
22067W        W83598  20.080   1.822   3.250
22068W        W83599  23.647  20.768  14.959
22069W        W83600  17.755  11.767  13.889
22070W        W83601   8.311  13.335   0.409
22071W        W83602  31.436  40.483  12.902
22072W        W83603  11.166  36.448   2.842
22073W        W83604  27.505  41.378   0.947
22074W        W83605   8.730  19.588   2.312
22075W        W83606  26.463  41.484  12.958
22076W        W83607  18.575  22.705   1.212
22077W        W83608  34.539   6.255  11.541
22078W        W83609  11.239  17.772   0.959
22079W        W83610   4.357  19.648   5.091
22080W        W83611  39.897  16.711  11.403
22081W        W83612  20.075  39.046  13.403
22082W        W83613  26.003  26.661   2.713
22083W        W83614   0.255  42.340  10.599
22084W        W83615  24.700  18.631  14.804
22085W        W83616   2.397  23.091   5.598
22086W        W83617  40.830  16.266   0.282
22087W        W83618  15.285  31.936   2.743
22088W        W83619  29.073  30.539   2.394
22089W        W83620  39.431  36.946  10.916
22090W        W83621  13.740  21.629   0.478
22091W        W83622  33.611   0.985   0.845
22092W        W83623  35.014  44.821   3.280
22093W        W83624   4.791  28.070  11.912
22094W        W83625  19.743  41.874   4.344
22095W        W83626  14.154  12.311  13.481
22096W        W83627   0.466  18.721  14.488
22097W        W83628  26.059  41.354  14.825
22098W        W83629  12.764  38.380  13.852
22099W        W83630  24.019  27.148   1.911
22100W        W83631  16.595  34.591  12.543
22101W        W83632  11.710  35.936  14.467
22102W        W83633  37.949   6.900   1.346
22103W        W83634  23.102   1.258   1.219
22104W        W83635  32.633  14.641   3.715
22105W        W83636  26.695  29.039  11.926
22106W        W83637   9.149   1.255  14.455
22107W        W83638  12.309   9.199   4.352
22108W        W83639  19.770  27.523  10.988
22109W        W83640  41.974  37.995   0.881
22110W        W83641  31.464   5.405  12.459
22111W        W83642  44.941  15.824  14.322
22112W        W83643  17.121  28.048   1.277
22113W        W83644   9.808  44.921   0.394
22114W        W83645  27.062  32.065   2.413
22115W        W83646  37.529  25.124   3.183
22116W        W83647  32.133   7.353   1.441
22117W        W83648  34.054  24.591   3.800
22118W        W83649  22.667  23.146   0.299
22119W        W83650  44.871   8.233   1.282
22120W        W83651  20.182  39.889   3.638
22121W        W83652  12.299  22.169   3.164
22122W        W83653  12.273   5.732   4.600
22123W        W83654  31.434  26.121   2.783
22124W        W83655  38.849   1.764   3.750
22125W        W83656  13.784  12.227   4.671
22126W        W83657  12.282  43.403  14.821
22127W        W83658  16.587  18.118  11.005
22128W        W83659  31.482  19.680   3.804
22129W        W83660  33.053  30.602  13.914
22130W        W83661  16.209  34.959  13.313
22131W        W83662  13.699  43.280   4.158
22132W        W83663  17.233  31.136   1.907
22133W        W83664  23.680  37.372  12.909
22134W        W83665   2.742  21.138   5.134
22135W        W83666  15.208   8.697  11.044
22136W        W83667   0.938  26.621   0.893
22137W        W83668  37.335  32.058   3.841
22138W        W83669  41.455  15.601   2.727
22139W        W83670  10.859  17.160  14.029
22140W        W83671  32.460  36.592   0.938
22141W        W83672  27.634   2.913  11.980
22142W        W83673  36.366  26.637  12.543
22143W        W83674  33.549  11.207  13.817
22144W        W83675  22.028  30.558  14.911
22145W        W83676  38.945  41.979  11.601
22146W        W83677  16.699  38.367   0.922
22147W        W83678  16.612  20.195   4.220
22148W        W83679  14.612   9.313   4.154
22149W        W83680  40.965  24.175   4.267
22150W        W83681  32.047  42.804   0.764
22151W        W83682  14.787  20.761   0.940
22152W        W83683  20.106  29.147  12.831
22153W        W83684   2.768  21.685  11.958
22154W        W83685  14.774  17.256  14.409
22155W        W83686  20.682   7.677   2.880
22156W        W83687  27.052  18.224   4.115
22157W        W83688  39.540  26.092   0.344
22158W        W83689   0.331  44.994   0.362
22159W        W83690  10.152  11.724   1.759
22160W        W83691  11.853  41.472   3.716
22161W        W83692   7.179  42.925  10.915
22162W        W83693  36.999  27.950   2.807
22163W        W83694  43.810   4.379  14.309
22164W        W83695   3.295  24.630   1.410
22165W        W83696  19.056  18.737  11.977
22166W        W83697  19.257  23.510  13.524
22167W        W83698  17.671   8.291   4.823
22168W        W83699  28.118  15.097  13.872
22169W        W83700  27.565  13.708  10.503
22170W        W83701  11.242  43.906   3.351
22171W        W83702  40.033  32.937  13.919
22172W        W83703  38.934  25.588   4.753
22173W        W83704  16.717  44.432  12.833
22174W        W83705  13.757  37.020   0.461
22175W        W83706  17.631  16.274  11.902
22176W        W83707  31.423  41.424   4.699
22177W        W83708   9.661  37.568  11.878
22178W        W83709  18.661  41.941  11.437
22179W        W83710   8.830  25.088  13.317
22180W        W83711  13.796   8.769   2.210
22181W        W83712   6.806   8.278   1.276
22182W        W83713  12.123  44.961   2.701
22183W        W83714  26.530  14.700  11.389
22184W        W83715  19.278  17.736  13.435
22185W        W83716  17.208  38.971   0.302
22186W        W83717  21.052  13.211  12.436
22187W        W83718  32.564   1.286   0.321
22188W        W83719  39.818  18.583  13.927
22189W        W83720  16.197  13.338  10.946
22190W        W83721   9.206  32.070  14.428
22191W        W83722   1.376  39.556   4.609
22192W        W83723   4.842   7.824  10.924
22193W        W83724  37.548   2.440   0.964
22194W        W83725  13.773  42.361   4.235
22195W        W83726  42.965  16.698  11.860
22196W        W83727  40.921  20.564  14.888
22197W        W83728   0.318  31.548  12.950
22198W        W83729  39.540  27.037   2.282
22199W        W83730  28.043  36.918  12.837
22200W        W83731  10.821  18.181  11.494
22201W        W83732  22.111   2.926   1.211
22202W        W83733  32.503  44.955  10.458
22203W        W83734  15.230  26.194   3.756
22204W        W83735  38.938  43.385  12.032
22205W        W83736  36.006  41.803  12.496
22206W        W83737  34.595   8.171   4.140
22207W        W83738  13.622  32.114   2.696
22208W        W83739   3.740  11.165  11.481
22209W        W83740  13.792  28.973   1.259
22210W        W83741  18.267  31.490  14.776
22211W        W83742   6.372  16.787   0.750
22212W        W83743  22.145   0.884   2.885
22213W        W83744  38.413  18.276  12.037
22214W        W83745  35.044   4.315  10.533
22215W        W83746  21.041   8.882   1.363
22216W        W83747  25.503  34.445  13.392
22217W        W83748  30.416  11.307  11.865
22218W        W83749  39.828  29.161  10.920
22219W        W83750  10.223  31.540   3.728
22220W        W83751  15.700  28.575  12.827
22221W        W83752  22.063  27.119   0.868
22222W        W83753  11.334   1.932  13.835
22223W        W83754  18.257  12.311  11.972
22224W        W83755  15.812  37.931  12.374
22225W        W83756  43.292  26.545   0.908
22226W        W83757   2.919   8.402  14.880
22227W        W83758  10.273  38.921  11.404
22228W        W83759  17.666  20.079   3.728
22229W        W83760   7.265  31.501  12.373
22230W        W83761  12.332   1.360   9.498
22231W        W83762  22.547  25.666  11.096
22232W        W83763  33.971  22.517  11.096
22233W        W83764  36.054   9.177   4.762
22234W        W83765  32.122  33.568  12.034
22235W        W83766  20.657   7.402  12.054
22236W        W83767  38.953  26.514  11.450
22237W        W83768  16.590  23.217   4.227
22238W        W83769  41.994  39.488  11.446
22239W        W83770   2.926  24.975  14.896
22240W        W83771  26.138   3.806   2.227
22241W        W83772  27.966  25.496  12.533
22242W        W83773  15.276  35.413  10.631
22243W        W83774   2.399  27.101  11.502
22244W        W83775  36.913  16.802   1.757
22245W        W83776  30.159  10.814   4.738
22246W        W83777  17.729  10.174  11.440
22247W        W83778  29.027  18.208  14.406
22248W        W83779  41.020   1.942  14.890
22249W        W83780  44.269  24.204   1.410
22250W        W83781  15.160  23.667  12.994
22251W        W83782  36.512  14.768   2.371
22252W        W83783   2.941  20.215   1.933
22253W        W83784   6.316  44.381   4.278
22254W        W83785  30.639   2.756   3.223
22255W        W83786  22.612  39.342  12.371
22256W        W83787  44.429  29.108  11.414
22257W        W83788   5.771   0.405   2.887
22258W        W83789  12.654  42.905  12.992
22259W        W83790  12.658  10.180   2.286
22260W        W83791   2.351  15.205   0.843
22261W        W83792  39.535  25.668  13.915
22262W        W83793  27.620  38.451  14.946
22263W        W83794   7.817   3.339   0.868
22264W        W83795  25.134  24.680   2.819
22265W        W83796  43.384  10.721   0.841
22266W        W83797   7.266   1.738   4.119
22267W        W83798  43.294  41.964  14.846
22268W        W83799   1.414  13.306   3.658
22269W        W83800   7.786   3.919   3.354
22270W        W83801  10.323  39.317  14.402
22271W        W83802  33.051  34.053  12.016
22272W        W83803  11.235  21.216   0.875
22273W        W83804   4.417  24.610   0.858
22274W        W83805  13.132  36.907   4.282
22275W        W83806  39.520   2.848  12.823
22276W        W83807  26.139  26.007  14.024
22277W        W83808  24.115  41.305  10.944
22278W        W83809  37.345  31.473  10.594
22279W        W83810  34.957  38.838   4.664
22280W        W83811  29.536  21.650   4.346
22281W        W83812  24.227  43.414  11.565
22282W        W83813   6.821  44.389  10.466
22283W        W83814   3.421   9.774  11.035
22284W        W83815  12.234  38.448   2.804
22285W        W83816  35.513  32.072   3.157
22286W        W83817  14.215   9.837  13.040
22287W        W83818  25.645  41.015  14.760
22288W        W83819  17.745  26.964   0.868
22289W        W83820  18.667  36.026   4.764
22290W        W83821  24.048  38.463  10.042
22291W        W83822  18.128  28.518   0.836
22292W        W83823   0.368  20.650   0.452
22293W        W83824  10.831  17.780   0.799
22294W        W83825  17.753  11.721  14.320
22295W        W83826  44.887  17.741   3.660
22296W        W83827   0.885  19.630   4.251
22297W        W83828  34.060  37.935   3.178
22298W        W83829  42.014  39.518   4.781
22299W        W83830  29.578   0.978  14.974
22300W        W83831  44.858  26.196   4.310
22301W        W83832   1.793   4.915  10.619
22302W        W83833   4.728  24.699   1.220
22303W        W83834   0.484  31.919   0.432
22304W        W83835   8.327  15.128   0.397
22305W        W83836  21.189   3.893   5.309
22306W        W83837   2.304  42.809   0.774
22307W        W83838  36.589  35.360   0.792
22308W        W83839  26.696   6.256  14.970
22309W        W83840   7.216  36.028   3.291
22310W        W83841  19.596  19.603  14.973
22311W        W83842   4.374  12.181  10.596
22312W        W83843   8.249  32.114  10.605
22313W        W83844  32.431  13.688   1.706
22314W        W83845  35.057  43.339   2.803
22315W        W83846  17.687  26.696  12.484
22316W        W83847   7.388  31.143   1.835
22317W        W83848   7.322  42.874  10.559
22318W        W83849  38.871  26.616   4.300
22319W        W83850  19.668   0.824   0.937
22320W        W83851  10.771   2.385  11.865
22321W        W83852  35.101  27.522   2.352
22322W        W83853  43.961  18.238  14.312
22323W        W83854  13.112  42.988   5.168
22324W        W83855  21.214  10.850  13.397
22325W        W83856  31.925  29.078  13.964
22326W        W83857   8.669  11.636  10.922
22327W        W83858  16.712  26.691   4.216
22328W        W83859  39.839   7.799   0.457
22329W        W83860  39.944   7.347  13.967
22330W        W83861  42.906   3.263  12.944
22331W        W83862  25.528  31.147   0.816
22332W        W83863   0.439  40.490   0.461
22333W        W83864  26.076   2.255  11.068
22334W        W83865  35.486  10.228  14.463
22335W        W83866  44.763  33.899  14.970
22336W        W83867   8.690  38.918   1.283
22337W        W83868  18.701  44.906   2.782
22338W        W83869   7.744  15.780  11.409
22339W        W83870  29.049  14.648  12.346
22340W        W83871   4.346  19.688   0.305
22341W        W83872  44.865  23.180   0.808
22342W        W83873   8.667   0.866   1.694
22343W        W83874  10.240   1.300  12.414
22344W        W83875  15.148  14.684  14.511
22345W        W83876   9.274  28.496  12.522
22346W        W83877   6.773  18.727   1.287
22347W        W83878  27.495   1.271   0.404
22348W        W83879  44.854  41.408  11.449
22349W        W83880   7.671  32.632   3.359
22350W        W83881  24.548  16.796   3.347
22351W        W83882  29.557   5.365  12.961
22352W        W83883  17.137  35.969   0.961
22353W        W83884   2.737   1.330  13.942
22354W        W83885  37.480  11.769   1.844
22355W        W83886  28.970  42.396   2.194
22356W        W83887  38.008  34.067   3.719
22357W        W83888  12.783  40.958  13.540
22358W        W83889  30.580   9.824   0.784
22359W        W83890   9.795   7.839  11.609
22360W        W83891  37.350  10.234  14.283
22361W        W83892  41.294  19.248  14.854
22362W        W83893  21.695  20.540  12.064
22363W        W83894  38.863  41.910  10.583
22364W        W83895  40.839   1.806  12.961
22365W        W83896  23.227  36.981   2.704
22366W        W83897  30.625  27.542  13.411
22367W        W83898  22.562  41.904  10.412
22368W        W83899  21.189  31.454  12.945
22369W        W83900  10.358  37.424  14.926
22370W        W83901  44.333  23.566  14.307
22371W        W83902  40.969  10.721   1.882
22372W        W83903  16.305  44.959  14.836
22373W        W83904  10.816  30.611   1.240
22374W        W83905  24.999  17.587  11.982
22375W        W83906  22.540  15.803  14.300
22376W        W83907   8.329  24.640   4.255
22377W        W83908  12.736   0.872  12.076
22378W        W83909   7.704  23.695   2.264
22379W        W83910  31.078  26.062  13.939
22380W        W83911  22.558  19.663  12.978
22381W        W83912  33.126  22.017   4.120
22382W        W83913  24.095  29.064   5.199
22383W        W83914  36.015   7.210   2.885
22384W        W83915  35.948   4.943  14.966
22385W        W83916  12.239  33.075   4.288
22386W        W83917  39.474   7.815  10.406
22387W        W83918   8.266  20.259   0.313
22388W        W83919   3.432  36.856   3.768
22389W        W83920   4.229  38.939   3.808
22390W        W83921  32.481  23.121   1.842
22391W        W83922  41.829  33.985   1.314
22392W        W83923  19.533  37.010   0.925
22393W        W83924   9.299   6.379   0.798
22394W        W83925  28.031  33.474   4.634
22395W        W83926  17.264   3.393   1.731
22396W        W83927  27.604  14.694   4.336
22397W        W83928   2.410  42.413  11.071
22398W        W83929  34.584  23.538  14.276
22399W        W83930  28.144   7.768  13.531
22400W        W83931  29.619   1.890   1.338
22401W        W83932   5.847  42.433   4.645
22402W        W83933  40.467  28.165   5.280
22403W        W83934  22.535  10.641   4.347
22404W        W83935  19.105   1.954   2.407
22405W        W83936   9.676   3.775   3.819
22406W        W83937   8.272   0.824  14.418
22407W        W83938  23.105  22.563   1.435
22408W        W83939  27.093  12.677   0.789
22409W        W83940  27.630   6.352  14.767
22410W        W83941  17.588  26.039   9.621
22411W        W83942  36.440   7.786  14.369
22412W        W83943  40.940   1.403   3.795
22413W        W83944  12.263  44.451   0.285
22414W        W83945  42.368  25.623   4.677
22415W        W83946  28.437  30.055  11.019
22416W        W83947  17.263  17.567   3.375
22417W        W83948   5.279  37.858   3.762
22418W        W83949  37.490  17.556   3.695
22419W        W83950  16.662   4.344   0.868
22420W        W83951  41.970   3.761   4.331
22421W        W83952  34.016  18.757   1.279
22422W        W83953   1.383  11.371  10.466
22423W        W83954  21.735  43.294  14.456
22424W        W83955   9.820   9.803  14.301
22425W        W83956  17.284  24.577   2.262
22426W        W83957  35.437  17.629  10.640
22427W        W83958  25.045  32.473   3.831
22428W        W83959  26.002  12.181   4.324
22429W        W83960  14.620  30.653   1.800
22430W        W83961   1.920  11.329   3.276
22431W        W83962  25.477   4.410  10.998
22432W        W83963  27.584  38.983   1.767
22433W        W83964   2.860  42.341  12.973
22434W        W83965  16.312  39.528   1.268
22435W        W83966  35.878  11.749   0.733
22436W        W83967  11.644  35.036   1.924
22437W        W83968   3.253   2.325   1.308
22438W        W83969  38.532   2.843   0.957
22439W        W83970  30.480  41.042   2.368
22440W        W83971   0.948  38.411  11.377
22441W        W83972  37.843  29.485   3.346
22442W        W83973  37.477  15.235  13.947
22443W        W83974  28.507  11.197   3.300
22444W        W83975   9.879  40.453   3.355
22445W        W83976  15.304   1.919   3.246
22446W        W83977  11.627  37.922  11.522
22447W        W83978   5.424  17.603   4.224
22448W        W83979  14.218  17.691  10.942
22449W        W83980  38.938  33.443  11.493
22450W        W83981  35.087  42.371  11.021
22451W        W83982   7.846  39.896   4.164
22452W        W83983   3.247  43.960   2.766
22453W        W83984  33.380  28.998  10.438
22454W        W83985  22.077  31.997  12.515
22455W        W83986  17.180  40.312   0.817
22456W        W83987   0.492  32.045  14.767
22457W        W83988  25.695  20.137  10.435
22458W        W83989  25.604   6.792  12.350
22459W        W83990   7.230  43.823   0.312
22460W        W83991  17.230   8.831   3.191
22461W        W83992  17.630  37.036  10.460
22462W        W83993   4.842  38.468  14.431
22463W        W83994  27.136  38.063   0.383
22464W        W83995  41.532  35.420   2.881
22465W        W83996  12.810  11.353   4.236
22466W        W83997  23.091  14.698  11.440
22467W        W83998   6.828  37.520  14.415
22468W        W83999  28.981  10.341  10.451
22469W        W84000  18.204  39.911  13.984
22470W        W84001  13.342   2.423   4.776
22471W        W84002  20.578  15.153   3.154
22472W        W84003  15.673  39.446  12.029
22473W        W84004   4.729  35.094  11.978
22474W        W84005   7.892  14.783  10.610
22475W        W84006  10.267  10.863   0.941
22476W        W84007  20.544  16.298  12.853
22477W        W84008  21.146  16.306  10.492
22478W        W84009  27.177  24.109   1.374
22479W        W84010  33.112  14.137  12.565
22480W        W84011  40.473   4.906   2.746
22481W        W84012  16.230   2.400   3.289
22482W        W84013  24.578  34.037   3.181
22483W        W84014  37.456  41.994  10.968
22484W        W84015  12.747  20.570   4.818
22485W        W84016  11.301   6.690   3.243
22486W        W84017   8.237  21.220   2.183
22487W        W84018  27.191   2.734  13.909
22488W        W84019  14.802  25.510   1.379
22489W        W84020  43.959  21.537   0.956
22490W        W84021  42.853  32.584   1.245
22491W        W84022   2.913   6.188  11.043
22492W        W84023   2.776   7.682  10.559
22493W        W84024   0.293  32.514  13.453
22494W        W84025  33.016  14.155   0.954
22495W        W84026  14.622   5.352   2.779
22496W        W84027   0.259  21.172  10.624
22497W        W84028   9.813  13.840  14.950
22498W        W84029  24.127  19.103  12.047
22499W        W84030  25.678  17.621  12.983
22500W        W84031   6.872  29.551   3.314
22501W        W84032  23.112   7.173   3.150
22502W        W84033  33.913   2.894  12.883
22503W        W84034  31.403  15.813  11.445
22504W        W84035  35.381   0.899  13.857
22505W        W84036  39.382   6.802  11.864
22506W        W84037  20.130  34.393   0.451
22507W        W84038  25.702  23.058  14.289
22508W        W84039  33.953   8.305  10.408
22509W        W84040   6.241  33.460  11.950
22510W        W84041  16.669  12.730  13.820
22511W        W84042  12.353  27.669  13.846
22512W        W84043   3.265  34.907  12.877
22513W        W84044  23.016  22.246   1.382
22514W        W84045  42.899  28.027   5.237
22515W        W84046  31.023   6.912  12.042
22516W        W84047   2.760   3.925   2.328
22517W        W84048  24.065   1.345  12.851
22518W        W84049  39.060  36.097  11.489
22519W        W84050  42.906  44.950  14.474
22520W        W84051   3.717   0.759   0.772
22521W        W84052   7.791  13.802   0.761
22522W        W84053  23.204  20.091  13.925
22523W        W84054  43.390  31.981   3.261
22524W        W84055  28.604  16.602  14.026
22525W        W84056  37.083  20.167   4.131
22526W        W84057  42.477  13.172   0.386
22527W        W84058  21.541  32.545   9.982
22528W        W84059   9.849  14.812   2.798
22529W        W84060  33.615  41.951  11.435
22530W        W84061  41.404   9.779  10.598
22531W        W84062  43.014  26.637  11.870
22532W        W84063  18.114  37.445  14.955
22533W        W84064   4.421  43.482  14.326
22534W        W84065   9.297  24.575   2.306
22535W        W84066  41.403  42.921  14.794
22536W        W84067  44.480  35.523  11.538
22537W        W84068  41.448   1.872   3.224
22538W        W84069  29.980  24.622  14.990
22539W        W84070  13.838  31.572   1.375
22540W        W84071  40.032  42.030   3.244
22541W        W84072  14.621  26.092   2.820
22542W        W84073  14.748  31.152   4.233
22543W        W84074   4.933  24.228  13.968
22544W        W84075  11.743  31.063  12.058
22545W        W84076   6.905  28.173  13.049
22546W        W84077   8.793  21.085  12.357
22547W        W84078   3.713  38.061   0.753
22548W        W84079   3.337  27.532   0.288
22549W        W84080   6.256  41.525  10.110
22550W        W84081  20.531  26.954   0.835
22551W        W84082  22.179  11.129  13.795
22552W        W84083   0.940  26.652  12.001
22553W        W84084  22.212  28.479   1.909
22554W        W84085  13.614  28.632   1.286
22555W        W84086  36.858  41.302  11.412
22556W        W84087  24.989  12.191   3.668
22557W        W84088  30.569  19.075  14.357
22558W        W84089  27.009  43.462  10.505
22559W        W84090  40.374  21.752  13.352
22560W        W84091  33.392  43.827   3.829
22561W        W84092  42.984  19.086   1.298
22562W        W84093  19.237  15.766   2.701
22563W        W84094   8.836  35.425   1.222
22564W        W84095  30.140  12.793   2.234
22565W        W84096  26.678  22.047  13.361
22566W        W84097  24.062   7.695  13.453
22567W        W84098   7.342   9.194   2.259
22568W        W84099  26.175  28.606   3.847
22569W        W84100  11.682  27.528  14.332
22570W        W84101  16.112  20.677  14.460
22571W        W84102   2.850   7.864  11.020
22572W        W84103  28.571   6.252  11.047
22573W        W84104   6.285  18.195   0.321
22574W        W84105  22.040  12.323  13.513
22575W        W84106  17.709   2.963   2.273
22576W        W84107  10.325   6.198  11.027
22577W        W84108  34.998  39.881   2.277
22578W        W84109   1.463  12.814  11.449
22579W        W84110  43.400   7.890  13.466
22580W        W84111  15.727   0.874  12.473
22581W        W84112  12.622   6.859   3.333
22582W        W84113  21.616  37.038   1.312
22583W        W84114   6.836  33.486   3.780
22584W        W84115   8.767   8.764   4.289
22585W        W84116  23.043  16.109  11.059
22586W        W84117   9.849   9.329  14.886
22587W        W84118   7.263  16.750  13.005
22588W        W84119   8.381   7.682  10.500
22589W        W84120  30.477  44.906   4.836
22590W        W84121  17.678   2.795  11.911
22591W        W84122  36.497  14.225   0.329
22592W        W84123  28.087  32.938   2.715
22593W        W84124   2.378  34.601   0.353
22594W        W84125  26.658  18.594   1.864
22595W        W84126  44.807  42.963   3.670
22596W        W84127   5.794   5.882  12.843
22597W        W84128  26.610  40.935  13.048
22598W        W84129  37.392  11.759   2.191
22599W        W84130  39.835  19.197   0.948
22600W        W84131  36.946  21.087  11.126
22601W        W84132  23.205  41.013  11.548
22602W        W84133   7.197  27.488  14.417
22603W        W84134  40.503  16.188  12.501
22604W        W84135  28.155  30.645   4.742
22605W        W84136  31.075  22.648   0.386
22606W        W84137   3.940  22.722  11.411
22607W        W84138   9.263  17.123   3.386
22608W        W84139  42.357  44.502   3.631
22609W        W84140  14.201  44.769   0.462
22610W        W84141   5.918   8.348   0.954
22611W        W84142  34.539  37.415  11.598
22612W        W84143  43.817  18.104  11.509
22613W        W84144   5.714  29.594  10.501
22614W        W84145  35.468   2.767   2.740
22615W        W84146  35.362  17.142   0.421
22616W        W84147  33.967  28.087  13.951
22617W        W84148  20.586  38.945  11.581
22618W        W84149   0.883  33.004  14.881
22619W        W84150  33.379  14.709   3.225
22620W        W84151  32.905  42.280  11.568
22621W        W84152   6.894  22.688   1.923
22622W        W84153   3.315  38.935   2.379
22623W        W84154  29.426  24.208   4.712
22624W        W84155  19.730  44.919   4.270
22625W        W84156  43.407  40.477  14.814
22626W        W84157  13.309   8.851  14.364
22627W        W84158  35.926  31.935   1.701
22628W        W84159  26.647  40.322   2.814
22629W        W84160   0.422  22.577   0.861
22630W        W84161  16.142  41.918   1.760
22631W        W84162  23.172  26.040   0.247
22632W        W84163   6.264   9.683  13.392
22633W        W84164  40.900  10.335  12.962
22634W        W84165  23.218  14.237   3.278
22635W        W84166   6.892   0.956  11.519
22636W        W84167   4.805  38.921   4.634
22637W        W84168   9.727  43.771   3.702
22638W        W84169  11.771   2.817  13.944
22639W        W84170  14.109   7.408  13.958
22640W        W84171  44.004  23.614  13.892
22641W        W84172  15.779  42.779   5.143
22642W        W84173  18.149  15.310   2.382
22643W        W84174  12.273   9.718  12.555
22644W        W84175  10.731  24.577   2.857
22645W        W84176  37.968  11.733  13.397
22646W        W84177  10.783   4.217   5.285
22647W        W84178  20.150  36.893  14.984
22648W        W84179  14.687   9.865   1.339
22649W        W84180  43.800  42.525  11.067
22650W        W84181  33.459  19.701   0.836
22651W        W84182  37.891   1.741   5.218
22652W        W84183  25.580  33.036  12.379
22653W        W84184  37.016  32.471  13.427
22654W        W84185   1.334  30.092  13.995
22655W        W84186  23.234  20.140  14.969
22656W        W84187  16.298  18.623  11.078
22657W        W84188  32.600  28.987   1.267
22658W        W84189  41.006  28.969   2.783
22659W        W84190   3.279  44.349  12.009
22660W        W84191  12.230  28.556  12.950
22661W        W84192  43.837  24.005   2.855
22662W        W84193  21.237  20.081  12.949
22663W        W84194   0.891   7.711   2.862
22664W        W84195  32.478  15.821   2.326
22665W        W84196  30.563   4.353   2.846
22666W        W84197  17.140  36.015   0.460
22667W        W84198  38.492  13.285  11.543
22668W        W84199  34.543  18.655   9.988
22669W        W84200  39.915  39.495   3.162
22670W        W84201  25.713  21.216  10.142
22671W        W84202  41.395  38.487   0.340
22672W        W84203  26.019   9.249   3.235
22673W        W84204  14.180  27.503   0.878
22674W        W84205  17.581   7.851  12.865
22675W        W84206  11.307  18.643  12.856
22676W        W84207  29.153  10.805   1.775
22677W        W84208  29.985  40.325   0.802
22678W        W84209  19.680  28.513  14.352
22679W        W84210  22.174  33.923   2.186
22680W        W84211  30.569  15.109   3.709
22681W        W84212  37.076  42.447  12.391
22682W        W84213  21.699  26.557  14.283
22683W        W84214  18.208  37.554   0.327
22684W        W84215  17.633  38.400   2.187
22685W        W84216  41.995   9.755  10.559
22686W        W84217  38.027  33.072  14.982
22687W        W84218  22.088  42.836   3.366
22688W        W84219  42.467   1.389  13.308
22689W        W84220  34.524  19.203   0.938
22690W        W84221  19.251  32.922  12.551
22691W        W84222   0.437  27.052  12.926
22692W        W84223   1.435  33.506  14.794
22693W        W84224  41.968  27.447  13.030
22694W        W84225  28.180  39.062   1.344
22695W        W84226  40.023  40.419  14.411
22696W        W84227  18.175   5.202  14.002
22697W        W84228  12.710  24.558  12.502
22698W        W84229  31.586  43.895   2.290
22699W        W84230   4.734  25.128   3.770
22700W        W84231  39.530  10.177  13.973
22701W        W84232  34.998  10.817  11.079
22702W        W84233   2.335  14.693   4.604
22703W        W84234   5.240   3.932  10.534
22704W        W84235   0.476   6.310   4.718
22705W        W84236   4.321  43.875  14.877
22706W        W84237  20.763  41.965  14.987
22707W        W84238  31.123  38.397  11.027
22708W        W84239   2.271  28.974  12.340
22709W        W84240  40.829  19.550  14.462
22710W        W84241  30.444   7.183   3.838
22711W        W84242  21.120  15.090  12.566
22712W        W84243  16.120  29.544  11.051
22713W        W84244  27.127  41.308  14.946
22714W        W84245   7.865  18.162  14.369
22715W        W84246   0.323  33.498   9.993
22716W        W84247  18.643   3.346  13.827
22717W        W84248  21.620  43.477   4.810
22718W        W84249  30.152  19.144  12.341
22719W        W84250  16.191   6.835   0.959
22720W        W84251  12.636  11.311   1.907
22721W        W84252  25.056  34.082  14.018
22722W        W84253   6.233   7.317  10.546
22723W        W84254  13.709  41.432   4.605
22724W        W84255  14.779  29.519   3.210
22725W        W84256   7.895   8.293  11.462
22726W        W84257  38.031  25.682  14.772
22727W        W84258   8.840  30.518  12.890
22728W        W84259   4.265  22.998  13.895
22729W        W84260  19.777   3.415  11.386
22730W        W84261  37.986  23.223   3.851
22731W        W84262  39.507  33.505   1.899
22732W        W84263  27.679   0.926   2.712
22733W        W84264  32.621  31.590  14.949
22734W        W84265   2.838   3.286   1.887
22735W        W84266   2.905  21.238  13.522
22736W        W84267  36.867  12.786   4.273
22737W        W84268  10.873  42.385   4.625
22738W        W84269   2.252  44.962   3.355
22739W        W84270  33.486  40.548  14.416
22740W        W84271  18.183  31.413  13.014
22741W        W84272  14.829  12.773  13.347
22742W        W84273  25.565  24.007  14.857
22743W        W84274  26.538   9.379   5.281
22744W        W84275  39.501  37.902   3.170
22745W        W84276   2.761   1.378  12.379
22746W        W84277   2.898  26.505   0.287
22747W        W84278  35.430  35.962  11.078
22748W        W84279   8.720  28.111  14.960
22749W        W84280  22.155  32.920   0.758
22750W        W84281  21.547  27.636   2.325
22751W        W84282   0.342   5.911   2.403
22752W        W84283   4.793  24.177   0.864
22753W        W84284  21.714  27.514  11.893
22754W        W84285   2.910  42.009   2.802
22755W        W84286  20.619  25.083   1.219
22756W        W84287   3.346  35.033   5.152
22757W        W84288   6.409  21.677   4.832
22758W        W84289  28.969  43.929   3.760
22759W        W84290  34.375  40.931   2.681
22760W        W84291   9.327  22.044   4.675
22761W        W84292  43.291  17.791   3.338
22762W        W84293  16.621  28.148  10.571
22763W        W84294  41.825  37.046   4.213
22764W        W84295   9.152  37.967  11.466
22765W        W84296  20.268  31.440  14.299
22766W        W84297   7.332  39.033  14.927
22767W        W84298  39.448   8.289  13.940
22768W        W84299  43.510  12.174   0.782
22769W        W84300  16.620   0.412  11.527
22770W        W84301  18.063  24.183  13.323
22771W        W84302  20.619  21.238   3.709
22772W        W84303  39.416  33.077  13.869
22773W        W84304  15.252  26.207  11.392
22774W        W84305  26.979   8.319   0.894
22775W        W84306  27.174  35.537  10.932
22776W        W84307  34.943  10.301  14.026
22777W        W84308  30.654  17.258  10.068
22778W        W84309  30.042   7.898   3.715
22779W        W84310  27.467   3.950  10.432
22780W        W84311  26.474  25.046   3.763
22781W        W84312  37.834  30.642   3.757
22782W        W84313  21.741  20.260   0.886
22783W        W84314  28.107   4.859   2.833
22784W        W84315  25.119  24.499  10.927
22785W        W84316   7.832  36.547  10.628
22786W        W84317  35.594  43.834  10.892
22787W        W84318  41.529   3.866   5.223
22788W        W84319  22.024  37.890   9.566
22789W        W84320  33.623  18.110  13.010
22790W        W84321  10.293  10.706   3.270
22791W        W84322  33.589  20.235  12.369
22792W        W84323  28.535   0.771  10.921
22793W        W84324  32.970  11.322   1.272
22794W        W84325  22.152  20.532  10.551
22795W        W84326  44.830  15.200  12.837
22796W        W84327   3.345  37.847   2.740
22797W        W84328  36.909  17.072   5.181
22798W        W84329  29.650  31.003  13.009
22799W        W84330   6.775  26.018  14.944
22800W        W84331  39.825   6.796  11.083
22801W        W84332   1.378  20.632   4.607
22802W        W84333  38.848  24.129  11.069
22803W        W84334  13.711   2.326   0.328
22804W        W84335  39.830  44.875   0.249
22805W        W84336  40.942  44.305  13.796
22806W        W84337  35.473  41.352  13.903
22807W        W84338  23.131  42.514   0.939
22808W        W84339  29.599   6.716  13.929
22809W        W84340  22.575  39.018  13.795
22810W        W84341  12.789  31.480   2.826
22811W        W84342  27.593  41.027   1.848
22812W        W84343  29.111  11.744  12.428
22813W        W84344  22.638  34.515  12.425
22814W        W84345  16.796  42.883   2.419
22815W        W84346  27.977   2.825   0.820
22816W        W84347  16.719  35.426  13.043
22817W        W84348  33.951  19.743   0.258
22818W        W84349  10.220  14.818   2.758
22819W        W84350  37.560  13.230  14.003
22820W        W84351  16.759  41.041   0.424
22821W        W84352   5.230  12.773  10.533
22822W        W84353  39.541   1.300  12.454
22823W        W84354  19.725   3.825  13.868
22824W        W84355  38.945  13.266   5.207
22825W        W84356  33.999   1.815   4.756
22826W        W84357  34.494  38.891   0.735
22827W        W84358  35.443   9.380   0.398
22828W        W84359  14.714   7.708  10.925
22829W        W84360  15.752   8.685   0.436
22830W        W84361  24.003  23.130   2.375
22831W        W84362  40.334  28.528   3.673
22832W        W84363  26.019   8.323   0.904
22833W        W84364  25.085  29.477   1.250
22834W        W84365  42.880  14.600   2.674
22835W        W84366  13.298  40.360   3.186
22836W        W84367  24.167  33.009  11.383
22837W        W84368  18.668  19.056   2.369
22838W        W84369  26.047  11.260   1.736
22839W        W84370  10.713  11.714   0.943
22840W        W84371  11.850   7.811  10.623
22841W        W84372   3.820  26.136  13.507
22842W        W84373  28.582   7.371  11.429
22843W        W84374  20.528  30.915   1.744
22844W        W84375   0.362  27.178   1.439
22845W        W84376  33.547  13.789  12.882
22846W        W84377  44.363   2.415   4.601
22847W        W84378  43.476  23.182   2.394
22848W        W84379  36.469  18.124  12.359
22849W        W84380  16.760  16.264   1.714
22850W        W84381   8.758  39.340  13.062
22851W        W84382  23.220  42.511   1.426
22852W        W84383  27.614  13.775  12.487
22853W        W84384  13.322  25.672   3.814
22854W        W84385  30.105  34.545   3.384
22855W        W84386  39.476   1.934   0.373
22856W        W84387   5.778  33.489   1.854
22857W        W84388  17.629   2.339  10.527
22858W        W84389   8.299   1.770  13.963
22859W        W84390  26.055  37.382   3.729
22860W        W84391   3.938  38.335   2.853
22861W        W84392  23.667  15.312  10.895
22862W        W84393  28.993   0.901  11.607
22863W        W84394  10.210  34.494   0.738
22864W        W84395   5.689  38.554   3.848
22865W        W84396   7.813   7.675   1.272
22866W        W84397  31.996  36.854   0.331
22867W        W84398   7.797  42.339   2.226
22868W        W84399   0.905  36.947  12.418
22869W        W84400  35.512  31.993   1.378
22870W        W84401  31.485  32.442   3.742
22871W        W84402  18.642   4.326  12.859
22872W        W84403  31.567  33.092  12.446
22873W        W84404  35.063   3.269  12.408
22874W        W84405  40.831  35.451  14.364
22875W        W84406  16.688  20.654   0.765
22876W        W84407   5.689  16.163  13.512
22877W        W84408  35.475  26.664   4.184
22878W        W84409   7.320   8.327  12.468
22879W        W84410  24.995  32.445  14.451
22880W        W84411   2.954  10.860  11.394
22881W        W84412  44.335  41.932   4.129
22882W        W84413  41.852   6.778  13.891
22883W        W84414  22.128  13.803  13.460
22884W        W84415   0.340  36.502  14.934
22885W        W84416  14.248  31.479  14.905
22886W        W84417  24.637  40.979  13.874
22887W        W84418  30.579  27.532  11.103
22888W        W84419  35.483  24.579   1.356
22889W        W84420  36.457  26.685  14.468
22890W        W84421   6.781  42.875   0.898
22891W        W84422  38.398  44.348   0.267
22892W        W84423  10.327  30.048  14.888
22893W        W84424   2.408  42.347  12.486
22894W        W84425  22.088  15.294   4.769
22895W        W84426   4.217  44.812  13.407
22896W        W84427  15.292  18.553   1.753
22897W        W84428  36.529  13.133   1.867
22898W        W84429   1.453  37.344  14.913
22899W        W84430  14.657  23.500   0.282
22900W        W84431  25.147  22.114   2.239
22901W        W84432   2.231   0.381  11.431
22902W        W84433  39.320   0.939   3.322
22903W        W84434  13.264  30.128   5.614
22904W        W84435  44.326  22.731  12.089
22905W        W84436  15.779  17.066   3.357
22906W        W84437  17.177  24.498  14.414
22907W        W84438  11.785  14.238   1.853
22908W        W84439  39.332  37.025  14.465
22909W        W84440  10.216   0.410   3.184
22910W        W84441  26.150  29.164  10.437
22911W        W84442  26.153   4.898   4.245
22912W        W84443  28.151  37.945  12.396
22913W        W84444  26.201   9.226   3.836
22914W        W84445  26.566  13.152  10.969
22915W        W84446  15.251  14.109  14.425
22916W        W84447  23.037  11.177   4.142
22917W        W84448   1.819  35.396  10.417
22918W        W84449  35.039   2.803   3.248
22919W        W84450  25.498   8.710  11.070
22920W        W84451  18.133  33.106   2.271
22921W        W84452  32.437  22.065   0.938
22922W        W84453  14.815  36.487   0.296
22923W        W84454   7.246  30.436  10.936
22924W        W84455  26.107  22.106  14.437
22925W        W84456  36.348  40.053   1.745
22926W        W84457  31.550  22.648   0.439
22927W        W84458  23.653  16.148   3.379
22928W        W84459  42.424   2.240   3.728
22929W        W84460  18.782  23.112   3.158
22930W        W84461  13.151  31.535  11.938
22931W        W84462  13.736  29.001   3.269
22932W        W84463  20.652  34.559   0.759
22933W        W84464   1.275   8.782  12.959
22934W        W84465  38.916  25.150   2.244
22935W        W84466  18.604  35.413   1.802
22936W        W84467  40.459   0.798  11.865
22937W        W84468   6.308  41.823  12.433
22938W        W84469  20.623  27.946  11.442
22939W        W84470  34.448  23.641  12.450
22940W        W84471  36.965  34.088  12.526
22941W        W84472   1.788  36.964   0.464
22942W        W84473  44.892  29.050   4.257
22943W        W84474   9.871  23.987   1.713
22944W        W84475  26.643   8.833  10.992
22945W        W84476  34.029   9.362   4.240
22946W        W84477  33.449  27.944   3.667
22947W        W84478   7.300  14.796   1.434
22948W        W84479  26.088  33.897  11.584
22949W        W84480  22.675  44.400  12.550
22950W        W84481   7.299  25.151  14.473
22951W        W84482  22.501   0.482   3.658
22952W        W84483  22.588  42.892  13.892
22953W        W84484   1.866  28.508   1.878
22954W        W84485  26.624  33.874  12.940
22955W        W84486  41.812   8.371  14.308
22956W        W84487   6.896  20.739  14.378
22957W        W84488  43.929  29.946   0.393
22958W        W84489   5.248  19.114   1.413
22959W        W84490   6.897  36.380   2.253
22960W        W84491  14.610  13.256  10.921
22961W        W84492  15.598  23.167   5.093
22962W        W84493  37.854   3.400  10.547
22963W        W84494  28.679   4.432  12.060
22964W        W84495  41.340   7.279  13.400
22965W        W84496  16.607  21.169   0.392
22966W        W84497   7.203  38.373   0.440
22967W        W84498  22.544  36.566  14.465
22968W        W84499  34.580  17.159   2.832
22969W        W84500  16.307  44.788   0.337
22970W        W84501   4.343   1.340  14.935
22971W        W84502  18.195  32.055  11.438
22972W        W84503  14.805  33.542   3.654
22973W        W84504  34.594  10.314  11.400
22974W        W84505  31.035  11.342  13.409
22975W        W84506   8.334   3.359   1.448
22976W        W84507  23.614  34.908   3.719
22977W        W84508  37.412  26.160  13.547
22978W        W84509  42.785  12.762  13.967
22979W        W84510  14.769   4.880  12.445
22980W        W84511  21.192  40.461   0.899
22981W        W84512  25.685  27.499   5.185
22982W        W84513  28.643   2.885   3.364
22983W        W84514  38.967   6.292  10.149
22984W        W84515   0.936  10.681  12.526
22985W        W84516  41.852  24.975  10.028
22986W        W84517  42.870  28.027   1.802
22987W        W84518  40.322  26.080   1.852
22988W        W84519  14.824  12.254  10.545
22989W        W84520  35.108  19.233  12.370
22990W        W84521  44.274  27.175   3.316
22991W        W84522  41.940  16.768   3.339
22992W        W84523  28.940  30.925   3.306
22993W        W84524  39.995  20.752  14.930
22994W        W84525  33.029  20.220   0.858
22995W        W84526  40.343  18.274  14.929
22996W        W84527  22.026   6.300  10.563
22997W        W84528  18.217   1.311   0.411
22998W        W84529  10.282  22.021  10.057
22999W        W84530  41.017  30.942   4.274
23000W        W84531  39.415  32.583   3.656
23001W        W84532   3.391  35.495  13.845
23002W        W84533  11.741  44.923   4.816
23003W        W84534  15.209  21.615   0.318
23004W        W84535  37.444   1.458   2.789
23005W        W84536  25.579  30.562  13.394
23006W        W84537   1.958  12.285  10.936
23007W        W84538  40.340  43.349   0.868
23008W        W84539  15.153  30.519  14.403
23009W        W84540  37.338   3.742  10.442
23010W        W84541   3.397  13.720  11.030
23011W        W84542   5.241  14.329   0.243
23012W        W84543   1.855  37.015   3.147
23013W        W84544  23.115  17.157   4.760
23014W        W84545  28.015   3.778   2.324
23015W        W84546   4.930  11.625  11.077
23016W        W84547  28.669   3.944  12.511
23017W        W84548  33.013  19.211  13.981
23018W        W84549  19.582  40.907   4.604
23019W        W84550  29.042  41.295  13.350
23020W        W84551   7.317  33.438   2.271
23021W        W84552  14.605  10.758  11.029
23022W        W84553  13.278  13.763   3.839
23023W        W84554   4.318  15.250  13.980
23024W        W84555   9.661  41.348   1.423
23025W        W84556  14.654  25.025   1.214
23026W        W84557  10.164   5.369   4.799
23027W        W84558  18.169  34.492  14.489
23028W        W84559   5.205  11.306  13.850
23029W        W84560  24.075   3.918  13.401
23030W        W84561  35.524  35.904   2.855
23031W        W84562  15.759  29.096   2.230
23032W        W84563   6.885  25.178  12.430
23033W        W84564   3.288  40.327  10.591
23034W        W84565  35.040   2.416  14.391
23035W        W84566  19.195  23.538   0.786
23036W        W84567   8.333  37.421  12.487
23037W        W84568   8.845  15.154   3.356
23038W        W84569  26.061   5.227   0.286
23039W        W84570  29.989  15.273  12.363
23040W        W84571  43.465  23.499  10.554
23041W        W84572  29.982  41.468   0.813
23042W        W84573  43.994  26.199   0.783
23043W        W84574  43.511  13.699   1.324
23044W        W84575  17.119  27.994  13.336
23045W        W84576  24.988  39.325   0.476
23046W        W84577   5.363  40.022  14.503
23047W        W84578  13.166  21.020  11.546
23048W        W84579  26.979  35.108  13.355
23049W        W84580   1.813  29.090   0.310
23050W        W84581  34.513  17.236  13.454
23051W        W84582  41.918  35.466   1.445
23052W        W84583  20.096   6.879   1.706
23053W        W84584   6.404  13.641   9.947
23054W        W84585  39.908  13.817  10.439
23055W        W84586  29.591  12.804   4.799
23056W        W84587  28.009  35.905  10.532
23057W        W84588  20.077  19.230   0.952
23058W        W84589  41.860  36.998  14.481
23059W        W84590  14.117  26.630  11.926
23060W        W84591   2.879  44.279   0.282
23061W        W84592  43.513  34.003   4.667
23062W        W84593  35.080   6.189   0.258
23063W        W84594  35.994  35.409   4.803
23064W        W84595   2.271   0.351  13.419
23065W        W84596  34.378  39.529  10.448
23066W        W84597  20.232   1.360   3.334
23067W        W84598  10.778  32.632  14.406
23068W        W84599  24.066  41.991   3.377
23069W        W84600  22.075  25.522  10.973
23070W        W84601   0.405  21.520   2.396
23071W        W84602  38.887  40.415  10.138
23072W        W84603  24.126  37.862   4.169
23073W        W84604  33.594   8.729   5.216
23074W        W84605  30.098   7.847  14.487
23075W        W84606  42.881   8.661   4.741
23076W        W84607  16.311   1.470  13.837
23077W        W84608   1.459  30.129   0.390
23078W        W84609  14.802   5.296   3.813
23079W        W84610   9.859   1.913  10.439
23080W        W84611  22.210   7.787  12.469
23081W        W84612  13.795   1.430   2.227
23082W        W84613  42.957  21.556   2.681
23083W        W84614   3.346   0.321  10.642
23084W        W84615  25.577  33.033   1.355
23085W        W84616  18.717  38.448  12.568
23086W        W84617  23.232  44.922   1.844
23087W        W84618   5.929  35.935  11.089
23088W        W84619   6.301  38.038  14.824
23089W        W84620  42.362  16.745   1.301
23090W        W84621  40.538  18.726   1.298
23091W        W84622  15.595  37.342   2.190
23092W        W84623  42.856  26.678  12.947
23093W        W84624  37.547  44.926   0.346
23094W        W84625   7.173  33.934  10.597
23095W        W84626  38.399  21.243   4.755
23096W        W84627  16.146  19.217  13.953
23097W        W84628  19.761   0.786  13.995
23098W        W84629   8.225  33.388  10.976
23099W        W84630  41.433  26.155   3.192
23100W        W84631   1.760  21.645   0.319
23101W        W84632  35.040  17.642  10.925
23102W        W84633  17.286  18.623   1.307
23103W        W84634  35.080  39.452   2.189
23104W        W84635   4.334  33.424  13.359
23105W        W84636   6.892  35.439   0.909
23106W        W84637  11.296  23.585   0.906
23107W        W84638  18.117  26.612   4.718
23108W        W84639   6.809   1.454   2.737
23109W        W84640  23.085   5.312   0.960
23110W        W84641  28.086   6.713   0.791
23111W        W84642  36.400  27.583   3.801
23112W        W84643  11.642   5.248   4.127
23113W        W84644  23.149  19.630   2.220
23114W        W84645  16.755  17.741   3.653
23115W        W84646  27.037  30.606   0.792
23116W        W84647  20.158  30.473   0.925
23117W        W84648  33.429   0.477   0.344
23118W        W84649  17.179  39.374  14.419
23119W        W84650  10.673  33.036  12.554
23120W        W84651  34.109   0.972  13.537
23121W        W84652   1.838  29.007  11.015
23122W        W84653  11.779  39.849  13.829
23123W        W84654  38.505  40.960  12.868
23124W        W84655  18.197   0.378  10.495
23125W        W84656  14.635  21.678  14.512
23126W        W84657  16.080  15.665   1.393
23127W        W84658  12.185   4.881   3.369
23128W        W84659  27.617   4.450  12.944
23129W        W84660  36.023  37.033   1.870
23130W        W84661   8.377  25.145  11.438
23131W        W84662  43.395   3.923  11.093
23132W        W84663   6.696  28.166  11.523
23133W        W84664  43.976   7.693  14.324
23134W        W84665  28.555   2.863  14.969
23135W        W84666   1.427  24.226   2.310
23136W        W84667   6.748  39.466   1.324
23137W        W84668   3.253  22.047  12.373
23138W        W84669  19.069  10.252  12.342
23139W        W84670  26.508  36.088  14.432
23140W        W84671  31.954  32.502  14.411
23141W        W84672  23.156  15.142  14.390
23142W        W84673   5.372  24.576   2.877
23143W        W84674   1.245  32.632   4.144
23144W        W84675  29.974  36.926  11.382
23145W        W84676   1.779  41.923   2.274
23146W        W84677  35.439  12.319   3.767
23147W        W84678  22.029   4.418  11.382
23148W        W84679  43.775  35.037   0.253
23149W        W84680  36.548  43.500  10.438
23150W        W84681  41.814  21.640  11.004
23151W        W84682   2.854  13.782   4.154
23152W        W84683  18.688  42.862   1.368
23153W        W84684  18.166  12.144   1.422
23154W        W84685  27.967  31.001  11.402
23155W        W84686  34.032  44.946   1.873
23156W        W84687  20.146  22.745   2.737
23157W        W84688  11.784  13.832   0.384
23158W        W84689  40.963  24.640   4.251
23159W        W84690   0.926   5.730   2.207
23160W        W84691  14.805  43.411  11.951
23161W        W84692  23.145  31.981  10.509
23162W        W84693   6.901  39.517   3.822
23163W        W84694  35.490  17.623  11.077
23164W        W84695  15.622   0.489   0.476
23165W        W84696  21.613   7.673  12.008
23166W        W84697  18.702  31.016  10.642
23167W        W84698  13.246  42.476  13.893
23168W        W84699  27.105   0.925   9.943
23169W        W84700  13.178  28.618  10.096
23170W        W84701  43.807  14.594   2.725
23171W        W84702  16.138  39.815   4.276
23172W        W84703  16.261  16.227  10.964
23173W        W84704   8.882  39.061  13.361
23174W        W84705  19.765  20.049  14.328
23175W        W84706  27.127  40.030   0.453
23176W        W84707  11.664  35.093  11.421
23177W        W84708  27.536  36.012  10.512
23178W        W84709  39.363  42.349  12.945
23179W        W84710   8.679  44.288  12.928
23180W        W84711  20.181  12.271  13.927
23181W        W84712  41.514  14.792  12.096
23182W        W84713  31.986  26.040   2.674
23183W        W84714  24.161  27.111   4.223
23184W        W84715  40.010   0.832  13.933
23185W        W84716  33.477  24.166  12.439
23186W        W84717  19.250   7.730  14.934
23187W        W84718  14.274   9.878   2.286
23188W        W84719  40.923  23.730  10.565
23189W        W84720  20.662   4.818   4.629
23190W        W84721  14.188   2.367   4.720
23191W        W84722  16.582  44.879  14.988
23192W        W84723  10.313  26.691  11.507
23193W        W84724   4.812   3.455  14.478
23194W        W84725  21.721  37.022   1.794
23195W        W84726  41.477  26.567  14.359
23196W        W84727  24.220  43.282  13.331
23197W        W84728  31.496  30.942   1.430
23198W        W84729  32.617  32.974  13.463
23199W        W84730  42.467  29.962   3.353
23200W        W84731  16.579   6.302  13.986
23201W        W84732  20.225   0.785   0.291
23202W        W84733  41.916   9.797  14.343
23203W        W84734  41.812  15.582   4.599
23204W        W84735  43.308  32.591  13.868
23205W        W84736   7.346   0.986   3.255
23206W        W84737  15.735  18.742   0.261
23207W        W84738  26.198  15.691   4.799
23208W        W84739  41.930  43.766  12.988
23209W        W84740  43.451  40.547  11.389
23210W        W84741  42.795  15.282  11.389
23211W        W84742  43.766  26.111  12.892
23212W        W84743   3.935  40.421  13.367
23213W        W84744  22.125  19.693   0.933
23214W        W84745  34.574   5.198  11.486
23215W        W84746  25.219  42.782   1.257
23216W        W84747  11.244  17.713   1.312
23217W        W84748  30.934  44.411  10.101
23218W        W84749  33.431   7.275   4.134
23219W        W84750  24.576  32.083  14.884
23220W        W84751   0.323  12.213  10.462
23221W        W84752   3.904  36.875  10.413
23222W        W84753   7.215  11.863   1.416
23223W        W84754   2.772  18.062  14.372
23224W        W84755  25.198  34.435  14.972
23225W        W84756  17.713  42.927   4.321
23226W        W84757   8.706  19.153  13.053
23227W        W84758   8.344   1.846  13.309
23228W        W84759  17.128  14.601   1.279
23229W        W84760  23.227  17.658  14.333
23230W        W84761  15.101   9.352  11.003
23231W        W84762  12.619   4.223  10.973
23232W        W84763  11.775  14.794  13.463
23233W        W84764  15.181  23.489   4.136
23234W        W84765  10.706   9.371   1.763
23235W        W84766   8.262  38.509  11.604
23236W        W84767  27.194   3.445   2.877
23237W        W84768  34.028  20.189   3.322
23238W        W84769  27.554  26.024  10.521
23239W        W84770  23.033  37.447   2.744
23240W        W84771  20.208  25.683  10.557
23241W        W84772  16.099  41.954  14.328
23242W        W84773  21.668  31.082   1.707
23243W        W84774   4.413  34.938   1.717
23244W        W84775  16.237   5.794   4.693
23245W        W84776  29.971   5.784   1.242
23246W        W84777  28.634  36.007  10.951
23247W        W84778  44.968  41.361   4.125
23248W        W84779  43.322  41.815   0.279
23249W        W84780  23.568  17.657  13.485
23250W        W84781   0.344  17.740  11.886
23251W        W84782   3.956  11.857   4.708
23252W        W84783  16.623   9.209   4.327
23253W        W84784  25.028  10.251   4.344
23254W        W84785  23.505   9.798  13.985
23255W        W84786   6.345  36.846  14.994
23256W        W84787  29.461  33.111  13.848
23257W        W84788  17.140  19.199   0.811
23258W        W84789  37.943   7.825   1.797
23259W        W84790   9.283  20.631   4.659
23260W        W84791   3.231  24.481   0.302
23261W        W84792  31.057   0.915  10.070
23262W        W84793  21.527   8.168  13.890
23263W        W84794   4.239   2.448  13.541
23264W        W84795  23.662  35.989   1.447
23265W        W84796  37.974   6.844  10.632
23266W        W84797  16.758  19.107   3.274
23267W        W84798  15.098  17.740  14.276
23268W        W84799  18.676  44.390  14.359
23269W        W84800  11.677   2.825   3.169
23270W        W84801   0.445  17.244   1.372
23271W        W84802   9.732  33.075  12.480
23272W        W84803  14.239  21.672  13.420
23273W        W84804  11.369  38.067   2.688
23274W        W84805  39.907   3.908   0.420
23275W        W84806  33.121  18.666  14.497
23276W        W84807  22.732  34.399   0.462
23277W        W84808  26.131  24.222   2.411
23278W        W84809   5.841  40.522  12.963
23279W        W84810  14.803   8.194  12.029
23280W        W84811  38.378  21.639  12.863
23281W        W84812  29.502  44.386  14.446
23282W        W84813  17.706   8.798  13.545
23283W        W84814  17.069  43.881  10.413
23284W        W84815  39.828   4.906   3.789
23285W        W84816  39.812  23.599   3.185
23286W        W84817   8.249  22.995   3.373
23287W        W84818   6.323  18.097  12.850
23288W        W84819  18.635  10.241   4.681
23289W        W84820  17.117  25.513  14.444
23290W        W84821  24.587  27.084   3.245
23291W        W84822   0.795  18.218  10.106
23292W        W84823  14.126  40.439  14.474
23293W        W84824   3.275  33.896   3.256
23294W        W84825   1.839   6.298   2.263
23295W        W84826  39.994  14.102   4.258
23296W        W84827  33.038  14.299  13.448
23297W        W84828  15.206  41.456   3.292
23298W        W84829  26.183  35.020  11.528
23299W        W84830  13.234  31.470   2.187
23300W        W84831  17.263  27.973  10.975
23301W        W84832  27.471   9.267   1.922
23302W        W84833   6.419   2.740   1.405
23303W        W84834  17.068  37.480   0.421
23304W        W84835  18.781  37.376   2.751
23305W        W84836  36.077  17.660  13.477
23306W        W84837  40.487  33.394  12.457
23307W        W84838   7.777   5.849  14.355
23308W        W84839  28.117  28.059  14.925
23309W        W84840  27.545  15.318  11.412
23310W        W84841  26.186  23.002  13.820
23311W        W84842  27.527  18.633  10.440
23312W        W84843  27.555  26.627   0.242
23313W        W84844  36.093  27.089   3.821
23314W        W84845   1.885   0.474  10.470
23315W        W84846  28.975  12.664   2.774
23316W        W84847  17.714  32.043   1.935
23317W        W84848  20.688  18.186  14.759
23318W        W84849   0.964  11.684  11.954
23319W        W84850  39.450   4.921  11.006
23320W        W84851   6.693  29.593   2.219
23321W        W84852  14.096  17.726   0.738
23322W        W84853   1.773  24.191   2.900
23323W        W84854  44.951   8.239  11.910
23324W        W84855  33.915   8.866   0.308
23325W        W84856  19.104  34.442  12.825
23326W        W84857  25.009   6.250   1.228
23327W        W84858  39.426  23.027   0.310
23328W        W84859  29.939  13.305  13.951
23329W        W84860  19.163  43.444  10.531
23330W        W84861  41.816   8.830   4.614
23331W        W84862  28.585  15.695  11.973
23332W        W84863   2.829   0.475  12.047
23333W        W84864   4.811  25.573  12.550
23334W        W84865   5.844  36.000   4.687
23335W        W84866  43.887  17.583  12.064
23336W        W84867  25.123   6.752  13.328
23337W        W84868  21.190  39.328   3.255
23338W        W84869  39.449   7.810  12.964
23339W        W84870  16.743   6.708  12.862
23340W        W84871  30.475  13.603   1.766
23341W        W84872  31.099  36.890   2.731
23342W        W84873   2.378  15.270  12.952
23343W        W84874   3.900   1.739   3.679
23344W        W84875  19.167  29.590   3.801
23345W        W84876   1.946  34.576   0.906
23346W        W84877  31.028  41.529  12.949
23347W        W84878  16.764  33.427   0.790
23348W        W84879  41.946  13.813  11.453
23349W        W84880  34.483  13.816   3.860
23350W        W84881   8.713  18.128   1.300
23351W        W84882  34.455   5.405   0.729
23352W        W84883   1.418  41.417  14.921
23353W        W84884  43.862   7.831   0.825
23354W        W84885  22.157  39.424   2.894
23355W        W84886  38.964  24.672   4.131
23356W        W84887   0.385  39.323   4.791
23357W        W84888   7.349   5.897   0.764
23358W        W84889  13.294   0.762  14.351
23359W        W84890  23.186  28.119  13.446
23360W        W84891   9.311  35.972   1.355
23361W        W84892  41.327   1.399  13.885
23362W        W84893   1.784  27.593   0.302
23363W        W84894  29.083  38.333  13.437
23364W        W84895  40.532  27.480   3.268
23365W        W84896  14.220   0.334   3.748
23366W        W84897  18.082  41.377  10.906
23367W        W84898  36.563  42.777   0.336
23368W        W84899  15.313  31.900  12.345
23369W        W84900  24.492  35.373   2.415
23370W        W84901  40.316  22.653  14.324
23371W        W84902  25.691  27.186  11.497
23372W        W84903  32.967  10.657  14.959
23373W        W84904  26.487  18.242  12.440
23374W        W84905  19.048  37.495  11.907
23375W        W84906   1.884  21.576  13.318
23376W        W84907  34.470  14.110  14.384
23377W        W84908  32.513  16.659   1.933
23378W        W84909  11.154   6.342   4.210
23379W        W84910   5.356   9.829  10.408
23380W        W84911  23.624  41.308   4.246
23381W        W84912  34.883  40.937   2.202
23382W        W84913   4.944   8.736  12.941
23383W        W84914  15.211  23.110   1.328
23384W        W84915   2.837   3.872   0.290
23385W        W84916  28.149   0.849   0.374
23386W        W84917  27.989  19.069  14.776
23387W        W84918  24.118   1.804   1.374
23388W        W84919   1.363   3.272  14.325
23389W        W84920  40.326  32.936   0.419
23390W        W84921  23.680  38.393   2.416
23391W        W84922  12.753   4.223   1.765
23392W        W84923  14.801  31.897  14.853
23393W        W84924  37.023  43.442   0.912
23394W        W84925  11.177  12.288  14.446
23395W        W84926  20.216  19.208   2.801
23396W        W84927  26.993   9.666  10.111
23397W        W84928  13.610  18.695  11.562
23398W        W84929  40.443  14.712  14.997
23399W        W84930  29.114  15.707  11.062
23400W        W84931  27.691   2.342  14.477
23401W        W84932  34.412  34.417   0.278
23402W        W84933  11.352  29.621   4.722
23403W        W84934  39.322  26.679  11.546
23404W        W84935   4.339   6.240  12.438
23405W        W84936  14.810   9.890   3.639
23406W        W84937  16.116  29.069   0.336
23407W        W84938  13.640   2.252  12.908
23408W        W84939  23.185  11.850   1.385
23409W        W84940  36.861  40.944   4.250
23410W        W84941  38.359   1.951   0.271
23411W        W84942  26.551  29.096  10.521
23412W        W84943  29.428  21.126  12.473
23413W        W84944  33.884  27.126   2.720
23414W        W84945   5.691  25.069   0.465
23415W        W84946  16.141   9.191  11.448
23416W        W84947   8.722  40.048  10.564
23417W        W84948   9.304   8.748   9.954
23418W        W84949  23.110  28.970  10.622
23419W        W84950  30.611  37.009   1.289
23420W        W84951  35.414  10.174   3.246
23421W        W84952  15.114  34.900  12.394
23422W        W84953  25.010   0.791   3.661
23423W        W84954   1.300  43.348   1.830
23424W        W84955  23.503  43.294  11.074
23425W        W84956  42.901   2.444   2.830
23426W        W84957  12.279  13.253   0.783
23427W        W84958   3.418  22.676   4.145
23428W        W84959  40.451   9.254  12.019
23429W        W84960   7.236  35.928   4.278
23430W        W84961  39.941  26.583  10.979
23431W        W84962  40.483  42.359  14.449
23432W        W84963  19.554  15.180  12.059
23433W        W84964  20.037  31.419  12.403
23434W        W84965  44.004  12.243   2.246
23435W        W84966   0.468  36.380   3.243
23436W        W84967   9.723  15.625  10.920
23437W        W84968  24.526  32.609   0.909
23438W        W84969   7.197  23.646   0.281
23439W        W84970   5.915  42.886   2.833
23440W        W84971  33.421  18.228  14.809
23441W        W84972  21.691   0.977   2.197
23442W        W84973  31.530  25.127   0.854
23443W        W84974  44.768  44.433   0.382
23444W        W84975  36.378  28.952  14.372
23445W        W84976   8.342  30.152  13.390
23446W        W84977  39.832  31.913  11.592
23447W        W84978  38.891  31.981  14.426
23448W        W84979  30.637  21.172   2.754
23449W        W84980   1.879  37.393  11.484
23450W        W84981  40.966   3.783   1.317
23451W        W84982  13.108  36.085  12.438
23452W        W84983  20.063  24.724  10.950
23453W        W84984  36.559   8.778   4.724
23454W        W84985  30.955  25.487  10.485
23455W        W84986  35.969  12.156  10.913
23456W        W84987  33.943  31.568   3.229
23457W        W84988  28.521  43.302   3.321
23458W        W84989  26.568  29.956  12.011
23459W        W84990  12.681   4.208   4.767
23460W        W84991  23.662  33.479   4.228
23461W        W84992  10.157  41.961   4.603
23462W        W84993  27.148  29.922   3.360
23463W        W84994  12.315   4.864  13.517
23464W        W84995  16.228  34.560  12.863
23465W        W84996  10.835  25.041   4.215
23466W        W84997  38.829   0.893   0.355
23467W        W84998  22.704  32.505  13.515
23468W        W84999   1.776  38.046  14.455
23469W        W85000   1.930  17.203   4.217
23470W        W85001  17.231  38.351   2.377
23471W        W85002  24.224  27.156   0.840
23472W        W85003  30.547  39.975  14.830
23473W        W85004  21.578  25.128   0.427
23474W        W85005  34.500  33.541   4.232
23475W        W85006  21.098  42.995   2.288
23476W        W85007  15.258   6.749   4.736
23477W        W85008  11.721  18.692  12.478
23478W        W85009  43.446   2.751   1.363
23479W        W85010  32.577  27.058   4.143
23480W        W85011   4.215  33.124  10.422
23481W        W85012  42.032  40.441   2.703
23482W        W85013  33.559  20.767   0.368
23483W        W85014  13.140  19.281   4.613
23484W        W85015   0.311  34.475   2.229
23485W        W85016  32.586  26.603  11.930
23486W        W85017  39.413  24.506   4.837
23487W        W85018  40.465  31.544   3.245
23488W        W85019  35.461   9.692  14.416
23489W        W85020  25.157   9.158   1.394
23490W        W85021  37.951   2.829  11.959
23491W        W85022  36.453  32.478  12.067
23492W        W85023   4.220   8.823   4.800
23493W        W85024  34.530  24.532  12.497
23494W        W85025   0.312  11.165   3.201
23495W        W85026  43.974  21.188   4.633
23496W        W85027  31.001  40.304  14.453
23497W        W85028  34.554  38.357   2.274
23498W        W85029  10.736  12.685   3.199
23499W        W85030   4.823  40.004  11.861
23500W        W85031   7.790  25.017   1.305
23501W        W85032  14.711  10.258  14.405
23502W        W85033   5.796  36.556   3.279
23503W        W85034   2.234  29.004   0.273
23504W        W85035  31.575  17.797   0.950
23505W        W85036  34.504  27.961   3.301
23506W        W85037  27.175  20.251  14.924
23507W        W85038  43.432   1.805   4.252
23508W        W85039  41.301   1.892  12.962
23509W        W85040  20.604  20.044  12.952
23510W        W85041   7.397  18.662   3.274
23511W        W85042   8.732  22.199   2.258
23512W        W85043  44.822  34.004   1.404
23513W        W85044  12.674   6.688   0.410
23514W        W85045  33.556  16.118   1.884
23515W        W85046  34.452  43.963   1.373
23516W        W85047  40.823  10.775   0.852
23517W        W85048  40.399  10.842  11.385
23518W        W85049   6.237  12.621   2.371
23519W        W85050  16.218  30.941   5.096
23520W        W85051  33.019  27.539   2.792
23521W        W85052  24.065   5.855  13.347
23522W        W85053  12.224  39.406   0.804
23523W        W85054   1.299   8.397  10.439
23524W        W85055   6.422  18.785  11.498
23525W        W85056  38.343   6.246  14.908
23526W        W85057  18.245   7.837   2.418
23527W        W85058  29.563  38.887   3.300
23528W        W85059  28.089  29.991  12.494
23529W        W85060  16.752  26.144   3.803
23530W        W85061  22.065  42.981  14.911
23531W        W85062  21.221   3.716  14.446
23532W        W85063  29.019   9.249  13.487
23533W        W85064  38.367   0.319   0.948
23534W        W85065  25.974  29.096  12.489
23535W        W85066  18.675  41.811   9.981
23536W        W85067   3.285   0.783  10.519
23537W        W85068  28.541  28.562  13.926
23538W        W85069   6.415  35.522  14.783
23539W        W85070   0.777  35.364   3.321
23540W        W85071  18.116  40.997   1.299
23541W        W85072  16.624  43.340   1.409
23542W        W85073  21.239  25.512  12.560
23543W        W85074  24.597  40.495  12.535
23544W        W85075  35.577  34.086   3.780
23545W        W85076  17.761  35.039   3.374
23546W        W85077   5.405   3.395  11.577
23547W        W85078  16.765  17.073   2.891
23548W        W85079  43.959  39.038  12.440
23549W        W85080   1.248  14.297  10.607
23550W        W85081  28.540  30.093   4.291
23551W        W85082  24.671  26.074  11.540
23552W        W85083  23.070  28.645   3.801
23553W        W85084  14.831  24.151  11.082
23554W        W85085  39.993  13.633   2.758
23555W        W85086  15.586  29.440   4.206
23556W        W85087  38.490  30.593  12.966
23557W        W85088  32.080  20.648  13.503
23558W        W85089   3.840  29.036   5.252
23559W        W85090   2.420  29.553  11.052
23560W        W85091  16.740  18.138   2.680
23561W        W85092  21.614   5.899  14.290
23562W        W85093   1.910   8.779  13.327
23563W        W85094  18.055   9.708  14.829
23564W        W85095  13.272  23.021   2.246
23565W        W85096  26.604  40.831   4.329
23566W        W85097  33.537  24.653   3.733
23567W        W85098  35.469  30.937  10.426
23568W        W85099  36.581  14.144  10.451
23569W        W85100  18.075  38.366   3.382
23570W        W85101   6.397   0.293  11.501
23571W        W85102  12.776  39.527   2.865
23572W        W85103  10.741  28.985  13.318
23573W        W85104  37.982  12.187   2.185
23574W        W85105  28.562  43.325  11.053
23575W        W85106  30.559  18.546  14.442
23576W        W85107  16.722  41.367  14.763
23577W        W85108  22.566   4.421   3.809
23578W        W85109  11.859  36.999   3.191
23579W        W85110  14.203  32.543   0.756
23580W        W85111  15.603  27.188  10.007
23581W        W85112   6.255   6.891  14.009
23582W        W85113  13.645  27.583   0.265
23583W        W85114  11.350  27.184   2.234
23584W        W85115  40.978  15.252   3.323
23585W        W85116  21.608  10.782  11.111
23586W        W85117  26.551  41.857   0.809
23587W        W85118  41.474  30.544  12.504
23588W        W85119  43.919  36.479   1.415
23589W        W85120  28.075  36.413  14.478
23590W        W85121  35.889  40.476   4.681
23591W        W85122  32.458  44.011   0.950
23592W        W85123  41.508   4.330   2.375
23593W        W85124   2.813  39.329   3.682
23594W        W85125  32.982  37.582   0.757
23595W        W85126  19.128   0.847   4.118
23596W        W85127  16.653  39.530   2.722
23597W        W85128  20.238   8.891   1.826
23598W        W85129   6.851  22.590  14.479
23599W        W85130  38.948   7.272  13.941
23600W        W85131  27.011  22.238  14.929
23601W        W85132   4.883  43.888   1.257
23602W        W85133  23.196  39.840   3.368
23603W        W85134  14.753  34.071  13.848
23604W        W85135   8.223  43.303   2.314
23605W        W85136  21.242  36.545  11.001
23606W        W85137  10.689  25.208   1.349
23607W        W85138  39.996  18.773   2.755
23608W        W85139  28.081   4.933   2.198
23609W        W85140  13.750   9.278  13.445
23610W        W85141  14.595  43.353  10.632
23611W        W85142  44.328   2.782   2.419
23612W        W85143  26.984  19.776   4.777
23613W        W85144  15.180  16.311  12.434
23614W        W85145   9.741  21.124  12.342
23615W        W85146   9.846  16.167   4.345
23616W        W85147  35.456  36.955  13.514
23617W        W85148  19.656  37.450   0.292
23618W        W85149  32.983   6.197  12.988
23619W        W85150  15.212  17.565   4.162
23620W        W85151  13.638  26.628  10.527
23621W        W85152  24.629  35.902  13.894
23622W        W85153  14.626  41.537   0.833
23623W        W85154  27.575  27.468  13.479
23624W        W85155  40.490  22.578  12.061
23625W        W85156  15.598  35.397  11.396
23626W        W85157   4.827  22.508  14.485
23627W        W85158  23.686  33.106  11.080
23628W        W85159  14.690  40.986  13.373
23629W        W85160  40.493  29.501  12.987
23630W        W85161  25.506  36.456   2.229
23631W        W85162   7.855  26.089  13.351
23632W        W85163  25.022   5.285   0.949
23633W        W85164  42.788  16.764   0.938
23634W        W85165   0.882  27.535   0.268
23635W        W85166  11.817  37.832  14.282
23636W        W85167  12.336  40.054  12.481
23637W        W85168  44.761  17.791  12.982
23638W        W85169  17.728  14.816   0.400
23639W        W85170  34.918  15.315   0.260
23640W        W85171  13.306  38.956   3.746
23641W        W85172  41.905  24.134  11.548
23642W        W85173  12.635  40.432  12.545
23643W        W85174  24.616  14.613   0.362
23644W        W85175   6.825  16.638   1.308
23645W        W85176  12.284  21.752   1.408
23646W        W85177  37.900  33.534  11.883
23647W        W85178  39.411  31.406   1.694
23648W        W85179  44.949  39.862  12.001
23649W        W85180  34.954  30.106   1.862
23650W        W85181  25.097  13.619  13.967
23651W        W85182  34.097  20.161  12.522
23652W        W85183   4.227  32.519   4.698
23653W        W85184  38.025  40.834   1.448
23654W        W85185  43.769  42.909   4.341
23655W        W85186  29.634  35.549  10.947
23656W        W85187   3.751  15.768   3.662
23657W        W85188   4.744  18.640   0.877
23658W        W85189  44.939  25.015  11.598
23659W        W85190  33.482  24.041  14.923
23660W        W85191  41.504  21.031   3.862
23661W        W85192  29.532  17.199   4.157
23662W        W85193  20.190   0.934  14.285
23663W        W85194  35.087  21.662   3.214
23664W        W85195  42.885  25.131  11.437
23665W        W85196  36.407  36.845  13.393
23666W        W85197  13.808   7.241  13.859
23667W        W85198  44.963  15.243   2.675
23668W        W85199  41.894  38.939  12.870
23669W        W85200  19.212   1.419   0.407
23670W        W85201  10.736   5.319  12.011
23671W        W85202  42.805  12.701  11.068
23672W        W85203   0.381  18.646   0.854
23673W        W85204  42.500  14.687  13.013
23674W        W85205  36.012  29.589  12.568
23675W        W85206  14.142  17.592  14.414
23676W        W85207  31.137   3.747   1.820
23677W        W85208  41.029  16.599  10.492
23678W        W85209  19.279  15.710  14.932
23679W        W85210  25.538  16.226  10.994
23680W        W85211   7.208  28.107  11.006
23681W        W85212  32.093  14.690   5.615
23682W        W85213   4.832  27.469   0.289
23683W        W85214  39.514   0.252   3.239
23684W        W85215   5.365  27.543   3.366
23685W        W85216  44.360   4.846   0.836
23686W        W85217   7.178  24.547  13.954
23687W        W85218  41.018  43.912   0.769
23688W        W85219  16.723   0.304   2.697
23689W        W85220  30.132  25.098   2.393
23690W        W85221  32.988  13.808  12.383
23691W        W85222  39.538  32.031  12.530
23692W        W85223  11.656  25.033   2.340
23693W        W85224  37.044  39.967   4.134
23694W        W85225  16.810  23.540   1.400
23695W        W85226   4.367  13.156  12.539
23696W        W85227  30.091  31.493   3.831
23697W        W85228  15.120  24.056  10.631
23698W        W85229  12.631  26.465   0.408
23699W        W85230   5.250  17.698   2.873
23700W        W85231  39.337  12.849  11.070
23701W        W85232   7.793   3.344  12.352
23702W        W85233  18.204  23.166   0.730
23703W        W85234  30.423  21.691   3.383
23704W        W85235  30.630  12.660   3.235
23705W        W85236  27.117   8.762   3.818
23706W        W85237  20.695  23.018  14.335
23707W        W85238  16.795   8.873  13.988
23708W        W85239  18.553  17.663  12.480
23709W        W85240   6.682  16.225   0.476
23710W        W85241  17.737  29.062   3.666
23711W        W85242  30.498  43.344  14.903
23712W        W85243  18.068  32.132  10.640
23713W        W85244  29.940  22.100  13.026
23714W        W85245  39.891  38.865   1.733
23715W        W85246   6.344  43.805   1.712
23716W        W85247  27.631   4.440   2.213
23717W        W85248  24.503  26.588  13.058
23718W        W85249  41.435  15.174  14.344
23719W        W85250  42.974  40.543  10.913
23720W        W85251  28.657  22.665  12.975
23721W        W85252  34.520  20.126   3.634
23722W        W85253  21.694  22.205   0.739
23723W        W85254  11.334  26.581   3.832
23724W        W85255  27.620   2.898  12.420
23725W        W85256  19.683  12.763  10.432
23726W        W85257  18.671   0.947  14.899
23727W        W85258  36.567   9.304   4.224
23728W        W85259   4.298   1.389  11.597
23729W        W85260  27.530   4.900  11.382
23730W        W85261  18.646  33.125   0.796
23731W        W85262   1.748  17.094  12.374
23732W        W85263  43.877  33.446   0.789
23733W        W85264   0.494  14.317  14.913
23734W        W85265  20.193  15.679   1.313
23735W        W85266   6.743  25.965   0.807
23736W        W85267   7.895  37.954   4.192
23737W        W85268  43.925   4.213  10.406
23738W        W85269  34.117   8.689  13.326
23739W        W85270  29.100   5.870  12.884
23740W        W85271  15.164  33.070   0.842
23741W        W85272  32.492  43.500  11.015
23742W        W85273  36.429  28.952   4.777
23743W        W85274  25.182   9.256  11.446
23744W        W85275  32.391  38.939  14.365
23745W        W85276   5.729  15.097   1.770
23746W        W85277   3.362  39.450   2.383
23747W        W85278  26.178  12.155  11.005
23748W        W85279   0.852  24.696   9.957
23749W        W85280  20.225  38.049   4.218
23750W        W85281  33.975  40.534   2.778
23751W        W85282  35.939  27.492   4.750
23752W        W85283  40.030  28.991   3.711
23753W        W85284  13.755  18.058  14.435
23754W        W85285  25.078  26.698   4.348
23755W        W85286  34.090   3.859  11.407
23756W        W85287  23.040  16.137   1.900
23757W        W85288  19.094  14.765   4.661
23758W        W85289  37.936  35.439  13.003
23759W        W85290  38.555   9.872  13.038
23760W        W85291  10.260  15.239  12.023
23761W        W85292  19.565  27.685   0.875
23762W        W85293  43.799  33.884   2.286
23763W        W85294   6.913  11.703  10.922
23764W        W85295  14.612  34.950   2.344
23765W        W85296   2.383   6.409  14.472
23766W        W85297  16.161  28.977  11.586
23767W        W85298   0.941   1.863   9.945
23768W        W85299  18.620  15.599   5.151
23769W        W85300  34.997   1.342  10.443
23770W        W85301  14.655   7.819   3.202
23771W        W85302  27.069  17.301   2.244
23772W        W85303   1.764  35.066   0.825
23773W        W85304  33.560   9.360   0.382
23774W        W85305   1.422  33.505  12.893
23775W        W85306   8.352  29.458   1.716
23776W        W85307  24.016  26.141   3.711
23777W        W85308   7.331   6.713  11.425
23778W        W85309   0.755   6.916  13.916
23779W        W85310  33.920  21.040   2.750
23780W        W85311  38.995  26.576  10.531
23781W        W85312  22.662  19.204  12.351
23782W        W85313  44.451   3.297   4.597
23783W        W85314  39.505  24.570  12.535
23784W        W85315   9.367  41.373  11.985
23785W        W85316  16.757  12.328   1.407
23786W        W85317  16.173  13.652   0.935
23787W        W85318   5.378  39.918  13.903
23788W        W85319  17.172  16.195   2.743
23789W        W85320  43.452   8.731   0.386
23790W        W85321  17.189  15.626   9.991
23791W        W85322  24.145  42.881   3.233
23792W        W85323  42.413  23.529  14.487
23793W        W85324  41.385   5.425  12.962
23794W        W85325  42.912  28.043   3.681
23795W        W85326   3.865   4.359  13.401
23796W        W85327  18.549  23.164   0.277
23797W        W85328  12.632   4.800  14.791
23798W        W85329  26.475  22.696   1.900
23799W        W85330  29.004  34.937   4.232
23800W        W85331   4.246  21.136  11.415
23801W        W85332  37.419  17.076  12.449
23802W        W85333  21.642  28.992  11.972
23803W        W85334  27.590   6.381   2.342
23804W        W85335  39.048   8.244   3.867
23805W        W85336   9.181  14.296   2.231
23806W        W85337  40.344  32.070  10.080
23807W        W85338  33.882  41.485   0.760
23808W        W85339  19.220  38.983   1.294
23809W        W85340  16.638  28.600  13.857
23810W        W85341  21.704  33.507   0.793
23811W        W85342   2.414   1.342  11.420
23812W        W85343  19.730   6.313  11.004
23813W        W85344  21.702  41.531   0.769
23814W        W85345  16.727  35.986   4.303
23815W        W85346  35.871   0.418  14.009
23816W        W85347  19.254   1.867  14.821
23817W        W85348  28.150   2.356   4.675
23818W        W85349   8.739  42.298  12.507
23819W        W85350  41.875  35.951  10.125
23820W        W85351   9.736  44.755  14.385
23821W        W85352  21.584  25.099  13.984
23822W        W85353   1.767  44.010   0.784
23823W        W85354  42.489  18.685  11.988
23824W        W85355  36.372  19.591   0.827
23825W        W85356  39.531  43.871  11.065
23826W        W85357  33.463   8.281   4.135
23827W        W85358   9.809  38.421   4.135
23828W        W85359  21.513  44.493   0.926
23829W        W85360  26.067  41.920   1.797
23830W        W85361  24.687  31.617   1.228
23831W        W85362  36.460   1.422   2.883
23832W        W85363  26.690  23.148  14.900
23833W        W85364  43.783  36.476  12.028
23834W        W85365   9.685  19.651  12.402
23835W        W85366  37.967  29.154  10.598
23836W        W85367  20.750   1.910  10.887
23837W        W85368  11.707   5.819   4.614
23838W        W85369  23.045  40.039   0.735
23839W        W85370  39.318  28.111  13.448
23840W        W85371   5.350  35.919  13.022
23841W        W85372  38.486  21.754   0.391
23842W        W85373  33.626   1.927  14.943
23843W        W85374  30.615   6.301   3.719
23844W        W85375  35.095  34.047  13.943
23845W        W85376  12.836  15.791  12.533
23846W        W85377  19.091  13.674  13.438
23847W        W85378  22.627   7.407  10.565
23848W        W85379  13.205  40.549  11.603
23849W        W85380  12.623  31.609  11.530
23850W        W85381  11.730  39.893   3.278
23851W        W85382  24.112  40.982  11.921
23852W        W85383  23.984  17.665   0.798
23853W        W85384  10.379  38.359  12.568
23854W        W85385  37.963  32.526   0.305
23855W        W85386  30.466  37.026   2.713
23856W        W85387   4.379   8.853   0.855
23857W        W85388  11.211  27.189   3.196
23858W        W85389   8.810  16.244  12.414
23859W        W85390   1.938  29.455   2.833
23860W        W85391   8.368  44.765   2.664
23861W        W85392   9.159   3.835   1.747
23862W        W85393   7.195  29.031  10.954
23863W        W85394  17.151  25.218   3.857
23864W        W85395  10.637   5.356  10.639
23865W        W85396  29.127  19.651  10.592
23866W        W85397  33.556  40.822   3.323
23867W        W85398   9.693  20.694  11.464
23868W        W85399  36.073  18.080   0.249
23869W        W85400  35.047  31.418  13.947
23870W        W85401  43.403  10.223   1.935
23871W        W85402  28.057  36.078   5.104
23872W        W85403  41.906  27.098  11.453
23873W        W85404  19.230  39.061  11.501
23874W        W85405  13.675  27.135  11.094
23875W        W85406  30.562  34.883  10.579
23876W        W85407  27.502   8.718   2.744
23877W        W85408   4.734  30.429   2.367
23878W        W85409  30.624  44.939  14.338
23879W        W85410  11.246   6.789  11.586
23880W        W85411  37.580  13.331   0.381
23881W        W85412  14.332  31.539   2.752
23882W        W85413  24.671  17.270  13.889
23883W        W85414   5.888  44.399  13.878
23884W        W85415   4.731  32.589  11.480
23885W        W85416  23.554   0.306  11.023
23886W        W85417  24.106  22.660  11.048
23887W        W85418  14.610  36.399  12.051
23888W        W85419  35.592  27.597  13.791
23889W        W85420  11.829  28.993   4.175
23890W        W85421  39.464  22.721   9.938
23891W        W85422  31.956  18.707  13.444
23892W        W85423  28.545  27.101  14.896
23893W        W85424  44.944   2.940   1.336
23894W        W85425  26.018  23.186   2.696
23895W        W85426  18.117  27.036   3.641
23896W        W85427  44.382  39.032  10.555
23897W        W85428   6.356   3.438  12.084
23898W        W85429  29.588  21.590   3.838
23899W        W85430  36.077  11.766  13.826
23900W        W85431  43.912  29.129  12.843
23901W        W85432  24.225  42.902  11.054
23902W        W85433  43.380   4.750   0.446
23903W        W85434  44.912  16.610   2.679
23904W        W85435  24.073  25.110  13.410
23905W        W85436  33.097  36.430  12.390
23906W        W85437  19.686   2.364  11.533
23907W        W85438   5.735  35.600   2.718
23908W        W85439  29.624  23.692  12.480
23909W        W85440  37.875  29.498   2.840
23910W        W85441  18.789   2.932   3.337
23911W        W85442  39.890   9.331  10.550
23912W        W85443  28.509  10.744   3.363
23913W        W85444  14.824  30.068   0.730
23914W        W85445  29.175  33.559   0.431
23915W        W85446   9.286  39.363   0.464
23916W        W85447  33.598  37.581   4.207
23917W        W85448  31.542  33.577  12.450
23918W        W85449  34.463   9.263  13.469
23919W        W85450  28.521  21.650  13.938
23920W        W85451   6.366  20.137  12.525
23921W        W85452  15.286  13.213  14.794
23922W        W85453  35.457  11.669  14.991
23923W        W85454  43.396  28.138  10.920
23924W        W85455  12.690   6.711  13.965
23925W        W85456  26.127  42.802  11.547
23926W        W85457   4.246  40.922  11.605
23927W        W85458  37.857  38.074   1.302
23928W        W85459  32.503  11.172  12.352
23929W        W85460  21.024  11.863  10.998
23930W        W85461  43.983  32.581  12.080
23931W        W85462  13.182   0.283   9.979
23932W        W85463  13.123  26.642  11.380
23933W        W85464  14.778  27.002  14.277
23934W        W85465  37.067  38.968   0.248
23935W        W85466   0.912  38.902   3.750
23936W        W85467   8.874  37.038  13.936
23937W        W85468  23.558  13.813  14.829
23938W        W85469  34.926  12.324   0.469
23939W        W85470  37.036  36.530   0.356
23940W        W85471  28.484  12.719   1.275
23941W        W85472  14.312  25.044   2.831
23942W        W85473  38.361   2.384  14.997
23943W        W85474  44.873  17.296   3.270
23944W        W85475   4.224  22.559   3.697
23945W        W85476  33.577   8.710  11.988
23946W        W85477  20.260  10.861  11.459
23947W        W85478   3.874  23.130  14.947
23948W        W85479  11.250  18.673  11.884
23949W        W85480  33.059  36.518   0.936
23950W        W85481  39.494  22.713  11.451
23951W        W85482  41.469  12.340   2.732
23952W        W85483   0.276  15.718   1.342
23953W        W85484   6.397  29.659   5.245
23954W        W85485  44.875  30.086  13.976
23955W        W85486  13.799  13.126  11.458
23956W        W85487  37.851   7.373   5.271
23957W        W85488  37.377  18.081  13.948
23958W        W85489  30.562  19.243   4.179
23959W        W85490  40.394  15.664  13.532
23960W        W85491  18.115  42.982   5.142
23961W        W85492  28.973  22.059  13.934
23962W        W85493   6.201  26.642   5.115
23963W        W85494  25.053   8.663   1.394
23964W        W85495  16.693  23.215   1.389
23965W        W85496  10.167   4.297  13.948
23966W        W85497  15.216  36.904  11.465
23967W        W85498  24.215   6.240  14.980
23968W        W85499  24.203  36.016   0.372
23969W        W85500   4.829  38.463  12.019
23970W        W85501  37.575   5.845  11.127
23971W        W85502  14.615  43.765  10.471
23972W        W85503  18.081   3.768  11.866
23973W        W85504  17.786  37.057  12.353
23974W        W85505  17.659  14.189  13.791
23975W        W85506  33.438  27.131   4.124
23976W        W85507  33.050  23.985   4.207
23977W        W85508  30.077  43.291   4.229
23978W        W85509  34.432  23.240  13.517
23979W        W85510  34.070  40.469  12.954
23980W        W85511  42.434   6.206  11.119
23981W        W85512  34.608  43.918  11.526
23982W        W85513   3.767  38.962  10.888
23983W        W85514  20.665   8.397   4.617
23984W        W85515   7.878  25.562   1.342
23985W        W85516  23.144  11.840  11.881
23986W        W85517  18.063   8.265  11.465
23987W        W85518  40.429  43.493   4.251
23988W        W85519  43.370  44.463  11.526
23989W        W85520  25.029  10.852  13.918
23990W        W85521  19.674   6.364  11.486
23991W        W85522  24.212   9.326  12.544
23992W        W85523  35.361  11.250   4.839
23993W        W85524  33.101  24.652   0.766
23994W        W85525  31.502  31.405   3.325
23995W        W85526  16.117  41.415  13.378
23996W        W85527  32.446  43.468  13.864
23997W        W85528  41.018  38.516   0.841
23998W        W85529  16.649  20.682  14.858
23999W        W85530  30.573  25.981   3.754
24000W        W85531   6.187  24.678  12.430
24001W        W85532  17.304  29.643  10.420
24002W        W85533  39.895  31.965  10.888
24003W        W85534  18.202  19.189  11.038
24004W        W85535  14.682  34.572   0.777
24005W        W85536  41.917  30.977  12.870
24006W        W85537  15.314   4.286   3.387
24007W        W85538   8.242   1.460  11.522
24008W        W85539  43.489   3.385  12.834
24009W        W85540  18.654   4.714   4.136
24010W        W85541  12.175  22.703  13.347
24011W        W85542  33.506   6.760  14.933
24012W        W85543  29.550   0.980  10.901
24013W        W85544  28.638  35.430  12.039
24014W        W85545   1.742  28.983  13.953
24015W        W85546  27.052  16.273   2.848
24016W        W85547  24.177  39.448  13.057
24017W        W85548   2.449  37.073  11.430
24018W        W85549  36.387  12.252   0.322
24019W        W85550  32.636  13.640   3.844
24020W        W85551  20.588  33.084   2.390
24021W        W85552  41.452  30.137  12.912
24022W        W85553  43.321  24.125   0.418
24023W        W85554  17.632  13.316  14.809
24024W        W85555  38.873  18.270  13.029
24025W        W85556  23.667   6.743   4.808
24026W        W85557  27.966  41.958   4.767
24027W        W85558  10.661  33.063   4.672
24028W        W85559  28.015  40.390  11.375
24029W        W85560  33.380   1.327  14.441
24030W        W85561   1.872  13.256   3.694
24031W        W85562  39.553  14.778  14.031
24032W        W85563  11.274   2.945   2.699
24033W        W85564  10.703  39.964   1.695
24034W        W85565  15.286  33.461  11.546
24035W        W85566   0.793   4.363  13.821
24036W        W85567  18.650  15.287  11.967
24037W        W85568   7.354  26.028   3.697
24038W        W85569  22.165  19.142   3.655
24039W        W85570  12.789  18.153  12.094
24040W        W85571  24.207  11.217   4.692
24041W        W85572  37.425  40.511  13.018
24042W        W85573   4.801   0.466  10.546
24043W        W85574  22.049  35.472   2.837
24044W        W85575  11.653  35.853   4.626
24045W        W85576  26.519   6.819   0.851
24046W        W85577  29.147  12.324  12.461
24047W        W85578  29.047  36.591   2.859
24048W        W85579  31.067  30.141   3.685
24049W        W85580  15.113  36.904   2.903
24050W        W85581  25.615  35.576   0.278
24051W        W85582  24.224   2.353   1.796
24052W        W85583  11.207  41.491  11.958
24053W        W85584  31.643  13.802   0.742
24054W        W85585  38.521   6.279  14.403
24055W        W85586   6.750  41.316  12.403
24056W        W85587  27.475  17.722   1.710
24057W        W85588   3.724  39.344   1.869
24058W        W85589  43.514   3.922   0.383
24059W        W85590   4.720  32.136   2.732
24060W        W85591  27.572  19.596  12.414
24061W        W85592  28.171  14.626   1.700
24062W        W85593  34.505  35.563   1.277
24063W        W85594   1.738  12.195  10.552
24064W        W85595   8.884   5.385   3.851
24065W        W85596   1.741  14.123  13.530
24066W        W85597   7.308  15.632  11.093
24067W        W85598  21.519  27.142  13.032
24068W        W85599  14.163  24.182  10.949
24069W        W85600  29.549  34.443  11.576
24070W        W85601   2.294   7.666  12.461
24071W        W85602  40.369  20.535  12.506
24072W        W85603  28.979  20.542   1.911
24073W        W85604   1.925  36.855  12.522
24074W        W85605   8.230  18.233   3.708
24075W        W85606   6.278  22.612  11.434
24076W        W85607   8.868  16.294   2.264
24077W        W85608  21.091   5.926   3.850
24078W        W85609  39.932  24.997   0.483
24079W        W85610   9.251  33.924  10.411
24080W        W85611  41.829  28.988  11.868
24081W        W85612  27.675  24.083  14.384
24082W        W85613  15.220  22.727   1.446
24083W        W85614  37.397  38.501  11.030
24084W        W85615  40.954  28.148   0.352
24085W        W85616  28.007  12.224  11.454
24086W        W85617  40.937  21.593   2.735
24087W        W85618   0.456   3.353  14.355
24088W        W85619   1.291  33.950   0.904
24089W        W85620  36.970  28.169  13.912
24090W        W85621  19.170  22.019  13.458
24091W        W85622   8.265   2.847   2.678
24092W        W85623  18.202  38.972  13.825
24093W        W85624  44.442   7.289  14.919
24094W        W85625  18.182   0.966   4.738
24095W        W85626  11.731  30.939   0.818
24096W        W85627  40.958  11.156   4.830
24097W        W85628  25.082   6.307   5.180
24098W        W85629  10.373  22.180  13.039
24099W        W85630  39.982  10.674   4.315
24100W        W85631  39.897  40.815  13.960
24101W        W85632  12.832  14.171  11.414
24102W        W85633   6.263   0.907  11.481
24103W        W85634  29.936   2.472  10.529
24104W        W85635   3.453  16.245  13.312
24105W        W85636  24.167  13.116   4.221
24106W        W85637  36.385  31.627   3.353
24107W        W85638  17.125  13.796   3.778
24108W        W85639  43.982  16.137   3.752
24109W        W85640  30.638   8.368  11.128
24110W        W85641  37.832  32.551  10.911
24111W        W85642  41.439   1.425   4.282
24112W        W85643  31.599  39.508   1.438
24113W        W85644  13.677  12.249   0.785
24114W        W85645  40.976  37.462  12.904
24115W        W85646   7.830   8.830   4.654
24116W        W85647  22.647  21.250  11.400
24117W        W85648  44.960   4.867   2.235
24118W        W85649   5.380   1.255   1.258
24119W        W85650   7.710  33.114  11.540
24120W        W85651  33.016  22.711   4.225
24121W        W85652  15.109   4.341  10.517
24122W        W85653   0.879  44.884  13.932
24123W        W85654   2.805  19.192   1.755
24124W        W85655  20.592  23.492  10.085
24125W        W85656   8.787   5.296  12.467
24126W        W85657  11.130  27.576   3.312
24127W        W85658  11.356  42.282   3.869
24128W        W85659  35.996  44.975   0.845
24129W        W85660  17.715   3.416   2.368
24130W        W85661  29.092  24.063  10.413
24131W        W85662   3.246  33.044  11.436
24132W        W85663  26.603  11.192  11.447
24133W        W85664  19.630   8.710  13.869
24134W        W85665   8.358  12.284  10.470
24135W        W85666  31.467  22.698  13.490
24136W        W85667  17.699  40.815  13.377
24137W        W85668  13.138  32.963   0.845
24138W        W85669  17.676   0.783   0.956
24139W        W85670  38.041  39.024   0.247
24140W        W85671  27.053   6.860  12.019
24141W        W85672  43.810  32.897   1.237
24142W        W85673  32.449  35.513  14.923
24143W        W85674   7.200  40.028  11.547
24144W        W85675  24.190  38.404  11.113
24145W        W85676   0.810  21.561   4.649
24146W        W85677  36.464  33.999  12.032
24147W        W85678  44.004  29.465   1.824
24148W        W85679   2.933  36.934   2.861
24149W        W85680   4.867  38.359   2.666
24150W        W85681  35.913  28.090  13.953
24151W        W85682  19.120  18.155   2.749
24152W        W85683   7.253  28.674  14.823
24153W        W85684  36.361  24.617  13.044
24154W        W85685   4.235  35.557  10.566
24155W        W85686  43.326   4.408  13.370
24156W        W85687   4.297   4.310  12.461
24157W        W85688  18.715  14.784   4.236
24158W        W85689  20.042  12.622   4.791
24159W        W85690   2.781  18.287  11.860
24160W        W85691  39.902   2.901   1.328
24161W        W85692  22.578   1.450  11.555
24162W        W85693  25.132   2.967   0.299
24163W        W85694   2.338  37.374   4.260
24164W        W85695  18.712  16.091   0.448
24165W        W85696   7.775  20.677  10.931
24166W        W85697   7.293  40.388   3.364
24167W        W85698  31.139  19.123  11.410
24168W        W85699  31.080  22.057  10.507
24169W        W85700  21.545  36.401  11.443
24170W        W85701  34.422   3.298   1.374
24171W        W85702  19.680  10.195  13.053
24172W        W85703   1.799  13.107  14.504
24173W        W85704  42.522  27.477   2.748
24174W        W85705  13.809   7.686  14.446
24175W        W85706  11.133  21.135   4.679
24176W        W85707  11.148  15.149   1.218
24177W        W85708  31.015  36.570  12.369
24178W        W85709  36.866  33.120   4.174
24179W        W85710  39.408   3.443   0.917
24180W        W85711  26.040  16.810   1.355
24181W        W85712  30.432   9.863   2.364
24182W        W85713   4.723   8.321   4.198
24183W        W85714  39.888   4.432  10.599
24184W        W85715  15.687  35.057   3.333
24185W        W85716  33.899   7.304  13.859
24186W        W85717  24.504  32.952   1.424
24187W        W85718  33.426  43.920   1.880
24188W        W85719  41.439  40.336  10.610
24189W        W85720  31.041  32.956  12.432
24190W        W85721  22.537  26.001   2.828
24191W        W85722  28.498  42.785   0.336
24192W        W85723  26.510  24.509   3.313
24193W        W85724  41.813  38.842  11.008
24194W        W85725  29.427  13.659  14.895
24195W        W85726  34.989  41.361  12.094
24196W        W85727  21.236  26.598   4.319
24197W        W85728   1.784   2.303  13.033
24198W        W85729  20.266   6.681   0.829
24199W        W85730  22.111  36.066   2.800
24200W        W85731  34.519   5.904  14.473
24201W        W85732   9.254   9.184  12.825
24202W        W85733  32.037  36.510  10.505
24203W        W85734  40.492  31.420   0.440
24204W        W85735  34.970  40.398  14.789
24205W        W85736   8.848  21.255   1.299
24206W        W85737  21.046  22.102   0.875
24207W        W85738  21.118  31.634  11.483
24208W        W85739   8.380  29.060  13.839
24209W        W85740  38.038  43.965  10.570
24210W        W85741  36.063  24.004   1.917
24211W        W85742  22.249  35.534   4.690
24212W        W85743  30.073   9.183   0.435
24213W        W85744  23.207  35.504   3.165
24214W        W85745  12.788  28.151   2.752
24215W        W85746  24.218  41.786   1.218
24216W        W85747  41.885  11.275  12.898
24217W        W85748  37.521   6.409   2.856
24218W        W85749  35.520  41.947   4.289
24219W        W85750   5.697  26.556   3.722
24220W        W85751  40.351   4.337   4.625
24221W        W85752  36.436  20.261  11.048
24222W        W85753  32.629  13.349  14.901
24223W        W85754   7.171  40.015   3.241
24224W        W85755  13.609  42.301  10.517
24225W        W85756  37.951  11.188  13.829
24226W        W85757  12.844  44.963   2.324
24227W        W85758   2.807  35.478  14.289
24228W        W85759  22.037  10.703   4.243
24229W        W85760  44.844  32.580  13.505
24230W        W85761   9.874  41.305  11.528
24231W        W85762   0.972  10.770   1.888
24232W        W85763  26.156  36.512   3.696
24233W        W85764   7.412  17.663   2.817
24234W        W85765   7.897  23.109   3.384
24235W        W85766  34.120  32.967   1.369
24236W        W85767  34.051  15.722  11.376
24237W        W85768  28.500  22.692  13.869
24238W        W85769  24.146  38.854  13.805
24239W        W85770  36.976   9.285   5.174
24240W        W85771   6.809  26.958   3.310
24241W        W85772  22.547  15.167  12.485
24242W        W85773   1.281  12.202  14.383
24243W        W85774  32.571  37.058   0.365
24244W        W85775   9.244  42.795   0.366
24245W        W85776  20.551  22.699  12.032
24246W        W85777  30.585  10.745  14.387
24247W        W85778  29.454  43.815   2.232
24248W        W85779  44.326  10.825  14.934
24249W        W85780  24.493  15.104   4.269
24250W        W85781  24.987  38.402  11.454
24251W        W85782   2.778  37.966  12.050
24252W        W85783   4.931   8.736  10.914
24253W        W85784  35.599  28.595  14.315
24254W        W85785  33.475  11.364   2.406
24255W        W85786  41.297  42.505   1.357
24256W        W85787  21.577  25.158  10.554
24257W        W85788   0.932  19.138   2.392
24258W        W85789  35.977  24.127   4.766
24259W        W85790  11.157  27.664  13.981
24260W        W85791  21.603   3.397  13.879
24261W        W85792   4.846  15.818   4.135
24262W        W85793  20.535  42.319   2.759
24263W        W85794   3.323  28.583   3.344
24264W        W85795  34.036  24.525   3.318
24265W        W85796  37.058  19.282  13.372
24266W        W85797  40.407  44.932   3.292
24267W        W85798   1.470  20.614   4.300
24268W        W85799  32.991  23.591   4.264
24269W        W85800   0.898  15.298   1.722
24270W        W85801  15.248  21.580  12.846
24271W        W85802   5.294  14.656  13.020
24272W        W85803  19.688  28.981   4.733
24273W        W85804   5.824  37.014  11.393
24274W        W85805  34.572  40.927   0.415
24275W        W85806  42.798  12.172   1.342
24276W        W85807  37.376  20.607   3.747
24277W        W85808  31.544  33.551  14.856
24278W        W85809   7.839  10.147   4.315
24279W        W85810   8.167  28.547  14.445
24280W        W85811  30.912  35.971   4.178
24281W        W85812  23.598   9.369  11.480
24282W        W85813  16.311  18.667  13.485
24283W        W85814  37.875   8.696   3.282
24284W        W85815  33.002  36.484  13.931
24285W        W85816  13.685  19.066  14.777
24286W        W85817  41.987  32.562   2.398
24287W        W85818  41.916  22.628   1.335
24288W        W85819  22.586   0.466  13.518
24289W        W85820  29.938  15.251   5.254
24290W        W85821  42.927  32.530  12.893
24291W        W85822  13.641  15.791  13.463
24292W        W85823  31.643   4.246  12.840
24293W        W85824   2.282  26.964  14.780
24294W        W85825   8.719   8.329   2.230
24295W        W85826   3.318   4.342   3.838
24296W        W85827  18.251  24.644  11.548
24297W        W85828   8.686  21.231   5.114
24298W        W85829  30.128  33.081  12.002
24299W        W85830  11.655  44.291  13.969
24300W        W85831  36.969  29.458   2.254
24301W        W85832   2.360  12.851  12.447
24302W        W85833  22.531   2.444   2.683
24303W        W85834  36.557  41.495   3.729
24304W        W85835  13.207  23.005  13.912
24305W        W85836  21.139   9.285  12.535
24306W        W85837  42.314  29.001  10.554
24307W        W85838  18.581   3.232  11.882
24308W        W85839  25.584   1.749  11.990
24309W        W85840  44.798  21.735   2.851
24310W        W85841   5.271  25.606  14.287
24311W        W85842  18.211   0.799  11.436
24312W        W85843  39.521  15.279   0.422
24313W        W85844  15.589   7.797  12.884
24314W        W85845   1.970  31.577  10.987
24315W        W85846  41.014  30.072   3.180
24316W        W85847  36.021  20.620  14.302
24317W        W85848  19.111  38.923   9.989
24318W        W85849  42.514  44.280  14.030
24319W        W85850   7.175   8.189  12.922
24320W        W85851  32.579  41.297   0.308
24321W        W85852   7.682  16.227  11.942
24322W        W85853  11.767   0.778   3.295
24323W        W85854  43.904  16.675  11.440
24324W        W85855  25.171  39.438   2.187
24325W        W85856   6.922  39.968  10.565
24326W        W85857  16.317  29.930   4.644
24327W        W85858   5.348  42.285   0.284
24328W        W85859  20.225  14.712  11.026
24329W        W85860  40.883  39.879  14.007
24330W        W85861  42.293  41.303  12.873
24331W        W85862  13.170  40.376  10.900
24332W        W85863  12.266  31.561  13.518
24333W        W85864   3.291   0.790  12.915
24334W        W85865   9.192  31.460  11.034
24335W        W85866  32.431  12.178   1.833
24336W        W85867  26.017  11.139  14.505
24337W        W85868   2.447  35.887   3.313
24338W        W85869  44.440  29.055   3.811
24339W        W85870  42.379  28.001   2.898
24340W        W85871  16.794  35.079  11.920
24341W        W85872  24.652  34.961   4.315
24342W        W85873  20.625  11.823   2.249
24343W        W85874   9.204   8.705   0.788
24344W        W85875  16.224  37.977  12.365
24345W        W85876  19.574   3.892  13.480
24346W        W85877   6.338  22.552  13.417
24347W        W85878  21.553  32.599   0.427
24348W        W85879   8.301  30.154  10.444
24349W        W85880  37.572  13.836  13.029
24350W        W85881  14.276  29.068  14.287
24351W        W85882  14.171  34.867   2.323
24352W        W85883  39.502  20.552  13.380
24353W        W85884  42.318  30.541   0.281
24354W        W85885  14.814   0.437  10.593
24355W        W85886   2.956  29.984  13.017
24356W        W85887   0.429  31.005  13.812
24357W        W85888   1.847  15.783  13.377
24358W        W85889  23.614  42.499  12.363
24359W        W85890  44.260  29.114  10.473
24360W        W85891  33.523  15.602   0.869
24361W        W85892   3.395  28.605   1.229
24362W        W85893  22.021  31.061  13.843
24363W        W85894   1.870   5.207   4.786
24364W        W85895  26.060  43.809  12.565
24365W        W85896  40.332  30.109   0.389
24366W        W85897  21.711   0.396  11.048
24367W        W85898  24.720  21.111   3.319
24368W        W85899  13.648  21.027  11.867
24369W        W85900  26.190  16.124  11.892
24370W        W85901  12.704  42.892   0.285
24371W        W85902  15.596  27.183   3.324
24372W        W85903   1.363  11.364  11.934
24373W        W85904  12.694  28.587   1.891
24374W        W85905  26.063  14.612  14.451
24375W        W85906   1.318   5.726   1.397
24376W        W85907  32.952  29.461  10.524
24377W        W85908  33.598  32.047  11.569
24378W        W85909  29.456  16.263   0.819
24379W        W85910  40.989  27.134   1.757
24380W        W85911  11.736   4.340  12.488
24381W        W85912  20.188  41.933  14.767
24382W        W85913  30.992   3.774   3.149
24383W        W85914  24.112  39.003  13.029
24384W        W85915  43.783  37.931   4.280
24385W        W85916   4.369  43.806  14.387
24386W        W85917  41.474  15.622   4.638
24387W        W85918  43.850  19.193   1.743
24388W        W85919  25.540  37.082   1.822
24389W        W85920  40.850   9.689   4.812
24390W        W85921  21.130  43.410   2.769
24391W        W85922   9.786  10.708   2.840
24392W        W85923   0.387  17.608  11.447
24393W        W85924  27.635  21.632   2.718
24394W        W85925  28.465  12.326   1.873
24395W        W85926  13.214  28.647  11.112
24396W        W85927  21.731  43.907  14.961
24397W        W85928  26.071  20.194   3.285
24398W        W85929  11.176   0.823   9.946
24399W        W85930  18.094  17.565   2.667
24400W        W85931  30.146  44.391  14.923
24401W        W85932  29.100  43.924   3.176
24402W        W85933  42.983   5.237  13.934
24403W        W85934  31.045  25.576  11.095
24404W        W85935  21.041  29.029   9.953
24405W        W85936   6.265   2.937  14.902
24406W        W85937  25.174  29.585  14.429
24407W        W85938  23.163   6.792   2.734
24408W        W85939  13.645   8.322  12.929
24409W        W85940   3.383  13.738   4.244
24410W        W85941  34.448  31.551   3.351
24411W        W85942  42.409  27.516  14.997
24412W        W85943   0.361  10.730   0.945
24413W        W85944  33.424   8.887   4.253
24414W        W85945   6.277  32.466  11.075
24415W        W85946  33.947  38.558   5.289
24416W        W85947   5.432  37.540   1.856
24417W        W85948  20.747  39.413   3.278
24418W        W85949   4.371  22.034   2.257
24419W        W85950  17.730   9.808   3.312
24420W        W85951  28.050  33.504   1.836
24421W        W85952  32.477  12.818  10.597
24422W        W85953  32.498  19.748   3.732
24423W        W85954  12.799  39.837   0.862
24424W        W85955  32.621  42.801  11.114
24425W        W85956  19.070   2.893  11.067
24426W        W85957  31.631  33.617   0.835
24427W        W85958  25.032  36.568   1.754
24428W        W85959  41.898  38.514  13.424
24429W        W85960  24.094  35.007  12.552
24430W        W85961  27.066   2.457   3.792
24431W        W85962  27.684  14.290  11.021
24432W        W85963  23.556   8.284  12.572
24433W        W85964   2.232  38.352   4.724
24434W        W85965  25.175  27.132   0.905
24435W        W85966  26.958  25.487   3.157
24436W        W85967   8.297  39.938  12.461
24437W        W85968  15.180  20.645   0.927
24438W        W85969  23.225   6.786  10.612
24439W        W85970  42.471   2.865  11.466
24440W        W85971  14.647  12.765  14.934
24441W        W85972  41.008   0.800   1.353
24442W        W85973  30.506  10.162   3.739
24443W        W85974   2.762  36.449  13.054
24444W        W85975  10.179  38.529   1.387
24445W        W85976  30.439  17.718   1.394
24446W        W85977  39.341  33.513  12.996
24447W        W85978  20.233  38.357   1.391
24448W        W85979  30.937   7.344  11.504
24449W        W85980  27.453  28.073  10.514
24450W        W85981  31.416  21.222  12.046
24451W        W85982  29.538  23.129  14.861
24452W        W85983   4.273  44.499  10.430
24453W        W85984   0.873  14.593   2.896
24454W        W85985   7.801  40.823  14.915
24455W        W85986  35.360  44.356  11.962
24456W        W85987  11.287  38.893   1.823
24457W        W85988  33.911  26.700   3.658
24458W        W85989  27.480  11.347   2.355
24459W        W85990  39.850  26.008  12.444
24460W        W85991  33.990  43.343   0.855
24461W        W85992   8.790  15.751   9.925
24462W        W85993  36.846  26.123   3.384
24463W        W85994  17.290  16.302   1.887
24464W        W85995  39.321  18.194   3.822
24465W        W85996  44.862  42.988   5.312
24466W        W85997   2.459  44.968   0.931
24467W        W85998   9.783  43.359  11.073
24468W        W85999  22.664  44.481   5.197
24469W        W86000  11.704  31.433   2.404
24470W        W86001  40.534  12.160   2.316
24471W        W86002  37.483  15.243  11.514
24472W        W86003  14.670   7.258  11.037
24473W        W86004  11.850  27.446  10.493
24474W        W86005   4.320  40.996  13.425
24475W        W86006  39.385  25.181  14.314
24476W        W86007  43.962  22.701   0.922
24477W        W86008  25.602  14.709  13.013
24478W        W86009  44.463  26.463   5.198
24479W        W86010  30.572  29.644   4.324
24480W        W86011  31.573  41.888  12.930
24481W        W86012  11.165   6.791   1.256
24482W        W86013  15.117  15.268   3.248
24483W        W86014  30.036  33.447  13.530
24484W        W86015  37.437  13.184  10.607
24485W        W86016  29.628  21.576   0.747
24486W        W86017  19.087   8.269   4.794
24487W        W86018  11.809  36.473   4.160
24488W        W86019   6.780  12.612  10.580
24489W        W86020  17.790  35.854  10.506
24490W        W86021  40.991  33.908   1.740
24491W        W86022  11.198   5.362  13.483
24492W        W86023  19.216  39.481  14.489
24493W        W86024  14.683  22.082   4.185
24494W        W86025  32.074  10.362   9.446
24495W        W86026  37.447  22.654   2.221
24496W        W86027  21.129  12.671  14.775
24497W        W86028  18.249  30.488   2.753
24498W        W86029  25.146  32.904   1.368
24499W        W86030   6.741  38.932   1.323
24500W        W86031   0.335  37.883   2.193
24501W        W86032   7.738  16.205   3.150
24502W        W86033  22.144  41.333   2.180
24503W        W86034  26.606   7.735   4.732
24504W        W86035   2.836   8.832  11.962
24505W        W86036   1.436  16.185   2.287
24506W        W86037  36.037  15.151  11.007
24507W        W86038  20.687  17.251   2.783
24508W        W86039  13.833  25.002  14.962
24509W        W86040  21.204  42.302   4.266
24510W        W86041  21.037  13.313  14.919
24511W        W86042  19.183  19.634   4.647
24512W        W86043   0.303  16.257  12.966
24513W        W86044  37.517   7.695  14.979
24514W        W86045   2.921  19.151   0.243
24515W        W86046  10.691  36.364  13.341
24516W        W86047  39.503   4.794  14.885
24517W        W86048  39.002  37.539  13.480
24518W        W86049  35.551  44.763  11.892
24519W        W86050  16.595  36.898  13.834
24520W        W86051   4.831  16.661   3.253
24521W        W86052  14.680  40.348   0.857
24522W        W86053  37.381   5.231   4.332
24523W        W86054   3.942  32.538  10.508
24524W        W86055   0.749  16.107   0.949
24525W        W86056   4.890  12.772  12.899
24526W        W86057  30.600  10.768   4.232
24527W        W86058  15.218  28.518   3.151
24528W        W86059  27.094  13.304  13.855
24529W        W86060  10.674  33.910   2.869
24530W        W86061  26.633  43.317   3.164
24531W        W86062   9.889  24.560   0.327
24532W        W86063  37.458  16.239  14.306
24533W        W86064  39.506  12.191  10.609
24534W        W86065   7.703  25.130  13.023
24535W        W86066  32.040   2.333   4.190
24536W        W86067  23.621  27.633   0.930
24537W        W86068  32.392  19.057  13.936
24538W        W86069  34.869  29.163   0.800
24539W        W86070  40.432  40.415   4.161
24540W        W86071  10.761  37.920  10.549
24541W        W86072  17.724  23.225  12.946
24542W        W86073  23.069   8.720   1.700
24543W        W86074  32.636  32.430  13.025
24544W        W86075  44.456  31.905   4.244
24545W        W86076  44.787  35.077  13.932
24546W        W86077  24.548  41.417   1.248
24547W        W86078  44.784   6.817   1.343
24548W        W86079  11.329  18.153   1.819
24549W        W86080  41.006  34.995   3.840
24550W        W86081  32.052   5.238   0.379
24551W        W86082   2.879  25.638  13.011
24552W        W86083  19.579  21.723   0.834
24553W        W86084  43.792  15.820  10.983
24554W        W86085  15.619   9.228   1.929
24555W        W86086  28.060  28.590   1.388
24556W        W86087  32.029  39.881   2.756
24557W        W86088   6.395  38.871  11.377
24558W        W86089  27.072   2.739   1.820
24559W        W86090  11.774  40.417  12.981
24560W        W86091  18.252  44.259   0.428
24561W        W86092  14.769   0.776  14.890
24562W        W86093  36.480   8.742  13.804
24563W        W86094  34.109  29.018  11.573
24564W        W86095  17.203  23.020   1.905
24565W        W86096  38.461  40.448   3.815
24566W        W86097  16.779  28.974   3.681
24567W        W86098  24.123  38.934  14.511
24568W        W86099  39.008  12.675  14.831
24569W        W86100   4.792  12.844   0.377
24570W        W86101  35.468  36.346   5.274
24571W        W86102  30.580  10.190   1.257
24572W        W86103  44.472  13.211   2.802
24573W        W86104  24.048  30.104  12.408
24574W        W86105  20.611  26.030   1.850
24575W        W86106  15.735  31.964   5.173
24576W        W86107  24.002   9.303  14.318
24577W        W86108  21.568   1.958  12.074
24578W        W86109  37.919  35.560  13.397
24579W        W86110   9.808  20.687  13.354
24580W        W86111   6.235  12.299  14.456
24581W        W86112   4.715  26.167   3.767
24582W        W86113   3.861  38.358  10.500
24583W        W86114  32.557  20.033  12.882
24584W        W86115  21.670  33.559   1.839
24585W        W86116   8.277   3.847   2.321
24586W        W86117  11.338   2.767   0.788
24587W        W86118  17.198  31.644   0.280
24588W        W86119   4.400  34.889   4.623
24589W        W86120  17.623  43.879   0.845
24590W        W86121  31.003  16.566   4.775
24591W        W86122  31.488  21.193  13.931
24592W        W86123  41.959  26.043   0.437
24593W        W86124   4.250  30.951   2.251
24594W        W86125  32.985  38.962  13.976
24595W        W86126  16.151   7.906   3.862
24596W        W86127   9.308  10.187  10.998
24597W        W86128  40.546   5.689   1.391
24598W        W86129  17.592  32.022  13.987
24599W        W86130  20.041   9.294   0.317
24600W        W86131  22.741  31.438  12.447
24601W        W86132  18.255  28.968   1.923
24602W        W86133   3.301  11.626   3.182
24603W        W86134  10.286  14.334  11.499
24604W        W86135  28.495  36.571  12.558
24605W        W86136  44.474   2.322  10.433
24606W        W86137  11.738  15.609   9.989
24607W        W86138  13.220  17.291  10.538
24608W        W86139  23.693   5.905   0.333
24609W        W86140  28.956   5.820   1.856
24610W        W86141  19.713   5.389  13.038
24611W        W86142  32.614   0.918  13.847
24612W        W86143  21.703  20.184  13.472
24613W        W86144  37.513   4.214  14.299
24614W        W86145  11.139  14.125   4.199
24615W        W86146  41.313  34.995  14.865
24616W        W86147  18.125  39.014   2.820
24617W        W86148  13.823  33.940  12.446
24618W        W86149   4.705   0.958  11.922
24619W        W86150  19.211  30.448   3.773
24620W        W86151  30.039   5.221  10.456
24621W        W86152  30.615   1.325  13.012
24622W        W86153  28.576  33.467   0.481
24623W        W86154  10.295  42.934  12.437
24624W        W86155  33.945   1.767   4.210
24625W        W86156  44.427  16.688  11.863
24626W        W86157  28.672  38.525  11.928
24627W        W86158  26.179  25.587   0.471
24628W        W86159  25.971   2.829  13.440
24629W        W86160  39.553  24.621   3.216
24630W        W86161   0.819  36.397  12.901
24631W        W86162  44.933  22.672  14.408
24632W        W86163  36.556  23.094  10.592
24633W        W86164  25.689  10.848   0.868
24634W        W86165  28.500   1.417   3.383
24635W        W86166  42.898  23.630   0.258
24636W        W86167  30.420  29.460  12.924
24637W        W86168  35.976  28.045  11.462
24638W        W86169   4.314  24.119  14.346
24639W        W86170  36.908   6.709  12.454
24640W        W86171   5.873  25.534  12.519
24641W        W86172   0.273  15.126  13.955
24642W        W86173   9.221  22.057   2.729
24643W        W86174  20.043   7.315   1.270
24644W        W86175   1.347   9.780  11.870
24645W        W86176  10.669  11.723  10.909
24646W        W86177  31.926  15.806   0.816
24647W        W86178  40.018   3.405  11.534
24648W        W86179   0.855  18.130   4.273
24649W        W86180  12.258  12.238  14.919
24650W        W86181  44.300  12.694  13.046
24651W        W86182  30.056  27.957   0.876
24652W        W86183  42.871  14.220  12.430
24653W        W86184   0.376  24.681  11.457
24654W        W86185  30.027  38.929   2.785
24655W        W86186   7.389  35.852  12.853
24656W        W86187  14.284  12.643  14.466
24657W        W86188  17.089  35.071  13.338
24658W        W86189   0.925  15.168   3.363
24659W        W86190  25.172  23.179  13.911
24660W        W86191  17.072  22.707  13.533
24661W        W86192  23.524  24.013  13.797
24662W        W86193  18.160  27.565   3.810
24663W        W86194  29.137  13.775  12.466
24664W        W86195  14.640  15.693   3.868
24665W        W86196  13.287  38.997   3.294
24666W        W86197  16.789  39.546  12.453
24667W        W86198  22.028  12.643  13.830
24668W        W86199  18.236  39.498   0.769
24669W        W86200   8.813  10.878   0.354
24670W        W86201  18.661  44.825   1.399
24671W        W86202  33.050   6.828   4.677
24672W        W86203   0.813  11.769   2.320
24673W        W86204  25.009  27.632   4.274
24674W        W86205  11.223  28.073  14.805
24675W        W86206  34.069   1.425   3.243
24676W        W86207   3.249  20.636   2.845
24677W        W86208  20.524   2.344  11.397
24678W        W86209   3.336  15.819   4.189
24679W        W86210  34.096   1.407  11.546
24680W        W86211  11.755   7.266  10.929
24681W        W86212   2.450  15.722   3.148
24682W        W86213  14.263   9.282  12.975
24683W        W86214  20.149  34.390   1.932
24684W        W86215   6.409   3.769   2.859
24685W        W86216  37.432  37.894   2.408
24686W        W86217   3.917   2.729  14.459
24687W        W86218  36.530  10.816   2.321
24688W        W86219   6.827  31.067   3.218
24689W        W86220  10.723  25.058   2.686
24690W        W86221   2.301  36.475  11.478
24691W        W86222  16.170   2.932   0.807
24692W        W86223  16.772  23.090  11.530
24693W        W86224   2.375  36.041   4.198
24694W        W86225  14.201  40.985  13.985
24695W        W86226  22.219   6.892   2.818
24696W        W86227  40.053   9.734  14.784
24697W        W86228  34.941  36.497   0.801
24698W        W86229   5.268  44.956   1.740
24699W        W86230   8.260   6.349   1.835
24700W        W86231  24.508  41.318   1.912
24701W        W86232  13.754  11.163   2.838
24702W        W86233  44.353  32.450  10.424
24703W        W86234  44.976  10.262   4.785
24704W        W86235  28.997  17.681   1.285
24705W        W86236  10.724  16.127   2.392
24706W        W86237  38.506  18.084   2.746
24707W        W86238  28.950  35.539  12.374
24708W        W86239  44.993   2.404   0.898
24709W        W86240  29.598  39.323   2.820
24710W        W86241  24.983   2.250  13.364
24711W        W86242  11.836  12.145  10.150
24712W        W86243  25.165  40.926  11.911
24713W        W86244   2.813  36.383   1.313
24714W        W86245   3.772  26.046  12.452
24715W        W86246  34.387  31.022   2.180
24716W        W86247  23.526  15.270   3.742
24717W        W86248  36.034  12.195   4.219
24718W        W86249  40.917  16.580   1.306
24719W        W86250  23.632  42.442   2.690
24720W        W86251  26.100  26.990  12.499
24721W        W86252  10.171  37.418   3.868
24722W        W86253  24.008  25.965  13.951
24723W        W86254  23.172  18.675   0.272
24724W        W86255  35.512   4.910  14.952
24725W        W86256   8.252  42.026  13.807
24726W        W86257  20.239   4.294   0.854
24727W        W86258  41.858  25.965   3.647
24728W        W86259  41.988  42.312   3.155
24729W        W86260  39.851  40.941   1.773
24730W        W86261  39.052  39.032   2.217
24731W        W86262  29.013  29.933   4.286
24732W        W86263   5.854  35.032   1.210
24733W        W86264   5.213  12.839   3.305
24734W        W86265  11.639  32.546   1.300
24735W        W86266  13.759  40.838   2.727
24736W        W86267  36.034  30.591  11.034
24737W        W86268   1.848  24.580  11.944
24738W        W86269   1.278  15.735  11.048
24739W        W86270  13.657  39.518  10.431
24740W        W86271   1.471  15.269  11.456
24741W        W86272   2.963  36.363  11.402
24742W        W86273  29.029  28.661   0.788
24743W        W86274  29.655   8.394   0.423
24744W        W86275   6.835  10.312   2.319
24745W        W86276   3.344  34.960   3.279
24746W        W86277  37.354   9.887   2.305
24747W        W86278  11.806  39.318  14.424
24748W        W86279   0.927  35.538   0.733
24749W        W86280   9.391   0.399   0.754
24750W        W86281  34.547  18.278   1.849
24751W        W86282   4.249  39.955   4.651
24752W        W86283  16.784  16.685  10.977
24753W        W86284  25.711  28.932  11.446
24754W        W86285   3.402  14.808  13.831
24755W        W86286   6.238  10.775  13.406
24756W        W86287  30.430  15.703   0.322
24757W        W86288  13.325  41.964  12.063
24758W        W86289  20.541  29.017   2.837
24759W        W86290  39.055  13.680   4.667
24760W        W86291  19.749  21.220  10.967
24761W        W86292  27.570  33.074  11.493
24762W        W86293  43.999  32.896  11.598
24763W        W86294  11.258   6.205  12.544
24764W        W86295  27.980  33.910  12.382
24765W        W86296  34.984  16.157   2.265
24766W        W86297  30.914  23.214  14.502
24767W        W86298   7.322  23.141  11.438
24768W        W86299   6.209  23.067  14.376
24769W        W86300  42.967   1.759  11.105
24770W        W86301  37.999  11.290   9.998
24771W        W86302  36.955  20.085  14.342
24772W        W86303  21.166  29.093  10.409
24773W        W86304  20.252  16.124   2.393
24774W        W86305   1.422  10.719  13.364
24775W        W86306  11.285  33.068  13.548
24776W        W86307  26.987  20.272  10.570
24777W        W86308  39.452  36.962   3.749
24778W        W86309  31.004  21.725  13.478
24779W        W86310  22.609  13.608   4.118
24780W        W86311  11.151  19.122  13.860
24781W        W86312   0.418  42.490   2.895
24782W        W86313   4.255  36.445  14.941
24783W        W86314   9.687  26.593   4.762
24784W        W86315  43.333  14.824  14.385
24785W        W86316  31.949  28.078  10.425
24786W        W86317   3.944  29.082   2.821
24787W        W86318  33.893  38.942  12.053
24788W        W86319  44.812  37.966  10.557
24789W        W86320  28.945  10.834   1.349
24790W        W86321  36.518   7.305   0.474
24791W        W86322  36.014   0.469   1.868
24792W        W86323  42.905  17.278  14.972
24793W        W86324   1.331   4.738   1.235
24794W        W86325  32.123  14.326   4.182
24795W        W86326  11.204  34.057  14.331
24796W        W86327  37.337  24.096   5.311
24797W        W86328  22.158  27.654  14.988
24798W        W86329  38.438  11.352   1.242
24799W        W86330  26.670   3.309  14.971
24800W        W86331  24.081  21.748   3.831
24801W        W86332  32.037  18.212  11.575
24802W        W86333  30.576   4.321   4.203
24803W        W86334   1.273  23.209   2.753
24804W        W86335  21.196  40.847  12.519
24805W        W86336  31.107  36.362  14.932
24806W        W86337  39.852  38.337   0.377
24807W        W86338  11.653  35.445   3.297
24808W        W86339  25.216  30.119  14.410
24809W        W86340  41.958  11.240  11.507
24810W        W86341   4.891  12.803  14.275
24811W        W86342  29.929  22.116  11.107
24812W        W86343  16.782  37.576  13.520
24813W        W86344  42.313  21.743  13.892
24814W        W86345  28.450  28.497   1.275
24815W        W86346  37.438  37.498   4.349
24816W        W86347  20.149   8.237  14.791
24817W        W86348  14.286  30.482  12.906
24818W        W86349   7.815  15.663   0.879
24819W        W86350  41.508  43.293   3.692
24820W        W86351  44.999  39.536  13.963
24821W        W86352  18.750  30.063   4.624
24822W        W86353  17.679   4.792   2.672
24823W        W86354  15.655  19.077  10.963
24824W        W86355  31.486  41.918  12.568
24825W        W86356  43.962  43.767   3.241
24826W        W86357  27.027   1.362  10.586
24827W        W86358  29.002  24.109   4.632
24828W        W86359  17.087  34.465  12.892
24829W        W86360  17.226  18.054   2.386
24830W        W86361  34.004  36.974   9.933
24831W        W86362  43.923  11.822  12.961
24832W        W86363  42.914  22.192   4.726
24833W        W86364  27.094  24.512   3.708
24834W        W86365  12.689  19.110   4.680
24835W        W86366   8.261  12.811  10.623
24836W        W86367   4.894  16.797  13.977
24837W        W86368  21.066  41.407   5.134
24838W        W86369  39.951  35.424  12.565
24839W        W86370  36.401  43.973   1.925
24840W        W86371  21.194  40.417  13.468
24841W        W86372  30.069  21.610  12.538
24842W        W86373  11.312  10.370  13.064
24843W        W86374  38.364   7.359   0.460
24844W        W86375   5.357  29.999  14.363
24845W        W86376   8.783  28.471   2.352
24846W        W86377   0.324  22.198   4.239
24847W        W86378  22.590  16.294  12.049
24848W        W86379   1.731  25.028  11.878
24849W        W86380  28.937  13.747   0.901
24850W        W86381   6.699  31.424   4.244
24851W        W86382  21.538  28.057  10.588
24852W        W86383  28.605  42.017   1.387
24853W        W86384  29.106   1.311  12.979
24854W        W86385  43.489  33.442   0.415
24855W        W86386   7.781  23.564  14.986
24856W        W86387  22.602   1.952   1.243
24857W        W86388  12.726   6.794   1.819
24858W        W86389  17.188   4.346   3.234
24859W        W86390  44.398  40.448  14.896
24860W        W86391  30.589  14.156  14.969
24861W        W86392  16.595   0.973  13.059
24862W        W86393  41.956   7.846   2.798
24863W        W86394  36.492  33.541  13.961
24864W        W86395  32.615   7.810   3.174
24865W        W86396  31.084  42.825  12.463
24866W        W86397  21.248  21.674   4.624
24867W        W86398   0.921  17.170  11.940
24868W        W86399   5.705  35.924   0.801
24869W        W86400   4.347   3.215  13.369
24870W        W86401  44.462  36.961   2.221
24871W        W86402  11.177  20.171  13.801
24872W        W86403   1.847  44.921   4.828
24873W        W86404   0.896  41.361   4.756
24874W        W86405  15.086  23.676  10.486
24875W        W86406   1.792   4.216  12.423
24876W        W86407   6.837   2.864   2.273
24877W        W86408  26.102  40.016   2.415
24878W        W86409  33.965   7.680   2.247
24879W        W86410   0.287  38.824   4.832
24880W        W86411   8.682  32.456   0.853
24881W        W86412  42.295  14.313   3.217
24882W        W86413   3.319  10.273  11.388
24883W        W86414  11.289  20.720  11.408
24884W        W86415   8.825   7.338   3.713
24885W        W86416  27.518  13.767  14.026
24886W        W86417  41.532  28.090   0.466
24887W        W86418  42.965  18.181   1.743
24888W        W86419  31.482  25.522  10.494
24889W        W86420  24.552   4.337   1.891
24890W        W86421  14.236   3.843  11.605
24891W        W86422  40.430  16.719   4.246
24892W        W86423  20.696   6.217  14.885
24893W        W86424  35.445  12.117  14.416
24894W        W86425  25.162   6.381   3.222
24895W        W86426   7.397  16.675  14.844
24896W        W86427   9.244  35.404   1.764
24897W        W86428  20.152  28.036  13.825
24898W        W86429  20.661   7.781  11.416
24899W        W86430  20.654  12.284   3.748
24900W        W86431   9.215  29.545   2.342
24901W        W86432  13.240   3.233  13.322
24902W        W86433  18.666  18.123  14.780
24903W        W86434  38.401  13.607   2.353
24904W        W86435  29.640  19.123  13.513
24905W        W86436  42.827  43.771  14.939
24906W        W86437   9.844  23.607  11.880
24907W        W86438  37.535  26.175   4.177
24908W        W86439  22.204   5.290  14.397
24909W        W86440  32.991   7.759   2.241
24910W        W86441  36.927  35.484   0.894
24911W        W86442  30.118  22.049  11.409
24912W        W86443  31.904  35.080   3.372
24913W        W86444  33.113  17.683  11.861
24914W        W86445   0.490  40.325  14.363
24915W        W86446  26.474  12.800   1.910
24916W        W86447  10.347  42.283   0.777
24917W        W86448   1.910  36.567   0.926
24918W        W86449  18.093   7.694   2.720
24919W        W86450  17.663  18.218  11.884
24920W        W86451  24.523  10.352  13.041
24921W        W86452  41.879  26.988  14.386
24922W        W86453   4.267  18.132  10.496
24923W        W86454   1.892  35.954   3.300
24924W        W86455   1.849  35.377   0.426
24925W        W86456   8.837  16.303  13.932
24926W        W86457  28.067  41.538   0.437
24927W        W86458  14.137  41.920   0.784
24928W        W86459  11.717  41.876  14.290
24929W        W86460  35.988   9.754  12.577
24930W        W86461   9.885  23.532  10.520
24931W        W86462  17.591  40.340  14.348
24932W        W86463  22.745   7.820  10.455
24933W        W86464  41.444  23.669   3.357
24934W        W86465  12.159  21.256  10.024
24935W        W86466  40.392   4.228  14.876
24936W        W86467  19.103  24.063  11.945
24937W        W86468  12.680  35.522  14.319
24938W        W86469  13.649   0.896  10.984
24939W        W86470  24.228  17.578   1.799
24940W        W86471  20.095  43.977   0.438
24941W        W86472  41.035   3.871  11.565
24942W        W86473   5.934  33.618  12.410
24943W        W86474  28.010   2.904  12.460
24944W        W86475  10.794  34.526   0.350
24945W        W86476   9.356   6.786  11.525
24946W        W86477  15.744  24.048   1.362
24947W        W86478  37.408  38.512   1.267
24948W        W86479   3.754  17.711  10.608
24949W        W86480   5.876  14.641   4.639
24950W        W86481   3.315  33.533  12.446
24951W        W86482  32.072  26.098   3.372
24952W        W86483  37.340  14.298   2.186
24953W        W86484  28.163  22.128  14.433
24954W        W86485  40.903  25.152  10.556
24955W        W86486   3.907  19.229   3.339
24956W        W86487  27.599  22.737   1.429
24957W        W86488  14.239  43.774   1.254
24958W        W86489   5.890  29.153   1.712
24959W        W86490  25.637  30.913  14.807
24960W        W86491   4.726  21.754   3.689
24961W        W86492  15.795  30.964   3.350
24962W        W86493  35.583  31.413  12.932
24963W        W86494  20.671  43.955   4.785
24964W        W86495   6.700  23.677  11.475
24965W        W86496   9.697  31.987   2.772
24966W        W86497  36.366  32.403  10.559
24967W        W86498  17.239   2.779   0.351
24968W        W86499  25.573   7.382   1.279
24969W        W86500  10.259  41.977  10.151
24970W        W86501  43.463   5.334  13.381
24971W        W86502  29.931  22.009   0.389
24972W        W86503  11.851  37.480   1.425
24973W        W86504   7.754  34.897  12.878
24974W        W86505  36.907  30.500  12.532
24975W        W86506  35.864   5.887  14.507
24976W        W86507   1.317  44.914   0.939
24977W        W86508  11.141  31.483   5.662
24978W        W86509  23.549  31.618  13.466
24979W        W86510  16.807   6.230   4.705
24980W        W86511  17.236  38.401   1.738
24981W        W86512  33.995  21.033  13.476
24982W        W86513  35.368  42.802  11.121
24983W        W86514  41.470  17.597   0.397
24984W        W86515   6.195   1.941  14.453
24985W        W86516  12.774  43.470   1.933
24986W        W86517   6.694  44.382   0.433
24987W        W86518   2.349  43.018  13.846
24988W        W86519  27.959  10.830  11.580
24989W        W86520   9.260  18.186  13.498
24990W        W86521  39.026   0.366   2.734
24991W        W86522  34.946   8.260  12.978
24992W        W86523  17.230   4.820  13.447
24993W        W86524   2.738  19.692  11.502
24994W        W86525  42.842  11.646  12.388
24995W        W86526  35.884   3.354  14.408
24996W        W86527  36.898  34.467   0.313
24997W        W86528  32.959   1.306   3.760
24998W        W86529  33.485  43.386   2.736
24999W        W86530  15.136  29.149   2.324
25000W        W86531  34.958   8.338   1.896
25001W        W86532  15.164  31.048   1.341
25002W        W86533   2.725  34.882   0.387
25003W        W86534  26.687  21.643   0.334
25004W        W86535  25.603  10.788  14.409
25005W        W86536  26.026  39.520   0.912
25006W        W86537  17.229  18.183   2.739
25007W        W86538  15.760  30.974  11.505
25008W        W86539  24.491  31.927   4.821
25009W        W86540   5.406  40.411   3.673
25010W        W86541  17.751  36.945   4.672
25011W        W86542   0.977   2.291   0.253
25012W        W86543  26.975  32.098   4.155
25013W        W86544  10.646  38.375  11.442
25014W        W86545  21.083  41.943  13.428
25015W        W86546  30.957  29.661   4.734
25016W        W86547  12.667   0.426   4.744
25017W        W86548  27.970  27.532  14.016
25018W        W86549  27.106  42.968  12.057
25019W        W86550   3.370   4.441   3.148
25020W        W86551  25.093  33.975   4.768
25021W        W86552  10.854   6.266  14.872
25022W        W86553   2.342   7.307  10.979
25023W        W86554   1.796  43.837   2.759
25024W        W86555   4.866  33.971  12.933
25025W        W86556  15.155  18.293   1.325
25026W        W86557   3.395  42.297   2.393
25027W        W86558  27.068  10.252  12.992
25028W        W86559  16.107   2.739   3.384
25029W        W86560   9.275  18.676  14.496
25030W        W86561  11.359  15.281   3.695
25031W        W86562  34.388  44.765   2.834
25032W        W86563  26.126  15.810  10.644
25033W        W86564   4.791  26.107  12.046
25034W        W86565  30.001   2.243  14.310
25035W        W86566   4.747  43.308  11.063
25036W        W86567  24.621  34.955  10.556
25037W        W86568   3.864  32.084   2.201
25038W        W86569   8.764  30.539  11.397
25039W        W86570  24.073   1.929  10.518
25040W        W86571  14.777  29.998  10.576
25041W        W86572  40.320   0.365  12.885
25042W        W86573  18.674  14.180  13.813
25043W        W86574  30.446  37.366  13.352
25044W        W86575   6.845  28.507   1.833
25045W        W86576   5.295  25.977   4.283
25046W        W86577  13.794  44.936   4.777
25047W        W86578  36.859  26.022  10.894
25048W        W86579  29.082   0.457   3.836
25049W        W86580  44.456   2.754   5.316
25050W        W86581  21.239   3.781  12.853
25051W        W86582  37.556  41.014  10.117
25052W        W86583   0.959  24.634   3.253
25053W        W86584   9.653   7.332  11.004
25054W        W86585  33.596  33.510  14.935
25055W        W86586  21.711  15.262   3.299
25056W        W86587  14.200  19.660   4.776
25057W        W86588   2.299  40.825  14.398
25058W        W86589  35.983  20.262  10.939
25059W        W86590  14.241  17.592   2.844
25060W        W86591  43.332  19.254   1.774
25061W        W86592  17.782  13.775  14.513
25062W        W86593  28.444  11.626   1.862
25063W        W86594  15.596  22.032   2.180
25064W        W86595  33.587  44.412   2.848
25065W        W86596   7.785   2.447   0.823
25066W        W86597  18.244  13.300   1.249
25067W        W86598  12.241  25.039  14.441
25068W        W86599  12.336  35.543   3.683
25069W        W86600  29.067  39.898   3.629
25070W        W86601  12.616  37.477  10.457
25071W        W86602   6.363  38.546  11.100
25072W        W86603  33.601  24.510   0.764
25073W        W86604  38.838  22.632   4.792
25074W        W86605  21.172  34.114  13.805
25075W        W86606  35.856  42.492   2.725
25076W        W86607   9.745  13.210  12.882
25077W        W86608  26.051   1.431  11.957
25078W        W86609  29.088  32.519  13.810
25079W        W86610  32.609  29.121  11.058
25080W        W86611  16.637  23.620  13.793
25081W        W86612   0.415   8.762   0.900
25082W        W86613   4.398  34.502   4.837
25083W        W86614  17.135  30.471  10.903
25084W        W86615  44.891   4.371  10.604
25085W        W86616  33.464  28.533  13.010
25086W        W86617  39.435  23.594  11.040
25087W        W86618  22.239  13.205   0.748
25088W        W86619  23.080  11.230   2.250
25089W        W86620   7.737  15.612  10.051
25090W        W86621  27.678  17.571  10.471
25091W        W86622  20.671  22.550   2.319
25092W        W86623  34.897  41.337  13.869
25093W        W86624  42.516  38.484   3.759
25094W        W86625  14.130  26.026  12.889
25095W        W86626  15.205  18.776  12.458
25096W        W86627  26.486   6.278  13.475
25097W        W86628  35.018  11.799   3.274
25098W        W86629  21.705  16.132  13.027
25099W        W86630   7.750  14.135  10.070
25100W        W86631  21.233  39.927  12.519
25101W        W86632  28.134  21.103   2.863
25102W        W86633   2.391  30.066   4.711
25103W        W86634  36.990  40.876   2.211
25104W        W86635   6.727  20.238   4.333
25105W        W86636  19.557  27.520  11.898
25106W        W86637  30.432  33.610   0.414
25107W        W86638   9.275  14.814  14.018
25108W        W86639  19.767  33.935   3.712
25109W        W86640  36.374  10.807   1.254
25110W        W86641   2.945   5.841  14.836
25111W        W86642  43.854  44.373   1.283
25112W        W86643  33.562  27.116  12.444
25113W        W86644   0.853  14.131   5.236
25114W        W86645  27.512  26.548   4.210
25115W        W86646   2.233  28.668   3.386
25116W        W86647  44.372  27.463   3.226
25117W        W86648  30.145  27.572  11.470
25118W        W86649  16.672  19.592   1.748
25119W        W86650  43.811  39.445  14.310
25120W        W86651  30.972  10.143  12.863
25121W        W86652  22.206  43.855  13.999
25122W        W86653  22.018   5.277  12.579
25123W        W86654  12.196  35.862   2.859
25124W        W86655  24.035  41.033  13.486
25125W        W86656  42.418   6.386   3.308
25126W        W86657   9.699   5.720  14.990
25127W        W86658  43.457  37.884  13.810
25128W        W86659  32.954  26.033  14.439
25129W        W86660  25.202  25.200   2.784
25130W        W86661  19.546  35.001   4.737
25131W        W86662  33.995  27.629   3.850
25132W        W86663  30.145   2.248   0.435
25133W        W86664  10.195  21.720   3.734
25134W        W86665  16.673  25.111  11.879
25135W        W86666  36.350  26.198   4.661
25136W        W86667  40.414  19.740  14.970
25137W        W86668  15.732  43.010  13.893
25138W        W86669  29.449  28.182  12.083
25139W        W86670  31.528  41.471   1.388
25140W        W86671  42.816  18.579   2.897
25141W        W86672  39.485  13.172   9.495
25142W        W86673  30.453  13.601   4.144
25143W        W86674  10.690   2.918  13.541
25144W        W86675  11.370   2.238   2.362
25145W        W86676  10.739   3.906   9.594
25146W        W86677  20.613  12.806  14.512
25147W        W86678  26.996  21.167  12.932
25148W        W86679  28.679  16.134   2.686
25149W        W86680   3.261  23.498   0.433
25150W        W86681  10.829  18.639  12.840
25151W        W86682  24.063  39.333  11.500
25152W        W86683  34.118   0.299  12.052
25153W        W86684  26.674  19.737  14.004
25154W        W86685   1.934  16.791   3.864
25155W        W86686  34.047  12.762   3.726
25156W        W86687  20.733  12.330  13.914
25157W        W86688  14.229  44.925  13.036
25158W        W86689  25.985  21.612   0.425
25159W        W86690  27.609   1.253   3.263
25160W        W86691  33.578  30.927   4.830
25161W        W86692  15.135   3.939   0.403
25162W        W86693   2.824  31.571  10.941
25163W        W86694   5.695  28.983   1.349
25164W        W86695  18.601  37.971  12.044
25165W        W86696  33.422  28.565   0.942
25166W        W86697  14.636  28.630  10.628
25167W        W86698   5.911  10.741  13.826
25168W        W86699  37.880  21.202   0.909
25169W        W86700   8.710  34.017  14.943
25170W        W86701  12.319  43.926  11.525
25171W        W86702   3.954   6.865   2.841
25172W        W86703  17.243  23.580   3.242
25173W        W86704  28.042  29.005   0.873
25174W        W86705   5.301  14.668   1.447
25175W        W86706   9.675   0.390   5.241
25176W        W86707  17.640  33.539   3.254
25177W        W86708   6.811   6.801  13.355
25178W        W86709   0.373   0.918   4.261
25179W        W86710  32.140  40.936  11.426
25180W        W86711  29.639  34.924  11.509
25181W        W86712   4.353   8.283  11.950
25182W        W86713  44.892   4.828  14.943
25183W        W86714   2.241  33.444  12.997
25184W        W86715  35.422  18.679  13.367
25185W        W86716  30.490  37.563   2.385
25186W        W86717  21.061   8.329  14.277
25187W        W86718  24.587  20.683  10.541
25188W        W86719   4.412   5.245  13.427
25189W        W86720  17.138  44.806   0.249
25190W        W86721   1.367  22.640  13.861
25191W        W86722   2.816  31.552  11.976
25192W        W86723   3.459  38.053  12.032
25193W        W86724  17.755  37.527   3.156
25194W        W86725  40.476  15.116  10.991
25195W        W86726  20.233  42.793   1.715
25196W        W86727  34.580   5.786   4.161
25197W        W86728  22.117  35.973  12.576
25198W        W86729  38.966  11.709   5.641
25199W        W86730  40.495  36.006  12.403
25200W        W86731  18.689  19.551   0.450
25201W        W86732   0.405  31.495  11.470
25202W        W86733   3.319   4.892  12.437
25203W        W86734   3.936  37.378   0.365
25204W        W86735  40.899  37.902  13.792
25205W        W86736  34.615   1.908  10.944
25206W        W86737  18.616  11.183   0.923
25207W        W86738  14.789   8.368  12.502
25208W        W86739   8.354  31.631   2.192
25209W        W86740  26.075  27.941  14.411
25210W        W86741  11.827  29.508   2.688
25211W        W86742   9.153  34.565  14.976
25212W        W86743  26.614  43.335   4.295
25213W        W86744   2.915  39.934  10.915
25214W        W86745  27.558  40.471   3.256
25215W        W86746  38.839   8.286   1.413
25216W        W86747  43.928  36.036  10.618
25217W        W86748  14.802  26.107   0.352
25218W        W86749   5.917  23.032  12.380
25219W        W86750  18.595   2.354   2.884
25220W        W86751  36.891  25.684  13.011
25221W        W86752  44.790  10.366  10.141
25222W        W86753  31.442  26.080   0.727
25223W        W86754  42.922  29.445   1.883
25224W        W86755   6.324  10.201  12.992
25225W        W86756  19.040  11.334   3.781
25226W        W86757   9.744  41.480  14.876
25227W        W86758  35.893  32.016   4.352
25228W        W86759  34.441  20.752  10.593
25229W        W86760   7.818  37.423   2.668
25230W        W86761   3.813  14.670  12.352
25231W        W86762  25.206  23.595   1.834
25232W        W86763  44.895   8.279  11.102
25233W        W86764  13.193  24.012  12.937
25234W        W86765  22.110   0.293   2.223
25235W        W86766  35.394  30.976  11.441
25236W        W86767  13.292  31.957  10.618
25237W        W86768  16.201  21.226  11.890
25238W        W86769  22.212  20.756  12.023
25239W        W86770  39.049  43.823  11.077
25240W        W86771  36.889  24.181  11.530
25241W        W86772  44.411  37.453   3.722
25242W        W86773  12.851  34.605   3.860
25243W        W86774  43.285  16.287  13.056
25244W        W86775  37.047  29.452  11.569
25245W        W86776  24.090  25.536  14.780
25246W        W86777  39.511   0.354  12.056
25247W        W86778  13.667  16.581   4.796
25248W        W86779  40.863  32.436  14.988
25249W        W86780  14.746  13.168   2.226
25250W        W86781  43.303  35.101   4.250
25251W        W86782  36.541   0.348  12.532
25252W        W86783  10.318  41.922  12.488
25253W        W86784   9.151   1.366  12.024
25254W        W86785   6.395  38.340   2.704
25255W        W86786  43.906   1.466   0.956
25256W        W86787   2.936  39.320  10.911
25257W        W86788  18.257  11.211   0.966
25258W        W86789  23.986   0.765  13.454
25259W        W86790  29.922  23.198  14.866
25260W        W86791  15.307  31.991  11.914
25261W        W86792  39.966  19.550  14.455
25262W        W86793  29.615  21.017   0.349
25263W        W86794  25.621   5.834  14.840
25264W        W86795  19.707  15.277   3.850
25265W        W86796  11.362  18.168   0.867
25266W        W86797  20.579   6.748   0.743
25267W        W86798  24.650  28.022   4.663
25268W        W86799  12.359  21.047  10.979
25269W        W86800  37.404  23.494   2.211
25270W        W86801   8.890   2.350  12.951
25271W        W86802  25.509  15.262  13.047
25272W        W86803  43.379  36.842  12.567
25273W        W86804  26.537  11.340  10.966
25274W        W86805  33.966  37.074  12.973
25275W        W86806   5.870  35.366   1.217
25276W        W86807  43.314  39.059   4.288
25277W        W86808   1.913  37.354   2.796
25278W        W86809  30.568  31.102   2.822
25279W        W86810  40.028  21.176  12.489
25280W        W86811   8.376  41.492  10.468
25281W        W86812   8.723  19.148   4.713
25282W        W86813  11.812   8.172  11.027
25283W        W86814  41.355  38.914   3.347
25284W        W86815  43.322  27.072  12.360
25285W        W86816  16.134  10.853   4.277
25286W        W86817  42.392  26.469  13.857
25287W        W86818  34.377  43.348   1.379
25288W        W86819  42.291   1.261  14.023
25289W        W86820  40.817  18.119   0.315
25290W        W86821  40.498  40.439   2.747
25291W        W86822  14.107  35.894   0.861
25292W        W86823  32.960  44.360   4.287
25293W        W86824  20.739  25.492  10.894
25294W        W86825  44.366  19.154  10.504
25295W        W86826  22.150  26.056  11.529
25296W        W86827  23.113  28.671  11.957
25297W        W86828  32.967  19.663   5.202
25298W        W86829   6.213  22.608  10.594
25299W        W86830   4.261  20.613   4.749
25300W        W86831  36.001  31.086   1.871
25301W        W86832  27.599  13.252   3.808
25302W        W86833  41.900  16.182   0.916
25303W        W86834   5.719   9.154  10.459
25304W        W86835  42.024  22.237  14.326
25305W        W86836  31.584  32.081  11.955
25306W        W86837  23.598  12.336   0.272
25307W        W86838  42.008  12.708  12.517
25308W        W86839   5.796  32.020  13.474
25309W        W86840  27.579  27.097  14.933
25310W        W86841   2.834  44.915   1.259
25311W        W86842  22.743  21.517   1.770
25312W        W86843  20.590  14.691  11.584
25313W        W86844   9.166  18.209   3.726
25314W        W86845  12.301  28.634  13.411
25315W        W86846   7.183  11.227  11.498
25316W        W86847  44.419  44.380  12.885
25317W        W86848  17.754  38.366  13.004
25318W        W86849  30.574  23.199  13.415
25319W        W86850  20.611  38.568   2.778
25320W        W86851  21.577  38.529  13.819
25321W        W86852  24.148  24.137  11.491
25322W        W86853  36.576  35.994   2.230
25323W        W86854   8.342  42.502   2.879
25324W        W86855   2.932  14.164  14.028
25325W        W86856  42.484  31.138   3.290
25326W        W86857  33.612   1.395  11.909
25327W        W86858  38.550  44.381  12.539
25328W        W86859  43.293  29.569  13.318
25329W        W86860  21.192  37.048  10.605
25330W        W86861  19.729  25.575   0.260
25331W        W86862  37.523   3.792   3.749
25332W        W86863  13.789  37.465  14.511
25333W        W86864  21.216  36.421   1.704
25334W        W86865  34.456   5.727  13.812
25335W        W86866  43.898   6.207  12.012
25336W        W86867  24.085  35.863   4.277
25337W        W86868   5.406   7.171  12.085
25338W        W86869  42.286  42.950   2.809
25339W        W86870   9.760  23.176   0.359
25340W        W86871  14.093   8.170   2.887
25341W        W86872  43.332  40.336   3.792
25342W        W86873  31.947  25.996  13.900
25343W        W86874  16.282  11.344   0.327
25344W        W86875  19.616   8.347  14.908
25345W        W86876  18.256  32.002   3.297
25346W        W86877  23.533  19.056   1.314
25347W        W86878  31.599   8.173  13.896
25348W        W86879  33.492  28.138  12.573
25349W        W86880  21.243   5.844  14.863
25350W        W86881  35.058  28.001  11.482
25351W        W86882  29.624  26.081  14.281
25352W        W86883  36.047  14.672  10.452
25353W        W86884  38.980  18.613   4.186
25354W        W86885   2.285  33.050   0.738
25355W        W86886  26.576  26.632  12.074
25356W        W86887  24.510  10.706  12.064
25357W        W86888  37.047  31.025  12.979
25358W        W86889   0.791  25.104   5.203
25359W        W86890  41.379   2.930  10.407
25360W        W86891  44.880  31.912  14.457
25361W        W86892   9.207  38.964  14.407
25362W        W86893  40.410  43.808   3.206
25363W        W86894  35.373  14.816   5.162
25364W        W86895  40.531   2.828   3.717
25365W        W86896  18.753  25.973  13.464
25366W        W86897   1.795  18.607   0.348
25367W        W86898  41.427  11.748   3.782
25368W        W86899  36.997  31.068   0.461
25369W        W86900  29.969  35.418   4.659
25370W        W86901  22.679  42.026  13.840
25371W        W86902  40.473  21.125   1.440
25372W        W86903  17.087  31.007   2.836
25373W        W86904   4.876  39.979   4.298
25374W        W86905  42.356   0.397  13.025
25375W        W86906   7.214  24.548  14.793
25376W        W86907   8.828   6.192   1.350
25377W        W86908  23.099   9.747   1.730
25378W        W86909  17.657  24.529  12.576
25379W        W86910  15.211   9.196  12.055
25380W        W86911  13.112   3.393  11.068
25381W        W86912  15.174  13.672  11.920
25382W        W86913  35.453  42.959  13.814
25383W        W86914  27.196  33.537  12.352
25384W        W86915  20.709  19.666   0.819
25385W        W86916  23.577  17.660  12.517
25386W        W86917   3.729  23.004  12.419
25387W        W86918  15.786   1.458  13.541
25388W        W86919  37.518   0.456   3.255
25389W        W86920   8.210  33.035  12.503
25390W        W86921  15.089   7.367   0.786
25391W        W86922  39.417  32.933  10.453
25392W        W86923   4.841  12.164  14.780
25393W        W86924  25.061   8.402  12.835
25394W        W86925  35.961  41.368   0.461
25395W        W86926   7.705  43.273   1.775
25396W        W86927   1.787  42.850  12.557
25397W        W86928  43.427  41.390  13.460
25398W        W86929  40.906  29.955  10.578
25399W        W86930  31.477  28.032  13.010
25400W        W86931  32.466   8.719   0.772
25401W        W86932  42.398  18.638   0.844
25402W        W86933  32.035  24.017   4.260
25403W        W86934  20.199  31.045  13.467
25404W        W86935  23.181  41.502  13.858
25405W        W86936   6.225   2.940   4.710
25406W        W86937  22.599  12.348   1.341
25407W        W86938   6.788  32.504   3.252
25408W        W86939  24.605   2.317  10.626
25409W        W86940   6.326   9.841   4.627
25410W        W86941  19.156  11.194  10.609
25411W        W86942   8.269  17.254   2.396
25412W        W86943  11.217   7.213  14.337
25413W        W86944   6.183  14.669   2.396
25414W        W86945  26.648  40.493  11.592
25415W        W86946   7.868  36.044   4.149
25416W        W86947  10.383  44.914   4.627
25417W        W86948   3.443  33.068  11.916
25418W        W86949   6.876  14.628   1.325
25419W        W86950  35.966   5.762   2.896
25420W        W86951  16.077   1.767   2.235
25421W        W86952  11.250  12.621   1.329
25422W        W86953  37.959  20.622   4.180
25423W        W86954   4.288  19.262   1.334
25424W        W86955  28.997  37.456  13.471
25425W        W86956  26.029  13.749   0.846
25426W        W86957   8.202  24.695   4.609
25427W        W86958  13.293  39.344   4.210
25428W        W86959  30.051  38.357  12.497
25429W        W86960  25.568  20.695  11.375
25430W        W86961  19.245   3.739   0.321
25431W        W86962  43.411   0.779   3.380
25432W        W86963   5.347   4.925   2.738
25433W        W86964  39.506  42.817  10.470
25434W        W86965  31.474  21.080   3.191
25435W        W86966  23.697  42.298  14.883
25436W        W86967  21.089  13.796  14.285
25437W        W86968   7.849  10.142  11.967
25438W        W86969  21.613  41.924   4.715
25439W        W86970  38.411  17.801  12.824
25440W        W86971  39.043  11.810   1.280
25441W        W86972   5.421  30.612  13.391
25442W        W86973   9.166  12.747  14.974
25443W        W86974  34.584  13.119  11.044
25444W        W86975  33.588   2.855  13.407
25445W        W86976  39.965  42.989   2.385
25446W        W86977  38.925   5.863   4.837
25447W        W86978  21.190  20.079  14.833
25448W        W86979   5.840  37.023   0.428
25449W        W86980  30.007  16.127  14.996
25450W        W86981  39.452  43.426   0.416
25451W        W86982  43.428  21.248  14.362
25452W        W86983   0.897  31.487  11.517
25453W        W86984  29.537  29.617  11.125
25454W        W86985  29.531   5.759  13.544
25455W        W86986  21.734  42.967  13.336
25456W        W86987   7.909  37.571   1.444
25457W        W86988  13.200  32.060   5.217
25458W        W86989  31.043  23.580   2.262
25459W        W86990  31.535  27.671   1.858
25460W        W86991  37.932  24.514  14.963
25461W        W86992  20.654  34.083  14.023
25462W        W86993  37.502  19.154  14.927
25463W        W86994  30.529  15.284  10.552
25464W        W86995   7.201   3.714   2.688
25465W        W86996   4.882  13.801  10.550
25466W        W86997  23.706  11.250   3.296
25467W        W86998  44.909  39.939   1.249
25468W        W86999  11.154  13.247   4.754
25469W        W87000  20.108  12.259   3.808
25470W        W87001  15.286   7.761  10.446
25471W        W87002  12.691  30.021  13.520
25472W        W87003  33.982  16.751  13.999
25473W        W87004  13.789  28.122  14.940
25474W        W87005  20.262  44.424   1.888
25475W        W87006  15.318  33.494  11.086
25476W        W87007   0.852  39.440   1.241
25477W        W87008  33.029  40.432  10.473
25478W        W87009   6.791  41.326   0.785
25479W        W87010  18.205  39.036  11.875
25480W        W87011   8.763  42.495   3.240
25481W        W87012  32.435  40.337  13.988
25482W        W87013  38.370  23.186   0.948
25483W        W87014  33.541  37.484   3.304
25484W        W87015   9.848  38.417   1.380
25485W        W87016  39.546  23.080   3.774
25486W        W87017  29.944  27.027  13.902
25487W        W87018   9.800   0.266  14.929
25488W        W87019  39.054  18.169  14.432
25489W        W87020  18.195  37.339   2.769
25490W        W87021   8.699  40.520  11.546
25491W        W87022  14.717  31.023  14.452
25492W        W87023  37.439  10.372   2.749
25493W        W87024   5.287  44.807  11.065
25494W        W87025  36.568   8.882   3.707
25495W        W87026  35.599   4.907  11.386
25496W        W87027  27.631  31.608  12.413
25497W        W87028  14.722  43.406   0.802
25498W        W87029  37.512  28.023  14.465
25499W        W87030  44.755  18.569  14.793
25500W        W87031  41.977  20.128  14.858
25501W        W87032   0.387  15.101   2.231
25502W        W87033  10.214  33.959  12.344
25503W        W87034  30.907  15.240   5.785
25504W        W87035  41.801  33.621   1.721
25505W        W87036  20.609   9.880   4.129
25506W        W87037  13.618  43.464   3.782
25507W        W87038  21.111  27.161  12.452
25508W        W87039  24.597  36.358   1.342
25509W        W87040  18.707  27.532  12.831
25510W        W87041  30.577  14.239  13.366
25511W        W87042  44.921   0.445  12.567
25512W        W87043  35.024  37.882  12.024
25513W        W87044  22.515  11.660   2.894
25514W        W87045   6.852   2.875  11.610
25515W        W87046  27.030   4.895  11.490
25516W        W87047  38.826  38.062  10.417
25517W        W87048   0.392  30.017  14.376
25518W        W87049  43.489  34.995   0.362
25519W        W87050  31.546  26.973  11.550
25520W        W87051  38.412  24.042  13.342
25521W        W87052  19.737  43.986   1.353
25522W        W87053  32.451  11.713   0.243
25523W        W87054   4.414  28.657  11.919
25524W        W87055   8.770   5.813   2.782
25525W        W87056  14.258  21.235   5.288
25526W        W87057  34.006   6.890  13.958
25527W        W87058  17.602  30.541   1.694
25528W        W87059  21.686  42.399  13.501
25529W        W87060  18.178  18.089  12.887
25530W        W87061   6.688  12.265   4.215
25531W        W87062   2.371   0.343  11.992
25532W        W87063   6.914  15.805   0.790
25533W        W87064  19.538  29.592  11.077
25534W        W87065   9.792   3.953   3.381
25535W        W87066  44.332  41.330  10.014
25536W        W87067  14.731  32.533  10.941
25537W        W87068  33.444   4.299   0.913
25538W        W87069  30.593  26.631  11.434
25539W        W87070  21.725  17.136  12.841
25540W        W87071  22.125  24.981  11.927
25541W        W87072  13.616  17.707  13.517
25542W        W87073  18.296  16.299  11.042
25543W        W87074  22.617  23.645  12.987
25544W        W87075  10.815  10.380   1.237
25545W        W87076   6.767  34.467   0.950
25546W        W87077  31.453  10.823  13.541
25547W        W87078  37.051  22.176   4.804
25548W        W87079  23.157  43.767  11.411
25549W        W87080  25.183   1.466  13.464
25550W        W87081  41.841  31.502   4.642
25551W        W87082  32.490  37.497  14.310
25552W        W87083  17.583  14.303  13.416
25553W        W87084   7.205   3.836   3.865
25554W        W87085  10.191  41.451  11.398
25555W        W87086  21.032  31.082  11.517
25556W        W87087  39.019  39.480  11.976
25557W        W87088  13.634   6.833   2.397
25558W        W87089   5.285  28.007  14.937
25559W        W87090  41.844  18.225   4.319
25560W        W87091  32.460  11.266   0.826
25561W        W87092   4.892  39.928   3.297
25562W        W87093   1.802  19.204   1.330
25563W        W87094  20.183  42.411   2.671
25564W        W87095  33.022   0.399   0.957
25565W        W87096  27.181  29.560  12.078
25566W        W87097  42.464  44.987  12.922
25567W        W87098  32.528  30.629  11.920
25568W        W87099  29.459  16.089  11.118
25569W        W87100  12.289  44.435   3.781
25570W        W87101  43.819   2.924   3.791
25571W        W87102  33.598  24.208  10.463
25572W        W87103  35.028  38.434   0.892
25573W        W87104  41.305  38.495  14.373
25574W        W87105  24.214   6.256  14.021
25575W        W87106  28.113  32.011   2.767
25576W        W87107  44.429  19.110   3.215
25577W        W87108   0.763   7.725   4.773
25578W        W87109  14.747  25.060  14.974
25579W        W87110  42.305   0.858  14.312
25580W        W87111  17.307  23.671   1.239
25581W        W87112  37.442   6.860  12.541
25582W        W87113   6.194  41.960  14.477
25583W        W87114  28.038  21.109   1.761
25584W        W87115   5.811  23.640   2.396
25585W        W87116  14.616  35.928   1.905
25586W        W87117  30.103  42.934   2.254
25587W        W87118  31.097  10.350  14.296
25588W        W87119  30.005   8.810   0.452
25589W        W87120  25.087   7.863   1.377
25590W        W87121  36.955  44.969  14.810
25591W        W87122  23.594  41.535  13.500
25592W        W87123  20.523  25.593  13.427
25593W        W87124  23.088  11.204  12.504
25594W        W87125  35.550  43.499  11.953
25595W        W87126   9.270   4.738  12.438
25596W        W87127  19.763  30.523  11.059
25597W        W87128  37.546  40.389   0.289
25598W        W87129  35.369   1.897   0.844
25599W        W87130  12.149   7.804  13.444
25600W        W87131  44.425  29.170   4.172
25601W        W87132  44.311   2.294  11.456
25602W        W87133   8.713  26.645  14.481
25603W        W87134  41.348  34.566  14.317
25604W        W87135  19.552  17.795   0.751
25605W        W87136  14.719  41.861   3.163
25606W        W87137  32.455  34.437   3.284
25607W        W87138  23.718  44.987   1.238
25608W        W87139  21.102  28.099  11.084
25609W        W87140  11.143  23.714  11.527
25610W        W87141  33.578   4.807  12.377
25611W        W87142  19.671   8.238   3.821
25612W        W87143  21.583  20.127   2.244
25613W        W87144  14.775  35.486  14.786
25614W        W87145   8.803   4.374  13.817
25615W        W87146  19.145  28.110  11.934
25616W        W87147   8.877  13.607  12.975
25617W        W87148  38.529  23.501  13.054
25618W        W87149  10.724   7.256   1.223
25619W        W87150  40.478  11.175   0.946
25620W        W87151  37.956  40.315  11.084
25621W        W87152   6.387  17.235   3.764
25622W        W87153  22.520  14.766   2.366
25623W        W87154  33.510  30.096  14.498
25624W        W87155   0.287   9.378   3.849
25625W        W87156  19.630  25.667  12.887
25626W        W87157  43.922  26.057   2.388
25627W        W87158   8.821  34.928   2.329
25628W        W87159  40.383  12.843  10.416
25629W        W87160  18.217   4.855  10.628
25630W        W87161  18.763   2.732  13.055
25631W        W87162   7.906   1.818  11.558
25632W        W87163   4.873   4.306   1.742
25633W        W87164  28.185  26.496  10.972
25634W        W87165  18.219  35.597  12.972
25635W        W87166  21.128  36.871  12.362
25636W        W87167   5.395  39.866  12.905
25637W        W87168  34.890  43.270   2.330
25638W        W87169   4.818  31.012   0.362
25639W        W87170   1.974   2.303  10.950
25640W        W87171  10.633  28.508  12.376
25641W        W87172  26.126  17.246   2.294
25642W        W87173  44.373  33.039  12.528
25643W        W87174  13.297  20.074   1.714
25644W        W87175  33.901  30.524  13.545
25645W        W87176   1.874  18.125  13.976
25646W        W87177  11.815  32.956   3.854
25647W        W87178  31.046  31.101   2.770
25648W        W87179  17.757  22.516   2.337
25649W        W87180  16.611   3.839  11.573
25650W        W87181  42.874  27.483   2.338
25651W        W87182   3.272  36.991  12.860
25652W        W87183  29.995  42.859  14.319
25653W        W87184  41.333  35.043  13.807
25654W        W87185  10.787  39.820  11.507
25655W        W87186   8.666  22.068   1.237
25656W        W87187  31.046  23.026  11.078
25657W        W87188  27.946   1.280   4.322
25658W        W87189  38.517  36.492   9.964
25659W        W87190   0.919  13.601  13.404
25660W        W87191  25.702  43.349   2.851
25661W        W87192  16.567  36.963   2.374
25662W        W87193  16.798  43.899   3.332
25663W        W87194   5.257  20.100   2.234
25664W        W87195  42.320  38.543   0.406
25665W        W87196   0.251  12.795   4.170
25666W        W87197  37.865  35.547   0.415
25667W        W87198  33.944  32.139   0.257
25668W        W87199  39.018  43.418  10.440
25669W        W87200  17.199  41.982  12.482
25670W        W87201   4.316  22.223  14.873
25671W        W87202  14.335  15.746   1.788
25672W        W87203  38.552  24.548  11.938
25673W        W87204   6.403  32.635   1.830
25674W        W87205  13.156  11.166  12.920
25675W        W87206  37.515   8.791   3.832
25676W        W87207  19.541  44.391  11.423
25677W        W87208  26.033  39.978   3.677
25678W        W87209   8.827  43.998  11.411
25679W        W87210  27.577   0.799  11.080
25680W        W87211  12.175  11.142  14.366
25681W        W87212  12.612  31.037   3.750
25682W        W87213  21.729  30.087  13.438
25683W        W87214  12.206  14.324   0.941
25684W        W87215  27.173  19.741  13.794
25685W        W87216  11.248   3.847  12.432
25686W        W87217  17.598   3.831   2.379
25687W        W87218  37.085  33.972  14.345
25688W        W87219  30.122  31.428  11.423
25689W        W87220  33.544  26.070   0.781
25690W        W87221  33.454  16.222  13.446
25691W        W87222  15.625  21.017   9.979
25692W        W87223  32.136  10.867   2.870
25693W        W87224  18.746  16.576   2.721
25694W        W87225  44.771  35.996   3.277
25695W        W87226  29.508  30.552  11.901
25696W        W87227  29.631  13.259   1.413
25697W        W87228  37.023  34.538   3.754
25698W        W87229  12.674   4.390  12.437
25699W        W87230  39.320  27.016   2.753
25700W        W87231  44.769  41.475   1.378
25701W        W87232   9.702  42.988  10.979
25702W        W87233  11.866   0.355  13.479
25703W        W87234   9.345  28.559   0.963
25704W        W87235   8.763  21.519   0.830
25705W        W87236  11.766  37.579   2.865
25706W        W87237  33.568  37.555  14.513
25707W        W87238  22.564   0.358  13.902
25708W        W87239  21.675   4.250  14.365
25709W        W87240  41.867  27.635  10.635
25710W        W87241  33.900  43.789   2.353
25711W        W87242   7.359  41.022   4.729
25712W        W87243  34.943  34.058   1.360
25713W        W87244  21.558  13.816   4.251
25714W        W87245   8.388   8.255  14.337
25715W        W87246  19.104  26.980   0.771
25716W        W87247  17.243  30.144   4.145
25717W        W87248  20.068  14.258  13.334
25718W        W87249  13.715  32.545  13.846
25719W        W87250  13.739  24.982   5.132
25720W        W87251  41.989  19.741   1.285
25721W        W87252  21.256  28.994  12.026
25722W        W87253  34.952  30.566   4.312
25723W        W87254  14.230   2.266   3.753
25724W        W87255  32.936  41.924   1.383
25725W        W87256   6.889  10.654   3.342
25726W        W87257   3.768  24.225  13.525
25727W        W87258  34.573  10.252  14.859
25728W        W87259   3.371  31.638  12.467
25729W        W87260  42.494  20.707  13.857
25730W        W87261   9.346  28.087   4.279
25731W        W87262   3.856  40.977   3.170
25732W        W87263  36.042   5.245   4.343
25733W        W87264  40.903  36.550   1.445
25734W        W87265  35.576  29.564   1.297
25735W        W87266  25.697  27.673   0.482
25736W        W87267  22.196   7.779   3.178
25737W        W87268  26.041  39.850   3.304
25738W        W87269  23.220  42.926   4.759
25739W        W87270   8.198  15.171   2.191
25740W        W87271  21.637  22.714  10.556
25741W        W87272   5.722  26.598   2.895
25742W        W87273  12.152  11.263  10.958
25743W        W87274  33.547  11.167  10.502
25744W        W87275  19.641  44.473  13.923
25745W        W87276  12.175  38.342  12.913
25746W        W87277   1.935  42.388  11.070
25747W        W87278  43.301   4.909  11.074
25748W        W87279   2.873   3.801  12.024
25749W        W87280  17.233   5.396  10.463
25750W        W87281  39.014  27.948  11.469
25751W        W87282  42.283  11.268  10.424
25752W        W87283  43.825  28.464  13.424
25753W        W87284  43.781  31.922   3.265
25754W        W87285  27.078  19.096   4.269
25755W        W87286  34.899  24.020  10.519
25756W        W87287  13.277   9.325   4.196
25757W        W87288  31.994  14.588   5.282
25758W        W87289   0.319  23.192  12.551
25759W        W87290  16.733  36.071  13.859
25760W        W87291  13.211  35.082   1.369
25761W        W87292  16.712   3.389  14.014
25762W        W87293  13.616  32.525   5.755
25763W        W87294   7.892  29.483   4.257
25764W        W87295  15.632   7.906  12.498
25765W        W87296  19.120  24.166  13.451
25766W        W87297  26.568  13.816  14.961
25767W        W87298  17.240   2.256   2.823
25768W        W87299  19.046  14.629  11.105
25769W        W87300  10.204  30.539  11.065
25770W        W87301  43.808  25.074  14.818
25771W        W87302   8.776  11.838   3.358
25772W        W87303  38.024  30.956  10.411
25773W        W87304  33.524  31.945   1.297
25774W        W87305  34.585  26.078   3.285
25775W        W87306   3.283   7.730  14.932
25776W        W87307  14.214  19.243   1.823
25777W        W87308  40.985  35.467   0.770
25778W        W87309  26.652   5.229  12.928
25779W        W87310  43.923  24.615   1.746
25780W        W87311  23.140  23.160   1.871
25781W        W87312  31.081  24.658   2.859
25782W        W87313  24.627  29.092  12.392
25783W        W87314   6.794  28.611   3.697
25784W        W87315   8.791   1.356   3.328
25785W        W87316  27.976  41.369   2.312
25786W        W87317  22.505  28.169  12.408
25787W        W87318  34.379  18.212  11.373
25788W        W87319  27.603   9.822  10.005
25789W        W87320  18.288  41.501  11.497
25790W        W87321  44.928  33.623   4.602
25791W        W87322  11.662  30.640   0.244
25792W        W87323  31.944  23.241   3.644
25793W        W87324  40.403  14.607  11.462
25794W        W87325  11.316   8.182   0.291
25795W        W87326  22.123  10.259  13.816
25796W        W87327  38.848  16.223  15.000
25797W        W87328  44.959  20.651  10.890
25798W        W87329  44.983   8.724  14.299
25799W        W87330  25.678   2.230  14.481
25800W        W87331   4.824  17.278   1.399
25801W        W87332  23.728  44.273   0.728
25802W        W87333  42.872  43.879  13.427
25803W        W87334   4.752  10.231   0.828
25804W        W87335  22.662   0.282   3.358
25805W        W87336  12.257  13.840  11.967
25806W        W87337  28.161   3.938   4.663
25807W        W87338  30.477   0.906   4.654
25808W        W87339   9.806  10.143   4.200
25809W        W87340  27.110   4.880  12.862
25810W        W87341  42.934   7.874  12.992
25811W        W87342   9.739   4.898  11.115
25812W        W87343  26.132  12.627  12.352
25813W        W87344   5.417  31.561  14.776
25814W        W87345   9.656  42.797   4.334
25815W        W87346  15.318  37.464   1.385
25816W        W87347  30.929  13.283   4.332
25817W        W87348  34.956  27.003   2.194
25818W        W87349  32.589  36.044   0.361
25819W        W87350  38.072   3.758  13.437
25820W        W87351  36.439  25.014   1.780
25821W        W87352  36.937  21.162  10.474
25822W        W87353  44.392   9.843  14.500
25823W        W87354  11.239  32.912  12.862
25824W        W87355  25.138  33.395   4.352
25825W        W87356   2.311  26.458  12.385
25826W        W87357  15.595  30.509   1.815
25827W        W87358   0.363   6.715   0.872
25828W        W87359   2.272  36.911   1.935
25829W        W87360   4.266  23.720   4.599
25830W        W87361  37.030  39.969  11.378
25831W        W87362  20.230   5.215  12.081
25832W        W87363   0.927  12.132   3.801
25833W        W87364  33.881  10.217  14.031
25834W        W87365  37.419   2.312   0.396
25835W        W87366   9.757   4.730  13.813
25836W        W87367   6.386  44.984   3.249
25837W        W87368   5.700   1.974  12.951
25838W        W87369  35.531  30.131   2.193
25839W        W87370   3.419  28.474   5.180
25840W        W87371  19.773   5.386  11.538
25841W        W87372  39.869  35.917   2.702
25842W        W87373  22.608  37.385   2.861
25843W        W87374   2.350  41.320  13.360
25844W        W87375  35.427  28.677   4.789
25845W        W87376  42.516  25.050  14.902
25846W        W87377  10.683  39.398  11.026
25847W        W87378  31.132  22.998  10.500
25848W        W87379  36.920   7.834  12.408
25849W        W87380   7.812  13.109   5.278
25850W        W87381  24.159  23.585   4.152
25851W        W87382  26.603  12.798   4.292
25852W        W87383  37.562  25.131  14.409
25853W        W87384  34.516   7.884  10.434
25854W        W87385  16.154  40.303   3.791
25855W        W87386   5.909  10.220   3.803
25856W        W87387   0.460  44.418  11.066
25857W        W87388  19.047  35.458   3.693
25858W        W87389  25.113   6.756   0.949
25859W        W87390  43.500  14.191   2.705
25860W        W87391  40.848  36.488   3.203
25861W        W87392  18.098  40.539  12.360
25862W        W87393  26.177  19.230   3.865
25863W        W87394  11.848  39.420   0.282
25864W        W87395  42.478  14.629  11.936
25865W        W87396  29.638  42.366  14.371
25866W        W87397  37.997   8.226   1.318
25867W        W87398  27.120  42.810   0.292
25868W        W87399  30.040  38.845  14.982
25869W        W87400  17.265  12.637  10.160
25870W        W87401  20.252  27.131   2.723
25871W        W87402  42.938   1.735   0.314
25872W        W87403  28.155  30.493   2.398
25873W        W87404  37.398  38.006  13.824
25874W        W87405   5.892  37.349  12.343
25875W        W87406  31.489  35.433   3.760
25876W        W87407  17.746  34.370   2.825
25877W        W87408  44.836  25.706   4.680
25878W        W87409  40.321  18.181  10.006
25879W        W87410  38.347   1.929  14.315
25880W        W87411  38.435  37.407   2.399
25881W        W87412  29.000  13.324  12.448
25882W        W87413  33.558  38.537  12.953
25883W        W87414  43.320  14.705   1.298
25884W        W87415  22.636  21.678  10.612
25885W        W87416   7.673  35.589  11.449
25886W        W87417  10.276  36.082  10.123
25887W        W87418  14.242  10.778   2.371
25888W        W87419   2.880  27.487   0.286
25889W        W87420  40.992  11.656  14.386
25890W        W87421  34.045   9.320  11.905
25891W        W87422  19.220  30.014  13.447
25892W        W87423  24.509  40.368  10.077
25893W        W87424  26.551  22.086  11.497
25894W        W87425  20.650   6.265   3.809
25895W        W87426  26.096   4.864   3.866
25896W        W87427  13.179   7.300   5.100
25897W        W87428   8.883  12.641   1.383
25898W        W87429  27.020  40.014   1.289
25899W        W87430  35.466  22.029  11.028
25900W        W87431  14.668  21.593  10.520
25901W        W87432  37.570  42.891  12.828
25902W        W87433   9.706  11.363  13.359
25903W        W87434  28.034  21.060   5.293
25904W        W87435  16.120  32.077   0.740
25905W        W87436   8.791  40.380   2.274
25906W        W87437   8.379  16.591   1.308
25907W        W87438  21.079  32.034   1.838
25908W        W87439  13.260  33.479   3.249
25909W        W87440   4.818  32.426   2.830
25910W        W87441  23.572  15.583   0.398
25911W        W87442  27.571  21.615  11.070
25912W        W87443  41.424  14.641  10.448
25913W        W87444  12.662  36.553  13.413
25914W        W87445  24.669  15.705   4.829
25915W        W87446  16.278  43.020  12.842
25916W        W87447  23.117  24.077  13.979
25917W        W87448  42.451  21.055   4.245
25918W        W87449   2.750  43.996  12.465
25919W        W87450   4.911   7.842   4.287
25920W        W87451  24.654  43.299  11.383
25921W        W87452  30.420  33.110  14.283
25922W        W87453  42.953  33.044   2.281
25923W        W87454  40.024  21.523   4.302
25924W        W87455  19.245  33.474   2.366
25925W        W87456  41.928  43.857   4.653
25926W        W87457  39.944  26.101   1.772
25927W        W87458   1.970  23.616  14.353
25928W        W87459  19.241  13.736  10.525
25929W        W87460  15.820   7.682  11.054
25930W        W87461  43.515   9.171  13.379
25931W        W87462  24.994  15.635   2.704
25932W        W87463  39.061  29.478   3.380
25933W        W87464   4.794   0.914   3.182
25934W        W87465  34.552  40.368   2.348
25935W        W87466  32.544  27.514  13.371
25936W        W87467  41.842  22.672  13.032
25937W        W87468   9.199  30.488   3.644
25938W        W87469  42.342   4.418   3.816
25939W        W87470  19.281  32.059   5.084
25940W        W87471   3.764  42.012   3.368
25941W        W87472  31.531  22.517  14.846
25942W        W87473   2.340   4.858   4.346
25943W        W87474   1.450   9.752  14.490
25944W        W87475  16.628   8.388   4.309
25945W        W87476  32.091  35.010   5.170
25946W        W87477  14.283   8.237   3.223
25947W        W87478  17.626  40.936   2.364
25948W        W87479  25.998  30.527  12.472
25949W        W87480   8.377  20.065   1.806
25950W        W87481  19.101  26.163   0.259
25951W        W87482   8.754  26.603   0.825
25952W        W87483  42.972  44.828   0.295
25953W        W87484   7.317  42.377   1.894
25954W        W87485  18.118  34.919  14.865
25955W        W87486   4.786  16.601   2.806
25956W        W87487  31.530  43.447  11.050
25957W        W87488  13.121   1.408  14.915
25958W        W87489   3.310  39.815  11.439
25959W        W87490   7.172  20.667   3.301
25960W        W87491  19.686  10.862  14.409
25961W        W87492  39.838  22.607   0.479
25962W        W87493  19.554  31.127  14.492
25963W        W87494  34.042  17.575   1.762
25964W        W87495  27.118   5.924  13.877
25965W        W87496   2.241  35.871  13.015
25966W        W87497  30.424  13.604  11.104
25967W        W87498  27.686  26.466  14.404
25968W        W87499  40.540   7.701  11.088
25969W        W87500   9.879  18.239  13.340
25970W        W87501  10.671  44.465   1.381
25971W        W87502  43.385  18.556   4.284
25972W        W87503  28.121   0.791  12.012
25973W        W87504  21.244  19.664   0.468
25974W        W87505  31.953  13.806   2.725
25975W        W87506   3.770  37.514  10.066
25976W        W87507  23.735  24.670  12.854
25977W        W87508  33.519  22.170   1.224
25978W        W87509  41.880  23.722   1.731
25979W        W87510   1.346  35.005   3.274
25980W        W87511   0.432  37.975   3.163
25981W        W87512  33.877   0.746   2.349
25982W        W87513  38.984  21.664  14.446
25983W        W87514   8.374  44.362   4.320
25984W        W87515  36.508  22.020   2.297
25985W        W87516   1.478  19.059  13.838
25986W        W87517   8.897   0.797  13.431
25987W        W87518  44.855  44.798   2.889
25988W        W87519  39.991  24.209   2.744
25989W        W87520   5.901  38.566  14.512
25990W        W87521  29.128  19.131   2.769
25991W        W87522   9.711  23.152   2.730
25992W        W87523  29.604  28.929  13.009
25993W        W87524  25.122  17.080  10.413
25994W        W87525   7.289  32.506  11.861
25995W        W87526   5.701  16.201  12.975
25996W        W87527  30.645  23.581  12.578
25997W        W87528  13.619   5.244   3.189
25998W        W87529  39.329  37.361   2.318
25999W        W87530  39.829  41.439   3.653
26000W        W87531   0.471  18.191  11.496
26001W        W87532  41.485   1.329   0.758
26002W        W87533   5.274  18.594   3.661
26003W        W87534  24.634   8.835  14.030
26004W        W87535   9.284  17.243  13.398
26005W        W87536  13.817  41.017   0.848
26006W        W87537  42.325  12.755   1.777
26007W        W87538   2.962  42.438  12.359
26008W        W87539  15.699  31.458  12.458
26009W        W87540  14.251  17.213   0.325
26010W        W87541   8.825  18.267   3.766
26011W        W87542  12.632  30.943   2.702
26012W        W87543  16.772  29.108  12.368
26013W        W87544  40.423  16.180  11.602
26014W        W87545  28.065  42.786   0.390
26015W        W87546  38.359  22.190  14.817
26016W        W87547  44.291  12.124  14.789
26017W        W87548  38.893  18.171  10.426
26018W        W87549  31.489   7.769   2.221
26019W        W87550  44.468  14.264  14.314
26020W        W87551   0.374  13.172   2.815
26021W        W87552   9.370   7.845  13.016
26022W        W87553   4.359  22.163   0.883
26023W        W87554   8.324  41.389  11.946
26024W        W87555  41.526   9.167  12.414
26025W        W87556   6.800  18.240  13.408
26026W        W87557   6.898  17.141   3.210
26027W        W87558  17.246  29.653   0.412
26028W        W87559   1.833   0.866   2.672
26029W        W87560   1.417   2.728  11.532
26030W        W87561  26.084  20.246   2.333
26031W        W87562  20.073  27.027   2.402
26032W        W87563  21.067  41.026   0.267
26033W        W87564  21.062  35.418  12.932
26034W        W87565  32.578  29.970   2.827
26035W        W87566   7.177  33.513  11.443
26036W        W87567  42.295  37.415   5.136
26037W        W87568   3.432  10.265  13.329
26038W        W87569  44.963  16.599   2.219
26039W        W87570  25.979   4.396  13.533
26040W        W87571  13.129  38.358   1.879
26041W        W87572  26.002  34.919   1.873
26042W        W87573  10.270  27.075  12.869
26043W        W87574   9.684  41.031  11.487
26044W        W87575   1.415  14.831  13.408
26045W        W87576  30.586  23.733   1.916
26046W        W87577  31.495  24.991   4.227
26047W        W87578  23.142  24.103   1.762
26048W        W87579  33.942  42.281   2.411
26049W        W87580  17.213  19.162   2.235
26050W        W87581  10.173   3.407   1.733
26051W        W87582  27.453   3.861   3.837
26052W        W87583   8.695  44.804  11.896
26053W        W87584   5.403  13.343  13.351
26054W        W87585  27.181  41.820  12.892
26055W        W87586  42.845   6.709  13.471
26056W        W87587  26.681  18.732  12.032
26057W        W87588   5.842   3.941  11.403
26058W        W87589  35.082   6.215   4.817
26059W        W87590  23.067   7.268  13.897
26060W        W87591  17.765   6.222   1.403
26061W        W87592  30.617  19.534   4.815
26062W        W87593  25.489  43.322  14.349
26063W        W87594  41.869  40.894   0.883
26064W        W87595  26.609  42.355  10.890
26065W        W87596  34.570  43.468  11.051
26066W        W87597   6.314  18.720   0.866
26067W        W87598   0.862  32.006  10.551
26068W        W87599  17.593  35.430   4.165
26069W        W87600  23.523  11.254   4.319
26070W        W87601   0.871  25.997   4.602
26071W        W87602   7.284  33.100   2.308
26072W        W87603  30.451  29.498  13.520
26073W        W87604  32.554  13.641  11.053
26074W        W87605  40.915   8.880   1.720
26075W        W87606  43.509  22.583   3.848
26076W        W87607   0.970  42.834   3.774
26077W        W87608  41.455  23.721   2.419
26078W        W87609  36.864  14.195  12.405
26079W        W87610   6.757  29.546   4.141
26080W        W87611  28.485  33.904  11.444
26081W        W87612   5.899  43.952  11.036
26082W        W87613  13.169  41.342  14.907
26083W        W87614  28.577  23.701  12.938
26084W        W87615  21.746  27.991   4.614
26085W        W87616   5.844  27.493  13.969
26086W        W87617  14.813  41.444  11.568
26087W        W87618  26.489  13.827   1.809
26088W        W87619   7.330   0.392  14.509
26089W        W87620   0.467  15.276  10.956
26090W        W87621  38.868  31.952   5.240
26091W        W87622  28.021  18.665   2.298
26092W        W87623  25.677  27.547   3.692
26093W        W87624  29.629   9.323   1.771
26094W        W87625  31.093  18.716   3.277
26095W        W87626  21.245  29.511  10.033
26096W        W87627   3.339   3.301   2.766
26097W        W87628  20.599  40.863  14.500
26098W        W87629  36.352  42.869  10.429
26099W        W87630  20.199  18.082  11.062
26100W        W87631  19.195  16.295   1.412
26101W        W87632  40.940   2.772   4.779
26102W        W87633  39.419  29.952  11.528
26103W        W87634   2.436   5.701  12.417
26104W        W87635  17.673  36.016   1.870
26105W        W87636  30.932   9.779   3.855
26106W        W87637  35.052  23.051   4.638
26107W        W87638  31.629  17.801  13.529
26108W        W87639  32.484  24.022   4.299
26109W        W87640  30.925  14.790  14.483
26110W        W87641  15.185  26.051  14.411
26111W        W87642  43.013  23.098  14.300
26112W        W87643  29.171  25.632   0.944
26113W        W87644   0.408   5.795   0.827
26114W        W87645  13.619  42.441   4.694
26115W        W87646  23.040  19.263   4.148
26116W        W87647  11.190  23.048   4.645
26117W        W87648  42.930  28.569  12.899
26118W        W87649  12.166  28.540  12.543
26119W        W87650  31.527  40.872  12.857
26120W        W87651  44.473  37.001  12.862
26121W        W87652   5.841  38.825   0.354
26122W        W87653  32.074  22.079  14.907
26123W        W87654  33.119  26.681  13.398
26124W        W87655  18.699  37.362  14.810
26125W        W87656  21.634  12.301  12.519
26126W        W87657   9.881  11.149   0.794
26127W        W87658  42.967   7.863  14.800
26128W        W87659  32.920  34.066   1.436
26129W        W87660   2.727  13.220  13.839
26130W        W87661  40.993  15.760   1.325
26131W        W87662   6.867  11.136   1.709
26132W        W87663   9.731  24.988   0.273
26133W        W87664   5.354   7.886   1.254
26134W        W87665  27.068  40.858   1.346
26135W        W87666  14.124  25.634  10.909
26136W        W87667  34.447  10.828   3.640
26137W        W87668  24.219  34.914   3.212
26138W        W87669   5.866  41.927   2.364
26139W        W87670  15.166  24.578   3.158
26140W        W87671  19.702  25.152  10.510
26141W        W87672  14.601  18.749   0.409
26142W        W87673  18.053   8.396   4.320
26143W        W87674  39.909  38.466  12.444
26144W        W87675   1.350  44.942   3.813
26145W        W87676   6.302  34.998  13.980
26146W        W87677  18.146  44.885   3.665
26147W        W87678  43.474   7.356   4.202
26148W        W87679  42.888   0.417  14.001
26149W        W87680   7.200  11.171   1.439
26150W        W87681  29.512  11.723  13.382
26151W        W87682  28.075  23.007  14.938
26152W        W87683   1.936  17.294  13.465
26153W        W87684   5.898  20.052   0.354
26154W        W87685  14.733  37.464  13.397
26155W        W87686  36.552   0.836   3.274
26156W        W87687  28.631  36.370   2.811
26157W        W87688  33.576  41.531   3.240
26158W        W87689  25.709  41.398   1.713
26159W        W87690   3.251  18.553   4.671
26160W        W87691  23.123  35.926   1.740
26161W        W87692  38.569  31.078  14.404
26162W        W87693  32.405  15.682   1.851
26163W        W87694  24.586  21.648   0.328
26164W        W87695  29.988   3.286  14.789
26165W        W87696  10.877  29.640  11.945
26166W        W87697   5.248  36.438  12.965
26167W        W87698  32.508  27.518  12.874
26168W        W87699  23.646  22.541   3.156
26169W        W87700   2.408  21.673  10.094
26170W        W87701  38.062   2.439   0.475
26171W        W87702  17.742   4.281  10.941
26172W        W87703   0.984  44.902   2.664
26173W        W87704   8.763  28.473  14.454
26174W        W87705   1.773   3.833  10.490
26175W        W87706  36.944  22.566  11.605
26176W        W87707  15.681  36.876  14.949
26177W        W87708  17.178  16.302   2.247
26178W        W87709  23.001  32.990  14.495
26179W        W87710  41.390  35.873  14.879
26180W        W87711  10.664  34.500   4.141
26181W        W87712  12.128  41.528  14.968
26182W        W87713   7.275  13.635   0.320
26183W        W87714   7.764  16.215  10.974
26184W        W87715  10.794   8.711  13.427
26185W        W87716  29.666   8.191  12.876
26186W        W87717  13.826  19.062   4.280
26187W        W87718  12.738   3.365   0.298
26188W        W87719  38.073   7.252   1.753
26189W        W87720  17.726  21.631   1.352
26190W        W87721  30.022  22.214  13.470
26191W        W87722  26.158  15.644  14.480
26192W        W87723  39.954  40.922   3.278
26193W        W87724  17.767  25.003   1.262
26194W        W87725  39.852  25.089  12.955
26195W        W87726  25.191  43.339  12.083
26196W        W87727   5.794   3.878  13.443
26197W        W87728  21.076  25.101  14.337
26198W        W87729   9.244   0.757   2.889
26199W        W87730  31.401  44.359   3.657
26200W        W87731  24.705  35.558   1.808
26201W        W87732  20.752  19.549   2.865
26202W        W87733  36.073  35.016  10.484
26203W        W87734  38.931  30.575  12.485
26204W        W87735  31.624  16.190  11.438
26205W        W87736  36.985  18.222   3.217
26206W        W87737  10.784  19.550  12.404
26207W        W87738  21.102  42.514   0.922
26208W        W87739  37.458  31.047  12.500
26209W        W87740   2.260   8.782  14.829
26210W        W87741  42.375  25.535  12.071
26211W        W87742   1.925  21.215   2.832
26212W        W87743   5.413  31.486  12.991
26213W        W87744  24.506  21.115   1.218
26214W        W87745   4.384  38.515   3.371
26215W        W87746  18.765  35.863  11.533
26216W        W87747  35.380  42.344   1.754
26217W        W87748   6.364  26.574   2.881
26218W        W87749  37.009   4.910   0.295
26219W        W87750  11.779  17.269  14.997
26220W        W87751  13.730   7.171   0.865
26221W        W87752  29.952  33.578   4.765
26222W        W87753  24.154  35.001   1.910
26223W        W87754   7.179   2.425  11.517
26224W        W87755  34.035  18.709   0.348
26225W        W87756   1.399  43.490   4.759
26226W        W87757   4.898  24.662   0.318
26227W        W87758  28.488  37.075   1.240
26228W        W87759  31.954  28.980  11.468
26229W        W87760  21.578   0.759   3.711
26230W        W87761  22.236  29.516   2.363
26231W        W87762  25.600  28.156   1.697
26232W        W87763   3.738   1.368  13.418
26233W        W87764  19.749  34.084  11.436
26234W        W87765  42.459   6.744  13.514
26235W        W87766  17.119   6.226   1.737
26236W        W87767  17.576  12.160   0.338
26237W        W87768   2.287   4.275   4.615
26238W        W87769  41.878   3.931  13.829
26239W        W87770  19.568  23.992  12.449
26240W        W87771  11.799   9.385  13.823
26241W        W87772  31.011  20.644   0.876
26242W        W87773   4.885  25.544   2.305
26243W        W87774  42.919   1.787   0.772
26244W        W87775  11.711  24.101  10.922
26245W        W87776  42.008   5.801   0.821
26246W        W87777  10.328  38.832   0.755
26247W        W87778  12.266  30.497  13.430
26248W        W87779  23.239  33.955  12.567
26249W        W87780  31.620  30.022   1.724
26250W        W87781  10.270   1.875   2.794
26251W        W87782  37.832  19.693   3.211
26252W        W87783   6.328  34.527  10.018
26253W        W87784   4.386  36.456   4.737
26254W        W87785  39.545  13.157   5.575
26255W        W87786  28.966  11.190   0.444
26256W        W87787  31.926   2.419   1.902
26257W        W87788  29.481   1.739   3.789
26258W        W87789  36.073  29.552  11.865
26259W        W87790  11.287  10.664   4.324
26260W        W87791  43.398  38.541   2.393
26261W        W87792   4.242  23.670   0.925
26262W        W87793  19.261  36.587   0.474
26263W        W87794   7.816   0.274  14.975
26264W        W87795   6.859   6.248  13.536
26265W        W87796  13.638  25.616   1.874
26266W        W87797  17.200   3.829   0.895
26267W        W87798  21.160  20.696   4.703
26268W        W87799  34.524   8.667   3.365
26269W        W87800  26.009  10.820   1.772
26270W        W87801  43.924  32.893   2.689
26271W        W87802  19.718  23.542  13.407
26272W        W87803  35.992  41.870   3.264
26273W        W87804   7.679   5.217   0.775
26274W        W87805   5.851   4.231  13.460
26275W        W87806  10.681  14.591   3.865
26276W        W87807  23.706  24.097  14.322
26277W        W87808  33.002  16.753   9.983
26278W        W87809   6.680  13.153  14.960
26279W        W87810  27.142  35.387  14.942
26280W        W87811  33.116  13.680   3.721
26281W        W87812  25.519  31.943  11.096
26282W        W87813   3.423  24.708  13.848
26283W        W87814   5.357  35.934   1.242
26284W        W87815  39.400  36.865   4.825
26285W        W87816   6.877  13.251  11.538
26286W        W87817  36.074  35.927  13.005
26287W        W87818   7.370  27.575  13.872
26288W        W87819  12.149  41.325  11.547
26289W        W87820  27.546  41.977   2.252
26290W        W87821  41.967   2.889  13.393
26291W        W87822   8.176  13.208  10.450
26292W        W87823   7.678  21.743   4.233
26293W        W87824  41.416   2.472  11.459
26294W        W87825  19.666  38.845  11.513
26295W        W87826  17.627  12.615  12.925
26296W        W87827  28.005  14.590   4.297
26297W        W87828  11.763  37.963   0.793
26298W        W87829  24.554   0.846  11.893
26299W        W87830  15.606   2.892  13.928
26300W        W87831   9.826   3.769  12.921
26301W        W87832  11.785   5.918  11.946
26302W        W87833   2.817  44.753  14.883
26303W        W87834  21.084   3.950  10.947
26304W        W87835  10.700  35.918  11.046
26305W        W87836  33.918   2.295  10.455
26306W        W87837   6.358  23.152   0.901
26307W        W87838  31.969  31.077  14.951
26308W        W87839  44.450   8.207   0.856
26309W        W87840  44.933  29.442  14.511
26310W        W87841  34.970  18.762  14.951
26311W        W87842  20.692  32.596   0.843
26312W        W87843  30.969  19.677   3.376
26313W        W87844  30.966   4.389  11.534
26314W        W87845  22.212   4.423   0.966
26315W        W87846  30.953  40.822   0.827
26316W        W87847   3.864  44.899  13.051
26317W        W87848  21.682  26.579   2.272
26318W        W87849  32.609  28.172   4.116
26319W        W87850   6.235  25.972  14.867
26320W        W87851  12.752  34.486   2.373
26321W        W87852   4.435  37.427   3.252
26322W        W87853   5.719  44.999   4.240
26323W        W87854  25.181  21.025   1.807
26324W        W87855   5.430   4.360  12.521
26325W        W87856  36.585  26.662  14.003
26326W        W87857  18.196   9.260   2.871
26327W        W87858  14.803  35.422   0.313
26328W        W87859  21.108  17.560  12.974
26329W        W87860  31.106  27.194  10.464
26330W        W87861  15.786  35.365   3.249
26331W        W87862  10.359  30.952  11.578
26332W        W87863   7.897   7.380   0.368
26333W        W87864  13.160  15.196  11.593
26334W        W87865  23.662   2.906   0.468
26335W        W87866  29.038  10.838  12.932
26336W        W87867   6.779  27.096   0.401
26337W        W87868  17.611  18.767  14.898
26338W        W87869   9.790  36.443  10.510
26339W        W87870  28.141   5.239   0.329
26340W        W87871  26.142  29.614  11.927
26341W        W87872  27.156  18.145  11.938
26342W        W87873  43.439  29.964   2.256
26343W        W87874  22.053  20.583   1.917
26344W        W87875  25.675  26.985   0.755
26345W        W87876  15.246  28.665   2.839
26346W        W87877   4.421  40.360  13.407
26347W        W87878  38.428  40.901   0.437
26348W        W87879  21.743  34.004   3.376
26349W        W87880  34.439  27.011   2.328
26350W        W87881  27.078   7.729   1.377
26351W        W87882   4.259   8.749   2.206
26352W        W87883  34.545  32.047  11.597
26353W        W87884  10.283   6.922   0.776
26354W        W87885  18.545   9.872  10.901
26355W        W87886  20.203  12.737  12.035
26356W        W87887  23.221   2.347  11.005
26357W        W87888  33.433  22.581   3.202
26358W        W87889  14.647  10.659  14.365
26359W        W87890   2.873  31.460  11.411
26360W        W87891  44.863  28.944  12.535
26361W        W87892  25.568   3.348   0.746
26362W        W87893  44.402  18.710   0.339
26363W        W87894  26.043  32.056   4.168
26364W        W87895  28.146  34.553  11.859
26365W        W87896  22.507  19.231  12.923
26366W        W87897  16.747  43.284  10.621
26367W        W87898  13.712  41.478  10.913
26368W        W87899  37.028  38.044  13.952
26369W        W87900  32.615  31.107  13.821
26370W        W87901  28.950  30.908  14.450
26371W        W87902  21.696  17.069  10.634
26372W        W87903   1.312  25.032  11.599
26373W        W87904  44.939  20.075  14.430
26374W        W87905  12.665  36.431   3.740
26375W        W87906   9.225  17.236   2.337
26376W        W87907   1.457  13.717  12.512
26377W        W87908  15.823  20.542   4.161
26378W        W87909   1.268  32.120   0.815
26379W        W87910  37.907  34.529  12.448
26380W        W87911  14.743  13.349   4.220
26381W        W87912  15.605  32.031   4.229
26382W        W87913  42.804   6.220   0.746
26383W        W87914  36.898  29.923   4.336
26384W        W87915  27.083  22.664   3.328
26385W        W87916  29.574   1.974  12.378
26386W        W87917   0.479  39.344  13.905
26387W        W87918  26.989  36.918  11.864
26388W        W87919  37.428  25.147   2.309
26389W        W87920  22.694  19.576   0.429
26390W        W87921  19.774   2.333   4.652
26391W        W87922  38.509  17.220  12.430
26392W        W87923  29.631  41.482   2.754
26393W        W87924  40.536  17.122   5.113
26394W        W87925  10.302  22.733  10.584
26395W        W87926   2.780   8.681   2.679
26396W        W87927  29.020  23.087   4.270
26397W        W87928  12.656  35.095  10.005
26398W        W87929  15.676  32.107   3.359
26399W        W87930  41.396  27.110  11.872
26400W        W87931   7.884  20.192   0.356
26401W        W87932  42.865  39.497   4.169
26402W        W87933  23.199   0.745  13.063
26403W        W87934  25.594  31.056  12.394
26404W        W87935  18.661  19.680  14.371
26405W        W87936   1.843  36.565  13.486
26406W        W87937  40.876  21.156  14.777
26407W        W87938   3.898   9.217   3.236
26408W        W87939  36.347  32.895  12.931
26409W        W87940  31.996  42.863  11.010
26410W        W87941   6.346  21.541   1.343
26411W        W87942   1.256  25.985   0.476
26412W        W87943  35.444   0.982  12.998
26413W        W87944  16.170  44.995   3.290
26414W        W87945  14.729  23.142   2.360
26415W        W87946  18.586  32.400   2.673
26416W        W87947  35.952   8.310  11.923
26417W        W87948  26.058   8.272  11.883
26418W        W87949  44.292  17.680  11.922
26419W        W87950  22.202  40.929  12.831
26420W        W87951  13.625  33.116   5.309
26421W        W87952  11.283  18.649  11.111
26422W        W87953  40.015   0.340   0.315
26423W        W87954  28.567  24.023  14.974
26424W        W87955   7.702   3.267   3.681
26425W        W87956  37.027  42.831  12.363
26426W        W87957  15.696  28.637  12.065
26427W        W87958   8.721  25.051  10.431
26428W        W87959   3.379   7.783   2.270
26429W        W87960  22.235  44.502  11.051
26430W        W87961  15.601  19.078  12.496
26431W        W87962  40.862  13.666  13.546
26432W        W87963   5.929  25.545   2.668
26433W        W87964  12.653  28.460  14.334
26434W        W87965  31.148  26.072  11.043
26435W        W87966  13.683  11.640   3.657
26436W        W87967  27.068  21.574  10.890
26437W        W87968   3.953  37.568   2.393
26438W        W87969  41.798  12.241   9.605
26439W        W87970  28.627  34.949   3.865
26440W        W87971  42.987   8.325   4.208
26441W        W87972  17.601  34.412   2.409
26442W        W87973   7.231  41.895   1.222
26443W        W87974  27.637  15.307   1.804
26444W        W87975  42.372  24.080   1.260
26445W        W87976   2.784   6.396  14.999
26446W        W87977  30.447  41.464  11.515
26447W        W87978  29.518   3.921   4.659
26448W        W87979  36.490  25.116   4.687
26449W        W87980   2.322   1.833   2.328
26450W        W87981   3.390  33.017   1.337
26451W        W87982  35.464  14.748  11.888
26452W        W87983  35.887  28.577  12.522
26453W        W87984  26.087  24.578   4.289
26454W        W87985  29.431  29.936   1.269
26455W        W87986   8.818  36.494  11.094
26456W        W87987  23.187  17.282   0.379
26457W        W87988  36.049  31.451  11.436
26458W        W87989  28.648  14.098  11.089
26459W        W87990   3.876   9.314  10.988
26460W        W87991   3.824   4.911  13.468
26461W        W87992  14.119   0.955  14.975
26462W        W87993  35.036  28.534  13.945
26463W        W87994  16.218  28.944  10.406
26464W        W87995  20.618   4.803   4.176
26465W        W87996  41.302  18.778  12.852
26466W        W87997  14.666  29.589   0.869
26467W        W87998   1.850  25.680  11.879
26468W        W87999  36.935  20.135  12.923
26469W        W88000  39.996  43.497  12.413
26470W        W88001  16.305  14.593  10.577
26471W        W88002   7.370  16.580  13.409
26472W        W88003  14.590  41.519  12.542
26473W        W88004   8.334  16.308  14.864
26474W        W88005  14.291  18.108   1.314
26475W        W88006  14.138   4.334  11.548
26476W        W88007  30.514  39.403   0.455
26477W        W88008  18.737   8.201  14.833
26478W        W88009  44.877  18.563   3.236
26479W        W88010  42.429   3.262   4.138
26480W        W88011  28.533  10.644   4.275
26481W        W88012  39.544  25.569   2.293
26482W        W88013   1.298   1.259  11.035
26483W        W88014  40.465  12.827   0.314
26484W        W88015  10.849  27.025  12.075
26485W        W88016  24.180   8.888  11.916
26486W        W88017  40.352  22.743  11.432
26487W        W88018  28.067  34.576  14.451
26488W        W88019  34.494   0.270   2.850
26489W        W88020   3.262  31.062   1.799
26490W        W88021  20.075  42.425  11.024
26491W        W88022  39.517  36.435  13.821
26492W        W88023  26.061  30.435   2.807
26493W        W88024   4.912  29.479   3.780
26494W        W88025  13.219   8.860   1.289
26495W        W88026   6.276  14.328  11.996
26496W        W88027   9.278  20.247   4.200
26497W        W88028  26.658  34.064   3.713
26498W        W88029  39.005  28.106   4.139
26499W        W88030  12.760   1.412   0.325
26500W        W88031  24.009  25.142  12.961
26501W        W88032   0.800  33.490  10.099
26502W        W88033  22.537  38.395  12.002
26503W        W88034  16.133  21.095  12.497
26504W        W88035  12.206  16.149  13.953
26505W        W88036  38.547  40.976  11.397
26506W        W88037   0.479  41.002   4.736
26507W        W88038   2.808  37.364  10.972
26508W        W88039  29.943  32.127  11.043
26509W        W88040  44.363   7.286   5.152
26510W        W88041   7.265  13.733  10.439
26511W        W88042  44.817  36.467  13.050
26512W        W88043  41.018  14.830   3.774
26513W        W88044  44.974  13.174  12.851
26514W        W88045  16.299   7.864  14.334
26515W        W88046  23.572  33.570   2.704
26516W        W88047  15.172  28.580   4.247
26517W        W88048  16.088   0.263  12.939
26518W        W88049  23.705   4.219   2.276
26519W        W88050  40.350  34.117  12.043
26520W        W88051  17.777  10.669   4.783
26521W        W88052   2.401  18.546   4.268
26522W        W88053  23.100  34.903  10.575
26523W        W88054  11.855  18.675   4.321
26524W        W88055  13.165   7.735  12.007
26525W        W88056  30.500   5.923  14.905
26526W        W88057   8.878  11.806   3.661
26527W        W88058   8.287  26.001   4.627
26528W        W88059   4.797  33.588  12.478
26529W        W88060  35.458  20.689  12.096
26530W        W88061  13.133  30.018   2.709
26531W        W88062  42.992  27.627   0.339
26532W        W88063  16.653  21.099  13.424
26533W        W88064  34.101  21.042  12.826
26534W        W88065  32.004   0.354   1.809
26535W        W88066  34.413  21.120   4.343
26536W        W88067  22.514  23.010   1.727
26537W        W88068  22.569   8.359  10.578
26538W        W88069  34.951  44.960   4.831
26539W        W88070  19.284  33.047   0.777
26540W        W88071  19.215  22.067   4.340
26541W        W88072  14.597   7.243  12.555
26542W        W88073  40.493  42.327  11.470
26543W        W88074  16.287  32.944  10.909
26544W        W88075   0.877  33.567   0.365
26545W        W88076  29.600  43.444   0.411
26546W        W88077  20.551  21.520   3.825
26547W        W88078  16.611   6.746   0.457
26548W        W88079  22.015  15.659   4.628
26549W        W88080  14.101  42.926  12.029
26550W        W88081   5.259  33.128   2.216
26551W        W88082  19.764  36.588   4.331
26552W        W88083  36.071  12.718  12.444
26553W        W88084  39.332  43.790  12.456
26554W        W88085  20.244   9.294  11.558
26555W        W88086  26.644  27.578  12.837
26556W        W88087   2.232  23.076   0.462
26557W        W88088  34.608  14.153  14.965
26558W        W88089  35.994  10.776   1.719
26559W        W88090   7.828   2.776   1.837
26560W        W88091   9.239  28.056  14.781
26561W        W88092  29.562  26.656   5.089
26562W        W88093   6.738  34.980  12.952
26563W        W88094  19.207  35.422   1.755
26564W        W88095  16.243  13.672   3.824
26565W        W88096  31.550  16.214   0.924
26566W        W88097  11.799  41.467  13.816
26567W        W88098  22.222  18.151   3.655
26568W        W88099   5.230   3.426   2.226
26569W        W88100   7.374  14.594  14.820
26570W        W88101  14.622  32.923   4.738
26571W        W88102  14.158  28.491  14.295
26572W        W88103  18.291  11.263   2.219
26573W        W88104   3.221  16.181   1.725
26574W        W88105   0.288  34.903  12.578
26575W        W88106  30.603  39.430  12.004
26576W        W88107  34.053   1.328   2.224
26577W        W88108   6.305  44.319  12.487
26578W        W88109   3.298  11.200   1.830
26579W        W88110   9.708  18.592  10.475
26580W        W88111  20.036  15.124   3.294
26581W        W88112  44.856  44.868   2.301
26582W        W88113  37.391  36.419  12.448
26583W        W88114   1.262   9.390  12.994
26584W        W88115  39.866  24.047  13.839
26585W        W88116  29.492  32.097   1.251
26586W        W88117  30.051  12.294  13.873
26587W        W88118   4.888  28.162  13.805
26588W        W88119  44.421  34.606   2.333
26589W        W88120  12.692  43.412  12.530
26590W        W88121  29.128  28.996  12.070
26591W        W88122  22.671  39.935  14.978
26592W        W88123  10.229  42.475   3.712
26593W        W88124  36.883  43.448   0.265
26594W        W88125  15.669  26.002   2.334
26595W        W88126  15.162  44.494  11.066
26596W        W88127  41.308   4.233  14.360
26597W        W88128   8.185   4.938   3.180
26598W        W88129  28.937  25.218   0.415
26599W        W88130  15.629  30.441  14.480
26600W        W88131  22.614   2.304  10.065
26601W        W88132  44.958  14.279  12.354
26602W        W88133  22.655  32.481   2.822
26603W        W88134  43.371  37.901  13.339
26604W        W88135   5.773  43.766  14.330
26605W        W88136  14.117  19.563   1.699
26606W        W88137  19.153   1.766  11.015
26607W        W88138   4.433  37.059   4.292
26608W        W88139  16.665  31.460   1.228
26609W        W88140  32.133  14.642  10.023
26610W        W88141   9.174  43.832  14.950
26611W        W88142  23.699  21.729   2.853
26612W        W88143  29.632  26.182  12.474
26613W        W88144  10.781   3.347   2.885
26614W        W88145  21.218  42.845   4.125
26615W        W88146  35.472  38.347   0.759
26616W        W88147   4.260  15.261   1.738
26617W        W88148  44.291  24.222   2.205
26618W        W88149  31.078  24.628   3.790
26619W        W88150  33.080  29.531  11.104
26620W        W88151  27.098  43.499   0.859
26621W        W88152  24.139  39.437  10.524
26622W        W88153  17.675   9.822   0.260
26623W        W88154   6.267  44.450   0.792
26624W        W88155   7.378  42.898  11.539
26625W        W88156  20.622  26.132  10.970
26626W        W88157  26.087  40.335   2.275
26627W        W88158  22.247  22.093   3.187
26628W        W88159  27.101   5.894  11.060
26629W        W88160  24.100  28.978  13.033
26630W        W88161  42.849  18.265  11.595
26631W        W88162   7.884  22.180  10.099
26632W        W88163   4.450  16.749   4.138
26633W        W88164  12.693  27.187  11.927
26634W        W88165  24.042  39.558   0.307
26635W        W88166  38.878   0.924  11.465
26636W        W88167  25.692   1.320   4.257
26637W        W88168  18.651  37.537  12.949
26638W        W88169  34.413   1.340  10.919
26639W        W88170   6.722   9.889   0.865
26640W        W88171  28.114  12.217  12.077
26641W        W88172  34.950  19.638  12.991
26642W        W88173  36.587  26.472   3.271
26643W        W88174  23.995  21.721   0.410
26644W        W88175  25.114   4.892   0.303
26645W        W88176  14.828  12.789   4.159
26646W        W88177  25.520   4.940  14.361
26647W        W88178  19.761  44.825  13.932
26648W        W88179  36.869  37.007  14.383
26649W        W88180  23.156   6.739   1.235
26650W        W88181  37.454  19.643   1.744
26651W        W88182   0.917   9.690  12.953
26652W        W88183   9.336  15.153   1.229
26653W        W88184  20.181   2.746  11.900
26654W        W88185  23.189  28.482  14.349
26655W        W88186  41.320  26.004   0.895
26656W        W88187  43.331   2.760   3.246
26657W        W88188  12.165  40.967   3.171
26658W        W88189   3.332  20.738   3.722
26659W        W88190  27.954   4.919   0.948
26660W        W88191   2.943  32.600  11.564
26661W        W88192  29.122  42.297   3.631
26662W        W88193  35.006   3.399  13.452
26663W        W88194   8.710  10.204   4.299
26664W        W88195  43.905  10.239   2.889
26665W        W88196  44.897  22.020  13.356
26666W        W88197  27.004  31.638  14.296
26667W        W88198  34.083   5.205  10.427
26668W        W88199   7.376  14.305   4.776
26669W        W88200  25.097  17.290  13.012
26670W        W88201  26.599  10.221   3.871
26671W        W88202  33.562  15.685  11.992
26672W        W88203   1.264  30.449  14.900
26673W        W88204  32.059  28.600   2.834
26674W        W88205   3.241  33.917  13.899
26675W        W88206  38.918   7.231  11.485
26676W        W88207  15.629  28.080  13.843
26677W        W88208  21.525  22.539  12.001
26678W        W88209   5.916  11.132   3.837
26679W        W88210  11.744  32.409  10.996
26680W        W88211  23.726  40.916   3.676
26681W        W88212  20.119  43.333  14.782
26682W        W88213  17.179   0.866  11.022
26683W        W88214   4.439   6.341  13.496
26684W        W88215  28.181  39.817  10.081
26685W        W88216  35.969  17.792   3.226
26686W        W88217  38.336  25.018   1.860
26687W        W88218   4.388  35.476  13.516
26688W        W88219   1.366  38.928   0.407
26689W        W88220  22.649  23.184  14.860
26690W        W88221  11.264  37.974  12.962
26691W        W88222  31.550  27.516   4.271
26692W        W88223   8.716  33.066  14.005
26693W        W88224  31.150  17.158   1.785
26694W        W88225   8.199  13.655  13.849
26695W        W88226  13.158   3.273   2.808
26696W        W88227   0.371  26.635   1.871
26697W        W88228  11.293  44.993   2.419
26698W        W88229  40.454  12.627  14.349
26699W        W88230  44.357  26.157   1.250
26700W        W88231  22.227  19.744   3.818
26701W        W88232   7.692  25.076   5.082
26702W        W88233   9.749  36.958  13.845
26703W        W88234  29.948  11.744   4.180
26704W        W88235  41.809  31.607   0.385
26705W        W88236   8.666  38.027   5.229
26706W        W88237  36.069  19.657   4.838
26707W        W88238  24.074   5.892   3.734
26708W        W88239  42.518   5.855   0.400
26709W        W88240  34.497  40.370  11.919
26710W        W88241  16.586  15.228   2.397
26711W        W88242   1.414  24.159   5.570
26712W        W88243  22.062  33.557   0.746
26713W        W88244  18.768  34.468   3.227
26714W        W88245   6.844   7.680  14.495
26715W        W88246   3.289  22.152  12.897
26716W        W88247  13.245   3.831  10.925
26717W        W88248  13.123   8.810  14.892
26718W        W88249  30.585  13.219   2.208
26719W        W88250  21.143  15.718  14.479
26720W        W88251  12.767  15.267   3.169
26721W        W88252  25.645  33.109   4.666
26722W        W88253  31.080   6.734   2.754
26723W        W88254  23.155  44.340  10.976
26724W        W88255  41.404  20.708  12.367
26725W        W88256   9.829  41.417   1.801
26726W        W88257   0.897  38.955  10.472
26727W        W88258   1.946  30.461  12.081
26728W        W88259  24.542  10.203   4.645
26729W        W88260  23.109  30.514  11.585
26730W        W88261  28.487  21.673   0.966
26731W        W88262   5.762  44.839   2.396
26732W        W88263  24.174  23.074  13.437
26733W        W88264  18.120  26.687   4.236
26734W        W88265  34.613  12.708  11.973
26735W        W88266  12.845  12.223  11.102
26736W        W88267  22.551  12.737  14.812
26737W        W88268  26.501  10.736   0.454
26738W        W88269  42.028  13.276  13.851
26739W        W88270  11.330  22.130   0.835
26740W        W88271  25.613   5.774   0.311
26741W        W88272  39.398   1.809  10.955
26742W        W88273   6.691  20.610   3.341
26743W        W88274  31.567  27.104  10.466
26744W        W88275  13.162  20.134   2.901
26745W        W88276  38.445   9.734  11.005
26746W        W88277  27.070  30.162  12.890
26747W        W88278  40.888   7.222  12.398
26748W        W88279  16.272  30.590   1.267
26749W        W88280  19.066  40.488  11.084
26750W        W88281  28.538  30.069  12.459
26751W        W88282  36.075   9.200  10.439
26752W        W88283  10.304  20.151   1.310
26753W        W88284  27.110  28.665   0.829
26754W        W88285  43.992  14.311  11.885
26755W        W88286   6.887   0.359  12.372
26756W        W88287   0.482  24.171   1.250
26757W        W88288   3.719  37.924  10.466
26758W        W88289  43.968  27.611  14.379
26759W        W88290  27.160  11.704   1.379
26760W        W88291  36.361  26.029   2.745
26761W        W88292  21.121  42.394   3.765
26762W        W88293   0.856  28.057  14.395
26763W        W88294  22.538  30.572   2.386
26764W        W88295  23.083  18.789   1.720
26765W        W88296  43.321   3.298   1.299
26766W        W88297   9.755   8.840   3.773
26767W        W88298  38.922  11.322  12.826
26768W        W88299   7.318   1.301   2.863
26769W        W88300  26.998   8.740  13.444
26770W        W88301   9.211  26.625  11.909
26771W        W88302  26.543   3.217   2.689
26772W        W88303  34.047  10.311  12.361
26773W        W88304  23.617   2.764  11.386
26774W        W88305  24.073   0.859   2.860
26775W        W88306  28.969   1.403   4.256
26776W        W88307  20.700  14.612   2.750
26777W        W88308  28.989  20.613  10.471
26778W        W88309  31.975   1.919   2.340
26779W        W88310  20.222   7.208   0.950
26780W        W88311   0.359   0.886   1.749
26781W        W88312   2.419  21.758   1.418
26782W        W88313   9.703  41.885  13.491
26783W        W88314   9.352  25.203   5.104
26784W        W88315  25.607   9.291  14.953
26785W        W88316  16.687  14.784   2.830
26786W        W88317   2.933  38.487  13.973
26787W        W88318  24.521  31.977   5.792
26788W        W88319  10.150  31.611  14.759
26789W        W88320  20.098  15.802   4.170
26790W        W88321  35.549  33.437   3.322
26791W        W88322  38.339  44.830   1.441
26792W        W88323  33.527  13.230   1.788
26793W        W88324  30.489  16.078   0.408
26794W        W88325  10.181  10.230  11.992
26795W        W88326   2.804  33.618  10.629
26796W        W88327  12.267  42.798  14.423
26797W        W88328  15.205  41.889   4.255
26798W        W88329   4.328  31.548   4.334
26799W        W88330  20.660  22.726   4.344
26800W        W88331   3.873  22.036   0.293
26801W        W88332  18.082   4.336  13.401
26802W        W88333  28.035  23.686  11.426
26803W        W88334  18.592   3.326  14.344
26804W        W88335  15.286  34.107   5.146
26805W        W88336  24.097   5.771  11.555
26806W        W88337  16.700  26.694   0.248
26807W        W88338   3.893  33.462   3.757
26808W        W88339  21.037  21.201   2.363
26809W        W88340   7.714  25.637  11.872
26810W        W88341  20.595  12.727  12.868
26811W        W88342  20.646  43.854   2.178
26812W        W88343  23.004  31.137   4.211
26813W        W88344  23.560  13.718  14.366
26814W        W88345  29.976  11.172   3.334
26815W        W88346  40.944  39.338  12.427
26816W        W88347  27.481   1.968  12.000
26817W        W88348  43.498   4.232  11.011
26818W        W88349  25.110  40.461   2.343
26819W        W88350  12.726  28.135  13.472
26820W        W88351  20.174   9.746  11.592
26821W        W88352  38.060  13.733   2.389
26822W        W88353   0.372  19.704   1.368
26823W        W88354  37.435  14.106  10.061
26824W        W88355  40.906  18.733   1.825
26825W        W88356  29.948  27.104   4.302
26826W        W88357   2.290  29.967  13.310
26827W        W88358  27.078  36.885   3.676
26828W        W88359  31.458  41.901   2.312
26829W        W88360   8.662   7.842   3.227
26830W        W88361  37.367  44.329  13.456
26831W        W88362  24.040  26.645   0.388
26832W        W88363   2.403  20.755   1.236
26833W        W88364  32.413  28.617  13.522
26834W        W88365   5.732  35.434   2.308
26835W        W88366  24.486  19.763   3.339
26836W        W88367  35.000  39.333   2.776
26837W        W88368  36.347  44.424  14.928
26838W        W88369  13.237  42.391   4.616
26839W        W88370   7.195  37.011  12.513
26840W        W88371  14.641  10.275  10.525
26841W        W88372  40.527  24.072  13.790
26842W        W88373  24.662  25.003  12.513
26843W        W88374  15.164  33.038  13.024
26844W        W88375  16.669  30.957   0.312
26845W        W88376  28.096  16.293   4.639
26846W        W88377  31.438   0.350   4.624
26847W        W88378  28.094  14.633   1.268
26848W        W88379  39.461  13.617  10.961
26849W        W88380  30.164  24.091  11.595
26850W        W88381  18.727  31.931   4.714
26851W        W88382  14.294   9.300  12.422
26852W        W88383  18.102  22.506   4.214
26853W        W88384  10.690  19.768   4.804
26854W        W88385  38.823  36.969   1.928
26855W        W88386  42.519  21.066  10.422
26856W        W88387  14.230  10.164   5.089
26857W        W88388  23.208  21.707  13.347
26858W        W88389  27.541  32.394   9.516
26859W        W88390  27.691   0.302  13.820
26860W        W88391  25.641  16.157   3.351
26861W        W88392  21.160  21.706   2.834
26862W        W88393   7.779  44.869  12.026
26863W        W88394   3.920  43.995  13.447
26864W        W88395  31.147  14.811  13.049
26865W        W88396  43.464   7.408  11.893
26866W        W88397  14.323   1.280   1.360
26867W        W88398  33.008  10.855  13.865
26868W        W88399  37.403  25.127  11.372
26869W        W88400  39.857  21.556  12.839
26870W        W88401  21.183  13.237  10.479
26871W        W88402  12.840  42.404   3.310
26872W        W88403  34.597   1.331  14.977
26873W        W88404   0.298  27.095   3.250
26874W        W88405  37.469  15.702  10.953
26875W        W88406  25.205  44.913   2.719
26876W        W88407  21.146   4.751  14.401
26877W        W88408   9.818  28.485  14.970
26878W        W88409  10.373  32.930  12.409
26879W        W88410  38.445  42.031   3.701
26880W        W88411  21.114   7.736  14.480
26881W        W88412   2.397  34.044  13.364
26882W        W88413  35.998  15.108  13.438
26883W        W88414  12.617   0.867  12.996
26884W        W88415  33.411  38.955   0.738
26885W        W88416  17.277  24.017   1.801
26886W        W88417   4.935  39.054   0.472
26887W        W88418   9.256  17.159   1.336
26888W        W88419  40.861  21.030   3.380
26889W        W88420  44.317  41.447   1.426
26890W        W88421  43.278  33.894  14.318
26891W        W88422  10.292  27.493  13.972
26892W        W88423  34.478  41.791   1.807
26893W        W88424  44.947  21.202  13.956
26894W        W88425  10.820  25.559   1.844
26895W        W88426  13.311  42.475   4.211
26896W        W88427   7.210  26.976   3.368
26897W        W88428  20.182  31.557  13.031
26898W        W88429  31.613   5.934   1.431
26899W        W88430  29.514  37.389  12.456
26900W        W88431   7.855  32.394   4.231
26901W        W88432  19.619  28.170  12.034
26902W        W88433   7.251  20.078   3.672
26903W        W88434  21.664   8.187  12.354
26904W        W88435  34.607  39.823   1.373
26905W        W88436  18.748  29.993  11.061
26906W        W88437   8.226   6.819   4.346
26907W        W88438  41.504   5.439   1.219
26908W        W88439  28.105   4.912   3.329
26909W        W88440   4.386   5.920   4.758
26910W        W88441  40.514  18.229  14.492
26911W        W88442  15.168  29.058  10.911
26912W        W88443  22.234  30.636  10.407
26913W        W88444  30.957   8.351   1.401
26914W        W88445   6.699  15.112   3.645
26915W        W88446  40.484   1.878  13.007
26916W        W88447  21.708  11.650  11.031
26917W        W88448  34.446   4.417  10.407
26918W        W88449  39.388   2.857   1.215
26919W        W88450  22.623  43.368  14.931
26920W        W88451  26.160  41.393   1.736
26921W        W88452   6.205  14.133   1.214
26922W        W88453  38.834  17.723   4.114
26923W        W88454  37.471  29.922   4.737
26924W        W88455  18.735  16.087   3.181
26925W        W88456  17.596  43.006  14.018
26926W        W88457  44.977  35.539  12.846
26927W        W88458  42.972  36.039   0.923
26928W        W88459  26.107  39.451  13.520
26929W        W88460   4.435  15.106   2.336
26930W        W88461  15.717  38.428  10.894
26931W        W88462   1.479  38.507  12.997
26932W        W88463  38.488  22.642   1.330
26933W        W88464  20.574  37.416   2.266
26934W        W88465  18.238  38.520  10.013
26935W        W88466  27.954  12.252  13.872
26936W        W88467  22.013  38.828  14.966
26937W        W88468  19.690   6.712   0.250
26938W        W88469   7.174   3.346  11.940
26939W        W88470   4.348  40.018   2.190
26940W        W88471  11.709  11.652  11.897
26941W        W88472  43.848   0.408  13.893
26942W        W88473  40.407  42.878  13.880
26943W        W88474   3.896   3.389   2.800
26944W        W88475  31.572  35.895   2.858
26945W        W88476   5.705  25.982   0.858
26946W        W88477  18.289  24.664  13.402
26947W        W88478  20.682  42.950  11.509
26948W        W88479   2.744  30.148   3.159
26949W        W88480  36.980  17.744   2.318
26950W        W88481  37.476  24.532  13.881
26951W        W88482  36.506  30.909  14.903
26952W        W88483  30.623  34.540   3.833
26953W        W88484  18.620  18.600  14.460
26954W        W88485   5.881  20.538  14.997
26955W        W88486  39.468  25.976   2.903
26956W        W88487  42.308   2.240  14.354
26957W        W88488  29.466  20.146  11.863
26958W        W88489  38.885  31.460   1.696
26959W        W88490  41.819  44.830   4.334
26960W        W88491  41.866  10.375  14.794
26961W        W88492   8.333  43.971   0.807
26962W        W88493   8.299   3.812   4.661
26963W        W88494  17.290  18.642  11.916
26964W        W88495  22.526  34.495  10.502
26965W        W88496   1.398  24.685   3.868
26966W        W88497  14.801  15.297  14.920
26967W        W88498   5.288  44.485   2.198
26968W        W88499  21.721  20.548   0.729
26969W        W88500  43.943  12.834   4.242
26970W        W88501  20.599  15.325  12.068
26971W        W88502  43.766  12.772  13.038
26972W        W88503  26.627   6.767   4.317
26973W        W88504   3.723   5.708   2.699
26974W        W88505   0.870  42.934  12.564
26975W        W88506  28.988  22.534   4.311
26976W        W88507   6.699   9.646   0.444
26977W        W88508  14.170   5.279  11.592
26978W        W88509  27.095  27.981  13.311
26979W        W88510  41.995  34.899  12.467
26980W        W88511  28.958  15.298   0.472
26981W        W88512  11.844  19.747  13.512
26982W        W88513  30.106  39.918  12.889
26983W        W88514  38.069  22.528  14.354
26984W        W88515   5.774  43.983  12.566
26985W        W88516   9.253  20.186   3.218
26986W        W88517  39.982  18.218   0.431
26987W        W88518  19.599   7.177   1.889
26988W        W88519  40.464  39.875   0.736
26989W        W88520  21.229  16.765  13.027
26990W        W88521  33.394   8.204  11.577
26991W        W88522  18.718  44.995  14.445
26992W        W88523  12.824  37.421   0.778
26993W        W88524  39.872  25.549  11.394
26994W        W88525  34.425   0.416   4.254
26995W        W88526   1.963  24.197  13.978
26996W        W88527  32.976  43.774   3.332
26997W        W88528  24.124  10.842   0.841
26998W        W88529  36.906  30.150  12.358
26999W        W88530  11.702  36.092   1.760
27000W        W88531  26.504  44.813  12.852
27001W        W88532  19.195  35.482  12.556
27002W        W88533  11.143  21.097   2.878
27003W        W88534   2.759  27.447   1.324
27004W        W88535  24.177  13.653   4.675
27005W        W88536  39.501   9.272  14.900
27006W        W88537  30.571  42.883  14.813
27007W        W88538  19.555  42.982   2.882
27008W        W88539  38.361  13.249   4.247
27009W        W88540  28.602  35.451   2.856
27010W        W88541  24.987  39.971   4.760
27011W        W88542  38.890  36.535   2.339
27012W        W88543  15.089   9.264   4.262
27013W        W88544  25.114   2.772   2.300
27014W        W88545  10.635  30.967  12.579
27015W        W88546   4.732   1.873  11.061
27016W        W88547  34.381  44.829   4.290
27017W        W88548   0.282  39.836   2.872
27018W        W88549  18.111  44.316  10.951
27019W        W88550  13.681  22.558   1.699
27020W        W88551  39.354  15.585  14.431
27021W        W88552  19.267   7.796   2.289
27022W        W88553  13.331   4.841   4.806
27023W        W88554  33.961  19.208   2.280
27024W        W88555   4.414  22.142  14.433
27025W        W88556  43.466  36.429   1.277
27026W        W88557   7.362   4.327  12.466
27027W        W88558  27.953  14.155   2.845
27028W        W88559   9.834   3.812  13.957
27029W        W88560   3.720  14.685  14.281
27030W        W88561   7.309  13.802   1.749
27031W        W88562  25.669  11.257  11.039
27032W        W88563  42.003  21.589  14.515
27033W        W88564  35.892   6.295  10.979
27034W        W88565  30.466  17.226   2.265
27035W        W88566  42.513  18.123  13.956
27036W        W88567  42.338  34.470  14.854
27037W        W88568  28.963   9.386   2.874
27038W        W88569   7.231  32.934   0.843
27039W        W88570  33.881   1.392   0.965
27040W        W88571   3.896  19.620  13.518
27041W        W88572   8.790  29.125  12.471
27042W        W88573  22.729  21.737   1.296
27043W        W88574  39.355  14.101   1.928
27044W        W88575  33.527   0.340   1.378
27045W        W88576  33.029  33.915   3.845
27046W        W88577  15.700   3.710  14.898
27047W        W88578  39.903   7.315  12.519
27048W        W88579  36.483  17.223  12.579
27049W        W88580  43.781   9.720  10.533
27050W        W88581   9.214   5.707   3.653
27051W        W88582  37.555  25.965   3.702
27052W        W88583  36.944   6.732  14.869
27053W        W88584  18.201   1.892   1.695
27054W        W88585  40.318  42.504   4.755
27055W        W88586  28.626  34.077   4.784
27056W        W88587  27.653  41.901   0.352
27057W        W88588  15.230   8.821  14.868
27058W        W88589   5.926  23.549  14.820
27059W        W88590  20.630  30.942  12.903
27060W        W88591  21.066  10.845  14.450
27061W        W88592  13.323  14.685   3.182
27062W        W88593  28.446  20.629  14.975
27063W        W88594  27.550  44.907   0.917
27064W        W88595  40.949  44.329  10.911
27065W        W88596  36.002  37.834   2.403
27066W        W88597   3.288   2.252  13.465
27067W        W88598  26.575   8.261   5.698
27068W        W88599  36.971  24.127  11.973
27069W        W88600  28.936  16.196  13.439
27070W        W88601  10.646  18.634   1.904
27071W        W88602  41.452   1.850  13.874
27072W        W88603   7.255   1.315   5.136
27073W        W88604   1.832  17.077  11.090
27074W        W88605  27.181   6.834   1.389
27075W        W88606   1.431   7.740   4.659
27076W        W88607  29.090  42.026   1.288
27077W        W88608  36.857  10.824   0.409
27078W        W88609  19.100  12.135  13.945
27079W        W88610   5.376  16.635  12.519
27080W        W88611  38.483  22.709  14.833
27081W        W88612  28.651  17.710   0.468
27082W        W88613  15.247   2.439  11.033
27083W        W88614  24.081  44.357   5.295
27084W        W88615  18.089  23.990   2.771
27085W        W88616  30.596  37.051   3.760
27086W        W88617  11.662  33.491  12.002
27087W        W88618  17.699  18.737   0.392
27088W        W88619   0.953  20.258  12.411
27089W        W88620   4.791  20.159  13.438
27090W        W88621  32.525  38.912  13.319
27091W        W88622  32.630  15.139   1.364
27092W        W88623   5.259  37.970  11.096
27093W        W88624  15.686  37.382   3.684
27094W        W88625   1.837  34.976  11.410
27095W        W88626  40.543  35.599  14.792
27096W        W88627  26.978  13.772   2.692
27097W        W88628   9.651  29.017   4.711
27098W        W88629  11.205  37.418   1.805
27099W        W88630   0.368  41.512  10.498
27100W        W88631   6.769  37.920   1.415
27101W        W88632   5.706  36.958  12.971
27102W        W88633  43.982  11.200   3.809
27103W        W88634   3.453  11.144  13.390
27104W        W88635  33.488  33.404   1.846
27105W        W88636  34.000  22.069   1.418
27106W        W88637  10.258   7.716   0.434
27107W        W88638   3.922   2.962  11.432
27108W        W88639  14.795  26.148  11.079
27109W        W88640   1.258  24.573  11.394
27110W        W88641   2.413  16.714  13.803
27111W        W88642  22.739  18.215  14.416
27112W        W88643   8.248   1.356   3.792
27113W        W88644  28.593   3.839  13.060
27114W        W88645   9.352  36.865  10.555
27115W        W88646  43.791  41.405  13.060
27116W        W88647  40.824   1.793  13.947
27117W        W88648   0.980  27.607  12.457
27118W        W88649  24.228  41.943  10.968
27119W        W88650  11.852  19.740  14.984
27120W        W88651  41.304  42.457   4.781
27121W        W88652  16.607  10.319   1.857
27122W        W88653   5.249  11.746  10.564
27123W        W88654   0.845  36.849  14.277
27124W        W88655  18.206  43.385  14.360
27125W        W88656   7.375  34.004  11.052
27126W        W88657  13.792  42.961   4.152
27127W        W88658  24.606  29.550   5.175
27128W        W88659  39.900   1.974  13.051
27129W        W88660   7.178   7.764   3.718
27130W        W88661   7.397  40.400   4.790
27131W        W88662   0.269   1.468   4.744
27132W        W88663  25.163  28.947   3.733
27133W        W88664   6.913  37.460   4.223
27134W        W88665   0.932  17.587  12.360
27135W        W88666   6.262   1.973   1.909
27136W        W88667  41.304  25.213   2.216
27137W        W88668  36.078  29.127  13.378
27138W        W88669   4.776  14.185  11.058
27139W        W88670  23.501  13.744   1.221
27140W        W88671  44.966  24.061  14.513
27141W        W88672  31.120  20.623  10.957
27142W        W88673   4.838  37.462   1.886
27143W        W88674  37.419  31.619   2.386
27144W        W88675   5.695  42.284   2.352
27145W        W88676  28.952  13.181  14.856
27146W        W88677  18.739  43.306   0.246
27147W        W88678  35.472   9.385  10.960
27148W        W88679   2.419  34.587   2.837
27149W        W88680   0.920  31.066   4.638
27150W        W88681   6.403  27.495  12.064
27151W        W88682  27.995  20.588   0.354
27152W        W88683  35.442   5.415   2.406
27153W        W88684   0.918  43.801  10.605
27154W        W88685  18.748   4.315   3.732
27155W        W88686  44.779   7.172  11.923
27156W        W88687  10.232  14.683  14.877
27157W        W88688  14.170   8.211   1.368
27158W        W88689   4.786  10.829   5.199
27159W        W88690  34.502  20.548   3.851
27160W        W88691  38.902  38.871   2.861
27161W        W88692  10.870   7.834  14.759
27162W        W88693   5.889   2.725  14.361
27163W        W88694  11.195  21.729   3.384
27164W        W88695  25.574  26.175  10.558
27165W        W88696   2.346   0.274  10.490
27166W        W88697  41.872  24.090  10.500
27167W        W88698   8.714   3.279   0.929
27168W        W88699  27.592   3.795   0.931
27169W        W88700  12.718   0.876  13.513
27170W        W88701  35.953  28.119   1.371
27171W        W88702  17.616  32.599  12.382
27172W        W88703  15.195   4.205   2.228
27173W        W88704  13.699  44.321  12.928
27174W        W88705  36.457  30.420   1.320
27175W        W88706   8.339   6.201  12.345
27176W        W88707  11.799   5.703  14.991
27177W        W88708  31.524   5.810   3.336
27178W        W88709   7.836   1.339  12.997
27179W        W88710  18.637  18.191  12.492
27180W        W88711  38.056  27.971  13.864
27181W        W88712  11.736  29.932   5.245
27182W        W88713  20.163  44.953  10.475
27183W        W88714  16.315  21.049   3.871
27184W        W88715  32.068  26.641   0.792
27185W        W88716  20.538  32.961   0.778
27186W        W88717  29.140  43.891  14.372
27187W        W88718  18.638   6.830  10.999
27188W        W88719  33.500   3.889   3.349
27189W        W88720   4.307   0.434  14.009
27190W        W88721  35.037  33.388  14.968
27191W        W88722  29.548  10.765  11.531
27192W        W88723  20.058   5.281  12.545
27193W        W88724  25.579  17.246   1.231
27194W        W88725   8.330  41.521  13.532
27195W        W88726  18.605  33.992   2.277
27196W        W88727  28.528   8.216  13.323
27197W        W88728  36.852  13.671  10.888
27198W        W88729   5.391   6.725   3.789
27199W        W88730  39.000  17.265  14.880
27200W        W88731  34.515  20.749   1.373
27201W        W88732   3.723  31.525  12.059
27202W        W88733   9.695  20.133   3.244
27203W        W88734   0.303   4.723  13.879
27204W        W88735   8.685  19.242  13.465
27205W        W88736   8.227   8.663  10.529
27206W        W88737  24.199  10.264   4.737
27207W        W88738  36.040  42.500  14.437
27208W        W88739   7.249  10.732   0.318
27209W        W88740  17.156  11.275  10.015
27210W        W88741   5.846  37.482  14.835
27211W        W88742  19.606  37.014   3.671
27212W        W88743  27.589  39.490  14.330
27213W        W88744  33.401  24.625   2.338
27214W        W88745   6.881  36.516   4.179
27215W        W88746  11.685  40.335   0.436
27216W        W88747   6.832   5.426  11.517
27217W        W88748  40.825  40.389  14.410
27218W        W88749  29.586   2.437   2.400
27219W        W88750  21.533   9.749   1.694
27220W        W88751  32.597  28.620  12.828
27221W        W88752  14.285  29.453  13.887
27222W        W88753  35.079   3.917   1.289
27223W        W88754   9.725  40.821   3.255
27224W        W88755   5.699  42.014  14.398
27225W        W88756  27.958  24.046   1.385
27226W        W88757  13.192  16.131   3.226
27227W        W88758  17.638  26.993   3.747
27228W        W88759  42.483   2.349  13.324
27229W        W88760  26.080   6.723   4.827
27230W        W88761   8.261  39.014  11.555
27231W        W88762   1.752  23.207   4.182
27232W        W88763  15.111   8.160   3.744
27233W        W88764  39.357  14.275  12.986
27234W        W88765  24.208  29.017  11.860
27235W        W88766   4.203   3.252  12.345
27236W        W88767  14.274  15.799  12.369
27237W        W88768   1.316   6.344  11.940
27238W        W88769  34.910   0.490  14.954
27239W        W88770  35.362  22.056  13.929
27240W        W88771  42.379  32.945  12.511
27241W        W88772  18.672  42.933  14.310
27242W        W88773  32.072  30.478   4.294
27243W        W88774   1.799  30.037  14.952
27244W        W88775   8.348  39.950  14.770
27245W        W88776   3.354   7.746  13.371
27246W        W88777  30.070  23.205   2.894
27247W        W88778  14.721  15.234   4.156
27248W        W88779  11.749  17.108   5.242
27249W        W88780  32.098   4.742   0.475
27250W        W88781  39.545  38.975   1.226
27251W        W88782  13.115  31.475   3.167
27252W        W88783  40.866  32.604  11.116
27253W        W88784  36.844  23.086  14.323
27254W        W88785  11.354  24.560  12.061
27255W        W88786  38.556  32.909   0.788
27256W        W88787  22.094  44.465   3.860
27257W        W88788  19.676  42.288  13.828
27258W        W88789   3.441  13.161  13.022
27259W        W88790  42.362  19.627   3.194
27260W        W88791  31.467  41.470  14.996
27261W        W88792  27.669  42.027   4.637
27262W        W88793  44.475  41.028   3.736
27263W        W88794  18.674  19.082   2.746
27264W        W88795  11.308  28.033   1.255
27265W        W88796   4.907  33.107  13.466
27266W        W88797  10.662  40.449  12.929
27267W        W88798  40.992  44.883   1.703
27268W        W88799  38.533  19.598   2.408
27269W        W88800  40.547   5.349  13.005
27270W        W88801  43.352   5.895  14.891
27271W        W88802  29.161  10.829  12.513
27272W        W88803  25.037   4.846   1.408
27273W        W88804  13.326  31.517  13.425
27274W        W88805   3.806  18.574  14.915
27275W        W88806   3.824  10.845   0.798
27276W        W88807   2.349  41.912   2.693
27277W        W88808  16.772  17.278   0.309
27278W        W88809  25.636  15.210   0.900
27279W        W88810  40.799   7.236  11.060
27280W        W88811  12.672  19.121   0.346
27281W        W88812  24.069  32.508  13.029
27282W        W88813  44.808  17.754  11.579
27283W        W88814   2.320  16.248   2.781
27284W        W88815  17.619  27.527   0.754
27285W        W88816   5.409  10.646  14.911
27286W        W88817  10.670  13.826   4.835
27287W        W88818  36.931   0.933   0.894
27288W        W88819   6.744  43.384   0.734
27289W        W88820   8.210  25.640  10.608
27290W        W88821  21.127  15.169   4.214
27291W        W88822  27.539  23.597  14.998
27292W        W88823   2.294  34.578  11.069
27293W        W88824  22.567  44.989   4.686
27294W        W88825  24.595  33.899   1.371
27295W        W88826  37.051   8.805   2.385
27296W        W88827  38.432  44.799  11.010
27297W        W88828  37.992  15.109   4.793
27298W        W88829   7.708  17.712   2.316
27299W        W88830  42.832  39.058  10.432
27300W        W88831   0.329  41.956  12.021
27301W        W88832  34.990  35.869   0.757
27302W        W88833   6.681  10.636  14.976
27303W        W88834   1.976   2.848  10.445
27304W        W88835  18.296  11.741  11.900
27305W        W88836  10.211   8.208  10.591
27306W        W88837  25.994  25.574  12.030
27307W        W88838   6.790   0.320   1.781
27308W        W88839  24.990  33.066   5.315
27309W        W88840   1.977   9.836   2.297
27310W        W88841  15.228  28.123   3.677
27311W        W88842  40.824  11.253  13.843
27312W        W88843  19.254  39.004   1.888
27313W        W88844  43.997  29.950   0.864
27314W        W88845   9.730   8.666   4.609
27315W        W88846  43.507  11.713   3.803
27316W        W88847  10.861  27.632  12.078
27317W        W88848  20.713  13.615  13.315
27318W        W88849  15.194  40.881   2.336
27319W        W88850  17.624  44.892   4.233
27320W        W88851  20.228  30.484  11.867
27321W        W88852   8.217  39.064   4.208
27322W        W88853   3.745  34.578  13.060
27323W        W88854  10.290   0.261  10.936
27324W        W88855  32.477  12.712   0.926
27325W        W88856  29.123  18.221  10.536
27326W        W88857  33.567  11.248   3.338
27327W        W88858  29.609  40.483  14.379
27328W        W88859  41.363  40.423  12.447
27329W        W88860   1.791  16.647   3.350
27330W        W88861   5.344  35.361   1.795
27331W        W88862  41.839   1.443  13.473
27332W        W88863   8.175  18.231  10.913
27333W        W88864  11.332  16.590   3.790
27334W        W88865  18.630  28.106  11.433
27335W        W88866  14.154  28.594   1.398
27336W        W88867  39.467  11.311  14.300
27337W        W88868  12.161  25.493   3.278
27338W        W88869  33.495  34.951  11.984
27339W        W88870  14.773  37.460  12.095
27340W        W88871  24.222   9.214   3.258
27341W        W88872   9.863  25.174   1.713
27342W        W88873   6.354   6.213  11.584
27343W        W88874  21.099  38.070   9.651
27344W        W88875  20.639   0.825  13.884
27345W        W88876  20.768  21.137   4.117
27346W        W88877   7.856   7.723  14.395
27347W        W88878  21.081  25.686  11.046
27348W        W88879  42.909  29.600  14.325
27349W        W88880  16.777  13.744   1.318
27350W        W88881  39.374  40.920   0.884
27351W        W88882  18.557   1.952   9.973
27352W        W88883  32.608  19.241   2.287
27353W        W88884  36.036   7.824  12.377
27354W        W88885  25.468  13.164  11.402
27355W        W88886  38.422  20.112  10.608
27356W        W88887  38.897  41.501   4.119
27357W        W88888  13.192   7.333   1.414
27358W        W88889  33.884  16.757   3.335
27359W        W88890   5.248  24.123  13.929
27360W        W88891   7.860  28.033   1.823
27361W        W88892   3.376   5.288  12.463
27362W        W88893  30.016  16.736  11.380
27363W        W88894   0.933   8.839  10.425
27364W        W88895  27.009  37.377  14.942
27365W        W88896   2.886  43.903   2.668
27366W        W88897   1.387  29.471  13.869
27367W        W88898  32.509  22.031   2.178
27368W        W88899  13.232  35.481   1.783
27369W        W88900  42.357  41.804   2.890
27370W        W88901  37.938  28.661  14.287
27371W        W88902  19.757  37.066   1.408
27372W        W88903  19.620  28.492   1.737
27373W        W88904  30.986  19.210   1.232
27374W        W88905  42.319  13.230  14.919
27375W        W88906  26.053  18.187   4.722
27376W        W88907  42.785   6.809  11.462
27377W        W88908  11.748   3.453  14.468
27378W        W88909   1.949  39.411  14.504
27379W        W88910  26.984  19.731   1.917
27380W        W88911  20.190  36.467  12.827
27381W        W88912  29.428  42.306  12.547
27382W        W88913   4.773  41.967   3.367
27383W        W88914   1.792  16.259   3.279
27384W        W88915   6.262  36.956  11.506
27385W        W88916  31.407  18.579   3.705
27386W        W88917  42.436   7.771   4.255
27387W        W88918   4.251  37.890   1.858
27388W        W88919  24.647   7.857   3.314
27389W        W88920  43.987  44.274   1.767
27390W        W88921  35.464   9.788  11.429
27391W        W88922   4.216  15.273   4.717
27392W        W88923  43.872  13.145  11.567
27393W        W88924  29.534   5.331  13.381
27394W        W88925  13.150  40.000  10.506
27395W        W88926   9.828  39.896  13.409
27396W        W88927  26.081  34.533   4.164
27397W        W88928  10.671  19.668  10.563
27398W        W88929   2.726  23.217   3.353
27399W        W88930   3.411  27.956  12.525
27400W        W88931   2.361   3.952   0.472
27401W        W88932  31.093  36.425   0.768
27402W        W88933   7.851  25.197   0.309
27403W        W88934  39.380   9.332  12.469
27404W        W88935  27.138  21.250   4.824
27405W        W88936  15.773  36.444   1.398
27406W        W88937  39.043   6.213   0.933
27407W        W88938  42.883  16.178   4.292
27408W        W88939  17.194  10.740   0.370
27409W        W88940  30.571  18.746   1.769
27410W        W88941  33.065  14.185   5.579
27411W        W88942   6.724  29.647  11.120
27412W        W88943   4.699   3.918   1.277
27413W        W88944  34.102   2.943  12.526
27414W        W88945  37.926   6.210   1.893
27415W        W88946  42.835   1.798  14.791
27416W        W88947  30.435  36.527   2.363
27417W        W88948  15.199  13.688  11.441
27418W        W88949   2.735  20.747  13.914
27419W        W88950  32.558  44.805   3.188
27420W        W88951  36.884  33.941  13.033
27421W        W88952  43.016  21.749   2.330
27422W        W88953  13.798   6.904  14.420
27423W        W88954  32.466  24.168  10.577
27424W        W88955  39.868  37.071   0.425
27425W        W88956  20.125  18.715  12.062
27426W        W88957  29.443  22.192   1.709
27427W        W88958  31.107   7.336   0.387
27428W        W88959  24.165   5.400  14.405
27429W        W88960   7.788  39.425  14.414
27430W        W88961   1.732  30.556  10.912
27431W        W88962  26.061  32.034  14.963
27432W        W88963  42.508  31.954   0.395
27433W        W88964  34.556  16.300  10.130
27434W        W88965  42.504   9.760   0.396
27435W        W88966  35.891   9.799   1.260
27436W        W88967  32.505   7.783  12.063
27437W        W88968  25.544   6.729   1.818
27438W        W88969  17.245  21.131  10.605
27439W        W88970   2.726   0.465  14.944
27440W        W88971  16.739  25.019  14.462
27441W        W88972  32.493  19.217   1.296
27442W        W88973  15.210  12.827  14.009
27443W        W88974   4.228   0.782   0.942
27444W        W88975  21.041  15.620   2.852
27445W        W88976  10.291  12.701  14.829
27446W        W88977  19.714  14.331   1.877
27447W        W88978  23.705  32.406  13.518
27448W        W88979  28.437  31.024   0.430
27449W        W88980  38.567  38.355   4.602
27450W        W88981  13.686  39.401  11.865
27451W        W88982  38.911   8.726  10.588
27452W        W88983  25.662   1.275  11.389
27453W        W88984  13.772  35.593  10.930
27454W        W88985   9.726  38.854   3.635
27455W        W88986  21.162  35.382  10.538
27456W        W88987   3.769  15.586   1.251
27457W        W88988  29.971  34.994  10.947
27458W        W88989  11.304  17.281   2.691
27459W        W88990  35.091   2.955   4.129
27460W        W88991  42.395  30.108  11.468
27461W        W88992  24.006  26.006  11.112
27462W        W88993  31.004  31.955  13.432
27463W        W88994  14.604  31.429  13.004
27464W        W88995  43.970  32.068   3.647
27465W        W88996   6.310  31.916  12.963
27466W        W88997   8.350  18.188  14.777
27467W        W88998  25.157  40.387  10.473
27468W        W88999   7.375  28.146   2.668
27469W        W89000  12.260  36.506  11.415
27470W        W89001  36.945  39.926   0.804
27471W        W89002  32.047   7.191   0.804
27472W        W89003  40.838  23.658  13.381
27473W        W89004  36.396  15.663   3.807
27474W        W89005  38.367  29.532   4.136
27475W        W89006  34.928   1.744  11.924
27476W        W89007  19.598  23.188  13.329
27477W        W89008   7.754   0.304  13.477
27478W        W89009  27.455  10.214   4.685
27479W        W89010  18.275  43.465  12.461
27480W        W89011  43.898   0.439   3.708
27481W        W89012   7.245  21.237  14.839
27482W        W89013  39.361  24.114   3.313
27483W        W89014  27.541  38.068   0.306
27484W        W89015  31.071  34.093  11.881
27485W        W89016  26.194  39.865   0.930
27486W        W89017  42.362  42.990   5.158
27487W        W89018  35.058   1.806  14.466
27488W        W89019  29.962   4.317   2.192
27489W        W89020  15.690  12.838   4.782
27490W        W89021   0.492  16.793  11.066
27491W        W89022  34.114  34.557  10.529
27492W        W89023  19.260  16.735   4.768
27493W        W89024  18.649  36.987  13.007
27494W        W89025  14.783  37.899   0.243
27495W        W89026  23.658  24.599   3.226
27496W        W89027   3.307  29.030   0.748
27497W        W89028  40.473  25.160  13.930
27498W        W89029  12.803   1.825  11.422
27499W        W89030  21.138  33.005   9.962
27500W        W89031  28.096  21.594  12.993
27501W        W89032   1.898  36.952  10.541
27502W        W89033  13.170   3.437   5.194
27503W        W89034   9.777  25.640   0.468
27504W        W89035   8.295  43.797  10.940
27505W        W89036  37.902  11.345  13.380
27506W        W89037   4.372   7.780  11.542
27507W        W89038   8.689  14.751   3.216
27508W        W89039  22.130  42.952  12.525
27509W        W89040  15.621   1.464   3.160
27510W        W89041   6.428  16.265  11.891
27511W        W89042  18.662   6.921   3.228
27512W        W89043  37.518  28.945   4.333
27513W        W89044  39.495  16.724   1.852
27514W        W89045  12.281  25.977  14.342
27515W        W89046  35.508  36.517   4.330
27516W        W89047  44.964  33.590  13.002
27517W        W89048  36.928  23.184  12.032
27518W        W89049   6.252  19.059   3.317
27519W        W89050   7.412  23.710  14.391
27520W        W89051  41.025  17.094  14.413
27521W        W89052  21.554  13.798  11.452
27522W        W89053   3.314  29.616   5.161
27523W        W89054  11.294  13.329   4.267
27524W        W89055  30.052  27.474  14.889
27525W        W89056  44.006  31.950  12.499
27526W        W89057  43.419  28.532  13.468
27527W        W89058  22.095  20.203  12.572
27528W        W89059   7.890  44.978   3.636
27529W        W89060  25.619  33.428   1.727
27530W        W89061   3.393  25.699  11.980
27531W        W89062  38.848   6.367  11.904
27532W        W89063  27.965  27.668   3.650
27533W        W89064  32.952   1.474  11.884
27534W        W89065  43.786   3.356   4.830
27535W        W89066  22.071  11.348   3.703
27536W        W89067  28.471  20.698  12.068
27537W        W89068  30.960  36.993  11.985
27538W        W89069  13.315  33.100   5.129
27539W        W89070   4.268  35.087  12.525
27540W        W89071  16.701  32.521  13.341
27541W        W89072  12.243  17.742   1.732
27542W        W89073  43.363  16.218  13.799
27543W        W89074  22.504  36.552   0.733
27544W        W89075  36.578  33.127  10.920
27545W        W89076   8.794  41.033   4.695
27546W        W89077  14.674  44.894   4.297
27547W        W89078  39.386  21.619   4.608
27548W        W89079  33.102  39.342   3.304
27549W        W89080  22.604  31.103   4.329
27550W        W89081   9.251  10.790   0.421
27551W        W89082  38.376  11.365   3.713
27552W        W89083   9.227  41.293  14.886
27553W        W89084  12.323  34.049  10.442
27554W        W89085  24.658  32.986   1.783
27555W        W89086  31.640   5.294   4.312
27556W        W89087  42.877  29.553  10.999
27557W        W89088  39.019  34.066  14.464
27558W        W89089  23.660   7.232   0.410
27559W        W89090  30.013  24.672   1.376
27560W        W89091  12.254  22.610   1.769
27561W        W89092  44.917  40.414  11.939
27562W        W89093  32.028   4.749   4.311
27563W        W89094  34.054  26.509   1.295
27564W        W89095   2.834  12.335   4.228
27565W        W89096  18.066  21.638   1.448
27566W        W89097  21.672   4.791  14.988
27567W        W89098  11.753  35.068  13.339
27568W        W89099  23.634  20.526  11.558
27569W        W89100  44.973  26.640  11.876
27570W        W89101  43.776   6.773   1.442
27571W        W89102  33.110  22.065  13.436
27572W        W89103   4.771  44.463  14.431
27573W        W89104  42.406  11.349  13.500
27574W        W89105   0.943  12.850  13.990
27575W        W89106  43.823  14.173  11.591
27576W        W89107  15.674  33.464  13.520
27577W        W89108  37.847  39.461   3.261
27578W        W89109   9.885  30.485  10.473
27579W        W89110  22.046  14.340   2.373
27580W        W89111  30.105  10.722   3.799
27581W        W89112  42.840  16.673   4.172
27582W        W89113  43.930  29.584   1.327
27583W        W89114  16.743  11.296  12.871
27584W        W89115  28.980  25.149   4.811
27585W        W89116  37.456  19.234  12.884
27586W        W89117  27.066  15.649   2.802
27587W        W89118  15.619  25.566  12.556
27588W        W89119  29.602  10.348  13.833
27589W        W89120   5.822  12.148  12.064
27590W        W89121   5.807   2.302   2.292
27591W        W89122  19.253  30.148  10.892
27592W        W89123  29.976  25.604   1.366
27593W        W89124  33.082   1.909   1.400
27594W        W89125   6.731  34.941   3.655
27595W        W89126  30.075  34.524   2.247
27596W        W89127   9.390  38.471  14.297
27597W        W89128  19.124  28.962   2.863
27598W        W89129  33.071  39.497  12.034
27599W        W89130  37.352  22.585  14.903
27600W        W89131   4.356  23.699   4.335
27601W        W89132  21.620  36.481  13.022
27602W        W89133  20.199  27.627  12.853
27603W        W89134  38.378  11.248   2.741
27604W        W89135  33.444   5.237  12.459
27605W        W89136  26.107  25.655  11.085
27606W        W89137  29.937  27.135  10.533
27607W        W89138  25.045  43.430  12.406
27608W        W89139  37.482  44.854   0.966
27609W        W89140  23.238  17.700   1.217
27610W        W89141  22.640   7.689   2.876
27611W        W89142   1.398  11.635   3.797
27612W        W89143  44.413  21.655  11.106
27613W        W89144   9.255  33.078  14.833
27614W        W89145  28.457  40.456   1.714
27615W        W89146  17.288  26.676  11.463
27616W        W89147  15.606  36.926   1.764
27617W        W89148  36.437   4.782  13.945
27618W        W89149  16.197   3.855  10.413
27619W        W89150  41.819  18.697   1.868
27620W        W89151  40.806  17.639   0.950
27621W        W89152   1.287  26.143  11.064
27622W        W89153  21.600  40.019   2.227
27623W        W89154  22.686  44.818  14.811
27624W        W89155  17.627  24.502   1.748
27625W        W89156  27.689   7.305   0.914
27626W        W89157  36.384   5.867   0.739
27627W        W89158   8.833  26.056   4.225
27628W        W89159  28.640  42.365   4.624
27629W        W89160  27.134   4.917  14.345
27630W        W89161  14.830  39.528  12.385
27631W        W89162  31.007  38.064  11.599
27632W        W89163  38.499  36.905   0.846
27633W        W89164  37.058  39.373  14.774
27634W        W89165  44.384  27.461  13.390
27635W        W89166  19.192  40.859  14.827
27636W        W89167  14.163  38.902   4.193
27637W        W89168  35.583  40.861   3.757
27638W        W89169   7.371  31.972  13.511
27639W        W89170  18.286  36.068   0.429
27640W        W89171  15.134  23.552   4.712
27641W        W89172  42.861  14.244  11.916
27642W        W89173   6.701  34.892  11.104
27643W        W89174  16.235  32.503  12.537
27644W        W89175  35.514  16.788   0.941
27645W        W89176  11.169   6.254  10.530
27646W        W89177  31.914  35.031  14.880
27647W        W89178   2.337   6.392   5.309
27648W        W89179  27.620  22.538   4.765
27649W        W89180  20.571  12.316   4.277
27650W        W89181   9.811  10.164   0.307
27651W        W89182  44.889   5.383   0.259
27652W        W89183  38.530  36.005  14.336
27653W        W89184  26.175   2.271   1.418
27654W        W89185  17.205  37.425  10.592
27655W        W89186  22.619  27.678  10.512
27656W        W89187  13.667  10.765   3.655
27657W        W89188  18.218  37.012   3.254
27658W        W89189  39.510   2.874   0.377
27659W        W89190   4.310  18.558  10.538
27660W        W89191   6.189  12.232   1.321
27661W        W89192  36.968  42.311  12.831
27662W        W89193  13.179  34.504   0.786
27663W        W89194  10.358  22.506  13.378
27664W        W89195  29.934   9.714  12.009
27665W        W89196   1.272  40.334  14.764
27666W        W89197  29.664  30.980  13.461
27667W        W89198  13.814  40.522   0.417
27668W        W89199  42.523  44.335   4.264
27669W        W89200  34.526  37.368   0.847
27670W        W89201   6.681  19.658   0.340
27671W        W89202  15.603   0.952   2.409
27672W        W89203   4.334  44.877  11.077
27673W        W89204  33.526  38.952  10.950
27674W        W89205  20.639  14.226  13.458
27675W        W89206  33.451  33.571   3.338
27676W        W89207  15.247  28.091  12.383
27677W        W89208  37.936  31.585   2.404
27678W        W89209  19.174   6.712  10.450
27679W        W89210   5.742   8.171   2.210
27680W        W89211   4.391  20.094  11.922
27681W        W89212  25.515  39.886   5.309
27682W        W89213  20.257  31.476  13.488
27683W        W89214  25.132  21.078   1.309
27684W        W89215  39.924  38.057  12.857
27685W        W89216  35.039  39.516   0.961
27686W        W89217  35.886  19.270  11.992
27687W        W89218  29.983  35.472   0.962
27688W        W89219  36.847   4.716  11.042
27689W        W89220  22.562  25.998   1.300
27690W        W89221  17.098  35.011  14.012
27691W        W89222  17.237  13.787   0.770
27692W        W89223  32.482  28.102  14.829
27693W        W89224  15.259  19.136  12.454
27694W        W89225  23.213  34.444   4.767
27695W        W89226  20.146  25.496  11.546
27696W        W89227  24.616  22.201   4.660
27697W        W89228  33.572  28.608  14.904
27698W        W89229  15.625  40.931   2.326
27699W        W89230  24.519   1.919  10.540
27700W        W89231  35.051  23.631  13.996
27701W        W89232   0.281  32.600  10.572
27702W        W89233  24.055   2.787  10.458
27703W        W89234  35.959  34.470  14.431
27704W        W89235  26.155  32.517  12.024
27705W        W89236  16.112  15.607   5.322
27706W        W89237  36.535  11.277   4.741
27707W        W89238   6.238  29.040  11.099
27708W        W89239   0.927  43.944  13.984
27709W        W89240  23.612   5.242  13.865
27710W        W89241   4.416  40.491  10.633
27711W        W89242  32.574  41.506   4.298
27712W        W89243  24.678  43.020  11.440
27713W        W89244  21.084  10.239   4.828
27714W        W89245  22.566   7.861   0.873
27715W        W89246  29.002  38.966   2.303
27716W        W89247   5.853  42.455   3.177
27717W        W89248  27.523  22.122   4.798
27718W        W89249  21.068  30.617  10.953
27719W        W89250   5.909  25.571   9.650
27720W        W89251   4.322  30.586   0.773
27721W        W89252  44.861   8.813  13.447
27722W        W89253  40.980  36.581   0.310
27723W        W89254  31.082   7.387   1.281
27724W        W89255  16.657   8.224   1.914
27725W        W89256  13.267  16.729   0.269
27726W        W89257  31.913  42.484   2.833
27727W        W89258  25.151  16.141  13.389
27728W        W89259  32.448  19.262  13.041
27729W        W89260  24.190  17.570  12.852
27730W        W89261  33.411  13.289   1.320
27731W        W89262  41.326  28.671   4.209
27732W        W89263  28.185  23.680   0.321
27733W        W89264  32.134  13.709  13.904
27734W        W89265   9.321   0.412   4.632
27735W        W89266  39.927  39.024  14.442
27736W        W89267  22.696  35.477  14.497
27737W        W89268  17.230  33.002  10.966
27738W        W89269  20.272  27.078   0.762
27739W        W89270  28.966  40.307   3.245
27740W        W89271  30.447  35.040  13.307
27741W        W89272  33.559   8.355  13.426
27742W        W89273  20.060  30.635  13.451
27743W        W89274  11.663  29.667  14.943
27744W        W89275  27.116   1.846  13.860
27745W        W89276   8.743   8.353   3.857
27746W        W89277  20.210  44.912  12.540
27747W        W89278  33.616  19.063   2.213
27748W        W89279  33.552   1.460   3.354
27749W        W89280  33.918   8.722  11.880
27750W        W89281  37.386   3.925   0.748
27751W        W89282  13.345  41.007   4.306
27752W        W89283  44.423   3.888  12.882
27753W        W89284  22.676  24.685   3.170
27754W        W89285  29.964   7.372   0.388
27755W        W89286  25.189  37.972   0.330
27756W        W89287  29.090  14.318   3.200
27757W        W89288  44.422  39.997   4.328
27758W        W89289  15.731  18.110  13.453
27759W        W89290  13.795   2.859   9.656
27760W        W89291  29.578  41.976   2.703
27761W        W89292  26.156  34.031  13.939
27762W        W89293  29.036  29.515  12.448
27763W        W89294  12.195  12.774  12.873
27764W        W89295  36.530   8.832  13.333
27765W        W89296  40.487  16.735   3.291
27766W        W89297  39.362  23.500   0.302
27767W        W89298  32.005  10.722   4.693
27768W        W89299  12.295  41.809  13.425
27769W        W89300  38.545  21.025  14.317
27770W        W89301   4.871  27.600  10.552
27771W        W89302  17.673  43.999  12.376
27772W        W89303  27.031   7.311  12.367
27773W        W89304  26.199  16.256   1.918
27774W        W89305  12.308  25.501   4.681
27775W        W89306  36.554  21.733   0.253
27776W        W89307  20.629   2.732   0.323
27777W        W89308  36.418  30.051  12.915
27778W        W89309  27.108  42.496   1.451
27779W        W89310  22.176  26.624   2.877
27780W        W89311  15.163   3.363  14.301
27781W        W89312  36.028  30.992  11.556
27782W        W89313  19.240  28.641   1.317
27783W        W89314   9.738  15.648   3.824
27784W        W89315  39.892  40.894  13.418
27785W        W89316  24.212  20.096  12.410
27786W        W89317  20.179  13.221  14.771
27787W        W89318  29.500  33.508   4.617
27788W        W89319   9.844  44.862  13.035
27789W        W89320   6.187   9.260   2.708
27790W        W89321   8.846   4.388   1.344
27791W        W89322  41.880  21.229  10.628
27792W        W89323  31.641  42.510   4.701
27793W        W89324   6.735  12.274  14.485
27794W        W89325  24.606  34.000   2.738
27795W        W89326  12.828  35.452   0.244
27796W        W89327  14.252  16.235   2.330
27797W        W89328  38.346  16.701  13.365
27798W        W89329   3.459  31.572  14.890
27799W        W89330   7.797  30.467   3.359
27800W        W89331  28.514  25.478   0.339
27801W        W89332  43.448   2.278  14.964
27802W        W89333   0.388  32.449   0.935
27803W        W89334   9.203  36.351  12.860
27804W        W89335  11.159   7.851   3.202
27805W        W89336  43.811  24.611   3.375
27806W        W89337  39.354  34.935  11.085
27807W        W89338  31.614  40.337  10.500
27808W        W89339  30.076  28.643   4.794
27809W        W89340  13.170  16.218  11.516
27810W        W89341  24.658   4.835  12.489
27811W        W89342  13.288  13.783  11.566
27812W        W89343  35.975  14.229  10.458
27813W        W89344  13.653   8.268   3.382
27814W        W89345  12.714   7.773   0.737
27815W        W89346   7.687  28.522   3.730
27816W        W89347  21.224  38.894   0.835
27817W        W89348  34.074   0.321  14.314
27818W        W89349   5.803  40.007  14.939
27819W        W89350  36.385  42.410  12.843
27820W        W89351   5.795  39.835   1.710
27821W        W89352  33.932  34.885  11.037
27822W        W89353  35.393  14.646  11.012
27823W        W89354  44.375  25.539  10.914
27824W        W89355  19.543  40.808  11.068
27825W        W89356  41.502  29.563   0.886
27826W        W89357   9.717  21.121  13.369
27827W        W89358  22.043  28.052  12.975
27828W        W89359  33.878  19.703  11.093
27829W        W89360  41.802  11.133   1.308
27830W        W89361   7.669  28.168   2.272
27831W        W89362  16.155  13.627   1.862
27832W        W89363  43.377   5.799   1.239
27833W        W89364  40.038  16.653   1.253
27834W        W89365  26.197  35.562  13.435
27835W        W89366   8.861  29.624  12.516
27836W        W89367  13.610  14.801   4.715
27837W        W89368  12.618   1.974   0.913
27838W        W89369  42.451  16.803   2.182
27839W        W89370  40.861  43.325   2.345
27840W        W89371  31.428  37.894   1.351
27841W        W89372  39.916  44.929   4.178
27842W        W89373  42.417   7.225  12.827
27843W        W89374  13.800   1.240   0.370
27844W        W89375   4.908  27.575   2.694
27845W        W89376  43.302  35.371   1.323
27846W        W89377  36.525  20.231  11.976
27847W        W89378   0.941   3.886   4.184
27848W        W89379  44.406  40.397  13.324
27849W        W89380   2.914  12.275   0.475
27850W        W89381   2.798  32.961  12.849
27851W        W89382   8.881  36.533   4.818
27852W        W89383  24.015  39.421  13.988
27853W        W89384   0.936  19.777  10.626
27854W        W89385  20.704  18.713  14.355
27855W        W89386  20.578  35.994   2.857
27856W        W89387  17.107  23.635   3.776
27857W        W89388  37.350  40.906  14.890
27858W        W89389  28.532  15.153   1.279
27859W        W89390   6.412  32.627  12.966
27860W        W89391  38.837  23.642   1.740
27861W        W89392  33.609  40.323   4.115
27862W        W89393  35.590  13.734  13.335
27863W        W89394   7.364  34.947  13.324
27864W        W89395  25.530  26.652   2.376
27865W        W89396   6.194   3.247  10.996
27866W        W89397  18.262  36.049  11.077
27867W        W89398  28.544  37.568  11.437
27868W        W89399   5.266  41.308   4.606
27869W        W89400  14.656  21.688  13.025
27870W        W89401  32.925   3.288   1.391
27871W        W89402   2.280  37.528   3.181
27872W        W89403  22.162  32.597  11.948
27873W        W89404   8.777  32.464  12.833
27874W        W89405   5.206  23.136  12.422
27875W        W89406  33.423   1.376  13.455
27876W        W89407  37.041   7.243   2.384
27877W        W89408   9.239   7.747  12.558
27878W        W89409  11.774   9.238  14.889
27879W        W89410  30.150  43.944   2.834
27880W        W89411   4.915  38.009  14.919
27881W        W89412  42.479  28.542   0.393
27882W        W89413   3.814  28.934  14.883
27883W        W89414   0.434  39.823   2.374
27884W        W89415  19.258  30.462  11.478
27885W        W89416  35.085  31.992  13.472
27886W        W89417  22.085   3.237  14.802
27887W        W89418   6.249   1.830   0.804
27888W        W89419  25.472   6.722  10.421
27889W        W89420  15.664  36.400  11.572
27890W        W89421  19.548  30.449   4.732
27891W        W89422  44.265  36.355  11.518
27892W        W89423  40.874  21.517  13.017
27893W        W89424   6.758   2.232  13.370
27894W        W89425  22.031  36.436   0.265
27895W        W89426  20.526  21.754   0.398
27896W        W89427   2.954  11.745   1.778
27897W        W89428  40.449  10.689   5.088
27898W        W89429  32.561  20.064   1.842
27899W        W89430   4.759  38.989   5.087
27900W        W89431   2.347  28.148   2.839
27901W        W89432  39.885   0.798   4.174
27902W        W89433  15.136  26.515  13.392
27903W        W89434   6.200  40.511   0.318
27904W        W89435  21.722  40.537  12.850
27905W        W89436  30.591  24.483   1.434
27906W        W89437  27.976  17.581  11.404
27907W        W89438  21.198  19.041   1.908
27908W        W89439   3.222  41.914   2.356
27909W        W89440   5.716  30.522  12.875
27910W        W89441   9.392  41.882  14.973
27911W        W89442  18.140  35.418   2.690
27912W        W89443  12.341  19.253  11.003
27913W        W89444  41.922   9.361  14.462
27914W        W89445   2.778   6.202   2.197
27915W        W89446  40.042   4.840  13.801
27916W        W89447  41.861  11.844   2.338
27917W        W89448  40.867  28.441   1.323
27918W        W89449  43.516   9.326   1.760
27919W        W89450  36.470  24.583  13.949
27920W        W89451  36.396  23.176   3.694
27921W        W89452  32.466  28.013  12.942
27922W        W89453  36.571   3.374   3.278
27923W        W89454  24.666  12.740  12.030
27924W        W89455  32.580  32.888   4.684
27925W        W89456  42.502  39.956  10.541
27926W        W89457  44.399  17.643   0.959
27927W        W89458  11.250  22.695   0.733
27928W        W89459  31.461  32.582   0.439
27929W        W89460  11.709  19.763   1.394
27930W        W89461  38.996  10.324   1.710
27931W        W89462  10.245  38.554  10.568
27932W        W89463  37.007  36.026   1.813
27933W        W89464  28.511  17.111   1.312
27934W        W89465  32.908   4.309   1.300
27935W        W89466  24.180  18.112  14.514
27936W        W89467  26.588  30.576   0.447
27937W        W89468  37.515  19.073  10.495
27938W        W89469  31.138  38.524   1.809
27939W        W89470  12.212   6.189  13.959
27940W        W89471  40.843  40.028   3.705
27941W        W89472  24.639  36.442   3.665
27942W        W89473  25.525   2.952  10.967
27943W        W89474  10.272  23.665   4.614
27944W        W89475  27.159  43.815   0.418
27945W        W89476  19.040   1.262  14.362
27946W        W89477  27.614  38.851   3.867
27947W        W89478  13.229  35.936   0.289
27948W        W89479  23.043  11.339  10.972
27949W        W89480  20.617   7.309   0.262
27950W        W89481   8.377  31.528   0.424
27951W        W89482  18.679  44.007   2.777
27952W        W89483  14.102  28.642   0.366
27953W        W89484  30.650  22.110   3.374
27954W        W89485  12.149  25.053  14.826
27955W        W89486  28.013  26.660  12.061
27956W        W89487  40.995  41.017  12.537
27957W        W89488  35.915  43.494  11.540
27958W        W89489  22.128  23.138  11.417
27959W        W89490  38.863  26.968  10.042
27960W        W89491  27.477  42.786   0.909
27961W        W89492  11.155  38.944  14.415
27962W        W89493  29.159  31.450  12.558
27963W        W89494  37.882  17.589  12.054
27964W        W89495  23.545  13.108  12.438
27965W        W89496  13.235  13.656  10.511
27966W        W89497  32.126  11.159  11.380
27967W        W89498  11.240  17.144   4.150
27968W        W89499  40.885  13.614  11.912
27969W        W89500  31.989  17.691   3.847
27970W        W89501  33.078   9.841   4.625
27971W        W89502  42.380  18.121  11.482
27972W        W89503  28.054   2.449   3.687
27973W        W89504  31.627  11.749  11.042
27974W        W89505  30.656   2.297   2.872
27975W        W89506   2.877  38.850  12.463
27976W        W89507  33.896  43.397   3.787
27977W        W89508  19.740  41.995  14.803
27978W        W89509  33.411  13.331  10.598
27979W        W89510  14.669   4.727   2.887
27980W        W89511   8.178  40.547   1.449
27981W        W89512  18.626  41.397  14.923
27982W        W89513  20.112  44.358   1.290
27983W        W89514  26.049  23.089  12.883
27984W        W89515  41.900  19.704  14.325
27985W        W89516   8.895  15.737   4.147
27986W        W89517   4.830  20.568   1.771
27987W        W89518  30.576  43.288  12.413
27988W        W89519   1.353  38.446  13.391
27989W        W89520   1.344  28.036  13.995
27990W        W89521  44.349  25.541  13.000
27991W        W89522  34.593  26.671   2.331
27992W        W89523  35.556  11.279   3.641
27993W        W89524  18.679  33.391   2.682
27994W        W89525   0.339  13.810   4.282
27995W        W89526  42.987  25.169   3.336
27996W        W89527  39.373  15.226  14.411
27997W        W89528  42.994  14.724   0.956
27998W        W89529  23.217  36.562  13.849
27999W        W89530   0.429  36.048  10.626
28000W        W89531   9.744   2.261  12.077
28001W        W89532   8.279   3.369  13.500
28002W        W89533   1.414  40.814  11.978
28003W        W89534  29.519  18.153  13.456
28004W        W89535   4.879  39.376  12.574
28005W        W89536   5.377   8.794  13.484
28006W        W89537  17.300  39.543   2.371
28007W        W89538  12.789  17.141   3.631
28008W        W89539  12.348   6.920  10.910
28009W        W89540   0.406  11.357   4.786
28010W        W89541  20.720  36.435   1.853
28011W        W89542  29.465  42.307  13.852
28012W        W89543   0.744  21.028  13.349
28013W        W89544  38.941  25.979  14.883
28014W        W89545  32.554   8.822   0.313
28015W        W89546  41.459  38.864   1.438
28016W        W89547  28.664  14.673  13.458
28017W        W89548  20.533  36.473   4.620
28018W        W89549   1.430  21.688   3.349
28019W        W89550  38.449  21.219  10.980
28020W        W89551  36.400   8.328  12.438
28021W        W89552  28.667  31.468   2.418
28022W        W89553  10.309  22.579   2.351
28023W        W89554  26.578  32.542  13.424
28024W        W89555  30.436  15.632   4.793
28025W        W89556   3.761  11.736  10.914
28026W        W89557  42.935   1.738  11.403
28027W        W89558  34.551  35.061  12.867
28028W        W89559  18.651  13.716   3.751
28029W        W89560  26.979  34.549   3.777
28030W        W89561  20.749  34.092  14.834
28031W        W89562  17.715  25.522   5.094
28032W        W89563  21.022  31.502  13.792
28033W        W89564  15.603  21.516  10.587
28034W        W89565  28.678  13.286   3.207
28035W        W89566  42.993  12.301   4.737
28036W        W89567   5.406  34.461   4.693
28037W        W89568  19.176  44.980  14.881
28038W        W89569  20.692  34.490   2.316
28039W        W89570  19.137  12.310   0.392
28040W        W89571   2.402  22.057  13.002
28041W        W89572   5.425  26.046   0.839
28042W        W89573   0.882  39.826   0.367
28043W        W89574   0.888  34.070   4.808
28044W        W89575   8.800  15.270   4.195
28045W        W89576  10.228  21.636   0.307
28046W        W89577   7.777  21.578  14.801
28047W        W89578  29.624  21.240   2.779
28048W        W89579  42.868  19.629  11.460
28049W        W89580  31.409  10.866   0.299
28050W        W89581  35.470  35.379   0.265
28051W        W89582   0.874   0.252   4.304
28052W        W89583  29.439  40.311  11.571
28053W        W89584  16.296   1.935  10.506
28054W        W89585  38.935   7.768  13.478
28055W        W89586  37.897  13.642   0.945
28056W        W89587  43.300  13.762  14.889
28057W        W89588  10.805  41.430  10.943
28058W        W89589  26.631  29.122  10.926
28059W        W89590  28.166  35.076   1.752
28060W        W89591  33.077  43.470   1.849
28061W        W89592  44.779  13.116   4.145
28062W        W89593   9.242   9.688  12.558
28063W        W89594  11.332  32.057   0.828
28064W        W89595  17.235   1.391   3.236
28065W        W89596  40.025  10.293  12.950
28066W        W89597  17.656  30.444   0.324
28067W        W89598  35.051  35.966  14.978
28068W        W89599   2.815   2.945   1.252
28069W        W89600  26.043   1.748  13.435
28070W        W89601   3.417  12.677  13.016
28071W        W89602  38.070  37.956  12.903
28072W        W89603  41.343  16.633   2.202
28073W        W89604  20.662  17.719   4.342
28074W        W89605  27.496  21.548  12.872
28075W        W89606  28.659   5.819   0.909
28076W        W89607  25.171  39.884  10.481
28077W        W89608  38.532  34.004  11.483
28078W        W89609   7.760   2.320  13.014
28079W        W89610  24.071  25.560   4.612
28080W        W89611  36.093  16.628   2.822
28081W        W89612  30.596  44.886  12.422
28082W        W89613  15.171  20.034  12.450
28083W        W89614  18.725  30.483  10.012
28084W        W89615  28.630  31.048  12.848
28085W        W89616   0.906   1.304   0.747
28086W        W89617  12.667  34.059   2.890
28087W        W89618  24.585  41.870  14.763
28088W        W89619  35.094  18.716  12.429
28089W        W89620  21.183  40.948  11.983
28090W        W89621  31.011  31.420  13.937
28091W        W89622  25.981  11.202   2.859
28092W        W89623   9.202  20.096  13.950
28093W        W89624  26.097   1.407   0.919
28094W        W89625  34.384  44.432  11.509
28095W        W89626  22.525  36.360  13.828
28096W        W89627   4.314  32.493   4.246
28097W        W89628   1.412  42.433  13.006
28098W        W89629  19.055  38.350   2.866
28099W        W89630  29.970  12.684   4.741
28100W        W89631  18.100  36.006  13.043
28101W        W89632  37.069  43.783  12.087
28102W        W89633  33.924  30.035  14.473
28103W        W89634  16.712  11.265   1.421
28104W        W89635  29.976  21.190   4.152
28105W        W89636  14.596  42.935   1.295
28106W        W89637   5.690  22.093  10.914
28107W        W89638  42.818  22.131  10.562
28108W        W89639  10.339   4.724  14.824
28109W        W89640   2.409  32.405  13.377
28110W        W89641  17.300  34.923  13.003
28111W        W89642  26.491  38.967   0.811
28112W        W89643  41.348  11.700  13.481
28113W        W89644  34.451   2.348  14.386
28114W        W89645  40.918  16.281   3.241
28115W        W89646  26.191  33.043  13.791
28116W        W89647  26.155  43.769   4.189
28117W        W89648  44.456  17.166   4.752
28118W        W89649  12.337  36.965   3.821
28119W        W89650  15.165  12.312   3.240
28120W        W89651  18.603  19.115  11.996
28121W        W89652  14.605  17.254  13.836
28122W        W89653  31.600  14.607  10.421
28123W        W89654  11.751  34.889   2.314
28124W        W89655  16.653   3.337   1.816
28125W        W89656  44.392  11.230  12.447
28126W        W89657  17.773  30.122   3.870
28127W        W89658  17.591   8.856  12.859
28128W        W89659  12.804  30.034   1.372
28129W        W89660   2.274  13.269  12.048
28130W        W89661  38.398  17.788  10.536
28131W        W89662  32.625  20.200   2.249
28132W        W89663  18.214  11.801   4.261
28133W        W89664  22.036  10.802  13.792
28134W        W89665  32.611  25.497   3.221
28135W        W89666  33.517  31.595   9.986
28136W        W89667  35.407  29.636  11.007
28137W        W89668  25.186  40.816  13.828
28138W        W89669  15.677  34.487  14.445
28139W        W89670  16.114  37.841  13.045
28140W        W89671  23.577   2.822   3.349
28141W        W89672  14.290  25.184  10.417
28142W        W89673  17.621  14.156  11.537
28143W        W89674   9.727  20.094  12.440
28144W        W89675   2.736  29.489   2.756
28145W        W89676  19.668   3.800   3.200
28146W        W89677  33.402  33.020  11.416
28147W        W89678  13.152  11.250  11.556
28148W        W89679  26.952  27.964   0.813
28149W        W89680  15.118  38.825  13.465
28150W        W89681  18.607   8.678  10.445
28151W        W89682  22.640  32.541  14.941
28152W        W89683  36.403  15.179  11.476
28153W        W89684   2.417  35.588  10.898
28154W        W89685   9.795   0.283  13.516
28155W        W89686  41.993  42.982  11.521
28156W        W89687  18.099  16.271   2.683
28157W        W89688  28.594  13.303   3.653
28158W        W89689  13.800  11.801  12.018
28159W        W89690  30.424  13.220  14.912
28160W        W89691  27.164  17.784  11.029
28161W        W89692  26.463  15.319   1.384
28162W        W89693  43.330  28.509   3.209
28163W        W89694  25.001   5.312   2.828
28164W        W89695  16.734  27.461   0.901
28165W        W89696  29.168  29.584   0.356
28166W        W89697  38.990  26.046   3.209
28167W        W89698   6.236  41.020   1.885
28168W        W89699  16.634  14.316  13.521
28169W        W89700  31.555  19.250  14.415
28170W        W89701  26.127   8.351  14.025
28171W        W89702  44.873   5.900   2.773
28172W        W89703  35.922  21.256   2.725
28173W        W89704  11.304  41.868  12.930
28174W        W89705  41.883   7.811  13.913
28175W        W89706  12.358  32.011  13.453
28176W        W89707  12.663  17.101   4.645
28177W        W89708  16.629  22.558   0.358
28178W        W89709  38.501   9.772   2.197
28179W        W89710  32.433  34.570  11.496
28180W        W89711  40.902   0.793  10.423
28181W        W89712   9.163  42.484   1.712
28182W        W89713  43.380  19.675  13.514
28183W        W89714   2.769  15.125  11.939
28184W        W89715  22.692  31.927   3.284
28185W        W89716   2.288  32.564  13.944
28186W        W89717   6.336  26.493  10.109
28187W        W89718  10.304   1.407   0.472
28188W        W89719  33.936  39.884  11.946
28189W        W89720  40.806  36.922   2.307
28190W        W89721  16.631  29.101   4.748
28191W        W89722  39.464  13.618   0.854
28192W        W89723  19.098  14.660  13.015
28193W        W89724  29.126  18.254  11.072
28194W        W89725  24.488  35.094  14.969
28195W        W89726  38.924  36.976   4.740
28196W        W89727  19.209   1.242   2.269
28197W        W89728  36.558   1.279   1.306
28198W        W89729  16.312  22.705   1.429
28199W        W89730  29.571  44.985  10.930
28200W        W89731  30.482   9.818  13.927
28201W        W89732   7.181   5.797   3.386
28202W        W89733   6.420   9.663   1.932
28203W        W89734  26.129  18.720  11.014
28204W        W89735  33.468  41.343   4.307
28205W        W89736   4.887  11.216  13.901
28206W        W89737  14.205  37.405  14.276
28207W        W89738   1.257  10.809  14.372
28208W        W89739  37.984  41.038  12.010
28209W        W89740  42.345  23.116  11.542
28210W        W89741  12.675  29.481  11.000
28211W        W89742  24.625  12.351  11.474
28212W        W89743   0.287  38.880   0.904
28213W        W89744  41.849   9.218  11.116
28214W        W89745   7.753  13.254   0.349
28215W        W89746  21.056  31.976  12.968
28216W        W89747   9.249  35.026   0.802
28217W        W89748  25.594  13.198  10.428
28218W        W89749  10.354  37.504   2.896
28219W        W89750  27.485  41.361  12.827
28220W        W89751  32.482   5.270  13.491
28221W        W89752   6.312  10.150  13.502
28222W        W89753  38.499  35.515  12.090
28223W        W89754  38.497  16.164   0.749
28224W        W89755   1.388   4.721  12.446
28225W        W89756   1.249   5.914  14.325
28226W        W89757  19.713  31.470  10.459
28227W        W89758  13.273  24.073  12.460
28228W        W89759  19.278  44.785   3.331
28229W        W89760  30.413   1.899  14.502
28230W        W89761  23.116  25.158  10.602
28231W        W89762  10.866  12.793   0.860
28232W        W89763   0.850  27.009  10.568
28233W        W89764  26.192  43.472   0.317
28234W        W89765  22.168   9.662  11.911
28235W        W89766  39.039  22.558   1.766
28236W        W89767  34.064  20.610  12.900
28237W        W89768   2.355  17.181   0.298
28238W        W89769  29.106  40.308  13.532
28239W        W89770  38.538  42.859  11.901
28240W        W89771  12.688   7.274  10.564
28241W        W89772  11.646   2.356   2.777
28242W        W89773  21.619   6.817   0.467
28243W        W89774  25.469  42.410   2.837
28244W        W89775   0.294  37.453  13.353
28245W        W89776  25.473  22.628  12.869
28246W        W89777  17.252  42.865  10.437
28247W        W89778  20.639  17.098   4.125
28248W        W89779  13.664  25.191   3.658
28249W        W89780  38.978   7.868  12.023
28250W        W89781   8.813  31.624   2.808
28251W        W89782  26.642  32.562   4.283
28252W        W89783  13.781  43.769  13.798
28253W        W89784  32.574  31.069  10.579
28254W        W89785  25.498   7.263   1.797
28255W        W89786  28.504   0.975   2.399
28256W        W89787  35.982   4.909   0.422
28257W        W89788  41.923  36.005   4.738
28258W        W89789   0.826  31.432   2.340
28259W        W89790  34.449   2.404   3.340
28260W        W89791  37.451   0.850   4.229
28261W        W89792   8.332  36.374  13.837
28262W        W89793  33.390  21.706  14.759
28263W        W89794  19.056   8.841  13.323
28264W        W89795  33.429  30.482  11.571
28265W        W89796  10.643  21.650   2.314
28266W        W89797  43.769   1.307   1.423
28267W        W89798  20.760  29.149   3.861
28268W        W89799  21.664   0.461   1.879
28269W        W89800  21.753  42.996   1.852
28270W        W89801  26.557  11.688   5.233
28271W        W89802  39.021  19.574  13.996
28272W        W89803   9.723  18.080  13.840
28273W        W89804   0.272  25.672  12.902
28274W        W89805  10.856   7.286  12.832
28275W        W89806  28.513  30.422  12.007
28276W        W89807  33.119  22.714   1.386
28277W        W89808  27.595  33.948  13.334
28278W        W89809  12.738  42.499  10.614
28279W        W89810  34.384  41.928   2.750
28280W        W89811  19.236  31.053  14.777
28281W        W89812  37.464  22.719  11.915
28282W        W89813  39.353   7.303  10.583
28283W        W89814  31.051  29.666   4.278
28284W        W89815  31.910   1.894   3.826
28285W        W89816  21.072  37.936  11.034
28286W        W89817  24.073  25.604  14.012
28287W        W89818  38.066  38.838   2.192
28288W        W89819  32.491   5.430  10.888
28289W        W89820   1.857  28.182   4.210
28290W        W89821   7.673   9.876   0.284
28291W        W89822  39.349  37.437   3.335
28292W        W89823   7.729  36.408   2.727
28293W        W89824  37.047   3.712  14.429
28294W        W89825   8.280   4.817   1.719
28295W        W89826  41.367   7.675  12.551
28296W        W89827  39.065   5.809   4.247
28297W        W89828  17.169  38.366  11.590
28298W        W89829  11.719  29.098   0.848
28299W        W89830   2.431  33.933  11.075
28300W        W89831   9.711   1.771  14.278
28301W        W89832   6.831  39.518  11.997
28302W        W89833   8.842   0.452  11.471
28303W        W89834  16.073  21.088  14.509
28304W        W89835  30.992   9.790  14.834
28305W        W89836  42.504  15.288   4.340
28306W        W89837   0.282  28.992  13.912
28307W        W89838  44.279  28.145   0.759
28308W        W89839  37.360  21.547   2.283
28309W        W89840  24.197  25.184   5.149
28310W        W89841  19.243  27.449  14.462
28311W        W89842   4.908  29.443   2.697
28312W        W89843  26.123   0.976   0.762
28313W        W89844  12.648  43.009  11.015
28314W        W89845  32.079  22.617   1.377
28315W        W89846  33.543   5.385  13.370
28316W        W89847  25.701  43.918   2.292
28317W        W89848  11.755  31.603  12.580
28318W        W89849   7.225  26.508  13.355
28319W        W89850   0.755  18.141  13.450
28320W        W89851  40.034   4.801   0.452
28321W        W89852  44.896  16.300   2.677
28322W        W89853   8.664   9.870  14.008
28323W        W89854  25.975  13.208  11.560
28324W        W89855  22.657  27.067  11.577
28325W        W89856  42.849  34.963   1.717
28326W        W89857  38.859  34.406  12.037
28327W        W89858  17.300   1.825   2.699
28328W        W89859  25.521   1.920  10.142
28329W        W89860  31.408   7.205  14.950
28330W        W89861  40.840  28.439   0.371
28331W        W89862  34.406  17.226  11.549
28332W        W89863  13.731  43.294  13.999
28333W        W89864   4.704  10.707  13.035
28334W        W89865   7.836  21.199   3.184
28335W        W89866   9.313  23.530   0.341
28336W        W89867  23.575   4.447   3.208
28337W        W89868  20.224  32.920  11.608
28338W        W89869  25.041   6.879  14.504
28339W        W89870  32.602  33.413  14.807
28340W        W89871   9.808  27.968  11.423
28341W        W89872  15.211   7.327  14.383
28342W        W89873  25.516  12.324  14.888
28343W        W89874  14.679  35.942  13.845
28344W        W89875  15.298   4.783   2.360
28345W        W89876  44.478   5.279  13.356
28346W        W89877  19.131  39.813  10.955
28347W        W89878  16.784  15.179  11.094
28348W        W89879  34.502  10.358  12.503
28349W        W89880  20.718  29.501   1.210
28350W        W89881  11.659   4.296  14.002
28351W        W89882  33.096  31.628  11.423
28352W        W89883  19.241  42.904  13.908
28353W        W89884   3.901  25.079   3.257
28354W        W89885   0.439  16.282  10.967
28355W        W89886   4.869  36.010  12.948
28356W        W89887  41.801   5.860  14.828
28357W        W89888  19.097  40.040  11.393
28358W        W89889  39.431  38.952   3.735
28359W        W89890  29.930   5.839   4.152
28360W        W89891  40.332  13.231  14.783
28361W        W89892  12.633  15.710   3.305
28362W        W89893  43.974  29.599   4.821
28363W        W89894  20.592  33.996  11.433
28364W        W89895  17.063  15.758  12.541
28365W        W89896  11.225  18.167   2.845
28366W        W89897   3.406  23.162  10.436
28367W        W89898  19.572  13.809   4.128
28368W        W89899  44.341  17.281   2.199
28369W        W89900  33.924  34.942  13.460
28370W        W89901  37.866  29.043   3.808
28371W        W89902  24.026  14.763  12.969
28372W        W89903  14.177  29.660  11.108
28373W        W89904   9.841  32.602   2.200
28374W        W89905  42.420  14.706   0.390
28375W        W89906  33.469  44.813  11.432
28376W        W89907  22.195   9.154  11.090
28377W        W89908  34.544  11.330   0.313
28378W        W89909   6.218   1.352   0.402
28379W        W89910   2.431  16.313   0.731
28380W        W89911  40.386  13.195  11.940
28381W        W89912  25.475   1.370  11.869
28382W        W89913  16.316  16.607  13.819
28383W        W89914  28.546  30.601   1.275
28384W        W89915  32.498  24.516   0.244
28385W        W89916  12.832  12.804  14.959
28386W        W89917  15.666  44.836   4.821
28387W        W89918  38.844  42.523  10.612
28388W        W89919  33.398  21.142   3.644
28389W        W89920  40.517  21.238   0.284
28390W        W89921  17.165  39.903  13.010
28391W        W89922  16.657  44.414  13.413
28392W        W89923  33.123  35.407   2.320
28393W        W89924  11.722  35.379  13.807
28394W        W89925  10.358   4.774   2.783
28395W        W89926  30.494  27.952  13.054
28396W        W89927   3.792  19.050   1.377
28397W        W89928  21.729  23.195   3.743
28398W        W89929  23.677  14.206  12.531
28399W        W89930  15.604  13.307  11.564
28400W        W89931   2.468   6.877  12.079
28401W        W89932   5.397  34.387  13.477
28402W        W89933  37.422   1.854   0.946
28403W        W89934  15.198  39.440  11.521
28404W        W89935  10.695  44.376  10.495
28405W        W89936  23.690  26.510   0.382
28406W        W89937   2.272  44.268   1.431
28407W        W89938  29.667   4.759   1.804
28408W        W89939  35.542  16.104  12.999
28409W        W89940  30.526  35.383  12.514
28410W        W89941  39.974  41.969  14.372
28411W        W89942  14.602  28.974  12.898
28412W        W89943  10.830  24.983   3.844
28413W        W89944  41.300  18.725  11.421
28414W        W89945  38.912  25.599  10.542
28415W        W89946  13.168  14.158   2.273
28416W        W89947  10.641  21.242  14.342
28417W        W89948  27.597   9.840   4.643
28418W        W89949  29.639  37.480  13.381
28419W        W89950  13.846  30.982  13.546
28420W        W89951   5.333   4.209   0.782
28421W        W89952   2.297  32.590  14.953
28422W        W89953  30.423  17.602  13.424
28423W        W89954  41.408  11.242  14.467
28424W        W89955   7.287  29.610   1.263
28425W        W89956  38.329  30.016   3.636
28426W        W89957   3.781  25.990   1.341
28427W        W89958  37.358   8.847  13.535
28428W        W89959  23.224  30.076  14.943
28429W        W89960  18.689  35.066   5.294
28430W        W89961  15.719  35.872   1.809
28431W        W89962  35.947  28.535  14.820
28432W        W89963  10.177  37.467   0.825
28433W        W89964   8.670  33.583   4.271
28434W        W89965  23.037  29.137   0.337
28435W        W89966  35.572   8.338   2.269
28436W        W89967  17.578  31.972  12.472
28437W        W89968  25.968  20.629   4.834
28438W        W89969  30.598  44.769  13.470
28439W        W89970  37.539   2.808   3.296
28440W        W89971  42.005  38.979  11.542
28441W        W89972   4.733  30.416   2.688
28442W        W89973  40.965   6.232   1.868
28443W        W89974  26.464   6.263  12.057
28444W        W89975  26.548  10.220   0.794
28445W        W89976  25.641  24.596  12.030
28446W        W89977  14.767   5.748  11.465
28447W        W89978  32.123  13.228   3.841
28448W        W89979   7.786  22.072  12.374
28449W        W89980  44.347   0.922   2.353
28450W        W89981   4.237  14.172   4.752
28451W        W89982   3.807  37.437   5.192
28452W        W89983  21.699  31.625  12.578
28453W        W89984  43.842  34.532   1.330
28454W        W89985  11.850  28.638  14.451
28455W        W89986  34.863  24.122   1.234
28456W        W89987   8.856  10.291  12.553
28457W        W89988  44.818  40.825   1.702
28458W        W89989   6.297   7.825   0.851
28459W        W89990  35.096   0.873  13.036
28460W        W89991  44.880  16.230  12.432
28461W        W89992  39.520  35.963  14.759
28462W        W89993  28.016   5.688   2.728
28463W        W89994  41.879  37.570  12.932
28464W        W89995   7.883   1.793   4.256
28465W        W89996   7.880   4.406   2.302
28466W        W89997  25.684  42.012   0.954
28467W        W89998  16.284  27.115  14.030
28468W        W89999  38.563   7.212   3.721
28469W        W90000  41.934   7.912  11.599
28470W        W90001  16.088   1.906  12.461
28471W        W90002  22.244  32.456   0.759
28472W        W90003  42.284   5.290   0.308
28473W        W90004  33.066  44.978   0.910
28474W        W90005  41.504  22.516   1.327
28475W        W90006  41.851  36.514   4.197
28476W        W90007  20.074  30.645   2.304
28477W        W90008  10.878  17.251   1.446
28478W        W90009  40.995  43.375   1.446
28479W        W90010  28.038  43.347  13.915
28480W        W90011  34.865  25.638  14.485
28481W        W90012  36.983   5.916  14.819
28482W        W90013   8.178  23.206  11.443
28483W        W90014  31.979  23.074   2.245
28484W        W90015  26.461  16.190  11.919
28485W        W90016  13.212  15.801   2.230
28486W        W90017   0.808  40.897   2.859
28487W        W90018   4.699  33.966   2.895
28488W        W90019  30.137  27.064  11.875
28489W        W90020  28.979   2.859  10.959
28490W        W90021  24.531  39.830  11.866
28491W        W90022  13.181   4.359   1.699
28492W        W90023  17.135  29.951  10.574
28493W        W90024  29.481  41.338  14.431
28494W        W90025  35.459  10.317  10.146
28495W        W90026  25.153  12.728   3.271
28496W        W90027  10.355  26.091  10.427
28497W        W90028  34.587   8.779  14.278
28498W        W90029  18.560   3.922  14.301
28499W        W90030  11.139  22.146   2.728
28500W        W90031  21.234  32.986  10.488
28501W        W90032  16.724  37.017   1.698
28502W        W90033  15.087  23.599   3.256
28503W        W90034  39.038  15.716  12.856
28504W        W90035  28.956  33.988  14.975
28505W        W90036  27.654  44.266  11.394
28506W        W90037  44.979  39.983   4.309
28507W        W90038  37.953  21.183  13.855
28508W        W90039  24.697   4.940  14.829
28509W        W90040  42.400  13.111  10.916
28510W        W90041  43.394   8.249  13.028
28511W        W90042  30.078  18.651   2.759
28512W        W90043  26.106   6.685   4.196
28513W        W90044  33.399  35.590   3.268
28514W        W90045  35.442  33.617   4.679
28515W        W90046  14.768  33.067   3.204
28516W        W90047  34.463  13.106  14.369
28517W        W90048  13.325  34.055  12.893
28518W        W90049  37.341  26.097  12.937
28519W        W90050  42.006   3.442   3.347
28520W        W90051  18.243  20.705  12.944
28521W        W90052   5.853   8.791  11.400
28522W        W90053  41.310  13.673  14.469
28523W        W90054  43.492  30.975  14.384
28524W        W90055  28.067  39.454   4.649
28525W        W90056   4.381  10.868  14.900
28526W        W90057  33.111  31.972   3.855
28527W        W90058  32.499  23.495   2.257
28528W        W90059  13.667  16.767  12.997
28529W        W90060  41.307  17.609  13.924
28530W        W90061  20.073  42.948   4.825
28531W        W90062  36.425  32.522  12.906
28532W        W90063  40.931   1.334  10.559
28533W        W90064  27.189  41.496  11.057
28534W        W90065  18.180  27.578   4.163
28535W        W90066  40.912  41.000  14.005
28536W        W90067  29.550  36.007  13.019
28537W        W90068  18.207   8.748   3.366
28538W        W90069   1.923  40.459  12.500
28539W        W90070  31.988  32.042  10.443
28540W        W90071  11.161  39.558   3.231
28541W        W90072  18.258   1.905   2.751
28542W        W90073  18.625  14.775   3.692
28543W        W90074  19.046  41.806   2.792
28544W        W90075  37.930  26.663   1.303
28545W        W90076  31.150   7.411   0.773
28546W        W90077  17.771  13.287   0.870
28547W        W90078  23.024  38.507  14.408
28548W        W90079  23.076  19.605   3.656
28549W        W90080  43.979  29.147   1.427
28550W        W90081  17.226  41.030  13.810
28551W        W90082  23.117   3.874   4.165
28552W        W90083  43.777   7.809   1.452
28553W        W90084  39.013  38.821   4.301
28554W        W90085   1.293  27.180  14.019
28555W        W90086  40.362  20.177   2.279
28556W        W90087  19.723   0.303   1.808
28557W        W90088  10.861  40.956   3.865
28558W        W90089  44.479   6.299  11.549
28559W        W90090  22.170  25.067   0.912
28560W        W90091  18.284  29.442   3.218
28561W        W90092  24.984   8.689   5.246
28562W        W90093   2.865  35.870   3.844
28563W        W90094   5.384   7.317   1.840
28564W        W90095   6.709  33.882   1.419
28565W        W90096  41.852  36.530  12.059
28566W        W90097   8.686  17.661  14.893
28567W        W90098  23.092  16.240  14.424
28568W        W90099   5.897  18.741  12.493
28569W        W90100  32.068  41.364  12.529
28570W        W90101  35.995  40.442  12.934
28571W        W90102  34.983  13.294   4.266
28572W        W90103   5.225  26.476   1.882
28573W        W90104   2.336   9.759  10.991
28574W        W90105  18.565  13.116  10.968
28575W        W90106  13.248   1.804  10.643
28576W        W90107  10.807  38.359   0.846
28577W        W90108  15.232  26.003  12.443
28578W        W90109  30.999  28.154   1.230
28579W        W90110   6.910  15.100   0.817
28580W        W90111  19.726  12.721   1.750
28581W        W90112  33.432  25.697  11.079
28582W        W90113  33.428  31.025  11.907
28583W        W90114  19.598  44.878   1.713
28584W        W90115  35.523  29.145  10.558
28585W        W90116   6.745  25.505   5.797
28586W        W90117  19.747   6.402  13.950
28587W        W90118   4.875  34.595  11.476
28588W        W90119  22.232  20.111   0.363
28589W        W90120  31.588  25.579   3.346
28590W        W90121  35.427  40.988  12.388
28591W        W90122  41.939  29.660  12.411
28592W        W90123  32.943  20.598  14.931
28593W        W90124  35.942  38.382   0.940
28594W        W90125   7.831  23.503  11.430
28595W        W90126  17.185  23.014   3.776
28596W        W90127  43.986  33.390  11.373
28597W        W90128  28.066   6.311   2.708
28598W        W90129  17.065  34.497  14.947
28599W        W90130   5.913  15.324  13.952
28600W        W90131  40.891  29.595   1.447
28601W        W90132  32.914  42.838   4.661
28602W        W90133  43.441   7.842   0.298
28603W        W90134  22.997   5.303   4.285
28604W        W90135  29.121   9.792   3.816
28605W        W90136   8.391  35.429   1.384
28606W        W90137  26.202   1.856  14.502
28607W        W90138   1.758  32.948   1.771
28608W        W90139   0.937  30.932   2.751
28609W        W90140  41.876  25.613  14.800
28610W        W90141  40.492  18.758   3.370
28611W        W90142  44.847   5.881   0.859
28612W        W90143   5.908  11.236  10.536
28613W        W90144  21.134  32.015  13.791
28614W        W90145  21.705  11.194  14.852
28615W        W90146   4.768  32.954   4.693
28616W        W90147  20.176   4.324   2.718
28617W        W90148  23.078  15.758  12.465
28618W        W90149   9.269  15.178  13.541
28619W        W90150  36.905  12.267   1.375
28620W        W90151  21.564  38.043   3.657
28621W        W90152  14.112  29.115   4.199
28622W        W90153   3.218  32.559  10.551
28623W        W90154  27.157  12.766   2.673
28624W        W90155  14.695  44.881   1.364
28625W        W90156   0.392  40.937   2.898
28626W        W90157  15.256  18.253  12.967
28627W        W90158  26.630  17.684  14.897
28628W        W90159  33.017  10.280  11.105
28629W        W90160  39.926   0.364  13.417
28630W        W90161  20.138  38.900  13.863
28631W        W90162   8.235  26.207   2.708
28632W        W90163  18.285   6.226  13.323
28633W        W90164   2.788  13.347  13.511
28634W        W90165  13.783   6.311   4.190
28635W        W90166   8.188   5.796   1.415
28636W        W90167  30.518  16.713  12.385
28637W        W90168   3.265  15.211  13.035
28638W        W90169  15.278  29.052  13.027
28639W        W90170  18.269  28.124  14.963
28640W        W90171  41.365  35.857  11.081
28641W        W90172  43.290   7.242   5.088
28642W        W90173  20.564  13.639   4.345
28643W        W90174  27.141  41.880  14.764
28644W        W90175  29.536  22.746   2.412
28645W        W90176   3.727  30.518   3.789
28646W        W90177  43.003  25.117   4.264
28647W        W90178  17.594  20.261   1.720
28648W        W90179  22.658  28.594   0.373
28649W        W90180  13.719  10.310   2.372
28650W        W90181   6.370  26.515  14.975
28651W        W90182  41.809  16.176  11.420
28652W        W90183  18.197  25.626   3.199
28653W        W90184   1.783  40.019   1.856
28654W        W90185  36.409   8.754  12.544
28655W        W90186  43.855  11.347  14.363
28656W        W90187  25.685  36.039  12.524
28657W        W90188  13.741  24.154  11.084
28658W        W90189  39.327  37.942  11.038
28659W        W90190  23.584  35.950  11.538
28660W        W90191   4.828  10.666   0.446
28661W        W90192  25.073  35.955  14.323
28662W        W90193  15.200  16.811   3.704
28663W        W90194  32.434  15.753   2.859
28664W        W90195  19.255  40.474  12.925
28665W        W90196  33.954  17.570   3.693
28666W        W90197  11.756  38.435  10.964
28667W        W90198   4.294  11.315   1.443
28668W        W90199  14.224   1.426  11.998
28669W        W90200   1.876  21.236  10.619
28670W        W90201  42.965   2.334  12.488
28671W        W90202  41.411   1.288   1.705
28672W        W90203  20.706   7.672  13.337
28673W        W90204   1.315  43.806   1.311
28674W        W90205  36.859  35.073   1.821
28675W        W90206  17.633   8.866  10.937
28676W        W90207  13.701  40.523   2.670
28677W        W90208  26.172   8.348  11.488
28678W        W90209  13.743  19.724  14.769
28679W        W90210  41.827   1.857  11.393
28680W        W90211  39.316  37.001  13.442
28681W        W90212  29.635  19.137  12.840
28682W        W90213  40.005  15.092  13.528
28683W        W90214  11.815  31.584   3.708
28684W        W90215  11.679   4.899  12.982
28685W        W90216  21.059  32.412  10.922
28686W        W90217  38.974  17.606   3.710
28687W        W90218   4.770  42.901   5.277
28688W        W90219  22.512  23.507   3.217
28689W        W90220  18.117   8.869  10.526
28690W        W90221  43.979  23.714   1.388
28691W        W90222   7.185  40.882   2.825
28692W        W90223  30.958  17.251   4.745
28693W        W90224   5.913  37.885   4.154
28694W        W90225  40.437  30.071  11.410
28695W        W90226  30.980  19.179   3.715
28696W        W90227  20.078  42.896   0.269
28697W        W90228  25.672  32.517   4.736
28698W        W90229  10.309  40.456   0.958
28699W        W90230  10.384  23.499   3.835
28700W        W90231  13.769   7.190  11.560
28701W        W90232  27.025  43.993   3.210
28702W        W90233  20.593  42.445  14.300
28703W        W90234  17.636  19.613   1.716
28704W        W90235  22.697  25.110   2.191
28705W        W90236  38.348  12.351  14.945
28706W        W90237   4.925  32.567  12.409
28707W        W90238  21.027   9.721  10.969
28708W        W90239  11.865   1.283   2.377
28709W        W90240  30.992  43.859   2.406
28710W        W90241  14.793  34.549   4.278
28711W        W90242  41.301   0.785  11.026
28712W        W90243  13.160  19.106   3.756
28713W        W90244  34.876  35.594   3.307
28714W        W90245  34.863  16.294   3.743
28715W        W90246  18.246  12.710   3.869
28716W        W90247  29.604  38.378   4.152
28717W        W90248  43.491  32.082  14.909
28718W        W90249  20.610  19.729   4.204
28719W        W90250  29.948   0.294  12.491
28720W        W90251  22.701  41.328   4.704
28721W        W90252  41.330  41.980   3.248
28722W        W90253   5.197  14.679   4.630
28723W        W90254   7.363  20.524   1.429
28724W        W90255  32.473  22.554  13.984
28725W        W90256  36.078  15.651  12.012
28726W        W90257  42.870  19.581   2.338
28727W        W90258  15.094  44.352  14.905
28728W        W90259  38.331  37.869  12.011
28729W        W90260  39.054  23.040   3.749
28730W        W90261   7.801   7.260   5.264
28731W        W90262  36.928   3.267  14.875
28732W        W90263  11.347  30.444   9.998
28733W        W90264   2.254  10.185  10.998
28734W        W90265   6.411  28.035   0.941
28735W        W90266  32.629  18.601  12.076
28736W        W90267  23.215   2.817  10.409
28737W        W90268  22.078  10.767   0.875
28738W        W90269   4.843  11.353   2.365
28739W        W90270  24.001  13.310   4.772
28740W        W90271   7.270  19.131  11.593
28741W        W90272  10.827  22.557  13.524
28742W        W90273  21.512  34.951   0.358
28743W        W90274   3.286  27.467  12.414
28744W        W90275  32.546  23.238  14.318
28745W        W90276  43.820   6.722  10.987
28746W        W90277  19.246  42.441   2.250
28747W        W90278  12.778  42.392  11.504
28748W        W90279   4.938  40.432   4.675
28749W        W90280  10.777  16.284  11.914
28750W        W90281   1.928   0.483   0.731
28751W        W90282   7.264  25.673  10.567
28752W        W90283   7.685  28.129  11.045
28753W        W90284  15.177   8.772   1.368
28754W        W90285  42.385   0.411   2.817
28755W        W90286  11.257  30.934   1.444
28756W        W90287  20.037  21.685  13.970
28757W        W90288  12.307  27.470   2.820
28758W        W90289  27.634   8.300  13.911
28759W        W90290  20.654   1.316   3.799
28760W        W90291  18.761  17.767   1.738
28761W        W90292   2.931  19.734   3.325
28762W        W90293  41.357  20.657   0.936
28763W        W90294  44.010  11.300  13.918
28764W        W90295  22.657  33.522   4.645
28765W        W90296  22.043   6.283   3.738
28766W        W90297  33.944   0.885   4.755
28767W        W90298  24.206  37.474   4.606
28768W        W90299  14.097  11.153   1.933
28769W        W90300  30.642  42.952  11.038
28770W        W90301  27.634  16.647   3.645
28771W        W90302   5.316  15.793   3.776
28772W        W90303  31.586   5.825  10.533
28773W        W90304  32.527  28.938   4.268
28774W        W90305  33.021  20.172   0.325
28775W        W90306  28.066  29.070   3.801
28776W        W90307  24.605  40.455   4.261
28777W        W90308  15.257  32.933  13.534
28778W        W90309  29.031  10.227  12.493
28779W        W90310  40.844  43.864   4.262
28780W        W90311  40.474   8.393   1.250
28781W        W90312   4.904  11.706   3.165
28782W        W90313  26.469  15.674   4.777
28783W        W90314   3.824   1.356   4.615
28784W        W90315  28.478  27.524   4.827
28785W        W90316  10.809  39.490   3.787
28786W        W90317  14.768  14.758  14.028
28787W        W90318   7.335  24.216  14.004
28788W        W90319   5.356  42.281  14.440
28789W        W90320  14.215   1.825  13.930
28790W        W90321   9.342  17.665   4.241
28791W        W90322  14.739  30.415   5.613
28792W        W90323  22.054  16.597   0.739
28793W        W90324   5.704  39.376   1.351
28794W        W90325  37.574  34.003   1.309
28795W        W90326   6.685  25.554   3.147
28796W        W90327  43.421  25.027   2.218
28797W        W90328   9.841  17.271   2.411
28798W        W90329   9.261  17.590   2.209
28799W        W90330  29.927  17.191  12.978
28800W        W90331  28.643  11.768   3.318
28801W        W90332   5.354  44.403  12.360
28802W        W90333  15.257  41.389  12.476
28803W        W90334   5.208  34.954   2.301
28804W        W90335  28.163   3.439   2.240
28805W        W90336  16.311  43.022  13.994
28806W        W90337  35.031  12.279  13.928
28807W        W90338  33.956  38.872  11.436
28808W        W90339  27.503  18.262   3.275
28809W        W90340  32.925  14.266  14.449
28810W        W90341   9.875  42.418   3.244
28811W        W90342  36.074  36.354   1.822
28812W        W90343  37.062  44.505   0.258
28813W        W90344  30.907  41.417   9.941
28814W        W90345  17.279  23.627  13.379
28815W        W90346   4.324  18.152   4.744
28816W        W90347  19.714  31.562   4.602
28817W        W90348  34.461  38.525   0.811
28818W        W90349   2.292  26.121   3.341
28819W        W90350  23.190  30.608   0.934
28820W        W90351  10.789  26.494   1.727
28821W        W90352  14.601  11.743   4.656
28822W        W90353  43.374  30.634   2.364
28823W        W90354  22.135  30.542  10.931
28824W        W90355  24.690  25.586   4.598
28825W        W90356  11.634   2.768  13.316
28826W        W90357  34.432  10.640  11.989
28827W        W90358  10.709  12.270   0.458
28828W        W90359  38.337  19.763   1.340
28829W        W90360   1.427  22.691   2.808
28830W        W90361   5.876  25.557   2.313
28831W        W90362  44.944  35.582  14.432
28832W        W90363   2.865  37.072   2.299
28833W        W90364   4.341  37.525  12.395
28834W        W90365  43.466   9.686   4.351
28835W        W90366  11.656  10.169   1.868
28836W        W90367  44.501  26.524  13.824
28837W        W90368  36.981  26.040  13.311
28838W        W90369  27.654   0.450   2.215
28839W        W90370  12.678  22.118  13.386
28840W        W90371  28.126  20.241   3.762
28841W        W90372  29.004  14.284   3.691
28842W        W90373  25.040  41.903  13.521
28843W        W90374  30.157  12.360  11.524
28844W        W90375  15.698  21.154  13.927
28845W        W90376   7.895  33.895  12.450
28846W        W90377  30.920  41.453  14.987
28847W        W90378  24.182  10.139   9.979
28848W        W90379  29.529  28.531  13.948
28849W        W90380  13.823  34.023   4.203
28850W        W90381   4.339   9.204   2.867
28851W        W90382  19.654  41.461   0.427
28852W        W90383  32.109  16.586  10.578
28853W        W90384   3.750  18.652  10.990
28854W        W90385   9.308  30.943   3.865
28855W        W90386  35.471   9.395  12.494
28856W        W90387  11.785  17.217  13.447
28857W        W90388  23.511  23.001   1.249
28858W        W90389  27.464   2.404  13.883
28859W        W90390  31.921  14.738  13.884
28860W        W90391  37.925   1.839  12.845
28861W        W90392   6.868  30.416   1.901
28862W        W90393  26.528   2.451   0.426
28863W        W90394  21.207  41.314  13.989
28864W        W90395   0.833   8.392  14.313
28865W        W90396  10.158  27.942  10.987
28866W        W90397  20.654  29.462  10.907
28867W        W90398  16.650  14.209  14.890
28868W        W90399  12.209   6.322   4.831
28869W        W90400  10.700  13.840  12.060
28870W        W90401   2.438  29.148  10.048
28871W        W90402  23.192  22.192  10.927
28872W        W90403   1.374  19.271  13.002
28873W        W90404  44.351  18.152   1.772
28874W        W90405  31.003  34.898  12.078
28875W        W90406  20.582  36.068  12.038
28876W        W90407  29.581  14.189  14.507
28877W        W90408  10.825  29.546  10.929
28878W        W90409  26.660  39.942  10.967
28879W        W90410  33.065  14.127  13.968
28880W        W90411  38.829   7.304  14.779
28881W        W90412  16.198  14.716  11.391
28882W        W90413  32.980  12.702   1.436
28883W        W90414  44.959  27.111  12.061
28884W        W90415  18.133   9.342  12.516
28885W        W90416  41.019  10.789  10.147
28886W        W90417  16.303  10.299  12.540
28887W        W90418  27.951  42.001   3.345
28888W        W90419  14.734  12.158   3.787
28889W        W90420  43.950  22.011   1.784
28890W        W90421  24.566  36.922  10.444
28891W        W90422  40.506  23.177  14.987
28892W        W90423  35.964  19.064   1.273
28893W        W90424  12.764  13.319  13.464
28894W        W90425  10.196  11.332  13.929
28895W        W90426  35.389  23.538   0.315
28896W        W90427   6.253   6.795   3.265
28897W        W90428   7.697  17.737   4.185
28898W        W90429  20.203  35.976   4.642
28899W        W90430  12.771  36.896   4.173
28900W        W90431  33.420   4.900   3.176
28901W        W90432  22.610  33.580   3.695
28902W        W90433  39.878  19.203   3.265
28903W        W90434  16.286  13.830   1.214
28904W        W90435  42.983  39.405  10.481
28905W        W90436   6.364   1.761   0.335
28906W        W90437  23.009  14.162   1.915
28907W        W90438  11.803  21.103  10.624
28908W        W90439  21.561  11.288  11.452
28909W        W90440  38.434  43.297  12.522
28910W        W90441  16.268  29.441  12.420
28911W        W90442  40.433  28.607  11.000
28912W        W90443  29.497  21.557   2.317
28913W        W90444  26.098  39.419  14.946
28914W        W90445  39.329  27.118   0.882
28915W        W90446  28.083  24.660   3.864
28916W        W90447  40.940  29.491  12.457
28917W        W90448  35.886  26.562   3.242
28918W        W90449  40.029  25.636   0.866
28919W        W90450  31.558  10.877  10.431
28920W        W90451  15.083  24.023   0.967
28921W        W90452  25.171   5.254   3.253
28922W        W90453   5.865  37.883   3.766
28923W        W90454   7.877  38.826  11.389
28924W        W90455   2.441  38.874   2.413
28925W        W90456  34.983  44.308  10.557
28926W        W90457  19.713  37.915  12.078
28927W        W90458  34.580  35.408   2.315
28928W        W90459  34.561  27.112  13.392
28929W        W90460  12.248  37.534  13.894
28930W        W90461  24.186  19.243   0.944
28931W        W90462  40.992  10.656   5.740
28932W        W90463  11.742  33.076  11.956
28933W        W90464  10.301   2.294  10.893
28934W        W90465  10.742   3.786   4.823
28935W        W90466   0.941  19.125  13.940
28936W        W90467  15.686  12.273   1.240
28937W        W90468  23.035  27.011   0.292
28938W        W90469  43.845  22.070  10.925
28939W        W90470  20.207   3.890  13.528
28940W        W90471  40.481   2.463   0.464
28941W        W90472  40.339  27.543   0.374
28942W        W90473  13.325  30.129   5.116
28943W        W90474  44.270  41.378  11.466
28944W        W90475  40.526  38.383  12.492
28945W        W90476  36.552   4.342   4.805
28946W        W90477  36.559  34.414  11.997
28947W        W90478  28.023  16.809  10.502
28948W        W90479  28.492   8.857  12.986
28949W        W90480  34.392  36.929  11.402
28950W        W90481  18.720   7.854   1.387
28951W        W90482  37.073  33.482   1.719
28952W        W90483  13.340  44.292  10.441
28953W        W90484   1.793  42.939  13.959
28954W        W90485  34.876  21.255   3.155
28955W        W90486  40.941  34.898   0.849
28956W        W90487  28.097  28.592  14.345
28957W        W90488  20.194   4.843   0.941
28958W        W90489   2.831  32.405  10.591
28959W        W90490  22.201   3.421  14.448
28960W        W90491   0.443   5.917  11.857
28961W        W90492  13.844  24.552  10.943
28962W        W90493  22.508  38.342   3.773
28963W        W90494  11.338  14.136   3.369
28964W        W90495  37.581  25.684   3.325
28965W        W90496  38.906  33.414  14.917
28966W        W90497   0.975  42.884   5.089
28967W        W90498  24.521  28.091  13.030
28968W        W90499   6.211   6.324   5.181
28969W        W90500  33.399  17.242   3.658
28970W        W90501  32.008  18.236   2.319
28971W        W90502   7.293  25.657   3.631
28972W        W90503  13.640  10.857  11.071
28973W        W90504  22.077   9.789   0.337
28974W        W90505  24.074  26.581  12.469
28975W        W90506  15.745   8.239   3.385
28976W        W90507  28.598  40.817  13.422
28977W        W90508  35.867   1.368   4.678
28978W        W90509  30.965   1.467  12.945
28979W        W90510   0.861  14.619   4.705
28980W        W90511  44.953  41.312  14.505
28981W        W90512  15.665   3.313   0.808
28982W        W90513  40.895  41.987   2.788
28983W        W90514  32.887  29.135  13.957
28984W        W90515  10.659   5.434  14.846
28985W        W90516  29.427  13.185  13.959
28986W        W90517  40.030  21.202   1.889
28987W        W90518   3.933   7.697  14.369
28988W        W90519  24.498  22.059  11.566
28989W        W90520  23.594  18.747   2.820
28990W        W90521  15.577  43.021   4.169
28991W        W90522  28.440  17.126  12.487
28992W        W90523  21.257  19.681  12.503
28993W        W90524   1.458  12.327  13.983
28994W        W90525  24.576  33.132   4.254
28995W        W90526  43.398  22.730   1.915
28996W        W90527  33.035  29.496   0.765
28997W        W90528  28.099   6.254  11.566
28998W        W90529   5.389   5.371  10.475
28999W        W90530  25.045  12.648   1.376
29000W        W90531  28.610  15.595   2.806
29001W        W90532  26.022   8.655   3.719
29002W        W90533   5.694  28.657  14.314
29003W        W90534  31.920   4.765  12.868
29004W        W90535  44.278  13.279   2.354
29005W        W90536   5.408  21.684  13.064
29006W        W90537  37.907  27.516   1.716
29007W        W90538  22.738  15.256   0.447
29008W        W90539  22.550  21.146   2.810
29009W        W90540  26.084  37.915   2.282
29010W        W90541  38.455  20.759   2.723
29011W        W90542   6.751  43.339   1.864
29012W        W90543  38.337  15.192   0.469
29013W        W90544   6.219   0.824   4.830
29014W        W90545  20.239  39.926   0.771
29015W        W90546  34.501   1.886  13.409
29016W        W90547  29.629  24.068  13.879
29017W        W90548  25.990  20.123   2.839
29018W        W90549  27.534  27.978   2.759
29019W        W90550  41.001  40.322   0.955
29020W        W90551  24.618  40.870   9.495
29021W        W90552  10.336  21.564   1.405
29022W        W90553  40.381  27.187  13.512
29023W        W90554   1.914  39.440   3.231
29024W        W90555  10.373  35.883  12.400
29025W        W90556  39.489   3.943   1.850
29026W        W90557   7.255  10.637   4.789
29027W        W90558  16.101   5.831   3.312
29028W        W90559   1.907  28.530  11.596
29029W        W90560   7.742  21.731  11.607
29030W        W90561  40.038   2.725  13.421
29031W        W90562  37.448  37.533  13.927
29032W        W90563  27.171   7.738   4.208
29033W        W90564  17.560  25.977   4.715
29034W        W90565   9.361  43.340  10.519
29035W        W90566  33.956  28.116   1.863
29036W        W90567  22.177  28.649  10.002
29037W        W90568  10.779   5.236   0.735
29038W        W90569  34.488  41.302  10.630
29039W        W90570   2.426   6.220  12.921
29040W        W90571  33.443  39.885  12.824
29041W        W90572   4.296   8.191  12.364
29042W        W90573  41.035  22.578   1.921
29043W        W90574  21.701  18.708  11.099
29044W        W90575  32.528   4.429   0.261
29045W        W90576  44.865  36.416  13.321
29046W        W90577  29.523   3.735  11.858
29047W        W90578  19.152   3.411  11.060
29048W        W90579  27.041  24.497  13.792
29049W        W90580  25.587  35.534   2.360
29050W        W90581  44.340  15.618  10.958
29051W        W90582  25.969  21.231   2.751
29052W        W90583  37.023   4.757  12.531
29053W        W90584  34.581  12.835   2.235
29054W        W90585  15.274  11.197  12.082
29055W        W90586   0.263  16.694  10.470
29056W        W90587  42.292  36.590   4.773
29057W        W90588  26.139  13.187  11.108
29058W        W90589  32.004  17.151  11.383
29059W        W90590  44.428  25.556  14.955
29060W        W90591  32.536  18.275  14.510
29061W        W90592  18.783  40.848  14.014
29062W        W90593  26.579  16.123   2.418
29063W        W90594  30.565  44.939   2.881
29064W        W90595   5.812  38.522   4.755
29065W        W90596  36.537  13.837  10.563
29066W        W90597  19.122  35.105  14.791
29067W        W90598  34.521  35.476  10.109
29068W        W90599  38.991   5.274  10.537
29069W        W90600  23.191  31.611  14.320
29070W        W90601  36.355  29.584  10.546
29071W        W90602  13.121  36.924   1.796
29072W        W90603  34.572   8.834  13.461
29073W        W90604   1.361   4.928  11.427
29074W        W90605  39.422  31.499  11.016
29075W        W90606  28.480  12.267   4.208
29076W        W90607  36.527  27.502  14.491
29077W        W90608  23.633  34.369   1.264
29078W        W90609  23.668   5.773   4.778
29079W        W90610   7.249  24.646  10.949
29080W        W90611  22.096   7.884  13.469
29081W        W90612   5.220  44.932  13.407
29082W        W90613  17.573  20.060  13.056
29083W        W90614  41.033  36.454  12.378
29084W        W90615  25.597   9.716  11.876
29085W        W90616  22.109  26.117  10.565
29086W        W90617   0.388  22.103  12.047
29087W        W90618   0.839  25.156   2.700
29088W        W90619  44.900   7.407  13.925
29089W        W90620  35.359   4.902  10.539
29090W        W90621  11.283  44.363   3.734
29091W        W90622  22.637  19.665   3.784
29092W        W90623  18.736  35.070  14.283
29093W        W90624  10.176  29.932   4.665
29094W        W90625   9.348  23.718  11.450
29095W        W90626  19.580  22.099   1.302
29096W        W90627  37.947  28.083  13.518
29097W        W90628   8.793   8.292   2.778
29098W        W90629  18.206  24.517  12.923
29099W        W90630  37.045   2.426   4.637
29100W        W90631  13.738  29.638   3.266
29101W        W90632   0.287  30.017  14.838
29102W        W90633  32.480  18.243   1.713
29103W        W90634  35.447  11.307   9.536
29104W        W90635  21.616   5.421  12.006
29105W        W90636   6.835   1.427   5.291
29106W        W90637  24.479  10.356   1.366
29107W        W90638  44.373  18.633  12.002
29108W        W90639   3.758  16.076   4.315
29109W        W90640  17.270  29.978  12.362
29110W        W90641   0.843  19.624   2.247
29111W        W90642  21.753   3.398   4.162
29112W        W90643  25.573  19.061   2.820
29113W        W90644  22.009  39.005  14.295
29114W        W90645  33.014   9.165   0.801
29115W        W90646  33.052  20.636  14.490
29116W        W90647  19.541  12.722   0.950
29117W        W90648  20.586  41.822  13.321
29118W        W90649  26.691  15.695   2.293
29119W        W90650  43.835  28.455  12.543
29120W        W90651   8.818  31.987  14.864
29121W        W90652  22.538  14.241   4.139
29122W        W90653  18.116  27.646  14.490
29123W        W90654  32.564   3.816   2.248
29124W        W90655  39.517   5.912  11.464
29125W        W90656  13.738  22.997   2.334
29126W        W90657  22.136  33.604  10.529
29127W        W90658  37.344  27.666   2.303
29128W        W90659  17.689  37.535  12.999
29129W        W90660  23.702  14.280   4.737
29130W        W90661  17.795   3.256   4.119
29131W        W90662  35.419  40.512   2.786
29132W        W90663  26.174  39.050   1.219
29133W        W90664  37.894  22.173  13.974
29134W        W90665  41.020  25.212  12.982
29135W        W90666  33.582  14.228   5.794
29136W        W90667  30.584   9.816  11.021
29137W        W90668  40.309  27.021  11.514
29138W        W90669  20.098   5.194   1.403
29139W        W90670   5.317  42.472   3.305
29140W        W90671  25.112  11.300   1.744
29141W        W90672  35.400  23.169   0.903
29142W        W90673   9.194   8.832   3.772
29143W        W90674  17.646  12.211   3.741
29144W        W90675  18.591  16.297  13.057
29145W        W90676   7.287  19.773   2.297
29146W        W90677  28.476   7.832   9.621
29147W        W90678  23.176  27.508   2.857
29148W        W90679   6.686   9.861  11.427
29149W        W90680  34.407  21.058   1.715
29150W        W90681  30.978  24.597  14.956
29151W        W90682  19.724  33.930   1.353
29152W        W90683  25.144   1.745  12.079
29153W        W90684  44.758  42.281  14.465
29154W        W90685  23.192  42.457   0.291
29155W        W90686   5.327  27.111   1.292
29156W        W90687  41.507  39.870   2.776
29157W        W90688  18.706  44.373   0.339
29158W        W90689  24.018  32.060  10.600
29159W        W90690  28.037  32.572   4.147
29160W        W90691   3.348  10.206  10.592
29161W        W90692  25.675   0.835   3.828
29162W        W90693  23.615  19.659  12.888
29163W        W90694  40.419  24.147  14.874
29164W        W90695  35.977  44.927   4.116
29165W        W90696  29.965   4.899  13.334
29166W        W90697  29.927  36.075  10.598
29167W        W90698  24.559  14.728  13.428
29168W        W90699  26.099   4.449  11.574
29169W        W90700   3.328  18.244   2.224
29170W        W90701  23.674   8.715   0.376
29171W        W90702  43.470  25.028   1.814
29172W        W90703   4.847  36.854  12.922
29173W        W90704  33.082  34.572  10.973
29174W        W90705   9.779  19.566  14.832
29175W        W90706  36.028   7.703  11.004
29176W        W90707  44.392  39.519   2.882
29177W        W90708  20.178  20.644   4.270
29178W        W90709  27.029   0.432  13.546
29179W        W90710   1.265   4.429   3.643
29180W        W90711  38.018  30.926   4.744
29181W        W90712   2.249  38.544  12.849
29182W        W90713  37.348  42.845   0.324
29183W        W90714  37.489   7.850   0.291
29184W        W90715  31.928  28.083   4.281
29185W        W90716  27.456  15.754   2.784
29186W        W90717   7.788  40.513   0.785
29187W        W90718  23.714  15.256   3.225
29188W        W90719   0.865  42.835  14.910
29189W        W90720  41.449  10.293  10.519
29190W        W90721  41.910  19.187   4.813
29191W        W90722  26.125  24.591   3.704
29192W        W90723   3.784  41.338   4.307
29193W        W90724  16.770  44.503  12.531
29194W        W90725  41.362  42.302  14.980
29195W        W90726  37.041  28.025   0.358
29196W        W90727  38.830  10.222  13.815
29197W        W90728  29.462  41.349  10.516
29198W        W90729  38.070   6.356  13.059
29199W        W90730  17.588  17.558   2.861
29200W        W90731  17.273   5.255   2.865
29201W        W90732   9.790  38.067   2.695
29202W        W90733  20.049   2.783  11.434
29203W        W90734  25.099  30.526   3.840
29204W        W90735  19.253   5.752  14.897
29205W        W90736  32.453  34.394  12.559
29206W        W90737   1.953  38.900  13.350
29207W        W90738  44.850  27.174  12.481
29208W        W90739  11.259  40.817  12.871
29209W        W90740  13.645  11.338  13.055
29210W        W90741  24.010  22.014   1.346
29211W        W90742  13.157  20.202  13.452
29212W        W90743  21.075  16.765   4.706
29213W        W90744  11.702   5.351   4.687
29214W        W90745  34.071  29.430  14.373
29215W        W90746  29.483  43.371  10.975
29216W        W90747  19.752  26.017   3.809
29217W        W90748   5.754  33.056   2.711
29218W        W90749  11.316  13.760  13.422
29219W        W90750  34.071  28.003  11.089
29220W        W90751  44.853  32.438   3.178
29221W        W90752  10.647  39.420   2.681
29222W        W90753  42.381   2.351  10.484
29223W        W90754  19.226   0.965   3.850
29224W        W90755  18.744  11.321  13.389
29225W        W90756  16.290   9.785   4.739
29226W        W90757  17.702  21.218  12.508
29227W        W90758  25.620  44.973  10.444
29228W        W90759   9.218  42.478   3.654
29229W        W90760  26.665   5.720   0.906
29230W        W90761  22.504   4.309  14.986
29231W        W90762  37.479  40.808  11.860
29232W        W90763  23.526  28.051   5.585
29233W        W90764  22.637   6.902   0.960
29234W        W90765  36.866   8.203   3.781
29235W        W90766   6.839  31.106  11.007
29236W        W90767  37.997   1.447   3.823
29237W        W90768  19.618  26.128  11.887
29238W        W90769  40.898  41.511  14.946
29239W        W90770  10.842   3.450  12.485
29240W        W90771  24.196  42.961   3.695
29241W        W90772  20.600  31.141  14.481
29242W        W90773   4.920  20.062   4.227
29243W        W90774  22.744   2.342  13.947
29244W        W90775  19.600  11.725   3.328
29245W        W90776  34.433  38.048   0.306
29246W        W90777   6.319   7.288  13.534
29247W        W90778  35.501   5.276  14.424
29248W        W90779  24.129  33.615   1.436
29249W        W90780  33.954  25.708   4.684
29250W        W90781  16.662  29.601   0.453
29251W        W90782  24.656  22.720   2.829
29252W        W90783  39.353  31.939  11.563
29253W        W90784  39.322  24.177   4.274
29254W        W90785  32.070  19.238  10.569
29255W        W90786  17.739  19.664   4.344
29256W        W90787  25.582   7.354   2.264
29257W        W90788  26.097  12.824  14.413
29258W        W90789  24.678  43.808   1.227
29259W        W90790  18.750  28.112  10.004
29260W        W90791  17.696  22.642   5.583
29261W        W90792   6.311  29.473   1.887
29262W        W90793  28.081  24.110   3.631
29263W        W90794  36.354  34.008  10.414
29264W        W90795  41.848   7.879   0.962
29265W        W90796  14.323  24.116   2.240
29266W        W90797  39.932  34.037  12.977
29267W        W90798   4.263   7.206  13.464
29268W        W90799  20.261  16.735  14.798
29269W        W90800  22.582  24.540   2.675
29270W        W90801  42.026  38.529  10.472
29271W        W90802  35.493   7.247   1.767
29272W        W90803  27.527  34.423   4.202
29273W        W90804  14.257  10.824  10.624
29274W        W90805   8.252  38.008  13.926
29275W        W90806  18.232  12.801   2.863
29276W        W90807  41.326  32.516   4.234
29277W        W90808  28.502  43.393  12.563
29278W        W90809  29.548  13.685   4.136
29279W        W90810  16.091   6.378  14.004
29280W        W90811   5.886  29.470  14.956
29281W        W90812  18.665  35.862   4.158
29282W        W90813  14.688  25.036   3.298
29283W        W90814  33.487  23.080   1.709
29284W        W90815  21.592  16.699   2.310
29285W        W90816  43.772  41.488   2.814
29286W        W90817  28.975  11.846   3.805
29287W        W90818  34.484  39.377   4.146
29288W        W90819   8.702  33.116   4.664
29289W        W90820  36.961  20.721   0.418
29290W        W90821   6.251  24.067  11.576
29291W        W90822   6.193  32.437   0.854
29292W        W90823  13.175  17.244  13.398
29293W        W90824  23.076  13.257  12.487
29294W        W90825  12.226   4.231   2.695
29295W        W90826  15.101   0.818   3.841
29296W        W90827   8.760   0.808   2.764
29297W        W90828   8.824  26.469  12.986
29298W        W90829  12.321  12.767  14.316
29299W        W90830   1.962  44.371   3.669
29300W        W90831   3.813  37.386  13.002
29301W        W90832  13.643  40.426   1.439
29302W        W90833   7.259  32.575  11.502
29303W        W90834  17.068  41.445  10.559
29304W        W90835  19.631  29.945   3.665
29305W        W90836  28.936   1.878   4.691
29306W        W90837  38.921  23.684  10.027
29307W        W90838  26.584   8.708  14.853
29308W        W90839  28.586  22.739  13.332
29309W        W90840  18.106  28.142  11.024
29310W        W90841  20.140   8.384   4.217
29311W        W90842  30.577  20.639  12.827
29312W        W90843  28.435  10.850   2.709
29313W        W90844  29.623  14.308  13.446
29314W        W90845  19.257   9.887  11.010
29315W        W90846  10.248   7.868   1.226
29316W        W90847  41.399  37.848  14.939
29317W        W90848  18.601   5.912  12.925
29318W        W90849  14.234  12.176  14.802
29319W        W90850  18.565   6.838  13.490
29320W        W90851  38.038  31.630  14.383
29321W        W90852  44.778  11.856   3.335
29322W        W90853   7.737  15.800   2.280
29323W        W90854   6.283  14.648   2.859
29324W        W90855  35.067  37.895   3.725
29325W        W90856  35.105  16.249  14.846
29326W        W90857   4.851   1.482  12.006
29327W        W90858   4.912  29.073  13.821
29328W        W90859  33.484   8.213  10.608
29329W        W90860  31.627  20.527   0.341
29330W        W90861  21.031  11.697  13.386
29331W        W90862   0.908  31.136  12.905
29332W        W90863  15.634  41.402   3.688
29333W        W90864  21.755  11.213   2.201
29334W        W90865   0.946  36.058  10.637
29335W        W90866  26.513  20.626  12.459
29336W        W90867  20.067  28.125  10.036
29337W        W90868   6.366   3.841  10.499
29338W        W90869   8.848  38.500   2.272
29339W        W90870  20.621  23.724   3.844
29340W        W90871   9.243  33.403   3.674
29341W        W90872  29.920  33.446  14.965
29342W        W90873   2.306  32.122  13.448
29343W        W90874  40.996  23.589   3.656
29344W        W90875  10.715   0.473   0.451
29345W        W90876  14.780  16.180  11.389
29346W        W90877  25.565  27.940  14.869
29347W        W90878  16.764  37.045   0.910
29348W        W90879  14.596   7.299  13.060
29349W        W90880  10.168  19.173  14.323
29350W        W90881  39.929  35.989  13.381
29351W        W90882  11.644  22.022  13.924
29352W        W90883  25.575  34.510   3.206
29353W        W90884  20.541  22.006  13.989
29354W        W90885   3.818  35.925   1.382
29355W        W90886  43.008  42.331   1.696
29356W        W90887  29.500   1.854  14.938
29357W        W90888  27.084   1.864  13.389
29358W        W90889  38.333  43.008  13.807
29359W        W90890  37.350  20.219  13.021
29360W        W90891   5.855  24.639   4.811
29361W        W90892  28.638  33.620   3.367
29362W        W90893  33.595  28.622   1.365
29363W        W90894  42.366   7.195  14.275
29364W        W90895   4.769  17.092   2.662
29365W        W90896  41.487  41.016  12.481
29366W        W90897   5.298   0.843   4.221
29367W        W90898  31.418  37.058   4.691
29368W        W90899  14.771  29.925  13.391
29369W        W90900  39.944  18.705  14.942
29370W        W90901   3.442  33.608  13.021
29371W        W90902  24.063  13.845  14.963
29372W        W90903  30.559  43.851  11.955
29373W        W90904  21.145  36.082  12.072
29374W        W90905  23.049  15.099  14.017
29375W        W90906  28.068   4.225   3.649
29376W        W90907  23.732   5.822  14.980
29377W        W90908  30.074   8.676   2.664
29378W        W90909  35.437   6.763  14.494
29379W        W90910  27.613  21.242   0.319
29380W        W90911  27.490  19.606  13.950
29381W        W90912   6.397   9.151   2.277
29382W        W90913  28.091  23.113  13.451
29383W        W90914  12.214   5.856   0.306
29384W        W90915  43.795   1.462  13.347
29385W        W90916  30.052  14.642   0.967
29386W        W90917   9.857  24.124   2.803
29387W        W90918   6.714  33.964   3.307
29388W        W90919  41.294  14.727  11.090
29389W        W90920   7.908  20.259  13.382
29390W        W90921   2.370  18.581  13.468
29391W        W90922  19.663  39.998  10.452
29392W        W90923   3.460  31.121  14.847
29393W        W90924  18.688  28.498  10.440
29394W        W90925  25.605  36.557   3.769
29395W        W90926  34.408  17.688   3.803
29396W        W90927  36.855   7.763  13.390
29397W        W90928  36.589  31.995  11.949
29398W        W90929  24.513  34.064   5.316
29399W        W90930  34.431  44.809  11.858
29400W        W90931  24.220  27.181  11.936
29401W        W90932  41.879   2.732   4.663
29402W        W90933   3.431  11.161  14.341
29403W        W90934  44.442  41.325   0.749
29404W        W90935   5.411   4.745   0.406
29405W        W90936  10.721  29.431   3.361
29406W        W90937  36.539  26.486   0.425
29407W        W90938   4.791  41.397   0.951
29408W        W90939  30.099  21.708   0.403
29409W        W90940  43.891  21.196   1.419
29410W        W90941  35.466   9.752   3.850
29411W        W90942  39.955  15.719   4.621
29412W        W90943   6.761  17.265  13.371
29413W        W90944  15.163  38.458   4.314
29414W        W90945   4.891  28.669  12.347
29415W        W90946  12.123  17.689   1.236
29416W        W90947  42.783  33.064  10.405
29417W        W90948  38.985  29.149  14.970
29418W        W90949  41.921  35.452  10.923
29419W        W90950   1.750  41.418   1.771
29420W        W90951  38.352  39.414  11.125
29421W        W90952  30.630   6.796  12.987
29422W        W90953  37.490  13.831  11.494
29423W        W90954  44.893   2.750  13.939
29424W        W90955  27.668  34.410  14.809
29425W        W90956  32.545  21.130  11.947
29426W        W90957  21.571  23.582  13.412
29427W        W90958  31.037  38.857  10.003
29428W        W90959  31.645  34.468  13.884
29429W        W90960  26.463  35.937   3.183
29430W        W90961   4.246   0.446  14.893
29431W        W90962  24.208   8.748   2.378
29432W        W90963   6.754  41.799  13.829
29433W        W90964   6.354  30.450  10.955
29434W        W90965  26.459   2.804  10.529
29435W        W90966   4.231  43.863   3.337
29436W        W90967  17.062  22.582   2.380
29437W        W90968  10.841  13.834  12.981
29438W        W90969  35.391  41.812   3.854
29439W        W90970   7.829  35.588   3.868
29440W        W90971   4.898  20.719  14.835
29441W        W90972  18.743  19.658  11.571
29442W        W90973  42.980  36.082  14.398
29443W        W90974  27.088   0.800   3.777
29444W        W90975  28.613  18.777   0.884
29445W        W90976  28.168   8.377   0.363
29446W        W90977  19.102  43.979  12.580
29447W        W90978   5.764  25.153   9.990
29448W        W90979  44.438   2.959  10.427
29449W        W90980  21.237   0.933   2.392
29450W        W90981  26.484   6.214   0.968
29451W        W90982   2.300   4.329  14.376
29452W        W90983  34.482   6.235  13.820
29453W        W90984  36.365  44.352  10.122
29454W        W90985   5.323  38.441  10.471
29455W        W90986  43.893  10.214   5.273
29456W        W90987   5.849   6.422  11.089
29457W        W90988  14.320  37.066   3.746
29458W        W90989  17.145  12.611  13.912
29459W        W90990   9.222  18.125  12.464
29460W        W90991  19.592  38.867  13.040
29461W        W90992  44.838  38.833   1.340
29462W        W90993  30.078  16.648   5.659
29463W        W90994  13.312  15.662   2.688
29464W        W90995   0.323  12.835   2.890
29465W        W90996   7.768   0.842  14.793
29466W        W90997  35.911  41.818  10.450
29467W        W90998  10.723  21.514   3.179
29468W        W90999   8.350   6.266  12.068
29469W        W91000  40.367   8.762   4.182
29470W        W91001  33.950   2.252  10.935
29471W        W91002  42.356  41.336   0.414
29472W        W91003  44.282  26.071   4.125
29473W        W91004   8.316  24.568   0.902
29474W        W91005  41.451  10.234   0.793
29475W        W91006  18.705   9.811   3.772
29476W        W91007   7.879  25.028   9.958
29477W        W91008  16.178  11.365   4.352
29478W        W91009  28.164   4.742   5.163
29479W        W91010  40.443  29.039   0.936
29480W        W91011  21.055   2.266  13.339
29481W        W91012  29.660  13.289   4.178
29482W        W91013  33.559   3.830  10.587
29483W        W91014   6.711  27.609   2.225
29484W        W91015  30.927  37.399  12.984
29485W        W91016   9.395  15.085   1.843
29486W        W91017   7.730  37.413   2.223
29487W        W91018  32.436  25.184  10.985
29488W        W91019  31.989  31.026   2.668
29489W        W91020  15.621   7.347   3.796
29490W        W91021   3.374  13.740   3.724
29491W        W91022  41.955  40.359  12.354
29492W        W91023  23.546  16.313  14.318
29493W        W91024  14.812  21.600   4.314
29494W        W91025  33.023  14.216   2.328
29495W        W91026  29.990  40.923  11.607
29496W        W91027  29.594  28.666  12.527
29497W        W91028   1.929  11.314   1.381
29498W        W91029  28.573  16.703  13.020
29499W        W91030  29.440  30.420   0.357
29500W        W91031   1.405  37.397  10.101
29501W        W91032  17.243   5.854   1.216
29502W        W91033  17.801  21.713  12.842
29503W        W91034  15.244  34.452   4.820
29504W        W91035   1.924  18.751  12.031
29505W        W91036   9.151  24.564   1.911
29506W        W91037  31.123  28.181   4.780
29507W        W91038  12.729   3.249  14.893
29508W        W91039  40.969  37.952  11.376
29509W        W91040  42.903  32.927  12.941
29510W        W91041  41.931  17.285   0.964
29511W        W91042   1.772  33.982   2.895
29512W        W91043   9.267  35.944   4.212
29513W        W91044  34.886   4.339  12.847
29514W        W91045  25.029  21.532  12.414
29515W        W91046  27.945  44.412   1.344
29516W        W91047  32.089  28.025  11.007
29517W        W91048  21.710  34.052  10.642
29518W        W91049  27.475   6.800   1.342
29519W        W91050   8.878   8.184  14.480
29520W        W91051  23.152   1.394  14.769
29521W        W91052  42.356  35.005   1.430
29522W        W91053   1.850  23.054  12.504
29523W        W91054   1.301  14.256   2.698
29524W        W91055  28.450  14.123  12.929
29525W        W91056  40.330  14.180  13.792
29526W        W91057   5.247  11.365  11.989
29527W        W91058  22.543  29.478  10.143
29528W        W91059  39.940  22.081  13.012
29529W        W91060  36.876  27.092   4.320
29530W        W91061  38.865  43.017  10.104
29531W        W91062  44.862  15.718   4.603
29532W        W91063  25.118  25.699  14.485
29533W        W91064  35.986  15.154   5.181
29534W        W91065  10.773  32.592  13.336
29535W        W91066  44.838   6.723   2.824
29536W        W91067  31.566  17.672   4.350
29537W        W91068  26.516  36.876   1.369
29538W        W91069   0.287   8.754  12.433
29539W        W91070   7.796   2.447  14.961
29540W        W91071  19.668   3.876   4.805
29541W        W91072  18.560  27.092  12.978
29542W        W91073  15.273   3.336   4.607
29543W        W91074  34.543  36.897   0.868
29544W        W91075  33.405  29.039  13.310
29545W        W91076  42.842   8.336  13.005
29546W        W91077  15.804   3.771   4.627
29547W        W91078  32.005  37.033   2.300
29548W        W91079  16.587  27.523  10.938
29549W        W91080   8.814  23.122  11.977
29550W        W91081  41.533  40.487  12.886
29551W        W91082  19.650   0.820   1.389
29552W        W91083  27.606  19.677   1.748
29553W        W91084  21.154  20.746   3.154
29554W        W91085  14.229  41.434   0.738
29555W        W91086  25.500  33.594  13.963
29556W        W91087  10.671  14.259  13.971
29557W        W91088  26.959  42.936   3.198
29558W        W91089  21.649  24.111   2.848
29559W        W91090  14.287  26.617  14.875
29560W        W91091  40.463   4.883  12.403
29561W        W91092  39.961  34.370  13.317
29562W        W91093  28.124  14.099   3.699
29563W        W91094  34.995  29.954  10.494
29564W        W91095  14.693  11.344   3.664
29565W        W91096  42.003  28.456  12.570
29566W        W91097   1.837  32.396  14.872
29567W        W91098  22.577  42.514  14.480
29568W        W91099  44.800  12.824  13.341
29569W        W91100  36.413  13.676  12.872
29570W        W91101  15.816   0.456  10.132
29571W        W91102  31.928  14.711  14.392
29572W        W91103   9.824  25.576   0.861
29573W        W91104  13.683  34.413  14.951
29574W        W91105   5.344  25.024  13.040
29575W        W91106  41.412  43.770  11.007
29576W        W91107   2.874  24.190   1.274
29577W        W91108  29.581  33.025   1.813
29578W        W91109   7.738  38.413   2.859
29579W        W91110  23.188  27.098   1.295
29580W        W91111   3.450  33.007   1.850
29581W        W91112  11.202  22.162  13.547
29582W        W91113  15.320  44.765  11.960
29583W        W91114  15.289  23.549   5.234
29584W        W91115  30.568  23.579   3.369
29585W        W91116  31.909  37.981  13.973
29586W        W91117  26.074  36.448   2.863
29587W        W91118  21.248  26.084  10.644
29588W        W91119  16.256  28.169  10.450
29589W        W91120   0.465  28.482  13.890
29590W        W91121  17.673  19.766   0.460
29591W        W91122  42.357  32.991  13.828
29592W        W91123  15.609  22.016  11.554
29593W        W91124  38.494  33.126   3.260
29594W        W91125  10.290  33.012   2.410
29595W        W91126  14.304  31.477  12.540
29596W        W91127  23.689  35.102  11.474
29597W        W91128   4.416  27.129  10.939
29598W        W91129   2.350  42.363   1.904
29599W        W91130  43.942   8.268  14.334
29600W        W91131  13.834  32.926  10.898
29601W        W91132  42.500   7.321   0.748
29602W        W91133  23.046  30.943   1.407
29603W        W91134  11.722  28.679  13.909
29604W        W91135   1.264  34.461  11.593
29605W        W91136  30.529  44.260   0.934
29606W        W91137  42.778  31.005   4.195
29607W        W91138  36.476  38.937  11.913
29608W        W91139  13.241  19.762  13.901
29609W        W91140  19.707  20.556   0.837
29610W        W91141  21.020  25.690   0.321
29611W        W91142  39.029   4.806   3.270
29612W        W91143  22.590  41.969   4.260
29613W        W91144  38.564   0.864  11.430
29614W        W91145  25.654  17.264  12.340
29615W        W91146  18.780   8.670  12.580
29616W        W91147  15.813   4.857  11.506
29617W        W91148  28.990  27.989  14.964
29618W        W91149   4.294  22.724   0.429
29619W        W91150  38.528  38.974  10.058
29620W        W91151  35.402  44.267   0.433
29621W        W91152   3.936  42.862   3.703
29622W        W91153   6.205   6.828   1.265
29623W        W91154  34.459   2.910  10.490
29624W        W91155   0.945  10.380   4.799
29625W        W91156  27.156  29.993  10.940
29626W        W91157  30.421  15.241   5.716
29627W        W91158  31.493  37.926  13.025
29628W        W91159  38.395  25.648  11.411
29629W        W91160   3.388  10.325   1.336
29630W        W91161  27.061   1.847  10.505
29631W        W91162  39.491   4.420  11.895
29632W        W91163  16.079  28.460  14.284
29633W        W91164  36.915  25.043   2.388
29634W        W91165  13.768   9.251   3.279
29635W        W91166  23.137  34.371   0.446
29636W        W91167   5.285  28.121   4.645
29637W        W91168  37.832  12.325  12.344
29638W        W91169  10.327  40.540   5.100
29639W        W91170  31.984   5.695   2.247
29640W        W91171   4.720  22.681  12.571
29641W        W91172  34.611   1.315   1.916
29642W        W91173  16.101   0.861   3.739
29643W        W91174   3.277   4.793   5.281
29644W        W91175   8.820  30.909   1.427
29645W        W91176  38.438  27.680  14.383
29646W        W91177  10.678  27.121   2.697
29647W        W91178  29.660  23.587   2.302
29648W        W91179  22.077  22.213   1.820
29649W        W91180  41.504  18.182  11.942
29650W        W91181  44.347   1.732   9.945
29651W        W91182  35.446   1.448   4.166
29652W        W91183  24.119  15.649  11.970
29653W        W91184  39.984   8.771   3.241
29654W        W91185  36.940  42.383   4.651
29655W        W91186  16.770  16.580   2.262
29656W        W91187   0.923  18.213   1.381
29657W        W91188  41.418   5.797   3.340
29658W        W91189  40.416  32.926  12.010
29659W        W91190  17.789  22.550  14.398
29660W        W91191  20.171  25.199   1.893
29661W        W91192   4.798   5.236  13.408
29662W        W91193  39.974  43.360   0.842
29663W        W91194  26.689  37.032   3.240
29664W        W91195   7.181   0.369   0.326
29665W        W91196  33.967  17.730   5.272
29666W        W91197  13.275  26.478   2.395
29667W        W91198  42.956   4.306   2.182
29668W        W91199  29.029  16.106  14.407
29669W        W91200  41.534  29.011  14.860
29670W        W91201  31.011   4.380  10.529
29671W        W91202   0.374  21.754   2.843
29672W        W91203  21.042  23.537  12.980
29673W        W91204  35.856  27.022  14.836
29674W        W91205  11.769  30.598   2.875
29675W        W91206   8.367  27.111   1.795
29676W        W91207  11.176  42.003  14.276
29677W        W91208  18.631  16.272  13.488
29678W        W91209  11.763  38.049  11.876
29679W        W91210  41.899  12.814  11.479
29680W        W91211  22.128  20.678   3.212
29681W        W91212   6.853  40.330   0.890
29682W        W91213   6.845  18.597  13.005
29683W        W91214  38.410  11.275   5.737
29684W        W91215   1.758   7.263   4.802
29685W        W91216  15.817  14.285  13.316
29686W        W91217  25.500  27.186   3.772
29687W        W91218   6.304  17.594   1.736
29688W        W91219   6.228  21.589  11.975
29689W        W91220  25.026  13.291  11.909
29690W        W91221  18.632  22.195  12.340
29691W        W91222  31.605  23.999  13.835
29692W        W91223  44.338  20.680  10.052
29693W        W91224  38.074  18.241   1.283
29694W        W91225   0.826  19.577  11.914
29695W        W91226  32.108   2.346  13.997
29696W        W91227   7.389  31.438  11.449
29697W        W91228  19.153   0.317   0.364
29698W        W91229  31.036   8.708   3.368
29699W        W91230  35.571  13.192   3.323
29700W        W91231  27.465  36.524   4.783
29701W        W91232  36.526   3.735   1.709
29702W        W91233  17.630  42.976   2.873
29703W        W91234  29.940   0.297  14.868
29704W        W91235   4.376  29.960   4.720
29705W        W91236  12.358  41.318   3.384
29706W        W91237   1.888   9.669  14.473
29707W        W91238  14.320  22.159   4.161
29708W        W91239  37.954   8.189  10.457
29709W        W91240  15.599  14.120  11.577
29710W        W91241  26.971  14.729  12.903
29711W        W91242   6.225   5.900  14.906
29712W        W91243   7.884   0.939  12.906
29713W        W91244   7.790  35.579  13.055
29714W        W91245  26.959  10.744  11.551
29715W        W91246  41.375  24.701   1.410
29716W        W91247  18.071  25.994   0.465
29717W        W91248  13.609  11.145   4.180
29718W        W91249   4.735  32.472   3.290
29719W        W91250  24.522   9.326  12.433
29720W        W91251  14.748  12.847   9.930
29721W        W91252  40.921  29.539  14.006
29722W        W91253   1.434  31.073  10.448
29723W        W91254  17.244  23.568  12.511
29724W        W91255  43.290  28.173  13.324
29725W        W91256  32.512  35.008  11.549
29726W        W91257  17.665  42.800   3.823
29727W        W91258   8.700  22.680  14.313
29728W        W91259   5.296  34.914  14.827
29729W        W91260  13.302  25.524   2.828
29730W        W91261   9.281  31.116  14.361
29731W        W91262  26.536  28.557   0.811
29732W        W91263  17.196   5.742   3.366
29733W        W91264  29.437  30.009  13.826
29734W        W91265   2.827  43.958   0.435
29735W        W91266  41.473  27.672  11.866
29736W        W91267  36.550   5.740   0.372
29737W        W91268  42.937  38.888  14.345
29738W        W91269  26.473  12.351   3.215
29739W        W91270  21.624  33.063  14.902
29740W        W91271  41.899  27.990  14.459
29741W        W91272  37.344  41.854   4.239
29742W        W91273  42.955  30.016   0.857
29743W        W91274  13.832   2.253   4.655
29744W        W91275  41.471  16.107   1.251
29745W        W91276  16.705   4.798   1.342
29746W        W91277  14.746   1.470  12.979
29747W        W91278  19.714  36.925  11.111
29748W        W91279  35.977  44.400  12.875
29749W        W91280   6.262   4.741   2.731
29750W        W91281  20.201  39.890  14.407
29751W        W91282   2.820  11.792   3.666
29752W        W91283  11.301  17.203  11.099
29753W        W91284   4.872  30.599  13.519
29754W        W91285   3.924   2.745   1.817
29755W        W91286  39.014  17.612  14.389
29756W        W91287  34.917  37.551  12.505
29757W        W91288  37.983   7.853  11.598
29758W        W91289  11.784  33.583   2.353
29759W        W91290   0.319  14.329   2.775
29760W        W91291  11.139  20.088   0.741
29761W        W91292  14.331  12.288   3.691
29762W        W91293  17.755  18.566   1.317
29763W        W91294  26.555  10.716  12.841
29764W        W91295   2.469  39.049   1.343
29765W        W91296  31.446  20.054   4.296
29766W        W91297  25.559  14.132   0.398
29767W        W91298  34.967  25.040  10.605
29768W        W91299  22.211  20.654  11.560
29769W        W91300   3.449   3.935   1.416
29770W        W91301  35.440   2.866   0.796
29771W        W91302  32.465   5.756  13.000
29772W        W91303  25.546  28.183   0.273
29773W        W91304   8.285  36.535   3.289
29774W        W91305  26.457   0.829  13.515
29775W        W91306   3.221  33.570   3.813
29776W        W91307   2.940  27.028   1.806
29777W        W91308   6.908  44.892   1.857
29778W        W91309  34.596  17.729   0.254
29779W        W91310  22.216  11.860   3.326
29780W        W91311  37.007  33.547   4.180
29781W        W91312   8.738  41.959   4.608
29782W        W91313  13.682  28.166   4.267
29783W        W91314  32.583   7.823  14.867
29784W        W91315  17.231  43.515  12.574
29785W        W91316  20.768  31.032   2.849
29786W        W91317  39.411  28.958  12.037
29787W        W91318  41.949  22.525   1.764
29788W        W91319   4.337  40.947  14.764
29789W        W91320  22.625  17.581  14.944
29790W        W91321  37.490  18.600  11.027
29791W        W91322   6.888  42.515   0.264
29792W        W91323  15.634   3.843   1.860
29793W        W91324   9.382  32.550   3.173
29794W        W91325  20.241  43.802   4.207
29795W        W91326  28.459   4.882   2.688
29796W        W91327   0.822  31.937  13.039
29797W        W91328   3.310  11.844  13.423
29798W        W91329  16.106  12.798   0.275
29799W        W91330  29.081   7.295  10.546
29800W        W91331  24.600  16.575   0.847
29801W        W91332   3.841  27.458  14.410
29802W        W91333  29.515   5.295  10.551
29803W        W91334  40.831  25.702   3.177
29804W        W91335   1.909  43.817   0.427
29805W        W91336  21.028  20.215  12.062
29806W        W91337  21.560  43.854   4.219
29807W        W91338  18.097  40.458  11.868
29808W        W91339   8.328  34.002   2.894
29809W        W91340  19.108  41.796  11.433
29810W        W91341  41.424   8.886   5.213
29811W        W91342   1.421  41.444  10.990
29812W        W91343  39.033  15.618   3.148
29813W        W91344  20.546  13.642   3.685
29814W        W91345  21.145  19.552   9.948
29815W        W91346  19.109  25.177   3.708
29816W        W91347  27.567  32.410   0.762
29817W        W91348  16.187  37.395   1.216
29818W        W91349  31.994  35.968   4.628
29819W        W91350   6.725   9.344   3.321
29820W        W91351  44.010   4.395   2.838
29821W        W91352  20.182  19.759  13.015
29822W        W91353  13.172  17.572  13.515
29823W        W91354  40.435   6.186  10.069
29824W        W91355  29.434   9.673   0.876
29825W        W91356   6.413   5.348  10.534
29826W        W91357  17.717  28.005   2.263
29827W        W91358  27.093  40.315  12.389
29828W        W91359  30.092  35.506   1.334
29829W        W91360  23.551  15.713   2.234
29830W        W91361  35.968  42.827  10.464
29831W        W91362  18.149  20.737   0.472
29832W        W91363  18.083  28.645  14.455
29833W        W91364  20.738  38.437   0.960
29834W        W91365  41.936   5.272   3.660
29835W        W91366  10.198  31.636   1.739
29836W        W91367  22.638   0.758  11.934
29837W        W91368   3.275  42.814  11.605
29838W        W91369  17.274  18.656   4.726
29839W        W91370   6.199  10.868   4.348
29840W        W91371  21.557  18.603   1.231
29841W        W91372  17.281  34.525   1.384
29842W        W91373  24.643  28.564   5.224
29843W        W91374  33.386  21.257  11.052
29844W        W91375  33.046   8.294  11.462
29845W        W91376  18.287  14.786  10.574
29846W        W91377  20.187  16.748  12.458
29847W        W91378   8.233  31.085  12.834
29848W        W91379  17.284  35.939   4.756
29849W        W91380  32.012   3.375   1.885
29850W        W91381  10.156   7.295   5.104
29851W        W91382   8.692   0.375   0.767
29852W        W91383  22.719  34.087   3.334
29853W        W91384   8.737  33.001  12.827
29854W        W91385  18.754   7.761  12.522
29855W        W91386  20.258  31.146   4.287
29856W        W91387  20.068   6.709   2.281
29857W        W91388  42.943  34.388   1.225
29858W        W91389  32.520  43.800  10.437
29859W        W91390  13.752  22.686  14.423
29860W        W91391  29.560  14.634   3.637
29861W        W91392  30.540  27.952  14.398
29862W        W91393  32.899  11.210   2.802
29863W        W91394  25.192   3.734  10.598
29864W        W91395  10.258  43.320  14.362
29865W        W91396  44.967  43.316   1.372
29866W        W91397  24.502  13.153  13.501
29867W        W91398  34.566  16.218  13.983
29868W        W91399  19.076  23.001   0.438
29869W        W91400  30.612  27.989  11.505
29870W        W91401  16.139  33.081  13.810
29871W        W91402  41.833   6.283   0.433
29872W        W91403  20.067  26.197  12.889
29873W        W91404  44.281  31.899  12.460
29874W        W91405  14.167  18.637  13.007
29875W        W91406  14.701  16.132  13.829
29876W        W91407  10.181   6.832   1.854
29877W        W91408  44.448  29.549   5.279
29878W        W91409   9.716  21.198  14.385
29879W        W91410  21.683  44.010  14.004
29880W        W91411  20.168   2.465  14.468
29881W        W91412   4.789  11.842   1.371
29882W        W91413  29.457  37.930  10.482
29883W        W91414  12.823   8.701  12.037
29884W        W91415  26.565   8.204   2.813
29885W        W91416  35.430  10.708   0.835
29886W        W91417  17.637   7.815  14.333
29887W        W91418  21.260  12.220  13.893
29888W        W91419  29.580  21.585  11.380
29889W        W91420  17.709  34.058  13.795
29890W        W91421  25.491  32.142   5.109
29891W        W91422  39.532   3.413  11.040
29892W        W91423  35.451  37.435   1.443
29893W        W91424  32.574  34.877   2.808
29894W        W91425  10.264  33.567  11.438
29895W        W91426  29.156   0.379   4.355
29896W        W91427   5.418  34.540   4.191
29897W        W91428  44.459  22.147  11.956
29898W        W91429   6.375  22.632  11.925
29899W        W91430  13.670   9.693  13.360
29900W        W91431  24.610  28.992   9.590
29901W        W91432  37.983  39.474   3.781
29902W        W91433  42.991  13.833  11.935
29903W        W91434   3.870  17.638  13.062
29904W        W91435  25.067  42.293   1.890
29905W        W91436   8.327  35.438  13.311
29906W        W91437  20.180  32.403  11.053
29907W        W91438  30.074  34.040  11.429
29908W        W91439  14.334  38.825  10.429
29909W        W91440  27.551  41.948  11.863
29910W        W91441  17.255  40.472   4.130
29911W        W91442  12.318   7.733  12.577
29912W        W91443  44.419  19.601  13.341
29913W        W91444  13.165   6.885  10.958
29914W        W91445  16.284  34.552   0.753
29915W        W91446  17.208   7.869  10.489
29916W        W91447  25.137   9.169  11.915
29917W        W91448  19.258   4.213  13.823
29918W        W91449  44.310  30.952   1.720
29919W        W91450  12.302  34.384  14.781
29920W        W91451  34.086  28.150   4.264
29921W        W91452  28.129  35.476   1.899
29922W        W91453  20.188  12.160   2.237
29923W        W91454  36.908   0.794  11.125
29924W        W91455  11.349  28.993   4.325
29925W        W91456  19.743   3.318   3.670
29926W        W91457  15.213  44.978  13.436
29927W        W91458  28.513  29.611   2.381
29928W        W91459  14.219  23.688   3.852
29929W        W91460   2.355  30.023   1.792
29930W        W91461  12.201  36.922   4.176
29931W        W91462  35.957   3.275  10.494
29932W        W91463  36.396   6.392  14.430
29933W        W91464  25.972  32.513   1.859
29934W        W91465  12.650  37.050  11.477
29935W        W91466  37.463  10.746   0.759
29936W        W91467  12.212  16.699   1.336
29937W        W91468  17.127  32.893   3.851
29938W        W91469  37.993  17.263  11.963
29939W        W91470  22.201  17.619   4.166
29940W        W91471  13.828  41.494  14.470
29941W        W91472  38.328  14.770  11.557
29942W        W91473   4.389  32.072  13.469
29943W        W91474   6.192  19.238  11.901
29944W        W91475  32.592  13.608   2.203
29945W        W91476  32.113  36.489   3.657
29946W        W91477  14.674  23.716  11.097
29947W        W91478   4.334  30.163  10.574
29948W        W91479  27.585  42.452  13.868
29949W        W91480  39.859  43.424   1.390
29950W        W91481  32.515  41.034  13.812
29951W        W91482  13.178  20.738   3.333
29952W        W91483  22.694  37.521   3.711
29953W        W91484   8.853  16.286  14.507
29954W        W91485   2.350  40.882   4.699
29955W        W91486   9.841   5.291   3.842
29956W        W91487  34.884  23.525  11.417
29957W        W91488  40.415   4.727   3.687
29958W        W91489  35.461  44.364   4.180
29959W        W91490  10.374  11.202  11.994
29960W        W91491  43.453  22.186   1.322
29961W        W91492  36.060  12.720   3.855
29962W        W91493   9.266  15.795   2.415
29963W        W91494  20.226  14.678   4.790
29964W        W91495   3.785  34.437   3.676
29965W        W91496  31.933  22.639  13.892
29966W        W91497  40.877  36.034  11.410
29967W        W91498  22.578  43.780   2.760
29968W        W91499   1.441   1.920   2.392
29969W        W91500  35.028  12.642  12.953
29970W        W91501  41.039  18.779   4.270
29971W        W91502  40.541  18.744  11.989
29972W        W91503  43.355  42.007  14.290
29973W        W91504  15.084  43.789   1.423
29974W        W91505  20.768  25.968   4.782
29975W        W91506  24.571   5.214   4.746
29976W        W91507  37.366   1.793  14.834
29977W        W91508  19.123  34.482   4.295
29978W        W91509   8.260  27.587  14.481
29979W        W91510  39.866  30.589   3.241
29980W        W91511  38.503  29.949   3.333
29981W        W91512  32.569  37.384   1.306
29982W        W91513  37.995  15.701   3.756
29983W        W91514  21.164  29.496   2.848
29984W        W91515  21.570  28.590  14.950
29985W        W91516  30.555  24.056   2.334
29986W        W91517  13.749  33.971  14.886
29987W        W91518  16.628  21.261  12.546
29988W        W91519  27.504  38.405  12.861
29989W        W91520  36.982  32.630   1.827
29990W        W91521  31.057  28.578   1.910
29991W        W91522  13.668  39.960   4.342
29992W        W91523  22.102   0.286   3.760
29993W        W91524  28.973  34.479   2.852
29994W        W91525  11.162  22.236  11.882
29995W        W91526   9.371  33.016   0.897
29996W        W91527  30.114  25.491   4.308
29997W        W91528  35.552  42.283   4.654
29998W        W91529   4.722  11.205  12.884
29999W        W91530  33.015  21.550  13.008
30000W        W91531  10.812  22.215   4.632
30001W        W91532  39.873  31.500   4.277
30002W        W91533  19.763  21.658  12.374
30003W        W91534  23.598   2.394   4.272
30004W        W91535  17.221   1.975   0.326
30005W        W91536  23.164  16.812  14.382
30006W        W91537   9.258  29.525   1.349
30007W        W91538  19.229  26.617   2.287
30008W        W91539  22.191  33.626  11.913
30009W        W91540  11.146  40.976  10.975
30010W        W91541  19.641   8.229  10.996
30011W        W91542   4.845  39.341  13.342
30012W        W91543  26.205  33.555  10.565
30013W        W91544  13.797  39.066  14.390
30014W        W91545  15.244  21.116  12.548
30015W        W91546  20.111  33.893   1.780
30016W        W91547  32.521   9.360  12.993
30017W        W91548  11.307  36.881  14.792
30018W        W91549  26.128   1.352   1.216
30019W        W91550   2.790  13.227   4.223
30020W        W91551   1.461  37.859  11.886
30021W        W91552  21.673  17.080  12.361
30022W        W91553  34.459  14.716  13.882
30023W        W91554  21.518  11.350   3.208
30024W        W91555  41.365  23.124   1.380
30025W        W91556  19.698  27.564   3.207
30026W        W91557  25.661  40.022  13.390
30027W        W91558  14.169  10.204   2.347
30028W        W91559  27.612  27.605  11.082
30029W        W91560   2.298  14.639   3.802
30030W        W91561  40.337  29.939   3.221
30031W        W91562  29.616   7.879   2.709
30032W        W91563  25.134   6.360   0.763
30033W        W91564   2.943   0.919   3.154
30034W        W91565  24.610  25.693  14.413
30035W        W91566  27.462  12.851  13.939
30036W        W91567  27.551  17.801   4.719
30037W        W91568  40.539  13.679   4.336
30038W        W91569   1.453  24.494  13.539
30039W        W91570  24.057  44.421   2.680
30040W        W91571  10.280   5.916  12.405
30041W        W91572  17.276  38.907  10.473
30042W        W91573  11.834  18.715  13.056
30043W        W91574  20.078  38.832   1.930
30044W        W91575  14.799   5.828   2.739
30045W        W91576  41.410  38.848   0.272
30046W        W91577  31.630   2.727  14.019
30047W        W91578  39.885  23.118   2.853
30048W        W91579  23.124   8.393  12.983
30049W        W91580  27.120  11.218  14.436
30050W        W91581   5.273  19.103   3.146
30051W        W91582  31.485  39.526  11.509
30052W        W91583   6.285  32.926   0.306
30053W        W91584  41.413  36.519   0.742
30054W        W91585  22.692  38.997  14.870
30055W        W91586  38.932  22.585  11.432
30056W        W91587  14.218  22.540   0.901
30057W        W91588  40.897   5.880   2.181
30058W        W91589  28.674  28.574  11.907
30059W        W91590  12.691  42.901   0.729
30060W        W91591  38.022  31.984  14.995
30061W        W91592  34.505  35.427   3.655
30062W        W91593  11.220  42.281  12.989
30063W        W91594   4.282  14.821  14.478
30064W        W91595   5.222  26.965  12.443
30065W        W91596  32.507  37.893  10.070
30066W        W91597  12.215  15.585  10.573
30067W        W91598  19.060  23.711   1.254
30068W        W91599  33.453  12.662  10.473
30069W        W91600   8.661   0.922   4.182
30070W        W91601  13.232  11.224  14.877
30071W        W91602  23.508  22.198   2.380
30072W        W91603  35.028  24.018  11.007
30073W        W91604  44.945  19.075  11.564
30074W        W91605  14.806  42.330  13.541
30075W        W91606  12.330  24.994   4.149
30076W        W91607   9.760  24.518  11.877
30077W        W91608  17.780  34.378  12.406
30078W        W91609   8.765  10.240  14.850
30079W        W91610  32.550   3.370   2.268
30080W        W91611   0.330  12.818  10.897
30081W        W91612   5.918  15.213  11.375
30082W        W91613  12.664   3.394   2.394
30083W        W91614  28.643  25.575  14.885
30084W        W91615  12.730  13.316   1.698
30085W        W91616   4.419  26.481   0.473
30086W        W91617  37.488  39.317  14.364
30087W        W91618  16.180  39.488  11.593
30088W        W91619  42.415  28.989  14.917
30089W        W91620  13.681  34.961   2.343
30090W        W91621  39.541  18.664   2.671
30091W        W91622  28.498  14.324  13.808
30092W        W91623  29.584  39.916  11.558
30093W        W91624   1.969  28.501  14.807
30094W        W91625  10.808  23.034  13.966
30095W        W91626   0.827   4.855   0.821
30096W        W91627  28.155  14.766  14.889
30097W        W91628   6.237  42.006   3.267
30098W        W91629  16.106  42.295   3.145
30099W        W91630  44.944  29.961  14.283
30100W        W91631  24.105   4.850  12.899
30101W        W91632  29.625  20.622   3.684
30102W        W91633   0.885  30.048  11.422
30103W        W91634  30.115  41.487  14.319
30104W        W91635  43.500  40.442   4.195
30105W        W91636  10.639   8.748  10.415
30106W        W91637   4.301  12.211   3.303
30107W        W91638  37.357  34.073  13.356
30108W        W91639  33.476  14.637   2.854
30109W        W91640  37.436  23.076  11.099
30110W        W91641  39.006  18.755   3.351
30111W        W91642  37.924  39.026  12.417
30112W        W91643  11.650  39.400  14.913
30113W        W91644  28.981   9.163   1.214
30114W        W91645  38.552   8.673   5.116
30115W        W91646  18.583  28.951  12.506
30116W        W91647  30.110   7.748  13.461
30117W        W91648  26.598  17.256   1.339
30118W        W91649  29.572  43.856  11.968
30119W        W91650   3.935   6.359  12.349
30120W        W91651  23.231  33.996   4.115
30121W        W91652  32.011  22.545  11.911
30122W        W91653  39.345   0.331  11.403
30123W        W91654  16.290  12.777   5.231
30124W        W91655  10.298  26.963  11.514
30125W        W91656  40.001  31.634  14.380
30126W        W91657   6.361   3.458   2.312
30127W        W91658  16.172  19.226   1.244
30128W        W91659  32.981   2.378  13.431
30129W        W91660  13.693  38.479   1.258
30130W        W91661   0.782  30.599   1.407
30131W        W91662   8.871   0.370  12.985
30132W        W91663  11.820  29.546  12.860
30133W        W91664   7.678   4.849  12.540
30134W        W91665  18.572  13.221  11.894
30135W        W91666   1.871  37.504   0.961
30136W        W91667  26.702  19.125   4.280
30137W        W91668  31.093   5.249  13.959
30138W        W91669  13.749  35.450   2.901
30139W        W91670  13.762  10.797  14.964
30140W        W91671  32.027  43.807  14.433
30141W        W91672   0.968  16.696   1.792
30142W        W91673   3.285   8.276  13.420
30143W        W91674  43.369   1.448  13.880
30144W        W91675  15.099  26.001   2.392
30145W        W91676  23.705  44.815  13.895
30146W        W91677  17.777  28.472  11.971
30147W        W91678  18.159  19.145  13.512
30148W        W91679  23.623   1.834   4.797
30149W        W91680  40.998  21.116  11.924
30150W        W91681  13.696  34.428  10.473
30151W        W91682  44.882  19.166   4.225
30152W        W91683   1.371  19.264   2.310
30153W        W91684  40.520  31.528  11.485
30154W        W91685  41.937  32.596   3.173
30155W        W91686  11.643  28.953   2.194
30156W        W91687  28.575  15.791   1.400
30157W        W91688  10.641   8.183  13.367
30158W        W91689   9.844   5.212   1.368
30159W        W91690  10.384  30.487  12.052
30160W        W91691  40.913  15.732   4.803
30161W        W91692   0.969  40.508   3.828
30162W        W91693   7.299  25.709   2.188
30163W        W91694  41.835  12.719  12.078
30164W        W91695  37.576   3.396  10.150
30165W        W91696  28.977   0.436   1.844
30166W        W91697  21.639  23.163  12.501
30167W        W91698   8.243  19.065   1.763
30168W        W91699   8.295  10.226   3.868
30169W        W91700  22.721  20.042  12.840
30170W        W91701  11.728  27.680   4.697
30171W        W91702  24.203  22.602   5.177
30172W        W91703  41.436  26.634  11.418
30173W        W91704  31.099  33.495  14.822
30174W        W91705  32.091  22.078   4.343
30175W        W91706  18.112  42.290   0.299
30176W        W91707  28.138   1.289   0.260
30177W        W91708  20.210  34.991   0.453
30178W        W91709  31.028  23.732  10.899
30179W        W91710   5.394  26.995   2.362
30180W        W91711  23.662   6.823   3.304
30181W        W91712  17.192  29.045   2.726
30182W        W91713  14.790   6.328   4.193
30183W        W91714  23.696   2.764   4.691
30184W        W91715   3.892  13.278  11.103
30185W        W91716  34.483   5.407   3.789
30186W        W91717  33.973  10.274   2.705
30187W        W91718  36.875   1.768  11.382
30188W        W91719  20.750   0.477  14.454
30189W        W91720  24.575  13.628   4.315
30190W        W91721   7.870  15.683   4.338
30191W        W91722  44.297  17.786  12.362
30192W        W91723  14.833  31.081  11.118
30193W        W91724  20.666   7.876   3.159
30194W        W91725   2.311  37.540  14.761
30195W        W91726  44.441  23.174  11.033
30196W        W91727  32.887  20.626   1.271
30197W        W91728  31.544  22.099   2.394
30198W        W91729   8.822  22.056   3.206
30199W        W91730  31.647  14.095   3.662
30200W        W91731   2.911  37.365   2.690
30201W        W91732  15.196  12.732  10.925
30202W        W91733  28.990  40.521   4.674
30203W        W91734   4.424  27.616  14.809
30204W        W91735  39.342  41.493  11.989
30205W        W91736   4.854  40.905  10.473
30206W        W91737   4.819  27.133   3.249
30207W        W91738   4.374  28.635  12.921
30208W        W91739  37.850  17.110   0.857
30209W        W91740   6.895  22.557   2.867
30210W        W91741  13.750  35.873   3.811
30211W        W91742  33.585   7.351   5.253
30212W        W91743  31.057  10.776   3.287
30213W        W91744  41.842  23.585  10.064
30214W        W91745  22.557  32.898   3.850
30215W        W91746  26.501  24.039   4.190
30216W        W91747  24.712  39.521  11.382
30217W        W91748  24.181  40.358  12.083
30218W        W91749  33.072   4.271   0.359
30219W        W91750  42.852   4.837  10.404
30220W        W91751  33.522  18.645  11.912
30221W        W91752  10.262  12.760  10.573
30222W        W91753  41.015  35.580   4.191
30223W        W91754   0.375  12.239  12.392
30224W        W91755  30.552  38.476   2.270
30225W        W91756  22.110  43.981  11.902
30226W        W91757  20.087   9.286   1.772
30227W        W91758  37.007  22.016  11.904
30228W        W91759  13.720   4.355  10.992
30229W        W91760  31.567  20.248  12.082
30230W        W91761  38.047  30.647   4.606
30231W        W91762  24.573  14.719  11.967
30232W        W91763  13.122   4.944  10.028
30233W        W91764  21.219  33.547  13.977
30234W        W91765  40.051  27.193  14.913
30235W        W91766  33.386   3.942   0.382
30236W        W91767  25.643  44.391  10.939
30237W        W91768   5.194   3.335   1.802
30238W        W91769  19.658  43.840   1.800
30239W        W91770  30.558  43.426  14.333
30240W        W91771  35.400   9.171  14.760
30241W        W91772  14.096  21.099   1.830
30242W        W91773  33.412   6.228   1.916
30243W        W91774  13.228  15.640  14.832
30244W        W91775   5.744  33.920   4.655
30245W        W91776  39.455  19.202  11.533
30246W        W91777  35.992  38.841   5.114
30247W        W91778  36.849  12.301  12.515
30248W        W91779  38.332  26.005  11.599
30249W        W91780  44.800  43.808   4.150
30250W        W91781   7.267   2.240  10.020
30251W        W91782  28.656  34.591   3.744
30252W        W91783  39.403  28.662   1.433
30253W        W91784   4.888  10.669  12.390
30254W        W91785   9.294  19.193  11.610
30255W        W91786  12.350  38.833  10.423
30256W        W91787   7.812   8.757   4.183
30257W        W91788  42.964  22.521   2.700
30258W        W91789  40.970  33.128  10.582
30259W        W91790  41.527  10.865   0.326
30260W        W91791   6.419  38.570  11.890
30261W        W91792  11.149   5.318  11.893
30262W        W91793   4.892  43.503   4.147
30263W        W91794   6.330   0.804   5.124
30264W        W91795  29.483  23.495   2.798
30265W        W91796   2.442   9.340  12.958
30266W        W91797  20.239  29.995  13.858
30267W        W91798  32.972  33.418  14.317
30268W        W91799   5.417  13.251   1.731
30269W        W91800  14.143  32.948   4.632
30270W        W91801  25.085  18.192  14.835
30271W        W91802   5.251  14.653  11.966
30272W        W91803  28.071  26.179  12.349
30273W        W91804  10.225  14.731  11.041
30274W        W91805  21.612  34.094  14.880
30275W        W91806  43.500  23.584  10.984
30276W        W91807   7.238  37.580   1.346
30277W        W91808   8.177   3.429   0.436
30278W        W91809  11.210  13.811   1.834
30279W        W91810  38.906  22.576  13.052
30280W        W91811   4.834  41.434   4.607
30281W        W91812  15.183  30.124   3.678
30282W        W91813  27.654  17.795   0.459
30283W        W91814  33.429   6.275  13.886
30284W        W91815   6.305  28.506  12.417
30285W        W91816  44.300  41.521   4.723
30286W        W91817   9.331   9.355   1.364
30287W        W91818  10.248  39.944  11.964
30288W        W91819  37.987  39.340  12.002
30289W        W91820  18.287  31.932  10.915
30290W        W91821  37.872  40.523  11.996
30291W        W91822   2.925  34.577   2.201
30292W        W91823  33.516   1.799  14.351
30293W        W91824  37.557   0.986  11.989
30294W        W91825   6.382  26.990   9.965
30295W        W91826  17.641  23.060  14.874
30296W        W91827  35.079  28.089  12.965
30297W        W91828  26.043   2.237   1.910
30298W        W91829  26.028  33.458   2.368
30299W        W91830  21.702  27.048  10.537
30300W        W91831  34.571  22.594   2.389
30301W        W91832  18.626  27.497   2.843
30302W        W91833   1.970   7.321   1.242
30303W        W91834  33.525  26.201  11.594
30304W        W91835   7.677  39.987  11.486
30305W        W91836   6.353  39.986   1.697
30306W        W91837   7.416  29.030  13.459
30307W        W91838  38.474  23.575   1.444
30308W        W91839  38.054  23.696  12.565
30309W        W91840  19.717  23.671   3.768
30310W        W91841  34.448  23.540  12.023
30311W        W91842  30.001  10.695   0.855
30312W        W91843  11.131  44.786   4.197
30313W        W91844   6.761  28.064   3.383
30314W        W91845  42.978  31.579  10.954
30315W        W91846  38.974  14.670  12.041
30316W        W91847  42.525  31.417  14.397
30317W        W91848  43.329  25.583   0.477
30318W        W91849   5.246  26.483   4.189
30319W        W91850  29.027   8.788   1.213
30320W        W91851  32.542  33.044  11.872
30321W        W91852  29.505  19.192  13.885
30322W        W91853  34.940  37.909  13.513
30323W        W91854  25.646   8.187   1.404
30324W        W91855  31.504  19.172   1.403
30325W        W91856  36.490  23.004  13.486
30326W        W91857  26.075  20.546  14.007
30327W        W91858  10.696  39.419  13.028
30328W        W91859  23.180  35.513  10.992
30329W        W91860  20.628  27.521  12.843
30330W        W91861   1.483  24.083   4.808
30331W        W91862  25.125  10.354  12.068
30332W        W91863   2.758  39.320  12.877
30333W        W91864  37.343   4.863   0.280
30334W        W91865  34.082  38.932   2.281
30335W        W91866  10.185  30.004  10.057
30336W        W91867   2.748   2.949   3.360
30337W        W91868   2.321  19.231   2.847
30338W        W91869  26.088  37.875  12.969
30339W        W91870  44.950  24.517   0.250
30340W        W91871  38.567  41.989   4.756
30341W        W91872  44.947  38.415   4.257
30342W        W91873   1.783  23.547   0.431
30343W        W91874  12.733  41.856  10.913
30344W        W91875  23.532  30.495   0.739
30345W        W91876  32.402  34.464  14.939
30346W        W91877  18.615  40.492   1.915
30347W        W91878  19.772  24.109   1.792
30348W        W91879  21.666  43.933  14.421
30349W        W91880   3.459  15.143   3.220
30350W        W91881  10.814  30.589   1.816
30351W        W91882  15.274  34.007   1.751
30352W        W91883   6.713  30.600   4.229
30353W        W91884  18.703  27.098   9.926
30354W        W91885  15.631  35.882   1.403
30355W        W91886  24.077  39.830  10.982
30356W        W91887  29.466  23.696  11.516
30357W        W91888  13.749  32.038   2.238
30358W        W91889  33.989  22.158   3.866
30359W        W91890  16.777   4.735  12.564
30360W        W91891  33.911  34.378   2.777
30361W        W91892  16.752  12.723  14.317
30362W        W91893  17.662  36.365   2.291
30363W        W91894  27.064  21.656   4.631
30364W        W91895   0.890  29.641  13.818
30365W        W91896   9.326  23.600   0.775
30366W        W91897   9.735  41.973  10.494
30367W        W91898  33.085  44.857  13.888
30368W        W91899  43.496  44.966   2.211
30369W        W91900  11.228   5.747  11.968
30370W        W91901  27.110  33.514   4.823
30371W        W91902  37.930  24.987   1.891
30372W        W91903  34.945  33.471  12.434
30373W        W91904   7.696   2.946   3.867
30374W        W91905  38.067  43.955  11.454
30375W        W91906  31.964  20.713  14.315
30376W        W91907   2.872   3.333   1.319
30377W        W91908  27.981   6.372  13.487
30378W        W91909  12.151  38.971  12.949
30379W        W91910  43.434  20.765  11.525
30380W        W91911  15.284  39.961  10.488
30381W        W91912   6.878   0.357   2.204
30382W        W91913  12.713   0.384  14.021
30383W        W91914  34.045  12.676   2.889
30384W        W91915  44.998  31.502   2.770
30385W        W91916  21.700  22.158  14.301
30386W        W91917  22.248  33.032   4.313
30387W        W91918  34.411  35.008   2.733
30388W        W91919   0.791  29.167  12.425
30389W        W91920  33.062  41.837   2.806
30390W        W91921   7.777   1.751   0.368
30391W        W91922  14.618  24.126  11.998
30392W        W91923   2.833  27.075   4.721
30393W        W91924   9.308   3.392   0.833
30394W        W91925  16.645   0.969   3.246
30395W        W91926  11.727  24.055  11.863
30396W        W91927  41.513   0.453  11.112
30397W        W91928  30.915   0.409  12.840
30398W        W91929  37.051  27.505  13.488
30399W        W91930  26.548  27.168  12.516
30400W        W91931  30.969   4.862   1.270
30401W        W91932  17.583  18.059   4.133
30402W        W91933  11.740  29.007   3.192
30403W        W91934   8.851  37.848  14.460
30404W        W91935  23.601  41.326  11.030
30405W        W91936  42.484   8.262  12.429
30406W        W91937  29.506   5.380   4.738
30407W        W91938  35.439  32.457   4.218
30408W        W91939   5.301  41.808  14.478
30409W        W91940  30.101  33.955   2.823
30410W        W91941  17.086  12.304   2.692
30411W        W91942  20.555  42.826  12.845
30412W        W91943  22.686   6.895  11.066
30413W        W91944  34.479  42.882  10.464
30414W        W91945   2.444  41.428   3.150
30415W        W91946  22.683  13.293   0.398
30416W        W91947  11.847  10.283  12.438
30417W        W91948  42.520  24.139  12.838
30418W        W91949  23.560   2.440  13.488
30419W        W91950  11.857  22.552   3.150
30420W        W91951  30.588  21.260   2.204
30421W        W91952  26.161  27.656   3.184
30422W        W91953  16.160  25.203  11.876
30423W        W91954   0.273  30.099   1.704
30424W        W91955   2.915  30.569  10.424
30425W        W91956  12.280  10.243  11.462
30426W        W91957  20.629  18.240   3.148
30427W        W91958  25.177  20.585  14.349
30428W        W91959  20.227   7.401  14.860
30429W        W91960  28.555   8.335   2.267
30430W        W91961  30.487  30.964  11.535
30431W        W91962   4.800  42.980   2.886
30432W        W91963  18.607  36.406   3.748
30433W        W91964  15.721   9.875  14.766
30434W        W91965  35.931   4.884   9.958
30435W        W91966   2.390   8.805  11.521
30436W        W91967  37.392   6.688  11.042
30437W        W91968   8.729  27.609  11.573
30438W        W91969  30.101  41.022   1.833
30439W        W91970  43.288  21.172  11.940
30440W        W91971   2.798  25.183   1.849
30441W        W91972   1.761   6.316  10.616
30442W        W91973   3.920   8.838   1.799
30443W        W91974  35.900  41.438   4.344
30444W        W91975  28.028  26.665  10.505
30445W        W91976  43.362  40.393   1.291
30446W        W91977  10.378  21.725  11.554
30447W        W91978  19.088   7.301  14.339
30448W        W91979  30.495  34.101   2.219
30449W        W91980  19.740  17.123  14.935
30450W        W91981  30.162  44.498  14.324
30451W        W91982  31.095  40.478   1.219
30452W        W91983  28.991  24.538  11.495
30453W        W91984   4.390  10.804  14.394
30454W        W91985   8.351   9.776   0.397
30455W        W91986   0.914   7.285   4.686
30456W        W91987  30.954   7.844  12.411
30457W        W91988   6.837  32.093   2.746
30458W        W91989  35.027  12.785  12.412
30459W        W91990  39.507  39.466  14.926
30460W        W91991   3.263  20.580   0.480
30461W        W91992   2.791  36.512   3.203
30462W        W91993  16.756  10.784   0.864
30463W        W91994  13.706   1.738   0.299
30464W        W91995  24.116  12.777  13.514
30465W        W91996  17.138  40.028  11.475
30466W        W91997  24.094   1.422   2.701
30467W        W91998  22.019  21.038  11.900
30468W        W91999  27.623  31.530   3.253
30469W        W92000  37.575   8.847  11.549
30470W        W92001  38.349  22.727   2.842
30471W        W92002  43.021   8.830   2.689
30472W        W92003  37.056  32.134   1.889
30473W        W92004  35.476  35.551   2.725
30474W        W92005  28.119  38.907   3.785
30475W        W92006  20.115  30.984  14.956
30476W        W92007  41.020  44.008  13.961
30477W        W92008  25.027  32.139   3.781
30478W        W92009  21.236   2.455   2.273
30479W        W92010  32.451   4.239  11.447
30480W        W92011  34.077  36.931   3.859
30481W        W92012   6.772  10.272   3.169
30482W        W92013  44.843  23.660  14.949
30483W        W92014  16.075  32.510  14.981
30484W        W92015  39.907  31.466   3.700
30485W        W92016  42.464   2.745   4.305
30486W        W92017  42.481  23.618  10.967
30487W        W92018   9.788  15.720  13.320
30488W        W92019   6.917  39.474  11.081
30489W        W92020  33.439   4.715   5.316
30490W        W92021  33.432   5.342   0.242
30491W        W92022  28.123  37.495  10.075
30492W        W92023  28.966  40.500  10.422
30493W        W92024  20.625   9.650   0.951
30494W        W92025  15.273  13.829  14.968
30495W        W92026  41.820  21.721   4.328
30496W        W92027  42.404  33.026  13.351
30497W        W92028  16.791   7.402   2.835
30498W        W92029  32.909  24.725  10.475
30499W        W92030  21.522  27.520  12.999
30500W        W92031  35.880  13.839   2.205
30501W        W92032  41.340  39.352  13.384
30502W        W92033  41.352  44.004  13.869
30503W        W92034  33.625  43.934  14.412
30504W        W92035  23.235   5.857   1.907
30505W        W92036  36.413  22.064  10.534
30506W        W92037  18.573  23.711   1.224
30507W        W92038   2.297  30.540  14.805
30508W        W92039  13.751  40.508   4.177
30509W        W92040  31.636  23.146  11.607
30510W        W92041  33.933   6.880  10.507
30511W        W92042   0.898  29.628   3.816
30512W        W92043  23.077  12.737  14.277
30513W        W92044  35.574  16.739   3.218
30514W        W92045  39.879  31.038  10.495
30515W        W92046   9.660  28.088  11.900
30516W        W92047   0.921  19.778   1.821
30517W        W92048  30.645  44.393   3.342
30518W        W92049  36.014  20.179   1.929
30519W        W92050  35.977   7.250  10.438
30520W        W92051  28.440   1.862  14.854
30521W        W92052  14.833  28.978   3.356
30522W        W92053  20.268  18.697   4.256
30523W        W92054  12.133   3.391  10.481
30524W        W92055  32.564  12.841  12.063
30525W        W92056  26.648  32.967   4.811
30526W        W92057  42.311  11.694   1.775
30527W        W92058   5.349  40.313   2.182
30528W        W92059  36.855  23.636  13.322
30529W        W92060  25.693   8.699   3.702
30530W        W92061  39.341   2.250   2.800
30531W        W92062  21.724  13.840  14.515
30532W        W92063  17.142  12.664   4.141
30533W        W92064  39.479  43.323  14.399
30534W        W92065  32.923  16.778   2.762
30535W        W92066   2.472  15.810  11.544
30536W        W92067  33.575  28.143   5.124
30537W        W92068   4.851  21.638  11.941
30538W        W92069   3.753   1.433  10.626
30539W        W92070  28.504  19.198  12.829
30540W        W92071  34.559   0.370   1.358
30541W        W92072  34.387  30.571   2.714
30542W        W92073  19.060  10.169   0.278
30543W        W92074  29.648  30.078  10.462
30544W        W92075   9.733   6.727  11.944
30545W        W92076  32.415  35.945  12.411
30546W        W92077   6.862  29.429  14.844
30547W        W92078  18.266  37.445   1.893
30548W        W92079  21.711  13.263   1.415
30549W        W92080   0.384   8.246   1.736
30550W        W92081   4.703  42.863   4.116
30551W        W92082  33.389  40.980  10.639
30552W        W92083   7.831   6.202   4.606
30553W        W92084   6.838  16.307  12.932
30554W        W92085  40.478   1.936  11.058
30555W        W92086   0.405  20.611  10.550
30556W        W92087  37.016  31.536   3.858
30557W        W92088  21.034  17.621   4.206
30558W        W92089   0.837   2.941   3.150
30559W        W92090   8.318   1.861   1.857
30560W        W92091  30.932  27.461   1.865
30561W        W92092  24.668  44.415  13.948
30562W        W92093  15.130  29.970  12.454
30563W        W92094   9.302  17.588  12.497
30564W        W92095  25.997  37.533  12.442
30565W        W92096  26.974  12.176   1.389
30566W        W92097  20.270   9.203   4.734
30567W        W92098   5.252  34.600  12.900
30568W        W92099  15.276  11.235  10.974
30569W        W92100  31.994  19.199  12.393
30570W        W92101  31.925  43.013  12.077
30571W        W92102  34.398  42.833   4.679
30572W        W92103   1.473  17.266  13.335
30573W        W92104  25.587  11.218  12.403
30574W        W92105  38.333  10.288   1.766
30575W        W92106   0.455  42.311  13.917
30576W        W92107  17.081   5.274   4.353
30577W        W92108  15.762  43.284  12.037
30578W        W92109   3.907  27.947  10.573
30579W        W92110  36.385  10.185  12.835
30580W        W92111  28.088  32.992  10.443
30581W        W92112  30.998   2.762   1.727
30582W        W92113  11.645  31.948   2.324
30583W        W92114  42.366  30.613   2.672
30584W        W92115  31.476  13.757  14.405
30585W        W92116  38.458  31.095  12.952
30586W        W92117  34.524   6.332   4.792
30587W        W92118  24.091  26.543   2.334
30588W        W92119  27.116  13.257  12.392
30589W        W92120  18.666  19.144  13.943
30590W        W92121   4.770   1.259   0.310
30591W        W92122   3.425  26.622   1.313
30592W        W92123   1.753  17.555  12.037
30593W        W92124  26.625  39.014   3.381
30594W        W92125   6.191  10.299   3.739
30595W        W92126  43.452  11.280   3.328
30596W        W92127   0.450  13.758  13.502
30597W        W92128  13.689  28.665  12.975
30598W        W92129  43.396   8.390  11.039
30599W        W92130  12.276  39.360   4.761
30600W        W92131  10.154  18.752  14.295
30601W        W92132  11.758  44.480   5.298
30602W        W92133  36.058  11.270   4.322
30603W        W92134  41.792  11.249   5.158
30604W        W92135  13.755  44.890   1.788
30605W        W92136  23.039  16.761   2.284
30606W        W92137  38.324  14.710   3.298
30607W        W92138  17.107  13.211   9.982
30608W        W92139  25.560  22.172  13.884
30609W        W92140  32.554  18.079  12.412
30610W        W92141  33.380  17.578   1.697
30611W        W92142  38.970  41.948   1.442
30612W        W92143  22.045  38.863   3.820
30613W        W92144   7.287   6.812   1.214
30614W        W92145  13.685  22.233   2.265
30615W        W92146  41.003  33.962   4.637
30616W        W92147   3.340  21.090   3.343
30617W        W92148  42.850  35.389  13.439
30618W        W92149  40.040  14.706  11.456
30619W        W92150  31.492  24.599  14.511
30620W        W92151   6.842  20.561  14.869
30621W        W92152  19.710  42.832   1.243
30622W        W92153   7.676  29.632   0.950
30623W        W92154  18.725  26.125  10.638
30624W        W92155  15.142  25.712   3.688
30625W        W92156  39.049  40.871  13.907
30626W        W92157  27.049  21.248   0.267
30627W        W92158   2.741   5.226  12.479
30628W        W92159   0.789   7.331   0.951
30629W        W92160  25.554  42.953   4.763
30630W        W92161   7.233   2.721   4.712
30631W        W92162  30.140  13.271  11.901
30632W        W92163  30.575   7.777  10.947
30633W        W92164  25.527   2.964   2.708
30634W        W92165  26.071  32.960  11.858
30635W        W92166  32.896  14.238  10.120
30636W        W92167  26.012  27.684  10.968
30637W        W92168   2.772  18.186  12.580
30638W        W92169  29.610   6.292   5.314
30639W        W92170  31.993  40.838  11.869
30640W        W92171  44.430  28.173  12.973
30641W        W92172  10.784  14.304  14.938
30642W        W92173   6.740  25.678  10.415
30643W        W92174  13.198  35.965  14.954
30644W        W92175   2.345  36.573  13.805
30645W        W92176   2.731  41.804  12.903
30646W        W92177   8.839  12.250   2.401
30647W        W92178  39.417  24.553  13.458
30648W        W92179   7.880  22.242  14.927
30649W        W92180  28.942   0.324  10.428
30650W        W92181  23.702  39.976  12.947
30651W        W92182  23.628  43.999   0.901
30652W        W92183  17.631  31.494  12.528
30653W        W92184  34.464  18.163   9.654
30654W        W92185  26.612  40.468   4.635
30655W        W92186  35.502  19.141   0.284
30656W        W92187  17.135  21.721   3.718
30657W        W92188  30.450  43.768   0.744
30658W        W92189  21.587  20.629  14.287
30659W        W92190  20.193  34.510   4.124
30660W        W92191  10.855   9.663   1.294
30661W        W92192  31.119  34.541   1.864
30662W        W92193  17.069  34.610   4.683
30663W        W92194  32.606  17.275   1.245
30664W        W92195   0.416  30.560  14.354
30665W        W92196   3.955  30.001  12.444
30666W        W92197   6.268  16.771   1.218
30667W        W92198  15.089  22.085  13.514
30668W        W92199   9.259   6.880   4.346
30669W        W92200  22.067   8.271  13.479
30670W        W92201  14.158   6.236  12.501
30671W        W92202  19.575  17.701  12.433
30672W        W92203   0.288  32.139  12.414
30673W        W92204  34.074  19.776  14.457
30674W        W92205  14.099  16.802   1.421
30675W        W92206  36.058  44.936  12.855
30676W        W92207  34.498   0.895  14.475
30677W        W92208  10.166  21.070  14.430
30678W        W92209  29.154  38.941  10.548
30679W        W92210   2.853  11.847  10.529
30680W        W92211  38.022  22.130   3.277
30681W        W92212  20.116  43.896   1.795
30682W        W92213   1.863   2.760  12.025
30683W        W92214   5.391  17.598  11.371
30684W        W92215  16.206  24.184   4.211
30685W        W92216  40.474  35.474   1.828
30686W        W92217   6.686  32.401  12.855
30687W        W92218   0.742  16.613  13.008
30688W        W92219  18.637  18.610  13.934
30689W        W92220  39.908  12.199  13.018
30690W        W92221  19.677   9.306  14.792
30691W        W92222   2.726  36.473  13.876
30692W        W92223  29.109  34.589  10.557
30693W        W92224  44.443  20.652  12.353
30694W        W92225  40.982   3.864   0.436
30695W        W92226  14.829  12.761   2.227
30696W        W92227   0.349  29.006   4.162
30697W        W92228  25.189  12.741   2.737
30698W        W92229  32.086  43.290  10.488
30699W        W92230  27.461  25.004  11.384
30700W        W92231  31.459   8.323  14.892
30701W        W92232  34.936  43.329  12.354
30702W        W92233   5.240  19.639   4.649
30703W        W92234   5.247  19.768  12.531
30704W        W92235  22.522  17.256  12.971
30705W        W92236  37.973   7.202   9.991
30706W        W92237  38.381  10.811   2.224
30707W        W92238   0.315  27.976   0.388
30708W        W92239  21.749  30.458   0.814
30709W        W92240  40.018  43.765  11.402
30710W        W92241  15.708  29.098   2.823
30711W        W92242  24.215   3.737  10.915
30712W        W92243   1.967  41.859  11.422
30713W        W92244  27.462  33.613   3.737
30714W        W92245  44.782   8.826   2.257
30715W        W92246  40.940  13.827   3.329
30716W        W92247  35.096  37.073   0.737
30717W        W92248  23.729  21.582   4.798
30718W        W92249  16.567  43.870  14.460
30719W        W92250  36.953   6.911   0.397
30720W        W92251   0.409   9.321  14.969
30721W        W92252   4.786  20.569  14.314
30722W        W92253  35.991  34.901   4.624
30723W        W92254  29.540  22.715  11.472
30724W        W92255   8.900  41.833  14.454
30725W        W92256  14.819  13.653  14.802
30726W        W92257  13.712  36.537   0.780
30727W        W92258  28.932  41.387  11.107
30728W        W92259  30.488  34.967  11.944
30729W        W92260  17.558  24.621  10.065
30730W        W92261  39.925  37.969   1.759
30731W        W92262  13.251  31.904  11.877
30732W        W92263  38.910  13.346   4.187
30733W        W92264  11.220  42.516   2.342
30734W        W92265  24.498  16.576  13.941
30735W        W92266  40.536   8.872  13.840
30736W        W92267  19.157  29.464   3.369
30737W        W92268  33.483  26.611  14.401
30738W        W92269  26.010  37.448  12.920
30739W        W92270  40.009   3.818   0.760
30740W        W92271   9.739   4.333   9.544
30741W        W92272   7.851  26.490   3.805
30742W        W92273  30.909   4.878  13.900
30743W        W92274  17.712   2.884  12.474
30744W        W92275  35.030  42.444  13.388
30745W        W92276   0.367  30.644   0.931
30746W        W92277   9.302  23.509   1.780
30747W        W92278   9.851  12.356  12.434
30748W        W92279  27.591  12.143  13.425
30749W        W92280  14.113  32.596  14.977
30750W        W92281  17.135  23.050  13.901
30751W        W92282  37.442   2.466   1.880
30752W        W92283  42.872  42.014   5.215
30753W        W92284  19.219  18.584  13.004
30754W        W92285   8.712  34.609   0.322
30755W        W92286   9.304  14.258   0.342
30756W        W92287  28.532  32.572  14.001
30757W        W92288  36.378  32.982  13.827
30758W        W92289  11.840  34.111   3.335
30759W        W92290  21.161  35.540   0.374
30760W        W92291  29.570  39.469  11.571
30761W        W92292  28.512  37.401   3.814
30762W        W92293  12.815   2.442   2.342
30763W        W92294   3.375  28.678   3.636
30764W        W92295   2.871  15.181  13.545
30765W        W92296  11.173  18.646   4.788
30766W        W92297  13.807  28.436  13.537
30767W        W92298  27.561   5.377   1.779
30768W        W92299  11.691  40.512  13.530
30769W        W92300  17.294   3.307   0.463
30770W        W92301  14.307  22.714   4.215
30771W        W92302   9.315  27.166   1.931
30772W        W92303  21.072  27.503  12.516
30773W        W92304  29.634  13.602   1.924
30774W        W92305  11.153   8.365   4.735
30775W        W92306   8.760  27.525  12.989
30776W        W92307  28.114  12.171   3.289
30777W        W92308  25.981  16.194   0.937
30778W        W92309  10.719  15.149  12.514
30779W        W92310   9.246  41.971   4.265
30780W        W92311  17.244  27.051   3.354
30781W        W92312  18.601  33.890   1.816
30782W        W92313  35.463  19.681   5.139
30783W        W92314  40.027  29.442   1.768
30784W        W92315  15.134  25.039  13.923
30785W        W92316  11.795  18.182   2.266
30786W        W92317  33.626  32.631   0.418
30787W        W92318   2.450  13.226   3.353
30788W        W92319  19.760  19.608   4.709
30789W        W92320   5.292  39.027   2.798
30790W        W92321   4.396  24.167  13.014
30791W        W92322  26.192  18.141  11.422
30792W        W92323   0.907  11.632  11.581
30793W        W92324  20.614  24.049   1.362
30794W        W92325  26.027  30.647  10.982
30795W        W92326  11.747  41.425   3.307
30796W        W92327   5.800  12.280   1.246
30797W        W92328  11.267  10.740   3.839
30798W        W92329  26.962  19.580  13.506
30799W        W92330  29.481  25.145  14.025
30800W        W92331   8.284  23.489   2.728
30801W        W92332  25.481   7.385  14.462
30802W        W92333   6.324  18.718  13.922
30803W        W92334   1.453  38.400   0.345
30804W        W92335   0.297   5.343  11.574
30805W        W92336  23.078  10.686  14.843
30806W        W92337   5.829  35.075  14.890
30807W        W92338   1.476  14.150   1.275
30808W        W92339  15.303  31.981   3.147
30809W        W92340  11.739  18.163  13.383
30810W        W92341  28.067  43.351  12.497
30811W        W92342  33.583  17.283  10.540
30812W        W92343  20.529  26.562  14.494
30813W        W92344  43.807  24.645   2.663
30814W        W92345  24.612   3.409   2.280
30815W        W92346   5.723  23.498  12.381
30816W        W92347  27.955  18.124  11.110
30817W        W92348  10.836   4.217   3.683
30818W        W92349  42.920  33.539   0.346
30819W        W92350  34.512  12.639   2.889
30820W        W92351  38.524  27.149  13.461
30821W        W92352   5.774   1.392   1.900
30822W        W92353  26.611  34.970  13.388
30823W        W92354  22.067  33.624   1.342
30824W        W92355  34.489   0.841   1.451
30825W        W92356  36.533  44.884  12.939
30826W        W92357   2.735   0.954   1.317
30827W        W92358  40.548   1.382  10.539
30828W        W92359  16.108   3.352   1.227
30829W        W92360  36.407   2.856  11.578
30830W        W92361  29.556  40.334   1.258
30831W        W92362  36.981  44.337  12.984
30832W        W92363  15.632   5.824  12.965
30833W        W92364  33.471  27.968   2.252
30834W        W92365  13.685  35.858  10.426
30835W        W92366  23.522  37.933   3.664
30836W        W92367  25.179  44.313   2.772
30837W        W92368  34.487  12.242  13.428
30838W        W92369   6.301  30.504   4.814
30839W        W92370  10.353  14.339  12.054
30840W        W92371  27.150  27.097   1.892
30841W        W92372  38.351  18.653   0.246
30842W        W92373  33.399  28.608   2.191
30843W        W92374  35.543  44.426  13.047
30844W        W92375  21.142  29.117   3.702
30845W        W92376  27.527  26.564  14.792
30846W        W92377  20.242  23.218  13.005
30847W        W92378  12.763  31.426  13.445
30848W        W92379  29.462  29.087  10.570
30849W        W92380   2.281  15.297   1.890
30850W        W92381  42.293  24.612   3.819
30851W        W92382   4.775  35.088  13.894
30852W        W92383  15.222  15.270   4.265
30853W        W92384  10.772  28.067  10.147
30854W        W92385  23.996  12.620  12.059
30855W        W92386  32.416  20.117  11.081
30856W        W92387  15.272  16.594   3.175
30857W        W92388  17.148   0.800   1.211
30858W        W92389  30.543  35.441   0.814
30859W        W92390  26.616  12.807   0.826
30860W        W92391   4.358  34.106  13.963
30861W        W92392  11.865  23.516   1.903
30862W        W92393   4.445  25.558   0.431
30863W        W92394   4.809  21.083  11.925
30864W        W92395  10.736  20.607  12.859
30865W        W92396  26.624  23.143  11.570
30866W        W92397  38.543   6.805   5.627
30867W        W92398  42.300   9.317   1.933
30868W        W92399  40.904  19.692  13.350
30869W        W92400  28.094   7.237   2.214
30870W        W92401  33.491  24.186   0.731
30871W        W92402   9.321   4.268   3.710
30872W        W92403  34.093  35.981   4.654
30873W        W92404   7.378  30.433  14.483
30874W        W92405  28.532  19.631   1.812
30875W        W92406  43.015  26.575  14.388
30876W        W92407   5.338   5.921   3.157
30877W        W92408  23.228   3.815  11.389
30878W        W92409  16.286  10.377  10.948
30879W        W92410  20.731   2.241   1.423
30880W        W92411  35.453  39.839   0.875
30881W        W92412   6.837  34.098  11.516
30882W        W92413   4.919   7.276  10.530
30883W        W92414  13.297  22.197   1.780
30884W        W92415   3.424  13.170  14.310
30885W        W92416  18.620  19.159   0.877
30886W        W92417   4.360  36.542  11.567
30887W        W92418  12.639   8.359   1.918
30888W        W92419   9.768   2.803   5.133
30889W        W92420  37.032  13.275  13.815
30890W        W92421  44.903  31.909  11.972
30891W        W92422  12.158   9.826   4.620
30892W        W92423  24.586  26.682  10.595
30893W        W92424  24.195  35.045   1.372
30894W        W92425   3.832   3.835   2.847
30895W        W92426  42.955  33.880  14.934
30896W        W92427   0.859  17.272   1.826
30897W        W92428  19.677  35.481  12.927
30898W        W92429  32.515  36.390   4.605
30899W        W92430   3.398  27.186  13.313
30900W        W92431  38.517  32.550   0.257
30901W        W92432  16.117  30.103  11.904
30902W        W92433   4.939  12.780   2.723
30903W        W92434   3.732   4.746   2.856
30904W        W92435  26.490   8.334  14.299
30905W        W92436  19.117   1.428  12.344
30906W        W92437  39.916  42.334   1.758
30907W        W92438  28.508   0.249   3.712
30908W        W92439  37.997  42.325  14.445
30909W        W92440  21.725  34.431  13.444
30910W        W92441  27.023  31.582   1.420
30911W        W92442  14.648  21.101   3.646
30912W        W92443  12.753  19.615   2.889
30913W        W92444  29.614  10.232   0.461
30914W        W92445  20.539  20.163  10.914
30915W        W92446  22.185  13.807   4.344
30916W        W92447   6.768  26.521  13.456
30917W        W92448  35.432  31.433  13.495
30918W        W92449  40.909  32.067   5.274
30919W        W92450  22.028   8.359   3.373
30920W        W92451  32.102  17.114   3.223
30921W        W92452  41.028  17.261   1.742
30922W        W92453  13.308   7.372   3.172
30923W        W92454  25.097  15.592  12.824
30924W        W92455   9.361  28.617   2.190
30925W        W92456   5.371  41.976   1.233
30926W        W92457  24.492  42.317   0.270
30927W        W92458  15.701  21.238  12.520
30928W        W92459  29.090  20.085  12.533
30929W        W92460  27.989  22.086  13.057
30930W        W92461  34.895  16.750   2.724
30931W        W92462   9.191  10.862   0.958
30932W        W92463   3.939  35.473  13.310
30933W        W92464  10.862  33.040  14.004
30934W        W92465  44.486   3.725  14.872
30935W        W92466  15.632  29.071   0.379
30936W        W92467   8.681  41.314   1.292
30937W        W92468   2.931  31.908  14.758
30938W        W92469  28.076   5.418  12.548
30939W        W92470  27.087  31.630   3.807
30940W        W92471  15.611  37.904   4.718
30941W        W92472  12.172  21.111  12.560
30942W        W92473  28.930  22.177   4.203
30943W        W92474   4.354   1.736  14.469
30944W        W92475  38.497  32.417  12.069
30945W        W92476  27.520  14.290   2.292
30946W        W92477  25.157  19.282   3.729
30947W        W92478  25.026  35.567   2.738
30948W        W92479   2.771  35.539   4.150
30949W        W92480  36.975  12.146  14.275
30950W        W92481  12.827  13.672   0.899
30951W        W92482  26.676   1.283   1.270
30952W        W92483  29.125  39.900   0.951
30953W        W92484  18.769  11.181  11.097
30954W        W92485  38.012  14.790  13.422
30955W        W92486  22.593  13.610  14.850
30956W        W92487  34.971  26.566   1.861
30957W        W92488  43.933  35.862   2.304
30958W        W92489  16.237  27.606   0.844
30959W        W92490  40.469   9.248   4.751
30960W        W92491  13.663  28.105  13.939
30961W        W92492  13.740  14.664  11.608
30962W        W92493  18.175   0.322   1.796
30963W        W92494   2.906  35.494  13.909
30964W        W92495  27.568  18.284  11.928
30965W        W92496  13.813   5.279   4.814
30966W        W92497  39.042   6.382  12.902
30967W        W92498   9.323   1.875   2.389
30968W        W92499  42.957  15.716  11.858
30969W        W92500   3.861  31.488   1.332
30970W        W92501  15.201  21.527  14.388
30971W        W92502  31.902  10.728   0.761
30972W        W92503  10.798  21.249  13.389
30973W        W92504  30.539  15.755  10.633
30974W        W92505  21.185  18.174  12.049
30975W        W92506  43.896  11.805   0.963
30976W        W92507  20.030  26.023   2.286
30977W        W92508  31.106  20.572   4.191
30978W        W92509  42.870  31.427  12.398
30979W        W92510  36.518   1.778  10.413
30980W        W92511  42.410  16.278   3.777
30981W        W92512   7.324  35.055   2.267
30982W        W92513  28.501  37.369   4.114
30983W        W92514  12.344  29.053   4.721
30984W        W92515   6.680  44.477   3.333
30985W        W92516  31.958   3.725   2.354
30986W        W92517  16.632  26.589   1.399
30987W        W92518  10.274  28.582  14.356
30988W        W92519   2.946  23.600   3.742
30989W        W92520   7.195  35.930  13.535
30990W        W92521  22.068  22.225   3.673
30991W        W92522  35.469  38.077  12.529
30992W        W92523  21.513  30.650   4.613
30993W        W92524   2.774   9.775   3.806
30994W        W92525  22.217  28.008   2.312
30995W        W92526  22.671  32.563   4.811
30996W        W92527  40.456  22.554   3.377
30997W        W92528  12.676   7.304   1.369
30998W        W92529  23.023  20.745   4.619
30999W        W92530   1.791  38.546   3.815
31000W        W92531   2.332  42.472  14.019
31001W        W92532  36.506   1.398  14.277
31002W        W92533  14.249  24.724  13.400
31003W        W92534  21.713  41.814  11.380
31004W        W92535  11.791  23.665  12.513
31005W        W92536  41.946  21.164   4.197
31006W        W92537  16.594  10.340   2.808
31007W        W92538  30.441  11.663  12.413
31008W        W92539  16.718  42.961   4.678
31009W        W92540  37.834  31.590   3.268
31010W        W92541  19.631  15.145   1.772
31011W        W92542   5.254  41.911   3.652
31012W        W92543   5.769  30.439  11.908
31013W        W92544  10.825  15.157  13.020
31014W        W92545   6.863  37.429  12.943
31015W        W92546  33.521  13.627  10.077
31016W        W92547  26.500  31.063   5.141
31017W        W92548   6.827  33.930   0.248
31018W        W92549  38.030  35.368   2.825
31019W        W92550  28.596  34.940  12.033
31020W        W92551  12.638   9.376  13.909
31021W        W92552  44.423   1.244  10.436
31022W        W92553  36.359  21.218  14.361
31023W        W92554   6.880  27.060  11.986
31024W        W92555  42.966  40.339  14.816
31025W        W92556  40.326   1.445   3.767
31026W        W92557   0.369  32.491  11.008
31027W        W92558  43.287  38.964  13.949
31028W        W92559  13.681  30.036  11.010
31029W        W92560  36.948  24.118   1.221
31030W        W92561  41.869   9.382  10.012
31031W        W92562  23.000  20.736   1.347
31032W        W92563  17.768  15.656  13.854
31033W        W92564  30.582  34.570  13.816
31034W        W92565  22.622  20.554  12.831
31035W        W92566  20.079   2.912   1.771
31036W        W92567  36.512  39.466   4.783
31037W        W92568  10.828   7.211  13.510
31038W        W92569  19.549  37.019   2.691
31039W        W92570  25.087  44.426  12.540
31040W        W92571  13.223  35.970  10.490
31041W        W92572  11.643  41.336  12.434
31042W        W92573  33.120  28.996  12.034
31043W        W92574   0.781  35.011   1.213
31044W        W92575  22.033   6.694   1.802
31045W        W92576  15.237   2.737   1.762
31046W        W92577  31.950  29.613  11.011
31047W        W92578  43.966  31.542  12.341
31048W        W92579  35.456  41.419   4.182
31049W        W92580  18.174   4.811  12.908
31050W        W92581  29.615  22.554  11.089
31051W        W92582  28.680   3.852   2.288
31052W        W92583   1.427   7.260  12.445
31053W        W92584  19.650   1.464  13.056
31054W        W92585  30.461   5.820  12.552
31055W        W92586  30.053  11.702   1.301
31056W        W92587   8.193  31.471  13.320
31057W        W92588  10.831   2.915   3.308
31058W        W92589  39.390  41.849   2.283
31059W        W92590  38.904   2.820   3.229
31060W        W92591  28.133   7.187  12.994
31061W        W92592  22.577  20.732   2.820
31062W        W92593  18.599  42.846  10.920
31063W        W92594  31.905  36.880  12.054
31064W        W92595  14.693  36.513   2.313
31065W        W92596   5.755  28.678  11.044
31066W        W92597  30.465  42.423   1.267
31067W        W92598  34.949  23.703   1.885
31068W        W92599   8.215   0.922  12.566
31069W        W92600  28.011  28.485   0.737
31070W        W92601  42.364  25.117  12.405
31071W        W92602  25.478  28.632  12.009
31072W        W92603  26.128  22.087  11.552
31073W        W92604  26.149  42.373  10.979
31074W        W92605   2.905  21.095   0.444
31075W        W92606   7.745  17.721  12.833
31076W        W92607  17.285  15.124  14.006
31077W        W92608   5.409  28.668   3.310
31078W        W92609  17.765  42.371  13.003
31079W        W92610  28.118  20.600   4.239
31080W        W92611  35.501   3.905  13.957
31081W        W92612  29.651  44.979  13.377
31082W        W92613  36.956  13.672  14.979
31083W        W92614  38.827  38.506  10.981
31084W        W92615  13.251  17.724  14.275
31085W        W92616  32.564  42.393   4.134
31086W        W92617  14.290   7.743   0.321
31087W        W92618  11.662  26.505   0.812
31088W        W92619  30.468  27.960   0.439
31089W        W92620   9.160  38.821  12.084
31090W        W92621  12.360   2.763  11.105
31091W        W92622   6.190  23.717   1.418
31092W        W92623  36.975  34.109   3.168
31093W        W92624   0.922  27.965   2.280
31094W        W92625   2.337  25.092   1.299
31095W        W92626  27.575  13.785   2.194
31096W        W92627  39.417  32.017   0.878
31097W        W92628  40.527   8.253   0.360
31098W        W92629  33.044  40.035  14.400
31099W        W92630  22.051  16.620   3.304
31100W        W92631  28.448   6.216   0.822
31101W        W92632  31.510   3.796   3.766
31102W        W92633  29.130  18.734   1.423
31103W        W92634   8.875  23.520   0.342
31104W        W92635  40.988  29.921   1.252
31105W        W92636  11.290  16.278   2.728
31106W        W92637  38.845  18.235  13.962
31107W        W92638  32.539  14.785  10.114
31108W        W92639   4.889  34.075   0.810
31109W        W92640  32.077   8.201  10.901
31110W        W92641  31.903  24.544  13.435
31111W        W92642  21.665  11.727  10.519
31112W        W92643  42.484  39.480   3.631
31113W        W92644  35.007  27.191   3.667
31114W        W92645  33.015  29.036  12.979
31115W        W92646  31.921   4.839   9.921
31116W        W92647   6.727  41.519  13.534
31117W        W92648  10.845   6.340  12.527
31118W        W92649  16.222  32.102  10.066
31119W        W92650   2.414  19.164   0.782
31120W        W92651  10.692  25.106   4.825
31121W        W92652   6.689  17.704  10.631
31122W        W92653  13.185  41.446   2.834
31123W        W92654   7.773   9.180  11.028
31124W        W92655  24.216  18.248  12.580
31125W        W92656  33.057  41.306  10.453
31126W        W92657  13.317   2.359  10.526
31127W        W92658  11.651  39.418  11.436
31128W        W92659  29.580  40.931   0.845
31129W        W92660   1.864  39.449   1.325
31130W        W92661  25.161  21.104   3.152
31131W        W92662   3.346  29.139  13.818
31132W        W92663   0.884  41.537  10.902
31133W        W92664  29.429  43.841   4.647
31134W        W92665  27.090  35.894   1.705
31135W        W92666  36.994  28.676   4.294
31136W        W92667  15.171  34.954  10.467
31137W        W92668  41.897  17.690   1.244
31138W        W92669  43.440  43.376  14.411
31139W        W92670  35.891  35.063  12.950
31140W        W92671  13.182  29.170  14.837
31141W        W92672  17.662   7.174  12.444
31142W        W92673  32.610  38.005   9.651
31143W        W92674  32.469  13.197   2.413
31144W        W92675  25.503  10.363   0.304
31145W        W92676  27.116  23.017   1.420
31146W        W92677  37.046  15.089  12.401
31147W        W92678   7.709  21.142  12.863
31148W        W92679  36.041  19.597  10.470
31149W        W92680  24.068  31.934  13.511
31150W        W92681  43.889  15.615   2.858
31151W        W92682  39.908   1.967   0.795
31152W        W92683  11.291  28.641  12.458
31153W        W92684  43.815  18.695   0.395
31154W        W92685  40.007  44.435   1.368
31155W        W92686   6.232  42.318   0.331
31156W        W92687  16.776  19.732  13.931
31157W        W92688  41.484  40.330   2.381
31158W        W92689  24.686  24.136   0.377
31159W        W92690  32.546  14.305  13.369
31160W        W92691  29.503  33.480  13.812
31161W        W92692  22.712  14.104  12.053
31162W        W92693  37.479  42.807  10.123
31163W        W92694  33.119   2.748   0.867
31164W        W92695   8.250  44.011   2.192
31165W        W92696  35.487  31.572  13.984
31166W        W92697   4.250   2.909   3.757
31167W        W92698  25.049  42.885  10.058
31168W        W92699  38.386  30.024   2.276
31169W        W92700  44.473  16.112   2.258
31170W        W92701  12.294   1.278   1.404
31171W        W92702  34.058  26.601  11.041
31172W        W92703  24.124  39.865   0.308
31173W        W92704  25.180  34.002  11.891
31174W        W92705  31.050  11.192  10.892
31175W        W92706  28.569  34.886  14.480
31176W        W92707  21.186  23.655  10.544
31177W        W92708  22.604  10.212  14.476
31178W        W92709   0.437  37.869   1.763
31179W        W92710   3.315  14.811   0.333
31180W        W92711   4.411  36.571  12.059
31181W        W92712  18.610  31.970  10.152
31182W        W92713  22.616  42.361   4.221
31183W        W92714  39.888  16.152  10.931
31184W        W92715  17.232  12.225  13.990
31185W        W92716  34.602  20.676   3.318
31186W        W92717  28.969   5.731  11.006
31187W        W92718  14.603  39.851   3.762
31188W        W92719  10.307  28.471  13.849
31189W        W92720   7.837   9.391   2.870
31190W        W92721   2.270  20.671  12.874
31191W        W92722  12.292  35.937   1.249
31192W        W92723  30.525  44.754  11.128
31193W        W92724  20.681  20.652  10.543
31194W        W92725  15.270  28.161  14.887
31195W        W92726  16.141  36.863  12.381
31196W        W92727  19.555  41.961   5.295
31197W        W92728  36.383  41.000   0.272
31198W        W92729  13.656  33.483   0.879
31199W        W92730  39.318  31.406   3.666
31200W        W92731   9.726  36.516   2.313
31201W        W92732   1.943  16.585   2.762
31202W        W92733  42.977  31.130  11.857
31203W        W92734  41.423  38.942   4.667
31204W        W92735   3.764  21.732  11.915
31205W        W92736  37.851  26.168  13.473
31206W        W92737   8.303  27.998   4.632
31207W        W92738  13.827  19.138   0.245
31208W        W92739  12.634  33.510  10.101
31209W        W92740  28.181  24.135   3.245
31210W        W92741  23.606  25.974  12.026
31211W        W92742  42.891  18.693  12.006
31212W        W92743  41.476  11.367   4.253
31213W        W92744  26.094  12.656  10.980
31214W        W92745  21.567  36.580  10.143
31215W        W92746  34.439  40.381  10.436
31216W        W92747   6.683  18.552   0.399
31217W        W92748  10.636  30.076   0.323
31218W        W92749  16.664  43.320  13.356
31219W        W92750  30.985  38.819  12.483
31220W        W92751   5.379   8.286   2.240
31221W        W92752  11.843  27.032   1.406
31222W        W92753  16.225  18.249   1.924
31223W        W92754  39.042  22.025  11.129
31224W        W92755   4.863  10.291   0.281
31225W        W92756  30.514  15.132   9.641
31226W        W92757  20.653   4.773   2.854
31227W        W92758  17.278  16.114   3.645
31228W        W92759  42.427  10.165   1.916
31229W        W92760  15.780  27.584  13.532
31230W        W92761  29.655  11.350   2.205
31231W        W92762  44.914  29.440   4.777
31232W        W92763   9.234  36.982   1.913
31233W        W92764   0.491   2.935  13.463
31234W        W92765  32.518  10.834  10.897
31235W        W92766   9.149   3.290  12.391
31236W        W92767  11.660   7.365  14.414
31237W        W92768   1.273  29.038   4.710
31238W        W92769  11.650  26.005   4.779
31239W        W92770  21.757  38.417  12.004
31240W        W92771  37.867  42.504  14.974
31241W        W92772  21.250  23.539   2.246
31242W        W92773  23.002   2.759  14.792
31243W        W92774  22.600  18.699  13.874
31244W        W92775  30.920  30.007   2.883
31245W        W92776   4.729  31.543  11.953
31246W        W92777  22.147  30.094   0.473
31247W        W92778  31.411   3.882   0.781
31248W        W92779   6.685  14.337   4.621
31249W        W92780  11.357  27.083   4.309
31250W        W92781   5.417   5.439  14.338
31251W        W92782  42.837  22.107   0.258
31252W        W92783  39.927   7.771   2.270
31253W        W92784  32.631  38.332  13.849
31254W        W92785  20.174  35.056   1.446
31255W        W92786  16.647  31.569  13.019
31256W        W92787  15.762  11.233  13.349
31257W        W92788  32.503   3.885  13.532
31258W        W92789   4.785  13.305  14.831
31259W        W92790  35.485   4.814  13.477
31260W        W92791   0.890   4.335  12.981
31261W        W92792  27.977  25.035   0.919
31262W        W92793   1.882   8.861   1.705
31263W        W92794  15.693  11.219  12.567
31264W        W92795  31.933  36.392   0.457
31265W        W92796  31.128  35.478   0.460
31266W        W92797  29.035  28.445   4.339
31267W        W92798  40.490  28.128   3.225
31268W        W92799  42.806  33.930  13.503
31269W        W92800  40.323   7.279  12.559
31270W        W92801  39.866  39.982  10.536
31271W        W92802   0.433   5.419   3.847
31272W        W92803  16.733  29.661   2.724
31273W        W92804  12.333  41.813   0.745
31274W        W92805   8.189  11.209  11.029
31275W        W92806  42.903  38.358  10.980
31276W        W92807   0.378  44.418   0.248
31277W        W92808  26.701  36.480  14.431
31278W        W92809  43.866  32.917   4.715
31279W        W92810  32.104  37.977  11.044
31280W        W92811  17.244  30.482  13.798
31281W        W92812  16.755   7.258  11.592
31282W        W92813   1.947   1.914  10.564
31283W        W92814  11.678  33.468   3.296
31284W        W92815  12.121  27.082   3.335
31285W        W92816   0.378  37.874  11.393
31286W        W92817  31.646  31.561   1.901
31287W        W92818  24.561  16.720   2.378
31288W        W92819  20.124  14.247  14.488
31289W        W92820  16.170   1.318   0.855
31290W        W92821  33.955   6.391  13.379
31291W        W92822  39.327   4.778  12.456
31292W        W92823  14.830  42.287   4.829
31293W        W92824  17.583  41.948   3.635
31294W        W92825   2.782  15.652  12.095
31295W        W92826  35.086  12.210  14.808
31296W        W92827  20.701   6.233   0.854
31297W        W92828  36.935   6.318  12.887
31298W        W92829   6.788  17.677   1.237
31299W        W92830  28.985  31.935  12.884
31300W        W92831   2.963  32.431  12.345
31301W        W92832   4.410  36.372   3.181
31302W        W92833  21.562  36.587  14.411
31303W        W92834   1.305   1.750  11.930
31304W        W92835   4.353   6.740  14.015
31305W        W92836  35.426   0.353  10.610
31306W        W92837  14.606  36.935   1.262
31307W        W92838  25.528  11.334   4.202
31308W        W92839   9.732  25.540  14.944
31309W        W92840   5.853  43.384   0.944
31310W        W92841  38.010   5.792   2.714
31311W        W92842  21.516  42.483  11.551
31312W        W92843  10.732  21.632   0.305
31313W        W92844  35.998  21.197   4.805
31314W        W92845  32.631  12.149  11.454
31315W        W92846   4.907   9.774   4.800
31316W        W92847  13.827  15.307  10.916
31317W        W92848  24.587  41.514  14.501
31318W        W92849  26.081  37.846  13.334
31319W        W92850  41.923  18.687   2.387
31320W        W92851  34.600   6.848   2.337
31321W        W92852  32.482  35.104   3.869
31322W        W92853   4.915   2.778  11.529
31323W        W92854  32.960  26.504   3.194
31324W        W92855  36.474  16.691   1.310
31325W        W92856  20.552  22.596  13.892
31326W        W92857  34.075  39.408   1.251
31327W        W92858  44.001  13.124   3.185
31328W        W92859  43.300  43.353   2.311
31329W        W92860   6.343  38.997   0.482
31330W        W92861  44.297  37.347  12.567
31331W        W92862   0.491  12.128  14.863
31332W        W92863  40.475   0.365   1.320
31333W        W92864  44.478  20.067  13.400
31334W        W92865  33.887  23.664   0.408
31335W        W92866   3.215  39.907   1.349
31336W        W92867  31.533  12.671   3.836
31337W        W92868  42.283  15.581   5.132
31338W        W92869  36.987  22.125   1.273
31339W        W92870  10.360   6.384   0.915
31340W        W92871  36.059  40.006  10.536
31341W        W92872  26.468  19.268  13.889
31342W        W92873  13.133  23.502   4.824
31343W        W92874   7.835  24.125   5.194
31344W        W92875  23.611  11.830   2.734
31345W        W92876   5.688  22.514   1.252
31346W        W92877  42.952  24.549  13.331
31347W        W92878  30.506  28.043   1.334
31348W        W92879  38.918  13.674   9.514
31349W        W92880  12.791  33.096   0.388
31350W        W92881  19.186   4.820  13.059
31351W        W92882  26.605  32.635   3.806
31352W        W92883  33.874  12.228   2.364
31353W        W92884  16.108  19.545   0.379
31354W        W92885  11.212   8.730  14.371
31355W        W92886   8.305   4.819   4.188
31356W        W92887  38.357  37.910  13.988
31357W        W92888  43.347  42.359  14.361
31358W        W92889  13.620  32.044  13.850
31359W        W92890  18.758  14.179   4.759
31360W        W92891  23.202   0.429   2.250
31361W        W92892  15.589  37.442  10.157
31362W        W92893   8.698  23.230  10.408
31363W        W92894  19.227   7.711   1.726
31364W        W92895   8.323  11.370   4.131
31365W        W92896  18.609  30.531   3.677
31366W        W92897  22.559   4.330   4.312
31367W        W92898  28.673  40.899   3.313
31368W        W92899   0.831  21.158  14.004
31369W        W92900  17.596  24.513  11.578
31370W        W92901  21.172  23.143   3.837
31371W        W92902  17.277  43.354   0.282
31372W        W92903  36.019  27.481  12.408
31373W        W92904  40.041  17.766   2.765
31374W        W92905  36.070  40.908  11.495
31375W        W92906  40.539  42.363  10.471
31376W        W92907  40.898   9.391   1.911
31377W        W92908  41.307   3.253   2.416
31378W        W92909   6.794  11.724   1.736
31379W        W92910  39.389  18.263   0.255
31380W        W92911  44.426  11.743   4.774
31381W        W92912  17.589  30.448  12.053
31382W        W92913   8.183  43.908   2.815
31383W        W92914   9.744  34.531   1.304
31384W        W92915  21.687  21.179   2.866
31385W        W92916   4.786   4.814   2.406
31386W        W92917  11.260  13.691  11.580
31387W        W92918  35.896  43.350   4.282
31388W        W92919  24.178  17.126   4.163
31389W        W92920   2.360  29.153   3.746
31390W        W92921  42.513  16.317   4.279
31391W        W92922  41.991  29.044   1.869
31392W        W92923   8.306  29.004   0.727
31393W        W92924  39.058   0.336  13.922
31394W        W92925  28.489  34.914   4.673
31395W        W92926  39.939  32.018   2.852
31396W        W92927  15.787  37.480   2.828
31397W        W92928  20.731   9.276  13.463
31398W        W92929  12.155  16.287   0.737
31399W        W92930  27.517  25.975  14.024
31400W        W92931  27.965  27.654  10.904
31401W        W92932  10.773  11.809  13.915
31402W        W92933  39.066  20.676  10.054
31403W        W92934  40.316  27.010  11.002
31404W        W92935  28.169  38.452  11.457
31405W        W92936  11.839  28.671  10.959
31406W        W92937  26.043  26.573  12.903
31407W        W92938  25.162  31.579   5.129
31408W        W92939  42.806   4.792   3.294
31409W        W92940  10.173   0.864  13.410
31410W        W92941  43.004  31.622  14.428
31411W        W92942   3.926  42.831  13.513
31412W        W92943   8.831   5.818  13.400
31413W        W92944   2.248  19.249   4.828
31414W        W92945  12.213  22.231   2.362
31415W        W92946  10.147  10.146   5.089
31416W        W92947  15.781   5.428   0.249
31417W        W92948  23.688  13.343  10.957
31418W        W92949   2.257  30.646  11.985
31419W        W92950  38.552   5.693  11.095
31420W        W92951  44.008  16.307  11.547
31421W        W92952  19.660  31.606  14.428
31422W        W92953   5.266  15.296   3.366
31423W        W92954  34.451  35.367   2.901
31424W        W92955  32.908   5.365   1.281
31425W        W92956  19.263   5.282   2.740
31426W        W92957  42.857  10.176  13.514
31427W        W92958  12.655  19.568  11.911
31428W        W92959   9.162   1.910   3.802
31429W        W92960  11.682  32.989  11.455
31430W        W92961  14.714  16.783  11.444
31431W        W92962  29.518  41.494  11.055
31432W        W92963  12.262  28.171   0.333
31433W        W92964  43.815   7.861  11.459
31434W        W92965  22.124  36.036   1.760
31435W        W92966  44.467  43.398  14.760
31436W        W92967  43.766  16.686  13.012
31437W        W92968   6.912  21.241   3.781
31438W        W92969  31.073  28.578   1.228
31439W        W92970   3.719  39.987  10.614
31440W        W92971  35.398  18.703   1.424
31441W        W92972  36.404  21.211  14.828
31442W        W92973  29.036  38.333  10.628
31443W        W92974  33.089  22.229  12.036
31444W        W92975  18.771  18.751   0.267
31445W        W92976  25.069  14.232   0.782
31446W        W92977  38.357  32.057  11.570
31447W        W92978  34.090   1.766  14.786
31448W        W92979  13.707  30.542   3.340
31449W        W92980  36.938   0.763   1.733
31450W        W92981  27.628  37.358  14.925
31451W        W92982  29.064  21.545  10.426
31452W        W92983   2.872  21.637   3.705
31453W        W92984  43.401   7.730   4.666
31454W        W92985   8.370  40.343  14.853
31455W        W92986  35.544  37.049   1.358
31456W        W92987  38.839   0.789   5.091
31457W        W92988  25.531  12.305  13.847
31458W        W92989  34.884  12.178   1.848
31459W        W92990  29.494  27.495  12.375
31460W        W92991   9.314  42.313  11.009
31461W        W92992  27.660   7.725   0.830
31462W        W92993   8.341   0.865  11.544
31463W        W92994  26.485  23.489  14.014
31464W        W92995  11.351   3.846   1.891
31465W        W92996   3.816  28.618  10.628
31466W        W92997  16.598  30.550   1.324
31467W        W92998   7.388  31.526   0.733
31468W        W92999  22.006  20.575   0.756
31469W        W93000   8.346  43.288  10.986
31470W        W93001  22.248  44.429  12.434
31471W        W93002  18.188   1.929  10.551
31472W        W93003  13.237  43.382  10.521
31473W        W93004  14.599  22.685  13.063
31474W        W93005  42.884   6.793   3.631
31475W        W93006  33.056   0.398   2.345
31476W        W93007  27.122  22.029   4.119
31477W        W93008  44.932   1.942   0.925
31478W        W93009  17.661  13.142   2.791
31479W        W93010   3.832  36.855  12.091
31480W        W93011  21.543  14.730   0.441
31481W        W93012  11.158  36.096   4.770
31482W        W93013  40.958  29.484   0.898
31483W        W93014  41.393   5.752   2.706
31484W        W93015  18.072  13.680  12.429
31485W        W93016  31.947  39.913   4.774
31486W        W93017  25.565  25.522  12.029
31487W        W93018   9.847  13.180   4.214
31488W        W93019  30.997  39.550  12.575
31489W        W93020  11.232  44.264  10.955
31490W        W93021   0.341   1.436  10.583
31491W        W93022  22.087  27.539  12.012
31492W        W93023  30.085  14.149   2.290
31493W        W93024  15.702  21.183  10.486
31494W        W93025  37.988  13.321   5.322
31495W        W93026  35.526  11.218   1.294
31496W        W93027  25.664   6.848  14.503
31497W        W93028   9.185  27.454   1.818
31498W        W93029  39.916  26.668   3.720
31499W        W93030  16.575  40.363  13.939
31500W        W93031  41.975  14.135  13.838
31501W        W93032   7.199  11.338   2.748
31502W        W93033   0.776  14.188  10.636
31503W        W93034  15.792  35.456   4.177
31504W        W93035  29.046  35.981  11.480
31505W        W93036  11.759  26.986  13.478
31506W        W93037  36.492  25.976  14.829
31507W        W93038  25.084  37.491   1.262
31508W        W93039  37.067  18.593   2.219
31509W        W93040   7.391   2.331  14.898
31510W        W93041  31.483  31.957   2.239
31511W        W93042   8.226  16.114   3.833
31512W        W93043   1.409  34.534   3.350
31513W        W93044  23.173  35.934   3.631
31514W        W93045  15.649  21.255   1.863
31515W        W93046  27.598  23.616   3.762
31516W        W93047  13.671  15.219  10.546
31517W        W93048  28.613  24.145   3.386
31518W        W93049  24.692  24.084   1.772
31519W        W93050  17.708  12.119  11.977
31520W        W93051   0.421  35.484  11.571
31521W        W93052  11.834  38.962   1.803
31522W        W93053   4.377   4.299   2.322
31523W        W93054  33.090  20.638  11.604
31524W        W93055  28.092  19.764  14.008
31525W        W93056  31.951  23.079  14.369
31526W        W93057  32.461  18.582   9.982
31527W        W93058  23.153  12.730   2.807
31528W        W93059  20.140   7.321   5.118
31529W        W93060  19.576  40.053   2.664
31530W        W93061   3.221  11.130   0.858
31531W        W93062  20.539   8.690  11.469
31532W        W93063  35.067  42.778  14.764
31533W        W93064   3.442  14.264  14.469
31534W        W93065   3.843  28.137   0.483
31535W        W93066   1.413   8.160  11.529
31536W        W93067  28.444  40.837  14.028
31537W        W93068  30.962  32.606  12.369
31538W        W93069  21.666  15.751  14.848
31539W        W93070  16.270   5.732   1.918
31540W        W93071  10.140   6.371   4.821
31541W        W93072   8.691   0.792  11.875
31542W        W93073  28.635  20.193  14.358
31543W        W93074   5.842   2.249   2.777
31544W        W93075   6.839  14.157  12.958
31545W        W93076  38.009   2.723   0.818
31546W        W93077   8.261  31.615   3.732
31547W        W93078  25.045  28.607  14.926
31548W        W93079  23.634  23.529  13.384
31549W        W93080   2.863  33.122   2.355
31550W        W93081  14.665  36.886  11.594
31551W        W93082   5.870  14.611   0.928
31552W        W93083  34.058   5.694  14.768
31553W        W93084  10.359  26.149  13.408
31554W        W93085  19.279  23.557  10.980
31555W        W93086   6.826  29.440   1.806
31556W        W93087  37.871  12.309   1.867
31557W        W93088   5.784  12.666   1.327
31558W        W93089  36.422  18.276  10.532
31559W        W93090  17.587  32.899  14.399
31560W        W93091   6.197  25.051  11.588
31561W        W93092  33.608  44.982   1.745
31562W        W93093  25.995   0.442  14.435
31563W        W93094  30.123  43.015  12.363
31564W        W93095  33.502  15.112   0.774
31565W        W93096  26.648   3.332   1.794
31566W        W93097  21.517  23.677  11.464
31567W        W93098  32.001   1.347   3.648
31568W        W93099  14.248  33.485   3.794
31569W        W93100  41.321  14.771   1.777
31570W        W93101  42.984  22.083  12.369
31571W        W93102   7.767  25.015  14.279
31572W        W93103  28.009   7.812  14.885
31573W        W93104  38.466  23.160   2.704
31574W        W93105  14.752  30.140   3.704
31575W        W93106  30.928   2.427  11.420
31576W        W93107  23.554  15.779  10.422
31577W        W93108  34.095  24.047   1.440
31578W        W93109   8.659  15.697  11.083
31579W        W93110   1.450  21.665  13.912
31580W        W93111  12.134  29.053  14.877
31581W        W93112  11.816  39.837   0.807
31582W        W93113  33.457  22.568  12.385
31583W        W93114  24.117  13.776  13.003
31584W        W93115  16.781   4.722  14.822
31585W        W93116  15.647   3.862   4.267
31586W        W93117  41.399  43.347   2.829
31587W        W93118  11.252  25.033   1.435
31588W        W93119  20.703  17.069  14.443
31589W        W93120  12.833  20.215   2.800
31590W        W93121  15.659   3.286  14.402
31591W        W93122  17.125  43.448   0.830
31592W        W93123   7.767  18.144   9.951
31593W        W93124  19.132  31.409   4.729
31594W        W93125  40.333  18.628  14.808
31595W        W93126  43.348  39.895  13.525
31596W        W93127  12.645  14.194   1.809
31597W        W93128   1.943  36.850  13.844
31598W        W93129  25.579  12.665   0.344
31599W        W93130  41.026  36.874  13.474
31600W        W93131  32.914  38.399  14.300
31601W        W93132   6.895  16.669   2.296
31602W        W93133  18.212  43.838   3.790
31603W        W93134  27.524  17.588  12.550
31604W        W93135  26.156   5.690  10.507
31605W        W93136  42.467   1.360   2.705
31606W        W93137  16.593  21.017  14.459
31607W        W93138   8.283  37.421   3.754
31608W        W93139  12.120  39.326  11.894
31609W        W93140  16.147  20.591   1.329
31610W        W93141  10.289  17.145  11.583
31611W        W93142  23.022   0.294   4.206
31612W        W93143  25.621  31.576   3.636
31613W        W93144  35.381  28.035  13.472
31614W        W93145  29.534  12.177   3.702
31615W        W93146  23.086  24.615   1.856
31616W        W93147  23.732   1.959   4.147
31617W        W93148  42.397   8.231   0.885
31618W        W93149  17.241   7.739  11.405
31619W        W93150  23.185  11.373  13.387
31620W        W93151   7.199   8.371   2.850
31621W        W93152  19.615  37.499  11.001
31622W        W93153   2.434  10.810   4.234
31623W        W93154  43.940  18.053  13.408
31624W        W93155  15.328   7.261  11.576
31625W        W93156   8.830  19.618  13.529
31626W        W93157  40.450  25.214   3.289
31627W        W93158   8.732  35.492  14.906
31628W        W93159  20.615  34.530  14.423
31629W        W93160  21.063  29.480  12.049
31630W        W93161  12.173  35.855   0.414
31631W        W93162  33.594  42.374  12.953
31632W        W93163  38.021  18.086   0.427
31633W        W93164  43.790  11.857  10.581
31634W        W93165  44.857  33.017  10.549
31635W        W93166  23.505   4.344  12.967
31636W        W93167  10.679  23.122  12.998
31637W        W93168  24.202  26.134  12.480
31638W        W93169  11.733  32.514   3.829
31639W        W93170   1.334   2.356  14.792
31640W        W93171   8.876  39.503  11.939
31641W        W93172  27.511  13.691   4.200
31642W        W93173  18.256  10.860  13.501
31643W        W93174  29.005  40.968  14.887
31644W        W93175  30.947  21.654   1.837
31645W        W93176  30.553  22.065  14.023
31646W        W93177  34.013   2.884   4.212
31647W        W93178  42.851  39.975   0.431
31648W        W93179  35.358  38.464  14.895
31649W        W93180   7.338  32.575  10.630
31650W        W93181  20.139  26.678   4.307
31651W        W93182  30.605   0.389  14.032
31652W        W93183  19.777  32.948   3.279
31653W        W93184  16.262  32.929   2.402
31654W        W93185   1.918  20.659  11.380
31655W        W93186   2.239   8.209   2.215
31656W        W93187   8.728  40.439  12.547
31657W        W93188  41.356  13.248  11.404
31658W        W93189  33.529  34.491   4.342
31659W        W93190  11.691  15.637   2.353
31660W        W93191  29.429  33.556   3.226
31661W        W93192  26.669  18.615   0.881
31662W        W93193  39.942  34.459   1.868
31663W        W93194  32.043   1.384  13.916
31664W        W93195  32.053   1.455   0.308
31665W        W93196  20.237  12.652  10.891
31666W        W93197  21.627  33.470  11.468
31667W        W93198  39.526   8.209  12.361
31668W        W93199  20.639  43.801   0.330
31669W        W93200  19.540  40.870  13.357
31670W        W93201  31.093  25.122   2.326
31671W        W93202  40.930  42.819   1.329
31672W        W93203   8.312  31.577   3.174
31673W        W93204  11.824  36.942   4.733
31674W        W93205  15.304  29.606   3.302
31675W        W93206  44.402  22.220  13.503
31676W        W93207  12.666  40.336  14.386
31677W        W93208  37.083  31.028  14.790
31678W        W93209  28.109  33.117  14.829
31679W        W93210  40.334  19.728   5.286
31680W        W93211  23.666  38.392  14.383
31681W        W93212   3.279  39.369  14.301
31682W        W93213   6.220  24.601  13.355
31683W        W93214   0.312  20.104  13.323
31684W        W93215   2.914   1.854   4.660
31685W        W93216   0.483  36.956   0.784
31686W        W93217  36.073  41.801   5.195
31687W        W93218  28.080  19.696   9.988
31688W        W93219  21.591  44.776  13.423
31689W        W93220  32.605  36.940  14.988
31690W        W93221   2.852  16.220   4.715
31691W        W93222  25.075  24.031  12.527
31692W        W93223  22.162  44.453   1.822
31693W        W93224   9.291  30.916  12.932
31694W        W93225  39.452   5.889   4.682
31695W        W93226  43.788  32.080   1.447
31696W        W93227  30.487  37.957  13.906
31697W        W93228  30.481  21.559   4.656
31698W        W93229  20.683  34.988   0.895
31699W        W93230  12.194   7.765  14.933
31700W        W93231  34.457  11.335  14.025
31701W        W93232  11.373  22.660   1.762
31702W        W93233  43.276  28.444   0.832
31703W        W93234  24.581   5.888  13.017
31704W        W93235  26.052  25.501  11.596
31705W        W93236  22.542  12.662   1.440
31706W        W93237  24.984   8.224  11.004
31707W        W93238  44.331  37.995  11.076
31708W        W93239  30.975  31.029  12.561
31709W        W93240  18.213  21.541  10.976
31710W        W93241  34.538  41.499   1.334
31711W        W93242  21.095  27.099  13.827
31712W        W93243  14.721   9.282  14.836
31713W        W93244  27.016  30.549   1.801
31714W        W93245  23.536  19.056  13.530
31715W        W93246  22.555  26.470  12.922
31716W        W93247  31.403   9.754  10.074
31717W        W93248   2.404   2.822  14.466
31718W        W93249  31.947  36.388  14.910
31719W        W93250  29.141   6.887   4.308
31720W        W93251  18.149   2.446   3.367
31721W        W93252   1.856   9.259  13.348
31722W        W93253  30.141  27.628  10.940
31723W        W93254  44.969   5.828  14.892
31724W        W93255  36.507  37.075  11.549
31725W        W93256  39.058  44.951  14.430
31726W        W93257   5.762   6.855   3.379
31727W        W93258   4.337  12.856   4.266
31728W        W93259  15.084  42.030  14.909
31729W        W93260   4.850  35.962  11.533
31730W        W93261  44.311  15.321   4.218
31731W        W93262  31.072  36.888   4.190
31732W        W93263  18.574  34.391  13.969
31733W        W93264  23.223  25.704   2.879
31734W        W93265  33.054   3.888  13.027
31735W        W93266  42.017   2.403  12.003
31736W        W93267   1.844  26.540   2.899
31737W        W93268   9.883   4.709   3.250
31738W        W93269  35.051  40.905  14.880
31739W        W93270  40.355   6.690   1.291
31740W        W93271  34.388   6.284   0.750
31741W        W93272  18.636   9.715   0.300
31742W        W93273  44.404  16.786  14.007
31743W        W93274  37.904   9.186   9.940
31744W        W93275  20.084  26.477   4.677
31745W        W93276  40.528  14.292   4.290
31746W        W93277   5.273  26.032  14.387
31747W        W93278  16.800  33.931  14.448
31748W        W93279   4.256  38.851  13.341
31749W        W93280  36.412  43.919  13.966
31750W        W93281  34.017  37.022   1.252
31751W        W93282  18.103  22.529   2.340
31752W        W93283  34.386  22.160   3.782
31753W        W93284  34.536   5.907  12.057
31754W        W93285  44.999  14.164   2.288
31755W        W93286  13.172   0.416   4.278
31756W        W93287  25.474  36.036  12.066
31757W        W93288  13.750  31.430  13.442
31758W        W93289   6.737  37.960   3.179
31759W        W93290  38.419  36.917  11.966
31760W        W93291  22.515  18.737  10.528
31761W        W93292  34.897  25.041  14.018
31762W        W93293  22.020   0.355  11.118
31763W        W93294  25.643  41.868   4.621
31764W        W93295  41.982  33.944  10.984
31765W        W93296  40.327   2.337   4.215
31766W        W93297  37.508  37.474  10.037
31767W        W93298  14.829  10.273   0.349
31768W        W93299   7.741   6.371  14.797
31769W        W93300  39.937  13.170   0.440
31770W        W93301   6.706  41.922   0.276
31771W        W93302   5.266   7.208  14.802
31772W        W93303  12.323  24.702  13.063
31773W        W93304  27.548  20.684  10.539
31774W        W93305  12.806   1.977  11.862
31775W        W93306  42.952  25.535   2.722
31776W        W93307  35.853  32.477  13.348
31777W        W93308  18.607  20.662  14.974
31778W        W93309  12.827   3.448  11.396
31779W        W93310   9.882  27.522   1.441
31780W        W93311   6.301   7.910   4.346
31781W        W93312  34.943   6.192   2.844
31782W        W93313  34.911  44.791  14.970
31783W        W93314  37.366  32.524  11.869
31784W        W93315  42.977  32.561   3.385
31785W        W93316  14.212  26.528  12.497
31786W        W93317  33.022   7.288  12.538
31787W        W93318   3.743  38.507   3.681
31788W        W93319  16.190  20.648   2.332
31789W        W93320  36.098  34.513   4.688
31790W        W93321  36.909  36.466  12.876
31791W        W93322  19.682  17.614  11.012
31792W        W93323  27.517   7.364  10.610
31793W        W93324  44.275  20.603   3.326
31794W        W93325  19.047  18.079   1.810
31795W        W93326  28.004  31.419  14.470
31796W        W93327  40.517  22.578  10.015
31797W        W93328  36.887  31.045   4.123
31798W        W93329  12.146  12.635   4.828
31799W        W93330  27.010  28.571   3.768
31800W        W93331   9.733  17.726   1.362
31801W        W93332  38.829  23.618  11.990
31802W        W93333  27.532  35.536   1.816
31803W        W93334  12.305  42.332  11.925
31804W        W93335  41.795  23.157  13.474
31805W        W93336  14.653  21.648  12.492
31806W        W93337  28.637  11.312  12.509
31807W        W93338   1.375   0.784   1.861
31808W        W93339  15.326  12.717   2.868
31809W        W93340  40.381  25.155  10.482
31810W        W93341  10.207   3.939   3.802
31811W        W93342  24.090  19.766  14.355
31812W        W93343  37.011  29.072  11.868
31813W        W93344  23.704  33.604  11.473
31814W        W93345  39.981   5.286  13.323
31815W        W93346  11.222  19.111  11.525
31816W        W93347  40.809  27.146   3.307
31817W        W93348  25.119  40.840   2.190
31818W        W93349  24.524  33.602   1.342
31819W        W93350   9.649  29.542  13.831
31820W        W93351  12.338  40.933  13.388
31821W        W93352  43.445  15.259   3.715
31822W        W93353  34.097  20.670  13.793
31823W        W93354  21.548  24.042   0.892
31824W        W93355  27.184  25.014  12.869
31825W        W93356  23.529  22.014   1.314
31826W        W93357   5.859  37.577   3.768
31827W        W93358  15.805  31.127  12.408
31828W        W93359  40.879  35.058  11.879
31829W        W93360  34.002  42.847  13.836
31830W        W93361  17.612  19.610   2.211
31831W        W93362   3.792  20.542   1.296
31832W        W93363  16.567   0.298  13.453
31833W        W93364  12.305   6.785   4.312
31834W        W93365  23.158   3.315   1.774
31835W        W93366  42.936  33.960  13.040
31836W        W93367  24.609  13.247  14.384
31837W        W93368  39.865  43.314   1.806
31838W        W93369  15.759  38.455  14.342
31839W        W93370  18.725  37.375   2.313
31840W        W93371  26.617  11.802  12.943
31841W        W93372  10.338  21.203   5.245
31842W        W93373  36.903  27.491  10.420
31843W        W93374  17.675  12.324  12.921
31844W        W93375  32.394  18.235   2.708
31845W        W93376  22.514  23.024  12.899
31846W        W93377  25.135  13.324   0.882
31847W        W93378   5.814  33.539   0.248
31848W        W93379  23.629  29.171  10.088
31849W        W93380   9.298  25.540  11.526
31850W        W93381  34.539  14.151  13.933
31851W        W93382  38.020  27.681  12.847
31852W        W93383  12.182  36.544  12.032
31853W        W93384  16.287  20.657  13.983
31854W        W93385  18.778  37.940   0.944
31855W        W93386  43.400  38.970  13.383
31856W        W93387  23.096  10.312   3.635
31857W        W93388   8.171  38.534  10.644
31858W        W93389   7.887  35.007   5.081
31859W        W93390  20.554  14.765   1.313
31860W        W93391  14.689  39.853   3.246
31861W        W93392  32.604  39.535  11.127
31862W        W93393  12.620  24.579   3.232
31863W        W93394  27.103  18.124  13.920
31864W        W93395  33.038  33.536   3.379
31865W        W93396   4.712  14.289  11.951
31866W        W93397  17.691  27.985   1.784
31867W        W93398  20.532  20.136   1.275
31868W        W93399  26.171  13.749  10.582
31869W        W93400  14.750  34.415  11.996
31870W        W93401   3.850  40.504   4.677
31871W        W93402  28.010  30.633   3.324
31872W        W93403   8.899  16.636  14.024
31873W        W93404  32.892  10.862  14.430
31874W        W93405   1.936   4.923   1.778
31875W        W93406   1.280  41.879   2.179
31876W        W93407  17.668  23.096   3.153
31877W        W93408   7.791  18.577  12.356
31878W        W93409  44.307   3.827  11.020
31879W        W93410  18.178  43.818  14.291
31880W        W93411  16.219  24.606  12.845
31881W        W93412  18.264   9.812  11.000
31882W        W93413  21.647  16.269  11.415
31883W        W93414  38.449  18.114  14.370
31884W        W93415  28.437   1.242  11.547
31885W        W93416  19.270  34.476   0.746
31886W        W93417  40.481  37.062  13.475
31887W        W93418  19.753  10.257  11.592
31888W        W93419  30.538  38.546   4.195
31889W        W93420  16.663   0.366   2.395
31890W        W93421  12.315  28.487  11.521
31891W        W93422   8.195  36.913  14.276
31892W        W93423   6.361  39.065  12.502
31893W        W93424  21.234  35.954  11.491
31894W        W93425  28.154   1.870   3.215
31895W        W93426  34.516  42.351  11.385
31896W        W93427  34.596  16.651   1.777
31897W        W93428  10.248  30.503   4.338
31898W        W93429   6.317  38.032   1.716
31899W        W93430  25.553  30.485  11.893
31900W        W93431  16.681  17.586  12.938
31901W        W93432  31.453  31.004  14.481
31902W        W93433  12.185  21.236  12.934
31903W        W93434  10.354  34.999  13.904
31904W        W93435  37.938  18.287  14.362
31905W        W93436   6.292  10.367  10.509
31906W        W93437   7.281  11.713   4.784
31907W        W93438  14.781  25.487   3.342
31908W        W93439  37.371  33.482  12.475
31909W        W93440  40.949   9.246   3.355
31910W        W93441  27.141  23.589  12.937
31911W        W93442  13.697  26.693   0.892
31912W        W93443  24.175  41.498   3.237
31913W        W93444  15.199   5.810  10.599
31914W        W93445  20.247  43.394   2.254
31915W        W93446  19.081  41.491  10.464
31916W        W93447  38.540  15.604  12.010
31917W        W93448  11.821  16.154   4.701
31918W        W93449  18.698  33.120  13.470
31919W        W93450   6.726  23.714   0.438
31920W        W93451   8.354  24.051  12.889
31921W        W93452  15.753  34.086   0.313
31922W        W93453  28.629  43.449   3.830
31923W        W93454  35.008  11.630  12.389
31924W        W93455  25.021  19.671  11.423
31925W        W93456  15.812  33.031  12.931
31926W        W93457  21.561   3.413   5.190
31927W        W93458  43.480  23.094  11.535
31928W        W93459  32.476  13.235   2.689
31929W        W93460  42.780   9.802   0.810
31930W        W93461  36.455  14.260   5.229
31931W        W93462  15.087  15.276   2.302
31932W        W93463  24.639  24.016   0.842
31933W        W93464  39.559   2.451   3.293
31934W        W93465   1.257  26.474   1.881
31935W        W93466  36.430  36.379  12.077
31936W        W93467  38.013  25.116   5.310
31937W        W93468   2.328  28.490   2.885
31938W        W93469  23.594   1.768   3.846
31939W        W93470  13.637  11.663   4.630
31940W        W93471  27.676  37.413  13.458
31941W        W93472  11.200  19.656   3.193
31942W        W93473  32.920  17.711   4.256
31943W        W93474  16.083   3.849   4.688
31944W        W93475  35.016  33.391   5.105
31945W        W93476  13.638  37.344   3.353
31946W        W93477  37.938  18.593  12.057
31947W        W93478   5.793  44.929  12.905
31948W        W93479  32.573  41.393  13.023
31949W        W93480  16.808   9.830   4.728
31950W        W93481  28.613   0.914  12.907
31951W        W93482  19.233  30.451   0.858
31952W        W93483  21.652  16.159   4.626
31953W        W93484  21.681  31.997  11.464
31954W        W93485  18.054   3.871   0.891
31955W        W93486  15.315  23.602   1.843
31956W        W93487  11.340  34.116   3.727
31957W        W93488  29.605  10.822  14.375
31958W        W93489  25.714  28.580  10.957
31959W        W93490   3.307  40.983  14.802
31960W        W93491  10.171   2.822   5.593
31961W        W93492  31.048   8.679   2.729
31962W        W93493   9.209  26.465   3.285
31963W        W93494  32.908  35.055  10.981
31964W        W93495  16.658  25.133  12.460
31965W        W93496  16.770   2.863  14.382
31966W        W93497  20.233   7.889  11.860
31967W        W93498   0.330  41.397  13.333
31968W        W93499  11.683  31.600  14.398
31969W        W93500  34.390   3.224   5.244
31970W        W93501  16.615  41.453   4.312
31971W        W93502  32.561  32.421   4.200
31972W        W93503  20.637   6.793  11.858
31973W        W93504  37.038  24.529   1.879
31974W        W93505  25.618  28.543   4.209
31975W        W93506  10.155  44.410  10.991
31976W        W93507  44.416  30.072  12.871
31977W        W93508  23.561  26.467   2.398
31978W        W93509   4.707  18.275  14.383
31979W        W93510  13.202  13.676  12.844
31980W        W93511  43.818  21.071  13.981
31981W        W93512  18.289  40.366   1.924
31982W        W93513  36.535  37.897   1.386
31983W        W93514  43.401  44.960   4.603
31984W        W93515  17.255  43.454  11.914
31985W        W93516   2.324  30.629   1.841
31986W        W93517  39.883  39.391  13.037
31987W        W93518  18.755  36.005   1.720
31988W        W93519  29.980  14.305  14.859
31989W        W93520   2.898  13.625   1.319
31990W        W93521  40.396  37.862   3.654
31991W        W93522   5.699  12.798   2.204
31992W        W93523   2.286  21.539   3.644
31993W        W93524   7.724  38.049   3.381
31994W        W93525   9.335  23.630  14.450
31995W        W93526  19.180  12.331  14.988
31996W        W93527   0.450  11.346  13.877
31997W        W93528  41.368  26.489   0.953
31998W        W93529   3.275  27.049  14.461
31999W        W93530  25.596  40.935   2.406
32000W        W93531  42.316  42.940   4.319
32001W        W93532  31.618  17.068  11.062
32002W        W93533  25.617  41.525  13.800
32003W        W93534  33.542  15.729  11.475
32004W        W93535  17.100  26.700  14.907
32005W        W93536  27.987  33.991   4.737
32006W        W93537  12.321   0.356  11.542
32007W        W93538  15.269  10.320   1.935
32008W        W93539  36.432  39.508  11.548
32009W        W93540   4.924  23.710   3.709
32010W        W93541  24.703  22.233   0.855
32011W        W93542  16.726  38.844   0.959
32012W        W93543  14.601   2.380  13.955
32013W        W93544   7.840  31.514   4.669
32014W        W93545  34.440  34.584  13.966
32015W        W93546  25.086   6.877   4.658
32016W        W93547  14.307   7.280   0.940
32017W        W93548   5.313   1.314   4.220
32018W        W93549  44.370  19.689  14.767
32019W        W93550   3.900  11.301  14.341
32020W        W93551  10.174  36.430   4.164
32021W        W93552  39.464   6.783   3.694
32022W        W93553  15.704  39.942  13.995
32023W        W93554  26.611  30.080  13.456
32024W        W93555  13.758  22.616  12.390
32025W        W93556  19.245  19.700  11.127
32026W        W93557  19.694  17.083   0.322
32027W        W93558  13.134  30.425   2.317
32028W        W93559   6.278  31.577   1.446
32029W        W93560  27.616  32.525  10.156
32030W        W93561  40.934   3.230  12.347
32031W        W93562  19.210  29.088  14.011
32032W        W93563  19.146  40.891  12.429
32033W        W93564  35.060  41.356   2.874
32034W        W93565  36.510   0.776   0.763
32035W        W93566  20.637   6.776  14.347
32036W        W93567  31.482  37.565   3.729
32037W        W93568  18.621  26.581  13.474
32038W        W93569  15.157  10.164  10.959
32039W        W93570  21.141  32.422   2.186
32040W        W93571  34.538  13.232  14.015
32041W        W93572  20.581  10.272   2.669
32042W        W93573  32.087  44.886   3.849
32043W        W93574  32.564  14.314   0.878
32044W        W93575  20.139  27.457  11.034
32045W        W93576  16.105  11.821  10.494
32046W        W93577  38.499  26.620  12.983
32047W        W93578  31.544  41.881  11.970
32048W        W93579   6.733  15.202   2.289
32049W        W93580   8.812  22.150  14.850
32050W        W93581  19.206  35.109   1.747
32051W        W93582  25.132  37.003  13.416
32052W        W93583   1.438  24.487   0.318
32053W        W93584   3.372  39.824   2.401
32054W        W93585  10.237   2.960   3.236
32055W        W93586  13.824   2.745  12.889
32056W        W93587  33.901   7.905  11.464
32057W        W93588  39.013   2.334   4.256
32058W        W93589  14.631   9.858   2.408
32059W        W93590  11.275  15.233  10.447
32060W        W93591  10.258  20.736  13.910
32061W        W93592  44.872  44.967   1.695
32062W        W93593   4.940  34.084  10.535
32063W        W93594  35.575  10.649   2.264
32064W        W93595   0.985  33.099  10.479
32065W        W93596   9.322  16.780   1.234
32066W        W93597  42.905   6.827   3.335
32067W        W93598   8.171  30.474  14.913
32068W        W93599  34.390  23.176   3.656
32069W        W93600  27.082  42.327  13.800
32070W        W93601  44.334  44.483   3.338
32071W        W93602  24.520  28.452   2.310
32072W        W93603  28.935  24.572  14.020
32073W        W93604  27.645  11.782   3.755
32074W        W93605  42.856  32.080  10.434
32075W        W93606  27.547  16.731   1.327
32076W        W93607   0.966  10.203  10.970
32077W        W93608  32.562  15.225   2.821
32078W        W93609  20.620  24.706  13.386
32079W        W93610   7.172   3.451  13.960
32080W        W93611  39.351  27.947   4.746
32081W        W93612  16.796   5.200   0.822
32082W        W93613  14.234   3.830   0.907
32083W        W93614  40.483  11.700   3.313
32084W        W93615  44.405  19.048  10.965
32085W        W93616   2.336  38.425   3.776
32086W        W93617  29.163  27.181   4.753
32087W        W93618   0.979  14.810  12.988
32088W        W93619   8.193  38.970   2.863
32089W        W93620   5.809  36.047   1.305
32090W        W93621  16.130  22.055  12.577
32091W        W93622  27.132   1.335  14.781
32092W        W93623   9.203  34.974   4.651
32093W        W93624  34.996   0.833  14.968
32094W        W93625  25.677  17.772   3.746
32095W        W93626  42.028   6.848  11.944
32096W        W93627  37.037  32.637   3.689
32097W        W93628  37.479  19.579   4.825
32098W        W93629   5.401  14.333  14.464
32099W        W93630   3.278   3.375   0.378
32100W        W93631  12.664   0.977   4.828
32101W        W93632  26.075  29.590   0.906
32102W        W93633  42.471  34.407   0.479
32103W        W93634  10.241  25.196  10.901
32104W        W93635  25.553   1.774   3.731
32105W        W93636  31.985  36.972  11.121
32106W        W93637  43.867  35.466   2.210
32107W        W93638  25.022  29.986   1.765
32108W        W93639  37.959   1.812  14.303
32109W        W93640  22.686   2.794  12.985
32110W        W93641  16.580  11.642  14.839
32111W        W93642  41.456  27.563   2.257
32112W        W93643  24.482  30.016   5.224
32113W        W93644   7.820   8.813  10.619
32114W        W93645  14.094  13.698   3.174
32115W        W93646  41.910  44.954  13.429
32116W        W93647  35.958  24.099  11.594
32117W        W93648   8.709  40.897   2.273
32118W        W93649  41.969  12.159   0.279
32119W        W93650  12.135  31.548  14.986
32120W        W93651  23.055   4.419  12.009
32121W        W93652  12.642  10.188  12.993
32122W        W93653  14.620  35.452   1.850
32123W        W93654  44.002  14.110  11.044
32124W        W93655  39.511  32.974  12.521
32125W        W93656  26.975  27.132   4.319
32126W        W93657   4.378  35.451   1.924
32127W        W93658  24.102  24.520   1.400
32128W        W93659  21.157   2.877  14.925
32129W        W93660  24.023   8.826   4.677
32130W        W93661   0.475  39.960  11.393
32131W        W93662  25.210  18.630   3.367
32132W        W93663  30.635   0.307  14.453
32133W        W93664   5.369  22.100  11.490
32134W        W93665  14.274  18.050   2.209
32135W        W93666  14.196   7.313   2.671
32136W        W93667   7.735  17.751   2.719
32137W        W93668   3.860  27.042  10.993
32138W        W93669  28.610   6.757  12.854
32139W        W93670  14.160  33.062   2.712
32140W        W93671  31.969   8.738   0.890
32141W        W93672  22.665   3.873   3.744
32142W        W93673  32.067  30.617  12.509
32143W        W93674  32.962  23.607  11.087
32144W        W93675  41.301  11.180   5.311
32145W        W93676  35.472  22.101  13.314
32146W        W93677  14.780  26.474   4.289
32147W        W93678  43.946  34.923   3.865
32148W        W93679  23.709  21.659   1.717
32149W        W93680  21.074   9.823  11.410
32150W        W93681  39.894   5.798  13.465
32151W        W93682  28.515   7.897  12.996
32152W        W93683  35.860   3.249  13.990
32153W        W93684  11.348  13.791  13.028
32154W        W93685  13.621  43.774   0.786
32155W        W93686   7.320  37.988   3.659
32156W        W93687  23.709  26.176   3.649
32157W        W93688  24.979   5.921   4.777
32158W        W93689   2.457   3.234  10.449
32159W        W93690  40.381  43.290   3.210
32160W        W93691   9.376   8.746   4.608
32161W        W93692  13.842  38.330  11.886
32162W        W93693  18.633  40.917   3.817
32163W        W93694  31.987  40.491   5.287
32164W        W93695   2.410  17.206   4.815
32165W        W93696  44.311   1.785   3.855
32166W        W93697  18.674  44.377   1.865
32167W        W93698   8.203   8.768  14.851
32168W        W93699  36.042  36.475  10.570
32169W        W93700  20.597   0.781   2.782
32170W        W93701  32.418  35.047   2.316
32171W        W93702  35.591   1.465  10.411
32172W        W93703   9.241  14.207   4.287
32173W        W93704  18.141  27.677   0.466
32174W        W93705  38.977  11.262   3.652
32175W        W93706  31.149   0.464  10.915
32176W        W93707   1.852  15.775   0.429
32177W        W93708  31.083   6.393  10.905
32178W        W93709  39.357  26.114   1.276
32179W        W93710  36.880  23.627   0.825
32180W        W93711  31.916   5.330   4.699
32181W        W93712   7.819  25.191   4.220
32182W        W93713   0.364  36.588   1.344
32183W        W93714  37.570  29.097  14.448
32184W        W93715  26.695  13.220  13.016
32185W        W93716  18.551   7.346   9.953
32186W        W93717  44.999  38.857   4.329
32187W        W93718  10.790  39.368   1.270
32188W        W93719  25.972   5.772   0.842
32189W        W93720  31.456  27.490   2.757
32190W        W93721  41.982  37.460  14.906
32191W        W93722  40.410  30.016  13.414
32192W        W93723  20.160  31.434   2.237
32193W        W93724  18.609  44.943  14.978
32194W        W93725  30.579  17.589  11.481
32195W        W93726  25.059  40.412   3.751
32196W        W93727  15.731  43.004   4.763
32197W        W93728  29.100   3.873   1.935
32198W        W93729  35.422  36.037   1.315
32199W        W93730   6.780   6.184  10.528
32200W        W93731  27.032  11.848   5.227
32201W        W93732  32.602   0.844  11.018
32202W        W93733  25.063   2.919  10.893
32203W        W93734  36.564  12.692   3.724
32204W        W93735   3.387  30.436   1.772
32205W        W93736  15.102   0.931  13.533
32206W        W93737   3.906  12.813   1.846
32207W        W93738   1.893   8.253   4.697
32208W        W93739  31.981  39.828   9.952
32209W        W93740   5.776  34.375   4.276
32210W        W93741  23.037   9.746  13.025
32211W        W93742  20.686   0.912  11.376
32212W        W93743   7.254   5.354   0.271
32213W        W93744   2.233  35.926  11.956
32214W        W93745  40.816  34.911  14.903
32215W        W93746  22.502   8.233  10.944
32216W        W93747  20.093  25.541   2.860
32217W        W93748  44.824  36.348  11.476
32218W        W93749   2.820  27.091   0.955
32219W        W93750   5.743  38.967  10.411
32220W        W93751  18.087  30.539  13.903
32221W        W93752  41.898  24.717  12.884
32222W        W93753  33.539  11.858   3.156
32223W        W93754   9.210   3.878  11.111
32224W        W93755  35.016  24.083   9.938
32225W        W93756  26.623  37.935  11.932
32226W        W93757  39.876  25.676   4.275
32227W        W93758  34.991  37.532  14.759
32228W        W93759   6.756  31.992   4.641
32229W        W93760  21.237  31.115  12.509
32230W        W93761  37.897  39.008   2.748
32231W        W93762  38.510  31.445   4.353
32232W        W93763  19.578   5.762  14.388
32233W        W93764   5.804  42.775  14.475
32234W        W93765  12.782  38.076  14.889
32235W        W93766  27.004  13.813   1.717
32236W        W93767   5.769  39.866   2.390
32237W        W93768  26.558  11.333   3.265
32238W        W93769  39.824  13.689   3.343
32239W        W93770  12.770  24.033  13.910
32240W        W93771  22.064  23.115   4.732
32241W        W93772  41.040   1.841   1.726
32242W        W93773   7.731   7.800  13.916
32243W        W93774  20.173  35.886   3.719
32244W        W93775  35.107  20.714   0.342
32245W        W93776   9.372  28.974  13.396
32246W        W93777  11.206  22.242  10.925
32247W        W93778   6.800  25.668   2.324
32248W        W93779  15.316  33.398  13.853
32249W        W93780  39.453   1.767   3.322
32250W        W93781  10.267  33.003  12.059
32251W        W93782  13.299  34.004   3.845
32252W        W93783   7.222  23.997  14.982
32253W        W93784  37.838  26.159   1.764
32254W        W93785  14.185  13.164   3.259
32255W        W93786  20.109   1.352   1.409
32256W        W93787  11.689  42.955  14.292
32257W        W93788  31.923   9.657   9.594
32258W        W93789  15.793  22.114   0.246
32259W        W93790  19.618   2.392  14.482
32260W        W93791   3.405  34.411   4.620
32261W        W93792  33.937  39.332  12.048
32262W        W93793  36.884   5.383   1.322
32263W        W93794   5.805  21.091  11.533
32264W        W93795  21.096  25.596   4.797
32265W        W93796  11.292  24.497   4.653
32266W        W93797  23.512  10.879   4.626
32267W        W93798  13.810   6.694   2.771
32268W        W93799  41.495   1.890   2.185
32269W        W93800  40.879  11.310  11.408
32270W        W93801  10.694   3.759   2.769
32271W        W93802  18.692  31.523  13.497
32272W        W93803  17.587  15.725   2.706
32273W        W93804  42.010  17.749  12.956
32274W        W93805   3.928   8.272  14.424
32275W        W93806   1.864  10.285  12.882
32276W        W93807  36.931  33.597  11.465
32277W        W93808  36.999  28.949  14.421
32278W        W93809  40.865  22.691  13.846
32279W        W93810  36.931  20.218   2.886
32280W        W93811   5.256  22.691  14.449
32281W        W93812   8.237  41.345   2.776
32282W        W93813   4.845   2.284   3.311
32283W        W93814  33.913  32.415   4.609
32284W        W93815   4.805  36.919   9.936
32285W        W93816  33.010  42.479   1.819
32286W        W93817  25.042  23.648  11.500
32287W        W93818  44.300  19.559   4.339
32288W        W93819  12.631  25.684   4.776
32289W        W93820  16.078  43.922   3.295
32290W        W93821  11.247  43.000   2.198
32291W        W93822  21.093  10.326  10.952
32292W        W93823  12.837  15.120   0.936
32293W        W93824  10.284  24.514   0.777
32294W        W93825  25.665   0.347   0.965
32295W        W93826  30.600  19.636   0.248
32296W        W93827   2.390  10.174  12.026
32297W        W93828  37.058   2.270  13.416
32298W        W93829  16.198  30.982   3.352
32299W        W93830  21.551   1.464   2.748
32300W        W93831  26.199  19.147   0.375
32301W        W93832  39.995  10.151  11.491
32302W        W93833  11.820   9.788  13.048
32303W        W93834  23.499  16.137  11.482
32304W        W93835  34.996  14.677  13.317
32305W        W93836  16.609  17.225  11.066
32306W        W93837  24.676  15.158   2.306
32307W        W93838   5.873  31.480   1.908
32308W        W93839  12.284   3.898  10.477
32309W        W93840  39.415  30.591  10.524
32310W        W93841  20.126  19.077  10.960
32311W        W93842   0.365  40.863   0.907
32312W        W93843  35.876   1.959   0.280
32313W        W93844  37.892   6.244   2.876
32314W        W93845  44.955  29.669  11.856
32315W        W93846  37.077   9.778   1.729
32316W        W93847  34.932  40.039  14.935
32317W        W93848   3.902  24.982   1.719
32318W        W93849   7.800  14.684  13.959
32319W        W93850  18.203  15.655   4.637
32320W        W93851  21.681  35.531   2.355
32321W        W93852  23.659  41.863   5.221
32322W        W93853  38.417  25.099   2.201
32323W        W93854  18.726  39.918   9.586
32324W        W93855   8.854  36.496  11.390
32325W        W93856  39.878  35.942  11.474
32326W        W93857  31.996   4.413   2.413
32327W        W93858  35.464  34.874   3.634
32328W        W93859  17.571  24.505  11.124
32329W        W93860   1.892   8.280  14.860
32330W        W93861  24.520   8.233  12.435
32331W        W93862  19.775  29.983  12.495
32332W        W93863  41.949  40.405  14.378
32333W        W93864  16.714  35.443   3.288
32334W        W93865  15.764  13.652   1.798
32335W        W93866  40.961  41.989  14.815
32336W        W93867   4.929  28.978  14.346
32337W        W93868  11.666   8.341   1.792
32338W        W93869   8.829  19.576  11.592
32339W        W93870  36.983  24.567   1.378
32340W        W93871  24.637   5.345   2.705
32341W        W93872  42.016   2.817  14.810
32342W        W93873  34.567  23.069   4.795
32343W        W93874  38.408  28.551   0.411
32344W        W93875  42.909  19.538   1.390
32345W        W93876  18.133  29.593  13.393
32346W        W93877  41.355  17.129   3.836
32347W        W93878  21.252  34.428   1.418
32348W        W93879   1.950  15.104  13.876
32349W        W93880  11.132  40.470   1.244
32350W        W93881  36.073   9.807  11.939
32351W        W93882  20.133  24.690  12.067
32352W        W93883  44.972  21.668   0.309
32353W        W93884  41.872  41.413   2.365
32354W        W93885  41.487   8.160   4.739
32355W        W93886  31.089  38.955  10.427
32356W        W93887  28.475  10.729   2.416
32357W        W93888  44.781  36.029  14.782
32358W        W93889   2.446  14.722   2.752
32359W        W93890  21.704  11.337   0.942
32360W        W93891   8.665  13.747   4.269
32361W        W93892   6.327  18.686   3.725
32362W        W93893  14.221   9.301   1.316
32363W        W93894  26.472   0.343   2.884
32364W        W93895  27.646  19.120   4.234
32365W        W93896   7.174  16.109   3.652
32366W        W93897  14.664  13.164   2.866
32367W        W93898   2.448  34.530   3.744
32368W        W93899   5.904  14.761  14.420
32369W        W93900  18.623  18.233  11.414
32370W        W93901  17.666  33.117  11.580
32371W        W93902   0.793  29.597  14.486
32372W        W93903   3.400  10.204   4.771
32373W        W93904  14.610  32.143  12.882
32374W        W93905   1.942  32.138   1.835
32375W        W93906  21.018  25.637  14.836
32376W        W93907  15.820  19.264   0.337
32377W        W93908  34.970   1.426   4.131
32378W        W93909  20.581  31.932   3.775
32379W        W93910  28.442  36.892  13.345
32380W        W93911   0.410  27.101  11.865
32381W        W93912   3.812  17.248   0.461
32382W        W93913  28.436  28.639   0.355
32383W        W93914  33.013  27.032  13.362
32384W        W93915   2.319  18.679   4.722
32385W        W93916   9.730  33.048  14.419
32386W        W93917  24.696  29.027  14.379
32387W        W93918  12.694  34.908   4.652
32388W        W93919  13.788   7.858  11.987
32389W        W93920  25.115  20.199  13.024
32390W        W93921  43.486  20.703  14.415
32391W        W93922  30.593  11.685  11.912
32392W        W93923  41.882  20.237   3.356
32393W        W93924  39.905  30.558  14.329
32394W        W93925  30.158   1.349  12.386
32395W        W93926   7.828  31.146   3.829
32396W        W93927   3.723  36.578   4.121
32397W        W93928  34.995  12.700  13.335
32398W        W93929  41.524  41.995   1.727
32399W        W93930  36.852  22.997   4.704
32400W        W93931   0.277  35.471  13.427
32401W        W93932  34.877   7.766  12.452
32402W        W93933   1.440  37.046  12.062
32403W        W93934   8.699  26.681  14.783
32404W        W93935  39.979  41.390  14.289
32405W        W93936   0.280  23.098   4.330
32406W        W93937  13.831  41.292   1.888
32407W        W93938  16.801  42.423  14.951
32408W        W93939   2.439  44.981   1.800
32409W        W93940   6.777   0.278  10.597
32410W        W93941  18.058  39.340  12.559
32411W        W93942  11.673  16.637  10.590
32412W        W93943  35.453  14.631  14.480
32413W        W93944  20.587  19.249  11.106
32414W        W93945  20.091   5.341  14.953
32415W        W93946  32.519   0.457   3.186
32416W        W93947  22.623  38.871   3.770
32417W        W93948  24.050  35.426   3.292
32418W        W93949  29.043  43.387  10.532
32419W        W93950   3.738  35.980  12.352
32420W        W93951  25.494  33.398   9.674
32421W        W93952  24.582  34.577   4.712
32422W        W93953   4.379  26.008  11.458
32423W        W93954  16.219  40.811  14.351
32424W        W93955   1.483   9.292  12.413
32425W        W93956  28.137  17.300   3.273
32426W        W93957  12.326   4.830   2.781
32427W        W93958  22.531  35.361   3.842
32428W        W93959  20.712  36.985  14.016
32429W        W93960   7.307  18.593  14.502
32430W        W93961  13.337  11.834  13.014
32431W        W93962  12.236  19.232   0.962
32432W        W93963   0.797  44.963  13.492
32433W        W93964  43.928   3.840   0.775
32434W        W93965  32.635  41.367   5.109
32435W        W93966  43.492  25.703   3.165
32436W        W93967   8.201   0.913  14.973
32437W        W93968  15.210  29.964   1.403
32438W        W93969  32.538   4.943   0.821
32439W        W93970  41.455  27.617   0.282
32440W        W93971  13.646  20.758  13.903
32441W        W93972  18.653  21.534   5.189
32442W        W93973  11.684  17.705   0.897
32443W        W93974  41.519  23.173   2.687
32444W        W93975   2.924  15.584   0.452
32445W        W93976   1.962  41.017   3.710
32446W        W93977  10.186  29.131  12.395
32447W        W93978  21.202   8.836   2.709
32448W        W93979  19.615   5.714   2.323
32449W        W93980  35.603  12.676   2.846
32450W        W93981  28.537  30.450  14.820
32451W        W93982  14.762   6.364  11.930
32452W        W93983   0.275  44.823   4.134
32453W        W93984  12.671  29.946   1.824
32454W        W93985  10.303  20.601  11.073
32455W        W93986  29.984  13.182   2.300
32456W        W93987   1.410  40.914   0.376
32457W        W93988  35.451  34.473   5.730
32458W        W93989   9.199   6.833   1.428
32459W        W93990  20.753  42.897   0.770
32460W        W93991   0.296   8.810  11.875
32461W        W93992  20.220  41.855  12.969
32462W        W93993   7.693   2.404   9.467
32463W        W93994   6.775  16.156  10.536
32464W        W93995   4.403  12.615  13.503
32465W        W93996  37.897   8.808  12.027
32466W        W93997  15.309  44.423   0.910
32467W        W93998  37.884  14.809   0.353
32468W        W93999  14.620  12.717   1.798
32469W        W94000  34.369   5.826   3.780
32470W        W94001  22.543  32.459  11.977
32471W        W94002  13.652  20.691  10.468
32472W        W94003  20.636  15.101   1.277
32473W        W94004   0.940   1.779  14.983
32474W        W94005  29.023  19.254   0.912
32475W        W94006  26.998   3.948  10.596
32476W        W94007  27.162   0.340   1.723
32477W        W94008  42.017  34.583   0.289
32478W        W94009   8.187  33.010   0.866
32479W        W94010  36.850  24.013  13.485
32480W        W94011  36.923   7.866   0.853
32481W        W94012  25.018  17.109  13.506
32482W        W94013  40.511  24.644   4.713
32483W        W94014  14.207  40.475   0.871
32484W        W94015  42.298  26.594  10.912
32485W        W94016   8.765   6.340  11.582
32486W        W94017  12.797  36.471   2.210
32487W        W94018   2.874  32.137  14.475
32488W        W94019  40.500  27.035  10.423
32489W        W94020  41.319  28.983  13.906
32490W        W94021  10.326  32.586  13.038
32491W        W94022  19.558  34.054  13.424
32492W        W94023  27.028  38.435  12.402
32493W        W94024   5.808  34.546  12.877
32494W        W94025  33.995   9.289  10.586
32495W        W94026  39.880   7.409   2.333
32496W        W94027   3.229  39.852   3.194
32497W        W94028  37.078   6.808  11.573
32498W        W94029   3.821  36.487   1.406
32499W        W94030  27.136   4.831   2.768
32500W        W94031  34.021  44.980  11.399
32501W        W94032  17.077  38.019  14.932
32502W        W94033   1.794  12.220   1.375
32503W        W94034  42.806  40.015   1.251
32504W        W94035  15.305  27.547   0.923
32505W        W94036  29.918  29.606   0.250
32506W        W94037   5.431  40.316  13.433
32507W        W94038  10.848   9.385  14.859
32508W        W94039  33.540  33.938   3.380
32509W        W94040  15.098  32.992  12.498
32510W        W94041  10.716  32.895  10.952
32511W        W94042   8.658  24.225  10.609
32512W        W94043  41.016  28.019  14.934
32513W        W94044  23.198  30.134   2.303
32514W        W94045  37.919  43.456   1.362
32515W        W94046  19.119  25.078   1.749
32516W        W94047  20.259   2.327   1.341
32517W        W94048  37.869  10.287   0.249
32518W        W94049  41.830  23.140   4.597
32519W        W94050  23.736   6.385   4.131
32520W        W94051  13.743  33.100  14.837
32521W        W94052  37.014  18.696  12.427
32522W        W94053  12.720  14.100   5.241
32523W        W94054   3.773   5.375   3.719
32524W        W94055   8.894  22.538  11.592
32525W        W94056   2.409  28.439   1.772
32526W        W94057   2.248  22.691  12.909
32527W        W94058  42.462   5.341   1.853
32528W        W94059  38.374  37.055  14.852
32529W        W94060  35.396  21.592  14.969
32530W        W94061  25.088  41.495  12.374
32531W        W94062   7.804  22.548  14.371
32532W        W94063   8.871  22.683   2.852
32533W        W94064  44.932   9.835   3.317
32534W        W94065   4.337  11.804  14.784
32535W        W94066  11.303  36.590  14.970
32536W        W94067  23.141  24.638  11.382
32537W        W94068  21.537  11.292   2.849
32538W        W94069  43.292  12.669  11.864
32539W        W94070  17.186  22.215  12.078
32540W        W94071  21.650  29.541   0.452
32541W        W94072   1.874  43.381  11.572
32542W        W94073  39.472  28.942   5.117
32543W        W94074  33.959  34.600   1.728
32544W        W94075  21.240  19.641   0.798
32545W        W94076   4.911   6.334  11.085
32546W        W94077  25.155  31.641   5.654
32547W        W94078  19.661   9.661  12.579
32548W        W94079  32.897  38.405   1.909
32549W        W94080  24.542  10.151  10.528
32550W        W94081  39.519   3.313   0.269
32551W        W94082   6.736   2.315  14.880
32552W        W94083  27.468  31.117  14.299
32553W        W94084  38.838  27.107   4.689
32554W        W94085  44.754   8.201   2.713
32555W        W94086  40.521  26.141  11.549
32556W        W94087  39.372  11.818   3.708
32557W        W94088   7.752  34.991   2.761
32558W        W94089  33.571   1.390  10.964
32559W        W94090  26.184  17.747  11.486
32560W        W94091   1.375  29.612   2.671
32561W        W94092   2.891  40.826   0.732
32562W        W94093  14.635   7.851   3.770
32563W        W94094   3.886  38.039   1.711
32564W        W94095  39.453  22.593  12.867
32565W        W94096  24.672  32.488  11.539
32566W        W94097  43.994  14.828   2.205
32567W        W94098  41.939   2.264   3.850
32568W        W94099  35.412  14.276  10.032
32569W        W94100  43.317  42.009  12.513
32570W        W94101   9.835  11.630   4.145
32571W        W94102  20.743  24.015   2.880
32572W        W94103  37.971  28.676  12.966
32573W        W94104   7.775  41.905  12.560
32574W        W94105  26.209  39.919  13.490
32575W        W94106  22.649  22.241  11.453
32576W        W94107  23.664  11.224   4.672
32577W        W94108  19.215  28.572   1.824
32578W        W94109  30.120  13.268  11.376
32579W        W94110  28.057  28.455   3.237
32580W        W94111  44.982  11.701   4.156
32581W        W94112  27.146   6.893   3.822
32582W        W94113  11.159  33.435   2.351
32583W        W94114  30.926  27.596  11.919
32584W        W94115  23.026  32.963   4.205
32585W        W94116  21.046  41.368   0.291
32586W        W94117  37.370  23.215   0.956
32587W        W94118  43.003   0.376   1.853
32588W        W94119  14.301  43.473   4.713
32589W        W94120  14.783   5.782  10.116
32590W        W94121   3.814  34.385  10.638
32591W        W94122   8.671   5.435  11.436
32592W        W94123   1.936  25.473   5.181
32593W        W94124  22.996   5.846  12.548
32594W        W94125  43.409  38.413  11.511
32595W        W94126  39.523  15.201   4.672
32596W        W94127  24.130  42.974  12.923
32597W        W94128  20.674  36.004  12.927
32598W        W94129  17.768  23.052  13.409
32599W        W94130  30.914   5.820  13.485
32600W        W94131   6.766   0.896  14.381
32601W        W94132  37.018  16.705   2.901
32602W        W94133  14.652   1.478   2.897
32603W        W94134   2.771  28.992  13.859
32604W        W94135  32.027  28.638  11.126
32605W        W94136  24.487  26.681   0.820
32606W        W94137  15.809  37.468  12.478
32607W        W94138   9.275  25.988   4.286
32608W        W94139  11.311   0.977  14.914
32609W        W94140  10.647  42.526  14.438
32610W        W94141   8.200  16.671   3.843
32611W        W94142  43.842   8.333   2.861
32612W        W94143   7.776  33.116  10.990
32613W        W94144  37.401  19.772  12.340
32614W        W94145   0.796  11.819   4.744
32615W        W94146  14.617  20.660   3.199
32616W        W94147  32.416  38.474   4.764
32617W        W94148  29.962  40.358   4.238
32618W        W94149  30.503   0.880  13.974
32619W        W94150   8.893  31.906  10.437
32620W        W94151  41.908  26.009  11.389
32621W        W94152  35.461   4.389   2.789
32622W        W94153  32.927  37.359   5.567
32623W        W94154  30.603  16.081  14.835
32624W        W94155  30.091   0.353   2.717
32625W        W94156   4.442  30.569  14.996
32626W        W94157  30.074  37.925  12.989
32627W        W94158  42.335   9.176   3.178
32628W        W94159  12.793   0.396   1.232
32629W        W94160  32.617   8.256  12.511
32630W        W94161  44.792  30.567   4.701
32631W        W94162  41.306  11.811   4.720
32632W        W94163  29.926  35.085   1.422
32633W        W94164  30.111  31.079   1.428
32634W        W94165  21.131  42.484  12.877
32635W        W94166  22.192  14.813   2.252
32636W        W94167  18.616  23.185  10.438
32637W        W94168   4.385  36.358  12.367
32638W        W94169   4.851  22.597  10.892
32639W        W94170   6.304   0.834   0.318
32640W        W94171  39.018  18.291   1.748
32641W        W94172  17.117  27.591   4.152
32642W        W94173  10.341   4.736   2.231
32643W        W94174  40.992  19.564   3.705
32644W        W94175  29.626   9.879  11.381
32645W        W94176  29.102   4.917  14.919
32646W        W94177  23.045   0.837  12.367
32647W        W94178  25.673  38.568   3.715
32648W        W94179   8.712  43.465   0.820
32649W        W94180  26.118  14.167  13.434
32650W        W94181  18.055  29.533  12.881
32651W        W94182  28.560  19.237   0.731
32652W        W94183   9.686  15.090  12.846
32653W        W94184  37.969   4.937  11.931
32654W        W94185  10.749  37.353  13.471
32655W        W94186  37.040   0.936  13.971
32656W        W94187   9.748   0.388  12.393
32657W        W94188  40.873  25.690  14.765
32658W        W94189   4.841  43.389   4.744
32659W        W94190  29.483   5.753  12.412
32660W        W94191  11.277   2.363   1.291
32661W        W94192  17.793  36.569  13.535
32662W        W94193  34.026  19.073  12.080
32663W        W94194  44.005   3.445   2.366
32664W        W94195  33.404  18.260   0.404
32665W        W94196   8.725  42.964  13.540
32666W        W94197  36.549  24.033   0.914
32667W        W94198  10.217  16.288   0.815
32668W        W94199  23.225  11.155  12.970
32669W        W94200   5.433   6.880   4.217
32670W        W94201  29.075  36.590  11.546
32671W        W94202  13.193  26.129   1.796
32672W        W94203  17.673  20.610   2.271
32673W        W94204  23.076  11.847   3.735
32674W        W94205  20.204  26.684  13.978
32675W        W94206  42.901   9.822  13.520
32676W        W94207  25.995   8.817   1.722
32677W        W94208  12.293  30.076   4.232
32678W        W94209  42.505  36.901   4.128
32679W        W94210  17.270  30.607   4.742
32680W        W94211   3.821  20.681   4.241
32681W        W94212   8.338   9.287  12.554
32682W        W94213  21.644   4.375   3.708
32683W        W94214  31.147  21.175   0.913
32684W        W94215  34.398  43.967   1.726
32685W        W94216  42.504  26.518   4.749
32686W        W94217  11.670  41.858   0.246
32687W        W94218   5.245  18.143   2.772
32688W        W94219  16.766  38.913  13.016
32689W        W94220  15.161   5.847  12.374
32690W        W94221   8.897  15.098  11.866
32691W        W94222  11.811  22.232   3.839
32692W        W94223  42.020   2.424  13.449
32693W        W94224  44.862   4.813  12.853
32694W        W94225  16.300  13.666  11.037
32695W        W94226  15.798  43.435   3.294
32696W        W94227  27.592  13.761  11.502
32697W        W94228  35.943  40.814   0.870
32698W        W94229  36.384  19.751   2.902
32699W        W94230  16.596   1.960   3.862
32700W        W94231  37.983  32.550   3.346
32701W        W94232   7.281  26.982   4.619
32702W        W94233  22.211  41.478  10.072
32703W        W94234   3.294  36.537  13.945
32704W        W94235   2.962   7.173   2.248
32705W        W94236  28.651  38.879   0.876
32706W        W94237  23.556  22.564  13.526
32707W        W94238  36.887  21.163  12.974
32708W        W94239   4.330   5.374  14.515
32709W        W94240   6.809  13.121  11.860
32710W        W94241  38.896  15.809   0.900
32711W        W94242  32.920  31.919  10.968
32712W        W94243  31.640  20.596   3.224
32713W        W94244  27.473  20.100  13.963
32714W        W94245  24.598  23.082  10.621
32715W        W94246  28.500  10.210   2.857
32716W        W94247  29.056   1.858   3.779
32717W        W94248  31.455  19.273   4.795
32718W        W94249  42.310  13.210   0.849
32719W        W94250  22.219  40.957  13.326
32720W        W94251   3.287  12.674  11.499
32721W        W94252  26.203  28.501   2.663
32722W        W94253  23.722   3.795   4.756
32723W        W94254  21.052   5.308   4.823
32724W        W94255  23.219   8.276  14.473
32725W        W94256  18.790  14.821  14.916
32726W        W94257   5.397  21.583   1.271
32727W        W94258   9.233  26.614  14.406
32728W        W94259  29.617  36.567   2.203
32729W        W94260   7.751  21.718  11.986
32730W        W94261   9.744  39.019  11.088
32731W        W94262  32.520  10.741   1.223
32732W        W94263  23.005  14.219   4.837
32733W        W94264  24.716  43.351   2.341
32734W        W94265  41.878  44.011  14.001
32735W        W94266  37.400  15.621  11.540
32736W        W94267  16.288  37.356   1.729
32737W        W94268  11.754  41.894  14.786
32738W        W94269  20.720  30.060  11.416
32739W        W94270  27.454   7.308  13.326
32740W        W94271  11.301   3.906  11.491
32741W        W94272  10.635  36.391   2.733
32742W        W94273  23.571  15.278   1.336
32743W        W94274   4.877  38.969  12.549
32744W        W94275   5.776  43.466  11.970
32745W        W94276  28.617   5.370   0.477
32746W        W94277  35.924  19.543   1.798
32747W        W94278  19.642   2.446  10.586
32748W        W94279  14.334   2.796  11.594
32749W        W94280  43.844  36.362  10.584
32750W        W94281  14.727  16.792  12.862
32751W        W94282  27.133   7.816  10.439
32752W        W94283  26.037  18.563  12.442
32753W        W94284   8.327   9.838  11.033
32754W        W94285   5.251  23.619  10.944
32755W        W94286   8.187  22.685   4.650
32756W        W94287  15.300  12.698   0.285
32757W        W94288  20.178   1.367   4.261
32758W        W94289  24.036  14.103   0.453
32759W        W94290  24.103  27.683   4.828
32760W        W94291  43.913  32.075  12.867
32761W        W94292  21.757  39.527   0.853
32762W        W94293  32.538  30.155   0.393
32763W        W94294   5.763   0.814   0.798
32764W        W94295  31.114   1.842   2.734
32765W        W94296  39.318  29.456  10.070
32766W        W94297   8.880  20.629   0.422
32767W        W94298  31.926  12.275  13.926
32768W        W94299  21.084  18.551  12.375
32769W        W94300  11.269   4.817   0.352
32770W        W94301   7.338  42.475   3.866
32771W        W94302  11.850  12.808  12.430
32772W        W94303  30.072  12.742  12.364
32773W        W94304  24.975  37.533  12.358
32774W        W94305  35.103  42.428   2.188
32775W        W94306  43.828  40.825   2.199
32776W        W94307   9.679  11.759   1.849
32777W        W94308  37.576  41.405   2.181
32778W        W94309  23.599  25.506  13.528
32779W        W94310   3.913  44.939  14.856
32780W        W94311  29.957  25.627   1.930
32781W        W94312  34.408   7.871  13.434
32782W        W94313  12.334  24.691   1.902
32783W        W94314   0.378  36.936  11.408
32784W        W94315  43.892   9.299   0.448
32785W        W94316  15.214  20.662   1.409
32786W        W94317  30.433  16.126   3.712
32787W        W94318  21.029  12.825   0.456
32788W        W94319  29.553  20.749  14.482
32789W        W94320  39.888  39.486  11.983
32790W        W94321  30.530  19.285   1.890
32791W        W94322  30.084  18.576  11.024
32792W        W94323   2.871  21.092  10.977
32793W        W94324  40.481  21.675  11.393
32794W        W94325  30.490  15.670  11.858
32795W        W94326   4.820   5.243   3.352
32796W        W94327  31.046  31.029  13.949
32797W        W94328  22.658  39.359   2.245
32798W        W94329  38.542   0.488  11.063
32799W        W94330  18.207  35.489   0.345
32800W        W94331   0.803  32.404  13.942
32801W        W94332   0.278  25.513   4.309
32802W        W94333  17.572  16.199   1.221
32803W        W94334  18.628  29.555   1.281
32804W        W94335  21.645   2.836   2.718
32805W        W94336  21.187  19.055   2.298
32806W        W94337   2.392  27.490   2.244
32807W        W94338  34.515   3.459   3.343
32808W        W94339  28.101  18.246  14.872
32809W        W94340   7.676  13.310  12.095
32810W        W94341  29.026   2.837   0.482
32811W        W94342  12.688   8.254  13.984
32812W        W94343  34.965  24.716  11.500
32813W        W94344   3.895  17.251   3.745
32814W        W94345   0.448   1.935   2.354
32815W        W94346  22.714   5.239   4.319
32816W        W94347  18.713  41.457   4.323
32817W        W94348   6.416  30.535   0.260
32818W        W94349  34.936   6.393  12.345
32819W        W94350  24.690  44.334  14.828
32820W        W94351  39.899  10.769   5.207
32821W        W94352  24.513  42.521  10.490
32822W        W94353   9.748  14.167  13.382
32823W        W94354  34.086  30.051  12.369
32824W        W94355  39.490  16.586   3.752
32825W        W94356  22.069  13.320  14.473
32826W        W94357  27.565  39.895   1.892
32827W        W94358  30.934   2.932  14.959
32828W        W94359  13.110  23.193   0.868
32829W        W94360  18.591  30.923   2.202
32830W        W94361  39.393   3.922  11.029
32831W        W94362  20.090  26.057   1.335
32832W        W94363  44.935  27.687   3.738
32833W        W94364  23.171  38.012  11.029
32834W        W94365  10.270   1.481  11.070
32835W        W94366  16.619  11.178  11.918
32836W        W94367  15.271  42.307  11.910
32837W        W94368   5.228  42.501  12.396
32838W        W94369  37.847  34.002  10.937
32839W        W94370  12.204   3.250   0.303
32840W        W94371  31.420  19.676  13.350
32841W        W94372  29.164   7.808   0.928
32842W        W94373  27.172  24.697  12.560
32843W        W94374  22.669  25.493   3.362
32844W        W94375  43.988  15.149   2.345
32845W        W94376  25.614  14.602   1.366
32846W        W94377  37.902   2.304   3.363
32847W        W94378  40.890  21.726  14.838
32848W        W94379  12.204   1.800  13.985
32849W        W94380  34.983  19.566  13.446
32850W        W94381  17.579  27.537   2.836
32851W        W94382  19.731  30.984   4.734
32852W        W94383  24.103  11.232  10.403
32853W        W94384  18.122  11.828  13.421
32854W        W94385  26.540   2.257   2.889
32855W        W94386  34.486   7.304   0.463
32856W        W94387  29.043   9.884   0.902
32857W        W94388   0.327  27.532  10.486
32858W        W94389  39.553  20.033   3.858
32859W        W94390  28.011  22.660  12.919
32860W        W94391  19.209  28.449   0.260
32861W        W94392   5.389  42.517   1.924
32862W        W94393  12.665  41.931  14.370
32863W        W94394   4.789  27.476   2.297
32864W        W94395  11.679  21.243  14.907
32865W        W94396  43.433  21.567  12.551
32866W        W94397   4.924  24.114   4.319
32867W        W94398  18.575  30.028  12.993
32868W        W94399  32.516  17.265   3.160
32869W        W94400   8.721   2.421   1.794
32870W        W94401  26.135  26.144   0.874
32871W        W94402  41.432  14.267  13.808
32872W        W94403  29.505  25.527   4.694
32873W        W94404  24.988  23.128   3.235
32874W        W94405  44.916  42.842   1.770
32875W        W94406  12.242  17.557  11.494
32876W        W94407  28.122  38.424   1.395
32877W        W94408   5.863  19.678  10.516
32878W        W94409  44.416  18.769   3.299
32879W        W94410  16.716  21.247   1.715
32880W        W94411  42.977  17.231   2.201
32881W        W94412   7.798  22.181   1.798
32882W        W94413  10.277  29.978   0.251
32883W        W94414   2.382  16.766  14.949
32884W        W94415  38.956   2.728   0.342
32885W        W94416  36.001   5.695  12.435
32886W        W94417  28.933  25.048  12.984
32887W        W94418  27.680  44.968  14.843
32888W        W94419   1.852  43.459   3.842
32889W        W94420  15.623  40.039   0.777
32890W        W94421   2.350  22.532   5.281
32891W        W94422  38.854  21.259  10.450
32892W        W94423   9.247  32.102  13.510
32893W        W94424  24.027   7.909  11.489
32894W        W94425  42.410  36.865   2.214
32895W        W94426   4.880   4.941   3.337
32896W        W94427  31.897   1.931   3.225
32897W        W94428  17.141  11.141   2.213
32898W        W94429  10.692  16.774  14.276
32899W        W94430  16.719  25.666  12.019
32900W        W94431  41.886  41.319  10.579
32901W        W94432  29.441  44.822  13.910
32902W        W94433  38.068  41.867   3.847
32903W        W94434   4.287  24.169   3.633
32904W        W94435   0.976  33.602  11.951
32905W        W94436  35.549  18.564  12.359
32906W        W94437  35.492   2.420  12.074
32907W        W94438   1.379   5.342   3.782
32908W        W94439  41.525  34.002  11.558
32909W        W94440  23.998  42.378  11.877
32910W        W94441  35.404  34.567   2.880
32911W        W94442  27.588  13.132   0.774
32912W        W94443  32.464  32.615  14.031
32913W        W94444   2.380  32.117   1.294
32914W        W94445  33.909  41.517  14.337
32915W        W94446   4.304  13.321   4.260
32916W        W94447  37.071  30.148   4.825
32917W        W94448   6.883  19.274  10.638
32918W        W94449   9.215  26.457  10.472
32919W        W94450  39.993  28.158  14.454
32920W        W94451  12.266  36.885  13.321
32921W        W94452  28.051  25.008   2.861
32922W        W94453  18.717  32.103  10.416
32923W        W94454  19.756  28.153   1.395
32924W        W94455  16.758  29.481   4.315
32925W        W94456  16.297  39.977   2.292
32926W        W94457   7.180  37.050   2.672
32927W        W94458  23.182  11.663  12.533
32928W        W94459  31.119  21.676   2.667
32929W        W94460   2.233   8.251   3.752
32930W        W94461   5.777  25.991   4.640
32931W        W94462   2.448  31.035  14.786
32932W        W94463  44.471  28.984  14.505
32933W        W94464   9.725  37.534   2.200
32934W        W94465  32.609  15.284   3.776
32935W        W94466  32.117  44.498  13.922
32936W        W94467  21.104  34.039  11.071
32937W        W94468   8.783  28.101  14.014
32938W        W94469  40.495  30.537  11.865
32939W        W94470   1.251  16.142  12.050
32940W        W94471  33.607  12.152   2.183
32941W        W94472   3.351   0.372   1.422
32942W        W94473  16.791  22.105  10.894
32943W        W94474   9.387  29.512  11.001
32944W        W94475  37.841  13.614  10.445
32945W        W94476  37.085  32.099   0.355
32946W        W94477  21.719   1.940   3.842
32947W        W94478  19.247  37.367   4.312
32948W        W94479  23.600   3.340  10.578
32949W        W94480  22.042  20.102   2.304
32950W        W94481   2.257   5.803   0.256
32951W        W94482  28.468  19.759  11.446
32952W        W94483  34.927  25.132   0.928
32953W        W94484  17.061  33.521  14.964
32954W        W94485  40.417  16.120   4.162
32955W        W94486   4.940  13.148  11.405
32956W        W94487   8.702  16.789   1.781
32957W        W94488  37.503   8.823   3.256
32958W        W94489  17.074  12.224  10.610
32959W        W94490  29.435  23.190  13.481
32960W        W94491  17.183  30.428   3.753
32961W        W94492  25.130   7.249  14.894
32962W        W94493  35.977  17.737   0.842
32963W        W94494  29.104  20.710  12.575
32964W        W94495  24.502  15.760  11.128
32965W        W94496  13.128  22.006   4.354
32966W        W94497  16.145  20.227   1.239
32967W        W94498  44.861   1.313  10.404
32968W        W94499  36.373  26.111   3.641
32969W        W94500  20.254  17.753  13.336
32970W        W94501  40.311  28.105   0.831
32971W        W94502  29.944  38.833   4.168
32972W        W94503  11.688  27.560   2.180
32973W        W94504  10.692   0.459   1.841
32974W        W94505  35.465  14.633   4.183
32975W        W94506  31.496  37.386   9.997
32976W        W94507  43.853  39.559  13.986
32977W        W94508  31.487  38.999   3.158
32978W        W94509  41.013  38.366   1.451
32979W        W94510   2.306  16.657   4.194
32980W        W94511  42.952  30.062  14.378
32981W        W94512  15.189  40.332  12.549
32982W        W94513   0.261  30.473   3.679
32983W        W94514  34.394  28.972   4.636
32984W        W94515  32.132  22.643   4.642
32985W        W94516   0.839  36.361   3.168
32986W        W94517   7.839  40.963  14.031
32987W        W94518  31.899  34.552  13.917
32988W        W94519   1.927  21.031  13.853
32989W        W94520   4.844  42.397   0.911
32990W        W94521  42.960  21.539  14.005
32991W        W94522  31.904  17.664   4.138
32992W        W94523  43.512  42.315  11.040
32993W        W94524  16.708   3.827   1.389
32994W        W94525  38.990  26.527  11.026
32995W        W94526  34.939  20.109  14.021
32996W        W94527  42.943  24.610   4.324
32997W        W94528  11.628   6.764   1.319
32998W        W94529  34.870  23.234  14.836
32999W        W94530  15.806  13.208  10.888
33000W        W94531  11.332  40.908   3.222
33001W        W94532  38.040  30.498  14.344
33002W        W94533  33.515   3.890  12.869
33003W        W94534  34.065  34.572   4.335
33004W        W94535  42.781  35.919   0.336
33005W        W94536  43.285  18.171   3.735
33006W        W94537   4.395  21.665   1.265
33007W        W94538  41.524  38.943   1.915
33008W        W94539  32.605  26.156  14.891
33009W        W94540  30.618  14.185   4.292
33010W        W94541  42.840   2.369  13.917
33011W        W94542  39.014   6.679   1.845
33012W        W94543  16.642  34.035  13.345
33013W        W94544  25.106  15.654   0.449
33014W        W94545   7.360  12.689   1.849
33015W        W94546  19.056  44.936   2.899
33016W        W94547  17.271  34.970   2.870
33017W        W94548  19.582  30.448   3.774
33018W        W94549  39.885  34.868  12.018
33019W        W94550   1.379  16.106  11.597
33020W        W94551   4.439  18.664   3.701
33021W        W94552  24.616  27.009  12.459
33022W        W94553  17.668   0.894  14.010
33023W        W94554  42.856  12.819  11.396
33024W        W94555  11.792  16.707  11.533
33025W        W94556  22.509   8.195   1.308
33026W        W94557   4.945  12.228   3.220
33027W        W94558  32.940  26.085   3.313
33028W        W94559  26.510  16.694  14.440
33029W        W94560   5.885  27.070   0.467
33030W        W94561  25.205  11.859   1.433
33031W        W94562   7.280   9.172  14.835
33032W        W94563  19.215  10.750  14.408
33033W        W94564  15.636  10.856   0.923
33034W        W94565  18.767  28.544   0.282
33035W        W94566  36.050  39.433   0.391
33036W        W94567  42.012  16.143  14.356
33037W        W94568  18.692   9.798   1.443
33038W        W94569  12.252  37.920   0.345
33039W        W94570  36.862   1.243  12.510
33040W        W94571  22.148  11.787   4.202
33041W        W94572  33.561  14.246  14.406
33042W        W94573  23.062  36.056   0.852
33043W        W94574  39.531  24.031  13.912
33044W        W94575  41.840   2.866  11.553
33045W        W94576  37.541  21.623  13.429
33046W        W94577  25.062   7.199   1.287
33047W        W94578  23.069  14.797   3.757
33048W        W94579  25.039   1.299  12.046
33049W        W94580   8.672  10.875  13.329
33050W        W94581  10.857  20.094  13.834
33051W        W94582  13.758  40.905  14.778
33052W        W94583  32.576  34.528   1.231
33053W        W94584   8.286   2.322   2.900
33054W        W94585  24.155  41.903  12.466
33055W        W94586  20.099  33.100   0.866
33056W        W94587  41.430  26.074   4.242
33057W        W94588   8.267  43.476   4.638
33058W        W94589  23.132  23.656  13.945
33059W        W94590  12.206  28.941   1.362
33060W        W94591  11.278  23.143   4.321
33061W        W94592   9.718  27.161  14.814
33062W        W94593  10.759  43.965   2.276
33063W        W94594  15.258  24.507   4.813
33064W        W94595  21.246  29.936  11.908
33065W        W94596   9.665  30.563   9.952
33066W        W94597  37.581  20.034  11.590
33067W        W94598  31.412  13.189   4.176
33068W        W94599  27.101   6.192  10.102
33069W        W94600  24.027  35.937  10.029
33070W        W94601  15.087  29.166  10.011
33071W        W94602  11.273  37.413   4.695
33072W        W94603  12.707  38.049  11.411
33073W        W94604   1.837  41.033  12.550
33074W        W94605  24.534  20.665   0.740
33075W        W94606  26.192  38.408   3.328
33076W        W94607   0.342  30.609  12.000
33077W        W94608  33.996   8.264   3.864
33078W        W94609   3.897   4.251   3.718
33079W        W94610   2.472   5.894   2.325
33080W        W94611  17.154  20.649  11.040
33081W        W94612  21.206  23.035  12.963
33082W        W94613  32.529   6.208  12.453
33083W        W94614   4.393  28.674   3.352
33084W        W94615   9.847  35.362   4.734
33085W        W94616  16.662  21.563  12.440
33086W        W94617  23.652   2.877   2.185
33087W        W94618   9.804  17.197  11.964
33088W        W94619   3.836  44.937   3.331
33089W        W94620   4.702  11.705   4.175
33090W        W94621  28.535  42.829   2.762
33091W        W94622  15.245  44.391   3.168
33092W        W94623  30.611  22.731  12.869
33093W        W94624  15.118  33.503   1.253
33094W        W94625  20.529  29.160  11.462
33095W        W94626   0.849  43.403   2.279
33096W        W94627  32.405  38.527   4.246
33097W        W94628  15.101  23.525   0.325
33098W        W94629  44.876  25.031   0.258
33099W        W94630  10.383   7.810  13.416
33100W        W94631  10.259  19.235  13.443
33101W        W94632  18.164  20.576   1.765
33102W        W94633  40.419   9.766   5.222
33103W        W94634  37.943  12.284   3.811
33104W        W94635  37.385  33.536   3.632
33105W        W94636  10.193  43.500   0.888
33106W        W94637  14.301  39.062   1.853
33107W        W94638  25.160  42.827  10.467
33108W        W94639  34.948  10.233   2.217
33109W        W94640  15.156  24.639  11.404
33110W        W94641  37.068   4.403  11.946
33111W        W94642  18.134  31.608   4.176
33112W        W94643  21.531  39.478   3.307
33113W        W94644  24.508  33.546  12.453
33114W        W94645  24.508  31.445   0.821
33115W        W94646  15.176  42.506  10.499
33116W        W94647  24.594  41.962  11.470
33117W        W94648  29.137  41.885  14.842
33118W        W94649  28.668   3.310  10.412
33119W        W94650   3.382   7.876  12.502
33120W        W94651  17.672  22.546   3.372
33121W        W94652   3.302  27.642   1.229
33122W        W94653  24.162  16.187   2.251
33123W        W94654   6.696  20.620   3.783
33124W        W94655  25.649  36.077   3.352
33125W        W94656  21.065  14.668   4.159
33126W        W94657  37.857  38.476   1.233
33127W        W94658  21.687  29.058  14.333
33128W        W94659  20.234  30.547   4.717
33129W        W94660  27.127  36.488  11.557
33130W        W94661  44.419  20.614   5.275
33131W        W94662  39.962  34.426  14.356
33132W        W94663  41.880   6.343  11.027
33133W        W94664  10.174  13.763  10.900
33134W        W94665  10.831  43.511   0.479
33135W        W94666  39.534  33.464  13.983
33136W        W94667  23.164  23.091  11.066
33137W        W94668  19.553  34.958  13.910
33138W        W94669  36.492  11.155   3.634
33139W        W94670   0.264  27.010  10.505
33140W        W94671   1.888  21.026  12.529
33141W        W94672  31.002  12.710   2.181
33142W        W94673   4.417  35.009   2.182
33143W        W94674  18.253   4.731   4.739
33144W        W94675  41.532  14.204   2.233
33145W        W94676  24.098   1.282   3.862
33146W        W94677  15.121   9.665  11.592
33147W        W94678  11.782  12.781   4.614
33148W        W94679  23.169  29.119   1.233
33149W        W94680  32.481  29.503  13.909
33150W        W94681  39.362  25.515   4.600
33151W        W94682  23.169  36.370  14.358
33152W        W94683  41.376   5.312   3.220
33153W        W94684  25.981  22.550  13.844
33154W        W94685  20.768  21.078  11.430
33155W        W94686  43.985  31.995   0.890
33156W        W94687  38.893  43.399   0.891
33157W        W94688   7.721  38.448  11.432
33158W        W94689  25.468   7.667  10.920
33159W        W94690  34.055   3.897   2.766
33160W        W94691  18.628   5.350  12.407
33161W        W94692  29.647  30.601  12.460
33162W        W94693  38.482   7.184  14.472
33163W        W94694   5.695  19.726  14.445
33164W        W94695  27.490  14.204   5.172
33165W        W94696  23.722  23.506   1.282
33166W        W94697  44.796  44.464  10.437
33167W        W94698  17.648  20.682  11.092
33168W        W94699  32.972  12.680   1.789
33169W        W94700   6.359  31.923  13.992
33170W        W94701   7.332  11.724   0.813
33171W        W94702   0.404   4.739  14.431
33172W        W94703  43.426  34.486  14.780
33173W        W94704  20.575   4.385  12.515
33174W        W94705   2.391  13.139  10.591
33175W        W94706   7.372  26.594  12.032
33176W        W94707  26.152  40.863  14.963
33177W        W94708  32.885  40.405   3.346
33178W        W94709  11.831  38.948  12.000
33179W        W94710  13.620   9.236  10.640
33180W        W94711   6.900  35.980   4.348
33181W        W94712   1.262  41.376  12.962
33182W        W94713  15.696  34.120   1.735
33183W        W94714  13.256  21.089   2.862
33184W        W94715  40.492  36.039  11.129
33185W        W94716   7.213  43.887  10.443
33186W        W94717  31.088  12.287   1.723
33187W        W94718  24.979   6.788   3.362
33188W        W94719  11.734   6.224   1.806
33189W        W94720  32.488  36.877   3.303
33190W        W94721  41.479   5.424  11.411
33191W        W94722  26.171   6.866  13.939
33192W        W94723  37.393  10.261   3.367
33193W        W94724  24.211   2.822   3.683
33194W        W94725  41.899   2.408  14.344
33195W        W94726  42.477  21.132   2.841
33196W        W94727  20.162  19.181   1.424
33197W        W94728   3.810  14.110   5.151
33198W        W94729  37.393  25.543  13.930
33199W        W94730  23.569   4.281   1.305
33200W        W94731  18.610  22.010   0.743
33201W        W94732  27.147  34.494  12.573
33202W        W94733  44.790  31.968   2.375
33203W        W94734  26.013  35.963   3.744
33204W        W94735  30.074   6.842   2.756
33205W        W94736   4.714  19.749  11.411
33206W        W94737  24.582  12.726   1.734
33207W        W94738  36.549   1.293  12.577
33208W        W94739  30.947   8.232  11.935
33209W        W94740  36.416  11.325   1.844
33210W        W94741  34.577  20.668  12.480
33211W        W94742   3.722  15.248   2.875
33212W        W94743   4.255  15.238  12.484
33213W        W94744  42.916  17.128  14.495
33214W        W94745  33.073  36.980   2.693
33215W        W94746  12.295  13.243  10.905
33216W        W94747  40.957  36.992  12.480
33217W        W94748  26.078   1.383   1.876
33218W        W94749  15.656  19.058   3.352
33219W        W94750  29.034  19.219  13.359
33220W        W94751  33.443  30.946   1.845
33221W        W94752  24.651  29.640  13.469
33222W        W94753   1.815   6.684  13.807
33223W        W94754   0.850   5.754  13.457
33224W        W94755  22.666  20.661  12.516
33225W        W94756   3.869  28.538   3.861
33226W        W94757   4.869  10.855  11.404
33227W        W94758   5.250  43.866  10.582
33228W        W94759  33.930   0.417   0.959
33229W        W94760  22.078  39.935   0.359
33230W        W94761  12.620  25.668   0.779
33231W        W94762  35.055  44.986  11.907
33232W        W94763  21.073   9.861   0.244
33233W        W94764   1.912  14.274   3.244
33234W        W94765  24.640  43.480  13.893
33235W        W94766  11.199  39.496   3.856
33236W        W94767   6.313   8.255  11.109
33237W        W94768  40.383  21.537   3.343
33238W        W94769  42.927  29.489   0.955
33239W        W94770  26.071  38.833  14.765
33240W        W94771  10.343  21.709   3.244
33241W        W94772  40.487  43.437  10.941
33242W        W94773  35.090  43.015   4.280
33243W        W94774  27.025  40.435   4.643
33244W        W94775  44.285  35.429  14.292
33245W        W94776  37.882  37.024  14.388
33246W        W94777  30.920  22.137  10.918
33247W        W94778   8.363  10.686   4.686
33248W        W94779   0.398  40.529  10.558
33249W        W94780  33.933  43.998  12.364
33250W        W94781  35.398   5.414   1.792
33251W        W94782  32.038  31.028  13.836
33252W        W94783   3.388   8.878   2.752
33253W        W94784  18.139  26.974   1.744
33254W        W94785  30.615  43.427   1.733
33255W        W94786  28.181  21.591  14.926
33256W        W94787   9.327  19.660  12.344
33257W        W94788  27.472  17.160   3.772
33258W        W94789  29.644  23.212   4.212
33259W        W94790   2.903   8.286   3.172
33260W        W94791  18.231  30.460   4.168
33261W        W94792   9.734  41.982  12.992
33262W        W94793  12.655  36.077  12.903
33263W        W94794  30.113  30.445   0.336
33264W        W94795  39.837  19.546  14.926
33265W        W94796  44.793   7.794   0.831
33266W        W94797  43.465  41.374   3.267
33267W        W94798  18.090   6.252   1.331
33268W        W94799  14.201  20.185   4.613
33269W        W94800  30.909  36.409   1.733
33270W        W94801   9.251  44.292  14.829
33271W        W94802  13.176  15.268  14.277
33272W        W94803   9.673   6.746  10.584
33273W        W94804  44.939  24.710  12.992
33274W        W94805   8.206   2.287  12.443
33275W        W94806  41.374  37.417   4.146
33276W        W94807   7.869  32.572  11.438
33277W        W94808  14.733  19.176  12.956
33278W        W94809   0.869  36.454   1.757
33279W        W94810   8.695  41.314  12.439
33280W        W94811  25.212  22.023   4.795
33281W        W94812  41.300  21.225   4.640
33282W        W94813  29.669  37.515   2.286
33283W        W94814  15.661   7.285   4.598
33284W        W94815  14.597  20.757  12.384
33285W        W94816  44.838  19.683  11.415
33286W        W94817  19.285   0.917  10.480
33287W        W94818  10.731   3.711  14.392
33288W        W94819  26.568   8.843   5.210
33289W        W94820  34.885  10.817   2.823
33290W        W94821  21.178  28.084  11.425
33291W        W94822  32.035  39.456  13.792
33292W        W94823  13.222  26.647  11.990
33293W        W94824  12.695  38.957   3.803
33294W        W94825  28.573   1.298  10.904
33295W        W94826  25.638  14.620   3.805
33296W        W94827  35.467  16.082   3.764
33297W        W94828  44.386   1.252   4.174
33298W        W94829  29.662  33.437  14.952
33299W        W94830   2.249  26.584   0.932
33300W        W94831  10.233  41.004   3.277
33301W        W94832   1.252   8.707  10.636
33302W        W94833  23.724  10.271   1.935
33303W        W94834  23.523  25.002  13.893
33304W        W94835   8.752  16.264  12.824
33305W        W94836  23.528  24.504  11.075
33306W        W94837  15.734  36.562  14.984
33307W        W94838   0.766  13.786   2.776
33308W        W94839  12.821  19.590   1.897
33309W        W94840  22.124   7.732  14.895
33310W        W94841  41.992  41.474   1.848
33311W        W94842  27.127  13.159   4.275
33312W        W94843  27.023  36.446   4.199
33313W        W94844  32.606  40.917  12.085
33314W        W94845  35.094   0.936   2.282
33315W        W94846  30.584  25.178   1.804
33316W        W94847  15.103  23.146  12.543
33317W        W94848  26.681  11.198   1.321
33318W        W94849  43.925  38.058   3.190
33319W        W94850  22.239  27.093   0.465
33320W        W94851  23.507  23.069  10.594
33321W        W94852  24.709  29.486  12.012
33322W        W94853  16.743   9.193  13.005
33323W        W94854   4.295  14.803   4.283
33324W        W94855  38.439  20.234   3.672
33325W        W94856  33.477  12.730   0.449
33326W        W94857   8.281  33.037  13.492
33327W        W94858  12.769  14.202   2.224
33328W        W94859   7.230  44.444   4.316
33329W        W94860  35.946  14.121   3.308
33330W        W94861  28.471  14.261   2.276
33331W        W94862   2.915  10.141   3.203
33332W        W94863  29.079  21.065   4.675
33333W        W94864   6.415   1.777  13.039
33334W        W94865  36.415   9.259   2.414
33335W        W94866  29.495  21.212   3.862
33336W        W94867  15.749  44.350   0.942
33337W        W94868  14.330   5.863   0.337
33338W        W94869   7.267   3.345  13.422
33339W        W94870  15.322  32.038   4.232
33340W        W94871  13.177  31.042   1.789
33341W        W94872  15.090  39.544  10.434
33342W        W94873  18.181  10.369  12.918
33343W        W94874   5.299  26.966  13.831
33344W        W94875  30.588  14.802  10.469
33345W        W94876  14.657  24.094  13.922
33346W        W94877  26.526  26.659  14.377
33347W        W94878   9.650  35.864   2.308
33348W        W94879  29.040  25.474  14.455
33349W        W94880  40.040   8.843  12.899
33350W        W94881  21.548   3.397  14.404
33351W        W94882  37.385   8.403  13.915
33352W        W94883  13.657  19.099  11.920
33353W        W94884  19.117  21.542  11.415
33354W        W94885  18.229  20.523  11.876
33355W        W94886  43.772   6.410  14.412
33356W        W94887  29.166  21.161   3.263
33357W        W94888  41.796   4.895  10.541
33358W        W94889  43.798  27.121  11.064
33359W        W94890  11.286   4.796  12.556
33360W        W94891   6.839  15.257  12.409
33361W        W94892   0.324  40.020  11.062
33362W        W94893  43.814  38.842   3.701
33363W        W94894  37.889  36.562   1.407
33364W        W94895  18.219   0.311  12.052
33365W        W94896  26.102  22.107   3.300
33366W        W94897  13.330  14.639  12.423
33367W        W94898  35.534  35.880   4.739
33368W        W94899   1.384  33.945  11.914
33369W        W94900  28.012  34.495   0.460
33370W        W94901   1.893   9.859  13.040
33371W        W94902   5.228  22.697   3.723
33372W        W94903  41.847  18.615  12.089
33373W        W94904  26.121  36.488   1.865
33374W        W94905   9.178   2.934   5.141
33375W        W94906  39.877  41.857   0.319
33376W        W94907  31.599  16.619  11.508
33377W        W94908  41.335  19.073   2.408
33378W        W94909   6.303  15.177   3.222
33379W        W94910  31.519  39.380   4.686
33380W        W94911  15.715  14.275   0.292
33381W        W94912  25.971   2.754   3.722
33382W        W94913  40.316  21.099  10.559
33383W        W94914   6.426  41.878  11.551
33384W        W94915  10.187  36.373  11.965
33385W        W94916  44.279  25.508   4.632
33386W        W94917  31.084  35.387  14.900
33387W        W94918  34.038  33.557   2.365
33388W        W94919  28.097  28.167  12.018
33389W        W94920   7.294  27.992  12.409
33390W        W94921  37.403  12.152   3.385
33391W        W94922  11.326  16.698  11.907
33392W        W94923  34.118  29.598   2.390
33393W        W94924   8.763  43.403  13.831
33394W        W94925   5.308  26.058  12.344
33395W        W94926  42.907  17.583  11.582
33396W        W94927  21.699  37.002  14.011
33397W        W94928  16.634  32.125  13.318
33398W        W94929  16.315   2.955  14.514
33399W        W94930   6.277  28.610  12.888
33400W        W94931  33.622  18.569  12.860
33401W        W94932  24.566  15.760   3.366
33402W        W94933  13.659  32.971   2.712
33403W        W94934  27.581  14.129   4.668
33404W        W94935  39.050  43.770   3.370
33405W        W94936  34.939  20.118   1.393
33406W        W94937  37.914   2.832  14.369
33407W        W94938  28.648  34.459   3.193
33408W        W94939  25.635  37.943   3.157
33409W        W94940  27.498  15.315  10.538
33410W        W94941   0.784  23.660   4.734
33411W        W94942  18.213  19.623  12.552
33412W        W94943  37.839  26.043   3.830
33413W        W94944  28.162   9.300   2.887
33414W        W94945  11.139   4.774  11.888
33415W        W94946  22.734  19.181   1.407
33416W        W94947   9.772  11.266   0.430
33417W        W94948  25.586   9.702  13.007
33418W        W94949   9.225   1.851  14.478
33419W        W94950   3.741   7.790   0.364
33420W        W94951  15.611  40.845  12.839
33421W        W94952  38.528   4.353  11.000
33422W        W94953  16.720   9.314   0.256
33423W        W94954  12.305  37.921  10.404
33424W        W94955  10.700  23.175   2.802
33425W        W94956  18.608  40.870   4.182
33426W        W94957  28.515  30.581   1.880
33427W        W94958  11.833  12.265  12.054
33428W        W94959  18.785  28.155   1.404
33429W        W94960  14.787  41.900   0.246
33430W        W94961  30.108   2.872   1.355
33431W        W94962   1.291  19.163   1.233
33432W        W94963  36.920  29.497   4.258
33433W        W94964  30.534  43.498  12.868
33434W        W94965  32.959   3.427   3.707
33435W        W94966  21.630  11.866  13.535
33436W        W94967  16.104  14.148   1.699
33437W        W94968  44.497  26.466   3.277
33438W        W94969  25.193   3.315   3.720
33439W        W94970  40.354  22.150  12.511
33440W        W94971  42.853  30.597   0.805
33441W        W94972  17.195  14.799  14.782
33442W        W94973   1.284  19.640   3.687
33443W        W94974  10.654  28.951   2.232
33444W        W94975  23.141  30.058   0.480
33445W        W94976  23.619  26.112   2.343
33446W        W94977  20.267  31.930   4.666
33447W        W94978   0.790  18.778   4.255
33448W        W94979   8.715  34.380   4.226
33449W        W94980  24.499   2.376  12.960
33450W        W94981   6.800  25.144   9.922
33451W        W94982  14.307   9.765  14.509
33452W        W94983  36.041  12.312  10.606
33453W        W94984  42.936  22.010   4.305
33454W        W94985  37.508  42.393  14.015
33455W        W94986  20.572  22.085  11.564
33456W        W94987  16.676  21.188   4.775
33457W        W94988   0.849  24.165  12.481
33458W        W94989  13.223  11.179  13.977
33459W        W94990  37.522   8.214  12.949
33460W        W94991  17.660  40.007  11.944
33461W        W94992  38.051  20.124   0.767
33462W        W94993   3.910  44.804   0.883
33463W        W94994  12.133  18.175   3.689
33464W        W94995   3.309  40.864   1.216
33465W        W94996   7.877  34.054   2.756
33466W        W94997  31.563  10.765  13.003
33467W        W94998  27.509  35.448  14.432
33468W        W94999  41.372  13.810   0.804
33469W        W95000  16.639  29.054  10.633
33470W        W95001  44.772  28.098   4.705
33471W        W95002  41.831  23.698  13.017
33472W        W95003  13.840  38.824  10.987
33473W        W95004   8.671  44.931   4.834
33474W        W95005  37.857  26.551  10.634
33475W        W95006  38.431  31.539  11.515
33476W        W95007  13.643  21.713  12.518
33477W        W95008  15.711  17.264   1.803
33478W        W95009  42.398  30.598   1.373
33479W        W95010  24.073  39.911   3.229
33480W        W95011  14.804  38.868   1.378
33481W        W95012   9.688  16.606  13.412
33482W        W95013   0.895   4.396   2.754
33483W        W95014   0.864  40.006  14.797
33484W        W95015   0.760   9.878   0.385
33485W        W95016  16.605   5.897  14.444
33486W        W95017  33.062  40.503   1.791
33487W        W95018  13.306   1.921   3.335
33488W        W95019  25.643  20.208  14.498
33489W        W95020  29.483  10.838  12.878
33490W        W95021   3.427  24.533   1.898
33491W        W95022  31.012  34.452   2.865
33492W        W95023  16.778  35.092   3.243
33493W        W95024  12.697   7.742  11.991
33494W        W95025  43.468   3.301   2.805
33495W        W95026  21.059  43.409  11.916
33496W        W95027   6.772  31.938   0.468
33497W        W95028   6.231  31.904   0.747
33498W        W95029  33.552  21.685  10.952
33499W        W95030  19.236  39.356  14.868
33500W        W95031  19.285  30.431   0.375
33501W        W95032  10.638  15.172   4.223
33502W        W95033  15.734  27.635  14.506
33503W        W95034  19.260  41.892  12.961
33504W        W95035  21.749  31.946   2.864
33505W        W95036  10.742  38.433   3.709
33506W        W95037  36.061   8.193  12.998
33507W        W95038  15.797  19.673   4.710
33508W        W95039  15.320   9.753   1.850
33509W        W95040  34.019  13.769   5.119
33510W        W95041   9.267  16.663  13.377
33511W        W95042   3.434   3.426   4.802
33512W        W95043   9.313  38.820  13.318
33513W        W95044   2.757  40.342  13.956
33514W        W95045  25.668  41.527   2.226
33515W        W95046  26.494  18.116  11.919
33516W        W95047   9.826   9.686   3.264
33517W        W95048  39.929  41.390   0.930
33518W        W95049  24.173  41.987   9.960
33519W        W95050  31.465  31.606   1.288
33520W        W95051  11.663  41.014   3.172
33521W        W95052  20.563  33.085  14.283
33522W        W95053  31.424  15.654   0.956
33523W        W95054  33.977  14.644   3.282
33524W        W95055  24.088  43.960  11.072
33525W        W95056  38.519  25.040  12.900
33526W        W95057  15.645  34.977   1.739
33527W        W95058  21.118  22.584   4.743
33528W        W95059  43.280  23.164  13.393
33529W        W95060  37.834  17.574   0.747
33530W        W95061  44.285   7.383   2.872
33531W        W95062  24.690  20.063   2.725
33532W        W95063  37.361  33.625   0.908
33533W        W95064  36.911   0.350  11.926
33534W        W95065  44.333  27.991  11.519
33535W        W95066  42.964  40.832  10.992
33536W        W95067  31.551   0.448   2.750
33537W        W95068   4.708  26.970  14.906
33538W        W95069  35.911   3.281  10.921
33539W        W95070  44.277  14.222  10.968
33540W        W95071  34.066   0.274   2.290
33541W        W95072  17.734  28.061  12.489
33542W        W95073  44.437  15.774   1.751
33543W        W95074  21.716  30.587   5.262
33544W        W95075  37.003  30.095   0.249
33545W        W95076   2.893  43.482  12.828
33546W        W95077  43.848  18.214   3.860
33547W        W95078  44.288  42.822  10.631
33548W        W95079  30.042  25.999   1.834
33549W        W95080  22.650  23.033  10.573
33550W        W95081  35.895   4.233  10.593
33551W        W95082  17.101  22.075   1.248
33552W        W95083   3.919  25.505  13.497
33553W        W95084  24.692  10.306  11.855
33554W        W95085   9.849  12.217  13.858
33555W        W95086  31.483  37.935  14.011
33556W        W95087  35.509  21.737   0.924
33557W        W95088  21.564   2.910   4.214
33558W        W95089   2.445  10.725   1.822
33559W        W95090   0.426  15.238  12.408
33560W        W95091   6.799  22.044  14.374
33561W        W95092  16.151  17.695  11.556
33562W        W95093   1.847  39.833   0.877
33563W        W95094   5.857  13.344  14.461
33564W        W95095  38.981   3.284   3.257
33565W        W95096  33.619   2.792  12.903
33566W        W95097  41.949  40.862   3.736
33567W        W95098  17.755  14.121   4.229
33568W        W95099  38.867  22.515  12.482
33569W        W95100  25.092   0.249  10.537
33570W        W95101   9.652   5.900  13.417
33571W        W95102  44.493   5.420  13.826
33572W        W95103  34.519   8.722   2.208
33573W        W95104  22.509  11.643  13.836
33574W        W95105  29.606  28.137  11.526
33575W        W95106  22.070  43.377   1.363
33576W        W95107   3.821  27.510   0.778
33577W        W95108  29.164  36.363  13.314
33578W        W95109  35.575  37.921   3.176
33579W        W95110  33.480   9.315  13.458
33580W        W95111   7.287  25.217   2.786
33581W        W95112  43.441  20.545  13.839
33582W        W95113  10.320  36.435  10.466
33583W        W95114  10.820  24.187   0.838
33584W        W95115  40.006  41.812  14.821
33585W        W95116  20.574  23.142   4.268
33586W        W95117  17.209  16.593  11.041
33587W        W95118  23.718  27.979  13.463
33588W        W95119  19.174  22.612  11.580
33589W        W95120   8.347  39.538  14.022
33590W        W95121  23.695   2.803   1.780
33591W        W95122   1.294   6.773   0.251
33592W        W95123  37.500  28.089   3.210
33593W        W95124  10.864  40.407   1.710
33594W        W95125  14.324  22.117  11.383
33595W        W95126  41.511  19.585   3.339
33596W        W95127   2.462  17.103   2.212
33597W        W95128  26.969  21.725   0.912
33598W        W95129  24.105  37.069   3.860
33599W        W95130  18.135   9.651  14.455
33600W        W95131  41.524   3.853   2.726
33601W        W95132  32.136  16.098   0.843
33602W        W95133   1.390   8.165  11.870
33603W        W95134  26.587  32.572  10.917
33604W        W95135  15.195  38.846  14.295
33605W        W95136  10.877  12.834   4.290
33606W        W95137  15.578  38.964   2.841
33607W        W95138  19.618   4.930   1.818
33608W        W95139   6.760  26.101  13.517
33609W        W95140  35.455   3.276   1.253
33610W        W95141  39.008  33.922  11.040
33611W        W95142  21.041  41.801   5.098
33612W        W95143  28.990  31.123  12.370
33613W        W95144  16.139  42.461   0.821
33614W        W95145   7.230  43.861   3.378
33615W        W95146  15.086  25.008  10.962
33616W        W95147   3.842  17.234   4.240
33617W        W95148  26.553   9.270   2.716
33618W        W95149  25.125  31.959   3.300
33619W        W95150   6.222  43.416   4.657
33620W        W95151  11.814  23.140   3.251
33621W        W95152  38.343  10.164   1.388
33622W        W95153  42.866  15.195  14.448
33623W        W95154  11.350   4.396   2.337
33624W        W95155  32.121  19.112  11.095
33625W        W95156  22.691  30.987  14.292
33626W        W95157  30.649  30.590   2.192
33627W        W95158  30.604  12.182   2.338
33628W        W95159  18.730  33.104  14.451
33629W        W95160   6.817  29.986   1.896
33630W        W95161  21.612  22.668  14.367
33631W        W95162   6.184   0.952  14.326
33632W        W95163  43.398  15.587  13.872
33633W        W95164  23.113  43.478   3.258
33634W        W95165  17.612  15.276  13.062
33635W        W95166  27.504  32.021   0.282
33636W        W95167   5.708   9.714   2.258
33637W        W95168   0.759  44.925  14.945
33638W        W95169  22.143  14.267   0.747
33639W        W95170  19.082   4.447  14.869
33640W        W95171  26.677   4.351  12.855
33641W        W95172  33.617  37.412   0.305
33642W        W95173   0.491  21.734   4.311
33643W        W95174   8.737  39.907   3.654
33644W        W95175  34.412  22.121   0.774
33645W        W95176   6.803  26.607  11.899
33646W        W95177   2.427  10.338   3.227
33647W        W95178  28.008  25.100   2.187
33648W        W95179   2.243   5.390  10.607
33649W        W95180   2.820  17.249   0.325
33650W        W95181  39.316  44.000   0.758
33651W        W95182  30.484  31.040   0.405
33652W        W95183   2.470   9.748   2.777
33653W        W95184  30.497  10.637   0.275
33654W        W95185  15.119  13.728   4.341
33655W        W95186  22.070  33.501  13.868
33656W        W95187  23.090  24.710  12.964
33657W        W95188   7.310  20.155   3.182
33658W        W95189  35.094  29.156  13.407
33659W        W95190  20.594  44.479  13.989
33660W        W95191  20.589  20.097   3.191
33661W        W95192  38.978  19.640  10.584
33662W        W95193  14.814  24.559   4.620
33663W        W95194  44.948  10.654   1.734
33664W        W95195  35.424  42.001   0.823
33665W        W95196  37.496  10.825   2.721
33666W        W95197  37.368  23.038  10.430
33667W        W95198  26.586   3.829   3.769
33668W        W95199  19.553  34.053   3.336
33669W        W95200  28.156  26.111   0.438
33670W        W95201  34.933  24.555  13.876
33671W        W95202  17.161   3.400   3.767
33672W        W95203   2.258  39.945  12.974
33673W        W95204  24.697  40.993  13.030
33674W        W95205  22.721  39.491   2.869
33675W        W95206  16.787  42.966  10.556
33676W        W95207  15.635  29.631   0.344
33677W        W95208  31.451   9.263   0.884
33678W        W95209   2.282  37.972   0.431
33679W        W95210  34.557  18.773  13.029
33680W        W95211  17.776  32.058   3.289
33681W        W95212  19.265  24.673  11.379
33682W        W95213  30.046   7.237  12.437
33683W        W95214   2.457  32.061   2.778
33684W        W95215   9.763  37.084  10.932
33685W        W95216  44.315   7.371   0.451
33686W        W95217   2.438   2.782   2.380
33687W        W95218  19.058  31.096  12.342
33688W        W95219  32.533  41.823   0.840
33689W        W95220   5.278  35.598  11.461
33690W        W95221  11.856  33.425   0.853
33691W        W95222  16.281   8.183   0.773
33692W        W95223  40.374  28.109  12.953
33693W        W95224   7.806  12.253   2.886
33694W        W95225  32.510  32.028   1.235
33695W        W95226  42.386  40.438  12.915
33696W        W95227  10.653  12.175  13.308
33697W        W95228  42.313  18.568   2.791
33698W        W95229  39.821  23.658   4.280
33699W        W95230  15.777  14.596  13.401
33700W        W95231  13.158  27.950  14.505
33701W        W95232  39.012  36.053  12.500
33702W        W95233  38.569  40.378  10.562
33703W        W95234  39.437  23.121   2.379
33704W        W95235  21.534   8.177   0.801
33705W        W95236  30.149   1.954  13.359
33706W        W95237  15.129  32.588   2.693
33707W        W95238  35.036  14.142  14.988
33708W        W95239  12.250  40.970  12.374
33709W        W95240   9.667  33.614   2.240
33710W        W95241  35.387   9.283   2.222
33711W        W95242  39.426  30.141  13.948
33712W        W95243  40.957  28.028   3.794
33713W        W95244   2.864  35.867  14.498
33714W        W95245   8.778  31.098  10.920
33715W        W95246  35.955   5.251   1.700
33716W        W95247  31.643   1.809   2.755
33717W        W95248  10.679  42.821  10.468
33718W        W95249  21.539  23.521  12.475
33719W        W95250  31.001  15.196   5.317
33720W        W95251  27.544  42.817   1.369
33721W        W95252   7.403  37.536  13.393
33722W        W95253  33.495  44.923   3.333
33723W        W95254  14.644   1.835   3.799
33724W        W95255  18.127   5.317  14.846
33725W        W95256  10.334  32.507   9.544
33726W        W95257  21.067  32.453   4.240
33727W        W95258  24.224  30.456  11.412
33728W        W95259  35.436   1.741   2.353
33729W        W95260  31.594  20.548   2.326
33730W        W95261  32.612   7.304  14.023
33731W        W95262  29.144  18.180   1.267
33732W        W95263  17.215   6.423  10.570
33733W        W95264  40.045  33.382  13.836
33734W        W95265  34.111   4.373   0.961
33735W        W95266  23.712  22.167  11.529
33736W        W95267  17.204  40.972   1.227
33737W        W95268   1.455   2.948   1.921
33738W        W95269  16.725  33.986  12.469
33739W        W95270  32.890  20.127   4.131
33740W        W95271  16.261  20.540  11.948
33741W        W95272  43.914   6.387   3.163
33742W        W95273   6.261  19.258   4.817
33743W        W95274  42.989  13.344  11.877
33744W        W95275  20.129  39.429   1.863
33745W        W95276  32.410  12.355  11.121
33746W        W95277  11.338  20.044  13.355
33747W        W95278  41.974   5.806  13.810
33748W        W95279  38.392  22.087   4.229
33749W        W95280  35.098  28.973   4.325
33750W        W95281  10.675   8.230   4.342
33751W        W95282  13.202  26.954   1.891
33752W        W95283  42.992  36.080  12.384
33753W        W95284  10.316  11.655  14.998
33754W        W95285  42.990   0.767  12.385
33755W        W95286   8.324  15.814  10.503
33756W        W95287  29.498  26.120  10.492
33757W        W95288   0.757  35.577  10.986
33758W        W95289   5.403  17.262  14.507
33759W        W95290  16.079  37.401   2.256
33760W        W95291  38.476  23.615   1.755
33761W        W95292   8.281   0.322  13.060
33762W        W95293  16.699   5.259   4.751
33763W        W95294  43.493  43.453  10.904
33764W        W95295  41.810  20.701  14.992
33765W        W95296  11.639  19.169   3.721
33766W        W95297  16.170  40.507  11.990
33767W        W95298   8.888   1.449  12.876
33768W        W95299  35.536  20.714   3.160
33769W        W95300  24.649  16.676   1.397
33770W        W95301  23.990  37.883  14.449
33771W        W95302  13.107  27.166  13.948
33772W        W95303   7.714  17.110  13.451
33773W        W95304  31.520   9.871   3.831
33774W        W95305  31.446  25.691  13.521
33775W        W95306  32.933  44.985   1.868
33776W        W95307   6.340  30.011   2.203
33777W        W95308  43.784  18.554  10.540
33778W        W95309   0.922  41.815   0.332
33779W        W95310   8.705  14.777   2.704
33780W        W95311  35.504  13.166   4.668
33781W        W95312  37.391  16.311   4.715
33782W        W95313   6.818  38.905   2.680
33783W        W95314  31.973   6.218  13.334
33784W        W95315  38.546  25.643  12.546
33785W        W95316  25.034  31.012   2.778
33786W        W95317   8.822   6.755   1.287
33787W        W95318  28.007   2.732   1.754
33788W        W95319   2.926  24.570   1.852
33789W        W95320  17.608   4.302   3.670
33790W        W95321  34.541  13.282  12.562
33791W        W95322  16.250   9.343  12.041
33792W        W95323   7.778   1.837  11.885
33793W        W95324   0.283  11.700   3.298
33794W        W95325   0.271  21.662  11.863
33795W        W95326  41.881  42.875   3.354
33796W        W95327   4.928  28.557  11.073
33797W        W95328  24.227   4.799  10.097
33798W        W95329  31.100  16.752  12.379
33799W        W95330  26.479  11.776  10.586
33800W        W95331  34.120  13.801   3.646
33801W        W95332  11.135  26.644  13.319
33802W        W95333   2.758   2.252  14.301
33803W        W95334   4.255   3.827   2.307
33804W        W95335   5.878  36.503  11.564
33805W        W95336  12.293  22.533  14.391
33806W        W95337  37.369  22.187   2.401
33807W        W95338  23.719  24.117  11.031
33808W        W95339  25.559  34.078  11.581
33809W        W95340  29.101   5.339  11.539
33810W        W95341  30.127  10.232   1.812
33811W        W95342  14.192  23.506  13.445
33812W        W95343  44.470  39.892  13.372
33813W        W95344  13.284   1.406   2.860
33814W        W95345  21.547  30.598  13.329
33815W        W95346  40.920   8.274  10.471
33816W        W95347  16.172  14.818  12.054
33817W        W95348  23.521  28.999  11.576
33818W        W95349   4.240  28.068  14.498
33819W        W95350  23.718   0.806   2.736
33820W        W95351  26.167  30.541   4.230
33821W        W95352  10.833   7.776   1.750
33822W        W95353  29.098  17.575  11.972
33823W        W95354  27.964   3.422  12.415
33824W        W95355  26.039  19.240   4.140
33825W        W95356   9.706  22.645  12.442
33826W        W95357   8.703  20.221   1.284
33827W        W95358   4.895  21.077  11.507
33828W        W95359  22.573  43.351   1.877
33829W        W95360  36.092  10.150  11.867
33830W        W95361  36.908  39.843   4.685
33831W        W95362  40.418  10.240   0.266
33832W        W95363  37.854   4.412  12.522
33833W        W95364  22.644  29.670   2.206
33834W        W95365  44.894  18.152  11.012
33835W        W95366  23.566  16.802   3.720
33836W        W95367  42.927  16.701   1.367
33837W        W95368  31.541   8.334  10.530
33838W        W95369   2.333  39.983   1.312
33839W        W95370   3.799  34.869  14.799
33840W        W95371   4.889  44.914   0.888
33841W        W95372   9.375  14.779  12.042
33842W        W95373  23.706  17.626   2.368
33843W        W95374  24.139  33.961   3.868
33844W        W95375   6.413   3.955   3.266
33845W        W95376  19.600  32.502   4.319
33846W        W95377  34.966   6.344  14.023
33847W        W95378  18.159  26.138  12.908
33848W        W95379  22.506  10.200  10.051
33849W        W95380   6.283  23.063   4.836
33850W        W95381  23.631  20.639  12.894
33851W        W95382  17.577  12.140  12.544
33852W        W95383   8.191  35.960  12.085
33853W        W95384  42.814   7.378   1.709
33854W        W95385  23.149  17.797  12.851
33855W        W95386  16.109  28.149  13.508
33856W        W95387  32.071  35.952  14.297
33857W        W95388  24.201  38.072  12.556
33858W        W95389  31.055   9.795  13.358
33859W        W95390  25.468  32.562   0.454
33860W        W95391  18.663  27.445  14.894
33861W        W95392  11.769  37.057  10.916
33862W        W95393  34.488  44.298   1.367
33863W        W95394  41.978  42.974   5.319
33864W        W95395  15.736  15.704   1.381
33865W        W95396  14.793   9.792   0.743
33866W        W95397  36.857  39.403  12.350
33867W        W95398  15.168   9.771  14.276
33868W        W95399  40.372  39.062  12.897
33869W        W95400  42.516   3.269   1.838
33870W        W95401  24.494  23.062  14.998
33871W        W95402  24.655  42.955   2.266
33872W        W95403  23.014  38.525  12.934
33873W        W95404  40.955  13.164  13.950
33874W        W95405  10.735  42.353   0.366
33875W        W95406   2.459  18.764   3.661
33876W        W95407  32.397  15.202  14.011
33877W        W95408  19.048   9.175   3.758
33878W        W95409  26.153  30.960   1.776
33879W        W95410  40.887  41.350   1.721
33880W        W95411  43.454  12.193  13.509
33881W        W95412   2.786   4.893  11.120
33882W        W95413  28.531  39.858  10.420
33883W        W95414  36.377   9.821  13.463
33884W        W95415  16.687  42.375  14.386
33885W        W95416   8.340   3.445  12.898
33886W        W95417  15.227   5.738  12.974
33887W        W95418  20.165   1.462   0.361
33888W        W95419  22.178  36.524  14.837
33889W        W95420  27.594   8.355   3.834
33890W        W95421  44.367  39.414   1.830
33891W        W95422  14.589  44.897   3.274
33892W        W95423   3.228  17.063   2.699
33893W        W95424  41.395   4.744  12.921
33894W        W95425  43.967   7.294  11.874
33895W        W95426  21.118  23.196   3.267
33896W        W95427  15.735  30.599   3.234
33897W        W95428  34.889  19.588   0.761
33898W        W95429  23.084  16.295   3.844
33899W        W95430  36.991  20.270   4.669
33900W        W95431  35.088   6.823   4.281
33901W        W95432  20.693  42.858   4.822
33902W        W95433  21.626  15.131  14.417
33903W        W95434  25.148  34.035   1.912
33904W        W95435  27.011  36.098  11.067
33905W        W95436   4.757  17.561   3.746
33906W        W95437  16.744   9.672   3.253
33907W        W95438  33.053  34.872   3.713
33908W        W95439  33.487  34.377   4.756
33909W        W95440   0.791  30.994  14.466
33910W        W95441  28.681  24.009   0.346
33911W        W95442   6.400   0.487  11.926
33912W        W95443  41.900  26.487  13.914
33913W        W95444  22.696   9.687   2.279
33914W        W95445  19.667   2.843  14.342
33915W        W95446  16.586  41.343  14.278
33916W        W95447  11.367  39.352   2.195
33917W        W95448   6.764  42.817  12.358
33918W        W95449   0.745   0.868   3.209
33919W        W95450  25.574  38.941   4.176
33920W        W95451  26.101  11.247   4.150
33921W        W95452  10.805  24.099  13.521
33922W        W95453  23.706  21.091   1.733
33923W        W95454  27.633  43.439  11.476
33924W        W95455  28.938  27.673  14.002
33925W        W95456   7.397  21.704   3.802
33926W        W95457   6.428  10.240   1.876
33927W        W95458  28.553  33.425  10.410
33928W        W95459  24.110   2.295   0.872
33929W        W95460  10.381  20.627  14.796
33930W        W95461  17.171  44.943   1.834
33931W        W95462  20.649  20.711  14.769
33932W        W95463  36.857  36.578  10.595
33933W        W95464  23.074  15.578   0.387
33934W        W95465   3.239  43.989   2.313
33935W        W95466  33.934   2.877   4.698
33936W        W95467  10.210  12.707   0.271
33937W        W95468  13.120  11.193   2.768
33938W        W95469  26.646  18.693   3.367
33939W        W95470   4.899  25.547  11.566
33940W        W95471   1.448  26.127  13.962
33941W        W95472  22.714  17.763   4.824
33942W        W95473  10.833  43.011   9.970
33943W        W95474  25.119  44.467   1.783
33944W        W95475  11.169  12.304   0.769
33945W        W95476  31.596  31.019   4.815
33946W        W95477  14.828  24.100  12.939
33947W        W95478   8.330  30.538  10.576
33948W        W95479  28.574   2.281  14.365
33949W        W95480  23.576  37.374  11.018
33950W        W95481  27.522   2.424   4.704
33951W        W95482  30.563  27.479   3.748
33952W        W95483  18.571  12.270  13.317
33953W        W95484  25.712  31.545  12.347
33954W        W95485  14.106   5.768   1.366
33955W        W95486  44.911   6.410  11.442
33956W        W95487  37.074  22.072   2.299
33957W        W95488   9.711   9.348  14.420
33958W        W95489  29.971  15.751   4.210
33959W        W95490  29.492  25.639  11.045
33960W        W95491   7.335  30.592  13.409
33961W        W95492  24.087   5.696   4.186
33962W        W95493  40.953  33.552   3.631
33963W        W95494  39.379  39.858   0.405
33964W        W95495  36.999  28.677  12.059
33965W        W95496  36.065  33.506  10.978
33966W        W95497   7.708   3.313   2.315
33967W        W95498  14.312   5.768   3.359
33968W        W95499  35.067  18.144  11.399
33969W        W95500  44.259  32.528   0.300
33970W        W95501  10.729  24.070   4.771
33971W        W95502  42.363   9.825   1.218
33972W        W95503  22.588  10.669  14.433
33973W        W95504  43.886  13.656  13.480
33974W        W95505   4.863  14.834   1.826
33975W        W95506   3.866  11.357   2.721
33976W        W95507  31.039  14.720   1.776
33977W        W95508  21.217  42.816  13.370
33978W        W95509  17.249  15.310  13.352
33979W        W95510  39.484   3.930   0.270
33980W        W95511  21.122  25.684   3.174
33981W        W95512  14.159  40.394   2.836
33982W        W95513  43.806   3.238  10.997
33983W        W95514  30.539  26.593   3.253
33984W        W95515   9.265   5.841   3.215
33985W        W95516   8.227  18.068  13.006
33986W        W95517   8.779   3.785  12.916
33987W        W95518   3.307  19.747   0.276
33988W        W95519   3.939   5.907  11.432
33989W        W95520  27.574  12.151  14.984
33990W        W95521  27.455  11.702   0.787
33991W        W95522  15.104  44.898  13.937
33992W        W95523  25.116  31.128  12.389
33993W        W95524  14.661  23.198   4.172
33994W        W95525  40.444  10.800  13.820
33995W        W95526   0.428  10.648  14.510
33996W        W95527   5.304  17.667  14.424
33997W        W95528  39.973  14.794   0.960
33998W        W95529  26.012  23.555  12.411
33999W        W95530  24.651  42.449  14.760
34000W        W95531  29.479  28.985   2.801
34001W        W95532  35.380  29.107   4.828
34002W        W95533   7.324  28.005  14.395
34003W        W95534  14.623  37.354   2.375
34004W        W95535   4.856  10.356  14.344
34005W        W95536  42.959  28.667  14.291
34006W        W95537  16.587  27.169   4.282
34007W        W95538  28.141  28.569  14.981
34008W        W95539  16.119  40.914   0.751
34009W        W95540  20.575  38.470  12.962
34010W        W95541  10.707  10.664   2.768
34011W        W95542   8.341  30.013  12.377
34012W        W95543  19.763  33.967  14.776
34013W        W95544   2.280  19.638  10.624
34014W        W95545  27.611  35.529  12.537
34015W        W95546   2.270  27.684  11.022
34016W        W95547  27.589  20.727  11.050
34017W        W95548   5.930   9.364   3.772
34018W        W95549  32.997  39.904   3.722
34019W        W95550  32.596  31.497  13.458
34020W        W95551  30.567  40.336   2.238
34021W        W95552   1.289  29.565   4.229
34022W        W95553  35.933  20.552   4.804
34023W        W95554  12.707  10.735  10.407
34024W        W95555  25.054  42.965  13.836
34025W        W95556  44.870  43.311   2.837
34026W        W95557  19.089   3.382  12.083
34027W        W95558  17.102  30.455   0.436
34028W        W95559  10.750  27.114   1.933
34029W        W95560  13.340  34.018  13.384
34030W        W95561  28.514  40.025  13.917
34031W        W95562  25.997   7.362  12.410
34032W        W95563  16.575  18.772  13.942
34033W        W95564  13.301  34.504  14.434
34034W        W95565   2.823  42.427   2.805
34035W        W95566  29.448  13.603   4.713
34036W        W95567   2.247   4.399  14.774
34037W        W95568  19.239  26.049  12.929
34038W        W95569  22.678  35.057   0.380
34039W        W95570  18.554  44.859   3.809
34040W        W95571  24.655   8.309   2.332
34041W        W95572  40.007  11.365   1.910
34042W        W95573  28.967  15.789  12.899
34043W        W95574   5.864  42.806  12.043
34044W        W95575  36.385  38.497  12.491
34045W        W95576   9.782  31.595  10.926
34046W        W95577   7.177   0.773   2.777
34047W        W95578  26.011  29.034   3.273
34048W        W95579  16.621  19.154  12.412
34049W        W95580  27.587  25.542  12.416
34050W        W95581  17.139  44.754  11.107
34051W        W95582  27.692   5.217   3.367
34052W        W95583   3.301  28.933   2.208
34053W        W95584  26.972   3.851   4.726
34054W        W95585   7.410  37.379   4.744
34055W        W95586  28.527  21.642   4.243
34056W        W95587   6.723  23.216   3.729
34057W        W95588  35.435   4.713   2.811
34058W        W95589  19.626  28.173   5.181
34059W        W95590  23.729  12.641   4.297
34060W        W95591  22.158  26.088   1.806
34061W        W95592  42.349   9.703   2.847
34062W        W95593  30.055  36.008  14.906
34063W        W95594  24.982  38.946  12.366
34064W        W95595  33.455  18.222  12.421
34065W        W95596  21.568  33.952  13.794
34066W        W95597  44.860  15.105  14.938
34067W        W95598  18.118  18.089  10.610
34068W        W95599   0.361  37.520  14.916
34069W        W95600  23.675  36.590  12.465
34070W        W95601  32.950  39.839  13.972
34071W        W95602  26.073   9.369  14.339
34072W        W95603  13.226  24.187  13.815
34073W        W95604  28.148  21.686   3.212
34074W        W95605  15.756  34.542  13.944
34075W        W95606  21.552  24.548  13.314
34076W        W95607  39.032  31.610  13.867
34077W        W95608  30.128  41.366  14.021
34078W        W95609  13.264   6.898   3.666
34079W        W95610  16.206  18.663   3.747
34080W        W95611  41.462  16.664   1.228
34081W        W95612   4.368  36.865  14.397
34082W        W95613  10.304   7.786   3.270
34083W        W95614  23.074  25.552  12.480
34084W        W95615  15.792  14.588  10.958
34085W        W95616  39.373  34.401   4.745
34086W        W95617   7.902   2.356  13.448
34087W        W95618  31.425  21.666   2.827
34088W        W95619  40.839   7.788  11.059
34089W        W95620  33.532  20.688   4.740
34090W        W95621  35.535  24.230  13.533
34091W        W95622  25.640  38.478  10.428
34092W        W95623  15.176   6.344   1.303
34093W        W95624   0.877  44.380  11.857
34094W        W95625   6.824  33.403  10.944
34095W        W95626  43.272  27.090  11.918
34096W        W95627  22.517  43.918  14.472
34097W        W95628  20.724  37.914  12.953
34098W        W95629  10.745  38.027  13.505
34099W        W95630  21.247   1.244  14.430
34100W        W95631  14.102  32.391   0.293
34101W        W95632  41.806  39.446  11.115
34102W        W95633  22.521  35.553  11.069
34103W        W95634  43.972   3.442  14.832
34104W        W95635  37.958  19.119  11.431
34105W        W95636  42.891   0.429  10.500
34106W        W95637  14.213   9.690   3.757
34107W        W95638  19.757  31.405  12.514
34108W        W95639  25.056  34.877  10.995
34109W        W95640  23.088  14.286  10.452
34110W        W95641   5.881   2.777   1.926
34111W        W95642  18.694  44.301  13.424
34112W        W95643  31.035  24.656   3.183
34113W        W95644  21.242   4.302   1.269
34114W        W95645  32.537  15.615  12.533
34115W        W95646  23.049  39.813   3.715
34116W        W95647  43.910  16.712   0.281
34117W        W95648  37.071   8.841   0.332
34118W        W95649  11.867  10.227   0.738
34119W        W95650  23.072   5.367   3.810
34120W        W95651  40.398  24.668   0.350
34121W        W95652  17.181  21.584  10.136
34122W        W95653  39.039   2.959   1.417
34123W        W95654  14.731  13.722  11.913
34124W        W95655  12.788  44.501   0.367
34125W        W95656  44.897  27.986   2.829
34126W        W95657  16.626  39.473   4.823
34127W        W95658   9.168  32.039   2.198
34128W        W95659   9.389  16.777  14.380
34129W        W95660  42.843  40.031  13.839
34130W        W95661   9.157  26.098  10.920
34131W        W95662   0.829  33.607   1.218
34132W        W95663  37.468  16.105  14.766
34133W        W95664  17.267  14.243   3.149
34134W        W95665  43.964   6.190   4.197
34135W        W95666  30.597  15.699   2.720
34136W        W95667  40.926  25.027   3.777
34137W        W95668  16.130  30.990   4.256
34138W        W95669  36.368   2.868   4.671
34139W        W95670  32.032  19.184   1.842
34140W        W95671  17.204  17.612  13.886
34141W        W95672   1.975  14.714  11.058
34142W        W95673   3.259   5.393  11.556
34143W        W95674  17.568  35.472  13.406
34144W        W95675  13.281  12.239   4.169
34145W        W95676  37.046  11.276   1.358
34146W        W95677  24.480  28.454   2.851
34147W        W95678  28.573  29.967  11.416
34148W        W95679  19.226  24.679  14.770
34149W        W95680  32.572   0.486  10.555
34150W        W95681  35.535  20.646  13.488
34151W        W95682  20.711  43.943  12.570
34152W        W95683   6.293   3.405   0.943
34153W        W95684  32.961  23.067   4.318
34154W        W95685  42.465  12.675  13.048
34155W        W95686  24.195  23.199   4.772
34156W        W95687  17.293  34.588  11.893
34157W        W95688  44.294  32.581   2.871
34158W        W95689  40.029   2.375   0.881
34159W        W95690   4.836  11.210   1.294
34160W        W95691  21.122   8.760  11.994
34161W        W95692  22.205  40.342   3.640
34162W        W95693  16.107   5.925  13.424
34163W        W95694  31.922  24.500   2.199
34164W        W95695   5.861  24.613  14.867
34165W        W95696   6.342  44.869  11.065
34166W        W95697  33.009  27.569  11.393
34167W        W95698  43.010  23.078  13.499
34168W        W95699  41.935  30.474   4.619
34169W        W95700   5.318  27.457   1.845
34170W        W95701  20.192   6.835   1.368
34171W        W95702   2.428  15.211  12.473
34172W        W95703  43.801  24.530  12.919
34173W        W95704  23.090  43.497  14.325
34174W        W95705  43.003  11.257   2.860
34175W        W95706  10.213  11.819   3.151
34176W        W95707   9.274  11.146  14.842
34177W        W95708  42.323  36.080  14.028
34178W        W95709  37.531  28.543  10.404
34179W        W95710  27.060  34.870  12.824
34180W        W95711  11.685  21.538  13.048
34181W        W95712  17.719   2.866   3.182
34182W        W95713  14.677  37.382   1.854
34183W        W95714  33.070  30.490   1.407
34184W        W95715  33.971  43.333   2.368
34185W        W95716   6.875  38.922   1.816
34186W        W95717  11.265  12.184   2.698
34187W        W95718  29.125  29.481   4.676
34188W        W95719  41.530  16.155  13.836
34189W        W95720  37.012  36.529  12.026
34190W        W95721  44.425  40.474   2.750
34191W        W95722  26.962  41.402   0.366
34192W        W95723   3.805  15.207   0.830
34193W        W95724  40.985  24.983  14.758
34194W        W95725  29.020  34.048  12.500
34195W        W95726  32.433  27.969   3.260
34196W        W95727  36.367  34.377  11.103
34197W        W95728  16.154  36.418   1.799
34198W        W95729  19.247  37.501   3.309
34199W        W95730   0.478  16.736   3.284
34200W        W95731  38.394   7.302  11.020
34201W        W95732  31.525  10.237  10.974
34202W        W95733  21.159  27.081   5.277
34203W        W95734  22.737  35.046   2.744
34204W        W95735  39.894  30.541  14.846
34205W        W95736  12.809  41.930   0.775
34206W        W95737  24.675  38.920   0.954
34207W        W95738  17.696   9.753   4.347
34208W        W95739  11.628   3.401  14.833
34209W        W95740  14.807  32.130   1.287
34210W        W95741   0.940  29.573  12.897
34211W        W95742  36.588  19.724  11.572
34212W        W95743  31.995   7.195  11.478
34213W        W95744  26.574  35.572  13.811
34214W        W95745  25.544  21.714  12.066
34215W        W95746   6.700   2.914   4.711
34216W        W95747  21.115  41.982  11.398
34217W        W95748  39.432  15.727   3.246
34218W        W95749   8.676  27.581   4.663
34219W        W95750  26.479  42.384  12.369
34220W        W95751  16.740  32.546  13.031
34221W        W95752  34.501  40.851  13.852
34222W        W95753   9.651  33.487   0.340
34223W        W95754  22.094  26.675   9.960
34224W        W95755  39.534  23.086   4.622
34225W        W95756  28.495   4.739   4.296
34226W        W95757  11.373  31.002  11.871
34227W        W95758  22.244  34.946   0.920
34228W        W95759   4.397  38.471  10.942
34229W        W95760  23.610   2.808   2.722
34230W        W95761  26.164  11.723   2.199
34231W        W95762  28.569   6.274   5.153
34232W        W95763  38.507  26.622  13.971
34233W        W95764  30.509   0.481  14.854
34234W        W95765   7.185  22.697  14.926
34235W        W95766  41.016   6.755   2.220
34236W        W95767  12.269  12.319   2.404
34237W        W95768  22.053  28.506  12.992
34238W        W95769   6.331   7.723  14.983
34239W        W95770  36.054  13.724   1.696
34240W        W95771  25.063  36.080   0.810
34241W        W95772  10.276  39.400  12.824
34242W        W95773  30.484  15.230   5.096
34243W        W95774  10.822  11.223   3.817
34244W        W95775  38.926  26.177   0.368
34245W        W95776  21.166  26.986   0.296
34246W        W95777  32.533  38.869   1.704
34247W        W95778  12.328  17.266   3.327
34248W        W95779   3.321  23.622   5.087
34249W        W95780  27.066   7.253   1.276
34250W        W95781  41.872  36.975   0.301
34251W        W95782  13.346  37.532  11.857
34252W        W95783  44.903  27.151  13.058
34253W        W95784  34.957  11.310   1.743
34254W        W95785  38.891  15.318  13.984
34255W        W95786  28.159  22.562  10.161
34256W        W95787  19.210  15.229  11.114
34257W        W95788  30.143  12.325  14.789
34258W        W95789  18.136  21.143   2.386
34259W        W95790  41.918  21.737   3.168
34260W        W95791  28.099  25.587   0.952
34261W        W95792  35.000  26.000  14.307
34262W        W95793  21.669  15.722   3.251
34263W        W95794  15.305   4.383   0.957
34264W        W95795  39.448   4.423  10.523
34265W        W95796  35.489  18.673   3.663
34266W        W95797  40.869  26.193   3.186
34267W        W95798  43.844   0.829  13.036
34268W        W95799  18.748  29.098   1.926
34269W        W95800  32.932  19.118   0.785
34270W        W95801  29.544  21.090   3.204
34271W        W95802  25.090   6.311  12.855
34272W        W95803   1.733  42.383   4.778
34273W        W95804  41.914  40.809  11.465
34274W        W95805   0.475  42.336   3.838
34275W        W95806  43.422  10.241   3.659
34276W        W95807   8.762  35.008   3.701
34277W        W95808  33.623  29.631   5.084
34278W        W95809   9.823  24.544  12.577
34279W        W95810  35.095  12.684  11.871
34280W        W95811  31.542  23.240   0.411
34281W        W95812  42.865   2.355  12.954
34282W        W95813  40.837  36.971  11.464
34283W        W95814  32.587  19.688   4.197
34284W        W95815  13.666   1.822   4.655
34285W        W95816  11.800  25.038   4.326
34286W        W95817  41.866  34.925   4.830
34287W        W95818  17.574  37.545  11.990
34288W        W95819   6.716  22.126  13.891
34289W        W95820   6.257  27.979   5.168
34290W        W95821   6.419  31.484  10.507
34291W        W95822  21.168   5.242  13.366
34292W        W95823  36.010  15.775  10.080
34293W        W95824  13.276  39.039  12.506
34294W        W95825  36.989  37.008   1.315
34295W        W95826   1.924  23.990   3.182
34296W        W95827   0.366  20.097   0.950
34297W        W95828   9.650  29.599   3.214
34298W        W95829  11.675   8.722  11.021
34299W        W95830  26.117  37.571   4.764
34300W        W95831  12.821  27.531  12.547
34301W        W95832  33.921   6.372  14.978
34302W        W95833   9.868  23.011   1.287
34303W        W95834  18.067  15.146   4.255
34304W        W95835  29.493  42.930   3.646
34305W        W95836  31.101  20.614   4.759
34306W        W95837   8.742  44.447   4.669
34307W        W95838  39.960  24.591  11.539
34308W        W95839  12.286  19.068  10.472
34309W        W95840  11.791  35.582   0.768
34310W        W95841  30.149  24.072   1.281
34311W        W95842  10.817   1.889  12.456
34312W        W95843  24.692  37.541   4.798
34313W        W95844  22.611  21.609   2.872
34314W        W95845  38.988  10.794  13.982
34315W        W95846  42.929  15.796  14.426
34316W        W95847   7.824  19.229  12.339
34317W        W95848  34.407  28.646  11.513
34318W        W95849   3.430  25.147   1.714
34319W        W95850  24.139  15.286  12.521
34320W        W95851  13.755  22.006  14.410
34321W        W95852  35.002  20.731  10.437
34322W        W95853  18.064  22.635  10.036
34323W        W95854  10.153  40.036  11.440
34324W        W95855  13.823   5.335   2.232
34325W        W95856   0.374  41.798  14.834
34326W        W95857  34.962  20.216   0.261
34327W        W95858  21.632  35.961  11.922
34328W        W95859  11.760  23.045  11.925
34329W        W95860  20.243   7.760   3.842
34330W        W95861  22.637  11.621  11.514
34331W        W95862  44.973  34.941  11.101
34332W        W95863   3.891  25.690   1.390
34333W        W95864  38.521   8.725  11.004
34334W        W95865  33.398   6.386  11.123
34335W        W95866  17.589   4.840  12.430
34336W        W95867  12.708  23.192  10.560
34337W        W95868  44.780  11.315   4.248
34338W        W95869   6.768  15.776  14.333
34339W        W95870  14.780   9.295  13.545
34340W        W95871  34.424   7.232   1.697
34341W        W95872  37.514  30.948   3.766
34342W        W95873  14.596  12.277  13.902
34343W        W95874   1.325   2.232  12.922
34344W        W95875  40.951   7.807  11.487
34345W        W95876  14.676  15.152  13.997
34346W        W95877  25.520  44.298  12.489
34347W        W95878   4.310   5.925   4.159
34348W        W95879   4.934  37.981  13.325
34349W        W95880  16.212  34.109  12.394
34350W        W95881  34.966   2.324   3.715
34351W        W95882  28.672  31.412  10.446
34352W        W95883  26.113  24.127   0.279
34353W        W95884  20.702  10.366   3.822
34354W        W95885  43.359  16.150  12.096
34355W        W95886  20.622  19.254   4.666
34356W        W95887   1.765  11.796  10.461
34357W        W95888  23.512  10.365   0.742
34358W        W95889  19.073  23.707  10.537
34359W        W95890  35.441   3.924   2.784
34360W        W95891  24.120   9.825  11.596
34361W        W95892   3.224   6.913   4.271
34362W        W95893  17.762  23.624   1.875
34363W        W95894  44.298  28.944  14.854
34364W        W95895  20.160  21.205  13.314
34365W        W95896  31.011  40.976   1.908
34366W        W95897  27.590   0.926   1.444
34367W        W95898  42.363   3.385  11.897
34368W        W95899  39.533  12.648   1.859
34369W        W95900  36.892   8.285   0.842
34370W        W95901   1.323   8.784  14.766
34371W        W95902  21.113  29.425   4.749
34372W        W95903   3.426  11.144  11.880
34373W        W95904  44.390  28.990  13.940
34374W        W95905  16.144  41.933   4.330
34375W        W95906  15.131  15.097  14.415
34376W        W95907  36.858   5.254  13.049
34377W        W95908  12.853  17.234   0.375
34378W        W95909  25.665   5.707   2.416
34379W        W95910   3.915  35.073  11.375
34380W        W95911   3.861   3.813  14.294
34381W        W95912  10.350  34.593   4.115
34382W        W95913  40.469   3.394   9.978
34383W        W95914  39.380  34.466   2.226
34384W        W95915  26.204   1.461   3.741
34385W        W95916  30.129  37.377  11.010
34386W        W95917  33.994  38.359  11.564
34387W        W95918  25.658   2.311  12.390
34388W        W95919  16.796  43.934   4.184
34389W        W95920  40.526   6.877  12.969
34390W        W95921   4.851  35.942  10.147
34391W        W95922  33.060  26.636  13.931
34392W        W95923  24.607  20.081   3.307
34393W        W95924   2.866   8.727  13.389
34394W        W95925  29.506  17.596  13.003
34395W        W95926  33.992  32.536   4.226
34396W        W95927  39.463   2.419   4.623
34397W        W95928  13.612  16.612   0.393
34398W        W95929  17.225  19.728  11.096
34399W        W95930  26.631  25.158  11.951
34400W        W95931  30.441   5.886  12.926
34401W        W95932  20.061  27.691  13.393
34402W        W95933   2.898   5.901  10.545
34403W        W95934  25.211  32.915   3.681
34404W        W95935  10.297  37.992  13.393
34405W        W95936   2.467  43.985  13.402
34406W        W95937   2.915   0.878  11.563
34407W        W95938  27.544   8.261  11.892
34408W        W95939  25.608  36.957  14.275
34409W        W95940  16.568  44.891  11.956
34410W        W95941  39.941   6.250  10.936
34411W        W95942   5.760   9.377   2.303
34412W        W95943   2.407  32.051   9.987
34413W        W95944  31.627   8.322   4.652
34414W        W95945   3.320  44.332  13.483
34415W        W95946  10.666  20.574   1.287
34416W        W95947  18.218   1.421   3.636
34417W        W95948  33.008  19.284  11.433
34418W        W95949  32.420  26.965   3.282
34419W        W95950  40.981  19.607  11.382
34420W        W95951  18.148  29.507   4.694
34421W        W95952  33.108   6.767   2.752
34422W        W95953  31.966   2.335  14.869
34423W        W95954  33.118  33.600   3.790
34424W        W95955  28.080   8.310   2.837
34425W        W95956  30.148  14.243  10.579
34426W        W95957  26.141  44.925   4.700
34427W        W95958  21.229  43.883  11.871
34428W        W95959  18.135  10.313   2.747
34429W        W95960  25.120  27.628   9.943
34430W        W95961   0.925   7.826   0.265
34431W        W95962  35.453  27.663  11.422
34432W        W95963  37.896   1.761  14.006
34433W        W95964  13.179  13.280  14.873
34434W        W95965  33.615   4.702  11.020
34435W        W95966  17.770  37.498   4.632
34436W        W95967  20.558  32.058  12.062
34437W        W95968  10.334  42.346  11.924
34438W        W95969  33.497   3.250   2.803
34439W        W95970   7.738  38.539   4.656
34440W        W95971  37.917   7.184   0.398
34441W        W95972  31.540  20.105   1.360
34442W        W95973   6.721  39.473   2.238
34443W        W95974   7.194  42.807  14.843
34444W        W95975   2.285   9.777   0.905
34445W        W95976  15.087  32.079   1.234
34446W        W95977  39.846  36.890   1.438
34447W        W95978  18.784  23.098  12.870
34448W        W95979   2.950  43.002   3.345
34449W        W95980   0.769  26.496  12.538
34450W        W95981  43.441   3.739   3.678
34451W        W95982  41.481  22.172   1.858
34452W        W95983  27.981  11.802  12.829
34453W        W95984  21.080  13.211  12.923
34454W        W95985  41.906  18.284   1.334
34455W        W95986   6.374  35.855   2.840
34456W        W95987  40.950   6.828  13.361
34457W        W95988   3.871  21.598   2.243
34458W        W95989  20.046   1.929   4.635
34459W        W95990  43.864  41.485   0.263
34460W        W95991  15.724  21.534   2.719
34461W        W95992  12.711  30.616   2.389
34462W        W95993   7.387   0.853  10.571
34463W        W95994  20.228   8.219   2.801
34464W        W95995  32.478   6.775  14.509
34465W        W95996  14.332   4.427  13.836
34466W        W95997  39.826  20.685   1.775
34467W        W95998  38.385  15.584   3.253
34468W        W95999  18.772   1.911   5.150
34469W        W96000   1.268  36.855  12.895
34470W        W96001  25.195  13.288   2.714
34471W        W96002  30.087  20.568  13.003
34472W        W96003  12.281   0.930  14.827
34473W        W96004  22.216  35.977   2.302
34474W        W96005  29.926  37.960   0.392
34475W        W96006  35.503   3.858   3.240
34476W        W96007   6.367  20.245   4.231
34477W        W96008  17.762  28.667  10.939
34478W        W96009  28.983  30.639  12.946
34479W        W96010  35.979  31.959  11.896
34480W        W96011  12.183  10.835  12.860
34481W        W96012   0.251  37.368   2.821
34482W        W96013  36.385  38.898   2.336
34483W        W96014  14.330  31.640  14.436
34484W        W96015   2.290   4.730   5.305
34485W        W96016   4.797  15.804   3.644
34486W        W96017  15.813   2.429   2.805
34487W        W96018  10.324  16.612  13.934
34488W        W96019  33.074  33.413   4.680
34489W        W96020  19.227  12.167  14.340
34490W        W96021   5.395  21.154   1.823
34491W        W96022  29.962   5.354  14.841
34492W        W96023   4.254  17.139   2.352
34493W        W96024   7.245  43.905  13.388
34494W        W96025   4.756   8.336  14.019
34495W        W96026  27.108  19.650   3.695
34496W        W96027  23.611   6.287   1.868
34497W        W96028   0.258  26.103   2.246
34498W        W96029  18.731  29.953   4.212
34499W        W96030   0.843   1.920   3.338
34500W        W96031  35.400  26.595  13.914
34501W        W96032  38.534  33.604  13.545
34502W        W96033  35.898  13.132   4.182
34503W        W96034  32.037   5.869   1.225
34504W        W96035  11.694  12.345   1.260
34505W        W96036  21.616   0.940   1.422
34506W        W96037  44.850  29.440   0.955
34507W        W96038  11.154   7.897  10.945
34508W        W96039  11.851   4.911   0.931
34509W        W96040  26.056  28.161  13.866
34510W        W96041  13.810  23.551   3.366
34511W        W96042  40.946  32.930  14.758
34512W        W96043  26.612  18.190   1.822
34513W        W96044   8.876  31.151  12.505
34514W        W96045  17.575  42.777   1.831
34515W        W96046   9.252  13.736   1.849
34516W        W96047  44.460  39.876   2.693
34517W        W96048  27.119  20.667  10.452
34518W        W96049   8.828  20.722  13.467
34519W        W96050  19.729   6.861   4.156
34520W        W96051   1.856  11.632   0.847
34521W        W96052  30.531  36.976  14.992
34522W        W96053   7.412  19.156   3.796
34523W        W96054  25.094  25.090  10.489
34524W        W96055  10.373  25.685   2.296
34525W        W96056  36.885   3.928  12.828
34526W        W96057  24.709  13.107   3.631
34527W        W96058  28.583   2.414   3.387
34528W        W96059  24.973  10.677  12.379
34529W        W96060  42.968  30.580  10.887
34530W        W96061  28.929   5.357  13.856
34531W        W96062  41.034  20.191  12.076
34532W        W96063  27.979  24.688   1.793
34533W        W96064  20.698   6.871  13.045
34534W        W96065  14.824  21.114   1.896
34535W        W96066  39.850   3.893   3.723
34536W        W96067   1.416  22.595  12.447
34537W        W96068  21.518  33.543   2.737
34538W        W96069  34.014  23.212   3.319
34539W        W96070   2.793  37.416   0.370
34540W        W96071  25.084  27.195   0.278
34541W        W96072  32.411  25.970   3.166
34542W        W96073  39.853  29.437   3.167
34543W        W96074  27.020  18.215   2.901
34544W        W96075   8.710   6.727   1.705
34545W        W96076  32.116  20.543   3.755
34546W        W96077  36.383  14.314  12.505
34547W        W96078  34.046  31.118  11.927
34548W        W96079  26.069  35.463   4.215
34549W        W96080  12.346  22.677   0.936
34550W        W96081  31.077  23.560  12.057
34551W        W96082  43.415  31.557  13.804
34552W        W96083  31.405  19.546  11.611
34553W        W96084  28.663  18.712   0.396
34554W        W96085  42.879  14.332  14.482
34555W        W96086  15.150  42.028   4.744
34556W        W96087  40.335  40.538  12.437
34557W        W96088   8.765  17.077   1.918
34558W        W96089   8.702  16.715   1.389
34559W        W96090  15.653  13.749  12.946
34560W        W96091  11.353  40.939  12.546
34561W        W96092  34.408  36.940  14.510
34562W        W96093   4.272   1.928   1.280
34563W        W96094  31.493  17.287  11.995
34564W        W96095  34.080  43.831   4.150
34565W        W96096  34.398  41.847   2.326
34566W        W96097  25.685  36.552   0.297
34567W        W96098  30.492  40.334   0.956
34568W        W96099  36.002  36.854  13.049
34569W        W96100  36.990  30.990  14.314
34570W        W96101  11.267  38.982   4.707
34571W        W96102  43.850  31.067  10.537
34572W        W96103  26.070  17.679   1.401
34573W        W96104  22.710  11.669   5.242
34574W        W96105  34.390  30.548  11.451
34575W        W96106   2.468  23.179   3.632
34576W        W96107  14.140  36.413   1.397
34577W        W96108  10.201   8.783   0.380
34578W        W96109   9.224  41.505  10.569
34579W        W96110  16.784  33.072   2.825
34580W        W96111  31.131  12.215  13.423
34581W        W96112   5.231   5.419  11.025
34582W        W96113  35.993   8.783  12.476
34583W        W96114   2.818  20.719   1.408
34584W        W96115  18.718  14.693   0.740
34585W        W96116   8.197  17.186   1.412
34586W        W96117   5.303  10.257  10.945
34587W        W96118  29.566  35.373   3.148
34588W        W96119  21.567  37.883   2.705
34589W        W96120  39.941  30.013  14.765
34590W        W96121  31.453  10.152  14.973
34591W        W96122   8.298  40.918   3.760
34592W        W96123   4.708  16.219  12.956
34593W        W96124   3.291   9.648  13.823
34594W        W96125   2.282  29.151  10.538
34595W        W96126  23.033   3.400  14.341
34596W        W96127  39.995  19.569  13.479
34597W        W96128  41.397  11.170   3.383
34598W        W96129  19.714   1.892   4.629
34599W        W96130  12.358  41.943   1.277
34600W        W96131  39.551   6.902   0.434
34601W        W96132   4.740  11.304  11.397
34602W        W96133   0.465  34.561   2.733
34603W        W96134  28.521  38.373  11.397
34604W        W96135   4.759   4.413   4.652
34605W        W96136  22.209  18.727   0.274
34606W        W96137  19.273  23.984   3.661
34607W        W96138  32.533  29.037  13.842
34608W        W96139   2.757   6.828  10.642
34609W        W96140  40.498  26.612  13.978
34610W        W96141  31.429   1.469  12.078
34611W        W96142  44.006  41.945  11.605
34612W        W96143  40.015  25.972   0.482
34613W        W96144  26.147  33.914  12.049
34614W        W96145  44.770  15.109   3.678
34615W        W96146  31.117   7.246  10.539
34616W        W96147  44.949   0.261  10.976
34617W        W96148  29.569  27.498   0.299
34618W        W96149  10.859  25.143  14.860
34619W        W96150   8.257  31.520   1.343
34620W        W96151  44.788  15.615   2.355
34621W        W96152   8.877  42.493   1.732
34622W        W96153  13.295   1.292  11.072
34623W        W96154  27.495  19.118   3.674
34624W        W96155  13.294   8.234  13.327
34625W        W96156  14.263  33.087   1.850
34626W        W96157   3.261  26.080   3.868
34627W        W96158  10.802  31.082   3.784
34628W        W96159  25.625  32.064   4.122
34629W        W96160  32.073  38.513  14.335
34630W        W96161  14.154  19.065  10.624
34631W        W96162  21.603  38.019  14.379
34632W        W96163  37.554  20.594  12.082
34633W        W96164  20.569  14.747   0.956
34634W        W96165  29.500  22.204   0.804
34635W        W96166  43.424  29.062   2.400
34636W        W96167   9.839  40.329  12.396
34637W        W96168  17.144  44.498  10.617
34638W        W96169   0.416  24.480  12.526
34639W        W96170  22.122  40.458   3.163
34640W        W96171   6.795  28.166  12.424
34641W        W96172  31.115  38.355  14.895
34642W        W96173  32.940  39.353   3.760
34643W        W96174   5.810  22.006   1.274
34644W        W96175  33.411  11.225   0.935
34645W        W96176  29.485  35.965   4.659
34646W        W96177  25.570  10.310   1.872
34647W        W96178  25.550  21.722  13.826
34648W        W96179  11.335  27.125   2.894
34649W        W96180   0.989   5.395   4.775
34650W        W96181  20.714  13.800   4.686
34651W        W96182  31.952  30.061  13.917
34652W        W96183  22.577   1.368   1.802
34653W        W96184   2.443  16.242  12.461
34654W        W96185   0.431   1.903   1.288
34655W        W96186   3.274  42.364   4.124
34656W        W96187  14.676  18.745   4.231
34657W        W96188  31.028  16.786   9.447
34658W        W96189  36.089   8.858  13.367
34659W        W96190  19.740  42.320  12.925
34660W        W96191  16.753  13.251  14.902
34661W        W96192  12.187  12.824   1.403
34662W        W96193  39.331   1.364   4.723
34663W        W96194   1.474  21.070  11.528
34664W        W96195   9.214  16.728  11.575
34665W        W96196  15.740  18.758  14.995
34666W        W96197  34.375  35.894   1.401
34667W        W96198   8.266  23.034   4.691
34668W        W96199  26.662  22.131  14.958
34669W        W96200  43.764  20.623   1.418
34670W        W96201  44.448   9.651   0.875
34671W        W96202   5.929  32.525   0.466
34672W        W96203  42.006  39.053  11.899
34673W        W96204  17.108   9.351  10.405
34674W        W96205  21.214  33.891  10.518
34675W        W96206  25.558  13.280  13.869
34676W        W96207   3.347   5.911   4.188
34677W        W96208  14.192  24.601  14.482
34678W        W96209   3.818  25.626   2.339
34679W        W96210  29.442  29.928   1.837
34680W        W96211  43.813   5.414   1.901
34681W        W96212  32.448  25.061   1.234
34682W        W96213  22.089   2.413   3.332
34683W        W96214  16.159  35.577  14.380
34684W        W96215   7.309  43.996   1.749
34685W        W96216  33.580  37.512  14.959
34686W        W96217  37.923   8.885   3.780
34687W        W96218  23.700  36.015  12.522
34688W        W96219  23.074  40.957  13.792
34689W        W96220   3.719  32.452   0.770
34690W        W96221  27.620  18.737   1.737
34691W        W96222  44.414  24.715   4.220
34692W        W96223   4.804  25.199  14.896
34693W        W96224  33.615  11.809   0.388
34694W        W96225  33.516  23.046   2.396
34695W        W96226  10.205  33.513  11.901
34696W        W96227  22.660  28.650  13.537
34697W        W96228  12.291  31.928  14.462
34698W        W96229  29.137   4.344  11.979
34699W        W96230  40.319  26.628   5.238
34700W        W96231  42.419  10.633   1.729
34701W        W96232  20.526   1.474   0.318
34702W        W96233  16.272  44.405  11.564
34703W        W96234  11.204  28.548  11.094
34704W        W96235   1.298  21.733  12.567
34705W        W96236  13.249  19.057  10.613
34706W        W96237   1.315  16.722  12.967
34707W        W96238  31.553  15.183   4.740
34708W        W96239  43.775   4.783  13.899
34709W        W96240  19.561  14.653  10.454
34710W        W96241  14.794  15.680   5.181
34711W        W96242  38.379  10.198  11.085
34712W        W96243  42.825  15.306   3.165
34713W        W96244  34.083  21.741   0.917
34714W        W96245  32.596   8.182  11.049
34715W        W96246  13.166  27.564   0.914
34716W        W96247  20.614  32.411   3.352
34717W        W96248  13.235  22.631  10.156
34718W        W96249  27.010  12.333   3.191
34719W        W96250  33.032  28.969  11.434
34720W        W96251  32.505  10.140   3.322
34721W        W96252  30.925  23.624   9.927
34722W        W96253  29.631  22.044   3.633
34723W        W96254  30.101  13.168  14.886
34724W        W96255  41.018  35.964   4.265
34725W        W96256  19.547  19.656   5.090
34726W        W96257  28.125  18.212   4.272
34727W        W96258  10.799   7.668   0.279
34728W        W96259  44.376  36.010  13.913
34729W        W96260  27.164   4.258   0.366
34730W        W96261   6.759  10.231  11.498
34731W        W96262  18.563  42.900  10.103
34732W        W96263  10.236  18.258  12.395
34733W        W96264  35.069   6.192  11.951
34734W        W96265   2.364  34.412  10.148
34735W        W96266   8.696  19.561  12.341
34736W        W96267   4.223  14.826   4.674
34737W        W96268  12.613  13.727  11.535
34738W        W96269  20.603  43.846  13.482
34739W        W96270   7.671  14.150   4.827
34740W        W96271  10.785  27.045  11.073
34741W        W96272  13.726   2.816  12.386
34742W        W96273  31.939  28.552   3.699
34743W        W96274  42.817  13.265   2.193
34744W        W96275  22.671  24.674   4.769
34745W        W96276  39.905  31.569  14.776
34746W        W96277  19.147   2.416  13.849
34747W        W96278  38.846   2.463   3.162
34748W        W96279  22.111  17.285   1.749
34749W        W96280  23.586   9.255   2.700
34750W        W96281   8.181  26.603   1.333
34751W        W96282  24.622  32.401  11.037
34752W        W96283  22.998  32.025   3.163
34753W        W96284  23.232   2.883   4.817
34754W        W96285  25.988   1.843   1.795
34755W        W96286  24.531  42.399   1.870
34756W        W96287  33.430  14.178  13.880
34757W        W96288  11.840  11.189  10.992
34758W        W96289   9.257  31.905   1.808
34759W        W96290  42.298   1.752  11.075
34760W        W96291   3.269  31.481  13.801
34761W        W96292  16.123  27.097   1.247
34762W        W96293  13.129  19.576   5.248
34763W        W96294  39.404  17.088  14.460
34764W        W96295   9.326  23.594  13.963
34765W        W96296  29.537  32.596  13.382
34766W        W96297  15.298  29.481  12.914
34767W        W96298  41.892  34.486  12.857
34768W        W96299  17.651   7.326  10.539
34769W        W96300  16.110  14.235   4.345
34770W        W96301  22.618  33.963   1.862
34771W        W96302  12.759   2.805  13.037
34772W        W96303   0.261  35.403  12.065
34773W        W96304  23.176  43.014   3.672
34774W        W96305  25.115  35.874  11.591
34775W        W96306  43.768  40.448   4.833
34776W        W96307  39.049   4.906   1.316
34777W        W96308  22.694  25.556  14.814
34778W        W96309  23.224  18.772  14.787
34779W        W96310  29.096  16.793  12.043
34780W        W96311   6.352  25.153  10.481
34781W        W96312  20.115  11.370   4.240
34782W        W96313  15.196  26.522   0.387
34783W        W96314  37.000   5.311  12.470
34784W        W96315  31.979  25.189  13.479
34785W        W96316  18.693   1.317  10.434
34786W        W96317  31.063   5.422   0.904
34787W        W96318  29.662  39.948  12.061
34788W        W96319  14.239  13.310   4.642
34789W        W96320  42.415   9.364  14.474
34790W        W96321  19.746   4.320  13.829
34791W        W96322  20.753  17.123   3.293
34792W        W96323  28.602  44.418  11.975
34793W        W96324  17.273  29.659  14.941
34794W        W96325  27.950  19.735  12.902
34795W        W96326   6.911  25.029   4.617
34796W        W96327  37.513  32.464   2.786
34797W        W96328  42.853  14.275   2.731
34798W        W96329  41.949  20.653  13.391
34799W        W96330  29.057  34.510  12.569
34800W        W96331  39.380  18.655   0.741
34801W        W96332   3.317  31.558  10.547
34802W        W96333  29.003   8.791  13.384
34803W        W96334  43.504  37.896  10.981
34804W        W96335  37.565  20.052  12.358
34805W        W96336   2.431  37.868   0.908
34806W        W96337   8.844  20.086  14.816
34807W        W96338  22.739  23.513   1.797
34808W        W96339  26.529   2.438  10.642
34809W        W96340   4.914  44.993  12.375
34810W        W96341  41.403  16.089   2.796
34811W        W96342  29.556   6.232   3.303
34812W        W96343  16.776   2.724  12.495
34813W        W96344  44.449  14.782  10.591
34814W        W96345  32.409   3.452   0.914
34815W        W96346  11.785  39.830  10.427
34816W        W96347  29.667  44.994  13.043
34817W        W96348  27.115   1.405   3.736
34818W        W96349   9.747  33.972  13.041
34819W        W96350  16.253  33.075  12.389
34820W        W96351  11.842  36.473  13.510
34821W        W96352  43.988  12.710   0.450
34822W        W96353  14.336   0.755   0.412
34823W        W96354  16.634  14.618  12.890
34824W        W96355  26.463  29.102   2.362
34825W        W96356  20.647  35.578  13.467
34826W        W96357  33.608  19.150  13.057
34827W        W96358  15.252  26.638   0.823
34828W        W96359  43.808  26.629   3.821
34829W        W96360  13.309  43.002  14.032
34830W        W96361  20.655  40.825   1.212
34831W        W96362   4.262  31.570  11.496
34832W        W96363  27.141   1.963   0.342
34833W        W96364  31.059   9.851  14.032
34834W        W96365  18.632  14.179  14.354
34835W        W96366   0.778  35.920   0.299
34836W        W96367  28.564  31.056  11.560
34837W        W96368   0.918   9.869   2.824
34838W        W96369  33.562  44.808  14.805
34839W        W96370   8.222  43.385   0.261
34840W        W96371  12.736  32.902  13.509
34841W        W96372  41.835  32.947  14.830
34842W        W96373   5.917  30.654  11.489
34843W        W96374  39.918  40.482   3.263
34844W        W96375   6.846  12.329  12.056
34845W        W96376  16.213   2.434   1.261
34846W        W96377  31.136   6.346  14.982
34847W        W96378  18.766  34.011  10.606
34848W        W96379  14.221  33.384   3.220
34849W        W96380  26.626  36.850  14.848
34850W        W96381  13.841  32.081  11.925
34851W        W96382  15.201  25.547   2.285
34852W        W96383  11.784  19.671  10.610
34853W        W96384  28.169  11.252  11.110
34854W        W96385  13.813  39.486   2.783
34855W        W96386  28.573  27.570  11.043
34856W        W96387   2.813  18.547  12.932
34857W        W96388  26.634  34.588  11.961
34858W        W96389   0.311  10.770   1.445
34859W        W96390   1.326  35.916  12.855
34860W        W96391  32.038   3.390   4.158
34861W        W96392  14.602  32.629  12.054
34862W        W96393  18.098  33.057   3.200
34863W        W96394   5.767   5.920  12.049
34864W        W96395  31.014  21.749  12.858
34865W        W96396  23.070  15.200   4.603
34866W        W96397  44.266  31.572  11.064
34867W        W96398  35.015  33.077   4.133
34868W        W96399  13.815  39.882   1.391
34869W        W96400   4.308  31.513   1.328
34870W        W96401  16.100   5.785   0.914
34871W        W96402  29.952  26.095  10.555
34872W        W96403  16.626   1.941  13.800
34873W        W96404  32.399  44.958  11.469
34874W        W96405  11.293   2.298  14.311
34875W        W96406  17.767  33.467  12.369
34876W        W96407  42.817  26.090  12.566
34877W        W96408   7.821  12.122  14.378
34878W        W96409   8.716  32.887  12.511
34879W        W96410  40.362  42.321   1.772
34880W        W96411  33.541  19.624   2.364
34881W        W96412  21.164  24.225  14.843
34882W        W96413  15.634  24.074   1.770
34883W        W96414  33.099  22.519  14.345
34884W        W96415  35.357  27.636   0.957
34885W        W96416  32.072   4.804  13.884
34886W        W96417  41.363  12.785   1.245
34887W        W96418  14.313  33.427  10.909
34888W        W96419  36.082  26.073  14.384
34889W        W96420  26.476  32.454  11.530
34890W        W96421  33.481  22.138  13.950
34891W        W96422  40.813  31.980  10.897
34892W        W96423   0.270   2.749  14.390
34893W        W96424  32.522  11.857  14.314
34894W        W96425  35.968  25.062  14.851
34895W        W96426  25.643  22.602   1.724
34896W        W96427  16.792  39.911   1.707
34897W        W96428  14.292  12.686   3.802
34898W        W96429   8.836  21.096  14.339
34899W        W96430  29.521  31.955   1.801
34900W        W96431  14.173  28.482  12.064
34901W        W96432  14.688  38.445  12.922
34902W        W96433  37.975  23.157  11.612
34903W        W96434   3.736  12.630   2.211
34904W        W96435  31.520  33.517  14.316
34905W        W96436  42.988  30.483  10.526
34906W        W96437  35.450  42.868   3.385
34907W        W96438  36.086  23.710  13.796
34908W        W96439   8.733   2.258   5.723
34909W        W96440  28.476  12.264   4.602
34910W        W96441  21.072  22.166  13.028
34911W        W96442  34.946  15.729  13.511
34912W        W96443  37.864  30.442   3.291
34913W        W96444  34.613  44.756  12.481
34914W        W96445   8.888  42.776  13.865
34915W        W96446   3.436  29.030   4.145
34916W        W96447   3.812  12.186  11.935
34917W        W96448  15.102  43.993   3.645
34918W        W96449  42.970  44.941  10.537
34919W        W96450  32.925  26.097  12.525
34920W        W96451   5.221   7.907  14.497
34921W        W96452  10.361  29.061  14.372
34922W        W96453  30.926  40.423   0.318
34923W        W96454   4.825  13.106  12.974
34924W        W96455   2.446  29.665   1.296
34925W        W96456  13.799  44.316   1.825
34926W        W96457  27.105  19.186  11.103
34927W        W96458  15.603  34.989   2.863
34928W        W96459  12.215  13.779   3.323
34929W        W96460  25.589   1.421  10.996
34930W        W96461  28.591  13.158  11.486
34931W        W96462  15.615  20.146   2.841
34932W        W96463  19.227  36.555  11.042
34933W        W96464  23.549  24.684   4.276
34934W        W96465  11.318  12.127  10.506
34935W        W96466   1.462  16.279   4.768
34936W        W96467  13.329  17.118   2.195
34937W        W96468  39.904  34.995   0.761
34938W        W96469  30.644  14.328   3.713
34939W        W96470  38.462   7.684   1.856
34940W        W96471  33.539  26.549   2.817
34941W        W96472  23.108   1.459  13.338
34942W        W96473  12.269  11.814  11.024
34943W        W96474  12.164  23.181   4.270
34944W        W96475  17.766   0.453   1.735
34945W        W96476   9.729   1.894  12.523
34946W        W96477  10.656   0.398  14.884
34947W        W96478   6.788  26.574  10.506
34948W        W96479  39.557   1.282   0.327
34949W        W96480  36.489   8.883   4.283
34950W        W96481  43.814  14.236  10.602
34951W        W96482  19.656  32.559  11.036
34952W        W96483  20.694  12.338   1.848
34953W        W96484  11.245   7.268  12.564
34954W        W96485   3.431  38.532  10.514
34955W        W96486   8.178  38.030   1.694
34956W        W96487  21.094  32.137  14.949
34957W        W96488  32.990  33.588   2.268
34958W        W96489  42.874  16.637  11.402
34959W        W96490   2.356  10.361   1.813
34960W        W96491  40.435  15.658   0.756
34961W        W96492  16.788  34.049   0.818
34962W        W96493  17.174  41.408   4.665
34963W        W96494  24.671  36.869  14.350
34964W        W96495  12.654   0.924  10.521
34965W        W96496  41.025   2.451  12.964
34966W        W96497  19.184  27.597  12.421
34967W        W96498   3.940  39.005  11.495
34968W        W96499  15.770  18.252  14.828
34969W        W96500  10.662   2.365  12.907
34970W        W96501  30.607  20.265  11.863
34971W        W96502   9.302  32.124   3.368
34972W        W96503  25.218  26.207  10.939
34973W        W96504   7.734  36.853  11.953
34974W        W96505   1.975  33.446   1.352
34975W        W96506   2.243  38.365  10.444
34976W        W96507  12.124  37.484  14.320
34977W        W96508  18.280   1.285   1.829
34978W        W96509  36.081  38.450  10.127
34979W        W96510   7.277  33.896  14.313
34980W        W96511   4.829   0.314  10.989
34981W        W96512   9.186  42.959   3.795
34982W        W96513  34.590  18.095   5.107
34983W        W96514   3.906  34.539  13.897
34984W        W96515   3.798  37.979   4.339
34985W        W96516  31.922   7.688  14.777
34986W        W96517  35.095   3.775  10.510
34987W        W96518  12.145  40.043  14.861
34988W        W96519  16.681  43.489  14.977
34989W        W96520  26.609   8.787   1.263
34990W        W96521  24.096  42.838   2.240
34991W        W96522  22.653  24.587  13.030
34992W        W96523  31.016  43.883  14.920
34993W        W96524   1.869  43.014   1.750
34994W        W96525   1.303  20.610  12.959
34995W        W96526  10.733  41.381  14.287
34996W        W96527  19.054  44.880   3.775
34997W        W96528   3.835   7.358  13.889
34998W        W96529   0.278  41.330   3.851
34999W        W96530  26.531   6.768  14.386
35000W        W96531  32.045  27.499   3.185
35001W        W96532  30.948  11.694   0.454
35002W        W96533  31.918  44.815   4.226
35003W        W96534  26.699  29.525  13.888
35004W        W96535  29.652  11.688   3.736
35005W        W96536  13.802  17.648   4.184
35006W        W96537  22.063  12.680   0.405
35007W        W96538  18.294   9.254   1.716
35008W        W96539  35.073  26.993   4.709
35009W        W96540   2.238  40.019  13.527
35010W        W96541   3.938   9.716  12.440
35011W        W96542  10.364   0.972   5.585
35012W        W96543  16.627   3.431   2.867
35013W        W96544  40.363  38.489   1.253
35014W        W96545   9.876   1.962   1.339
35015W        W96546  38.359  17.633   3.687
35016W        W96547  32.444  22.125   1.231
35017W        W96548  24.195  32.996   3.385
35018W        W96549  23.164  29.538   9.988
35019W        W96550  37.020  11.274  10.550
35020W        W96551  15.635  23.155  14.515
35021W        W96552  39.421  40.538   3.709
35022W        W96553  19.734   6.329   2.724
35023W        W96554  18.631  18.705   3.310
35024W        W96555   8.728  35.445   4.661
35025W        W96556  11.181  17.771   3.741
35026W        W96557  21.555  20.684  13.975
35027W        W96558  43.876  37.502   5.145
35028W        W96559   5.879  10.718  12.999
35029W        W96560  23.611  37.444  14.449
35030W        W96561  42.017  32.608   0.359
35031W        W96562  26.694   5.845   1.448
35032W        W96563  33.066  28.170   1.884
35033W        W96564  13.701  34.902   0.881
35034W        W96565  41.340   0.460   0.951
35035W        W96566  34.880  22.596   2.294
35036W        W96567  12.232  24.527   2.783
35037W        W96568  33.024  38.847  14.806
35038W        W96569  13.213  33.567  11.961
35039W        W96570  12.215  44.796  12.576
35040W        W96571   6.788   8.661   0.342
35041W        W96572   1.922  14.640  11.433
35042W        W96573  30.637  14.180   1.697
35043W        W96574   2.728  20.166  13.432
35044W        W96575  15.585  39.844  13.002
35045W        W96576  18.632  17.193  12.920
35046W        W96577  32.936  30.140  12.361
35047W        W96578  21.241   9.850   2.716
35048W        W96579   5.355  32.011   3.329
35049W        W96580  38.376  14.285  11.520
35050W        W96581  30.962  20.651  10.531
35051W        W96582  26.633  20.559   3.690
35052W        W96583  36.521  33.985   4.331
35053W        W96584  18.586  36.384   1.390
35054W        W96585  42.867  21.737  12.984
35055W        W96586  10.308  43.411  11.437
35056W        W96587   7.671   1.893   1.841
35057W        W96588  19.249  39.848   3.147
35058W        W96589   6.756  33.950  13.542
35059W        W96590   0.942  12.756   1.750
35060W        W96591  25.661  26.682  14.776
35061W        W96592   7.704  33.917  11.532
35062W        W96593  41.873  24.228  12.028
35063W        W96594  36.480   7.221  10.442
35064W        W96595  42.942   6.339   2.728
35065W        W96596  33.950  26.510   2.797
35066W        W96597  13.654  32.606  13.476
35067W        W96598  17.749  15.582   4.630
35068W        W96599  35.069  41.990  13.804
35069W        W96600  24.610   6.811   1.880
35070W        W96601  14.824  39.558  10.616
35071W        W96602  23.692  44.472   2.712
35072W        W96603  35.990  23.577   4.156
35073W        W96604  41.329  30.134  10.586
35074W        W96605  34.410  30.013   3.200
35075W        W96606   4.227  12.145   1.842
35076W        W96607  26.002  27.017  14.294
35077W        W96608   0.790  10.746   3.815
35078W        W96609  33.076  31.120   0.395
35079W        W96610  13.666  24.070   1.217
35080W        W96611  34.001  40.347  11.943
35081W        W96612  31.630  12.647  12.929
35082W        W96613  33.111   8.859  14.764
35083W        W96614  33.510  13.176  13.383
35084W        W96615  17.583   0.255   4.641
35085W        W96616  22.666  28.985  10.026
35086W        W96617  37.907  19.203  13.486
35087W        W96618   6.781   8.250  10.957
35088W        W96619  34.093  42.790  11.398
35089W        W96620  23.736  11.804   3.841
35090W        W96621  41.299  32.536   1.762
35091W        W96622  36.976  29.559   1.233
35092W        W96623   2.948  24.655  12.880
35093W        W96624  22.745  37.014  10.954
35094W        W96625  38.542  34.008   4.735
35095W        W96626  29.522  15.750   0.759
35096W        W96627   3.781  41.456  11.549
35097W        W96628  24.577  28.152   1.364
35098W        W96629  42.976  17.713   4.763
35099W        W96630  28.680  15.209  11.860
35100W        W96631  14.198  36.567   4.336
35101W        W96632  31.055  17.092  13.530
35102W        W96633  27.620  37.851   4.223
35103W        W96634  13.652  44.290   1.286
35104W        W96635  33.449  30.922   4.129
35105W        W96636  16.111  17.643  12.088
35106W        W96637   2.837  41.006   3.202
35107W        W96638   6.248  13.626   1.419
35108W        W96639  14.301  11.747   4.178
35109W        W96640  28.163  29.042  11.597
35110W        W96641  13.193   3.913  10.125
35111W        W96642  21.656  21.118   4.781
35112W        W96643  40.908  27.515  14.347
35113W        W96644  24.223  42.994   2.846
35114W        W96645   0.968  20.589  14.985
35115W        W96646  21.645  32.889   3.247
35116W        W96647   1.797  24.659  12.431
35117W        W96648  44.458  32.502   4.125
35118W        W96649   3.444  23.232   4.716
35119W        W96650   1.853  37.068  14.432
35120W        W96651  13.692  11.177   0.480
35121W        W96652   1.896  13.163   1.695
35122W        W96653  42.811  20.267  13.960
35123W        W96654  29.499   4.772  13.849
35124W        W96655   2.929   7.410  14.818
35125W        W96656  28.549  11.773  12.047
35126W        W96657  38.456   6.283   2.308
35127W        W96658  28.102  20.757   2.740
35128W        W96659  21.101  15.734  12.366
35129W        W96660  16.665  30.451   0.452
35130W        W96661  22.062  13.140   1.225
35131W        W96662  15.717  19.639  13.938
35132W        W96663  38.888  28.167   0.443
35133W        W96664  27.111  26.138   1.818
35134W        W96665  28.116  35.358  10.625
35135W        W96666  27.608  41.968  12.565
35136W        W96667  14.809  20.564  14.428
35137W        W96668  11.212   5.884  14.797
35138W        W96669  20.692  15.094   2.791
35139W        W96670  15.578   6.308   2.838
35140W        W96671  20.100  17.196   1.797
35141W        W96672  12.699  16.263  14.783
35142W        W96673  29.622  11.343   3.692
35143W        W96674  38.981  35.905   2.178
35144W        W96675  36.359   3.435   0.876
35145W        W96676  32.397  21.231  14.761
35146W        W96677  27.172  39.028   0.279
35147W        W96678  19.763  27.579   2.278
35148W        W96679  17.733  24.658  10.640
35149W        W96680  11.750  24.063   3.269
35150W        W96681  22.111  29.570  12.345
35151W        W96682  35.588  29.078   1.723
35152W        W96683   1.449  23.644  13.039
35153W        W96684  24.015  27.590   9.953
35154W        W96685   4.857  37.402   0.907
35155W        W96686  32.952   2.439   3.275
35156W        W96687   7.857  44.387   4.294
35157W        W96688  19.692   3.856   2.200
35158W        W96689  34.602  35.413  12.380
35159W        W96690  18.287   9.177  11.554
35160W        W96691   4.750  13.781  13.940
35161W        W96692   9.655   8.762  13.364
35162W        W96693  26.542  19.582   4.803
35163W        W96694  33.124  13.239   1.402
35164W        W96695  38.873  38.491   2.775
35165W        W96696  28.145  12.624   9.942
35166W        W96697  34.526   7.224  13.978
35167W        W96698  13.306   0.979   5.120
35168W        W96699  22.569   7.815   1.864
35169W        W96700  16.204  31.453   1.774
35170W        W96701   1.796   3.390   1.753
35171W        W96702  40.471  14.693   1.813
35172W        W96703  31.978  32.099  11.104
35173W        W96704  43.392  27.159  14.774
35174W        W96705  20.259  25.678  13.842
35175W        W96706  43.894  32.938  12.500
35176W        W96707  27.157  36.437  14.291
35177W        W96708  10.636  41.015  10.406
35178W        W96709  16.804  28.070  11.985
35179W        W96710  17.702  35.589  10.508
35180W        W96711  13.715  38.431  10.437
35181W        W96712  35.415   1.298   1.241
35182W        W96713  43.982  35.468   2.822
35183W        W96714  42.004  33.898   4.703
35184W        W96715  43.439   8.779   4.260
35185W        W96716  16.296  17.564   0.439
35186W        W96717  18.735   6.834   1.839
35187W        W96718  17.113  43.408   1.415
35188W        W96719  32.977  10.236   1.347
35189W        W96720  14.271  35.087  11.928
35190W        W96721  36.405   2.851   1.447
35191W        W96722  44.826  37.512   4.664
35192W        W96723  38.905  37.555  12.958
35193W        W96724  22.554   9.195  12.088
35194W        W96725   4.817  29.953   4.753
35195W        W96726  17.597  15.718  12.836
35196W        W96727  40.383   9.243  12.431
35197W        W96728  13.698  42.951   1.828
35198W        W96729  37.472   6.311   1.816
35199W        W96730  41.808  35.602  13.390
35200W        W96731  29.009   3.721  14.844
35201W        W96732  18.657  44.452  10.420
35202W        W96733  17.084  23.704  14.387
35203W        W96734  37.945  41.994  13.888
35204W        W96735  14.716   2.949  11.029
35205W        W96736  26.637  34.118   2.796
35206W        W96737  44.801  33.889   2.813
35207W        W96738   3.419   3.739  13.891
35208W        W96739  25.603  11.785   4.265
35209W        W96740  41.440  22.537  12.519
35210W        W96741  42.300  42.932   1.365
35211W        W96742   7.901   8.837   9.959
35212W        W96743  15.141  30.590   4.639
35213W        W96744  14.762  25.668  14.862
35214W        W96745  39.935  40.411   4.210
35215W        W96746  10.382  34.417  11.598
35216W        W96747  15.646  24.176   2.389
35217W        W96748  37.552  35.465   3.306
35218W        W96749  30.012  19.129  12.826
35219W        W96750  19.773   9.314   1.281
35220W        W96751  17.116  26.648   4.330
35221W        W96752  32.412  38.434  14.808
35222W        W96753  33.129  26.191  12.041
35223W        W96754  33.011   3.267   5.104
35224W        W96755   3.904  28.136   5.084
35225W        W96756  44.291   3.892   1.228
35226W        W96757   6.293  34.377  14.414
35227W        W96758  10.246  43.456  12.373
35228W        W96759  44.900  34.102   4.173
35229W        W96760  32.046  10.314   0.470
35230W        W96761  10.269  38.440   2.241
35231W        W96762  17.121  35.410  10.528
35232W        W96763   9.715  35.562  13.833
35233W        W96764  29.019  27.963   1.748
35234W        W96765   4.807   7.697   0.469
35235W        W96766  32.887  20.090  10.487
35236W        W96767  32.578  44.841   2.261
35237W        W96768  24.621  42.362   2.797
35238W        W96769   5.298  34.405   1.840
35239W        W96770  18.590   4.730   0.936
35240W        W96771  38.427   1.757  10.896
35241W        W96772   2.434  43.969  14.443
35242W        W96773  19.171  33.968  11.544
35243W        W96774  12.152  42.852   5.254
35244W        W96775  39.335  40.999  11.890
35245W        W96776  24.996  35.051  13.430
35246W        W96777  15.748  26.463  12.078
35247W        W96778  43.921  35.500  14.286
35248W        W96779  31.948  24.638  13.876
35249W        W96780   4.746   4.293  10.491
35250W        W96781   0.769   7.670   2.314
35251W        W96782  39.328   9.740  12.465
35252W        W96783  24.201   2.271  11.530
35253W        W96784  42.932  36.019  12.828
35254W        W96785  39.025  37.037   2.280
35255W        W96786  31.455  39.317  14.973
35256W        W96787  10.751   2.453   0.376
35257W        W96788  40.397   1.827   1.221
35258W        W96789   7.221  32.019   0.827
35259W        W96790  21.647  30.054   3.723
35260W        W96791   2.319  39.470   1.817
35261W        W96792   6.366  27.537   3.229
35262W        W96793   5.397  41.377  13.799
35263W        W96794   7.886  27.458   1.897
35264W        W96795  19.604   5.283   2.735
35265W        W96796  16.695  44.309  11.068
35266W        W96797  44.336  36.944  10.554
35267W        W96798  24.179   2.305  14.906
35268W        W96799  25.017  10.780  13.497
35269W        W96800  38.440  37.020   3.673
35270W        W96801  18.199  37.846   4.293
35271W        W96802  38.854   5.696  13.863
35272W        W96803  11.127  19.058   2.713
35273W        W96804   6.337  19.080   1.300
35274W        W96805   9.175  17.631   0.416
35275W        W96806   3.805  20.689   1.726
35276W        W96807  32.438  17.271  12.361
35277W        W96808   9.307  13.314  11.010
35278W        W96809  44.926  14.219   0.882
35279W        W96810  38.456  14.136   3.829
35280W        W96811  18.620  42.896   4.166
35281W        W96812  38.869  16.270   1.258
35282W        W96813  44.808   8.732  11.441
35283W        W96814  18.759  44.374   4.283
35284W        W96815  34.386   2.261   0.349
35285W        W96816  24.672   5.743  14.839
35286W        W96817   4.416  30.098  12.853
35287W        W96818  15.263  15.170  12.358
35288W        W96819   7.906  10.838   3.778
35289W        W96820  15.220  37.915   4.267
35290W        W96821  23.021  36.842   1.893
35291W        W96822   7.841   4.366   4.342
35292W        W96823  40.900  19.193   3.171
35293W        W96824   0.890  10.156   0.949
35294W        W96825   7.328   2.348  14.392
35295W        W96826  35.067  28.144   5.194
35296W        W96827   4.372  29.488   4.747
35297W        W96828  34.963  14.630   1.372
35298W        W96829  43.379  32.592   1.807
35299W        W96830  21.662   2.306   0.795
35300W        W96831   4.362   9.258   1.270
35301W        W96832  34.479  23.222  11.970
35302W        W96833  12.667   4.253  14.853
35303W        W96834  10.357   5.409  11.914
35304W        W96835  38.860   5.299  14.452
35305W        W96836  15.786  32.456  12.443
35306W        W96837  27.161  37.538   2.410
35307W        W96838   1.390  30.582   2.367
35308W        W96839   3.844  14.300  11.865
35309W        W96840   1.736  13.195  11.541
35310W        W96841  41.895  28.521  14.864
35311W        W96842  16.312  43.347  14.406
35312W        W96843  33.513  42.870  11.862
35313W        W96844  16.302  38.999  13.949
35314W        W96845   9.155  24.168   0.413
35315W        W96846   3.755   1.301  11.999
35316W        W96847  33.422  42.798  10.126
35317W        W96848  28.099  37.939   1.795
35318W        W96849  29.158   6.344   1.261
35319W        W96850  24.659  27.146  11.888
35320W        W96851  34.387  13.698   4.232
35321W        W96852   9.355   3.249   3.850
35322W        W96853  35.101  21.264  11.935
35323W        W96854  34.379  17.235  12.964
35324W        W96855  35.862  12.137   3.715
35325W        W96856  14.765   8.192   3.375
35326W        W96857  41.485   3.306  13.348
35327W        W96858  40.945  35.475   2.237
35328W        W96859  12.851   5.835  13.956
35329W        W96860   1.814  42.329  13.393
35330W        W96861  24.711  25.110  13.992
35331W        W96862   7.815  13.170   4.164
35332W        W96863  37.397  27.614   3.277
35333W        W96864  42.822  27.001  11.895
35334W        W96865  35.525  30.601  13.906
35335W        W96866  37.005  21.546  14.437
35336W        W96867  10.365  40.951  12.464
35337W        W96868   7.755  12.818  10.615
35338W        W96869  42.514  12.774   2.820
35339W        W96870  20.549  14.651  12.902
35340W        W96871  33.496  11.759   4.134
35341W        W96872  10.703  17.230  12.477
35342W        W96873   3.716  16.568  10.615
35343W        W96874  35.408  36.535  11.589
35344W        W96875  19.183   4.803   1.326
35345W        W96876  34.562  30.954  13.524
35346W        W96877  41.374  37.955   4.303
35347W        W96878  18.200   2.292  13.882
35348W        W96879   7.330  34.578  10.437
35349W        W96880  15.274  14.201   4.224
35350W        W96881  12.619   6.922   2.195
35351W        W96882  17.769  28.627   0.795
35352W        W96883  35.455  33.123   3.832
35353W        W96884  36.922  11.715  14.992
35354W        W96885  36.415  32.482  13.868
35355W        W96886   9.392  21.606  11.402
35356W        W96887   4.735  10.355   1.757
35357W        W96888  44.835  12.845   2.856
35358W        W96889  13.286  10.779  11.559
35359W        W96890  25.174   5.297  12.502
35360W        W96891  14.634  24.501   3.359
35361W        W96892  33.428  32.565  13.516
35362W        W96893   1.878  36.586   2.737
35363W        W96894  44.946  34.992  14.815
35364W        W96895  25.102  39.065   2.224
35365W        W96896  40.905  27.524  13.470
35366W        W96897  39.333   3.435   4.788
35367W        W96898  20.117   8.401  12.394
35368W        W96899  27.042  33.072   0.727
35369W        W96900  34.869  19.725  11.547
35370W        W96901  12.804   2.429   4.300
35371W        W96902  36.887   1.397  14.492
35372W        W96903  39.362  43.784  11.496
35373W        W96904   8.322  12.296   2.382
35374W        W96905  22.653  27.990   1.892
35375W        W96906  17.696   0.384   3.379
35376W        W96907  42.905  35.602  14.318
35377W        W96908  21.745  34.918   3.189
35378W        W96909  22.746  42.797   2.267
35379W        W96910  29.556  14.288   1.772
35380W        W96911  26.952  42.809  13.810
35381W        W96912  13.740   8.775  14.289
35382W        W96913  24.109  19.579  12.493
35383W        W96914  30.927   0.402   3.289
35384W        W96915  32.584  16.666   1.277
35385W        W96916   1.731  43.946  12.533
35386W        W96917  39.981   1.246  14.872
35387W        W96918  15.299  30.002  14.351
35388W        W96919  42.507  18.119   3.252
35389W        W96920  30.031  26.024   3.653
35390W        W96921  24.151  21.137  13.548
35391W        W96922   1.450  17.175   1.854
35392W        W96923  44.335  32.523  12.876
35393W        W96924   1.313  26.664  11.470
35394W        W96925  39.046   0.891   1.400
35395W        W96926  11.286   9.866  13.910
35396W        W96927  39.442  29.922   4.657
35397W        W96928   4.716  17.195  12.444
35398W        W96929  43.349  17.569  11.476
35399W        W96930   5.916  43.405   1.880
35400W        W96931  19.763  35.038  10.901
35401W        W96932  38.879  14.156  11.122
35402W        W96933   9.871  39.946  13.905
35403W        W96934  19.672   1.299   1.414
35404W        W96935  30.021  15.116   2.234
35405W        W96936   3.886  14.179  14.315
35406W        W96937  14.241  41.885  10.428
35407W        W96938  41.532   1.832   3.802
35408W        W96939  17.597  19.168  11.056
35409W        W96940   3.734  39.370  10.468
35410W        W96941   7.172   6.285   1.698
35411W        W96942   5.236   4.894  13.505
35412W        W96943  20.531   1.959   3.800
35413W        W96944  36.495  11.214  14.984
35414W        W96945   8.400   6.894  13.049
35415W        W96946  15.771  41.014  13.929
35416W        W96947  43.312  34.613   1.422
35417W        W96948  25.629  43.798   1.276
35418W        W96949  38.509  44.332  13.368
35419W        W96950  31.587   2.875   2.402
35420W        W96951  42.949  32.521   0.936
35421W        W96952   3.272  35.460  14.778
35422W        W96953  20.648  41.927   2.320
35423W        W96954  12.844   9.739  13.906
35424W        W96955   1.790  16.712   2.415
35425W        W96956  23.108  18.214  14.433
35426W        W96957  28.991  42.486  10.927
35427W        W96958  31.983  16.154  12.968
35428W        W96959  28.162  23.088  10.927
35429W        W96960  17.293  28.116  12.868
35430W        W96961  30.549  29.436   0.826
35431W        W96962  21.257   0.249  14.473
35432W        W96963  11.222   7.826  14.297
35433W        W96964  12.760  25.495   3.795
35434W        W96965  17.625  38.000   4.711
35435W        W96966  26.590   5.879   0.319
35436W        W96967   1.932  36.897  13.058
35437W        W96968  13.709  40.370  14.908
35438W        W96969  26.984   6.804   1.913
35439W        W96970   5.770  26.203   3.825
35440W        W96971   2.776  28.943  10.520
35441W        W96972  28.170  23.674  12.364
35442W        W96973  27.000   4.299   3.275
35443W        W96974  26.096  17.601   2.739
35444W        W96975  22.063  13.281  14.805
35445W        W96976  42.789   7.294  10.414
35446W        W96977  14.339   9.656  12.094
35447W        W96978  17.640  15.173  10.617
35448W        W96979  43.423  17.206   1.304
35449W        W96980   0.290   7.705   1.228
35450W        W96981  16.629  13.629   3.672
35451W        W96982  39.313  34.488   3.785
35452W        W96983  42.398  34.604  11.086
35453W        W96984  32.132  40.026  11.991
35454W        W96985  15.115  43.320  14.764
35455W        W96986  37.054  24.520  12.873
35456W        W96987  35.911  17.266   1.921
35457W        W96988   2.374  25.696   0.472
35458W        W96989  41.039  28.460   3.758
35459W        W96990  25.086  29.005   4.644
35460W        W96991  24.580   8.237  13.441
35461W        W96992  41.365  24.691  11.402
35462W        W96993  40.332  18.648   3.750
35463W        W96994  37.040  27.658   1.305
35464W        W96995   2.382   1.862   1.877
35465W        W96996  30.528  22.137   4.782
35466W        W96997  43.881  35.559  12.092
35467W        W96998  43.459  14.746  11.611
35468W        W96999  38.540   5.696  14.282
35469W        W97000  12.738  17.754   1.763
35470W        W97001   8.822  17.658   0.312
35471W        W97002   5.842  24.640  13.494
35472W        W97003  22.065  26.482   2.253
35473W        W97004  34.923  42.031   5.192
35474W        W97005  10.836  28.183   0.864
35475W        W97006  33.888  16.171   2.752
35476W        W97007   0.774  28.479  10.985
35477W        W97008  38.041  13.208  12.870
35478W        W97009   9.215  39.365  12.434
35479W        W97010   3.414  30.067   3.198
35480W        W97011   4.880  26.463  13.990
35481W        W97012   7.688  31.644   2.361
35482W        W97013  33.545  35.494  13.920
35483W        W97014  29.990   1.479  10.613
35484W        W97015  29.589  26.664  13.470
35485W        W97016   9.214  12.739   9.954
35486W        W97017  37.081  35.461  13.530
35487W        W97018  39.427  20.630   0.956
35488W        W97019  38.994   8.716  13.313
35489W        W97020  44.266  23.655  10.151
35490W        W97021  22.561  32.453  11.477
35491W        W97022  31.079   1.399  13.334
35492W        W97023  25.701  26.983   2.325
35493W        W97024  30.153  20.082   3.194
35494W        W97025  10.689  22.610   0.908
35495W        W97026  28.576  30.648   3.821
35496W        W97027  15.796   3.243  14.784
35497W        W97028  41.041  24.144   1.771
35498W        W97029  16.813  16.740   3.680
35499W        W97030   8.866  38.055  11.104
35500W        W97031  40.840  13.218   3.691
35501W        W97032  25.152  20.612   3.289
35502W        W97033  19.728  34.967   1.387
35503W        W97034  30.584  21.049  13.463
35504W        W97035  28.646  44.790  11.585
35505W        W97036   5.426   3.874  13.851
35506W        W97037  22.040  21.234  13.537
35507W        W97038  38.391  43.857  14.032
35508W        W97039  19.056  11.278  11.899
35509W        W97040  13.738  35.577  11.577
35510W        W97041  19.120   6.380   4.286
35511W        W97042  13.188  29.088  13.009
35512W        W97043  20.581  19.237   0.789
35513W        W97044  43.943   8.747   2.886
35514W        W97045  41.533   0.752   1.832
35515W        W97046   4.249  27.961   3.666
35516W        W97047  22.225  30.079   3.657
35517W        W97048  25.615   5.751   4.333
35518W        W97049  21.018   3.745   0.870
35519W        W97050  37.449  39.832  13.882
35520W        W97051  41.535  40.799   1.291
35521W        W97052  33.102  30.968   3.637
35522W        W97053   5.232   7.267   0.253
35523W        W97054  37.908  18.602   2.684
35524W        W97055   1.859  42.324   3.785
35525W        W97056  22.670  15.718  12.438
35526W        W97057  22.034   1.474   4.813
35527W        W97058   7.690  43.460   3.185
35528W        W97059  24.610   1.479  13.912
35529W        W97060  35.995  29.665   1.431
35530W        W97061  19.696   2.751  13.061
35531W        W97062  30.996  20.160  11.097
35532W        W97063  40.533  27.496  13.378
35533W        W97064   2.924  20.639  11.975
35534W        W97065   0.754  17.158  11.044
35535W        W97066   9.378  16.636   0.833
35536W        W97067  31.582  25.031  11.599
35537W        W97068   9.866  32.622  10.157
35538W        W97069  18.058  39.420  14.842
35539W        W97070  33.994  42.819  13.541
35540W        W97071  15.818  27.153   4.218
35541W        W97072  12.216  23.509   1.844
35542W        W97073  33.574  37.392  13.033
35543W        W97074  19.217  28.630  12.899
35544W        W97075  27.536  41.383   4.155
35545W        W97076  12.324  14.253  12.367
35546W        W97077  28.185  29.522  11.577
35547W        W97078   4.847  12.780  14.013
35548W        W97079   5.780  17.652   2.730
35549W        W97080   2.781  41.820   3.671
35550W        W97081   4.928   5.352  14.446
35551W        W97082  29.588   2.893   4.675
35552W        W97083   5.396  44.317  13.017
35553W        W97084  28.110  40.826   3.239
35554W        W97085  27.962  24.662  10.481
35555W        W97086  25.647  15.123  10.918
35556W        W97087  43.379  13.637  13.526
35557W        W97088   4.939  27.447  13.058
35558W        W97089  12.116   6.738   2.219
35559W        W97090  44.778  41.380   0.473
35560W        W97091  10.873   5.894   3.263
35561W        W97092  31.084  35.893  14.386
35562W        W97093  22.037   5.375   1.862
35563W        W97094  24.599  39.426   4.170
35564W        W97095  33.574   3.827   2.745
35565W        W97096  35.468   7.730  11.026
35566W        W97097  28.009  16.305  12.488
35567W        W97098  40.020  24.210  14.918
35568W        W97099  40.040  18.208  10.454
35569W        W97100   8.726   3.328   4.232
35570W        W97101  30.492  18.757   4.236
35571W        W97102  40.322  25.494   1.845
35572W        W97103  32.076  21.752  11.482
35573W        W97104  28.002  20.741  13.795
35574W        W97105   2.406  30.014   1.307
35575W        W97106   8.322  37.887   0.394
35576W        W97107   5.770  40.434   1.836
35577W        W97108   2.418  43.862  13.052
35578W        W97109  18.108  39.049   1.845
35579W        W97110  18.656  33.393   5.193
35580W        W97111  10.788  20.031   4.212
35581W        W97112  33.036  27.614  10.633
35582W        W97113  28.943  13.194  13.477
35583W        W97114  28.453  13.633   1.811
35584W        W97115   9.703  33.422  11.599
35585W        W97116   9.845  38.964  11.580
35586W        W97117  28.550  12.157  11.438
35587W        W97118   0.880  14.161  10.051
35588W        W97119   6.807   2.230  12.000
35589W        W97120  19.206  33.043   1.244
35590W        W97121   0.267  23.696  10.564
35591W        W97122   4.708  23.177  14.356
35592W        W97123  25.054   1.967  12.579
35593W        W97124  39.846   4.229   2.837
35594W        W97125   8.859  27.097   1.863
35595W        W97126   5.430   9.188  10.483
35596W        W97127  38.419   1.916   3.382
35597W        W97128  18.590  20.532   4.211
35598W        W97129  27.055  15.733   1.269
35599W        W97130  39.399  42.298  11.397
35600W        W97131  26.065   6.759  14.446
35601W        W97132   0.401  28.440   4.705
35602W        W97133  31.587  27.022   4.676
35603W        W97134  10.334  26.039  11.371
35604W        W97135  24.544  33.978  11.607
35605W        W97136  44.773  17.185  14.861
35606W        W97137  32.024   9.674   2.178
35607W        W97138  20.593  23.574  14.341
35608W        W97139  25.553  42.326  11.436
35609W        W97140   6.354  35.511  10.639
35610W        W97141  24.163  41.378   1.215
35611W        W97142  24.118   6.911  14.351
35612W        W97143  31.639  16.620   1.864
35613W        W97144  32.897  43.854  10.527
35614W        W97145  28.962  26.622  11.051
35615W        W97146  13.198  23.985   1.881
35616W        W97147   8.879   0.815  14.449
35617W        W97148  23.501  23.077  12.347
35618W        W97149  33.005  40.886  12.990
35619W        W97150  21.568   6.683   2.690
35620W        W97151  12.257   1.917  10.043
35621W        W97152   0.987  16.232   2.809
35622W        W97153  25.108  32.637   3.295
35623W        W97154  39.057   2.909   1.917
35624W        W97155  22.684  36.881   1.445
35625W        W97156  29.965   8.221  13.316
35626W        W97157  17.591   5.426   1.359
35627W        W97158  33.495   6.251   4.222
35628W        W97159   4.417  25.061   2.280
35629W        W97160  23.002  37.359   4.147
35630W        W97161  28.981   6.386  10.903
35631W        W97162   0.899  29.602  13.329
35632W        W97163   2.884  29.644  13.352
35633W        W97164  31.009  13.780  11.965
35634W        W97165   5.787  33.952  14.890
35635W        W97166  41.357   8.843   3.647
35636W        W97167   8.289  21.208  14.289
35637W        W97168  16.230   8.684  10.525
35638W        W97169  25.052  36.516   0.454
35639W        W97170   7.264  43.811  11.605
35640W        W97171  23.642  11.167   1.210
35641W        W97172  43.407  13.210   0.335
35642W        W97173  32.007  37.046   0.875
35643W        W97174  40.389  44.484  11.569
35644W        W97175   1.321  14.198   3.216
35645W        W97176  23.504  27.035  12.444
35646W        W97177  39.919  23.211  13.965
35647W        W97178  36.520  17.209  10.972
35648W        W97179  24.124  41.448   4.617
35649W        W97180  40.509  28.093  10.513
35650W        W97181  22.243  40.935   1.305
35651W        W97182  31.954   3.829  12.575
35652W        W97183  11.241  23.611  13.823
35653W        W97184  24.079  16.230  14.896
35654W        W97185  42.792   2.776   2.279
35655W        W97186  23.730  38.889   3.205
35656W        W97187   4.255  25.578   1.924
35657W        W97188  42.883  34.521  11.976
35658W        W97189  19.612  16.279   0.943
35659W        W97190  16.736  41.916   0.739
35660W        W97191   4.238  38.528   0.337
35661W        W97192  13.654   5.356  13.339
35662W        W97193  10.370  32.506  10.632
35663W        W97194  12.220  25.476   0.788
35664W        W97195  23.146  41.845   1.384
35665W        W97196  22.110  28.093  13.407
35666W        W97197   3.911  10.145   0.813
35667W        W97198  16.655  20.565  12.856
35668W        W97199  23.519  38.045  11.484
35669W        W97200  37.546  35.981   1.862
35670W        W97201  29.623   7.885   3.372
35671W        W97202  43.293  30.581  14.986
35672W        W97203  32.511   7.858   2.324
35673W        W97204   6.362  21.735   1.779
35674W        W97205  15.164   0.847   1.434
35675W        W97206  26.553  21.618  10.559
35676W        W97207  25.108   3.819  11.114
35677W        W97208  27.039  18.249   1.745
35678W        W97209  30.933  32.392  12.880
35679W        W97210  16.725  21.047   3.671
35680W        W97211  18.782   3.771  12.025
35681W        W97212   9.742   9.659  13.518
35682W        W97213  29.982  25.482  11.891
35683W        W97214  40.947   1.451  11.376
35684W        W97215   6.340  17.570   0.864
35685W        W97216   3.739  22.692   1.717
35686W        W97217  26.569  37.995  10.561
35687W        W97218  30.030  39.989  12.057
35688W        W97219  37.834   1.306  10.574
35689W        W97220  34.951  40.890  11.491
35690W        W97221   1.449  30.520   4.751
35691W        W97222  18.732  14.331   3.677
35692W        W97223   4.728  12.681  12.546
35693W        W97224  12.253  35.888  14.996
35694W        W97225   5.756  26.142  11.907
35695W        W97226  42.889  39.457  12.059
35696W        W97227  39.946  43.383  13.938
35697W        W97228   8.656  39.377   1.444
35698W        W97229  15.136  10.281  13.977
35699W        W97230  44.493  40.010  12.945
35700W        W97231   4.333  39.822   0.326
35701W        W97232  40.956  33.504  10.452
35702W        W97233  20.755  41.329  13.045
35703W        W97234  28.055  43.359   4.227
35704W        W97235  43.830  13.704   2.185
35705W        W97236  42.842  23.099   3.700
35706W        W97237   9.148  39.855  10.124
35707W        W97238  30.457  29.460  10.629
35708W        W97239  28.601  29.027   3.779
35709W        W97240  31.484  15.159  11.390
35710W        W97241  44.306   2.269  13.450
35711W        W97242  36.569  30.028   4.225
35712W        W97243  10.762  21.704   4.777
35713W        W97244   0.250  37.343   1.234
35714W        W97245   6.701  38.952   9.989
35715W        W97246  30.437  15.204   1.430
35716W        W97247   3.824  26.100  11.527
35717W        W97248  33.526   2.861  10.413
35718W        W97249  10.219  34.989   1.397
35719W        W97250  35.069   6.338  12.921
35720W        W97251  25.705  12.842   4.347
35721W        W97252  14.697  35.364   4.783
35722W        W97253   1.332   3.955  12.558
35723W        W97254   9.681  23.517  12.945
35724W        W97255  32.630   2.828   4.224
35725W        W97256   1.305   6.233  10.572
35726W        W97257   9.812   7.895   4.329
35727W        W97258  32.468  29.959  11.979
35728W        W97259   5.801   8.746  14.294
35729W        W97260  39.925  14.791  11.122
35730W        W97261   4.257  30.586  11.895
35731W        W97262   3.840  13.679  14.839
35732W        W97263  38.975  13.778  13.435
35733W        W97264  43.834  30.119   1.348
35734W        W97265   7.182  27.957   4.750
35735W        W97266  25.191   6.785  12.015
35736W        W97267  27.604  21.251   0.961
35737W        W97268  25.016  22.507  13.496
35738W        W97269  38.504   8.836  13.454
35739W        W97270  17.137  14.175   5.240
35740W        W97271  38.385   3.336   0.321
35741W        W97272  26.110   4.377   1.239
35742W        W97273   5.757   7.334   3.146
35743W        W97274  38.531  21.185  13.494
35744W        W97275  32.934  16.318  14.509
35745W        W97276  32.972  28.434  13.850
35746W        W97277  27.120  24.056   4.322
35747W        W97278  26.612  19.583   2.888
35748W        W97279  26.193  27.564  10.645
35749W        W97280  31.571   0.835   2.180
35750W        W97281  15.154  28.509  13.496
35751W        W97282  30.636  13.825   2.873
35752W        W97283  36.351   2.849  13.336
35753W        W97284  36.383   6.886  11.074
35754W        W97285  14.287   8.806  13.872
35755W        W97286   0.292  35.965  14.016
35756W        W97287  23.101  44.793  14.871
35757W        W97288  20.589   6.187  13.544
35758W        W97289   6.695  42.933   3.807
35759W        W97290  17.770  15.587   2.270
35760W        W97291  22.617   7.670  12.581
35761W        W97292  36.457  31.151   3.290
35762W        W97293   9.649  34.596  10.896
35763W        W97294  31.909  13.146  13.838
35764W        W97295  14.723  14.287  14.424
35765W        W97296   0.291  27.108   1.932
35766W        W97297  28.595  20.170   4.670
35767W        W97298  25.163   4.204  11.993
35768W        W97299  21.067  16.698   1.701
35769W        W97300  40.993  22.726  12.878
35770W        W97301  12.319  22.619  10.460
35771W        W97302  32.491  41.490  11.045
35772W        W97303  10.202   8.893  11.447
35773W        W97304  30.477  16.806   0.846
35774W        W97305  39.425   9.805   0.930
35775W        W97306   8.227  22.587   3.315
35776W        W97307  18.601  12.779   4.695
35777W        W97308   9.683  27.101   4.151
35778W        W97309  17.224  18.059  14.917
35779W        W97310  27.573  34.564   1.880
35780W        W97311  42.857  27.187  12.910
35781W        W97312  33.045  36.520  14.310
35782W        W97313  27.054  21.237   4.319
35783W        W97314  14.196  25.561   1.727
35784W        W97315   9.169  18.768  10.599
35785W        W97316   7.299   2.371   5.110
35786W        W97317   8.318  10.176   2.751
35787W        W97318  32.099  23.618  10.977
35788W        W97319  36.091  18.615   0.776
35789W        W97320  33.972  31.034   4.236
35790W        W97321   5.409   9.885   1.227
35791W        W97322  13.147  10.138  10.128
35792W        W97323   4.420  14.276  14.845
35793W        W97324   6.419  22.225  11.904
35794W        W97325  29.975  21.580  14.987
35795W        W97326  13.136  15.257  12.881
35796W        W97327  31.585  34.525   0.325
35797W        W97328  27.144  23.993  14.899
35798W        W97329  22.721  18.766   4.196
35799W        W97330  35.092  20.174  14.881
35800W        W97331  36.997  31.509  14.967
35801W        W97332   8.381   2.940  13.958
35802W        W97333   8.213  22.065   0.328
35803W        W97334  17.280  44.377  11.588
35804W        W97335  32.533  34.881   3.335
35805W        W97336  32.036  16.584   0.878
35806W        W97337   4.909  23.543   0.332
35807W        W97338  11.815  37.861  12.950
35808W        W97339  21.594  36.520   5.097
35809W        W97340  37.984  24.004  13.416
35810W        W97341  36.426  18.250   9.923
35811W        W97342  41.983  36.355  13.481
35812W        W97343  29.459  44.986   0.326
35813W        W97344  15.799  36.452  13.957
35814W        W97345  12.673  21.638  10.902
35815W        W97346  32.583  30.947   0.955
35816W        W97347  32.578  18.580  12.937
35817W        W97348  40.022  29.598   2.758
35818W        W97349  16.605  39.921   4.785
35819W        W97350   9.163  19.231   1.340
35820W        W97351  21.725  32.417  14.989
35821W        W97352  25.601   3.350   1.749
35822W        W97353  16.610  22.634  10.912
35823W        W97354  17.583  22.716  13.982
35824W        W97355  11.130  42.011  10.601
35825W        W97356   8.667   3.418  13.898
35826W        W97357  26.166  36.376  14.414
35827W        W97358  31.041  25.111  11.855
35828W        W97359   0.780  21.579  14.933
35829W        W97360  14.726   0.266   1.898
35830W        W97361  19.096  27.538   1.866
35831W        W97362  27.445   2.241   0.253
35832W        W97363  15.759  20.606   1.449
35833W        W97364  29.471  43.383   0.793
35834W        W97365  32.495   9.349  14.505
35835W        W97366  17.593  31.048   0.413
35836W        W97367  41.005  11.693   3.680
35837W        W97368  15.776  25.574   1.304
35838W        W97369   4.832  14.228   3.183
35839W        W97370   7.844  31.432  11.488
35840W        W97371  21.262  38.461  14.010
35841W        W97372  43.301  41.991  12.089
35842W        W97373   7.357   7.686   3.359
35843W        W97374   0.817  22.187   1.821
35844W        W97375  18.218  31.091   3.295
35845W        W97376  43.515   5.833  11.482
35846W        W97377   1.789   5.917   1.228
35847W        W97378  35.067   5.745  11.859
35848W        W97379  12.638   3.387   2.780
35849W        W97380  14.627   1.244  13.311
35850W        W97381  29.577  12.153   0.392
35851W        W97382  37.960   6.255  12.403
35852W        W97383  44.455  15.742  13.032
35853W        W97384  21.080  38.987  10.943
35854W        W97385  41.891  34.543   4.804
35855W        W97386   7.818   4.446   3.871
35856W        W97387   1.404  41.916  11.979
35857W        W97388  32.464  39.039  14.760
35858W        W97389  38.487  42.026  12.450
35859W        W97390  38.992  27.491   3.165
35860W        W97391  13.169  41.825   3.808
35861W        W97392  33.007  21.585  12.456
35862W        W97393   7.675  21.571   0.854
35863W        W97394  33.562  40.812  13.509
35864W        W97395  33.515  39.884   0.752
35865W        W97396  17.801  28.175   4.831
35866W        W97397  13.700  42.794  14.031
35867W        W97398  40.875  23.587   0.896
35868W        W97399  15.127  22.014  10.591
35869W        W97400  23.687  12.236  11.079
35870W        W97401   9.181  42.842   4.600
35871W        W97402   2.837  28.655   2.794
35872W        W97403  41.024  24.067   3.652
35873W        W97404  38.858   1.283   0.406
35874W        W97405  26.524  25.477  13.335
35875W        W97406  12.172  38.378  13.893
35876W        W97407  12.220  15.600  10.890
35877W        W97408  12.151   2.844   9.984
35878W        W97409  10.804  11.627   3.282
35879W        W97410  41.342  20.259  13.889
35880W        W97411  13.127  39.996   4.114
35881W        W97412   1.923  13.250   2.736
35882W        W97413  30.099  41.913   3.148
35883W        W97414   7.213  24.065  12.924
35884W        W97415  38.014  14.814   2.418
35885W        W97416  33.974  27.538   2.403
35886W        W97417  31.959  27.121   2.309
35887W        W97418  32.942  12.732   0.940
35888W        W97419  36.569  16.266  12.468
35889W        W97420  15.736  35.376   0.946
35890W        W97421  16.804   6.368  14.800
35891W        W97422  27.176  13.838   1.328
35892W        W97423  44.427   9.854   2.767
35893W        W97424  33.539   3.275   2.381
35894W        W97425   4.450  20.708  11.417
35895W        W97426   2.826   8.704  12.877
35896W        W97427   3.345  18.754   1.380
35897W        W97428   3.831   3.892  11.053
35898W        W97429  30.028   5.751  13.488
35899W        W97430  16.237  28.596   3.853
35900W        W97431   7.207   0.366   3.696
35901W        W97432  27.060  39.052  10.503
35902W        W97433  34.988  36.054   2.183
35903W        W97434  40.511  15.625  11.600
35904W        W97435   5.235   1.822   4.144
35905W        W97436  35.933  41.419  12.355
35906W        W97437  34.977   4.802   1.770
35907W        W97438  18.274  41.427   0.950
35908W        W97439   4.884   8.771  10.108
35909W        W97440   6.882  24.015  10.638
35910W        W97441  37.964  39.896   3.678
35911W        W97442  35.033  27.604  12.986
35912W        W97443  40.469  10.678   2.840
35913W        W97444  10.732  38.340  12.941
35914W        W97445  34.027  44.778   3.266
35915W        W97446  19.194  11.752  11.889
35916W        W97447  42.840  26.996  12.350
35917W        W97448  28.459   1.402   1.300
35918W        W97449  11.807  32.067   0.881
35919W        W97450   5.825  22.720  14.441
35920W        W97451  42.801  30.091   2.736
35921W        W97452  42.880  30.143   1.390
35922W        W97453  21.152  38.415   3.258
35923W        W97454  10.647   2.893   2.330
35924W        W97455   5.826   5.763   3.175
35925W        W97456  41.821  42.980   3.654
35926W        W97457  32.579   4.224  12.018
35927W        W97458   1.407  27.557  10.095
35928W        W97459   3.426  15.207  14.507
35929W        W97460   6.361  43.462  14.281
35930W        W97461  10.870  25.972  10.553
35931W        W97462   9.829  29.585   0.740
35932W        W97463  15.273  34.537   1.907
35933W        W97464  44.345   0.849  11.887
35934W        W97465  39.518  44.987  11.022
35935W        W97466   3.746   5.423   2.317
35936W        W97467  31.129  23.199   0.480
35937W        W97468  43.509   0.968  12.957
35938W        W97469  26.552  21.173   4.644
35939W        W97470  14.633  25.096  12.002
35940W        W97471  25.015  20.081  14.359
35941W        W97472  17.728  39.522   1.340
35942W        W97473  38.448  35.997   4.273
35943W        W97474   9.358  22.198  12.847
35944W        W97475  22.018  43.860   4.203
35945W        W97476  23.622  22.220   3.714
35946W        W97477   6.909  25.072  13.466
35947W        W97478  21.549  41.006  12.380
35948W        W97479  19.764  27.090  11.519
35949W        W97480  18.633  33.876   4.287
35950W        W97481   5.856  37.479   4.689
35951W        W97482   4.414  36.418   1.714
35952W        W97483   7.764  23.212  10.970
35953W        W97484  24.597  37.494   5.090
35954W        W97485  32.472   9.828  14.024
35955W        W97486  28.077  37.034   4.762
35956W        W97487  36.052  24.720   3.243
35957W        W97488  31.620  11.809   3.373
35958W        W97489  27.499  24.482   0.258
35959W        W97490   3.775  29.139  10.404
35960W        W97491  39.362  20.060  14.896
35961W        W97492  19.658  25.683   1.720
35962W        W97493  17.574  10.798  12.868
35963W        W97494  27.145  36.483  13.797
35964W        W97495  35.904  21.257  14.366
35965W        W97496  34.485  28.556  13.497
35966W        W97497  39.397  37.927  13.383
35967W        W97498   7.881   1.752   9.464
35968W        W97499  38.428  42.843  14.951
35969W        W97500  27.501  29.929  14.837
35970W        W97501   2.836   6.233   0.771
35971W        W97502  25.706   4.413  13.803
35972W        W97503  37.558  21.573  11.001
35973W        W97504  26.657  36.464  12.463
35974W        W97505  25.128  38.964  14.383
35975W        W97506   9.164  43.987  12.974
35976W        W97507  37.855   2.443  11.128
35977W        W97508  19.089  18.702  13.427
35978W        W97509  42.815  16.081   2.666
35979W        W97510  11.243   5.329  10.445
35980W        W97511  23.066  34.116  14.452
35981W        W97512   8.341  44.953  10.509
35982W        W97513  14.122  25.486  12.971
35983W        W97514   1.794  19.605  12.568
35984W        W97515  24.607   8.297   0.348
35985W        W97516  20.046   8.183   1.932
35986W        W97517  44.483  16.162   0.942
35987W        W97518   6.747  36.404  11.455
35988W        W97519   3.454  28.478  14.994
35989W        W97520  13.774  19.580   0.929
35990W        W97521  24.614  12.191   2.400
35991W        W97522  42.901  36.892   1.400
35992W        W97523  30.621   1.326  14.473
35993W        W97524  38.921  29.520   5.155
35994W        W97525  19.058   5.798  10.616
35995W        W97526  23.690   4.432   2.792
35996W        W97527  22.617  38.074  11.018
35997W        W97528   6.719   3.880  14.889
35998W        W97529  41.465  34.461   0.426
35999W        W97530  28.571  18.669  14.775
36000W        W97531   5.367  10.155  12.472
36001W        W97532  35.581  34.572  10.153
36002W        W97533  32.598   0.439   1.389
36003W        W97534  39.031  20.268   1.284
36004W        W97535  31.546   3.778  14.925
36005W        W97536  44.501   3.392  13.828
36006W        W97537  27.663   0.838   3.270
36007W        W97538  15.270  33.586   3.799
36008W        W97539  41.402  28.625  13.507
36009W        W97540  19.652  40.308  13.548
36010W        W97541  42.346  20.105  12.081
36011W        W97542  40.365  20.684   2.239
36012W        W97543  28.479  28.034  10.466
36013W        W97544  38.916  44.499  13.808
36014W        W97545  29.550  21.142  10.560
36015W        W97546  10.184  41.377   3.848
36016W        W97547  33.969  27.485   0.345
36017W        W97548  22.240  31.410  14.822
36018W        W97549  10.656  10.349   3.239
36019W        W97550  23.501  27.581   9.458
36020W        W97551  23.989  27.459  12.945
36021W        W97552  37.569  39.554   0.949
36022W        W97553  20.122   3.272  12.938
36023W        W97554  12.258  17.175  14.906
36024W        W97555  18.233   2.790   3.163
36025W        W97556  34.431  23.149  13.866
36026W        W97557  13.844  35.968  12.038
36027W        W97558  31.637  12.819  14.490
36028W        W97559  30.560  17.273   1.892
36029W        W97560  18.170  33.538   3.291
36030W        W97561  38.860  28.549  11.560
36031W        W97562   0.856  23.210  10.048
36032W        W97563  21.679  25.125   2.724
36033W        W97564  26.549   2.795   0.841
36034W        W97565  26.675  28.042   5.118
36035W        W97566  36.362  29.998   3.811
36036W        W97567  41.433   0.758   2.418
36037W        W97568  23.093  29.080   2.229
36038W        W97569  31.561  11.728   1.728
36039W        W97570  26.005  38.428   0.780
36040W        W97571  27.602  14.608  12.065
36041W        W97572  27.558  40.445   1.270
36042W        W97573   5.871   3.893   2.888
36043W        W97574  13.808  34.615   3.367
36044W        W97575   4.340  35.381   1.287
36045W        W97576   4.703  21.652   1.784
36046W        W97577  31.045  42.390  12.390
36047W        W97578  37.339  37.047  12.050
36048W        W97579  35.004  44.999  14.277
36049W        W97580  29.572  18.278  14.968
36050W        W97581   6.793  28.434   2.828
36051W        W97582  30.501   6.714  13.468
36052W        W97583  30.077  22.547   4.280
36053W        W97584   6.186  14.190  11.484
36054W        W97585   0.437  33.890  13.976
36055W        W97586   7.894  29.974  13.901
36056W        W97587  37.078  12.223  12.940
36057W        W97588  16.647  26.208  11.919
36058W        W97589  32.553  32.083  13.434
36059W        W97590  28.111   0.291  14.351
36060W        W97591  20.204  36.911  14.328
36061W        W97592   4.817  37.865  12.523
36062W        W97593  10.349  24.574  13.498
36063W        W97594  16.314  39.352  13.313
36064W        W97595  36.420  40.481   0.283
36065W        W97596  36.458  25.555  11.587
36066W        W97597  15.212  35.039  13.468
36067W        W97598  32.988  32.451   3.801
36068W        W97599   1.413  12.649   2.883
36069W        W97600   8.230  21.254  10.907
36070W        W97601  30.930  32.028   4.308
36071W        W97602   4.726   9.810  12.945
36072W        W97603  41.911  38.509   3.148
36073W        W97604  20.220  25.999   1.714
36074W        W97605  37.499  17.639   0.826
36075W        W97606   0.885   6.264  11.879
36076W        W97607   2.758  28.037  14.514
36077W        W97608  36.539  22.154   2.845
36078W        W97609  36.402  14.801  14.427
36079W        W97610  22.592  44.412   1.360
36080W        W97611  31.418  24.597   1.870
36081W        W97612   6.280  38.836   2.418
36082W        W97613  29.134  29.113   3.728
36083W        W97614  33.952   0.343  14.765
36084W        W97615  22.732  13.192   4.333
36085W        W97616  36.394  25.599  13.469
36086W        W97617  28.154  14.604   2.898
36087W        W97618  28.118  37.042   0.397
36088W        W97619  43.958  29.469   3.839
36089W        W97620  36.842  12.171   3.256
36090W        W97621  16.178  40.341  11.054
36091W        W97622  21.591  10.236   3.695
36092W        W97623   6.710  36.498   1.728
36093W        W97624  41.407  13.248   4.202
36094W        W97625   3.389  13.615  12.916
36095W        W97626  28.118  26.146  11.957
36096W        W97627  20.682  27.526   1.768
36097W        W97628  43.336   4.932  10.598
36098W        W97629  16.219  41.856   3.183
36099W        W97630  43.354  24.516  13.944
36100W        W97631  23.684  10.143   1.286
36101W        W97632  31.613  30.435  11.958
36102W        W97633   8.772   2.340  14.905
36103W        W97634  13.237  42.944  12.070
36104W        W97635   2.303  26.956  10.436
36105W        W97636  32.017   3.791  11.404
36106W        W97637  13.660  27.542   2.324
36107W        W97638  41.013  40.897  11.023
36108W        W97639  31.060  37.891   0.386
36109W        W97640  20.591  19.158  10.575
36110W        W97641  28.652  39.455   1.320
36111W        W97642  30.144  33.126  14.773
36112W        W97643   2.227   5.836   3.253
36113W        W97644  18.739  44.940   4.630
36114W        W97645   5.902  23.192  13.439
36115W        W97646   1.969  25.001  14.324
36116W        W97647  21.743  12.783  14.859
36117W        W97648  36.429  22.693   1.311
36118W        W97649  10.238  27.623   4.235
36119W        W97650  38.014  17.193   4.685
36120W        W97651  13.673  15.200   0.285
36121W        W97652  16.205  21.593   1.762
36122W        W97653  20.240  37.902  13.811
36123W        W97654  40.940   5.306  11.964
36124W        W97655   1.892  34.094  14.297
36125W        W97656  15.794  37.463   4.825
36126W        W97657   8.258  27.115   4.761
36127W        W97658   7.245  25.666  14.481
36128W        W97659  22.608   5.729  11.891
36129W        W97660  40.500   1.739  10.567
36130W        W97661  21.640  44.469  14.311
36131W        W97662  44.296   1.755  11.004
36132W        W97663  21.031  17.764   0.467
36133W        W97664   5.309  26.474   4.738
36134W        W97665  12.717  14.307  12.949
36135W        W97666  29.653  42.322   2.725
36136W        W97667   7.776  43.907   1.737
36137W        W97668   4.853  42.427   3.347
36138W        W97669  15.115   7.751  11.580
36139W        W97670  43.498   2.845  11.517
36140W        W97671  15.297  41.431   2.859
36141W        W97672  18.780   9.885   4.257
36142W        W97673   7.861   2.787  10.405
36143W        W97674   6.702  12.262   3.698
36144W        W97675   2.237  18.687  14.761
36145W        W97676  13.295  18.224  13.395
36146W        W97677  12.308   7.754  13.864
36147W        W97678  18.216  22.139   2.778
36148W        W97679  10.201  37.491   3.166
36149W        W97680  20.750   4.833  12.469
36150W        W97681   1.460   2.434  11.034
36151W        W97682  27.477  35.366  14.772
36152W        W97683  12.317   9.817  14.336
36153W        W97684  36.912  20.625  10.608
36154W        W97685  10.692  22.043  10.918
36155W        W97686  15.704  18.248  11.062
36156W        W97687  14.615  41.893   0.838
36157W        W97688  23.558  20.221  14.005
36158W        W97689  38.558   9.279   4.241
36159W        W97690   8.193  23.683   0.448
36160W        W97691  13.735  13.148   0.418
36161W        W97692  41.451  19.536  12.359
36162W        W97693  12.338  17.724  14.024
36163W        W97694  42.444   1.732  13.394
36164W        W97695  17.620   8.814   3.269
36165W        W97696  36.393  14.312   3.685
36166W        W97697  37.905  44.330  11.893
36167W        W97698  39.838   7.666  13.956
36168W        W97699  27.125  12.678   4.830
36169W        W97700  23.003  14.617  13.801
36170W        W97701   5.299  38.516  12.473
36171W        W97702  22.672  28.511  14.920
36172W        W97703  43.978  41.864   2.291
36173W        W97704  38.555  24.683   2.847
36174W        W97705  41.815  39.820   1.312
36175W        W97706   0.299  14.234   0.823
36176W        W97707  24.111  31.914   3.638
36177W        W97708  40.479   9.230   4.291
36178W        W97709  41.939   1.960  13.893
36179W        W97710  16.175  27.633   3.759
36180W        W97711   9.856  38.571  12.562
36181W        W97712  44.993  10.801   3.312
36182W        W97713  24.216  31.992  11.902
36183W        W97714  27.648  18.064  13.858
36184W        W97715  24.067  42.422  12.866
36185W        W97716  11.238  12.212   4.140
36186W        W97717  18.082  23.030  11.498
36187W        W97718  36.399  10.219  14.813
36188W        W97719   2.794  19.620  12.359
36189W        W97720  29.028   0.398  13.847
36190W        W97721   5.421  31.613   1.714
36191W        W97722  41.010  29.519   1.764
36192W        W97723  15.158  42.384   2.673
36193W        W97724  23.581  34.520   1.711
36194W        W97725   8.854  44.307  12.057
36195W        W97726  38.496  29.669   3.727
36196W        W97727  17.263  32.141   1.867
36197W        W97728   9.850   5.358   4.794
36198W        W97729  43.451  19.655  13.860
36199W        W97730  44.494  19.281   5.283
36200W        W97731  14.235  28.620  11.387
36201W        W97732  37.566  42.887  14.314
36202W        W97733  38.043  34.598  12.906
36203W        W97734  30.560  24.083  10.458
36204W        W97735   8.702  30.061   4.715
36205W        W97736  10.333  27.048   0.340
36206W        W97737  31.122   7.681   1.881
36207W        W97738  37.007  39.823  11.110
36208W        W97739  44.493   0.269  10.416
36209W        W97740  21.236   0.766  14.281
36210W        W97741   2.253  18.201   4.333
36211W        W97742  22.172  11.171  14.910
36212W        W97743   9.363  22.736  10.570
36213W        W97744  41.341  40.050  10.417
36214W        W97745  10.706   7.265   0.290
36215W        W97746  20.201  44.386  11.092
36216W        W97747  20.571  41.891   0.766
36217W        W97748  41.523  44.832  12.370
36218W        W97749  12.782   6.334   4.208
36219W        W97750  36.098  32.099  14.515
36220W        W97751  42.296   3.838   3.263
36221W        W97752  25.510  12.127  12.987
36222W        W97753  21.108  39.356   2.886
36223W        W97754   2.276  19.757  14.964
36224W        W97755  17.779  23.696  14.022
36225W        W97756  14.640   1.742   0.802
36226W        W97757  36.363  23.120   1.248
36227W        W97758  26.172  33.919  10.590
36228W        W97759  40.517  36.472  12.906
36229W        W97760  23.553   7.319  13.387
36230W        W97761   3.404  31.973  11.018
36231W        W97762   2.929  44.836  10.992
36232W        W97763  10.302  30.616  10.465
36233W        W97764  34.027  24.618   4.258
36234W        W97765  26.472   4.229   1.757
36235W        W97766  21.603  19.066   1.277
36236W        W97767  25.551  41.448   3.331
36237W        W97768   9.153  37.056   1.390
36238W        W97769  35.974  41.430  11.459
36239W        W97770  28.493   2.907  13.043
36240W        W97771  15.723  17.208  13.823
36241W        W97772  22.035  21.686  11.476
36242W        W97773  14.758  40.387  12.398
36243W        W97774  10.785  44.933  14.406
36244W        W97775  28.471  16.196   4.220
36245W        W97776   7.333   0.832   4.766
36246W        W97777  15.769  16.705   0.876
36247W        W97778   2.967   7.202  13.351
36248W        W97779  44.913  14.188   1.403
36249W        W97780  43.781  15.235  11.555
36250W        W97781  35.549   1.960  12.831
36251W        W97782  29.921  25.134  13.858
36252W        W97783   3.891  23.003  10.409
36253W        W97784  15.284  22.071   1.216
36254W        W97785  40.455  38.952   4.780
36255W        W97786  30.158  12.853  11.970
36256W        W97787  33.543  44.271   1.212
36257W        W97788  27.635  24.650  12.386
36258W        W97789  31.574   9.395   5.736
36259W        W97790  12.819   1.753   3.246
36260W        W97791   9.281  10.179  11.921
36261W        W97792  25.686  33.993  13.928
36262W        W97793   6.880  32.973  14.015
36263W        W97794  43.489  23.121  10.936
36264W        W97795  26.958  20.217   0.779
36265W        W97796   2.924  43.014  12.904
36266W        W97797  16.280  36.035   3.753
36267W        W97798  13.255  41.039   2.387
36268W        W97799  31.080   8.897  13.941
36269W        W97800   7.314  37.918  10.466
36270W        W97801  31.506  36.539   4.211
36271W        W97802  31.912   5.726  11.484
36272W        W97803  38.550   9.371  12.502
36273W        W97804  43.416   6.718  13.450
36274W        W97805   6.198  21.072  14.451
36275W        W97806  31.928  16.109  11.116
36276W        W97807  25.710  42.999  13.312
36277W        W97808  38.325  42.009  13.324
36278W        W97809  16.756   2.323   3.867
36279W        W97810  39.324  15.652   4.310
36280W        W97811  10.728   4.230   2.261
36281W        W97812  38.957  20.192  10.994
36282W        W97813   9.833  27.462   0.870
36283W        W97814  27.163   3.394  13.015
36284W        W97815  33.886  17.194  13.792
36285W        W97816  32.434   1.917  14.509
36286W        W97817   2.300  30.424  12.379
36287W        W97818  14.169   0.819  13.312
36288W        W97819  15.788   9.745  13.930
36289W        W97820  10.346  12.635  13.028
36290W        W97821  11.171   0.354  11.607
36291W        W97822  23.687  13.291   3.652
36292W        W97823  13.169  27.049  12.570
36293W        W97824  37.373  38.937  11.969
36294W        W97825  27.623   0.447  11.412
36295W        W97826  19.587  39.394   2.210
36296W        W97827  37.556  25.131  11.034
36297W        W97828   3.867   7.195   3.668
36298W        W97829  29.511  16.266  13.928
36299W        W97830  33.037   2.928  11.443
36300W        W97831  17.727   1.862   2.288
36301W        W97832  42.783  41.841   4.672
36302W        W97833  35.044  27.481  11.120
36303W        W97834  27.999  22.613   2.412
36304W        W97835  12.229  18.055  10.522
36305W        W97836   3.835  12.153   4.150
36306W        W97837  17.613  41.448   4.657
36307W        W97838  22.541  16.579  12.854
36308W        W97839  19.053   6.223   3.675
36309W        W97840   8.899  30.497  13.839
36310W        W97841  26.116  24.188  12.365
36311W        W97842   2.229  17.200  12.410
36312W        W97843  17.215  43.351   3.792
36313W        W97844  31.146  36.001  13.032
36314W        W97845  12.840  44.766  10.943
36315W        W97846  32.573  28.028   1.412
36316W        W97847  43.776  11.310  12.872
36317W        W97848  22.622  19.192  13.356
36318W        W97849  10.340   0.428   5.749
36319W        W97850   7.384   7.710  13.493
36320W        W97851   8.871  35.505  12.906
36321W        W97852  21.236  26.631  12.413
36322W        W97853  25.602   2.418   2.206
36323W        W97854  13.761  40.862   1.723
36324W        W97855  20.743   1.400   1.398
36325W        W97856  23.634  32.392   0.370
36326W        W97857  17.203  10.772  10.919
36327W        W97858  33.382  42.918  12.443
36328W        W97859  33.080  41.472   4.316
36329W        W97860   5.419  14.122  12.046
36330W        W97861  30.553  27.645  14.472
36331W        W97862  16.234  25.535  14.792
36332W        W97863  36.912   8.333   4.746
36333W        W97864  44.319  39.343  14.434
36334W        W97865  26.625  16.615  10.589
36335W        W97866  35.073   6.908   2.292
36336W        W97867  27.600  33.505  10.517
36337W        W97868   1.411  10.288  13.973
36338W        W97869   7.183  34.533   2.850
36339W        W97870  38.330  22.089   1.360
36340W        W97871  24.103  41.930  14.984
36341W        W97872   7.405  33.908   3.281
36342W        W97873  25.560   6.777  11.864
36343W        W97874  34.557  22.118   1.315
36344W        W97875  19.778  18.777  10.946
36345W        W97876  20.688   2.444  10.420
36346W        W97877  13.173  25.116  13.859
36347W        W97878  20.723   4.395  14.952
36348W        W97879  11.160  31.416   0.962
36349W        W97880  25.524  41.467   2.789
36350W        W97881  33.383   3.832   4.128
36351W        W97882   7.757  18.645   0.413
36352W        W97883   5.296   7.348  13.012
36353W        W97884  20.563  15.251  11.053
36354W        W97885  38.819  21.153   1.218
36355W        W97886  18.556  23.095  12.414
36356W        W97887  18.138   5.337  12.854
36357W        W97888   8.192   8.180   4.331
36358W        W97889  25.139   1.247  10.621
36359W        W97890  20.585  24.229   4.647
36360W        W97891   6.402  28.993  14.786
36361W        W97892  12.646  34.101   4.119
36362W        W97893  12.796  37.549  10.976
36363W        W97894  36.859  13.730  10.504
36364W        W97895  31.488  10.158   1.841
36365W        W97896   8.799  28.625   3.810
36366W        W97897  33.926   4.883   4.302
36367W        W97898  26.547  27.614   4.225
36368W        W97899  34.612  42.930   0.368
36369W        W97900   4.433  16.220  11.418
36370W        W97901   7.793  35.516  14.987
36371W        W97902  21.534  40.403   2.262
36372W        W97903  44.778  21.021   0.465
36373W        W97904  26.961  42.911   0.846
36374W        W97905   5.277  41.926  11.943
36375W        W97906  27.108   9.848   0.883
36376W        W97907  34.396   4.422   1.351
36377W        W97908  15.284  14.226  10.493
36378W        W97909  39.028  11.156  13.469
36379W        W97910  42.337  12.833   0.328
36380W        W97911  37.357   8.678   1.323
36381W        W97912  13.650   2.819  13.879
36382W        W97913  27.691   7.740   4.143
36383W        W97914  37.404  18.763  11.869
36384W        W97915  18.217  30.496   1.437
36385W        W97916  26.625   1.903  13.832
36386W        W97917  15.275  33.881  13.462
36387W        W97918  35.561  39.926   1.257
36388W        W97919  42.400   8.363   0.402
36389W        W97920  43.793  29.665  12.876
36390W        W97921  42.915  22.200   1.410
36391W        W97922  44.798   9.215  13.027
36392W        W97923  11.648  41.524   4.669
36393W        W97924  44.945  27.965  12.824
36394W        W97925  12.656   8.703  10.479
36395W        W97926   7.308  38.521  13.011
36396W        W97927  24.223  43.995  11.599
36397W        W97928  40.907  44.811   0.895
36398W        W97929   4.208  26.469   0.845
36399W        W97930  40.951  16.765   4.157
36400W        W97931  16.100  26.967   5.760
36401W        W97932  44.911  13.136   2.888
36402W        W97933  25.620  12.150  14.498
36403W        W97934  24.218   5.315   0.451
36404W        W97935   5.259  24.100  12.446
36405W        W97936  25.708  30.654   1.863
36406W        W97937  32.061  22.224   0.751
36407W        W97938  30.438  17.764  14.283
36408W        W97939  24.182  26.989   2.307
36409W        W97940  33.416  11.247   0.300
36410W        W97941   7.219  11.134   0.256
36411W        W97942  13.810  26.643  11.548
36412W        W97943  32.485   2.256  12.539
36413W        W97944  21.148  26.044  11.053
36414W        W97945  14.607  18.668  14.792
36415W        W97946  36.016  36.465   4.226
36416W        W97947   6.699  18.207  14.345
36417W        W97948  20.606  37.894   3.637
36418W        W97949  14.099  42.857   2.318
36419W        W97950   7.847  18.276  11.611
36420W        W97951  44.880  40.811  14.880
36421W        W97952  15.216  17.750  10.575
36422W        W97953  19.584  41.523   3.183
36423W        W97954  26.609  24.013   1.374
36424W        W97955  20.182  33.576  12.031
36425W        W97956   1.832  32.572   0.868
36426W        W97957   8.308  20.057   0.818
36427W        W97958  25.155  20.597  11.441
36428W        W97959  31.927  12.148   0.936
36429W        W97960  41.786  33.462   4.114
36430W        W97961   0.743  33.454   3.702
36431W        W97962  17.704  44.820   3.686
36432W        W97963  11.713   4.911  10.466
36433W        W97964  42.015  43.318   3.297
36434W        W97965  14.270  22.686  14.838
36435W        W97966  38.832  35.880   2.742
36436W        W97967  21.709  24.704  13.919
36437W        W97968  10.355  20.183  10.415
36438W        W97969  44.777  41.952  11.608
36439W        W97970  12.699  19.088  11.502
36440W        W97971  37.990  21.116   0.271
36441W        W97972   4.296   3.791  12.040
36442W        W97973  29.645  17.667  14.970
36443W        W97974   7.219  19.264  14.408
36444W        W97975  35.465  29.144  12.494
36445W        W97976  31.110   2.289   4.258
36446W        W97977  40.952   1.285   4.829
36447W        W97978  39.929  34.926   2.413
36448W        W97979  20.734  33.053  13.976
36449W        W97980  16.129   1.469   2.806
36450W        W97981   5.862  41.307   4.644
36451W        W97982   6.362  17.146   2.378
36452W        W97983  29.448   8.783   1.722
36453W        W97984  18.129  37.072   3.846
36454W        W97985   0.932  19.180  11.903
36455W        W97986  20.074  11.189   2.894
36456W        W97987  17.137  27.006  13.465
36457W        W97988  10.203  29.155   3.719
36458W        W97989   6.894  41.428  11.430
36459W        W97990  22.157   6.920   2.188
36460W        W97991  35.886  24.104   0.472
36461W        W97992  20.680  18.679   4.744
36462W        W97993  41.485  34.561  12.557
36463W        W97994  32.899  11.776   2.692
36464W        W97995  40.892  40.381   4.248
36465W        W97996  15.702  30.949  14.460
36466W        W97997  34.392   4.719  13.469
36467W        W97998  18.720   6.192   4.353
36468W        W97999  16.743  14.731   3.802
36469W        W98000  15.301  29.025   0.902
36470W        W98001   3.741  28.052  11.550
36471W        W98002  41.490   3.895   1.927
36472W        W98003  30.027   3.377  14.367
36473W        W98004   1.936   4.312  10.612
36474W        W98005  42.490  13.138   3.356
36475W        W98006  17.179  29.959   1.799
36476W        W98007  22.655  20.154  14.945
36477W        W98008  18.077  17.723   4.313
36478W        W98009  41.519  15.164   4.827
36479W        W98010   2.457  30.470  10.521
36480W        W98011  15.710  16.234  11.447
36481W        W98012  12.648  15.322  14.004
36482W        W98013   0.984  35.593   1.752
36483W        W98014   7.746   2.766   4.222
36484W        W98015  23.123  14.136  12.454
36485W        W98016  12.343   1.270   3.788
36486W        W98017  34.426  15.225  13.960
36487W        W98018  14.235  34.874   0.421
36488W        W98019   4.396  14.767   3.647
36489W        W98020  33.493  10.781  11.501
36490W        W98021  25.550  31.409   4.791
36491W        W98022   0.392  22.577  12.952
36492W        W98023  19.157  21.239   2.300
36493W        W98024  44.918  43.772  10.556
36494W        W98025  25.982  40.993   3.293
36495W        W98026  30.489  15.708   4.304
36496W        W98027  23.503   9.187  12.034
36497W        W98028  20.669  43.925   1.885
36498W        W98029  13.224  28.004   4.711
36499W        W98030  18.283   4.896   2.294
36500W        W98031  32.625  18.597   4.121
36501W        W98032   4.863  43.940  14.933
36502W        W98033  10.854  42.368  11.948
36503W        W98034  15.708  27.088  13.419
36504W        W98035  10.349  39.999  12.903
36505W        W98036  31.972  38.028  10.083
36506W        W98037   5.718   3.379   3.783
36507W        W98038   1.738  10.873  13.983
36508W        W98039  29.621   5.791  14.911
36509W        W98040  44.473  12.261   1.815
36510W        W98041  34.589  43.918   3.255
36511W        W98042  15.090  13.133   1.449
36512W        W98043  15.682  21.091   1.436
36513W        W98044   2.345  25.666   9.990
36514W        W98045  26.018   1.460  13.881
36515W        W98046  15.118  35.028   3.844
36516W        W98047   3.714  36.873   0.274
36517W        W98048  30.107  25.204  11.934
36518W        W98049  20.172  16.673  13.391
36519W        W98050   0.759  15.700   1.718
36520W        W98051   6.784  15.656  13.468
36521W        W98052  10.300  25.671   3.712
36522W        W98053  23.098   3.242  13.522
36523W        W98054  28.660   7.793   3.753
36524W        W98055  14.655  11.753   3.840
36525W        W98056  36.457   6.849  13.958
36526W        W98057  39.955  22.679  13.825
36527W        W98058   4.867  20.162   2.249
36528W        W98059   5.827  12.822  11.977
36529W        W98060  11.736   8.831   3.727
36530W        W98061  14.141  26.129   0.386
36531W        W98062  15.621  15.181  12.900
36532W        W98063  13.823  38.453  12.433
36533W        W98064   4.939  10.194   2.697
36534W        W98065   9.261  38.985   1.892
36535W        W98066  43.976   2.881  11.061
36536W        W98067  14.783   8.690  11.037
36537W        W98068  37.347  23.736  13.793
36538W        W98069  23.515   8.791   3.747
36539W        W98070  44.947  40.864   1.318
36540W        W98071  23.194  21.541  10.507
36541W        W98072  18.574   2.443  11.464
36542W        W98073  21.162   0.797   5.216
36543W        W98074  27.111  11.224  10.570
36544W        W98075  28.655  21.223  10.586
36545W        W98076  30.591  24.097  11.033
36546W        W98077   4.307  10.741   0.407
36547W        W98078  26.159  44.262   4.780
36548W        W98079  25.575   3.810   0.422
36549W        W98080  13.690  30.651  13.851
36550W        W98081  38.397  17.582  12.013
36551W        W98082  41.843  44.335   4.626
36552W        W98083  43.912   3.393  12.456
36553W        W98084  40.894   3.941   2.239
36554W        W98085   8.402   0.943  12.075
36555W        W98086  25.481   8.315  12.418
36556W        W98087  39.052   8.374  10.889
36557W        W98088  35.061  28.446   3.318
36558W        W98089  26.970   2.939   0.814
36559W        W98090  37.080   7.809   2.229
36560W        W98091  23.672  41.930  11.591
36561W        W98092  22.029  31.618  10.140
36562W        W98093  20.603  26.081  13.971
36563W        W98094  20.124  24.103  10.433
36564W        W98095  10.748  12.358   0.841
36565W        W98096   4.912  20.726   3.727
36566W        W98097  10.751  13.143   1.768
36567W        W98098  10.139  20.161  11.581
36568W        W98099  33.987   7.803   0.764
36569W        W98100   8.870   4.942  12.347
36570W        W98101  28.178  22.243   3.176
36571W        W98102   4.913  21.593  13.364
36572W        W98103  37.012  23.024  14.010
36573W        W98104  26.532  18.153   4.326
36574W        W98105  16.232  16.163  13.375
36575W        W98106  39.810  27.132   4.729
36576W        W98107  15.186   0.422   3.812
36577W        W98108   8.256  28.955  13.407
36578W        W98109  35.512  10.650  14.916
36579W        W98110  29.925  42.915   3.338
36580W        W98111  18.643  24.668  11.418
36581W        W98112  19.557  22.244  13.543
36582W        W98113  13.843  19.704  13.476
36583W        W98114   4.414  15.715  11.927
36584W        W98115  43.391  28.568  13.791
36585W        W98116   2.351  30.441  12.997
36586W        W98117  34.577  29.021  10.525
36587W        W98118  27.588  20.131  10.595
36588W        W98119  43.009   0.966  14.969
36589W        W98120  38.051  17.573  14.498
36590W        W98121  31.436  17.103   4.762
36591W        W98122  35.087  37.507   3.211
36592W        W98123  18.695   2.932   1.221
36593W        W98124  18.152  42.032   4.259
36594W        W98125  30.948   3.737   2.330
36595W        W98126  37.546  11.339  13.505
36596W        W98127  44.914  22.584  11.458
36597W        W98128   0.325  11.222  14.442
36598W        W98129  43.348  43.453   3.332
36599W        W98130  17.248  27.567  11.604
36600W        W98131  23.094  14.259  13.810
36601W        W98132   5.925  25.625   5.300
36602W        W98133   2.752  25.136   1.358
36603W        W98134  24.980  14.157  12.957
36604W        W98135  33.056  19.234  12.431
36605W        W98136  29.140  21.052   4.314
36606W        W98137  29.591  43.943  14.919
36607W        W98138  20.118  16.158  12.090
36608W        W98139  21.523  25.472   2.326
36609W        W98140  16.622  41.894  10.628
36610W        W98141   2.323  40.044   0.283
36611W        W98142   5.417  14.683   2.684
36612W        W98143  33.077  25.985   2.673
36613W        W98144   6.886  44.890   4.697
36614W        W98145  11.769   7.696  12.387
36615W        W98146  13.154  23.235   4.663
36616W        W98147  29.646  32.401   4.244
36617W        W98148  21.562  27.079  11.414
36618W        W98149  23.108   2.286   4.232
36619W        W98150  37.374  24.030  14.327
36620W        W98151  10.809  44.860  14.887
36621W        W98152  31.085  20.047   2.387
36622W        W98153  44.971   4.296  12.547
36623W        W98154  15.104  11.833  14.854
36624W        W98155  44.856  17.802   3.322
36625W        W98156  34.514  34.096  11.556
36626W        W98157   6.879  39.329  13.418
36627W        W98158  40.929  13.249  14.397
36628W        W98159  38.389   2.407  13.469
36629W        W98160   8.676  40.470  13.809
36630W        W98161  10.679   7.852   3.255
36631W        W98162   3.313  29.630   2.211
36632W        W98163  42.500  12.627  14.896
36633W        W98164  39.434  12.269  13.016
36634W        W98165  26.109   5.872   4.134
36635W        W98166  16.578   3.339  12.082
36636W        W98167  26.119  36.843  12.370
36637W        W98168  14.741  26.661  14.515
36638W        W98169  41.870  26.165   1.762
36639W        W98170  19.655  30.935  13.507
36640W        W98171  35.602   2.429  12.530
36641W        W98172  36.911   5.783  10.502
36642W        W98173  41.817  20.177  12.573
36643W        W98174  41.950  17.730   2.711
36644W        W98175  13.808  16.612   2.361
36645W        W98176  39.833   4.726  14.851
36646W        W98177  42.931  44.866   0.964
36647W        W98178   4.210  39.417  12.940
36648W        W98179  35.098  30.649   2.784
36649W        W98180  19.141  35.984  10.470
36650W        W98181  39.837   0.932  12.840
36651W        W98182  44.997   9.316   2.669
36652W        W98183  37.907  37.513   1.889
36653W        W98184   3.930  22.742   5.102
36654W        W98185  25.055  43.772  12.990
36655W        W98186  18.709  15.207  11.013
36656W        W98187  31.512  17.100   0.831
36657W        W98188   5.930   8.711   4.640
36658W        W98189  34.044  14.708   9.439
36659W        W98190  43.948  25.974   4.763
36660W        W98191  15.751  36.456   5.107
36661W        W98192  13.171  34.990  14.448
36662W        W98193  43.286  14.802  13.947
36663W        W98194   3.442  29.125  11.561
36664W        W98195   5.239  12.738   1.759
36665W        W98196  36.561  26.107  13.447
36666W        W98197  33.527  39.862   4.280
36667W        W98198  19.771  16.228  14.768
36668W        W98199  32.017  32.561  11.078
36669W        W98200  43.491  12.127   3.319
36670W        W98201  10.366   3.885  12.089
36671W        W98202  12.850  24.072  11.372
36672W        W98203  44.804  10.223  12.464
36673W        W98204  44.445  17.177   5.215
36674W        W98205  40.807  44.789  14.918
36675W        W98206  10.679  35.486  12.868
36676W        W98207  27.687  34.042   1.876
36677W        W98208   5.322  36.948   1.243
36678W        W98209  39.413  14.264  13.968
36679W        W98210  23.100   3.417  11.384
36680W        W98211  18.203   5.222   0.255
36681W        W98212  34.017  17.669  10.404
36682W        W98213  36.043  33.059   3.811
36683W        W98214  22.734   1.418   3.712
36684W        W98215  26.142   7.725  13.918
36685W        W98216  13.791  40.392   3.181
36686W        W98217  28.997  26.130  13.913
36687W        W98218  17.143   1.961   1.304
36688W        W98219  44.781  25.514  10.912
36689W        W98220  39.382  35.483  10.471
36690W        W98221   1.254  37.379   3.820
36691W        W98222  32.545  36.556   2.244
36692W        W98223   5.890  15.164   2.723
36693W        W98224  37.053  30.121  10.556
36694W        W98225  17.273  37.342  13.923
36695W        W98226  31.942   7.865  12.505
36696W        W98227  29.614  13.722  13.399
36697W        W98228  11.775  21.249   4.335
36698W        W98229   3.860  28.441   1.332
36699W        W98230  32.482  27.494   2.258
36700W        W98231  39.873  21.117  12.859
36701W        W98232  18.181  30.527  14.300
36702W        W98233  12.247   3.420   1.233
36703W        W98234  13.814  18.145   2.281
36704W        W98235  38.549  25.112  11.520
36705W        W98236  14.632  27.461   1.450
36706W        W98237  41.930  17.135  11.918
36707W        W98238  41.500  31.607   4.174
36708W        W98239  16.141  39.011   3.732
36709W        W98240  13.706  10.792  14.428
36710W        W98241   6.334  22.509   3.159
36711W        W98242  26.555   8.791   2.819
36712W        W98243  24.555  20.605   1.382
36713W        W98244  17.748   1.481   1.793
36714W        W98245   1.244  11.713   0.863
36715W        W98246   0.280  10.649  13.022
36716W        W98247  43.394  17.169  10.042
36717W        W98248  14.166  35.585  14.939
36718W        W98249  16.158  11.761  13.884
36719W        W98250  42.826  19.071   4.282
36720W        W98251  43.961  16.107  13.882
36721W        W98252   1.762  18.754   4.154
36722W        W98253  43.848  23.686  10.642
36723W        W98254  35.481  37.905  10.586
36724W        W98255  12.635   7.739   3.696
36725W        W98256  40.420  29.537  13.939
36726W        W98257   0.862  34.108   2.860
36727W        W98258   1.924  14.590   2.732
36728W        W98259   1.300   6.734  11.899
36729W        W98260   6.251  19.567  11.431
36730W        W98261   3.872  36.847   0.745
36731W        W98262   7.231  11.738   2.265
36732W        W98263  17.081  14.126   1.351
36733W        W98264  26.659  34.969  13.855
36734W        W98265  25.982   9.782  12.064
36735W        W98266  43.452   2.753   1.886
36736W        W98267  28.978  27.532   0.320
36737W        W98268   4.210   1.778  14.964
36738W        W98269   9.210  28.494  12.851
36739W        W98270  22.567  19.615   1.358
36740W        W98271   4.339   7.384   0.418
36741W        W98272  44.971  44.968   4.777
36742W        W98273  38.075  34.489  14.318
36743W        W98274   8.668  11.277   2.811
36744W        W98275  35.601   6.746   2.896
36745W        W98276  10.806  24.712   1.741
36746W        W98277   5.922  31.108  13.001
36747W        W98278   0.758   4.439   1.837
36748W        W98279  34.028  27.972   1.251
36749W        W98280   4.820   8.707   2.205
36750W        W98281  15.660  32.618  14.917
36751W        W98282  24.999  24.535   1.451
36752W        W98283  12.802  36.556   3.281
36753W        W98284  38.076  22.040   4.731
36754W        W98285  43.297  18.205  13.509
36755W        W98286  20.572  37.439   2.664
36756W        W98287  39.047   9.648  14.842
36757W        W98288   8.776   0.988   5.282
36758W        W98289  36.964  15.282  13.477
36759W        W98290  34.586  44.388  11.110
36760W        W98291   8.365   5.348   4.757
36761W        W98292   7.341   3.238   2.695
36762W        W98293  17.632  32.526   4.247
36763W        W98294  27.138  12.133   0.475
36764W        W98295  13.717  16.222   0.764
36765W        W98296  42.932   1.322   4.818
36766W        W98297  30.520  29.059  14.509
36767W        W98298   4.872  38.831   1.389
36768W        W98299  34.584  38.955   2.806
36769W        W98300  14.229  34.012   1.868
36770W        W98301   5.691  11.718  11.582
36771W        W98302  31.570  12.639  14.932
36772W        W98303   5.881   7.320   4.139
36773W        W98304  22.136  26.695   4.798
36774W        W98305  24.689  32.947  14.938
36775W        W98306   7.270  35.901  13.924
36776W        W98307   6.735   8.372   3.232
36777W        W98308   1.791  21.190   1.744
36778W        W98309   7.189  22.645  12.368
36779W        W98310   3.421  20.640  14.316
36780W        W98311  18.153  32.043   2.223
36781W        W98312  18.690  35.446  11.054
36782W        W98313   7.210  37.556  10.962
36783W        W98314  17.595  10.699   0.461
36784W        W98315  42.409  16.137   0.419
36785W        W98316  10.759  20.218  13.316
36786W        W98317  37.417   6.910   2.858
36787W        W98318  14.185   7.388   0.449
36788W        W98319  30.435  43.895  10.491
36789W        W98320  31.099  42.335   4.708
36790W        W98321  28.583  25.193   1.806
36791W        W98322  14.737  22.205  12.942
36792W        W98323  33.599  16.092   1.390
36793W        W98324  40.348   0.473  11.088
36794W        W98325  40.880  27.999  13.516
36795W        W98326  25.494  24.628  14.357
36796W        W98327   1.849   8.320  12.484
36797W        W98328  37.064  20.551   4.718
36798W        W98329  20.657  44.402   3.746
36799W        W98330  15.795  44.988   2.846
36800W        W98331  30.482  23.204   0.837
36801W        W98332  11.296  28.467  11.464
36802W        W98333  35.366  28.960   0.421
36803W        W98334   2.407  24.995   0.425
36804W        W98335  41.391  41.901  14.386
36805W        W98336   6.363  21.096  10.029
36806W        W98337  17.779  40.423   3.840
36807W        W98338  17.258  11.856   3.761
36808W        W98339   7.676  27.636  10.477
36809W        W98340   4.374   0.473   3.256
36810W        W98341  33.000  42.004   0.471
36811W        W98342  30.113  35.061   3.261
36812W        W98343  32.464  41.825  12.058
36813W        W98344   5.282  21.209   4.286
36814W        W98345  24.203   6.908  12.018
36815W        W98346  43.934  15.223   0.933
36816W        W98347  42.293  33.924  12.463
36817W        W98348  43.502  14.177   4.287
36818W        W98349  26.152  22.023  12.517
36819W        W98350   1.753  38.424   2.395
36820W        W98351  24.204   4.883  11.407
36821W        W98352  18.545  35.884  12.095
36822W        W98353  44.009  37.853   1.823
36823W        W98354  13.227  28.165  11.385
36824W        W98355  14.680  28.041  14.825
36825W        W98356  16.093  18.769   0.326
36826W        W98357  35.500  36.350   1.910
36827W        W98358  34.605  29.971  13.498
36828W        W98359  28.662   3.834   4.665
36829W        W98360  40.470   7.846  11.969
36830W        W98361   9.756   1.738  13.506
36831W        W98362  21.593  30.081   5.702
36832W        W98363  22.060  18.078  14.929
36833W        W98364   7.328   1.770   5.283
36834W        W98365  24.070  21.599  12.876
36835W        W98366   9.204  39.474   4.619
36836W        W98367   5.290   1.756  14.924
36837W        W98368   9.175  33.396  11.906
36838W        W98369  10.234  10.840  12.549
36839W        W98370  11.679  12.832   5.278
36840W        W98371   0.477  16.803  13.058
36841W        W98372  34.064  26.996   4.725
36842W        W98373  39.335  23.717  13.524
36843W        W98374  28.154  18.729   0.812
36844W        W98375  13.283  12.179  12.016
36845W        W98376   2.823  34.397  13.011
36846W        W98377  21.735  33.487  13.339
36847W        W98378  37.984  15.645  12.880
36848W        W98379   5.899  18.272   1.932
36849W        W98380  37.066  44.820   1.923
36850W        W98381  34.071   3.293   3.765
36851W        W98382  40.314   2.410   3.279
36852W        W98383   4.295   5.789  12.916
36853W        W98384   9.151  34.101   4.720
36854W        W98385  30.907  26.674   0.894
36855W        W98386  37.983  44.420   0.902
36856W        W98387  31.020  21.027  12.494
36857W        W98388  12.829   8.222   1.395
36858W        W98389  44.812   4.923  10.507
36859W        W98390  39.901   0.897  11.124
36860W        W98391  28.162   6.294  14.902
36861W        W98392  25.702  28.501   1.840
36862W        W98393  14.667  43.483  13.886
36863W        W98394  29.540  24.061  12.828
36864W        W98395  33.949  28.973   0.918
36865W        W98396  25.674   7.192   4.324
36866W        W98397   0.392  41.354   0.744
36867W        W98398   6.811  44.858   0.886
36868W        W98399   8.842  36.905  11.019
36869W        W98400  17.704   1.890   4.309
36870W        W98401   6.294  31.072  12.922
36871W        W98402  18.740  21.704  14.817
36872W        W98403  34.432  31.964  13.883
36873W        W98404  35.016  44.882  10.413
36874W        W98405  17.071   1.777   3.215
36875W        W98406  14.769  14.233   1.722
36876W        W98407  30.080  25.056  10.455
36877W        W98408  19.618   2.235  13.475
36878W        W98409  32.610  17.751  13.007
36879W        W98410  27.622  20.101   3.631
36880W        W98411   5.321  17.703   0.873
36881W        W98412  16.611  24.180   3.779
36882W        W98413  18.611  21.144  13.879
36883W        W98414  30.591   1.944   4.827
36884W        W98415  11.806  13.721  13.892
36885W        W98416  34.949  14.164   4.761
36886W        W98417  22.101  30.989   4.203
36887W        W98418   5.208   0.424   4.597
36888W        W98419  24.228  11.690   3.651
36889W        W98420  26.474  28.560  14.969
36890W        W98421  37.561  26.163  11.056
36891W        W98422   3.724  32.572  11.508
36892W        W98423  33.492  22.077  14.511
36893W        W98424   3.755  10.349  12.088
36894W        W98425   0.957  31.635  10.927
36895W        W98426  36.368  44.369   5.254
36896W        W98427   7.715  26.601   1.303
36897W        W98428  13.782  28.589   1.880
36898W        W98429   7.754  40.464  14.002
36899W        W98430   9.160   6.317   2.376
36900W        W98431  41.292  28.528   2.859
36901W        W98432   2.916  24.552   2.403
36902W        W98433  16.318  37.451   3.375
36903W        W98434  37.937  39.336  14.392
36904W        W98435   4.886  31.566  13.997
36905W        W98436   7.907  29.036   0.379
36906W        W98437  35.454  17.781  12.455
36907W        W98438  21.231  41.824   4.204
36908W        W98439  28.668  29.517  11.035
36909W        W98440  41.424   8.893   3.299
36910W        W98441   0.981  35.587  14.002
36911W        W98442  33.393   5.397   4.628
36912W        W98443   8.197  35.986  13.456
36913W        W98444  30.125   6.291   0.825
36914W        W98445  42.927  22.172   3.327
36915W        W98446  41.999   2.760  13.064
36916W        W98447   8.693  30.987  11.383
36917W        W98448  11.139   6.821  12.377
36918W        W98449  17.187  13.807  14.013
36919W        W98450   2.416  11.723  10.490
36920W        W98451  25.678   0.980   3.282
36921W        W98452  14.600  18.190   4.651
36922W        W98453  29.979  34.587   0.777
36923W        W98454   1.904  18.148  13.322
36924W        W98455  10.718  27.008   3.834
36925W        W98456  41.386  15.809   3.342
36926W        W98457   6.191  16.263  10.898
36927W        W98458  40.483   6.839   2.301
36928W        W98459  20.274  22.191  10.091
36929W        W98460  41.943   7.246   3.238
36930W        W98461  44.945  31.034   0.441
36931W        W98462  14.146  20.588   3.703
36932W        W98463  38.903   7.708  14.358
36933W        W98464  31.543  26.492  11.549
36934W        W98465   3.777  39.540  14.853
36935W        W98466  41.460   8.749  14.819
36936W        W98467  24.619  33.433  12.023
36937W        W98468  10.164  28.673  14.869
36938W        W98469   0.965   4.859   5.081
36939W        W98470  43.417  18.737  12.960
36940W        W98471  20.537  17.108   1.779
36941W        W98472  21.716  41.355  13.500
36942W        W98473  12.300  15.598  13.437
36943W        W98474  35.441  14.134   5.230
36944W        W98475   6.216  22.177   4.131
36945W        W98476  17.107  25.554  14.025
36946W        W98477  34.088  41.361  13.404
36947W        W98478  14.762  18.753   1.771
36948W        W98479  44.911  20.522   2.687
36949W        W98480  20.232  14.591  14.958
36950W        W98481  12.347   6.198   3.243
36951W        W98482  40.461   2.426   1.360
36952W        W98483  40.478  10.354  12.444
36953W        W98484  19.120  13.151  12.025
36954W        W98485  24.493  36.364  14.848
36955W        W98486   8.167  23.028  11.049
36956W        W98487  42.285  29.972   3.681
36957W        W98488  26.117  31.149   0.401
36958W        W98489  30.122  24.584   4.147
36959W        W98490  42.890   2.956  14.292
36960W        W98491  32.048  38.924   1.228
36961W        W98492  16.138  19.730  14.794
36962W        W98493  44.996  11.642  14.288
36963W        W98494  43.996   6.898  11.889
36964W        W98495  33.029   1.441   3.192
36965W        W98496  23.615  44.969   4.154
36966W        W98497  10.831  26.600   0.438
36967W        W98498  11.817   1.919   1.816
36968W        W98499  39.026   5.858  12.864
36969W        W98500  13.809  39.015   3.183
36970W        W98501  31.404   1.389  12.853
36971W        W98502   8.175  33.017   2.834
36972W        W98503  25.631  26.202   1.799
36973W        W98504  37.417  16.570   0.873
36974W        W98505   0.837   0.417  11.402
36975W        W98506  32.061  37.576  12.952
36976W        W98507  23.106   4.268   2.670
36977W        W98508  13.232  38.383  11.872
36978W        W98509  11.357  14.312  13.447
36979W        W98510   7.194  38.010  13.316
36980W        W98511  30.606  41.522   4.267
36981W        W98512  30.037   4.381  10.979
36982W        W98513  15.142   3.756  10.633
36983W        W98514  11.733  30.434  14.822
36984W        W98515   6.428  22.716   1.211
36985W        W98516  25.634  24.017   4.199
36986W        W98517  43.868  40.379  14.761
36987W        W98518  28.595   7.363   9.454
36988W        W98519   1.281  39.404  10.409
36989W        W98520  11.314  14.687   1.884
36990W        W98521  11.366  16.651   3.289
36991W        W98522  32.131  23.527   0.306
36992W        W98523  33.531  17.242  14.474
36993W        W98524   9.783  33.064   1.902
36994W        W98525  25.993  28.548   4.759
36995W        W98526  23.227  20.103   2.823
36996W        W98527  37.918  35.364   1.805
36997W        W98528   4.426   4.744  12.567
36998W        W98529  23.197  44.765   4.218
36999W        W98530  21.043  29.067  11.113
37000W        W98531  38.402   5.373  11.994
37001W        W98532  20.681  16.178  13.445
37002W        W98533  21.245  21.240  11.519
37003W        W98534   4.285  40.364   1.319
37004W        W98535  34.482   5.411  14.300
37005W        W98536  10.650   7.686   4.199
37006W        W98537   8.657  16.749   4.142
37007W        W98538  43.386  38.329  13.392
37008W        W98539  19.618  18.079   2.798
37009W        W98540  25.103  42.424  14.935
37010W        W98541  19.592  24.003  12.969
37011W        W98542  44.842  40.896  10.473
37012W        W98543  41.998  28.072   2.745
37013W        W98544  30.056  12.663  10.900
37014W        W98545  44.437  43.960  13.522
37015W        W98546  27.574  25.511  14.032
37016W        W98547  12.171  21.587  14.995
37017W        W98548  28.507  29.044   1.935
37018W        W98549  37.400   7.329  13.358
37019W        W98550  33.936  24.497  13.916
37020W        W98551  11.685  20.091  14.765
37021W        W98552  43.765  13.654   1.881
37022W        W98553   5.736  39.002  11.460
37023W        W98554  13.714  17.557  10.471
37024W        W98555  27.677  38.042   3.864
37025W        W98556   5.430  39.499  11.528
37026W        W98557   8.852   5.821  11.425
37027W        W98558  36.871  17.578   2.684
37028W        W98559  21.641  17.669   0.434
37029W        W98560  43.492  16.311   1.702
37030W        W98561   6.420   6.679  10.634
37031W        W98562  43.802  26.081   2.834
37032W        W98563   1.275  38.891   3.301
37033W        W98564  43.359  19.225   3.709
37034W        W98565   0.381   6.877  12.932
37035W        W98566  41.473  41.512   3.196
37036W        W98567  20.028  29.580   0.302
37037W        W98568  15.276  24.993  11.581
37038W        W98569  30.532  44.269  11.033
37039W        W98570   8.183  38.058   2.183
37040W        W98571   1.426  10.865   0.442
37041W        W98572   8.877  10.829  14.470
37042W        W98573   0.809  14.225   4.148
37043W        W98574  13.173  22.732  14.284
37044W        W98575  30.466  27.161  12.918
37045W        W98576  24.078  33.462  10.027
37046W        W98577  32.510  39.457  11.451
37047W        W98578  10.843   0.753  13.523
37048W        W98579  29.597   0.815  11.953
37049W        W98580  29.044  18.638  11.957
37050W        W98581  22.007  44.369  10.547
37051W        W98582  38.962  29.164  10.927
37052W        W98583  24.611  10.184  14.910
37053W        W98584  30.042   8.853  11.508
37054W        W98585  15.312  20.198  13.884
37055W        W98586  15.620  15.759   4.643
37056W        W98587   8.375   4.399  12.531
37057W        W98588  36.936  30.988   2.401
37058W        W98589   3.790  43.868  10.927
37059W        W98590   7.392  20.539  10.456
37060W        W98591  30.984  42.467   3.192
37061W        W98592  12.194  12.276   0.309
37062W        W98593  34.892  17.147  10.994
37063W        W98594   5.400  43.958   3.337
37064W        W98595  22.123  10.195  10.963
37065W        W98596   1.272  42.988  11.885
37066W        W98597  27.653   8.772   4.309
37067W        W98598   9.237  25.216   3.649
37068W        W98599  22.190  27.508   2.764
37069W        W98600  28.489  27.019   3.317
37070W        W98601  23.218  44.464   2.761
37071W        W98602  28.960  14.106   5.213
37072W        W98603   0.796   4.906   4.784
37073W        W98604  26.097  12.687  13.531
37074W        W98605  32.609  35.515   3.675
37075W        W98606  30.929  38.986   4.795
37076W        W98607  41.970  11.231  11.977
37077W        W98608  37.373  40.399  14.951
37078W        W98609  22.150  26.953   3.343
37079W        W98610  25.557  21.616  11.380
37080W        W98611   6.704  26.953  14.895
37081W        W98612  14.720  34.950   4.155
37082W        W98613  26.677  25.183  12.548
37083W        W98614  29.627  23.109   0.353
37084W        W98615  34.948  39.923   1.911
37085W        W98616  11.839  25.509  12.000
37086W        W98617  13.640  16.186  10.464
37087W        W98618   5.872   9.173  10.909
37088W        W98619  42.016  33.487  11.052
37089W        W98620  11.808  28.945  11.006
37090W        W98621  13.676   4.352   3.340
37091W        W98622  10.706   2.955  14.864
37092W        W98623  35.020  28.954  14.866
37093W        W98624  16.670  28.601   3.287
37094W        W98625  13.282  25.567  12.403
37095W        W98626  24.595  35.510  12.483
37096W        W98627  36.575  25.117  12.503
37097W        W98628   3.266  33.565  10.923
37098W        W98629  25.613  11.686  12.537
37099W        W98630  25.515  26.117  13.835
37100W        W98631  26.571  20.269  13.824
37101W        W98632  34.397  15.728  13.866
37102W        W98633  10.802  38.961   4.614
37103W        W98634  35.464   0.920   1.732
37104W        W98635  17.127   4.215   1.351
37105W        W98636  39.835  16.086   1.221
37106W        W98637   7.732  37.555  11.877
37107W        W98638  40.307   0.985   1.790
37108W        W98639  39.825   2.282   3.802
37109W        W98640   5.855   8.745  14.884
37110W        W98641  25.500  22.560  10.968
37111W        W98642   3.248  43.438   2.411
37112W        W98643  10.846   9.172  14.374
37113W        W98644  40.372  44.778  12.013
37114W        W98645  10.308  24.173   2.804
37115W        W98646  44.368  24.116   2.821
37116W        W98647  29.958  27.656  14.462
37117W        W98648   3.417  13.274   2.283
37118W        W98649  23.590  30.107   0.415
37119W        W98650  40.855  10.337   0.735
37120W        W98651  16.650  37.478  11.418
37121W        W98652  30.014  33.555   1.777
37122W        W98653  37.491   8.836   5.648
37123W        W98654  34.451  10.338   2.886
37124W        W98655  11.317  14.658   0.262
37125W        W98656  20.600  40.354  12.984
37126W        W98657  40.466  29.168  12.392
37127W        W98658  15.634  13.123  14.947
37128W        W98659   5.698  13.234  12.965
37129W        W98660  11.303   7.802  12.572
37130W        W98661  35.090   2.946   3.742
37131W        W98662  36.009  36.889   0.322
37132W        W98663  18.271  17.283  11.953
37133W        W98664  11.326  36.915  11.450
37134W        W98665  38.940  15.690  14.492
37135W        W98666  12.693   6.368  10.610
37136W        W98667  28.062  32.462  10.097
37137W        W98668  10.172  21.047  10.434
37138W        W98669   6.824  31.472   2.781
37139W        W98670   6.857  23.209   2.769
37140W        W98671  13.189  35.483   2.855
37141W        W98672  17.766  16.763   3.817
37142W        W98673  26.606  18.185  11.599
37143W        W98674  43.993  14.337  12.434
37144W        W98675   8.398  11.710  14.927
37145W        W98676   2.463  44.344   4.637
37146W        W98677  35.517  42.921  13.006
37147W        W98678   8.717  41.805   2.222
37148W        W98679   5.869  20.033   1.791
37149W        W98680  39.437  22.116   4.130
37150W        W98681  10.223  13.696   2.249
37151W        W98682   4.839  41.888   2.891
37152W        W98683  19.073   9.237  11.856
37153W        W98684  14.830  39.041   4.301
37154W        W98685  20.551  10.741  13.003
37155W        W98686  16.671  17.704  10.585
37156W        W98687  19.634  27.664  12.838
37157W        W98688  21.042  13.646   4.342
37158W        W98689  23.208  27.687   4.353
37159W        W98690  24.214  38.065  10.414
37160W        W98691  23.190  27.000  11.595
37161W        W98692  38.953   4.706  14.411
37162W        W98693   4.899  23.500   2.759
37163W        W98694  26.470  38.996  13.986
37164W        W98695   4.844  40.371  11.435
37165W        W98696  17.709   0.911   3.204
37166W        W98697  38.827  27.039  11.533
37167W        W98698  38.427  19.230   0.340
37168W        W98699  29.974  43.318   3.180
37169W        W98700  23.120   4.875  13.935
37170W        W98701  38.407  19.569   0.748
37171W        W98702  25.503  42.025  12.466
37172W        W98703  23.987  39.510   0.806
37173W        W98704  29.002  10.298  11.892
37174W        W98705  40.862  26.963  13.491
37175W        W98706  11.334   9.799   1.264
37176W        W98707  29.576  35.401  12.857
37177W        W98708  12.251  43.277   4.662
37178W        W98709  15.116  19.166   3.705
37179W        W98710  10.218   9.670   3.230
37180W        W98711  22.626  30.072   1.281
37181W        W98712   2.240  38.980   3.212
37182W        W98713  44.281  26.562   2.879
37183W        W98714  31.446  17.749   1.702
37184W        W98715  39.462  39.931   4.600
37185W        W98716  24.704  13.125  12.403
37186W        W98717  39.890   6.775   1.741
37187W        W98718  44.443  25.116  10.449
37188W        W98719  35.548  28.062  11.373
37189W        W98720  22.538   9.283  14.401
37190W        W98721   8.828  15.250   1.930
37191W        W98722  23.684  36.057  12.922
37192W        W98723  23.131  16.150  11.559
37193W        W98724  39.890  24.132  12.837
37194W        W98725  31.472  42.025   4.709
37195W        W98726  20.569   6.889  14.873
37196W        W98727   1.736  13.728  11.041
37197W        W98728  31.466  44.319   4.613
37198W        W98729  31.630  38.425  13.464
37199W        W98730  30.462  20.226  11.498
37200W        W98731   6.357  26.617   0.909
37201W        W98732  13.752  42.355  13.412
37202W        W98733  28.114  43.015   3.208
37203W        W98734  36.412  16.094  13.383
37204W        W98735  42.355  32.636  13.473
37205W        W98736  30.420  13.218   2.873
37206W        W98737  44.265  12.743  13.889
37207W        W98738  10.250  19.544   4.648
37208W        W98739  11.666   3.293  11.425
37209W        W98740   5.198  32.047  13.320
37210W        W98741  35.537  38.561   3.234
37211W        W98742  29.150  25.505   3.376
37212W        W98743  26.118  26.534   4.669
37213W        W98744  34.030  16.218   2.371
37214W        W98745  36.510  22.594  13.492
37215W        W98746  25.589   3.346  14.022
37216W        W98747  34.874  16.597   2.179
37217W        W98748  13.300  38.053  11.968
37218W        W98749   2.762  13.658  12.348
37219W        W98750  43.838   5.322  12.456
37220W        W98751   5.808  33.036   3.833
37221W        W98752   5.930  12.313   4.680
37222W        W98753  39.833  29.129   1.437
37223W        W98754  29.108   5.788   3.201
37224W        W98755  15.196  32.962  14.935
37225W        W98756  28.970  19.723   3.238
37226W        W98757  28.119  23.561   2.746
37227W        W98758  26.584  12.270  12.489
37228W        W98759  26.040  28.134   4.245
37229W        W98760  34.614  20.271   1.417
37230W        W98761  12.695  38.352   0.440
37231W        W98762  10.827   6.312   4.797
37232W        W98763  31.576   0.922   0.935
37233W        W98764  33.087  19.651   2.833
37234W        W98765  25.661   0.817  14.286
37235W        W98766  30.543  28.608   1.802
37236W        W98767   1.252  18.192   4.306
37237W        W98768   9.211  30.593  14.513
37238W        W98769   1.832  37.375  13.037
37239W        W98770  20.716  34.058   4.672
37240W        W98771   3.726   6.242  12.952
37241W        W98772  10.691  40.332   0.760
37242W        W98773  12.637  38.352  10.452
37243W        W98774   5.249  24.582   1.810
37244W        W98775  14.732  17.063   5.140
37245W        W98776  31.116  23.099  13.986
37246W        W98777  28.468  12.203   3.664
37247W        W98778  39.881  36.912  14.931
37248W        W98779  39.542  17.748   2.837
37249W        W98780  17.637  26.162  10.631
37250W        W98781  14.248  17.619   0.345
37251W        W98782  37.414   5.734  13.882
37252W        W98783  25.637   3.399  14.473
37253W        W98784  40.383  21.246  10.090
37254W        W98785  16.181  23.016   5.279
37255W        W98786   5.915  13.286   3.782
37256W        W98787   1.389  11.369   0.268
37257W        W98788  26.696   7.684  13.402
37258W        W98789  43.377   8.366  14.483
37259W        W98790  10.709  41.811   3.170
37260W        W98791  10.701  18.756   4.686
37261W        W98792  18.220  23.150  11.972
37262W        W98793   2.791  15.718  14.336
37263W        W98794  35.025  43.379   0.399
37264W        W98795   0.491  30.585  12.462
37265W        W98796  18.674  43.821   0.318
37266W        W98797  33.449  14.751   0.294
37267W        W98798  42.821  30.045  12.553
37268W        W98799  11.190   8.352   1.891
37269W        W98800   5.767  14.160  10.901
37270W        W98801  32.582   3.872   4.159
37271W        W98802   6.684  44.968   3.201
37272W        W98803   4.429  24.664   3.773
37273W        W98804   6.829   5.778   2.822
37274W        W98805  10.240   0.766   0.793
37275W        W98806   1.952  40.921   4.116
37276W        W98807  19.219  43.954  11.570
37277W        W98808  14.628  42.913  13.963
37278W        W98809  13.121  29.424  10.018
37279W        W98810  20.758   3.302   0.411
37280W        W98811  28.506  10.339   0.391
37281W        W98812  14.305  44.425  10.938
37282W        W98813  39.414  31.023   3.214
37283W        W98814  39.451   5.881  12.083
37284W        W98815   7.310   8.837  10.504
37285W        W98816  11.674  35.889   1.319
37286W        W98817  44.935  38.870   0.855
37287W        W98818  36.086  40.872   4.327
37288W        W98819  33.423  16.191  11.912
37289W        W98820  24.643   9.799   0.361
37290W        W98821  15.099  11.684  13.039
37291W        W98822  25.049   0.872  12.868
37292W        W98823  24.631  42.297  10.940
37293W        W98824   2.312  11.678  12.824
37294W        W98825  41.388  26.016  12.986
37295W        W98826   9.834  29.115   3.387
37296W        W98827  12.616  37.058  11.981
37297W        W98828  13.685  32.892   0.296
37298W        W98829  20.753   6.185   2.884
37299W        W98830   9.660  40.853  14.968
37300W        W98831  33.934  17.722  10.105
37301W        W98832   8.180  18.634   4.652
37302W        W98833  38.442  20.105  11.522
37303W        W98834  39.373  16.710  12.416
37304W        W98835   2.867  12.143  12.574
37305W        W98836  38.495  42.462   4.210
37306W        W98837  36.048   8.861   4.628
37307W        W98838   6.379   6.192  14.514
37308W        W98839  24.130   0.829  13.887
37309W        W98840  40.028  18.742  13.508
37310W        W98841  25.673  42.944   0.936
37311W        W98842  11.130  13.691   3.349
37312W        W98843  26.104  17.763   4.134
37313W        W98844  23.595   9.885   3.268
37314W        W98845  19.040   1.873  11.930
37315W        W98846  13.294  32.993   3.299
37316W        W98847   4.411  33.032   3.237
37317W        W98848   6.794  42.388  13.887
37318W        W98849   2.314  11.862   0.316
37319W        W98850   5.811  42.290  10.567
37320W        W98851   7.248  11.173  14.454
37321W        W98852   8.765  31.952   2.198
37322W        W98853  25.963  13.705   4.174
37323W        W98854  42.300  34.421   3.215
37324W        W98855   2.293  38.457  14.985
37325W        W98856  27.448  39.452  14.023
37326W        W98857   1.323  33.005   1.241
37327W        W98858  37.498  33.001   3.173
37328W        W98859  26.556   6.828  13.502
37329W        W98860   9.152   1.458  11.603
37330W        W98861  34.865   5.832   2.805
37331W        W98862  20.613  30.054   2.263
37332W        W98863  11.223   2.244   2.800
37333W        W98864  41.969  17.181   5.116
37334W        W98865  12.748  31.108  13.458
37335W        W98866  41.356  12.118   0.734
37336W        W98867  37.513  40.448   2.876
37337W        W98868  16.782  43.020   1.870
37338W        W98869  27.613  27.041  11.984
37339W        W98870  42.823  42.873  11.384
37340W        W98871  23.698   0.262   1.791
37341W        W98872  28.166   2.332  11.019
37342W        W98873   5.753  18.239   3.642
37343W        W98874  30.055  41.467  10.962
37344W        W98875   4.209  44.392   2.715
37345W        W98876  29.927  25.703  10.599
37346W        W98877  10.225   8.271  12.561
37347W        W98878  21.573  18.208   2.353
37348W        W98879   8.242  23.106  13.044
37349W        W98880   7.412   0.298  11.402
37350W        W98881   6.899  12.282   2.212
37351W        W98882   4.342  11.159  11.422
37352W        W98883  33.524  23.059  12.578
37353W        W98884  18.066  39.936  14.929
37354W        W98885  35.938  35.914  14.798
37355W        W98886   8.316  17.660  11.376
37356W        W98887  34.916  19.753   5.168
37357W        W98888  30.046  27.022   2.894
37358W        W98889  39.997  18.103   4.780
37359W        W98890   1.348  34.529   4.215
37360W        W98891  14.150  11.824   2.367
37361W        W98892  29.024  39.875   1.376
37362W        W98893   1.237  10.786   2.264
37363W        W98894  25.102  37.983  14.930
37364W        W98895  23.054  37.964   3.247
37365W        W98896  15.086  44.827   3.160
37366W        W98897  22.247  43.287  13.873
37367W        W98898  10.356  24.589   1.800
37368W        W98899  20.728  28.956   4.262
37369W        W98900  28.130  17.734   4.189
37370W        W98901   0.268  33.524  11.056
37371W        W98902  19.587  38.062  10.428
37372W        W98903  22.245  14.165   4.224
37373W        W98904   2.236  23.165  13.520
37374W        W98905   5.812  35.940  10.430
37375W        W98906  36.004   3.872   2.813
37376W        W98907  30.990  19.139  13.542
37377W        W98908   2.452  31.134   4.665
37378W        W98909  41.848  34.081   2.868
37379W        W98910  33.395  28.547  13.527
37380W        W98911  29.459  14.642   3.264
37381W        W98912   9.676  16.138  11.375
37382W        W98913  40.891  28.068   2.730
37383W        W98914   3.394   0.748  14.292
37384W        W98915   7.181  26.490   2.181
37385W        W98916  44.361  17.143  12.915
37386W        W98917  33.521   8.753  11.126
37387W        W98918   4.285  16.301   3.326
37388W        W98919  27.012   9.729  14.825
37389W        W98920   3.807  29.458  13.546
37390W        W98921  35.027   3.767   2.765
37391W        W98922   7.310   3.418  10.435
37392W        W98923  28.947   3.935  10.434
37393W        W98924  32.439   9.252   3.830
37394W        W98925   0.426  40.483   1.829
37395W        W98926  25.620   3.711   3.664
37396W        W98927  18.097  27.511  12.443
37397W        W98928  34.572  13.724  14.904
37398W        W98929  32.137   6.307  10.903
37399W        W98930  18.599  40.336   3.323
37400W        W98931  41.421  19.746   1.844
37401W        W98932  12.738  18.124  14.391
37402W        W98933  12.777  15.818   0.960
37403W        W98934  30.524  15.679  12.460
37404W        W98935  19.276  44.477  10.473
37405W        W98936  37.839  27.617   4.687
37406W        W98937   7.762  21.516  13.464
37407W        W98938   5.252   1.476  11.414
37408W        W98939  23.528  19.711  11.049
37409W        W98940  40.022   6.779  10.404
37410W        W98941  15.603  34.401  10.415
37411W        W98942  15.277  22.072  14.937
37412W        W98943   5.875  37.947   3.296
37413W        W98944  24.169  33.507  10.407
37414W        W98945  44.916  27.547   4.318
37415W        W98946  26.101  28.930   2.805
37416W        W98947  11.242  37.421  10.460
37417W        W98948  11.653  34.540  14.421
37418W        W98949  43.855  19.559   1.236
37419W        W98950   2.430  24.697  12.084
37420W        W98951   2.393  32.139   2.342
37421W        W98952  41.882   3.451  14.971
37422W        W98953  14.638   4.806   4.131
37423W        W98954  26.568   6.776  12.379
37424W        W98955  44.441   5.792   2.669
37425W        W98956  44.446   4.775  12.375
37426W        W98957  41.973  37.370  13.461
37427W        W98958  12.173   6.888   1.289
37428W        W98959  22.696  34.472  14.963
37429W        W98960  21.235   4.329  12.462
37430W        W98961  12.726  23.111   0.742
37431W        W98962  42.973  29.107   4.352
37432W        W98963  36.427   1.380   2.301
37433W        W98964  44.870  28.603   4.123
37434W        W98965   6.807  38.019  13.842
37435W        W98966   3.926  41.938   4.273
37436W        W98967  21.208  34.910   4.830
37437W        W98968  10.726  30.955  14.420
37438W        W98969   6.809   9.864  14.886
37439W        W98970  23.598  29.112  14.470
37440W        W98971   6.821  39.536   3.265
37441W        W98972  25.051   1.967   3.852
37442W        W98973  28.628  24.006   2.197
37443W        W98974   9.876  42.341   4.700
37444W        W98975   3.267  25.984   2.180
37445W        W98976  31.410  41.502  10.548
37446W        W98977  38.830  20.165   4.727
37447W        W98978   0.825  10.180   2.823
37448W        W98979   1.953   1.459   1.334
37449W        W98980   7.679  18.736  13.928
37450W        W98981  18.567   2.762  12.050
37451W        W98982  13.232  17.206   0.952
37452W        W98983  10.252  17.293   4.354
37453W        W98984  25.984  11.153   0.858
37454W        W98985  17.088  39.448  12.381
37455W        W98986  38.376  42.433  13.341
37456W        W98987   4.227  30.061  11.056
37457W        W98988   8.196  43.871  12.076
37458W        W98989  28.156  21.511   4.671
37459W        W98990  15.671  37.971  11.009
37460W        W98991  33.909  31.567   1.771
37461W        W98992  35.855   6.349   1.725
37462W        W98993  22.507   4.721  10.137
37463W        W98994  39.413  12.822  13.408
37464W        W98995  41.404   2.774   0.793
37465W        W98996  29.135   4.255   3.175
37466W        W98997  23.623  44.926   3.709
37467W        W98998   5.296  19.233  13.051
37468W        W98999   0.840  43.769  11.424
37469W        W99000  20.200  16.636   0.315
37470W        W99001  17.211  21.116  11.883
37471W        W99002   5.756  29.135   2.314
37472W        W99003  27.012  44.298  10.067
37473W        W99004  11.851  30.434  14.502
37474W        W99005   8.872  14.318  12.892
37475W        W99006  23.152  34.477   4.317
37476W        W99007   3.252  13.244   3.813
37477W        W99008  28.483  35.437  10.989
37478W        W99009   1.420  40.984   3.250
37479W        W99010  31.519  13.786  13.047
37480W        W99011  28.174  28.126  11.531
37481W        W99012  25.557  20.191  10.906
37482W        W99013  38.856   4.394  13.060
37483W        W99014  21.722  40.467  13.874
37484W        W99015   0.340  25.654   1.872
37485W        W99016  24.980   0.919  12.003
37486W        W99017  13.212   2.755  10.474
37487W        W99018   1.778  43.979  14.312
37488W        W99019  11.127   8.365   4.136
37489W        W99020  34.061  21.652  11.440
37490W        W99021   9.346  39.006   3.317
37491W        W99022  43.878  22.595   1.922
37492W        W99023   7.237  21.185  14.461
37493W        W99024   2.354  33.051   3.676
37494W        W99025  32.023  38.841  13.436
37495W        W99026  39.886   1.441   4.306
37496W        W99027  34.506  21.233   2.667
37497W        W99028  29.647  31.064  12.386
37498W        W99029  22.725  21.530   4.730
37499W        W99030   0.365  21.515  14.826
37500W        W99031  10.175  14.143  13.396
37501W        W99032  37.994  44.462   2.393
37502W        W99033  23.093  23.505   3.280
37503W        W99034   4.847  22.550  13.044
37504W        W99035  25.679  31.610   0.353
37505W        W99036   6.379  41.500  12.521
37506W        W99037  22.552  14.748  14.334
37507W        W99038  19.595   5.231  12.411
37508W        W99039  24.125   8.304   1.895
37509W        W99040  15.329   2.423   4.826
37510W        W99041  19.690  22.674  12.537
37511W        W99042  19.554  19.693   2.354
37512W        W99043   0.855   7.741   3.708
37513W        W99044  30.034  38.916  13.985
37514W        W99045  25.151  28.057  12.461
37515W        W99046  19.131  40.835  10.929
37516W        W99047  12.183  18.588   4.618
37517W        W99048  38.491  21.575  11.115
37518W        W99049   1.866   6.360   0.285
37519W        W99050  13.312  26.461   5.104
37520W        W99051   4.214  32.111  11.028
37521W        W99052  16.798  43.393   3.731
37522W        W99053  44.829  29.150   0.347
37523W        W99054   4.763   5.418   2.864
37524W        W99055   5.924  32.536   4.265
37525W        W99056   3.271  37.558   3.148
37526W        W99057   2.297  14.184  13.421
37527W        W99058  37.894  34.457  11.958
37528W        W99059  41.956   3.259   0.812
37529W        W99060  37.065  13.776  12.376
37530W        W99061   8.269  10.158   5.287
37531W        W99062   2.314  19.595   1.391
37532W        W99063  27.558  33.024  14.341
37533W        W99064  20.218  31.467  11.953
37534W        W99065   1.307  25.103   3.748
37535W        W99066  15.114  35.432   4.620
37536W        W99067  21.168  23.211  14.496
37537W        W99068  30.984  36.488   0.380
37538W        W99069  33.505  37.000  10.934
37539W        W99070  20.683  29.939   2.750
37540W        W99071  27.688  14.149   1.429
37541W        W99072  42.500  17.291   0.352
37542W        W99073  19.695  14.734   4.833
37543W        W99074  41.366  15.290   3.305
37544W        W99075  44.824  13.643  12.977
37545W        W99076  34.977  17.679  12.827
37546W        W99077  13.244   3.253  10.583
37547W        W99078  42.025  21.149   2.414
37548W        W99079   7.346  43.435   3.225
37549W        W99080  32.581  44.768  12.857
37550W        W99081  10.805   3.387  14.759
37551W        W99082  40.530  25.148   2.417
37552W        W99083  30.571  11.222  11.091
37553W        W99084   7.408  24.211   4.280
37554W        W99085  35.510  40.017  13.415
37555W        W99086  23.117  43.957  12.463
37556W        W99087  38.036  10.677  13.818
37557W        W99088  16.277  16.593   0.286
37558W        W99089  30.499  19.138   1.301
37559W        W99090  19.215   5.288   4.290
37560W        W99091  41.473  33.616  12.393
37561W        W99092  20.203  38.929  14.908
37562W        W99093  40.804  27.467  11.037
37563W        W99094  29.062  32.605  11.590
37564W        W99095  10.326  34.025  11.959
37565W        W99096  10.638  31.032  10.923
37566W        W99097  41.507   3.359   1.407
37567W        W99098  17.702  31.589   3.309
37568W        W99099  12.833  16.730   4.349
37569W        W99100   7.823   0.435   3.732
37570W        W99101  17.663   9.732  13.323
37571W        W99102  34.556  42.406   1.408
37572W        W99103  31.562  12.647   4.250
37573W        W99104  16.745  14.734   4.621
37574W        W99105  33.535  24.051  10.112
37575W        W99106  38.435  13.794   4.204
37576W        W99107  18.568  31.534  11.098
37577W        W99108  38.022  11.826   4.669
37578W        W99109   2.952  42.430   0.286
37579W        W99110   8.681  43.886  12.068
37580W        W99111  23.989  43.947   1.259
37581W        W99112  17.587  12.833   4.793
37582W        W99113  32.068  26.150  10.504
37583W        W99114  25.117  28.184   1.372
37584W        W99115  13.246  21.102  12.487
37585W        W99116  31.934  33.032  11.978
37586W        W99117   8.194  35.939   0.802
37587W        W99118   1.375  30.030  14.287
37588W        W99119   6.410  43.895  12.027
37589W        W99120  19.686   9.273   4.752
37590W        W99121  31.027  13.827  13.832
37591W        W99122  32.970  34.055  12.479
37592W        W99123  19.267  20.132  13.992
37593W        W99124   1.255  36.485   3.840
37594W        W99125   8.765  44.982   3.248
37595W        W99126  13.751  17.207  12.912
37596W        W99127  27.134   1.967  13.020
37597W        W99128  15.101   3.305   1.922
37598W        W99129  37.859  33.001   0.879
37599W        W99130   3.336  21.679   5.094
37600W        W99131  15.647  42.436   2.807
37601W        W99132  40.982  35.486  10.477
37602W        W99133   4.411  29.528  14.382
37603W        W99134   0.817  42.463   0.873
37604W        W99135  25.667  41.787  11.486
37605W        W99136  20.066  23.564   5.217
37606W        W99137  27.514  32.960   2.778
37607W        W99138  17.665  23.635  10.106
37608W        W99139  18.208  11.347  11.501
37609W        W99140  32.427   2.242   3.191
37610W        W99141  20.638  13.342  13.879
37611W        W99142  35.869  11.227  10.607
37612W        W99143  25.104  44.267  14.827
37613W        W99144  37.534  20.732  14.359
37614W        W99145  14.196  28.064  11.037
37615W        W99146  35.019   6.386   9.991
37616W        W99147  44.880  30.553  14.485
37617W        W99148  24.009  28.030  12.440
37618W        W99149  30.515   7.799   1.935
37619W        W99150  20.125  22.244   5.321
37620W        W99151  44.324   1.865   0.368
37621W        W99152  14.174  31.051   1.310
37622W        W99153  23.137  35.985  14.308
37623W        W99154  37.958  40.898   9.530
37624W        W99155  10.739  24.555  14.391
37625W        W99156   2.370  19.161  11.478
37626W        W99157  33.087   2.231  13.988
37627W        W99158  21.122  22.695  11.598
37628W        W99159  26.469  17.306  10.974
37629W        W99160  40.871  32.072  14.860
37630W        W99161   5.258  44.299   4.763
37631W        W99162  31.068   8.180  14.005
37632W        W99163  25.497  24.568  13.036
37633W        W99164  42.479  13.186   3.745
37634W        W99165  40.490  20.735  13.049
37635W        W99166  38.062   4.881   3.346
37636W        W99167  17.222   1.876  14.998
37637W        W99168  16.680  22.215   4.821
37638W        W99169  29.617  38.044  13.507
37639W        W99170  32.605   0.760  14.842
37640W        W99171  31.910   8.319   5.621
37641W        W99172  38.937  28.464   4.310
37642W        W99173  15.663   9.657  10.891
37643W        W99174   5.734  36.855   3.385
37644W        W99175  16.181  12.765  12.040
37645W        W99176  32.905  27.081   2.765
37646W        W99177  43.456  25.145  14.871
37647W        W99178  13.737  43.990  12.541
37648W        W99179  30.145  34.907   4.141
37649W        W99180   1.977  44.430   1.446
37650W        W99181  12.824  41.029   3.201
37651W        W99182  29.435  16.265  14.977
37652W        W99183   4.343  14.232  10.417
37653W        W99184  25.566   1.279   2.818
37654W        W99185  42.281   8.388  14.012
37655W        W99186  11.748  11.842  12.433
37656W        W99187   1.758  20.061   3.687
37657W        W99188  42.808   0.774   3.777
37658W        W99189   1.769  31.142   3.150
37659W        W99190  14.145  38.981  13.889
37660W        W99191   6.810  19.662   4.792
37661W        W99192  30.052  43.440  13.493
37662W        W99193  36.044  14.651  14.291
37663W        W99194   6.245  15.186   4.127
37664W        W99195  31.076   2.834  12.975
37665W        W99196   9.387  11.751  11.564
37666W        W99197  42.937  44.965  13.884
37667W        W99198  34.444  41.397  14.288
37668W        W99199  30.926  24.658  10.579
37669W        W99200  39.944  31.118   1.229
37670W        W99201  42.880   3.817  13.369
37671W        W99202  42.009  43.367  12.509
37672W        W99203  24.519   8.777   4.837
37673W        W99204  15.759  25.523   2.710
37674W        W99205  26.122  10.377  12.988
37675W        W99206  41.865   5.427   0.923
37676W        W99207   5.332  28.625  11.428
37677W        W99208  16.646  27.037  11.942
37678W        W99209   8.336   4.259  11.450
37679W        W99210  44.381  22.505  10.575
37680W        W99211  37.917  23.687   2.219
37681W        W99212   3.381   8.315   3.192
37682W        W99213   9.380  18.709  13.917
37683W        W99214  39.901  39.849   2.707
37684W        W99215  21.707  37.492  10.013
37685W        W99216  31.468  15.116  10.630
37686W        W99217  16.733  27.526  13.014
37687W        W99218  36.073  12.126  14.803
37688W        W99219  21.713  35.504  13.976
37689W        W99220  29.605  11.627   2.782
37690W        W99221  36.561   9.151  11.036
37691W        W99222  26.989   0.259  11.568
37692W        W99223   0.318  20.648   3.381
37693W        W99224  26.180  13.208   3.700
37694W        W99225  30.497  37.858  14.849
37695W        W99226  27.153  37.902  12.838
37696W        W99227  34.594  34.869   5.124
37697W        W99228  18.275  17.734   3.286
37698W        W99229   6.814  15.100  11.531
37699W        W99230  41.883  37.939  14.773
37700W        W99231  10.791  15.632  11.439
37701W        W99232  12.218  27.472   4.342
37702W        W99233   8.347  32.533   1.305
37703W        W99234  18.638  43.380  14.781
37704W        W99235  18.638  36.457  13.484
37705W        W99236  30.518  14.322  12.505
37706W        W99237  14.820  31.445  13.442
37707W        W99238  40.316   2.851  11.432
37708W        W99239   0.776  11.215  13.911
37709W        W99240  36.911   5.796   1.225
37710W        W99241  17.221  35.079   5.110
37711W        W99242  27.166  39.429  11.502
37712W        W99243   9.698  38.041   2.287
37713W        W99244  10.309  42.378   2.349
37714W        W99245  11.668  32.087  14.821
37715W        W99246   1.429  11.772  12.374
37716W        W99247  34.587  11.127  14.437
37717W        W99248  14.656  12.213   1.317
37718W        W99249  16.597   9.766  14.854
37719W        W99250  29.959  22.139  14.801
37720W        W99251  42.860  16.678  14.770
37721W        W99252   5.394   5.299  11.909
37722W        W99253   7.754  11.724  13.904
37723W        W99254  19.696  26.646   4.140
37724W        W99255  21.156  38.343   1.695
37725W        W99256  29.943  37.033   4.141
37726W        W99257  24.138  23.107   1.363
37727W        W99258   4.900  31.062  12.440
37728W        W99259  26.136  36.866   4.292
37729W        W99260  27.986  33.588   3.665
37730W        W99261  39.363  42.986   1.404
37731W        W99262  21.071  19.740   1.389
37732W        W99263   1.308   7.343   0.398
37733W        W99264  40.449  11.130  10.472
37734W        W99265  12.639  36.941  10.534
37735W        W99266  14.320  37.428   4.203
37736W        W99267   6.355  36.418  10.610
37737W        W99268   0.744   2.754  12.928
37738W        W99269  42.451  23.684   3.801
37739W        W99270  12.361  41.857  12.007
37740W        W99271  34.578  44.882  11.561
37741W        W99272   0.494  33.892  13.417
37742W        W99273  40.029  44.796   3.868
37743W        W99274   0.356   2.239  10.500
37744W        W99275  17.174  43.501  11.047
37745W        W99276  42.991  42.851  10.450
37746W        W99277   8.362   3.946   2.874
37747W        W99278  35.946  31.024   1.326
37748W        W99279  25.492  43.428  11.947
37749W        W99280   2.444  37.031  10.581
37750W        W99281  22.516  15.297  10.942
37751W        W99282  36.897  14.192  12.846
37752W        W99283  36.437   4.730  10.580
37753W        W99284   1.437  38.874  14.786
37754W        W99285  14.820  11.772  10.892
37755W        W99286   4.720   7.245   4.787
37756W        W99287  44.936  41.346   3.669
37757W        W99288  16.763  32.885   3.659
37758W        W99289  15.155  13.777  14.028
37759W        W99290   0.762   5.869   2.705
37760W        W99291  19.203  25.138  11.128
37761W        W99292   7.333  10.649  13.993
37762W        W99293  10.224  33.420   5.279
37763W        W99294  41.905   9.245   5.182
37764W        W99295  42.413  33.432  12.545
37765W        W99296  34.407  32.478  12.987
37766W        W99297  43.899  36.004  14.854
37767W        W99298  41.800  13.635   4.276
37768W        W99299  43.488  33.037  11.945
37769W        W99300  10.327  30.129  11.905
37770W        W99301  12.646  36.079  11.520
37771W        W99302  12.691  34.459  11.598
37772W        W99303  35.960  24.990  11.528
37773W        W99304  42.306  14.602   0.850
37774W        W99305  30.585  28.487   2.267
37775W        W99306  15.235  25.010   3.311
37776W        W99307  44.381  22.678   3.292
37777W        W99308  41.994  23.211   4.353
37778W        W99309  38.004  11.783   3.634
37779W        W99310  12.765  11.724  13.329
37780W        W99311  22.629  41.025  13.493
37781W        W99312  22.563  34.505  12.034
37782W        W99313  21.562  20.542  13.523
37783W        W99314  26.526  33.093   1.245
37784W        W99315  18.143   7.246   4.212
37785W        W99316  27.143   8.798  14.997
37786W        W99317  22.077  30.617   4.613
37787W        W99318   4.855  20.680   0.374
37788W        W99319  12.678   3.776   1.714
37789W        W99320  33.011   5.361   0.792
37790W        W99321  33.501  31.040  12.463
37791W        W99322   5.707  10.352   4.166
37792W        W99323  34.612  36.355  13.929
37793W        W99324  22.526  40.343  13.834
37794W        W99325  25.469   1.258  10.490
37795W        W99326  18.101   7.414   4.689
37796W        W99327  41.306  37.353   1.746
37797W        W99328  41.365  12.175  13.408
37798W        W99329  15.308  33.094  13.952
37799W        W99330  31.933  44.357   0.736
37800W        W99331  31.088  25.051   4.739
37801W        W99332  39.426  33.012  11.934
37802W        W99333  16.706  36.481  13.378
37803W        W99334  13.836   0.910   2.187
37804W        W99335  27.576  37.356   0.317
37805W        W99336   2.358   4.717   1.212
37806W        W99337  29.990  26.136   4.692
37807W        W99338   1.868   3.779   1.867
37808W        W99339  22.701  41.841   0.740
37809W        W99340  26.030  38.528  13.868
37810W        W99341  21.528  13.758   2.182
37811W        W99342  43.480  34.884  10.893
37812W        W99343  28.601  14.194   1.859
37813W        W99344   5.294  14.776  12.378
37814W        W99345  41.432  16.679  12.978
37815W        W99346  28.173  29.537  10.104
37816W        W99347  34.064  11.186  13.979
37817W        W99348   9.686  14.637  13.437
37818W        W99349  43.451   9.704  11.912
37819W        W99350  27.141  33.385   2.379
37820W        W99351  26.102  44.807  10.543
37821W        W99352  16.726  18.055   0.408
37822W        W99353  15.236  34.605  14.014
37823W        W99354  32.979  18.217   4.261
37824W        W99355  20.557  35.094   0.370
37825W        W99356  38.571  36.021  11.940
37826W        W99357  32.140  15.657   2.757
37827W        W99358  38.017   0.753   2.368
37828W        W99359   9.207  16.788   2.665
37829W        W99360  36.419  34.911   1.855
37830W        W99361   0.317  40.003   1.436
37831W        W99362  43.417  12.250   4.169
37832W        W99363  12.233   3.371   4.218
37833W        W99364  37.941  16.185  11.993
37834W        W99365  28.103   9.372   1.894
37835W        W99366  24.111  33.603  11.012
37836W        W99367   9.323  21.647   1.806
37837W        W99368  21.664  37.424  11.984
37838W        W99369   5.381  13.130   2.292
37839W        W99370  16.583   1.815  12.845
37840W        W99371  22.249  39.420   3.796
37841W        W99372  18.125  20.112  14.300
37842W        W99373  10.868   5.306  14.395
37843W        W99374  36.082  22.615   1.878
37844W        W99375  23.567  13.106   4.731
37845W        W99376  12.121  37.979  13.842
37846W        W99377  19.110  18.221  14.303
37847W        W99378  32.508  13.614  12.442
37848W        W99379   1.311  34.404   0.267
37849W        W99380  29.131  28.634   1.881
37850W        W99381   7.707   5.750   3.281
37851W        W99382   7.359  27.586   2.361
37852W        W99383  24.153  37.007   0.291
37853W        W99384   7.835  14.751  13.313
37854W        W99385  41.828  36.447   0.425
37855W        W99386  37.388  40.427   1.429
37856W        W99387  18.750  33.122   2.241
37857W        W99388  12.814  12.166  14.304
37858W        W99389   3.816  41.296  13.875
37859W        W99390  21.058   2.259   0.395
37860W        W99391  14.100   2.447  14.831
37861W        W99392  13.672  27.044  12.863
37862W        W99393  39.472  14.317  11.567
37863W        W99394  39.049  16.311  10.478
37864W        W99395  34.565  41.917   0.287
37865W        W99396  18.770  10.187   4.180
37866W        W99397   8.804  17.117   4.286
37867W        W99398  25.994   4.227   3.839
37868W        W99399  15.676  32.992  11.029
37869W        W99400  41.982  23.666  12.352
37870W        W99401  11.847  29.522   4.660
37871W        W99402  11.854  33.578   2.684
37872W        W99403  42.281  34.610  14.349
37873W        W99404  15.209  17.172   1.443
37874W        W99405  38.506  22.102  12.893
37875W        W99406  33.437   8.886   1.872
37876W        W99407  23.597   2.767   4.155
37877W        W99408   0.297  17.242  12.875
37878W        W99409  42.454   2.843   2.724
37879W        W99410  38.051  21.669   3.328
37880W        W99411  38.466  10.225   2.366
37881W        W99412  24.627  26.016   4.613
37882W        W99413  38.068   0.754   3.634
37883W        W99414   0.772   8.760   0.250
37884W        W99415  36.091   2.453   0.747
37885W        W99416  28.529  30.008  13.998
37886W        W99417  40.835  30.571  13.311
37887W        W99418  24.019   1.350   1.696
37888W        W99419  28.479  18.207  12.485
37889W        W99420  14.218  17.625   2.343
37890W        W99421  14.661  26.500   2.702
37891W        W99422  20.174  37.559   1.218
37892W        W99423  21.730  36.873   4.816
37893W        W99424   1.374  37.466  12.460
37894W        W99425  19.111  14.242   3.740
37895W        W99426  38.829  26.088  10.453
37896W        W99427  32.631  14.295  11.431
37897W        W99428  34.444  10.234  10.460
37898W        W99429  44.327   3.869  11.419
37899W        W99430   3.908  32.943   3.784
37900W        W99431  43.461  15.319  10.430
37901W        W99432  34.510  22.570   3.222
37902W        W99433  44.798  27.601  13.913
37903W        W99434  20.694  20.165   3.823
37904W        W99435  23.025  22.638   3.268
37905W        W99436  42.876  13.295   4.696
37906W        W99437  30.121   0.284   2.308
37907W        W99438  27.686  23.552  11.570
37908W        W99439   0.979   0.441   0.303
37909W        W99440  39.544  23.516  12.826
37910W        W99441  13.249  36.476   4.705
37911W        W99442  31.989  14.183   4.602
37912W        W99443   6.732  33.591  11.900
37913W        W99444  26.573  33.090  14.834
37914W        W99445  19.284   0.272   4.777
37915W        W99446   8.841  14.143  10.519
37916W        W99447   3.360   8.261   3.806
37917W        W99448  26.609  29.974   1.720
37918W        W99449  30.018  34.473  12.970
37919W        W99450  38.059  18.685   2.237
37920W        W99451   7.376  28.104   3.814
37921W        W99452  44.840  16.774   1.882
37922W        W99453  30.016  37.366  12.366
37923W        W99454  28.680  25.505   0.910
37924W        W99455  42.834  44.762   1.903
37925W        W99456  16.305  38.411  12.414
37926W        W99457   7.221  42.316  13.812
37927W        W99458  19.648  42.378   3.645
37928W        W99459  20.171   2.735  12.570
37929W        W99460   8.789   5.913   3.727
37930W        W99461   4.319  32.406  13.406
37931W        W99462  22.101  38.542  13.806
37932W        W99463  28.091   5.387  10.433
37933W        W99464  28.018  38.465   4.264
37934W        W99465   9.712  33.577   4.296
37935W        W99466  44.394  43.816  12.411
37936W        W99467  13.601  33.539  13.378
37937W        W99468  16.272  18.581  14.380
37938W        W99469  35.589   7.911   4.346
37939W        W99470  28.514  30.047   3.155
37940W        W99471  15.148  18.665  14.943
37941W        W99472  26.461  38.980  12.976
37942W        W99473  30.022   2.256   4.215
37943W        W99474  24.976  14.639  13.958
37944W        W99475  13.807  43.781  10.472
37945W        W99476   8.817  35.097   4.309
37946W        W99477  42.388  20.190  11.451
37947W        W99478   7.275  23.151   3.844
37948W        W99479  44.985   5.809   0.249
37949W        W99480   4.918  21.240   0.928
37950W        W99481  35.075  16.242   1.834
37951W        W99482   8.893  38.879  11.109
37952W        W99483   8.304  33.017  14.852
37953W        W99484  29.654  22.168  11.374
37954W        W99485  44.419  33.547  13.405
37955W        W99486  27.126  16.282   1.404
37956W        W99487  28.129   1.860   5.121
37957W        W99488  12.835  11.258  13.794
37958W        W99489  24.492   8.325   2.702
37959W        W99490   2.355  23.611  11.041
37960W        W99491   3.882  31.991  14.443
37961W        W99492  22.091  29.164  14.998
37962W        W99493   1.874  34.077  12.910
37963W        W99494  37.935   1.822  14.783
37964W        W99495  11.649  29.012  11.909
37965W        W99496   1.952  14.753   1.416
37966W        W99497   5.795  20.068   3.840
37967W        W99498  31.615  28.958   4.118
37968W        W99499   4.377  28.176  10.553
37969W        W99500   6.365   7.683   2.716
37970W        W99501  20.173  11.230  10.575
37971W        W99502  15.132   7.258   4.141
37972W        W99503  39.319   4.306   4.610
37973W        W99504  10.731  23.033  14.383
37974W        W99505   3.432  21.175   2.253
37975W        W99506  38.960  27.518  12.548
37976W        W99507  29.556   0.483  10.431
37977W        W99508  30.462  31.057   4.264
37978W        W99509  15.798  44.763  10.589
37979W        W99510  16.811  24.551   1.213
37980W        W99511  39.815  44.371   3.268
37981W        W99512  22.723   6.292  12.049
37982W        W99513  38.980  15.217   1.701
37983W        W99514  33.084  32.123  13.008
37984W        W99515  33.494  30.097  10.497
37985W        W99516  21.751   1.899   2.300
37986W        W99517  34.936  31.054  10.446
37987W        W99518  37.553  29.101   2.370
37988W        W99519  13.179  10.181   0.287
37989W        W99520   0.813   8.328   2.779
37990W        W99521   3.808  41.437  12.944
37991W        W99522  15.780  22.563   1.927
37992W        W99523  23.710  14.225  14.818
37993W        W99524  27.503  28.514   9.930
37994W        W99525  15.581  32.430  13.024
37995W        W99526  41.529  31.446  12.881
37996W        W99527   8.320  43.333  14.400
37997W        W99528   3.294  22.745  10.992
37998W        W99529  35.399  23.581  13.546
37999W        W99530  21.749  21.614  10.596
38000W        W99531  18.058  26.982   3.162
38001W        W99532  22.681  33.118   1.795
38002W        W99533  10.798  28.027  12.964
38003W        W99534  19.120  37.467   3.676
38004W        W99535  44.828  11.843   1.704
38005W        W99536  31.623   9.240  12.503
38006W        W99537  42.447  21.118   0.458
38007W        W99538  34.876  13.763   2.194
38008W        W99539  18.780  37.845   1.271
38009W        W99540  42.875  13.633   3.757
38010W        W99541  41.028  29.025  11.383
38011W        W99542  37.969   7.859  13.328
38012W        W99543  24.564  15.288   2.678
38013W        W99544  38.013  13.209   0.740
38014W        W99545  41.387  24.643   1.728
38015W        W99546  23.710  14.200  10.617
38016W        W99547  18.585  41.536   5.170
38017W        W99548  42.014   2.349  12.975
38018W        W99549  27.619  26.965  11.586
38019W        W99550  11.337  22.568   3.344
38020W        W99551  11.280  36.370  13.363
38021W        W99552  34.497  34.572   5.120
38022W        W99553   6.860  30.455   4.785
38023W        W99554  26.162  19.097   0.852
38024W        W99555   3.720   6.756  12.555
38025W        W99556  22.606  40.358   0.367
38026W        W99557  30.968  21.240   1.276
38027W        W99558  42.462   7.911  13.498
38028W        W99559  24.715  18.595  10.411
38029W        W99560  33.906  30.944  13.003
38030W        W99561  14.715   5.735   0.938
38031W        W99562  42.807   4.833   4.315
38032W        W99563  13.172  39.965  14.950
38033W        W99564   4.375  16.645   0.910
38034W        W99565  30.413  40.836   1.780
38035W        W99566  25.590  44.875   1.352
38036W        W99567  12.265  42.905  10.979
38037W        W99568  31.470  19.063  10.915
38038W        W99569  17.738  10.351   2.211
38039W        W99570  31.544   9.777   2.310
38040W        W99571   0.965  22.195  12.557
38041W        W99572   1.808  28.162  12.539
38042W        W99573  44.857   8.236   3.811
38043W        W99574  20.754  10.872  10.518
38044W        W99575  39.520  25.057  13.840
38045W        W99576  14.766  33.897   3.743
38046W        W99577  35.900  25.157   3.869
38047W        W99578   4.351  17.638  12.984
38048W        W99579  35.071  29.467   3.838
38049W        W99580  23.017  41.489  14.475
38050W        W99581   9.166  32.948   3.255
38051W        W99582  31.476  13.117   4.636
38052W        W99583  11.226  12.214   4.662
38053W        W99584   3.779  14.151  13.920
38054W        W99585  24.561  30.049   2.215
38055W        W99586   0.914  31.120  11.109
38056W        W99587   8.278  43.971   3.789
38057W        W99588  11.658  15.651  10.511
38058W        W99589   8.689  13.806   2.672
38059W        W99590  23.151  23.079  14.298
38060W        W99591  34.880  41.413   1.722
38061W        W99592  32.985  11.696   3.632
38062W        W99593  31.402  32.915  14.819
38063W        W99594  17.229   1.344   2.326
38064W        W99595  26.998  25.964   2.292
38065W        W99596  18.637  41.368  10.601
38066W        W99597  26.053  30.020   2.253
38067W        W99598   4.779  26.604   1.788
38068W        W99599  37.369  32.978  12.057
38069W        W99600  17.219  15.193  11.612
38070W        W99601  33.033   2.890  11.116
38071W        W99602  43.930  41.427  14.443
38072W        W99603   8.837  18.741   4.717
38073W        W99604  16.776  40.378   0.841
38074W        W99605  24.105   5.216   0.884
38075W        W99606   9.248  35.947   5.113
38076W        W99607   0.781  13.223   4.350
38077W        W99608  27.571  17.203  13.950
38078W        W99609  24.527   7.219   4.625
38079W        W99610  18.735  39.522  12.574
38080W        W99611  20.220  29.658   0.793
38081W        W99612  15.772  17.075  12.355
38082W        W99613  35.395  43.904  14.339
38083W        W99614  16.699  42.343   1.715
38084W        W99615  19.258  22.699  13.534
38085W        W99616  20.560  25.668   2.845
38086W        W99617  22.128  39.498   1.234
38087W        W99618  40.939  37.076  14.469
38088W        W99619   1.382  23.093   3.687
38089W        W99620  32.012   7.874  10.967
38090W        W99621  24.701  22.240   1.920
38091W        W99622  22.513  39.359   1.800
38092W        W99623   8.886  29.001   2.866
38093W        W99624   7.832  27.144   1.911
38094W        W99625   7.766  24.719  14.017
38095W        W99626  42.462  38.997   2.182
38096W        W99627  29.139  26.085   2.823
38097W        W99628  15.737  24.615   3.253
38098W        W99629  39.041  30.513  10.596
38099W        W99630  26.095  36.048   2.348
38100W        W99631   5.780  14.241   0.290
38101W        W99632  31.527  23.103  13.806
38102W        W99633  12.291  16.667  13.055
38103W        W99634   5.687  36.426  14.308
38104W        W99635   3.390  44.935  13.449
38105W        W99636  21.227  42.413  12.045
38106W        W99637  31.141  35.929   1.907
38107W        W99638  38.038  15.248  10.639
38108W        W99639  39.421  17.273  13.920
38109W        W99640  40.334  20.569  10.597
38110W        W99641  25.512   6.287   2.665
38111W        W99642   6.914  16.767   0.334
38112W        W99643  22.609  25.050   1.355
38113W        W99644  30.984  13.161  14.515
38114W        W99645  29.434  11.153  12.995
38115W        W99646  11.278  17.184   4.664
38116W        W99647   0.850  10.185   1.851
38117W        W99648  27.028   5.251   1.424
38118W        W99649  19.717  11.812   0.432
38119W        W99650   1.267  28.160   0.731
38120W        W99651  43.800   3.846  14.889
38121W        W99652  20.246   3.425  13.501
38122W        W99653  10.151  24.569  11.992
38123W        W99654  39.392   8.822  13.023
38124W        W99655  20.158  19.282   0.314
38125W        W99656   6.408  42.882  14.811
38126W        W99657  30.507  37.462  10.948
38127W        W99658  39.322   9.256   2.691
38128W        W99659  15.706  19.558  10.470
38129W        W99660  18.632   2.810   2.247
38130W        W99661  20.553  34.544  14.772
38131W        W99662  10.160  14.615   4.733
38132W        W99663  18.078   2.227   0.455
38133W        W99664  26.555  11.834   0.940
38134W        W99665   4.244  16.146   1.914
38135W        W99666  20.766   7.363  14.997
38136W        W99667  22.102  40.884  14.898
38137W        W99668  28.671  32.566   4.683
38138W        W99669  28.580   5.872   2.259
38139W        W99670  41.458  35.990   1.911
38140W        W99671  17.081  10.664   4.229
38141W        W99672  19.166  29.484  14.364
38142W        W99673  43.492   9.792  12.451
38143W        W99674  10.840  30.488  11.120
38144W        W99675  10.268  19.268   4.158
38145W        W99676  17.267   6.314  13.884
38146W        W99677  42.480  26.653   4.305
38147W        W99678  11.721   6.207   0.390
38148W        W99679  23.191   5.225  11.425
38149W        W99680   8.312  39.823  10.423
38150W        W99681   3.937  15.675  14.963
38151W        W99682  17.117  26.667   0.247
38152W        W99683   4.371  15.809  14.827
38153W        W99684   7.763  42.906  11.903
38154W        W99685   0.331  20.613  11.559
38155W        W99686  32.600   7.684   4.683
38156W        W99687  12.251  37.085  14.776
38157W        W99688  10.215  33.562  11.059
38158W        W99689  21.237  32.073   1.430
38159W        W99690  40.442  19.597   0.275
38160W        W99691   5.437  36.017   2.717
38161W        W99692  21.024  29.137  14.977
38162W        W99693   1.304  18.636   4.312
38163W        W99694  17.193  25.680  11.407
38164W        W99695  26.150   9.311  13.527
38165W        W99696  17.307  37.062  13.456
38166W        W99697   1.939  23.224  11.374
38167W        W99698  22.238  42.874  11.418
38168W        W99699  14.597   5.691   0.416
38169W        W99700  15.684   6.370   0.887
38170W        W99701  40.021  21.658  10.525
38171W        W99702   9.877  11.720  13.338
38172W        W99703  29.480  14.167  13.838
38173W        W99704  22.665  23.736   4.269
38174W        W99705  41.951   3.785   0.415
38175W        W99706  43.461   2.858   4.708
38176W        W99707   7.339  33.612  14.852
38177W        W99708  36.987  26.588   0.450
38178W        W99709  15.580  40.490  12.017
38179W        W99710  28.665  14.168  11.552
38180W        W99711  44.393   6.396  14.784
38181W        W99712  15.693  30.157   4.675
38182W        W99713  18.718   8.331  13.319
38183W        W99714   4.922  32.971  10.973
38184W        W99715  17.735  27.681  14.324
38185W        W99716  41.805  33.042   2.736
38186W        W99717  15.315  28.990  12.021
38187W        W99718  41.903  19.551  14.017
38188W        W99719  34.495  19.126  10.038
38189W        W99720   5.716  33.503   3.263
38190W        W99721  44.945  39.516   2.371
38191W        W99722  27.633   8.840  14.030
38192W        W99723   4.744   2.238   0.251
38193W        W99724  12.797  35.468  11.530
38194W        W99725   8.765  15.322   3.761
38195W        W99726   4.387  42.881  14.350
38196W        W99727   3.890  25.204  10.579
38197W        W99728  30.515   1.362  13.841
38198W        W99729  39.468  14.640  12.001
38199W        W99730  26.620  43.407   2.782
38200W        W99731   2.728  26.138   1.442
38201W        W99732  20.209  28.440   4.195
38202W        W99733   2.444  38.355   1.385
38203W        W99734   4.326  34.433   0.802
38204W        W99735  43.368  44.000  14.453
38205W        W99736  41.890   9.217  12.580
38206W        W99737   0.925  19.264   3.713
38207W        W99738  29.477  14.606   0.795
38208W        W99739  39.841  26.084   4.752
38209W        W99740  31.439  18.210   4.245
38210W        W99741  19.161  13.685   1.310
38211W        W99742   0.434  19.103   4.763
38212W        W99743  24.987  24.223  12.920
38213W        W99744  35.080  38.027   3.149
38214W        W99745   6.235  25.685   3.220
38215W        W99746  32.517  11.768   2.227
38216W        W99747  25.654  10.370   4.797
38217W        W99748  23.575  19.653   2.764
38218W        W99749  33.597  16.570  13.974
38219W        W99750  23.004   1.289  12.426
38220W        W99751   0.984   7.174  12.484
38221W        W99752  10.804  10.187   2.877
38222W        W99753  22.205  32.502  11.526
38223W        W99754  17.166  14.592  14.494
38224W        W99755  29.468   6.906   2.769
38225W        W99756   2.956  41.328  12.887
38226W        W99757  37.364  35.582  11.458
38227W        W99758   0.270  21.246  11.021
38228W        W99759  21.722  14.126   1.410
38229W        W99760  14.736  28.186  12.486
38230W        W99761  43.811   3.400  12.013
38231W        W99762  32.605   2.365  14.282
38232W        W99763  27.577  25.525  13.029
38233W        W99764  18.717  25.697  13.464
38234W        W99765  27.591  16.188   1.902
38235W        W99766  40.002  39.953  11.968
38236W        W99767   6.249  22.221  11.418
38237W        W99768  39.833  24.988   4.605
38238W        W99769  40.965  35.409   1.910
38239W        W99770  18.681   0.465  12.839
38240W        W99771  29.942  16.161   0.811
38241W        W99772  15.758  33.579  11.097
38242W        W99773  22.236  11.248   3.219
38243W        W99774   8.740  39.019   4.121
38244W        W99775  25.093   2.785   3.869
38245W        W99776   9.808   1.388  10.973
38246W        W99777   9.388  44.884   2.735
38247W        W99778  31.960   4.759   2.752
38248W        W99779  28.175  35.877   2.832
38249W        W99780   8.688  19.238  11.551
38250W        W99781  40.019  34.107   4.301
38251W        W99782   5.823   6.700  11.054
38252W        W99783  35.387  15.225   5.602
38253W        W99784  37.995  37.581  13.520
38254W        W99785  34.986  19.548  13.995
38255W        W99786  19.640  29.522  13.524
38256W        W99787  28.113  42.819   4.349
38257W        W99788  40.803  41.042  14.879
38258W        W99789  43.854  30.622   3.742
38259W        W99790  43.851  19.078  11.126
38260W        W99791  11.710  41.847   3.669
38261W        W99792  18.750  26.694   5.252
38262W        W99793  30.484  18.757  12.530
38263W        W99794  30.923  20.161   3.852
38264W        W99795   1.803   3.949   3.387
38265W        W99796  23.200  14.311   1.334
38266W        W99797   5.822  27.689  12.506
38267W        W99798   2.809  37.405  14.277
38268W        W99799  21.753  16.695  12.854
38269W        W99800   6.275   5.303   2.310
38270W        W99801   1.846  15.788   3.765
38271W        W99802  20.041  44.774   3.342
38272W        W99803  36.052  30.043   0.280
38273W        W99804  29.950   6.304  14.463
38274W        W99805  19.113  15.710  10.523
38275W        W99806  13.744  32.933  14.409
38276W        W99807  39.054  16.291   4.209
38277W        W99808   6.256   6.237  14.007
38278W        W99809  35.404  19.731  11.909
38279W        W99810  22.158  43.906  10.447
38280W        W99811  36.565  14.673  10.088
38281W        W99812  41.860  27.532   1.430
38282W        W99813  26.673   9.197   0.836
38283W        W99814  22.576   3.461  14.489
38284W        W99815   1.284  40.435  12.580
38285W        W99816  32.974  11.337  11.587
38286W        W99817  43.001  34.090  13.941
38287W        W99818  38.328   2.750   4.738
38288W        W99819  38.382   4.830  10.145
38289W        W99820  19.115  29.589   4.737
38290W        W99821  12.614  15.694  11.016
38291W        W99822  23.666  42.025   1.827
38292W        W99823  42.800  42.466  10.899
38293W        W99824  33.076  30.459   1.870
38294W        W99825  37.856   2.380  14.000
38295W        W99826  42.780  30.042  10.569
38296W        W99827  34.432  39.006   3.791
38297W        W99828  19.257  31.124  11.498
38298W        W99829  35.912  32.985  12.561
38299W        W99830  41.330   8.343   0.319
38300W        W99831   3.272  40.441   2.689
38301W        W99832  36.907  29.549  13.815
38302W        W99833   6.422  30.108  13.920
38303W        W99834  21.551  17.235   0.734
38304W        W99835  13.690  20.041   2.840
38305W        W99836  15.227  31.125  12.000
38306W        W99837  21.671  32.418   4.701
38307W        W99838  15.175  31.096   9.662
38308W        W99839  34.416   3.268  11.466
38309W        W99840  24.577  20.615  12.939
38310W        W99841  39.852   0.283  11.007
38311W        W99842  30.521   3.370   4.768
38312W        W99843   8.318  44.393   0.799
38313W        W99844  35.590  36.024   0.271
38314W        W99845  43.831   6.284   0.243
38315W        W99846  38.356  23.989   2.881
38316W        W99847  44.385   6.399   0.762
38317W        W99848  22.548  17.301   0.876
38318W        W99849  34.094  24.199  11.519
38319W        W99850  29.559  30.588   1.849
38320W        W99851  17.757  42.432  13.487
38321W        W99852  15.136  38.899   0.373
38322W        W99853  23.993   5.739   1.346
38323W        W99854  10.769   6.335   0.759
38324W        W99855  10.870  17.176   0.884
38325W        W99856  35.960  33.423   1.715
38326W        W99857  44.759  11.155  11.067
38327W        W99858  13.138  18.223  14.442
38328W        W99859  15.790  36.013  13.973
38329W        W99860  25.100  27.691   4.818
38330W        W99861   9.832  12.830   1.701
38331W        W99862   6.732  12.664  13.837
38332W        W99863   2.257  32.398   4.127
38333W        W99864  18.708  23.021   0.946
38334W        W99865  38.885  43.850   0.830
38335W        W99866   1.740  38.999  11.388
38336W        W99867  38.499  15.219   1.806
38337W        W99868  38.957  35.357   5.162
38338W        W99869   3.818  15.650   2.822
38339W        W99870  33.094  40.893  13.528
38340W        W99871  14.815  30.624   5.231
38341W        W99872  17.181  38.326   1.323
38342W        W99873  39.991  33.602   0.908
38343W        W99874  13.135  40.406  13.049
38344W        W99875  22.171  39.375  10.929
38345W        W99876  25.708  18.077  12.902
38346W        W99877   3.434  41.317   4.204
38347W        W99878   8.367  19.104  12.943
38348W        W99879  39.896  28.942  10.596
38349W        W99880  40.447   8.282  12.441
38350W        W99881   6.789  39.393  14.383
38351W        W99882  39.052  28.004  12.373
38352W        W99883  42.391  43.325  10.619
38353W        W99884  41.503  24.156   5.311
38354W        W99885   5.198  19.110  11.050
38355W        W99886  15.638  12.653   1.881
38356W        W99887  39.493  44.487   4.774
38357W        W99888  13.109   3.715   5.096
38358W        W99889  11.232  31.084  14.919
38359W        W99890  24.704  36.379  12.031
38360W        W99891  34.060  36.982  13.414
38361W        W99892  41.807   0.471  12.927
38362W        W99893   2.424  18.055   4.684
38363W        W99894   9.242  39.875  11.036
38364W        W99895  15.701  43.926   4.768
38365W        W99896  21.598  27.068  11.036
38366W        W99897   2.404  31.944  12.895
38367W        W99898   1.835  14.252   2.354
38368W        W99899  34.106  22.154  13.333
38369W        W99900   9.784  14.185   2.665
38370W        W99901  42.321   6.818   0.450
38371W        W99902   4.815  42.853  12.533
38372W        W99903  17.151  32.555   4.695
38373W        W99904   1.843  29.129  11.548
38374W        W99905  39.876  11.160   0.320
38375W        W99906  39.906  27.157   1.838
38376W        W99907  28.623  27.153  11.083
38377W        W99908  29.143  43.313   3.861
38378W        W99909  27.634  20.586  14.434
38379W        W99910   4.823  38.420  12.956
38380W        W99911  35.905   0.972   3.305
38381W        W99912  41.980   1.300  12.549
38382W        W99913   1.850  29.959  14.402
38383W        W99914  26.475   8.890   4.781
38384W        W99915  28.532  27.609   2.804
38385W        W99916   6.248  30.463  11.534
38386W        W99917  23.117  26.193   3.705
38387W        W99918  20.524  42.008  14.282
38388W        W99919  19.204  40.948   2.750
38389W        W99920  31.933  32.397   3.316
38390W        W99921  12.830  41.426   3.355
38391W        W99922  42.965  26.076   1.774
38392W        W99923   4.866  33.576   1.764
38393W        W99924  33.052  18.625   2.369
38394W        W99925  43.289  42.931   1.852
38395W        W99926  12.695  24.221   1.876
38396W        W99927  19.098  13.297   0.837
38397W        W99928   4.924   3.812  14.766
38398W        W99929  20.161  12.659  10.470
38399W        W99930  42.792   2.818  12.047
38400W        W99931  38.031   2.261  10.412
38401W        W99932  25.134  23.077   2.373
38402W        W99933   6.223   0.276   0.295
38403W        W99934  21.689  17.204   2.370
38404W        W99935  30.037   1.920   1.737
38405W        W99936  14.277   1.468   2.345
38406W        W99937  14.231   5.751   4.237
38407W        W99938  10.851  31.911  11.028
38408W        W99939   8.788  32.488   1.777
38409W        W99940  33.385  24.991   1.253
38410W        W99941  43.827  17.678   3.226
38411W        W99942  31.566  43.960  12.349
38412W        W99943  36.394   9.198   0.727
38413W        W99944  12.120   2.721  14.385
38414W        W99945  20.195  39.013  11.916
38415W        W99946  17.604  18.254   3.348
38416W        W99947  23.068   3.710   2.710
38417W        W99948   2.860  23.007  14.416
38418W        W99949  33.110  42.835   1.235
38419W        W99950  31.056   9.690   1.809
38420W        W99951   5.227  12.301  12.032
38421W        W99952  18.255  40.896   2.775
38422W        W99953   7.201  26.491   0.291
38423W        W99954  15.310  15.578   3.736
38424W        W99955  22.123  13.330  11.065
38425W        W99956   7.833  19.628   3.190
38426W        W99957  33.910  13.828   4.183
38427W        W99958  11.204  44.001   1.280
38428W        W99959  33.066  22.721  11.605
38429W        W99960  30.103  37.514  14.959
38430W        W99961  31.081   4.237  12.535
38431W        W99962  13.780  25.592  11.095
38432W        W99963  12.281  30.955  14.888
38433W        W99964  42.939   3.219  13.910
38434W        W99965  17.226   7.316  12.023
38435W        W99966  12.271  38.338   3.766
38436W        W99967  31.995  26.200  11.523
38437W        W99968  22.153  33.100  11.400
38438W        W99969  29.084  11.814  14.800
38439W        W99970   2.752  38.863   2.328
38440W        W99971  20.211  27.661   2.417
38441W        W99972  38.397  13.232  10.442
38442W        W99973  16.684  13.230   0.922
38443W        W99974  26.569  36.079  13.879
38444W        W99975  16.575  23.016   2.716
38445W        W99976  10.671  39.012   3.657
38446W        W99977   1.422  43.342  14.427
38447W        W99978  31.563  39.004  12.088
38448W        W99979  41.415  18.747  12.339
38449W        W99980  10.338  37.572   1.273
38450W        W99981  22.708  40.310   4.785
38451W        W99982  25.094  28.449   0.352
38452W        W99983  19.107   9.339  14.417
38453W        W99984  40.404   7.254  13.494
38454W        W99985   1.732  44.859  10.954
38455W        W99986  44.264  19.248  11.924
38456W        W99987  26.048   6.717   2.197
38457W        W99988  43.803  35.598   4.150
38458W        W99989   6.194   1.945  13.388
38459W        W99990  42.335  32.417  12.555
38460W        W99991  26.575   2.932   4.624
38461W        W99992  35.941  29.943  12.937
38462W        W99993  14.642   0.915  11.865
38463W        W99994  43.281  11.635   1.374
38464W        W99995   9.359  27.608  11.381
38465W        W99996  26.490   4.740   4.771
38466W        W99997  22.724  22.192   3.843
38467W        W99998  41.867  12.812  14.302
38468W        W99999  30.981  19.615   0.397
38469W        W    0  41.896  19.596   4.738
38470W        W    1  10.278  31.927   1.320
38471W        W    2   7.755  44.500   1.789
38472W        W    3  23.017  15.192  13.458
38473W        W    4  18.681  28.583  11.551
38474W        W    5  23.521  36.043   2.740
38475W        W    6   4.911   5.416  11.110
38476W        W    7  18.147   6.373   4.799
38477W        W    8  42.407  29.473  13.023
38478W        W    9  29.989   9.219  10.912
38479W        W   10  27.064   6.283   1.929
38480W        W   11  15.323  36.895  14.898
38481W        W   12   5.297  21.034   0.923
38482W        W   13   7.306   0.269  13.330
38483W        W   14  29.660  38.852  11.017
38484W        W   15  38.456   9.273  11.879
38485W        W   16  44.879   8.740  12.470
38486W        W   17   8.290  44.440  12.022
38487W        W   18  25.033   5.831   1.887
38488W        W   19  39.371  22.560  14.513
38489W        W   20  27.030  38.860  12.970
38490W        W   21  34.411  12.727  12.554
38491W        W   22   7.362  39.434  12.068
38492W        W   23  27.021  13.775  14.897
38493W        W   24  23.512   5.926   3.242
38494W        W   25  39.516  35.928   0.744
38495W        W   26  24.152  31.592   4.669
38496W        W   27  10.723  37.397   3.160
38497W        W   28  35.516  29.035   0.966
38498W        W   29  30.415  30.149  12.995
38499W        W   30  10.723  19.091   0.890
38500W        W   31  30.082  29.132  13.830
38501W        W   32  25.101  28.052   3.669
38502W        W   33  14.165  20.759   1.736
38503W        W   34  34.585  11.685  10.161
38504W        W   35  21.031  21.099   4.345
38505W        W   36  20.051  32.447  13.908
38506W        W   37  25.035   4.318  10.494
38507W        W   38   6.846  37.832   2.345
38508W        W   39   8.205  21.087  12.562
38509W        W   40  33.397  40.022   2.180
38510W        W   41   9.888  18.119   0.484
38511W        W   42  26.183  25.109  12.996
38512W        W   43  31.934  43.428   1.370
38513W        W   44   0.357   6.320  12.979
38514W        W   45   9.332  11.722   3.283
38515W        W   46  27.529  32.470  14.311
38516W        W   47  11.674   0.908   3.845
38517W        W   48  28.455  25.010   4.161
38518W        W   49  34.556  14.245  12.002
38519W        W   50  14.744   1.746  11.011
38520W        W   51  29.635  35.466  14.429
38521W        W   52  24.226   5.694   2.264
38522W        W   53  13.757  34.091  10.629
38523W        W   54   9.733  11.193   2.236
38524W        W   55   9.370  44.467   4.350
38525W        W   56  22.220   5.908   3.286
38526W        W   57  18.631  17.249  11.521
38527W        W   58  26.649  10.634  14.785
38528W        W   59  41.366  43.322  13.010
38529W        W   60  34.381  35.903  14.479
38530W        W   61  32.493   8.711   4.291
38531W        W   62  43.369  21.161   3.233
38532W        W   63  30.476  19.720   3.180
38533W        W   64  35.976  36.003  10.572
38534W        W   65  28.485  39.852  14.972
38535W        W   66  37.346  30.956   1.920
38536W        W   67  34.910  42.494   1.782
38537W        W   68  36.016   0.340   2.705
38538W        W   69  28.053  42.973  14.839
38539W        W   70  11.815  26.559   3.273
38540W        W   71   4.277  40.517  11.864
38541W        W   72  10.689  17.220   4.644
38542W        W   73  34.888   2.390   0.396
38543W        W   74  32.890  38.337   3.231
38544W        W   75  26.511  11.238   9.677
38545W        W   76  20.034  24.174  11.508
38546W        W   77   2.237  37.437   1.431
38547W        W   78  38.076  20.118  10.540
38548W        W   79  18.144  36.412   2.695
38549W        W   80  44.298   2.945  14.331
38550W        W   81  15.154  18.685   4.664
38551W        W   82  33.435   0.360   2.408
38552W        W   83  42.883  21.653  10.502
38553W        W   84  23.672  38.341   0.857
38554W        W   85   4.383  24.193   1.890
38555W        W   86   8.195  16.659   1.930
38556W        W   87   9.393  36.430  14.293
38557W        W   88  14.698  13.801   0.746
38558W        W   89  15.171   4.253   4.670
38559W        W   90  32.572  10.362   1.409
38560W        W   91  41.337   7.862   1.222
38561W        W   92  34.917  11.714   0.295
38562W        W   93  37.862  15.785   4.630
38563W        W   94  38.494  37.837   1.822
38564W        W   95  26.686  38.840   2.270
38565W        W   96  11.244  37.991   0.918
38566W        W   97   0.332  40.327   3.146
38567W        W   98   1.853  35.067  11.066
38568W        W   99  16.630   6.324   0.330
38569W        W  100  34.510  38.336  12.418
38570W        W  101  22.598  41.352   3.262
38571W        W  102  37.954  41.928   4.312
38572W        W  103   8.859  10.302   0.427
38573W        W  104  16.095  27.015   5.250
38574W        W  105   0.309  42.334   4.791
38575W        W  106  30.149  19.749  14.491
38576W        W  107  26.169   9.381   4.646
38577W        W  108  15.604  29.614   0.749
38578W        W  109  27.452   5.347   1.216
38579W        W  110  21.649  42.523  10.510
38580W        W  111   5.744  24.988  14.378
38581W        W  112   4.876  43.431  13.503
38582W        W  113  36.040  13.799   2.801
38583W        W  114  19.136  31.022   4.293
38584W        W  115  42.315   1.970   2.319
38585W        W  116  13.232  37.024  12.383
38586W        W  117   6.697  34.406  11.390
38587W        W  118  15.738   9.316   4.619
38588W        W  119   2.305   2.324   0.926
38589W        W  120  44.494  23.226  12.355
38590W        W  121  40.523  23.589  13.960
38591W        W  122  12.123  10.302   2.888
38592W        W  123  14.194  29.166   4.601
38593W        W  124  13.127  41.893   0.434
38594W        W  125   8.161  24.066  12.033
38595W        W  126  40.035  21.067   4.255
38596W        W  127  26.158  40.814  13.325
38597W        W  128   9.679   7.252   2.764
38598W        W  129  24.089   4.352   4.335
38599W        W  130  35.927  38.963   3.645
38600W        W  131   6.722   4.940  14.005
38601W        W  132  25.011  19.700   2.892
38602W        W  133   1.775   3.348  10.404
38603W        W  134  25.217  39.910  12.037
38604W        W  135  34.445  28.030   0.869
38605W        W  136  36.059  18.564  12.943
38606W        W  137  37.373   2.892  10.444
38607W        W  138  28.173  33.497  13.404
38608W        W  139  31.608   0.801   4.146
38609W        W  140  31.568  42.355  14.993
38610W        W  141  43.803  19.211  13.977
38611W        W  142   2.314   9.310  14.511
38612W        W  143  15.667  36.358  11.033
38613W        W  144  43.513  19.595   5.293
38614W        W  145  23.006   9.188  12.466
38615W        W  146   6.921  42.484  11.503
38616W        W  147   6.855   3.399   0.915
38617W        W  148  13.632  34.555   0.920
38618W        W  149  19.266  14.599   1.768
38619W        W  150  12.285  33.902   0.815
38620W        W  151  18.564  10.872   3.273
38621W        W  152   0.969  12.699  10.977
38622W        W  153   0.251  33.510  12.537
38623W        W  154  39.337   8.189  11.563
38624W        W  155  19.748   2.432   3.758
38625W        W  156  21.240  19.556   4.145
38626W        W  157  17.583   1.957  10.892
38627W        W  158  26.981   4.882   2.188
38628W        W  159  32.617  44.906   1.894
38629W        W  160  19.063  39.852  13.910
38630W        W  161  25.591  35.916  10.422
38631W        W  162   6.879  26.975   4.597
38632W        W  163  41.856  35.852  13.830
38633W        W  164  13.666  18.694   2.180
38634W        W  165   3.291  14.684   5.255
38635W        W  166  11.709  23.123   2.864
38636W        W  167   6.883  13.318  13.469
38637W        W  168  33.082  36.485   4.742
38638W        W  169  38.512   5.926   2.678
38639W        W  170   8.171   9.796   0.812
38640W        W  171  27.575  22.604  12.953
38641W        W  172  33.447   1.828   1.377
38642W        W  173  11.284   0.948   0.349
38643W        W  174  17.801  12.638   1.843
38644W        W  175  23.046  21.733   3.176
38645W        W  176  36.453   4.810  13.043
38646W        W  177  32.970   0.377   4.137
38647W        W  178  32.587   5.291   3.754
38648W        W  179  28.455   4.297   1.328
38649W        W  180   1.275   1.279   4.291
38650W        W  181  44.490  39.359   4.213
38651W        W  182  27.035  16.679   0.875
38652W        W  183  31.141  22.687   2.365
38653W        W  184  18.223   8.789  11.973
38654W        W  185   8.374  10.811   4.251
38655W        W  186  22.702  16.203   4.699
38656W        W  187  28.044  37.338  14.284
38657W        W  188  41.412  26.961   3.233
38658W        W  189  40.527  30.014  14.495
38659W        W  190   4.881  40.317   0.255
38660W        W  191  33.008  37.002   2.405
38661W        W  192  12.783  21.207   3.248
38662W        W  193  14.710   1.825   1.927
38663W        W  194   7.378  28.447  14.020
38664W        W  195  20.564  12.823   4.282
38665W        W  196  17.288  34.057   3.219
38666W        W  197  40.470   2.817  13.867
38667W        W  198  22.137  20.273  11.540
38668W        W  199  31.942   6.765   1.400
38669W        W  200  19.701  24.678  14.962
38670W        W  201  39.397  36.953   4.210
38671W        W  202  14.136  26.591  13.380
38672W        W  203   5.913  23.703  12.926
38673W        W  204   1.910  30.584  13.027
38674W        W  205   3.324  22.513   3.375
38675W        W  206  22.544  19.223   2.385
38676W        W  207  39.888  25.493  14.278
38677W        W  208  19.202  33.444   0.361
38678W        W  209  30.026  34.008   3.796
38679W        W  210  43.883   2.801   0.729
38680W        W  211   6.825  12.275  13.545
38681W        W  212  14.756  26.618  12.836
38682W        W  213   5.858  44.916  13.399
38683W        W  214   6.203  32.925   4.626
38684W        W  215  38.913   3.302   4.813
38685W        W  216  38.063  13.200  14.312
38686W        W  217  30.609   2.762  12.393
38687W        W  218  26.098  15.728   0.424
38688W        W  219  19.540   6.277   0.831
38689W        W  220  39.413  28.160   1.215
38690W        W  221  43.279  18.668  11.015
38691W        W  222  29.656   1.243   0.313
38692W        W  223  13.825  39.847  14.355
38693W        W  224  12.777  28.614  11.058
38694W        W  225   7.823  18.690   2.718
38695W        W  226  28.946  43.943   0.357
38696W        W  227   1.754  16.225  13.019
38697W        W  228   2.818  26.623   2.186
38698W        W  229  35.970   7.369   4.730
38699W        W  230  40.957  10.343   3.635
38700W        W  231  19.273  18.588  12.511
38701W        W  232   4.434  33.041   2.233
38702W        W  233  19.243  23.238   5.311
38703W        W  234  20.058  21.126   5.189
38704W        W  235  21.224  44.476  12.914
38705W        W  236  12.179  18.725  11.038
38706W        W  237   6.276  30.611  14.474
38707W        W  238   5.327   4.232  13.978
38708W        W  239  24.560   5.785  10.562
38709W        W  240  21.212  23.102   2.901
38710W        W  241   5.749   6.864  14.279
38711W        W  242  38.036  16.795   3.169
38712W        W  243  25.963  29.136   4.261
38713W        W  244   8.713  39.929  13.528
38714W        W  245   5.691  43.792   1.310
38715W        W  246  26.486   1.738  11.547
38716W        W  247   1.452  10.848  13.883
38717W        W  248  31.628  21.153  12.972
38718W        W  249  40.866  22.569  10.921
38719W        W  250  36.553  10.377  12.478
38720W        W  251  43.290  29.104   2.869
38721W        W  252  10.257  15.664   2.815
38722W        W  253  19.064  36.972  11.107
38723W        W  254  18.716  11.249  14.986
38724W        W  255  19.088  24.534  13.445
38725W        W  256  19.264  20.731   3.640
38726W        W  257   9.725  15.691  12.452
38727W        W  258  26.655  34.009  10.992
38728W        W  259  34.476   3.442   1.910
38729W        W  260  21.669  38.939  11.510
38730W        W  261   6.241  33.948  10.917
38731W        W  262  38.072  23.987  11.441
38732W        W  263  27.043  21.517  14.384
38733W        W  264  37.831  32.942  12.857
38734W        W  265   3.731   3.930   4.127
38735W        W  266   6.423  31.578  13.392
38736W        W  267   6.337   4.381   2.383
38737W        W  268  21.736  28.168   2.711
38738W        W  269  35.081   5.693  12.938
38739W        W  270  16.229  18.226   0.261
38740W        W  271  14.713   3.224   2.889
38741W        W  272  22.525   3.364  13.913
38742W        W  273  18.674   2.930   0.772
38743W        W  274  19.066   8.815  13.958
38744W        W  275  43.380  23.649  12.840
38745W        W  276  21.649  10.672  13.378
38746W        W  277  36.947   9.212   3.257
38747W        W  278  10.198  25.000  11.488
38748W        W  279  37.382  25.553  11.610
38749W        W  280   1.467  23.543   1.450
38750W        W  281  29.134  17.131  10.587
38751W        W  282  36.036  31.592   1.836
38752W        W  283  14.318   4.309  12.491
38753W        W  284  29.018   5.893  12.397
38754W        W  285  22.188  28.676   9.487
38755W        W  286  12.820  26.653   3.752
38756W        W  287  28.938  39.559  11.887
38757W        W  288  36.883  17.719  11.593
38758W        W  289   0.289   9.694   1.437
38759W        W  290  31.998   6.770   1.868
38760W        W  291   1.916  22.135  12.975
38761W        W  292  33.460  10.237   5.284
38762W        W  293   0.782   0.363   4.721
38763W        W  294   4.398  37.872  14.318
38764W        W  295   9.171  30.457  14.854
38765W        W  296  44.376  27.681  13.928
38766W        W  297  18.791  33.617  10.038
38767W        W  298   8.718  21.164  13.940
38768W        W  299   9.300   9.850  13.001
38769W        W  300  39.537  25.138  11.549
38770W        W  301  40.494  37.567  12.827
38771W        W  302  41.345  32.079  13.884
38772W        W  303  20.669  35.914   4.272
38773W        W  304  11.639  19.111   4.254
38774W        W  305   8.890  11.714  10.607
38775W        W  306  31.078  11.694   3.266
38776W        W  307  32.998  29.429   4.622
38777W        W  308  30.433  26.193   0.871
38778W        W  309  32.570  26.524  12.908
38779W        W  310   5.266  38.568   4.262
38780W        W  311  16.680  12.838  12.974
38781W        W  312  42.414  10.207   0.812
38782W        W  313   6.682  38.837  10.445
38783W        W  314  31.907  40.305   2.209
38784W        W  315  41.464  37.909  12.493
38785W        W  316  20.163  22.238   9.596
38786W        W  317  25.185  42.947   1.802
38787W        W  318  14.811  21.103  10.075
38788W        W  319  10.243  14.761   0.811
38789W        W  320   0.403   4.417  14.006
38790W        W  321  10.326   8.371  11.423
38791W        W  322   0.853  31.554  12.970
38792W        W  323  17.081  24.060  14.015
38793W        W  324   3.743  32.598   3.234
38794W        W  325  20.648  29.103   3.289
38795W        W  326  40.820  39.933   1.370
38796W        W  327  44.439  10.219   3.295
38797W        W  328  39.829  12.674  14.424
38798W        W  329  40.314  12.715  13.870
38799W        W  330  17.787  17.177   1.310
38800W        W  331  24.632  24.068  13.946
38801W        W  332  39.849  17.245  13.455
38802W        W  333  16.233  30.052  10.571
38803W        W  334  39.918  40.982   0.730
38804W        W  335  41.799  43.993  10.413
38805W        W  336  37.884  33.976   4.156
38806W        W  337  28.640  27.117   1.888
38807W        W  338  21.664  37.857  13.824
38808W        W  339  19.779  27.027  12.420
38809W        W  340  29.438   2.378  13.360
38810W        W  341  25.157   2.294  14.497
38811W        W  342  15.275  43.846  11.970
38812W        W  343  43.977  24.122   1.257
38813W        W  344  36.490  23.226  14.458
38814W        W  345  37.504  27.525   4.191
38815W        W  346  40.391  28.946  13.801
38816W        W  347  35.474   3.394   1.921
38817W        W  348  30.920  20.131   1.302
38818W        W  349   8.797  13.777   0.846
38819W        W  350  12.336  16.634   3.357
38820W        W  351  32.028  29.580   4.333
38821W        W  352   6.752  17.608  11.450
38822W        W  353  11.277  30.651   0.255
38823W        W  354  35.487  24.646  13.816
38824W        W  355  40.829  29.546   2.414
38825W        W  356   2.821  39.898  13.491
38826W        W  357  24.055  27.163  11.598
38827W        W  358   0.923  33.529  10.547
38828W        W  359  23.626  15.264  14.805
38829W        W  360   2.727   0.289  13.837
38830W        W  361  16.735  39.552  13.477
38831W        W  362   6.401   7.284   2.877
38832W        W  363  17.180  34.474  14.336
38833W        W  364   1.270  29.563   4.725
38834W        W  365  36.490  23.561   5.128
38835W        W  366  16.607   1.479  12.390
38836W        W  367  27.627  22.235  11.419
38837W        W  368  13.326  43.916   1.339
38838W        W  369  38.990  10.224  11.485
38839W        W  370  21.173  26.474   2.861
38840W        W  371  26.531  18.601   3.746
38841W        W  372  32.060   7.201   4.631
38842W        W  373  39.982  17.304   3.301
38843W        W  374  14.770  19.196   4.644
38844W        W  375  35.012   1.466  11.551
38845W        W  376   1.794  14.761   4.609
38846W        W  377  19.565  25.618  10.563
38847W        W  378  23.033  28.160  14.830
38848W        W  379   1.946  13.613   4.149
38849W        W  380   2.904  25.015  13.948
38850W        W  381  36.366  26.526   4.335
38851W        W  382   8.779  42.874  13.046
38852W        W  383   9.804   3.757  11.910
38853W        W  384  40.538  29.100   4.810
38854W        W  385  15.794  42.797  14.377
38855W        W  386   8.236  26.066  14.935
38856W        W  387  13.345  29.046   2.765
38857W        W  388  41.303  13.651  10.415
38858W        W  389  10.856  23.565  11.028
38859W        W  390  14.188  15.667  11.078
38860W        W  391  14.709  26.502   1.913
38861W        W  392  42.942  16.736   2.799
38862W        W  393  40.439  31.008   3.199
38863W        W  394  39.367  43.284  11.552
38864W        W  395  25.597  25.216  13.475
38865W        W  396  21.263   2.265  13.959
38866W        W  397  38.922   0.754   0.766
38867W        W  398   3.792   3.827   0.378
38868W        W  399  10.308  42.483  14.446
38869W        W  400  38.474  37.557  14.989
38870W        W  401  36.053  41.333   1.785
38871W        W  402  38.562  27.651  14.840
38872W        W  403   0.936  33.897   1.334
38873W        W  404  25.706   8.751   4.670
38874W        W  405  29.158   8.316   0.434
38875W        W  406  24.536  17.677   3.189
38876W        W  407  33.566   8.690   0.394
38877W        W  408  40.546  34.369   2.887
38878W        W  409   8.194  13.138   3.208
38879W        W  410  35.384  18.767  12.987
38880W        W  411  44.262  27.504  12.969
38881W        W  412  21.155  22.697   3.227
38882W        W  413  17.131  26.063  14.951
38883W        W  414   8.688   8.769  12.440
38884W        W  415  15.798  28.103  14.474
38885W        W  416   4.852  41.796  11.001
38886W        W  417  28.544   5.216   1.825
38887W        W  418   0.418  13.162   0.371
38888W        W  419  15.314  40.432  11.424
38889W        W  420   3.910  28.478   2.283
38890W        W  421  21.038  19.250  12.908
38891W        W  422  33.128  27.997  14.860
38892W        W  423   9.728  37.420   3.152
38893W        W  424  13.691  16.078   4.291
38894W        W  425  39.484  24.128  12.370
38895W        W  426   0.985  23.036  11.478
38896W        W  427  26.662  11.630  11.611
38897W        W  428  18.087  27.048   9.978
38898W        W  429  22.200  11.754  10.501
38899W        W  430   8.238  18.280   4.188
38900W        W  431  15.183  32.062  10.644
38901W        W  432  19.761   1.304  10.487
38902W        W  433   7.834  22.538   0.965
38903W        W  434  39.841  43.853  10.909
38904W        W  435  39.401  44.990   3.843
38905W        W  436  36.375  17.251  14.412
38906W        W  437  34.973   7.298   2.178
38907W        W  438  14.256  25.044   1.405
38908W        W  439   5.871   1.753   1.915
38909W        W  440  32.479   8.374   2.721
38910W        W  441  11.667  18.058   3.189
38911W        W  442  24.718   9.677  11.428
38912W        W  443   4.801  29.156   2.275
38913W        W  444   6.345  17.716  10.461
38914W        W  445  13.190  11.364  10.080
38915W        W  446  33.606  23.600   4.711
38916W        W  447  22.149  14.741  14.026
38917W        W  448   2.966  10.795   4.730
38918W        W  449  36.358  36.998   3.808
38919W        W  450  35.109   1.794   1.327
38920W        W  451  28.984  32.101  11.565
38921W        W  452  27.978  24.595   3.145
38922W        W  453  30.915  22.062  13.494
38923W        W  454   3.765  35.975  13.987
38924W        W  455  44.864  13.753   1.825
38925W        W  456   4.745  30.551  12.572
38926W        W  457  34.461   2.741   1.717
38927W        W  458  34.523  12.321   3.826
38928W        W  459  26.110  10.253   3.714
38929W        W  460   6.416   7.207   2.325
38930W        W  461   9.818  38.880  11.970
38931W        W  462  12.847  24.054   3.856
38932W        W  463  32.065  20.089  13.807
38933W        W  464  26.031  26.009  14.966
38934W        W  465  11.148  40.814   4.304
38935W        W  466  19.041   0.479   4.330
38936W        W  467  15.621  35.359   1.314
38937W        W  468   3.326   3.288  10.918
38938W        W  469   7.284  21.654  11.588
38939W        W  470  21.206  34.396   4.247
38940W        W  471  26.505  29.151  10.007
38941W        W  472  40.466  17.188   4.130
38942W        W  473   2.268   3.728   4.141
38943W        W  474  41.811   3.303   0.371
38944W        W  475  20.728   4.786  11.061
38945W        W  476  29.666  16.796   2.770
38946W        W  477  22.244  31.972   2.278
38947W        W  478  19.778  32.022   3.358
38948W        W  479  20.138  34.601  11.008
38949W        W  480   5.352  32.926   1.818
38950W        W  481  29.167   5.301  10.890
38951W        W  482  14.176   5.269  10.528
38952W        W  483  20.739  18.681   3.239
38953W        W  484   2.816  34.385  13.873
38954W        W  485  35.383   1.800   3.870
38955W        W  486  34.412  21.626   0.740
38956W        W  487  25.688  34.989   0.276
38957W        W  488   6.262  13.794   4.186
38958W        W  489  18.782  24.624  10.539
38959W        W  490  36.896  22.201  12.412
38960W        W  491  18.112  34.034   0.305
38961W        W  492  15.686  12.212  10.941
38962W        W  493  30.513  27.632  12.847
38963W        W  494  37.355  23.175   2.763
38964W        W  495  42.867   4.246  10.991
38965W        W  496  41.896   9.796  12.440
38966W        W  497  19.579  10.636   1.793
38967W        W  498   1.907  31.455  14.996
38968W        W  499  21.246  13.778   1.719
38969W        W  500  10.276  16.288  14.971
38970W        W  501  42.404   5.838  12.076
38971W        W  502  18.672  12.821  12.451
38972W        W  503  41.498   0.975   2.770
38973W        W  504   1.265  22.648   1.719
38974W        W  505  23.697  40.899   1.879
38975W        W  506  26.009   2.242   4.641
38976W        W  507  16.103  21.710  13.323
38977W        W  508  12.661  13.645   3.314
38978W        W  509  30.464  32.609   1.870
38979W        W  510  11.853  17.110   3.722
38980W        W  511  41.837  38.340  12.474
38981W        W  512   2.280  30.463   1.250
38982W        W  513   9.166  41.484   1.404
38983W        W  514  17.602  14.127   0.887
38984W        W  515  33.918  11.338  12.073
38985W        W  516   9.694  11.351  11.531
38986W        W  517  13.341   8.176   3.235
38987W        W  518   6.414  14.138   2.789
38988W        W  519   2.891   4.348  13.791
38989W        W  520   0.958  36.013   1.260
38990W        W  521   8.879  10.182   0.928
38991W        W  522   5.866   9.707  12.352
38992W        W  523  12.224  38.030  11.578
38993W        W  524  20.124  35.398   2.783
38994W        W  525  38.992  15.640  11.874
38995W        W  526  29.057  37.907  13.911
38996W        W  527  42.806  41.948  11.509
38997W        W  528  18.242  37.877  12.873
38998W        W  529  34.871   4.216   1.222
38999W        W  530  16.757  27.582  14.830
39000W        W  531  44.007  15.253   1.764
39001W        W  532   1.327  18.633  11.921
39002W        W  533   7.718   1.311  12.046
39003W        W  534  44.832  34.097  13.865
39004W        W  535  19.606  31.982   5.206
39005W        W  536  14.593   6.261  11.446
39006W        W  537  26.193   5.239   1.303
39007W        W  538  26.136  41.825   3.781
39008W        W  539  40.415  35.053  14.024
39009W        W  540  40.335  20.614  13.831
39010W        W  541   7.284  11.821  11.600
39011W        W  542  35.489  25.055   2.806
39012W        W  543  11.140   0.469  14.815
39013W        W  544  43.916  42.520  10.641
39014W        W  545  25.006  31.043   0.422
39015W        W  546  41.787   9.209   4.700
39016W        W  547  10.207  44.916   5.762
39017W        W  548  41.353  26.009  13.415
39018W        W  549  11.202   7.173   4.732
39019W        W  550  43.275  15.181   4.709
39020W        W  551  36.051  33.948   1.342
39021W        W  552  40.440  38.460   0.956
39022W        W  553  29.151  36.968  11.585
39023W        W  554  32.070  14.128  12.900
39024W        W  555  23.715   7.787   4.796
39025W        W  556  41.385   3.858  12.838
39026W        W  557  44.780  41.826   0.749
39027W        W  558  21.519   6.685   3.806
39028W        W  559  38.502  18.562  12.903
39029W        W  560   6.759  10.233   1.759
39030W        W  561   0.749  15.796   4.193
39031W        W  562  27.522  21.151   1.336
39032W        W  563  16.209  38.336  12.040
39033W        W  564  10.692  38.840  14.985
39034W        W  565  13.727  20.631  11.084
39035W        W  566  10.783  27.456  14.510
39036W        W  567   7.806   6.696   1.441
39037W        W  568  19.765   3.765  11.604
39038W        W  569  20.768  28.676   4.332
39039W        W  570   1.764   4.823  12.554
39040W        W  571  37.066  38.550   1.867
39041W        W  572  13.105  26.525  12.953
39042W        W  573  20.732  10.672  13.809
39043W        W  574  31.546  41.922   1.736
39044W        W  575  27.193  39.912   3.146
39045W        W  576  17.305  12.770  12.926
39046W        W  577  25.604  28.619  12.457
39047W        W  578  22.701  12.836  10.449
39048W        W  579  24.639  30.961  14.274
39049W        W  580  26.553  13.625   1.227
39050W        W  581  21.246  37.568  13.340
39051W        W  582   0.786   4.288  11.104
39052W        W  583  43.289  34.069  10.433
39053W        W  584  37.050  21.082   3.662
39054W        W  585  44.321  10.301   1.912
39055W        W  586  29.161  27.601  13.059
39056W        W  587  42.383  13.331  13.906
39057W        W  588  29.459  28.986   0.352
39058W        W  589  22.522  43.459  12.406
39059W        W  590  43.992  36.511  12.411
39060W        W  591   5.720  28.535  13.408
39061W        W  592  24.628  38.364   0.404
39062W        W  593  28.058   2.928   2.238
39063W        W  594   9.307  43.984   4.641
39064W        W  595  33.609  28.567   4.675
39065W        W  596   0.410  37.473   0.345
39066W        W  597  43.016  42.815   0.904
39067W        W  598  36.919  28.990  11.060
39068W        W  599   8.893  44.262   2.399
39069W        W  600  11.743  19.607   9.994
39070W        W  601  26.076   1.860   0.464
39071W        W  602   5.857  14.289  10.453
39072W        W  603  21.241   6.345   0.756
39073W        W  604  22.691  19.260   1.830
39074W        W  605   3.392  19.715  10.909
39075W        W  606   6.799  20.694   2.398
39076W        W  607  10.156  15.136  13.988
39077W        W  608  36.087  18.118  13.425
39078W        W  609  16.170  14.206  12.551
39079W        W  610   2.797  31.483  12.865
39080W        W  611  16.719  31.648   2.368
39081W        W  612  22.068  19.119  10.638
39082W        W  613  20.077  28.508   2.284
39083W        W  614  21.252  35.858  14.876
39084W        W  615   0.368  29.565  11.867
39085W        W  616  23.111  32.009  11.993
39086W        W  617  19.733  35.500  11.941
39087W        W  618  20.083   9.783  14.482
39088W        W  619  33.030  28.605   2.830
39089W        W  620  24.698   0.837  12.847
39090W        W  621  34.439  43.432   3.320
39091W        W  622  21.246  12.727   3.687
39092W        W  623  41.933   6.240   5.219
39093W        W  624  39.880  28.063  13.957
39094W        W  625  41.865  40.941  10.642
39095W        W  626  36.044   6.787   2.830
39096W        W  627  16.741   1.945  14.772
39097W        W  628  37.350   2.285  14.939
39098W        W  629  32.930  27.475   4.637
39099W        W  630  21.145  26.688   0.387
39100W        W  631  30.453   6.387   4.148
39101W        W  632  19.039  31.932   1.301
39102W        W  633  43.437  10.169   4.320
39103W        W  634  24.140  28.127  11.105
39104W        W  635   1.326  41.443   0.909
39105W        W  636  41.333  43.003  10.918
39106W        W  637  27.576  35.934  14.954
39107W        W  638   0.465  41.018  11.881
39108W        W  639  36.046  13.628  12.535
39109W        W  640  31.025  10.774  14.814
39110W        W  641  26.151   0.923   1.760
39111W        W  642   2.942  40.354  13.448
39112W        W  643  33.459  20.060  11.108
39113W        W  644  18.193  28.929   1.299
39114W        W  645  20.210  32.400   1.795
39115W        W  646  20.670  13.243   4.332
39116W        W  647  24.524  36.496   2.888
39117W        W  648  23.565  38.945  12.927
39118W        W  649  35.459  29.575  10.509
39119W        W  650  26.625  27.658  11.901
39120W        W  651  30.053  43.383   0.899
39121W        W  652  36.376  24.070   3.777
39122W        W  653  32.925  26.489   1.775
39123W        W  654  19.097   3.249  14.002
39124W        W  655   6.777  28.679   2.229
39125W        W  656   4.308  35.939   1.407
39126W        W  657  16.148  18.246   2.349
39127W        W  658  34.446  29.444   3.343
39128W        W  659   0.959   0.262   1.219
39129W        W  660  26.134  14.219  12.862
39130W        W  661   2.745  38.536   4.611
39131W        W  662  30.116   4.830   0.842
39132W        W  663   5.878  11.726   1.439
39133W        W  664  34.521  20.142   0.363
39134W        W  665  28.937  22.537   3.638
39135W        W  666  18.622  38.949   3.792
39136W        W  667  35.416  15.778   9.641
39137W        W  668  19.150  44.398   1.852
39138W        W  669  10.177  11.345  13.417
39139W        W  670  38.426  25.489   1.827
39140W        W  671  21.738  24.492   0.445
39141W        W  672  18.755  36.527   0.303
39142W        W  673  22.071  37.852  12.017
39143W        W  674   6.826  16.735  14.952
39144W        W  675  20.135  15.276   4.258
39145W        W  676  14.331   7.257   2.302
39146W        W  677  36.515   4.907   2.737
39147W        W  678  21.238  38.013  12.406
39148W        W  679   9.381  18.773   0.922
39149W        W  680  40.493  18.217   1.362
39150W        W  681  37.901  42.964  10.465
39151W        W  682   5.891  21.670   1.374
39152W        W  683  25.699  11.717  14.875
39153W        W  684  44.923   8.372   4.131
39154W        W  685  31.431  31.646  11.929
39155W        W  686  21.741  32.945  13.397
39156W        W  687  12.297   6.271  13.064
39157W        W  688  35.598  44.965   1.756
39158W        W  689   9.178  37.513   3.234
39159W        W  690  29.512  41.530  14.859
39160W        W  691  43.832   9.174  13.031
39161W        W  692  32.923  26.008  12.974
39162W        W  693  18.142  37.904   3.782
39163W        W  694  33.952  22.603  14.872
39164W        W  695  44.315  36.933   4.262
39165W        W  696  42.523  30.509  10.428
39166W        W  697  38.028  13.319   1.855
39167W        W  698  38.436  35.444   4.634
39168W        W  699   8.203  44.896  11.933
39169W        W  700  33.517  18.791   0.917
39170W        W  701  13.808  35.395  12.084
39171W        W  702  19.198  23.539   4.709
39172W        W  703  44.333  34.042   0.248
39173W        W  704  11.273  36.075   2.816
39174W        W  705  44.301  22.596  14.022
39175W        W  706  20.750   5.768  11.004
39176W        W  707   7.714  13.153   4.764
39177W        W  708  13.234   2.797  12.472
39178W        W  709  28.453  29.065   2.307
39179W        W  710  17.765  44.874   4.719
39180W        W  711  23.175  32.038  14.928
39181W        W  712  16.299   7.403   5.192
39182W        W  713  11.765  22.549  10.921
39183W        W  714  21.163  21.088  12.923
39184W        W  715  13.318   2.326   3.332
39185W        W  716   2.822  15.782   2.678
39186W        W  717  29.664  42.975  13.438
39187W        W  718   6.393  38.430   1.726
39188W        W  719  13.325  22.665   3.188
39189W        W  720  20.121  12.724   3.745
39190W        W  721  28.986  11.820   2.350
39191W        W  722   7.680  41.475  13.514
39192W        W  723  40.861  37.884   3.824
39193W        W  724   4.888  29.535   5.098
39194W        W  725   2.911  33.521   2.710
39195W        W  726  37.038  36.503   1.334
39196W        W  727   3.858  39.371   3.683
39197W        W  728  41.361  10.846   3.231
39198W        W  729  17.193  16.266  11.508
39199W        W  730  33.585  38.363  11.918
39200W        W  731  43.461  17.148  11.441
39201W        W  732   0.330   6.286  11.554
39202W        W  733  18.756  17.689   3.203
39203W        W  734  21.687  32.469  13.947
39204W        W  735  32.009  24.555   1.911
39205W        W  736  11.288  10.279  11.867
39206W        W  737   4.290  28.052   0.242
39207W        W  738  16.085  34.985   4.343
39208W        W  739   0.264  25.173  14.384
39209W        W  740  16.597  43.376   0.465
39210W        W  741  14.193  40.322  12.530
39211W        W  742  14.752   8.697   2.309
39212W        W  743  15.257  34.596  11.924
39213W        W  744  35.973  12.659   1.918
39214W        W  745  43.867  12.163  13.808
39215W        W  746  31.551  43.893   0.965
39216W        W  747   4.854  17.290   0.464
39217W        W  748  26.151  29.568   3.150
39218W        W  749  17.263   4.308   2.282
39219W        W  750   5.831  34.422   2.666
39220W        W  751  13.811   3.861   3.384
39221W        W  752  34.027  17.261   2.762
39222W        W  753  34.427  36.437  11.536
39223W        W  754  41.891  33.456   2.294
39224W        W  755   7.405  37.833  14.359
39225W        W  756  20.593  21.136   0.774
39226W        W  757  44.995   6.744   4.126
39227W        W  758  43.987  12.834  11.035
39228W        W  759  17.559  31.577   1.336
39229W        W  760  25.168  41.358  11.081
39230W        W  761  38.471  30.998  10.563
39231W        W  762  21.143   7.793   1.290
39232W        W  763  42.504   7.209   2.846
39233W        W  764  14.131   5.710  11.991
39234W        W  765   3.398  12.175  12.087
39235W        W  766  37.014  18.631  10.923
39236W        W  767   1.977   8.702  13.950
39237W        W  768  15.778   5.925   1.214
39238W        W  769  20.121  32.970  12.430
39239W        W  770   3.430   4.707  14.908
39240W        W  771  43.486  21.251   3.832
39241W        W  772  22.600  33.009  11.433
39242W        W  773   3.788   8.761  14.367
39243W        W  774   2.795  30.983   0.740
39244W        W  775  15.217  40.978  14.014
39245W        W  776  42.781  18.599   3.173
39246W        W  777   5.886  38.396   1.414
39247W        W  778   5.889  29.939  11.575
39248W        W  779  37.002  44.382   4.773
39249W        W  780   6.248  31.987  10.442
39250W        W  781  28.991  32.037  10.997
39251W        W  782   7.393  12.736   3.722
39252W        W  783  14.745   1.443   2.179
39253W        W  784  13.304  32.141   0.440
39254W        W  785  22.140  30.112   9.537
39255W        W  786  36.952  12.743  12.045
39256W        W  787  11.283  18.628   1.264
39257W        W  788  16.087  24.516  13.823
39258W        W  789  27.475   6.273  11.097
39259W        W  790  12.649  42.835   2.786
39260W        W  791  24.692   9.209   2.855
39261W        W  792   2.788  40.422  14.768
39262W        W  793  19.693   8.194   1.431
39263W        W  794  19.159  31.023   4.738
39264W        W  795  32.465  29.651   2.350
39265W        W  796  33.050  21.140  11.471
39266W        W  797  35.059  41.805  14.829
39267W        W  798  43.330  19.537  14.958
39268W        W  799  43.445  29.955  11.991
39269W        W  800  10.353  28.646   3.321
39270W        W  801  41.525  24.229  13.487
39271W        W  802   2.389  36.990   3.710
39272W        W  803  28.962  33.600   2.301
39273W        W  804  19.199  41.835  12.040
39274W        W  805  31.102  27.480   3.354
39275W        W  806  30.619  23.223   2.675
39276W        W  807  22.683  20.192  10.516
39277W        W  808  24.638  20.131  11.879
39278W        W  809  31.025  25.085   5.226
39279W        W  810  42.468  20.708   4.657
39280W        W  811  42.926   7.358  14.030
39281W        W  812  19.638   3.367   4.669
39282W        W  813  30.600  44.989  12.043
39283W        W  814   5.392  24.980  13.349
39284W        W  815  11.846  13.749   3.371
39285W        W  816  43.931  40.434  12.361
39286W        W  817  17.629  39.505   2.722
39287W        W  818   9.870  32.962   0.308
39288W        W  819  35.078  42.292   2.861
39289W        W  820  10.795  16.696  13.460
39290W        W  821  21.095  23.164   1.430
39291W        W  822  30.133  11.678   2.848
39292W        W  823  40.918  25.132   0.926
39293W        W  824   5.287  36.388  11.067
39294W        W  825  37.475  21.029  14.850
39295W        W  826  10.793  40.525   3.273
39296W        W  827   7.376  12.202   3.686
39297W        W  828  11.340  38.046  11.955
39298W        W  829  22.682  43.389   2.892
39299W        W  830   8.361  24.035   3.277
39300W        W  831   8.823   6.291  11.069
39301W        W  832  13.717  18.066   4.249
39302W        W  833  32.425  36.407  10.549
39303W        W  834  32.050  30.466  10.986
39304W        W  835  25.965  16.615  10.946
39305W        W  836  23.063  44.831  11.873
39306W        W  837  15.634  13.798   2.291
39307W        W  838  30.145   3.272   1.316
39308W        W  839   9.843  33.388  13.466
39309W        W  840  22.508  32.947   0.824
39310W        W  841   5.314  30.038  11.589
39311W        W  842  19.226  21.073   5.309
39312W        W  843  43.883   0.941  13.954
39313W        W  844  41.868  17.122  12.904
39314W        W  845  31.047  20.606   1.803
39315W        W  846  24.558  18.225   0.251
39316W        W  847  43.375  34.462   0.777
39317W        W  848  19.752  25.563  11.553
39318W        W  849   8.783  39.335  12.577
39319W        W  850  40.013  14.145  14.382
39320W        W  851  41.386  17.131   2.883
39321W        W  852  44.931  31.991   2.747
39322W        W  853   6.199   1.954   4.265
39323W        W  854  32.049  43.865   3.339
39324W        W  855  35.019  15.181   2.225
39325W        W  856  22.047  20.631   2.195
39326W        W  857  19.722  17.605  11.873
39327W        W  858   3.715  29.128   0.303
39328W        W  859  30.059  31.431  14.887
39329W        W  860  24.715  13.692   3.217
39330W        W  861  23.066  24.714   4.627
39331W        W  862   4.729  38.519  14.916
39332W        W  863  14.740  16.765  12.442
39333W        W  864  27.128  37.344   0.755
39334W        W  865  44.357  27.145  12.844
39335W        W  866  24.589  22.655   0.471
39336W        W  867   8.888  26.195   2.803
39337W        W  868  39.827  25.991  10.937
39338W        W  869  27.649  44.320   0.933
39339W        W  870   5.350  19.643  13.510
39340W        W  871  39.867   7.226  10.509
39341W        W  872  35.861   6.194  13.488
39342W        W  873  23.593  39.543   0.929
39343W        W  874  29.604  19.697   3.783
39344W        W  875  37.848  15.583   0.761
39345W        W  876  16.808  31.976   0.913
39346W        W  877  20.750  34.938  11.427
39347W        W  878  19.195  28.075  14.381
39348W        W  879  42.521  39.459   3.246
39349W        W  880  36.593  11.168  14.343
39350W        W  881  27.018  17.666   1.395
39351W        W  882  24.201  17.740  10.618
39352W        W  883  36.966  36.384  12.446
39353W        W  884  26.057   9.234   1.392
39354W        W  885  31.146  19.195   1.880
39355W        W  886   5.222  19.639  12.075
39356W        W  887  39.857  13.260  13.308
39357W        W  888  28.009  27.128   1.842
39358W        W  889  39.449  20.066  11.886
39359W        W  890  22.225  41.894   4.689
39360W        W  891  35.449  33.119  12.983
39361W        W  892  20.546  14.781   4.280
39362W        W  893  27.652  13.734   4.678
39363W        W  894   4.205  17.795  11.600
39364W        W  895  26.003  18.580   2.851
39365W        W  896  34.445  36.475   0.929
39366W        W  897   0.757  26.064  10.542
39367W        W  898  22.521  13.760   0.836
39368W        W  899  21.235   3.383  13.424
39369W        W  900  34.037  20.265  12.051
39370W        W  901  43.331  31.473  10.981
39371W        W  902  18.712  16.081   2.801
39372W        W  903  35.437  32.982   3.373
39373W        W  904  26.486  34.422  11.046
39374W        W  905   9.164   5.368   2.223
39375W        W  906   1.356   3.265   2.202
39376W        W  907   7.219   9.280  12.992
39377W        W  908  29.066  10.642   3.192
39378W        W  909  25.056   7.762  11.451
39379W        W  910  44.973   2.929   2.387
39380W        W  911   9.783  32.998   0.938
39381W        W  912  43.433   8.734   2.219
39382W        W  913  33.606  34.017  14.507
39383W        W  914  35.570  30.425   3.730
39384W        W  915  28.596  38.888  12.378
39385W        W  916   0.266  29.031   0.757
39386W        W  917  35.955  11.766   1.721
39387W        W  918  15.631   1.736  10.004
39388W        W  919  26.514  16.579   9.975
39389W        W  920  30.918  33.890  12.364
39390W        W  921  13.722  26.148  13.319
39391W        W  922   0.900  35.894   2.683
39392W        W  923  14.682   8.839  14.031
39393W        W  924   9.173  13.611   0.777
39394W        W  925  25.128  27.571   1.263
39395W        W  926  33.909   7.806  14.482
39396W        W  927  15.802   0.406   4.287
39397W        W  928  42.439   0.848   0.947
39398W        W  929  17.680  12.242  11.522
39399W        W  930  29.132  39.889   2.719
39400W        W  931   0.834   9.711  14.822
39401W        W  932  30.643  38.072   3.699
39402W        W  933   8.193  28.001  11.055
39403W        W  934   0.441  12.262   3.339
39404W        W  935  26.014   8.365  13.396
39405W        W  936  16.200  10.696  14.306
39406W        W  937  18.572  26.689   4.680
39407W        W  938  16.243  17.584  14.904
39408W        W  939  32.481  29.981   1.338
39409W        W  940  41.835  27.170   3.180
39410W        W  941  35.966  14.696   2.255
39411W        W  942  18.552  40.510   4.213
39412W        W  943   3.420  31.147   2.676
39413W        W  944   6.845   5.873   1.695
39414W        W  945  43.993  20.655  12.995
39415W        W  946   0.914  31.143   2.415
39416W        W  947  41.834   2.724   3.770
39417W        W  948  14.663  10.183  14.798
39418W        W  949  36.422  29.625  12.918
39419W        W  950  42.907  15.774   1.409
39420W        W  951  19.283  23.093   9.940
39421W        W  952  20.249   4.348   2.283
39422W        W  953   1.786  13.686  12.576
39423W        W  954  19.120  38.558  13.978
39424W        W  955  30.426  31.626   3.258
39425W        W  956  41.480  16.283  10.470
39426W        W  957  42.946   0.388  11.547
39427W        W  958  30.016  13.761   3.844
39428W        W  959  10.831   0.434  12.367
39429W        W  960   2.428  39.409  10.534
39430W        W  961  21.113  39.969   0.289
39431W        W  962   0.922  21.133  14.469
39432W        W  963  22.722   6.196  14.767
39433W        W  964  22.215  12.757  14.788
39434W        W  965  12.245   4.437  14.450
39435W        W  966   4.331  35.388   2.237
39436W        W  967  21.534  16.203   1.283
39437W        W  968  35.903  19.703   1.431
39438W        W  969   1.790  13.150  13.365
39439W        W  970  29.474   6.312   3.655
39440W        W  971   7.811  20.616   0.734
39441W        W  972  39.486   5.367  10.598
39442W        W  973  38.837  17.116   2.389
39443W        W  974  14.689  10.343   3.754
39444W        W  975  26.663   7.415  13.463
39445W        W  976  10.373  15.734   0.254
39446W        W  977   2.937  42.012  12.564
39447W        W  978  37.937  16.287   1.370
39448W        W  979  22.092  11.770   2.879
39449W        W  980  13.786   8.325  11.981
39450W        W  981  24.523  37.857   2.901
39451W        W  982  25.081   1.446  13.817
39452W        W  983   6.327  34.025   4.628
39453W        W  984  33.560  24.107   3.658
39454W        W  985  12.799   5.319   1.851
39455W        W  986  26.157   0.250   0.946
39456W        W  987  39.928  41.827   1.345
39457W        W  988   7.266   4.866  12.007
39458W        W  989  11.692   6.818  12.067
39459W        W  990  27.026  40.849  14.433
39460W        W  991   8.256  19.729   4.115
39461W        W  992  41.891  28.951   2.392
39462W        W  993  41.523  41.935  11.957
39463W        W  994  28.183  12.822  10.925
39464W        W  995  31.152  21.575  11.013
39465W        W  996  26.470  20.074   3.739
39466W        W  997  36.457  14.139   4.613
39467W        W  998  15.643  14.098  10.149
39468W        W  999  24.509  21.139  13.460
39469W        W 1000  25.613  17.163  13.041
39470W        W 1001  13.249  19.051  11.454
39471W        W 1002  19.172  12.758   1.430
39472W        W 1003  40.528   8.901   2.806
39473W        W 1004  15.755  41.525   0.345
39474W        W 1005   6.201   1.915   4.837
39475W        W 1006  33.518   7.260   2.292
39476W        W 1007   9.276  23.011   1.840
39477W        W 1008   1.828   8.714   3.852
39478W        W 1009   9.317   8.172  10.586
39479W        W 1010  35.403   5.915   4.752
39480W        W 1011  31.109  30.030   4.214
39481W        W 1012  26.067  28.126   4.775
39482W        W 1013  21.625   0.766  11.868
39483W        W 1014   1.868  39.393  10.909
39484W        W 1015  28.665  37.946   0.941
39485W        W 1016   1.476  35.979   4.702
39486W        W 1017  25.512   1.261  14.460
39487W        W 1018  44.872  20.545   2.374
39488W        W 1019  12.644  36.011  10.518
39489W        W 1020   7.186  15.107  13.428
39490W        W 1021   7.370  20.168  12.078
39491W        W 1022  44.353  13.192  12.080
39492W        W 1023   7.761  42.805   2.390
39493W        W 1024  10.731   7.672   2.201
39494W        W 1025  18.756  10.763  10.985
39495W        W 1026  33.479   2.874   4.600
39496W        W 1027   2.377   4.941  10.153
39497W        W 1028  10.376  23.219   1.745
39498W        W 1029  41.409   8.765   1.283
39499W        W 1030  44.878  44.944  14.463
39500W        W 1031  41.470  21.179  10.632
39501W        W 1032  33.543  41.839  13.522
39502W        W 1033   6.354  37.957  13.915
39503W        W 1034  11.194   7.315  14.954
39504W        W 1035  34.912  37.866  13.002
39505W        W 1036  13.314  16.274  12.548
39506W        W 1037  43.412  37.438  14.878
39507W        W 1038   4.330  15.287  13.379
39508W        W 1039  42.518  14.162   1.858
39509W        W 1040  10.267   0.260   3.631
39510W        W 1041  13.233  34.942  11.554
39511W        W 1042  15.213  17.795  12.055
39512W        W 1043  28.653   3.233   4.600
39513W        W 1044  41.520  29.458  12.937
39514W        W 1045  20.695  20.231   2.316
39515W        W 1046  10.319  23.676   4.259
39516W        W 1047  19.099  10.713  12.944
39517W        W 1048   0.289  16.093  13.854
39518W        W 1049   9.866   0.254  11.897
39519W        W 1050  12.740  22.706  13.912
39520W        W 1051  31.039  16.294   1.749
39521W        W 1052  27.527  13.169  12.374
39522W        W 1053  41.510  40.333   3.769
39523W        W 1054  21.138   5.301   0.927
39524W        W 1055  28.034  38.424  13.329
39525W        W 1056  24.003  12.165  11.436
39526W        W 1057  19.755  15.291  11.028
39527W        W 1058  42.349   3.720  14.460
39528W        W 1059   7.279  21.583  14.307
39529W        W 1060  29.991  44.923  13.983
39530W        W 1061  27.081  40.961  12.027
39531W        W 1062  42.805   8.219  13.432
39532W        W 1063  34.973  13.718   4.628
39533W        W 1064   3.801   7.390  12.934
39534W        W 1065  36.022  31.049  13.473
39535W        W 1066   6.235   7.230  14.769
39536W        W 1067  37.941  12.142   3.382
39537W        W 1068  40.430  10.275   1.748
39538W        W 1069  12.855   1.957   4.768
39539W        W 1070  32.980  35.424  14.442
39540W        W 1071   7.260  18.114  13.310
39541W        W 1072   0.795  20.033  11.557
39542W        W 1073  30.042  43.293   2.729
39543W        W 1074  17.694  28.457  13.326
39544W        W 1075   8.681   1.861  14.029
39545W        W 1076  19.228  21.574   0.317
39546W        W 1077   7.349  38.335   1.358
39547W        W 1078  27.594  31.586  13.456
39548W        W 1079   3.395  11.806  11.533
39549W        W 1080  33.939   7.341   3.794
39550W        W 1081   0.921  27.532  11.449
39551W        W 1082  36.494  14.625   0.763
39552W        W 1083  34.007   1.480  10.508
39553W        W 1084  32.496  35.918  13.876
39554W        W 1085  25.099   5.834   0.910
39555W        W 1086   2.801   2.332   1.845
39556W        W 1087   5.875  40.876   3.299
39557W        W 1088   6.336  27.969   1.406
39558W        W 1089   9.308  44.788   3.865
39559W        W 1090  30.594   3.217  13.937
39560W        W 1091  36.501  30.006  13.542
39561W        W 1092  18.120   5.924   1.280
39562W        W 1093   4.316  29.946   0.778
39563W        W 1094   5.264  42.502  12.874
39564W        W 1095  28.977  37.534  12.001
39565W        W 1096  22.527  13.255   2.686
39566W        W 1097  20.608  23.507  13.836
39567W        W 1098  38.988  18.709  11.976
39568W        W 1099   0.353  22.108   0.738
39569W        W 1100  44.475  14.731  11.922
39570W        W 1101  42.310  28.970  13.004
39571W        W 1102   9.329  28.561  13.826
39572W        W 1103  11.187  30.564   2.185
39573W        W 1104  25.536  30.527  13.936
39574W        W 1105  16.595  40.913  13.369
39575W        W 1106   6.394  21.220   1.837
39576W        W 1107  21.247  31.485   2.804
39577W        W 1108   2.837  24.140  10.608
39578W        W 1109  12.759  18.070   0.762
39579W        W 1110   8.266  13.683   2.783
39580W        W 1111  20.194   4.930  10.567
39581W        W 1112  34.378  34.429   3.259
39582W        W 1113  11.711  21.074  14.339
39583W        W 1114  34.022  10.865  12.001
39584W        W 1115  33.384  21.077   2.787
39585W        W 1116  28.027  27.585  10.144
39586W        W 1117  38.913  31.435   0.790
39587W        W 1118  12.646  20.562   1.719
39588W        W 1119  43.496  14.756   3.667
39589W        W 1120  28.585  22.597   2.731
39590W        W 1121   1.912  25.579  11.412
39591W        W 1122   9.283  11.244   2.251
39592W        W 1123   7.267  17.158  12.353
39593W        W 1124   3.270  21.122  13.456
39594W        W 1125  37.993  37.004  14.770
39595W        W 1126  38.557  17.133   3.672
39596W        W 1127  17.106  27.689  12.368
39597W        W 1128  30.055  19.153  14.959
39598W        W 1129  11.683   4.414   0.316
39599W        W 1130  35.054  12.728   4.726
39600W        W 1131  21.242  30.143  14.513
39601W        W 1132  16.264  32.964   1.879
39602W        W 1133  27.059  28.004  12.403
39603W        W 1134  12.689  28.045  14.819
39604W        W 1135  42.311   6.251   0.243
39605W        W 1136  15.276  13.124   4.763
39606W        W 1137  11.731  33.625  12.540
39607W        W 1138  37.877   0.314   1.220
39608W        W 1139   6.428  23.682  11.589
39609W        W 1140   0.904  34.000  14.769
39610W        W 1141  15.301   6.373   4.742
39611W        W 1142  38.543   3.346   1.367
39612W        W 1143  27.543   8.683  13.387
39613W        W 1144  13.299  24.070   3.852
39614W        W 1145  26.040  31.508  13.846
39615W        W 1146  33.064  25.014  14.826
39616W        W 1147   3.279  23.032  13.059
39617W        W 1148  37.361  33.613   1.396
39618W        W 1149  41.016  30.131   0.424
39619W        W 1150   4.815  42.812  11.530
39620W        W 1151  44.916   3.298  14.422
39621W        W 1152   0.902  12.178   0.831
39622W        W 1153   0.347   4.339  11.585
39623W        W 1154   0.801  33.957  14.282
39624W        W 1155  29.575  23.233   0.904
39625W        W 1156   6.413   7.291   9.955
39626W        W 1157  44.336  26.014   3.700
39627W        W 1158   8.870  12.265   2.849
39628W        W 1159  43.785   8.371   3.271
39629W        W 1160  26.987   9.334   9.566
39630W        W 1161  28.150   4.250  11.908
39631W        W 1162  27.970  13.674  11.923
39632W        W 1163   5.749  30.603   4.692
39633W        W 1164   5.235  29.158  12.824
39634W        W 1165   0.926  44.807   3.749
39635W        W 1166  25.986  41.947  11.590
39636W        W 1167   0.394  21.224   3.186
39637W        W 1168  42.283  17.709   3.678
39638W        W 1169  42.841  42.353   2.192
39639W        W 1170  29.503  12.675   3.319
39640W        W 1171  25.695  25.143   1.695
39641W        W 1172   0.839  28.087   0.914
39642W        W 1173  13.205   0.372   3.237
39643W        W 1174   1.810   1.401  12.940
39644W        W 1175  35.052   9.810   3.345
39645W        W 1176  28.500   5.221  13.542
39646W        W 1177  34.482  13.815   1.303
39647W        W 1178   5.336  10.256   0.844
39648W        W 1179  40.481   1.929  11.874
39649W        W 1180  13.198  40.532   0.295
39650W        W 1181  13.835  20.669   0.808
39651W        W 1182   7.836  12.250   2.202
39652W        W 1183  29.464   2.723   3.708
39653W        W 1184  38.958   6.799   4.262
39654W        W 1185   5.329  41.885   3.156
39655W        W 1186  24.662  37.506   3.848
39656W        W 1187  40.847  17.639   3.820
39657W        W 1188   0.362  11.635  12.009
39658W        W 1189   0.258  14.248   3.688
39659W        W 1190  15.148   6.419  14.005
39660W        W 1191  26.589   8.364   2.384
39661W        W 1192  21.553  41.841   4.117
39662W        W 1193  17.220  28.930  10.494
39663W        W 1194  36.883  15.790  11.926
39664W        W 1195  33.985   6.843   4.124
39665W        W 1196  43.447   5.834  14.382
39666W        W 1197   7.257  35.967  12.463
39667W        W 1198  28.039  37.404   0.428
39668W        W 1199  40.823   4.447  10.912
39669W        W 1200  11.290   8.275  10.514
39670W        W 1201  27.537  12.662   0.422
39671W        W 1202  11.165   2.360   0.784
39672W        W 1203   4.802  44.447   2.239
39673W        W 1204  21.127  13.786   2.776
39674W        W 1205  44.294   9.757   2.327
39675W        W 1206  44.352  20.656   1.754
39676W        W 1207  24.976  17.093   2.302
39677W        W 1208  43.959  30.055   4.825
39678W        W 1209  30.606  34.086   4.306
39679W        W 1210  20.746   6.775  12.545
39680W        W 1211   7.698  19.052   3.754
39681W        W 1212   8.378   0.769   1.405
39682W        W 1213  44.461  36.092  12.439
39683W        W 1214   2.799  13.607  13.835
39684W        W 1215  11.662   9.303   1.855
39685W        W 1216  40.306  37.365   4.276
39686W        W 1217  10.264  32.043   2.775
39687W        W 1218  24.184  32.501  11.104
39688W        W 1219  41.011  24.648   1.700
39689W        W 1220  27.979  44.489  13.815
39690W        W 1221  25.528  23.505   3.850
39691W        W 1222  11.205  36.847  13.983
39692W        W 1223  21.552  25.145   3.721
39693W        W 1224  10.285  26.092   3.758
39694W        W 1225  10.375   8.315   2.181
39695W        W 1226   4.864  35.928   2.414
39696W        W 1227  19.114  42.319  10.893
39697W        W 1228  43.290  32.133  11.454
39698W        W 1229  32.015  16.301   1.858
39699W        W 1230  38.415   8.189   9.485
39700W        W 1231   9.650  19.700  14.432
39701W        W 1232  15.282  19.559   0.876
39702W        W 1233  11.194  40.336  10.900
39703W        W 1234   0.448  43.920   4.759
39704W        W 1235  14.786  37.086   1.847
39705W        W 1236   0.934  13.654   3.820
39706W        W 1237  31.482  14.260  14.418
39707W        W 1238   7.705  17.687   1.386
39708W        W 1239   8.359  39.326   2.746
39709W        W 1240  32.955  23.215  11.025
39710W        W 1241  30.090  29.045   3.298
39711W        W 1242  21.639  24.675  10.527
39712W        W 1243  37.932  12.716   2.390
39713W        W 1244   1.385   7.412   2.324
39714W        W 1245  22.584  31.079   2.711
39715W        W 1246   5.797  36.057   4.219
39716W        W 1247   9.739  37.013   0.777
39717W        W 1248  23.697  30.006   2.274
39718W        W 1249  20.183  18.213   4.834
39719W        W 1250  25.563   8.770  10.057
39720W        W 1251   7.396  22.642   2.693
39721W        W 1252  39.815  28.446   3.183
39722W        W 1253  23.073  33.590  13.540
39723W        W 1254  32.967  33.989  12.910
39724W        W 1255   8.872   3.887  12.474
39725W        W 1256  21.544   1.749  14.357
39726W        W 1257  17.076  35.969   2.378
39727W        W 1258   0.950   6.411  10.499
39728W        W 1259  44.400  30.502  12.580
39729W        W 1260  31.899  10.702   4.163
39730W        W 1261  42.441  41.341   0.951
39731W        W 1262  19.584  21.682  13.411
39732W        W 1263  11.281   2.279   1.746
39733W        W 1264  17.091   8.881   2.783
39734W        W 1265   1.244   7.797   4.256
39735W        W 1266  44.449  33.533  14.800
39736W        W 1267  29.590  41.524  12.530
39737W        W 1268  22.608  17.083   2.320
39738W        W 1269  21.084  37.849  14.445
39739W        W 1270  14.653  32.118  10.614
39740W        W 1271  19.558   8.657  14.510
39741W        W 1272  40.529  19.086   4.694
39742W        W 1273   9.205  35.537   4.153
39743W        W 1274  26.123   6.383  13.380
39744W        W 1275  29.580  31.461   0.265
39745W        W 1276   3.290   2.301  14.444
39746W        W 1277  27.149   1.877  11.897
39747W        W 1278   7.195  15.682  12.899
39748W        W 1279   7.700  12.117   3.248
39749W        W 1280   3.769  19.193  13.310
39750W        W 1281  19.210  23.168   0.792
39751W        W 1282   3.363  37.875  13.940
39752W        W 1283  37.077   1.359   4.266
39753W        W 1284  12.783  42.401   4.752
39754W        W 1285  42.524  37.468  13.459
39755W        W 1286  13.330   7.729  14.349
39756W        W 1287  19.732  13.209   5.264
39757W        W 1288   7.366  27.965   0.799
39758W        W 1289  27.971   7.882   5.153
39759W        W 1290  21.207  36.053   1.736
39760W        W 1291  30.093  20.657   3.166
39761W        W 1292  42.304  39.491  11.070
39762W        W 1293  12.748  20.638   2.694
39763W        W 1294  38.901  38.464  14.317
39764W        W 1295  32.540   7.821   2.688
39765W        W 1296   3.808  13.275  11.598
39766W        W 1297   6.807  29.645  13.827
39767W        W 1298  42.478  36.550   4.158
39768W        W 1299  37.961  15.821   1.401
39769W        W 1300   4.450  29.639   0.393
39770W        W 1301   8.808  40.991   2.899
39771W        W 1302   9.822  10.270  12.377
39772W        W 1303  43.421   4.332   3.153
39773W        W 1304  35.978   1.317   3.659
39774W        W 1305  31.560   2.348   0.782
39775W        W 1306   7.840  15.092  10.568
39776W        W 1307  40.502  12.252   3.260
39777W        W 1308  11.179  39.956  12.069
39778W        W 1309  35.519  38.032   3.845
39779W        W 1310  32.478  25.026   2.712
39780W        W 1311  32.467  10.177  10.479
39781W        W 1312   9.661  27.539  12.349
39782W        W 1313   4.821  16.800   4.674
39783W        W 1314  18.234  39.353  13.039
39784W        W 1315  36.083  13.141  10.558
39785W        W 1316  11.328  24.666   3.268
39786W        W 1317  43.477   3.740  14.001
39787W        W 1318  21.744  19.657  12.031
39788W        W 1319  29.935  29.986  11.979
39789W        W 1320   3.755  11.256   0.870
39790W        W 1321  25.712  33.874   5.115
39791W        W 1322  17.732  44.370   0.410
39792W        W 1323  44.002  11.131   0.840
39793W        W 1324  25.190   9.171   0.861
39794W        W 1325  39.012  37.991   0.956
39795W        W 1326  29.940  42.303  14.923
39796W        W 1327  14.165  21.596  12.966
39797W        W 1328   8.801  10.758  14.996
39798W        W 1329  25.979   9.836   2.686
39799W        W 1330  17.657  11.161   2.877
39800W        W 1331  34.462  19.211  13.466
39801W        W 1332  43.382  22.541  10.439
39802W        W 1333  31.519  40.006  14.355
39803W        W 1334  43.999  30.487   1.271
39804W        W 1335  10.335  31.907  13.808
39805W        W 1336   5.364  18.760   1.298
39806W        W 1337  30.472  42.984  11.863
39807W        W 1338  43.773  17.259   0.876
39808W        W 1339   6.691  28.110  10.477
39809W        W 1340  19.138  41.867  13.497
39810W        W 1341  41.845   7.272   1.448
39811W        W 1342  12.296  15.290  10.888
39812W        W 1343   3.832  15.157   4.751
39813W        W 1344  23.513  22.125  14.403
39814W        W 1345   1.429  38.513   4.340
39815W        W 1346  19.213  26.113   1.284
39816W        W 1347  32.920  22.512   4.767
39817W        W 1348  29.474  44.945   2.691
39818W        W 1349  13.682  14.721  14.909
39819W        W 1350   2.460   4.257  12.354
39820W        W 1351   5.371  10.739   4.177
39821W        W 1352  39.540  40.966   2.404
39822W        W 1353   7.788  30.632   1.787
39823W        W 1354  41.933  21.663  10.558
39824W        W 1355   3.275   4.414   1.922
39825W        W 1356  25.520  21.180   2.195
39826W        W 1357   0.745  42.977   4.178
39827W        W 1358  33.575   3.257   4.647
39828W        W 1359  26.002   4.748   0.284
39829W        W 1360  39.903  16.172  12.426
39830W        W 1361  23.175   2.238   3.363
39831W        W 1362  33.030  37.544   2.886
39832W        W 1363   0.830  19.620  13.019
39833W        W 1364  35.397  25.166  11.967
39834W        W 1365   5.705  15.268   0.824
39835W        W 1366   1.819   6.358  12.069
39836W        W 1367  15.156  42.816   4.697
39837W        W 1368  37.472  26.561  14.994
39838W        W 1369  34.370  25.610   4.616
39839W        W 1370  15.693   6.268  10.586
39840W        W 1371  25.984  19.549  11.987
39841W        W 1372  28.142  24.505   0.895
39842W        W 1373  26.559   7.185  14.990
39843W        W 1374  39.431  29.526  14.452
39844W        W 1375  38.348  15.772  14.781
39845W        W 1376  10.643  10.142  11.071
39846W        W 1377  11.248  33.942  12.053
39847W        W 1378  29.558  39.431   0.959
39848W        W 1379  42.020  40.849  12.001
39849W        W 1380  30.943  19.537  14.919
39850W        W 1381  40.339  13.840   1.265
39851W        W 1382  18.169   5.406   4.151
39852W        W 1383  42.888  24.050  14.024
39853W        W 1384  24.984  16.775   1.265
39854W        W 1385   5.855  39.061  14.028
39855W        W 1386  27.051  15.822   4.226
39856W        W 1387   0.796  23.089  13.869
39857W        W 1388  36.919  43.798  13.902
39858W        W 1389  37.884  14.287  14.777
39859W        W 1390   2.801  16.722  13.382
39860W        W 1391   1.451  36.467  11.912
39861W        W 1392   0.748  38.339   0.803
39862W        W 1393   7.208  30.545  12.522
39863W        W 1394   7.692  14.299   1.904
39864W        W 1395  37.486  17.623   2.224
39865W        W 1396  29.517  32.392  11.877
39866W        W 1397  29.960  12.253   5.086
39867W        W 1398   1.316  42.461   3.716
39868W        W 1399  16.746  17.072  12.508
39869W        W 1400  24.179   0.322  11.493
39870W        W 1401  33.070   5.419  10.935
39871W        W 1402  29.090   3.420  12.416
39872W        W 1403  24.590   6.353   2.333
39873W        W 1404  10.268   2.441   1.828
39874W        W 1405  31.056  21.742   0.331
39875W        W 1406  25.041  42.007  14.888
39876W        W 1407  34.553  28.471   3.811
39877W        W 1408  25.122  12.253   2.864
39878W        W 1409  28.485  42.393   0.787
39879W        W 1410  16.087   3.897  14.789
39880W        W 1411  34.924  36.509  10.155
39881W        W 1412  43.469  44.851  11.028
39882W        W 1413  42.833  40.531  14.011
39883W        W 1414   0.354  26.686  14.022
39884W        W 1415  12.169  26.483  11.554
39885W        W 1416  31.968  11.842   1.792
39886W        W 1417  40.990  29.467  11.113
39887W        W 1418  19.144  10.811   2.336
39888W        W 1419  31.928   2.261   2.715
39889W        W 1420   0.294  20.115  12.951
39890W        W 1421   1.802  32.425  11.112
39891W        W 1422   7.673   1.371   0.464
39892W        W 1423  15.097   9.347  11.577
39893W        W 1424  24.678  43.782  13.387
39894W        W 1425  42.938  42.477   4.118
39895W        W 1426   3.817   8.381  13.436
39896W        W 1427  26.159   9.684   0.889
39897W        W 1428  26.021  15.314  12.500
39898W        W 1429  14.235  21.074   4.197
39899W        W 1430  31.590   7.193   3.369
39900W        W 1431  27.655   4.764   2.800
39901W        W 1432  37.512  21.041   3.154
39902W        W 1433  29.037   3.228   2.664
39903W        W 1434  42.877  15.116   3.641
39904W        W 1435  22.586  43.463  13.927
39905W        W 1436  22.146  42.845  12.843
39906W        W 1437  23.705  34.529  13.000
39907W        W 1438   3.866  20.090  11.865
39908W        W 1439  17.144  22.032   1.731
39909W        W 1440  24.664  16.167  13.308
39910W        W 1441   1.418  36.478   0.246
39911W        W 1442  41.036  11.320  12.458
39912W        W 1443   2.756  26.054   5.212
39913W        W 1444  39.559  17.102   1.447
39914W        W 1445   3.432  26.590   1.876
39915W        W 1446  29.515  28.030  10.520
39916W        W 1447  43.299  34.451  10.604
39917W        W 1448  27.601  27.492  12.891
39918W        W 1449  30.962  25.704  11.403
39919W        W 1450  34.053   6.372   2.774
39920W        W 1451  28.680  16.570  12.048
39921W        W 1452  16.700  34.935   4.824
39922W        W 1453  22.677  40.864   0.336
39923W        W 1454   0.945  15.186   4.711
39924W        W 1455  36.000  21.598  12.022
39925W        W 1456  10.298  23.733   1.262
39926W        W 1457  15.126  41.448   0.340
39927W        W 1458  25.055  35.102   4.775
39928W        W 1459  25.135  11.647  11.558
39929W        W 1460  12.811  17.783  11.017
39930W        W 1461  13.764  20.648   3.316
39931W        W 1462  14.184  30.583   0.883
39932W        W 1463   9.334  31.119  12.442
39933W        W 1464  12.679   0.756   2.181
39934W        W 1465  16.137  29.617   1.353
39935W        W 1466  41.460  39.356   2.343
39936W        W 1467  25.098  19.110   0.294
39937W        W 1468  24.640  33.390   1.853
39938W        W 1469  13.194  33.446  11.082
39939W        W 1470  39.808  18.701   3.861
39940W        W 1471  44.373   8.293  11.496
39941W        W 1472  33.128  11.720  12.432
39942W        W 1473  25.147  19.575  10.490
39943W        W 1474  40.981  26.459  13.389
39944W        W 1475   3.803  27.614   1.831
39945W        W 1476  25.077   4.211  14.475
39946W        W 1477  28.498  26.187  13.433
39947W        W 1478   9.260  38.969   1.216
39948W        W 1479  32.008  26.977  11.384
39949W        W 1480   6.833  19.752   1.239
39950W        W 1481  19.589   1.454   2.184
39951W        W 1482  24.091   5.236   2.766
39952W        W 1483  33.552  39.041   1.307
39953W        W 1484   1.870   0.861   5.092
39954W        W 1485  42.319  26.961  13.836
39955W        W 1486   9.770  14.755   0.268
39956W        W 1487   2.759  30.983   3.331
39957W        W 1488  44.954  23.043   2.738
39958W        W 1489   9.793   2.811  14.779
39959W        W 1490  39.386  38.414   2.681
39960W        W 1491   0.790   7.839  13.036
39961W        W 1492  14.732   2.448   2.836
39962W        W 1493   0.350  24.671   2.335
39963W        W 1494   7.288  24.226   1.706
39964W        W 1495  32.945  12.301   3.357
39965W        W 1496  11.306  37.086  12.504
39966W        W 1497  12.291  20.603  14.944
39967W        W 1498  12.713   5.314   4.229
39968W        W 1499  21.099   2.428  11.096
39969W        W 1500   1.809  22.117   0.738
39970W        W 1501   1.386  12.723   4.694
39971W        W 1502  34.490  19.043  14.309
39972W        W 1503  27.682  32.016   4.352
39973W        W 1504  20.121   7.386  10.456
39974W        W 1505  13.794  19.694  10.921
39975W        W 1506  32.122  26.631   1.752
39976W        W 1507   3.447  10.752  11.029
39977W        W 1508  11.724  23.085  12.349
39978W        W 1509  27.105  31.063  12.961
39979W        W 1510  18.273   7.701   3.790
39980W        W 1511   9.327  33.105  11.949
39981W        W 1512  31.531  30.657   1.760
39982W        W 1513  19.149  15.189   4.273
39983W        W 1514  42.908  37.570  12.469
39984W        W 1515  39.830  44.460  10.606
39985W        W 1516  19.746  18.732  12.421
39986W        W 1517  18.295   0.873   4.166
39987W        W 1518  26.168  43.302  14.831
39988W        W 1519   4.896  35.402   3.161
39989W        W 1520  39.065  37.352   2.682
39990W        W 1521   3.956  15.624  13.545
39991W        W 1522  23.011  20.525  14.365
39992W        W 1523  24.682  24.563  12.881
39993W        W 1524  30.505  20.559   1.325
39994W        W 1525  35.358  16.695   3.735
39995W        W 1526  21.044  15.125   3.334
39996W        W 1527  11.182  19.059  13.357
39997W        W 1528  42.012  11.299   0.941
39998W        W 1529   9.818  18.668   4.790
39999W        W 1530  15.264  17.609   3.650
40000W        W 1531  40.377  11.857   2.220
40001W        W 1532  38.462  35.931   2.403
40002W        W 1533   9.388   0.439   3.351
40003W        W 1534   1.253  21.718  14.932
40004W        W 1535   6.902  42.846   3.258
40005W        W 1536  14.202   8.828  13.451
40006W        W 1537  18.594  15.612  12.828
40007W        W 1538   7.331  43.440  11.022
40008W        W 1539  24.089   9.189   4.743
40009W        W 1540  26.545  16.079   2.892
40010W        W 1541  41.853   5.805  11.011
40011W        W 1542  13.287  37.969   0.925
40012W        W 1543  13.298   5.809  12.439
40013W        W 1544  42.510  38.872   0.869
40014W        W 1545   3.719  34.527   0.931
40015W        W 1546  13.655  28.677  10.068
40016W        W 1547  17.801  35.599  13.832
40017W        W 1548  21.211  33.072  11.474
40018W        W 1549  11.219  43.475   0.385
40019W        W 1550  30.607  31.615  12.577
40020W        W 1551  44.356  32.933   2.185
40021W        W 1552  18.721  30.413   1.249
40022W        W 1553  41.931  31.922  11.488
40023W        W 1554   3.917  27.502   2.327
40024W        W 1555  37.545  24.623   1.431
40025W        W 1556  42.294  13.613   0.302
40026W        W 1557  31.935  26.486  13.833
40027W        W 1558  36.463  21.254   0.944
40028W        W 1559  38.928  11.218   4.716
40029W        W 1560   9.790   2.390   2.379
40030W        W 1561   0.342  21.029  13.368
40031W        W 1562  37.360   8.218   9.989
40032W        W 1563   0.977   1.849   2.391
40033W        W 1564  39.961  11.363  11.552
40034W        W 1565   8.767  28.163   1.849
40035W        W 1566  32.613  39.360   1.264
40036W        W 1567  19.229  25.571  13.385
40037W        W 1568  36.918  33.034  11.120
40038W        W 1569  10.369  38.019   1.858
40039W        W 1570  24.544  21.573  14.410
40040W        W 1571  24.676   4.727   0.318
40041W        W 1572  18.227  25.213   0.300
40042W        W 1573   2.776  18.282   3.321
40043W        W 1574  27.097  44.400   2.179
40044W        W 1575   3.855   0.800  11.092
40045W        W 1576  38.499  36.880   1.246
40046W        W 1577  29.934  44.975   1.224
40047W        W 1578  16.164  20.687  13.368
40048W        W 1579  26.511  31.511  14.009
40049W        W 1580  22.024  18.753   4.276
40050W        W 1581  27.021  17.799  11.415
40051W        W 1582  32.412  35.542  11.560
40052W        W 1583  35.580  26.074   1.444
40053W        W 1584   2.241   5.800  13.547
40054W        W 1585   5.435  38.358   1.300
40055W        W 1586   1.257  23.561   0.938
40056W        W 1587  28.635  18.153  10.545
40057W        W 1588  36.547  25.652  13.045
40058W        W 1589  12.789  35.021   0.730
40059W        W 1590  43.965  15.789   0.329
40060W        W 1591  18.639  13.640   0.811
40061W        W 1592  35.393  14.256   3.766
40062W        W 1593  39.025  32.912   1.801
40063W        W 1594  25.650  13.745  13.501
40064W        W 1595  35.897  13.319   9.969
40065W        W 1596  29.982   1.737   3.697
40066W        W 1597  16.296  16.233   3.286
40067W        W 1598  34.432   9.166   3.696
40068W        W 1599   8.274  38.043  10.535
40069W        W 1600  22.166  20.145   4.710
40070W        W 1601  36.452  27.058   0.964
40071W        W 1602  29.453  25.549  10.641
40072W        W 1603  38.511  24.085   3.283
40073W        W 1604  36.043  11.248  12.421
40074W        W 1605  17.248  44.895   3.747
40075W        W 1606  40.840  44.859  11.986
40076W        W 1607  36.059  25.066  14.277
40077W        W 1608   0.364   7.744  12.394
40078W        W 1609  37.980  32.577  13.509
40079W        W 1610   7.832  35.883   4.691
40080W        W 1611   3.259   1.407  14.921
40081W        W 1612   5.336  24.134  11.924
40082W        W 1613  14.818   4.387  12.382
40083W        W 1614  36.553  34.606   3.786
40084W        W 1615  35.480  11.748   0.825
40085W        W 1616  43.922  39.939   1.765
40086W        W 1617  19.039  15.668  13.307
40087W        W 1618   3.820  21.201  12.532
40088W        W 1619  35.100  11.625   4.822
40089W        W 1620   8.179   9.366   4.734
40090W        W 1621  34.912  21.254   9.938
40091W        W 1622  12.165  16.102  12.891
40092W        W 1623  19.659  20.617  10.582
40093W        W 1624  28.940   8.349   3.274
40094W        W 1625   8.173  19.678  12.394
40095W        W 1626  36.551  43.394   4.663
40096W        W 1627  19.224  32.627  10.890
40097W        W 1628  11.656  42.903   1.821
40098W        W 1629  39.510  44.840  12.060
40099W        W 1630  22.177  37.569  11.575
40100W        W 1631   9.333   9.736   2.187
40101W        W 1632  15.599  31.608   1.280
40102W        W 1633  40.367  39.492  12.965
40103W        W 1634   3.330  44.938   3.762
40104W        W 1635  44.322  41.960  11.585
40105W        W 1636  14.189  39.841   3.242
40106W        W 1637  27.685  31.127   0.423
40107W        W 1638  16.756  28.143  11.514
40108W        W 1639  23.036  43.998  10.924
40109W        W 1640  30.548  31.528   4.681
40110W        W 1641  22.161  25.693   0.789
40111W        W 1642  30.536   5.211   1.805
40112W        W 1643  10.633  37.364  14.784
40113W        W 1644  39.518  36.442   1.926
40114W        W 1645   3.779   6.713  10.561
40115W        W 1646  23.633  42.497   1.828
40116W        W 1647  39.501   5.841   4.315
40117W        W 1648  22.732  21.142   1.894
40118W        W 1649  42.520  32.582  10.908
40119W        W 1650  11.318  28.012  10.455
40120W        W 1651  39.036  30.448  13.845
40121W        W 1652  42.976   5.305  12.456
40122W        W 1653  38.978   4.296  12.563
40123W        W 1654  42.850  40.970   3.255
40124W        W 1655  26.628  23.211   0.292
40125W        W 1656  44.875   9.249   1.905
40126W        W 1657  24.656  32.593   9.631
40127W        W 1658   5.718  18.670  14.324
40128W        W 1659  28.657   0.449  14.435
40129W        W 1660  19.087   6.243  12.837
40130W        W 1661   2.744  26.551  13.322
40131W        W 1662  14.196  18.238  13.419
40132W        W 1663  24.122  27.461  14.838
40133W        W 1664  10.778  21.047   1.785
40134W        W 1665  26.157  20.544  10.476
40135W        W 1666  44.769  16.076  11.490
40136W        W 1667   1.257  13.291  13.417
40137W        W 1668  23.552  11.195   3.787
40138W        W 1669  20.587  44.937   4.720
40139W        W 1670   8.238   9.312  10.467
40140W        W 1671  21.061  11.250  11.002
40141W        W 1672  42.466  18.077   2.705
40142W        W 1673  12.214  30.111   2.372
40143W        W 1674  42.028  40.331  10.423
40144W        W 1675  11.754  11.324  13.958
40145W        W 1676  17.574   5.782  10.601
40146W        W 1677  32.031  15.111  14.000
40147W        W 1678  28.498  37.368   1.265
40148W        W 1679   6.224  20.523   0.244
40149W        W 1680  31.906   3.868   1.217
40150W        W 1681  23.676  14.684  13.803
40151W        W 1682   0.890  39.903   9.963
40152W        W 1683  26.060   4.715   1.732
40153W        W 1684  39.380  30.505   2.218
40154W        W 1685  37.050  42.895   1.784
40155W        W 1686   9.767  19.659   0.950
40156W        W 1687  24.227  23.118   4.167
40157W        W 1688  10.698  42.499   3.857
40158W        W 1689  17.699  26.093   5.226
40159W        W 1690   2.254  13.263   1.870
40160W        W 1691  21.707  26.151   0.277
40161W        W 1692  31.073  24.227  14.787
40162W        W 1693  10.748  22.111  13.410
40163W        W 1694  33.537   7.769   1.800
40164W        W 1695   8.277  42.813   2.902
40165W        W 1696  31.117  39.486  10.906
40166W        W 1697  35.895  42.360   4.830
40167W        W 1698   4.840  27.459   1.210
40168W        W 1699  12.676  18.622  11.589
40169W        W 1700   8.686  38.993  12.951
40170W        W 1701  42.469   5.715   1.834
40171W        W 1702  37.468  29.431  13.485
40172W        W 1703   2.859   0.987   1.782
40173W        W 1704  40.511  17.254   4.625
40174W        W 1705  28.128  29.610  10.432
40175W        W 1706  29.585   1.298  14.859
40176W        W 1707  33.013  35.411   3.800
40177W        W 1708   0.468  24.188   3.340
40178W        W 1709  19.040  12.341   1.391
40179W        W 1710   3.384  32.922  14.336
40180W        W 1711  19.140   3.451  13.460
40181W        W 1712  27.595   3.773   4.240
40182W        W 1713  37.533  33.073  10.950
40183W        W 1714   2.798  35.069  14.983
40184W        W 1715   3.289  16.586  12.903
40185W        W 1716  39.930  44.279   4.786
40186W        W 1717   0.460  13.761   0.358
40187W        W 1718  10.372  43.844  12.883
40188W        W 1719  21.685   4.330   4.644
40189W        W 1720  31.443   8.365  12.478
40190W        W 1721   8.846  44.358   3.348
40191W        W 1722  21.599  21.198  13.020
40192W        W 1723  42.408  14.694  13.840
40193W        W 1724  13.756  25.689   2.418
40194W        W 1725  27.667  10.227   0.462
40195W        W 1726   9.806  17.241  13.370
40196W        W 1727  44.358  38.020   3.798
40197W        W 1728  39.057  39.887   1.339
40198W        W 1729   7.677   6.328   3.783
40199W        W 1730  25.085   5.758   2.334
40200W        W 1731  17.582  37.444   3.703
40201W        W 1732  36.573  27.042   1.720
40202W        W 1733  31.939  38.349  11.570
40203W        W 1734  34.470   9.366   0.252
40204W        W 1735  41.295  20.267   2.375
40205W        W 1736  44.404   6.338   2.302
40206W        W 1737   0.412  35.051  11.430
40207W        W 1738  30.093   4.223  14.505
40208W        W 1739  25.600  37.941   0.391
40209W        W 1740  29.979  16.110   4.643
40210W        W 1741  32.407  19.627   1.432
40211W        W 1742  14.794  31.456   0.770
40212W        W 1743  14.279  25.517  13.339
40213W        W 1744  15.162  32.506   4.131
40214W        W 1745  24.496  12.285   4.306
40215W        W 1746  43.775  35.534  13.518
40216W        W 1747  13.141   1.345  13.046
40217W        W 1748  33.510  31.522  11.984
40218W        W 1749  11.334  28.490   3.276
40219W        W 1750  15.094  20.754  12.533
40220W        W 1751  38.990  31.000   3.235
40221W        W 1752   8.231  41.847   3.369
40222W        W 1753  18.050  35.079   2.392
40223W        W 1754  29.149  37.372   0.892
40224W        W 1755  23.713  34.413   2.748
40225W        W 1756   3.875  12.148   1.924
40226W        W 1757  34.030  34.896  14.873
40227W        W 1758   0.942  20.601  10.896
40228W        W 1759  25.480  29.996   1.833
40229W        W 1760  42.948  39.011  14.979
40230W        W 1761   2.801  38.070   2.409
40231W        W 1762  21.036   5.360  12.033
40232W        W 1763  30.651  24.676   1.926
40233W        W 1764  26.094  10.846  12.834
40234W        W 1765  39.867   1.927   0.288
40235W        W 1766  24.627  42.937   4.168
40236W        W 1767  20.690  25.968   0.293
40237W        W 1768  23.080  20.078  12.991
40238W        W 1769   1.368  32.904  11.053
40239W        W 1770   2.733  14.778  13.499
40240W        W 1771   0.488  22.224   2.851
40241W        W 1772   4.248   5.717  11.036
40242W        W 1773  14.640  15.313  13.495
40243W        W 1774   3.777  26.105   0.323
40244W        W 1775  35.090  39.879  12.359
40245W        W 1776   6.876  39.927  12.996
40246W        W 1777  37.355  29.535  12.474
40247W        W 1778  31.969   2.437   3.725
40248W        W 1779   6.375  21.517  13.042
40249W        W 1780  20.562  22.051  11.925
40250W        W 1781  21.709   6.409  12.546
40251W        W 1782  36.977  44.406   3.146
40252W        W 1783  29.029   3.260   1.744
40253W        W 1784  44.305  43.402  13.524
40254W        W 1785   9.828  43.419  14.878
40255W        W 1786   9.232   9.773  14.324
40256W        W 1787  43.875  29.023  12.367
40257W        W 1788  42.349  27.055  13.399
40258W        W 1789  43.378  38.920   3.148
40259W        W 1790  34.434  38.922  14.801
40260W        W 1791  28.570  35.859  14.766
40261W        W 1792  12.360  24.508  11.439
40262W        W 1793  41.488  30.546   2.278
40263W        W 1794  40.362  37.397   4.735
40264W        W 1795  28.485  21.524  13.481
40265W        W 1796  32.907  41.034  10.064
40266W        W 1797  22.181  41.842   0.898
40267W        W 1798  30.035  34.464   0.292
40268W        W 1799  43.510  42.943  14.857
40269W        W 1800  41.462  10.863  13.818
40270W        W 1801  35.579  42.020  12.005
40271W        W 1802  41.972  25.997  12.560
40272W        W 1803  26.104  21.084  13.523
40273W        W 1804   3.314  12.143   2.734
40274W        W 1805   1.958   0.472   0.399
40275W        W 1806   1.910   9.824   3.373
40276W        W 1807  23.070   4.841   3.286
40277W        W 1808  31.080  31.963  14.403
40278W        W 1809   6.770  24.542   1.379
40279W        W 1810   3.353   8.862  12.430
40280W        W 1811  15.119  17.145  12.376
40281W        W 1812   8.801  12.747  12.390
40282W        W 1813  33.383  27.514   3.290
40283W        W 1814   5.436  43.444   1.422
40284W        W 1815   5.231   2.452   1.713
40285W        W 1816  22.707   2.327   0.937
40286W        W 1817  12.827  14.623  13.330
40287W        W 1818  39.827  17.144   4.801
40288W        W 1819  12.711  33.955  12.511
40289W        W 1820  11.624  26.077  11.954
40290W        W 1821  33.940  17.070   2.361
40291W        W 1822   7.903  19.692  11.464
40292W        W 1823  41.024  18.650  13.530
40293W        W 1824  28.040   7.377  12.050
40294W        W 1825   8.401  23.103  13.444
40295W        W 1826  19.724  44.498  14.821
40296W        W 1827  25.214  44.377  13.362
40297W        W 1828  22.221  22.251  13.924
40298W        W 1829   7.225  29.600  11.993
40299W        W 1830  22.500   5.209   2.860
40300W        W 1831  21.695  28.159   3.343
40301W        W 1832  42.312  21.590   0.244
40302W        W 1833  43.777  27.613  11.544
40303W        W 1834  12.228  39.507  10.957
40304W        W 1835  18.068  33.500   0.942
40305W        W 1836   2.902  12.246  11.967
40306W        W 1837  24.051   4.792  10.440
40307W        W 1838  32.142  16.777   3.853
40308W        W 1839  38.492  23.077  11.019
40309W        W 1840  28.929  19.759  14.779
40310W        W 1841  26.120  43.391   3.172
40311W        W 1842   6.717  43.771   3.654
40312W        W 1843  40.839  38.897  13.058
40313W        W 1844  34.462  43.936   0.826
40314W        W 1845  17.780   5.693   4.142
40315W        W 1846  39.435  18.767   4.777
40316W        W 1847  29.924   4.944   1.385
40317W        W 1848  38.824  17.725  13.928
40318W        W 1849  22.195  41.920   9.934
40319W        W 1850  43.004  43.912   1.748
40320W        W 1851   7.819  39.948  10.494
40321W        W 1852   1.937  19.628   3.840
40322W        W 1853  38.072  15.121  14.902
40323W        W 1854  18.100  17.230   2.854
40324W        W 1855  21.601   6.423   3.329
40325W        W 1856  22.545  22.025   1.825
40326W        W 1857  23.526  33.563  13.005
40327W        W 1858  11.318   6.298   2.819
40328W        W 1859  44.820   1.242   4.122
40329W        W 1860  37.460  35.540   4.124
40330W        W 1861  30.523  13.142   0.744
40331W        W 1862  16.750  30.078  14.025
40332W        W 1863  35.417  35.508  12.544
40333W        W 1864  19.623  44.360   3.826
40334W        W 1865  24.690   6.305   0.291
40335W        W 1866  22.118  17.196  10.415
40336W        W 1867  26.157  28.436  13.897
40337W        W 1868  23.664  19.179   2.365
40338W        W 1869  37.408   7.824   0.901
40339W        W 1870  41.988  39.045   0.762
40340W        W 1871   3.726  41.802  11.086
40341W        W 1872  34.947  21.741  11.110
40342W        W 1873  28.625  24.651  12.966
40343W        W 1874  24.180   6.822   1.240
40344W        W 1875  28.533  31.985   1.317
40345W        W 1876  15.151  39.954  13.003
40346W        W 1877  13.680   6.415   0.470
40347W        W 1878  36.538   0.254   1.249
40348W        W 1879   0.803   9.256   3.794
40349W        W 1880   8.737  19.270   1.801
40350W        W 1881  41.941  26.106   2.332
40351W        W 1882  38.382  14.801  12.449
40352W        W 1883  11.364  19.158   4.768
40353W        W 1884   0.340  40.028   0.825
40354W        W 1885   5.310   3.443  13.502
40355W        W 1886  14.138   4.866  13.847
40356W        W 1887  21.754  20.522   1.235
40357W        W 1888  28.476   6.264  10.002
40358W        W 1889  38.513  19.576   1.818
40359W        W 1890  13.237  25.199   4.788
40360W        W 1891  42.410  17.177   1.695
40361W        W 1892  44.862  32.494  14.954
40362W        W 1893  24.985  38.937  14.926
40363W        W 1894  26.155   6.898  12.526
40364W        W 1895   3.370   6.413   1.733
40365W        W 1896  11.677  43.971  11.414
40366W        W 1897   5.320  11.317  10.906
40367W        W 1898  18.265  21.676  14.502
40368W        W 1899  31.988  14.593  12.894
40369W        W 1900  38.064   3.806   3.769
40370W        W 1901  31.971  32.454  12.353
40371W        W 1902   0.417  17.789   0.932
40372W        W 1903   0.455   5.194   3.372
40373W        W 1904  28.627   2.966   1.358
40374W        W 1905  36.409   3.940  10.614
40375W        W 1906  24.514  15.299   4.683
40376W        W 1907  29.657   5.379  14.831
40377W        W 1908  12.333  14.223  12.089
40378W        W 1909  43.797   2.816  14.030
40379W        W 1910  31.016  12.328   4.754
40380W        W 1911  17.139  29.938  14.326
40381W        W 1912   4.916  14.754  12.854
40382W        W 1913  36.526  23.703  13.830
40383W        W 1914  19.712  17.105   1.420
40384W        W 1915  37.513  20.039   1.731
40385W        W 1916  28.037  19.695   0.832
40386W        W 1917  14.614   7.750  14.452
40387W        W 1918   6.903   2.890   1.247
40388W        W 1919  29.668  22.554   4.265
40389W        W 1920  23.531  21.612   4.319
40390W        W 1921   0.811   0.848  10.977
40391W        W 1922  14.148   1.902   0.747
40392W        W 1923  39.348  41.893  13.044
40393W        W 1924  34.427  41.908  11.889
40394W        W 1925  26.555  39.495  11.908
40395W        W 1926   0.849  38.904  11.910
40396W        W 1927  30.931  42.833   0.362
40397W        W 1928  37.383  26.190   3.383
40398W        W 1929  42.296  30.930   0.306
40399W        W 1930  13.176  30.987   4.204
40400W        W 1931  11.186  44.268  12.438
40401W        W 1932  28.980  11.799  13.457
40402W        W 1933  15.212  19.212  14.028
40403W        W 1934  22.161  11.260   0.853
40404W        W 1935  34.584  32.637  12.480
40405W        W 1936  12.745   5.316  14.908
40406W        W 1937  41.989   0.482  10.446
40407W        W 1938  42.940  12.308   4.232
40408W        W 1939  36.853  43.366  13.467
40409W        W 1940   6.843  25.535   1.318
40410W        W 1941  22.647  23.517  11.109
40411W        W 1942  26.059  37.865  10.888
40412W        W 1943  10.333   6.372   2.667
40413W        W 1944   9.801  11.630   0.868
40414W        W 1945  15.256  33.426   0.321
40415W        W 1946   8.668  31.917  11.439
40416W        W 1947  28.058   1.368  11.473
40417W        W 1948  28.532   3.418   3.362
40418W        W 1949  15.315  43.483  13.904
40419W        W 1950  44.425   3.248   2.670
40420W        W 1951  11.684  24.995   1.353
40421W        W 1952   6.791  15.278   4.821
40422W        W 1953   1.238  23.224  12.936
40423W        W 1954  24.617  28.447   1.714
40424W        W 1955  13.723  43.359  14.785
40425W        W 1956  42.801  14.615   2.375
40426W        W 1957  36.414   4.906   2.405
40427W        W 1958  11.351  16.173   1.349
40428W        W 1959  31.631  14.142  12.997
40429W        W 1960  37.540  33.889   1.769
40430W        W 1961  44.383   8.353  12.532
40431W        W 1962  39.977  16.160   4.196
40432W        W 1963  13.655   9.315  13.845
40433W        W 1964  14.200  16.590   1.714
40434W        W 1965  34.538  28.121  13.435
40435W        W 1966  39.373  20.081   4.825
40436W        W 1967  44.384  28.596   2.826
40437W        W 1968  20.633   6.789  13.439
40438W        W 1969  32.457  36.512  12.561
40439W        W 1970   2.722  35.045   2.371
40440W        W 1971  18.131  41.402  14.326
40441W        W 1972  40.461  26.677  11.063
40442W        W 1973  19.263   1.351  11.549
40443W        W 1974   8.733   2.891   2.812
40444W        W 1975  22.157  10.371   1.831
40445W        W 1976   5.226  23.235  13.383
40446W        W 1977  11.191  11.710   1.251
40447W        W 1978  15.794  30.503  14.852
40448W        W 1979  44.837  19.205   4.713
40449W        W 1980  32.571  42.493  13.998
40450W        W 1981  38.361  29.657  14.449
40451W        W 1982  31.043   3.788  13.018
40452W        W 1983  24.974  16.719   1.744
40453W        W 1984  34.374  42.483   0.803
40454W        W 1985  30.985  14.768   2.231
40455W        W 1986   9.354  28.510  11.021
40456W        W 1987  12.219  26.594   2.277
40457W        W 1988  13.817  13.136   2.851
40458W        W 1989  23.200  37.041  11.913
40459W        W 1990   7.682  30.942  10.999
40460W        W 1991  11.245  30.436   3.163
40461W        W 1992  36.886  16.670   4.343
40462W        W 1993   3.731  10.272   1.723
40463W        W 1994  30.096  31.091   2.373
40464W        W 1995   5.711   8.662  13.998
40465W        W 1996  13.274  31.898   1.844
40466W        W 1997  23.697  13.326   2.856
40467W        W 1998   7.369  33.976  13.022
40468W        W 1999  15.313  33.541   0.869
40469W        W 2000   0.775  24.712   0.278
40470W        W 2001  23.024  10.798  13.325
40471W        W 2002  29.516  15.623   9.979
40472W        W 2003  14.720  37.373  13.886
40473W        W 2004   6.865  37.488  12.020
40474W        W 2005  18.221  26.124   1.320
40475W        W 2006  27.529  25.502   1.834
40476W        W 2007  35.413   3.783   0.297
40477W        W 2008  10.658  29.619  13.317
40478W        W 2009  32.476   5.744  10.494
40479W        W 2010  32.493  19.232   2.891
40480W        W 2011  21.242  13.745  13.030
40481W        W 2012   1.953   1.834  11.389
40482W        W 2013  18.544   9.309  13.317
40483W        W 2014  43.450  35.463  14.925
40484W        W 2015  15.240  35.409  11.574
40485W        W 2016   0.766   6.258  10.945
40486W        W 2017  21.255  14.780   3.806
40487W        W 2018  34.584  27.950  14.310
40488W        W 2019  18.176  41.469  14.983
40489W        W 2020  42.785  28.033  14.988
40490W        W 2021  25.516  32.061   0.749
40491W        W 2022  39.933   5.916  14.994
40492W        W 2023  15.753  15.166   2.184
40493W        W 2024  22.514  14.175   3.864
40494W        W 2025  33.020  14.588   0.756
40495W        W 2026   7.807  41.297   4.631
40496W        W 2027  33.425  41.491   9.955
40497W        W 2028  17.798   9.179   2.725
40498W        W 2029  32.965  24.527  13.042
40499W        W 2030  29.970  22.233   1.757
40500W        W 2031  17.782  34.053   4.340
40501W        W 2032  33.924   2.890   0.933
40502W        W 2033   2.379  44.475   0.727
40503W        W 2034   4.729   5.275   5.250
40504W        W 2035  21.077  30.631   3.777
40505W        W 2036  37.057  14.723   2.840
40506W        W 2037  40.480  34.118   0.792
40507W        W 2038   6.238  14.632  13.794
40508W        W 2039  11.352   8.748  12.505
40509W        W 2040  25.966  10.678  10.605
40510W        W 2041   5.697  43.811   0.870
40511W        W 2042  24.616  24.223  12.885
40512W        W 2043   7.864  12.748   3.281
40513W        W 2044   4.788  26.088  14.373
40514W        W 2045   2.872  37.966   0.953
40515W        W 2046  32.104  42.501  13.371
40516W        W 2047   1.277   9.743  11.003
40517W        W 2048  40.887  29.653  12.001
40518W        W 2049  28.028  20.525  12.907
40519W        W 2050   0.432   7.396  13.938
40520W        W 2051  28.536  32.977   2.872
40521W        W 2052   3.245  36.954  14.317
40522W        W 2053  34.035  18.105  14.872
40523W        W 2054   7.280  24.587   1.822
40524W        W 2055  23.096  29.093   1.781
40525W        W 2056   3.901  27.451   3.148
40526W        W 2057  10.669  14.698   2.776
40527W        W 2058  39.882  38.852   2.196
40528W        W 2059  38.071  18.195   4.149
40529W        W 2060  35.450  30.048   2.795
40530W        W 2061  26.548   3.283  10.078
40531W        W 2062  33.509   2.858  11.421
40532W        W 2063   7.252  37.001   2.191
40533W        W 2064  13.635  28.607  14.020
40534W        W 2065  19.737  37.925   0.903
40535W        W 2066  31.037  17.632  14.328
40536W        W 2067  14.824  28.560   0.266
40537W        W 2068  29.544  16.141  13.386
40538W        W 2069  13.785  33.480  14.474
40539W        W 2070  36.361  28.616  13.922
40540W        W 2071  38.998  40.007  13.983
40541W        W 2072  17.178  10.656   3.728
40542W        W 2073  31.906  40.415  11.000
40543W        W 2074  39.428  17.781  12.507
40544W        W 2075  37.351   9.712   2.744
40545W        W 2076   2.380  14.782   2.301
40546W        W 2077   7.293  33.084  12.517
40547W        W 2078  33.450  42.998   4.327
40548W        W 2079  38.914  37.984  14.425
40549W        W 2080  40.987   7.816   4.350
40550W        W 2081   3.803  33.621  14.311
40551W        W 2082   1.398  17.305   0.842
40552W        W 2083  20.199   5.933   0.768
40553W        W 2084   6.698  14.297  14.287
40554W        W 2085  23.010  44.864  12.911
40555W        W 2086   2.810  29.173  14.421
40556W        W 2087   0.879  39.878   4.643
40557W        W 2088  33.574  30.936  14.394
40558W        W 2089  23.536   9.274   3.710
40559W        W 2090   5.879  18.055   0.460
40560W        W 2091   6.895  29.013  12.845
40561W        W 2092  28.087  25.659   4.312
40562W        W 2093  25.002  27.635  11.882
40563W        W 2094   1.805  36.559  11.537
40564W        W 2095  35.394  33.061  11.904
40565W        W 2096  28.581  34.037  11.963
40566W        W 2097   0.775  17.130   4.151
40567W        W 2098  41.876  26.173   1.367
40568W        W 2099  10.772  21.685  13.367
40569W        W 2100  40.939   1.799   3.858
40570W        W 2101  16.305  41.511   0.741
40571W        W 2102  16.193   1.410  14.332
40572W        W 2103  15.775   1.967  12.094
40573W        W 2104  20.039   1.868   4.175
40574W        W 2105  37.051  39.509  12.881
40575W        W 2106  14.313  25.963  11.103
40576W        W 2107  17.739  13.622  11.583
40577W        W 2108  19.765  12.243   2.860
40578W        W 2109  36.433  21.551   2.732
40579W        W 2110  27.194  19.667  10.965
40580W        W 2111  32.955   3.815   3.314
40581W        W 2112  42.987   4.402  13.891
40582W        W 2113  29.451  29.993  11.506
40583W        W 2114  27.972   9.845   0.407
40584W        W 2115   5.844  14.191   3.348
40585W        W 2116  11.237  34.599  12.969
40586W        W 2117  31.127   8.317   0.878
40587W        W 2118  41.478  10.672   4.767
40588W        W 2119  34.086  19.648   1.697
40589W        W 2120  43.881  25.686  10.925
40590W        W 2121  19.125   0.926   2.201
40591W        W 2122  11.208  14.598  12.917
40592W        W 2123   5.435  11.810   3.743
40593W        W 2124   0.297   6.325   3.310
40594W        W 2125  27.073   2.244  13.346
40595W        W 2126  30.567   7.206  13.502
40596W        W 2127  32.429  21.745   2.283
40597W        W 2128  25.502  13.758  12.995
40598W        W 2129   4.224  44.485   4.749
40599W        W 2130  24.565  39.816  14.464
40600W        W 2131  15.259  10.307  13.344
40601W        W 2132  10.276  19.112  12.850
40602W        W 2133  27.946  20.081   2.249
40603W        W 2134   7.753  36.380  10.940
40604W        W 2135  42.497  13.837   4.713
40605W        W 2136  23.519   0.884  13.449
40606W        W 2137  28.173  11.210   4.602
40607W        W 2138  14.815  29.081  14.404
40608W        W 2139  39.426  18.582  12.067
40609W        W 2140  21.099  38.560  12.448
40610W        W 2141  10.702  14.251  11.372
40611W        W 2142   5.902  21.538   0.776
40612W        W 2143  25.022  41.975   0.828
40613W        W 2144   4.436  26.506  11.581
40614W        W 2145  33.616   3.881   1.224
40615W        W 2146  21.743  31.473  13.996
40616W        W 2147  25.698  41.431  11.591
40617W        W 2148   2.301  13.336   1.401
40618W        W 2149  31.901  18.586  11.464
40619W        W 2150  25.518  28.663  13.892
40620W        W 2151  41.936  40.514   4.728
40621W        W 2152  23.507  14.323   0.854
40622W        W 2153   4.918  11.157   1.757
40623W        W 2154  37.892  14.796  11.450
40624W        W 2155  33.591   4.224   1.355
40625W        W 2156  34.034  15.225   2.690
40626W        W 2157  28.591  37.576  10.979
40627W        W 2158  21.133  24.606  11.011
40628W        W 2159   4.863  34.968   0.787
40629W        W 2160  42.828  37.946  12.943
40630W        W 2161  10.185   4.260   4.774
40631W        W 2162   0.484  34.486  13.327
40632W        W 2163  38.482  39.398   2.699
40633W        W 2164  44.438  32.067   2.809
40634W        W 2165   6.401  41.835   1.311
40635W        W 2166  21.252   7.851   2.831
40636W        W 2167  24.079  33.087  12.906
40637W        W 2168  11.660  27.176   0.957
40638W        W 2169  19.082  25.042   3.281
40639W        W 2170  33.096   4.938   1.822
40640W        W 2171   2.877  42.479   4.203
40641W        W 2172  28.086  29.606   1.315
40642W        W 2173  18.114   3.414  14.953
40643W        W 2174  39.027  12.197   3.238
40644W        W 2175  16.264   5.260   3.282
40645W        W 2176  37.967  33.121  11.014
40646W        W 2177  43.009  37.832  14.466
40647W        W 2178  14.748  41.416  14.864
40648W        W 2179  15.224  22.188  11.113
40649W        W 2180   3.801   4.883   4.122
40650W        W 2181  44.266   5.399   3.710
40651W        W 2182  37.928  21.567   0.911
40652W        W 2183  23.178  40.963   2.835
40653W        W 2184  24.534  11.362  10.991
40654W        W 2185  36.483  25.025   3.679
40655W        W 2186   1.271  12.696   4.151
40656W        W 2187  32.622  14.817  12.030
40657W        W 2188  42.429   3.460   1.230
40658W        W 2189  33.024   5.881  12.428
40659W        W 2190   7.725  43.444   0.746
40660W        W 2191  17.280  13.683  12.493
40661W        W 2192  42.441  39.876  12.002
40662W        W 2193   9.364  24.691   4.153
40663W        W 2194  20.072  22.711  13.355
40664W        W 2195  15.634  11.752   0.376
40665W        W 2196  34.973  29.067  12.937
40666W        W 2197  30.073  42.342   4.720
40667W        W 2198  13.756  24.554   1.724
40668W        W 2199  27.664  38.930  10.417
40669W        W 2200  22.731  11.189  13.338
40670W        W 2201  11.305  18.253   2.374
40671W        W 2202  26.496   1.441  10.447
40672W        W 2203  22.542  18.561   1.449
40673W        W 2204  17.776  20.080   2.191
40674W        W 2205   0.380   6.204   0.265
40675W        W 2206  22.245  13.217   3.710
40676W        W 2207  27.054   5.906  14.787
40677W        W 2208  24.988   5.754  12.432
40678W        W 2209  36.563  32.043  14.935
40679W        W 2210  41.355   8.188  12.947
40680W        W 2211   0.805  31.027   4.179
40681W        W 2212  32.496  42.352  14.922
40682W        W 2213   3.834  28.181   1.287
40683W        W 2214  44.461  13.817   2.697
40684W        W 2215  30.437  42.378   2.212
40685W        W 2216  40.892  20.665   3.237
40686W        W 2217  44.354  41.797   3.147
40687W        W 2218  44.310  30.156   1.421
40688W        W 2219  18.086  43.459   2.708
40689W        W 2220  28.121  40.857   2.835
40690W        W 2221   4.751  19.694   1.933
40691W        W 2222  17.711  16.088  13.968
40692W        W 2223  38.068  25.063   3.679
40693W        W 2224  30.426  16.762   5.718
40694W        W 2225  42.905  21.236  11.560
40695W        W 2226  11.300  32.110   3.639
40696W        W 2227  31.945  42.819  10.154
40697W        W 2228   4.773  35.104   4.657
40698W        W 2229  26.501  25.965   2.847
40699W        W 2230  44.477  37.396   4.835
40700W        W 2231   6.820  10.147  13.480
40701W        W 2232  26.486  39.447   1.360
40702W        W 2233  35.956  11.703  12.467
40703W        W 2234  38.556  33.444  12.380
40704W        W 2235  22.584   7.343  14.350
40705W        W 2236  22.563  29.490   0.306
40706W        W 2237  12.673  21.563  11.502
40707W        W 2238  32.537  36.001  11.059
40708W        W 2239  18.733  38.467  13.386
40709W        W 2240  12.330  29.536  13.455
40710W        W 2241  22.142  44.260   3.311
40711W        W 2242  43.985  21.675  13.536
40712W        W 2243  10.268   8.712   2.818
40713W        W 2244   1.365  29.092  13.797
40714W        W 2245  20.085  32.901   4.325
40715W        W 2246  28.552  33.573   2.744
40716W        W 2247  44.942  34.519  10.633
40717W        W 2248  25.992  18.549   0.394
40718W        W 2249   0.972  30.144   3.184
40719W        W 2250   4.767   7.179   2.206
40720W        W 2251  43.464   1.427  13.479
40721W        W 2252  37.904  38.356   3.812
40722W        W 2253  20.234  14.755   3.693
40723W        W 2254  34.978  23.229   3.810
40724W        W 2255  20.665  12.752  10.897
40725W        W 2256  32.394  20.585  11.510
40726W        W 2257  31.963   9.332  10.595
40727W        W 2258  10.858  25.163   1.906
40728W        W 2259  35.883  17.071   2.860
40729W        W 2260  28.951  26.623  14.889
40730W        W 2261  26.550  17.787  11.500
40731W        W 2262  14.834  30.638  11.552
40732W        W 2263  17.154  32.924  14.402
40733W        W 2264   0.372  28.012   4.783
40734W        W 2265   2.232   3.312   2.889
40735W        W 2266  21.667   4.402   4.331
40736W        W 2267  17.084  34.117   3.860
40737W        W 2268  36.065  26.493   0.394
40738W        W 2269   7.730  40.868  11.902
40739W        W 2270  18.089   1.323   2.256
40740W        W 2271   1.916  31.550   2.262
40741W        W 2272  39.938   9.685  13.543
40742W        W 2273  38.343  14.203   4.715
40743W        W 2274  11.300  11.193   0.345
40744W        W 2275  28.069  27.112  13.060
40745W        W 2276  33.966   1.266   4.604
40746W        W 2277  30.061  32.447  13.795
40747W        W 2278  14.212  43.344   0.843
40748W        W 2279   3.911  39.469   1.293
40749W        W 2280  44.500  43.429  11.477
40750W        W 2281  13.174  16.174  14.790
40751W        W 2282  33.454  22.670   0.290
40752W        W 2283  17.724  39.547  12.909
40753W        W 2284  37.571  33.020  11.594
40754W        W 2285  35.076  35.382   3.764
40755W        W 2286   6.854  40.530  12.504
40756W        W 2287  33.058  37.388   9.480
40757W        W 2288  40.009   7.865  14.434
40758W        W 2289  27.529   4.382   0.476
40759W        W 2290  37.043  29.437   3.703
40760W        W 2291  38.912   3.915   3.215
40761W        W 2292  37.011   1.863  11.084
40762W        W 2293  42.416  25.495   0.938
40763W        W 2294  21.721  34.492  12.355
40764W        W 2295   9.677  36.354   0.835
40765W        W 2296  31.017  26.527   3.331
40766W        W 2297  17.116  14.817   0.739
40767W        W 2298  17.635  10.371   2.850
40768W        W 2299  40.844  31.509   1.751
40769W        W 2300   9.761   3.947   4.156
40770W        W 2301   7.844  28.949   5.183
40771W        W 2302  16.122  34.889  12.903
40772W        W 2303  23.071   2.234  14.786
40773W        W 2304   7.318  31.549  14.852
40774W        W 2305  38.852  44.902  14.971
40775W        W 2306  44.932  39.818   0.299
40776W        W 2307   6.347  37.935   4.692
40777W        W 2308  31.620   0.378   1.339
40778W        W 2309  13.196  10.193   1.437
40779W        W 2310  21.694   5.832   0.780
40780W        W 2311  35.109  40.995   4.254
40781W        W 2312  14.225  17.710  11.613
40782W        W 2313  12.271  10.337  14.014
40783W        W 2314  15.317  22.552   0.757
40784W        W 2315  18.281  22.063  14.463
40785W        W 2316  11.747  38.951   4.626
40786W        W 2317  28.628   6.424   2.198
40787W        W 2318  24.110  29.077  10.534
40788W        W 2319   7.779  13.259  10.947
40789W        W 2320  28.559  16.126  13.884
40790W        W 2321  32.986  19.696  13.835
40791W        W 2322  38.943  18.756   2.668
40792W        W 2323   8.363  28.109  12.984
40793W        W 2324  11.288  29.010   3.731
40794W        W 2325   8.335   5.800  13.505
40795W        W 2326  27.579  16.079   1.434
40796W        W 2327  34.922  43.435   1.295
40797W        W 2328  37.536   6.919  12.888
40798W        W 2329  40.927  41.897   2.245
40799W        W 2330  44.889  29.945  13.449
40800W        W 2331  14.809  29.544   3.657
40801W        W 2332  26.479  12.189   1.298
40802W        W 2333   6.793  31.999   0.772
40803W        W 2334  24.588  44.973   0.365
40804W        W 2335  44.295  25.689   4.127
40805W        W 2336  15.790  25.206   4.788
40806W        W 2337  12.758  12.782   0.919
40807W        W 2338  19.745  39.949  13.058
40808W        W 2339   4.879  39.316  13.970
40809W        W 2340  44.859  28.073   0.291
40810W        W 2341  14.675  14.306  10.539
40811W        W 2342  38.946  21.061  13.934
40812W        W 2343  39.876  34.114   2.683
40813W        W 2344  38.548  18.628  11.419
40814W        W 2345  41.944  38.972   1.264
40815W        W 2346   5.215   7.335   3.189
40816W        W 2347  44.900  35.367   4.121
40817W        W 2348  34.928  31.045  11.947
40818W        W 2349  27.169  44.453  13.034
40819W        W 2350   4.893  37.479   5.263
40820W        W 2351  41.914  25.104   3.164
40821W        W 2352  44.297  28.174  10.944
40822W        W 2353  16.634  24.097   1.809
40823W        W 2354  41.916  23.002   3.262
40824W        W 2355  22.078  23.586  10.441
40825W        W 2356   8.387  35.051  12.417
40826W        W 2357  31.483  14.236  11.054
40827W        W 2358  19.778  10.327  12.037
40828W        W 2359  33.608  17.272  13.540
40829W        W 2360   2.248  10.264  10.036
40830W        W 2361   6.715  24.725  11.515
40831W        W 2362  18.676  38.893  13.520
40832W        W 2363  42.858  35.088  13.837
40833W        W 2364  17.769   2.871   0.802
40834W        W 2365  25.052   6.703   0.349
40835W        W 2366  19.281   3.788   4.802
40836W        W 2367  23.548   7.413   2.675
40837W        W 2368  35.998  23.223   2.381
40838W        W 2369  41.976  36.418   0.843
40839W        W 2370   9.222  22.152   4.124
40840W        W 2371   4.754  42.309   1.865
40841W        W 2372  42.854  35.901   1.749
40842W        W 2373  36.414  39.031  14.828
40843W        W 2374  12.701   3.780  11.121
40844W        W 2375  35.908   4.770   5.278
40845W        W 2376  26.612  37.511   3.166
40846W        W 2377   0.837  36.590  10.080
40847W        W 2378  12.357   3.783  13.463
40848W        W 2379   9.358  23.216  11.423
40849W        W 2380  21.719  15.700   2.866
40850W        W 2381  12.654  13.349  14.818
40851W        W 2382  27.136  12.834  13.802
40852W        W 2383  24.620  30.619  14.282
40853W        W 2384  34.429  18.789   4.262
40854W        W 2385  30.926  30.579  12.362
40855W        W 2386  34.415  38.831  11.423
40856W        W 2387  38.895  38.554   5.240
40857W        W 2388   2.725  32.099  10.415
40858W        W 2389  40.815  22.685  11.520
40859W        W 2390   5.316  39.936   3.737
40860W        W 2391  19.621  20.647   4.775
40861W        W 2392  30.627  21.160   0.821
40862W        W 2393  33.025  33.468  10.524
40863W        W 2394  15.636  34.403   4.620
40864W        W 2395   9.335  21.106  13.356
40865W        W 2396  10.867  22.131   0.391
40866W        W 2397  42.937  39.912   1.871
40867W        W 2398  26.100  43.841   3.339
40868W        W 2399  37.409  44.309   0.933
40869W        W 2400  24.139  40.320   0.342
40870W        W 2401  38.452  17.245  13.338
40871W        W 2402  39.422   7.215  12.437
40872W        W 2403   7.787  29.450  11.129
40873W        W 2404  26.592  34.422  11.575
40874W        W 2405  36.506  40.496  14.334
40875W        W 2406  25.007  35.582   2.388
40876W        W 2407  18.596  28.638   0.965
40877W        W 2408  24.195  39.064  13.541
40878W        W 2409  15.818  28.974   1.747
40879W        W 2410  12.826  43.955   1.396
40880W        W 2411  39.466   8.284   0.858
40881W        W 2412  16.150  25.607   4.713
40882W        W 2413  34.431  27.652  11.509
40883W        W 2414  10.374  39.511  10.987
40884W        W 2415  28.032  34.009  14.335
40885W        W 2416  22.209  42.419  12.992
40886W        W 2417   7.186  23.535   4.198
40887W        W 2418  40.045  30.054   2.316
40888W        W 2419  44.941  42.863  10.909
40889W        W 2420  12.134   5.427   4.707
40890W        W 2421   9.300  32.885   1.450
40891W        W 2422   0.335   5.730  14.873
40892W        W 2423  36.970   2.900  13.919
40893W        W 2424  38.495  32.492  11.427
40894W        W 2425  21.745  42.340  12.499
40895W        W 2426  32.624  42.819   0.749
40896W        W 2427  10.822  21.706  10.600
40897W        W 2428  31.117  36.925  11.449
40898W        W 2429   7.185   8.765  13.896
40899W        W 2430  21.200  22.656  10.466
40900W        W 2431   6.224   4.824  13.364
40901W        W 2432  40.467   2.863   1.273
40902W        W 2433  35.575  11.216   4.286
40903W        W 2434  44.331  42.916   4.742
40904W        W 2435   3.748  36.904   2.774
40905W        W 2436  43.373  38.545  12.918
40906W        W 2437   3.339   7.893   0.252
40907W        W 2438  38.524   5.328   4.815
40908W        W 2439   5.896  32.459  12.559
40909W        W 2440  20.229  22.036   3.251
40910W        W 2441  27.462   4.303  14.918
40911W        W 2442   0.449  32.449  12.947
40912W        W 2443  44.945  15.666   0.870
40913W        W 2444   6.299  29.990  12.829
40914W        W 2445  26.639  29.447   3.710
40915W        W 2446   6.395  40.041   1.402
40916W        W 2447  32.542  42.014  10.615
40917W        W 2448  13.629   1.891   1.829
40918W        W 2449  44.895  26.612   9.994
40919W        W 2450  24.559  28.987  14.802
40920W        W 2451  27.089   1.241  13.009
40921W        W 2452   9.699  24.602   2.852
40922W        W 2453   0.762   0.768  12.017
40923W        W 2454  33.946   4.806   0.897
40924W        W 2455   6.363   6.228   4.279
40925W        W 2456  35.880  14.776  13.361
40926W        W 2457   2.337   2.776  11.035
40927W        W 2458  41.939   6.423  10.486
40928W        W 2459  27.505  19.661   0.794
40929W        W 2460  20.048  43.311  14.404
40930W        W 2461  41.331   1.762  10.535
40931W        W 2462   2.403  35.590  14.428
40932W        W 2463   4.847  18.178   0.359
40933W        W 2464   2.309  24.118   0.938
40934W        W 2465  42.494  31.035  13.517
40935W        W 2466   6.326  27.015   2.813
40936W        W 2467  38.959   9.890   2.889
40937W        W 2468  38.512  41.009  10.609
40938W        W 2469  17.587   7.852   4.812
40939W        W 2470   4.836  25.548   4.340
40940W        W 2471  41.445  42.459  12.066
40941W        W 2472   9.260   3.395   0.456
40942W        W 2473  31.129  12.150   1.280
40943W        W 2474  32.919  13.213  12.860
40944W        W 2475   4.384  35.539   0.463
40945W        W 2476  33.458   0.454  12.377
40946W        W 2477   1.925  32.905   3.661
40947W        W 2478  25.646  20.263   4.328
40948W        W 2479  30.416   1.392   1.381
40949W        W 2480  16.227  34.391  14.998
40950W        W 2481  13.662  32.568   5.089
40951W        W 2482  13.707  33.015   3.179
40952W        W 2483  36.902  18.750   3.236
40953W        W 2484  17.235  32.082   3.221
40954W        W 2485  25.468   5.245   4.801
40955W        W 2486  24.214   9.654  14.784
40956W        W 2487  17.184  36.906   4.776
40957W        W 2488  20.031  21.645  10.633
40958W        W 2489  24.103  24.632   2.351
40959W        W 2490  43.505  18.763  13.946
40960W        W 2491  10.822  14.743  11.113
40961W        W 2492   2.440  11.630   0.755
40962W        W 2493  15.816  40.450  14.956
40963W        W 2494   0.821  34.400   4.683
40964W        W 2495  17.614  21.604  11.456
40965W        W 2496  35.515   4.707  14.283
40966W        W 2497  29.626  39.812  13.502
40967W        W 2498  33.410  43.314  14.980
40968W        W 2499  44.411  30.029   0.857
40969W        W 2500  15.679  30.095  11.109
40970W        W 2501   1.247  17.215   1.302
40971W        W 2502  10.138  15.277  13.020
40972W        W 2503  10.791   2.796  12.495
40973W        W 2504  39.448  15.238   2.324
40974W        W 2505  20.737  21.606   0.885
40975W        W 2506  26.990  18.121  14.480
40976W        W 2507  20.706   9.266  12.918
40977W        W 2508  26.172  34.028   3.265
40978W        W 2509  38.998  29.519  13.994
40979W        W 2510  15.690  26.061  14.894
40980W        W 2511  14.645   3.362   0.472
40981W        W 2512  24.577  26.677   2.396
40982W        W 2513   5.243   2.226  12.009
40983W        W 2514  15.161   6.242   3.335
40984W        W 2515   3.379   1.338   4.722
40985W        W 2516  32.548  13.323  12.876
40986W        W 2517  31.076   0.945   2.789
40987W        W 2518  40.817  27.958   2.366
40988W        W 2519  39.922   9.336   4.599
40989W        W 2520  44.775   6.860  12.466
40990W        W 2521  43.474  25.639   1.449
40991W        W 2522   0.936  26.988   1.440
40992W        W 2523  25.602  16.626  12.891
40993W        W 2524  27.015  35.972  12.377
40994W        W 2525   7.281   8.221  13.883
40995W        W 2526  22.183  37.980   2.868
40996W        W 2527  32.991  35.923  13.362
40997W        W 2528  40.381  42.018   1.828
40998W        W 2529  26.599  38.397  12.971
40999W        W 2530   0.775  23.592  14.501
41000W        W 2531  17.786   2.249  13.512
41001W        W 2532  39.833  38.065   2.838
41002W        W 2533   9.751  31.060  12.069
41003W        W 2534   6.422  15.791   3.685
41004W        W 2535  12.247  23.011  10.922
41005W        W 2536  19.131  39.393   5.222
41006W        W 2537   8.401  26.995  11.008
41007W        W 2538  38.871  14.670   1.395
41008W        W 2539   9.357  38.975  10.516
41009W        W 2540  14.782  17.200   9.940
41010W        W 2541  16.614  18.608   2.695
41011W        W 2542  12.235  24.020  12.492
41012W        W 2543  17.787   3.275   0.822
41013W        W 2544  10.640  37.854   0.951
41014W        W 2545  19.542  28.477   3.301
41015W        W 2546  32.006  24.152  10.521
41016W        W 2547  22.010  20.221  11.046
41017W        W 2548  10.297  11.797   3.683
41018W        W 2549  28.646  14.339  14.796
41019W        W 2550  20.112  24.213   9.458
41020W        W 2551  37.961  16.154  13.805
41021W        W 2552  31.925  29.532   3.342
41022W        W 2553   4.807  32.050  13.898
41023W        W 2554  31.997  35.953  12.563
41024W        W 2555  24.130  31.006   1.381
41025W        W 2556  22.554  30.073  10.990
41026W        W 2557  40.414  33.456   3.673
41027W        W 2558   0.407   3.719   0.876
41028W        W 2559  36.996  41.960   1.434
41029W        W 2560   0.467  23.235   1.799
41030W        W 2561  13.643  17.117  14.280
41031W        W 2562   0.766  27.613   2.812
41032W        W 2563  24.645  37.942  10.616
41033W        W 2564  44.420  18.593   4.294
41034W        W 2565  13.341  44.410   5.256
41035W        W 2566  10.656  35.892   4.797
41036W        W 2567  30.457  39.025  12.981
41037W        W 2568  38.928  37.050  14.333
41038W        W 2569  44.286  19.613   3.758
41039W        W 2570  27.565  39.992   2.310
41040W        W 2571  30.153  34.446  12.440
41041W        W 2572  18.063  32.475  13.399
41042W        W 2573   6.866   0.954   4.733
41043W        W 2574  13.174  32.409  13.053
41044W        W 2575  38.825  31.985  10.943
41045W        W 2576  22.114   7.851   2.813
41046W        W 2577   9.654   0.311   2.243
41047W        W 2578  34.542  12.252  10.564
41048W        W 2579  44.310   4.849  12.897
41049W        W 2580  26.065  26.010  13.398
41050W        W 2581  21.594   6.756  14.390
41051W        W 2582  30.447  43.868  10.977
41052W        W 2583  42.371  30.983  12.429
41053W        W 2584  27.553  13.295  11.979
41054W        W 2585   2.727  21.225  12.036
41055W        W 2586   8.859  32.513  10.450
41056W        W 2587  36.990  13.801   1.872
41057W        W 2588  26.588   5.805  12.931
41058W        W 2589  34.607  17.607   3.277
41059W        W 2590   3.340  24.229  13.522
41060W        W 2591  38.027  36.081  11.928
41061W        W 2592   1.924  39.397   2.898
41062W        W 2593  25.640  24.658   2.418
41063W        W 2594  44.005  20.182   0.748
41064W        W 2595  43.944  23.055   0.305
41065W        W 2596  24.596   3.239  11.910
41066W        W 2597  19.158   0.428   3.311
41067W        W 2598   8.246  35.003   3.790
41068W        W 2599  27.098  29.030   0.829
41069W        W 2600  32.460  10.165   2.316
41070W        W 2601  13.155   5.873  13.958
41071W        W 2602  30.435  14.137   4.701
41072W        W 2603  30.494   3.729  12.039
41073W        W 2604   4.365  27.990   4.702
41074W        W 2605  19.221  25.156  11.956
41075W        W 2606  15.199  25.058   5.105
41076W        W 2607  17.701  26.464   4.184
41077W        W 2608  18.183  31.441  14.495
41078W        W 2609  22.050   8.713  13.352
41079W        W 2610  14.645  32.457   1.907
41080W        W 2611  14.763  31.493   2.888
41081W        W 2612  44.979   3.826  11.862
41082W        W 2613  23.572  39.430  14.787
41083W        W 2614  38.433   0.491   2.382
41084W        W 2615  41.952  18.181  12.461
41085W        W 2616   7.239   1.448  13.923
41086W        W 2617  14.763  21.567  11.912
41087W        W 2618   0.273  28.553  11.061
41088W        W 2619   4.805  30.124   1.338
41089W        W 2620  14.800  18.055  10.409
41090W        W 2621  12.273   1.868  14.485
41091W        W 2622   8.180  20.660  13.541
41092W        W 2623  11.158  27.603   2.759
41093W        W 2624  42.388  14.728   1.253
41094W        W 2625  37.081  44.440  12.026
41095W        W 2626  19.156  33.435   3.386
41096W        W 2627   1.754  35.429   3.771
41097W        W 2628  42.804  27.478  13.038
41098W        W 2629  14.235  16.252   3.330
41099W        W 2630   5.430  36.552   3.366
41100W        W 2631  20.087  43.322  10.933
41101W        W 2632  40.521  27.976  10.892
41102W        W 2633  27.114  33.385   1.248
41103W        W 2634  38.541   7.703  12.456
41104W        W 2635   3.362  44.859  13.849
41105W        W 2636  24.190   3.893  12.467
41106W        W 2637  10.351  35.893   2.211
41107W        W 2638   0.791  34.435  13.998
41108W        W 2639  28.589  24.557   1.340
41109W        W 2640   5.384   6.232  10.151
41110W        W 2641  14.615  16.723  10.509
41111W        W 2642  26.652  38.961  11.016
41112W        W 2643  13.786   9.756   0.248
41113W        W 2644  33.483   2.943   3.335
41114W        W 2645  36.348   7.698  10.498
41115W        W 2646  22.082   2.414   1.695
41116W        W 2647  36.955   9.166   0.822
41117W        W 2648  17.732  22.177  10.449
41118W        W 2649   9.247  37.561  11.928
41119W        W 2650  21.672   7.713   4.221
41120W        W 2651   7.899  38.058   2.848
41121W        W 2652  19.218   5.881   2.247
41122W        W 2653  15.685   8.350  12.003
41123W        W 2654   2.910   1.890  12.833
41124W        W 2655   7.200  33.535  13.820
41125W        W 2656  36.973  15.720   4.739
41126W        W 2657  36.589  29.643   4.158
41127W        W 2658  37.558   1.259  13.967
41128W        W 2659   7.762   5.860   2.664
41129W        W 2660  39.875  37.492   0.726
41130W        W 2661  18.578  43.842   0.779
41131W        W 2662  22.663   8.767   1.914
41132W        W 2663  22.015  25.516  12.916
41133W        W 2664   0.331  36.046   1.411
41134W        W 2665  12.177   0.868   3.643
41135W        W 2666  41.959  37.487   0.909
41136W        W 2667  12.295   5.223   1.885
41137W        W 2668  43.994   7.678  13.950
41138W        W 2669  22.713  19.742  11.919
41139W        W 2670   2.387  37.508  13.012
41140W        W 2671  18.621  40.947  11.453
41141W        W 2672  34.121  12.672   0.931
41142W        W 2673  29.976  39.420  12.571
41143W        W 2674   1.978   3.425  13.346
41144W        W 2675   4.944  41.501  10.499
41145W        W 2676   6.185  12.719   0.809
41146W        W 2677   7.343  30.011   1.796
41147W        W 2678   2.823   8.401   4.655
41148W        W 2679  22.577  35.581   2.724
41149W        W 2680  24.520  29.064  13.404
41150W        W 2681  31.043  15.239   2.338
41151W        W 2682  25.998   0.447   2.285
41152W        W 2683  18.081  28.097  11.956
41153W        W 2684   5.833  23.505   1.714
41154W        W 2685  44.425   7.187  13.406
41155W        W 2686  28.964  37.044  13.967
41156W        W 2687  39.884  18.731  11.121
41157W        W 2688  12.212  23.514   0.965
41158W        W 2689  16.138  32.597  10.618
41159W        W 2690   8.174  29.494   0.374
41160W        W 2691  27.597  36.983  10.972
41161W        W 2692   2.469  34.889  12.040
41162W        W 2693  19.103   9.204   2.713
41163W        W 2694  15.638  27.556   4.614
41164W        W 2695  20.736   3.388  12.557
41165W        W 2696  25.062  33.493  13.058
41166W        W 2697   1.841   2.444   0.759
41167W        W 2698  32.465  29.481  12.459
41168W        W 2699   1.767   0.492  13.308
41169W        W 2700  23.154   7.709  12.841
41170W        W 2701  18.737  14.667  11.926
41171W        W 2702   6.370  25.132   0.909
41172W        W 2703  15.235   1.290  13.805
41173W        W 2704   0.438  33.563  11.475
41174W        W 2705   1.893  41.294   4.291
41175W        W 2706  43.013  44.344   1.379
41176W        W 2707  35.557   9.793  13.397
41177W        W 2708   1.386  26.465  12.933
41178W        W 2709  31.625  33.912   4.601
41179W        W 2710  10.860   9.335   3.308
41180W        W 2711  27.188  21.609   2.409
41181W        W 2712  32.533  31.149  10.933
41182W        W 2713  24.072   4.720  10.909
41183W        W 2714  21.076  42.302  14.369
41184W        W 2715   0.979  10.752   4.297
41185W        W 2716  24.177   0.875   3.231
41186W        W 2717  16.738  35.061  12.576
41187W        W 2718  10.229  27.584   2.707
41188W        W 2719  44.346  28.443   0.253
41189W        W 2720   1.938  32.058   0.841
41190W        W 2721  42.519  21.517   1.805
41191W        W 2722  14.258  38.562   4.242
41192W        W 2723  40.921  31.051   0.946
41193W        W 2724   3.724  30.927   4.129
41194W        W 2725   3.229  27.188   2.284
41195W        W 2726  42.027  44.264  13.496
41196W        W 2727  14.231   7.773   3.660
41197W        W 2728  28.583  31.573   5.291
41198W        W 2729  43.432  28.985  11.963
41199W        W 2730  32.062  30.592  14.424
41200W        W 2731  36.921   8.735   1.860
41201W        W 2732  28.178  41.349   4.675
41202W        W 2733  36.357  13.682  14.850
41203W        W 2734  38.015  38.477  10.957
41204W        W 2735  29.031  39.419  12.501
41205W        W 2736  16.250   3.453   4.809
41206W        W 2737  34.067  36.371   2.671
41207W        W 2738   4.931  32.513  14.769
41208W        W 2739  21.260  41.332   4.134
41209W        W 2740   3.355  29.175   2.716
41210W        W 2741   9.698  22.612  13.025
41211W        W 2742  30.416  33.925  12.849
41212W        W 2743  39.403  42.374   3.839
41213W        W 2744  12.854  26.196   0.871
41214W        W 2745  36.895  31.070  11.065
41215W        W 2746  41.312   3.822   4.328
41216W        W 2747  16.125  26.568  11.918
41217W        W 2748   3.894   9.746  11.480
41218W        W 2749   0.820  12.826  12.419
41219W        W 2750  24.561  39.487  14.778
41220W        W 2751  10.662  14.267   0.365
41221W        W 2752  12.116  16.754   4.127
41222W        W 2753   1.451  20.251   3.217
41223W        W 2754  27.450  43.894  14.765
41224W        W 2755   7.330  19.623   0.755
41225W        W 2756  14.767  19.543  14.952
41226W        W 2757  10.820   5.364  13.872
41227W        W 2758  33.888   8.227  14.766
41228W        W 2759  38.049  43.899   0.797
41229W        W 2760  19.707  42.343   0.875
41230W        W 2761   4.773  32.885  11.510
41231W        W 2762  22.060  30.118  14.915
41232W        W 2763  19.113  34.434  11.944
41233W        W 2764  28.512  11.632  10.572
41234W        W 2765  44.267   7.911  12.935
41235W        W 2766  24.071  22.747  13.854
41236W        W 2767  13.113  24.504  14.478
41237W        W 2768  23.585  25.097   5.201
41238W        W 2769  30.082  14.274   0.936
41239W        W 2770  38.056   6.847  11.033
41240W        W 2771   1.918  28.599  10.434
41241W        W 2772  26.462  11.351  13.389
41242W        W 2773  21.550  15.620  14.315
41243W        W 2774  34.456   6.839  13.037
41244W        W 2775  16.072  44.482  10.968
41245W        W 2776  20.245   2.764   3.663
41246W        W 2777  25.047  15.092   1.833
41247W        W 2778  32.544  15.266  14.798
41248W        W 2779  13.127   3.331  12.844
41249W        W 2780  18.589  42.788  11.506
41250W        W 2781  10.656  24.087  11.380
41251W        W 2782  15.791   6.396   3.701
41252W        W 2783  38.873  19.550  10.988
41253W        W 2784  18.154  14.157   0.787
41254W        W 2785   8.840  38.366   4.197
41255W        W 2786  26.114   6.912   0.332
41256W        W 2787  34.436  19.098   9.642
41257W        W 2788   5.252   9.661  12.918
41258W        W 2789  16.768  12.854  11.559
41259W        W 2790  11.839  44.806  11.901
41260W        W 2791   6.772  16.654   4.142
41261W        W 2792  18.077  24.162   0.884
41262W        W 2793  28.005  24.991   3.845
41263W        W 2794   4.837  29.107  12.373
41264W        W 2795  24.587  44.897  11.993
41265W        W 2796  13.834  39.476  12.573
41266W        W 2797  24.698  35.074  11.864
41267W        W 2798   1.296  23.661  14.403
41268W        W 2799  18.738  33.614   1.837
41269W        W 2800   4.304  29.069  12.827
41270W        W 2801  39.013  19.577  14.328
41271W        W 2802  31.898  11.262  10.034
41272W        W 2803  18.092  21.664  13.020
41273W        W 2804  26.592  44.373   3.233
41274W        W 2805  18.791  32.950   3.187
41275W        W 2806   1.831  23.593   2.714
41276W        W 2807  41.409  30.002  12.093
41277W        W 2808  40.825  30.485   2.802
41278W        W 2809   4.327  10.673   3.153
41279W        W 2810  35.088   6.711   3.699
41280W        W 2811  17.098  26.994  13.028
41281W        W 2812  11.298  27.631  11.016
41282W        W 2813  10.632  19.255  11.442
41283W        W 2814  26.603  21.548  14.802
41284W        W 2815  37.552  34.068  10.624
41285W        W 2816  33.623   2.466   3.306
41286W        W 2817   3.847   7.199  11.095
41287W        W 2818  11.239  23.707   4.351
41288W        W 2819  20.029  33.414  10.562
41289W        W 2820  12.748   4.882  13.973
41290W        W 2821  11.624  17.282  10.456
41291W        W 2822  14.132  14.734  10.629
41292W        W 2823   6.906  17.087   4.634
41293W        W 2824  13.313   9.379  12.954
41294W        W 2825  40.907  30.068  12.001
41295W        W 2826   9.870  29.021   4.331
41296W        W 2827  24.689  20.137  14.486
41297W        W 2828  13.783   6.911   3.711
41298W        W 2829   9.766  30.992  12.421
41299W        W 2830  15.217  39.936   1.728
41300W        W 2831  10.180  33.032  14.463
41301W        W 2832  14.195  43.950   0.481
41302W        W 2833  14.302  32.534  11.571
41303W        W 2834  37.564  34.371   0.850
41304W        W 2835   6.315   5.363  12.992
41305W        W 2836  18.596  34.427   2.832
41306W        W 2837  33.880  33.976  12.045
41307W        W 2838  37.491  17.235   1.265
41308W        W 2839  24.093  20.152   4.824
41309W        W 2840  20.140  44.468  14.927
41310W        W 2841  31.125   2.825   2.856
41311W        W 2842   5.425  27.455  13.060
41312W        W 2843   6.244  33.514  14.315
41313W        W 2844  39.339  15.300  11.129
41314W        W 2845  17.222  35.894   3.314
41315W        W 2846  31.502  13.125   0.275
41316W        W 2847  25.487  11.756  13.453
41317W        W 2848  33.584  32.904  13.913
41318W        W 2849  39.465  39.942  14.342
41319W        W 2850   3.830  28.495   4.743
41320W        W 2851  25.975  34.048  12.462
41321W        W 2852  32.624  17.222   2.867
41322W        W 2853   2.448   8.238  11.604
41323W        W 2854  15.131  20.055  14.460
41324W        W 2855  33.046  34.911  11.887
41325W        W 2856  38.987  43.802  13.327
41326W        W 2857  40.353  17.227   3.197
41327W        W 2858   2.251  38.359  11.045
41328W        W 2859  28.160   5.418  11.036
41329W        W 2860   9.881   1.963   3.658
41330W        W 2861   4.783  38.504   2.337
41331W        W 2862   5.891  41.404  14.979
41332W        W 2863  32.463  18.721  10.496
41333W        W 2864  22.209  21.034  10.997
41334W        W 2865  30.071  25.557  12.492
41335W        W 2866   2.329  43.931  13.905
41336W        W 2867  39.883  27.088   2.382
41337W        W 2868  28.542   5.410  11.106
41338W        W 2869  13.662  33.090  13.847
41339W        W 2870  23.137   0.401   0.918
41340W        W 2871  14.716  24.178  10.482
41341W        W 2872  39.482  35.505   4.174
41342W        W 2873  20.127  39.331   1.216
41343W        W 2874  43.850  26.588  14.988
41344W        W 2875  23.521  26.155  10.426
41345W        W 2876  33.131  24.528  14.347
41346W        W 2877  23.013  36.028  10.515
41347W        W 2878  20.729  33.088   2.677
41348W        W 2879  17.283  16.584  14.798
41349W        W 2880  34.913  44.473   4.155
41350W        W 2881  23.551  42.022   2.256
41351W        W 2882  36.987  34.460  11.527
41352W        W 2883  37.001  29.141   3.215
41353W        W 2884  33.016   4.851   2.233
41354W        W 2885  22.654  25.694  13.006
41355W        W 2886  39.957  24.479  12.921
41356W        W 2887  25.615  18.179  14.868
41357W        W 2888  21.157  17.722  10.644
41358W        W 2889  37.497   3.718   3.190
41359W        W 2890  34.549  41.517   0.734
41360W        W 2891  30.041   4.237   1.882
41361W        W 2892  18.234  13.777  14.371
41362W        W 2893   8.698  41.390  12.056
41363W        W 2894  39.427  11.336  12.922
41364W        W 2895  33.003  12.616  11.485
41365W        W 2896  32.903  38.929  13.049
41366W        W 2897  38.856  16.738   4.665
41367W        W 2898  34.580  42.930  12.511
41368W        W 2899  39.490  25.015   3.715
41369W        W 2900  12.615   9.249   1.309
41370W        W 2901  42.295   2.823  14.366
41371W        W 2902  39.862  29.584   1.212
41372W        W 2903  29.116  29.563   0.957
41373W        W 2904  33.051   7.828   3.672
41374W        W 2905  37.444  35.467  11.099
41375W        W 2906   1.372  29.025   0.288
41376W        W 2907  15.793  33.382  14.445
41377W        W 2908  40.860  30.945   3.860
41378W        W 2909  44.767   0.855   1.403
41379W        W 2910  16.149  28.509   0.925
41380W        W 2911   8.735  25.469  10.594
41381W        W 2912  33.624  27.496   0.350
41382W        W 2913  36.085  32.005   1.305
41383W        W 2914  33.429   8.793   3.343
41384W        W 2915  18.690   6.231   3.664
41385W        W 2916   6.783  22.252  13.395
41386W        W 2917  34.917  41.498   4.158
41387W        W 2918  34.508  27.527  13.977
41388W        W 2919  20.094  34.885   3.794
41389W        W 2920  31.466  20.663   0.916
41390W        W 2921  16.092  24.046  14.967
41391W        W 2922  16.311  33.387  10.053
41392W        W 2923   8.195  35.049  11.950
41393W        W 2924  17.634  18.270  10.950
41394W        W 2925  12.273  41.836   4.175
41395W        W 2926   0.487  16.795   1.217
41396W        W 2927   5.270  38.888  10.533
41397W        W 2928  38.459  11.281   0.897
41398W        W 2929  36.360  18.568   1.433
41399W        W 2930  15.180  37.530  12.388
41400W        W 2931   4.915   7.187   1.747
41401W        W 2932  29.444  30.073   4.232
41402W        W 2933  33.875  38.832  12.487
41403W        W 2934  34.567  24.031   2.221
41404W        W 2935  35.861  37.906  14.887
41405W        W 2936  44.274  30.629  11.457
41406W        W 2937   2.819  11.344   1.908
41407W        W 2938  17.178  15.125   4.820
41408W        W 2939  11.276  29.120   3.252
41409W        W 2940  35.391  38.431   1.400
41410W        W 2941  23.502  24.616  14.328
41411W        W 2942  25.046  36.095   1.906
41412W        W 2943   2.390   7.845   1.300
41413W        W 2944  21.686  34.559  12.947
41414W        W 2945  22.693  19.561  14.903
41415W        W 2946   1.455   8.842   2.756
41416W        W 2947  23.596   0.782  11.574
41417W        W 2948  27.024   3.855  14.886
41418W        W 2949  21.068   7.360  14.948
41419W        W 2950  15.786  25.069   4.264
41420W        W 2951  23.494  38.466  11.371
41421W        W 2952   9.225  20.644   0.930
41422W        W 2953  43.830  37.982  12.092
41423W        W 2954  24.495  25.148  11.868
41424W        W 2955  13.245   4.260   4.251
41425W        W 2956  14.133  25.672  14.960
41426W        W 2957  22.684  29.548   1.269
41427W        W 2958   3.398  33.594   1.775
41428W        W 2959  21.027   1.920  11.115
41429W        W 2960   7.685  17.799  14.864
41430W        W 2961  39.459   4.863  13.939
41431W        W 2962  13.267  32.613   4.191
41432W        W 2963  40.499  31.085  14.299
41433W        W 2964   0.477  37.862   0.389
41434W        W 2965   2.803  14.739  14.401
41435W        W 2966  10.214   9.718  13.989
41436W        W 2967   7.301   6.878  13.535
41437W        W 2968  40.398  40.850   3.758
41438W        W 2969  10.673  31.105  11.859
41439W        W 2970   4.409  36.442  13.881
41440W        W 2971  10.691  35.955   1.724
41441W        W 2972  14.821   0.385   2.393
41442W        W 2973  14.779  10.656  11.501
41443W        W 2974  19.681  34.891   2.842
41444W        W 2975  32.005  17.301   0.281
41445W        W 2976   0.940  27.521  12.082
41446W        W 2977  38.947  23.630  10.449
41447W        W 2978  28.029   9.382  14.838
41448W        W 2979  39.403  32.397  14.009
41449W        W 2980  13.806  37.552   2.700
41450W        W 2981   8.296  10.180  10.640
41451W        W 2982  18.548  28.940  11.506
41452W        W 2983   1.474   6.753  14.505
41453W        W 2984  26.669  22.158   0.803
41454W        W 2985  11.805  13.215   1.425
41455W        W 2986   6.320  36.544   3.660
41456W        W 2987  37.948  20.188   3.191
41457W        W 2988   4.888  44.283   2.868
41458W        W 2989   0.386  41.329   1.724
41459W        W 2990  12.618  11.264   4.680
41460W        W 2991  34.385  35.920  13.410
41461W        W 2992  30.567  20.086  14.880
41462W        W 2993   6.745   4.438  10.962
41463W        W 2994   5.336   9.316   1.763
41464W        W 2995  16.137   7.869  13.535
41465W        W 2996  20.244  36.968  11.899
41466W        W 2997  38.821  24.998   4.777
41467W        W 2998  29.128  43.494  13.536
41468W        W 2999   0.874  31.980  11.973
41469W        W 3000  33.626  44.276   0.952
41470W        W 3001  33.000   0.403  14.457
41471W        W 3002  26.165   0.466  10.487
41472W        W 3003  23.081   2.943   0.752
41473W        W 3004  43.790  40.402   2.726
41474W        W 3005  39.930  17.062  12.364
41475W        W 3006  39.812   3.367   2.808
41476W        W 3007  18.675  24.090  13.398
41477W        W 3008  44.765  13.155   0.447
41478W        W 3009  19.158  17.228   1.820
41479W        W 3010   9.284  33.019   2.873
41480W        W 3011  25.030  33.612   2.667
41481W        W 3012  14.690  44.477   0.838
41482W        W 3013  21.190   9.304  10.566
41483W        W 3014   2.429  34.452  13.964
41484W        W 3015  39.057  19.278   0.393
41485W        W 3016  12.305  44.376  10.461
41486W        W 3017  36.574  40.955  12.430
41487W        W 3018  12.690  32.048   2.802
41488W        W 3019  34.564  28.616   4.170
41489W        W 3020   4.878  18.752   2.871
41490W        W 3021  26.133   5.687   1.704
41491W        W 3022  28.123  44.395   2.722
41492W        W 3023  34.076  43.321  14.395
41493W        W 3024   9.698  16.805  12.870
41494W        W 3025  22.700   4.864   5.105
41495W        W 3026  27.153  37.081  10.915
41496W        W 3027   4.773  35.952   1.934
41497W        W 3028  10.801  19.189   2.863
41498W        W 3029  11.675   0.369   2.790
41499W        W 3030  10.784   9.324   2.751
41500W        W 3031  24.222   4.344  10.478
41501W        W 3032  40.923  12.812  10.573
41502W        W 3033  19.746  41.307   1.231
41503W        W 3034   5.691  36.414  11.083
41504W        W 3035  11.339  41.966   3.652
41505W        W 3036  33.601  29.936  10.924
41506W        W 3037  14.109  34.051   0.734
41507W        W 3038  25.511   3.774  11.903
41508W        W 3039   5.309  31.509  12.089
41509W        W 3040  12.662  37.991  14.383
41510W        W 3041  36.443  23.627   1.730
41511W        W 3042   3.368  16.688   1.923
41512W        W 3043  40.535  30.007   0.788
41513W        W 3044  38.494  20.625   0.389
41514W        W 3045  17.711  15.234   3.699
41515W        W 3046   0.382  22.042   9.478
41516W        W 3047  17.066   7.838  12.427
41517W        W 3048  43.484  42.516  12.874
41518W        W 3049  41.357  19.092  11.928
41519W        W 3050   8.390  37.569  12.940
41520W        W 3051  30.451  26.497   1.899
41521W        W 3052  10.731  18.121  11.904
41522W        W 3053   4.809   0.951   1.768
41523W        W 3054  27.611   6.214   0.317
41524W        W 3055  41.908  22.525   0.807
41525W        W 3056  38.505   5.394   0.814
41526W        W 3057  30.522  23.984   4.781
41527W        W 3058   8.757  19.210   2.711
41528W        W 3059   7.354  14.169  13.013
41529W        W 3060  35.070  29.941   4.283
41530W        W 3061   9.384  44.441  14.422
41531W        W 3062  16.659  41.835  13.987
41532W        W 3063  19.774   3.308   0.296
41533W        W 3064   8.861  30.995  14.975
41534W        W 3065  37.570  32.580   3.734
41535W        W 3066   1.326  16.594  13.510
41536W        W 3067   9.859   2.960   2.756
41537W        W 3068   3.830  31.940  11.540
41538W        W 3069  34.393   8.370  14.357
41539W        W 3070  32.093   6.683  14.018
41540W        W 3071   8.389   0.884   3.805
41541W        W 3072   0.769  35.479   2.227
41542W        W 3073  17.710  18.219  12.950
41543W        W 3074  42.996   4.756  11.571
41544W        W 3075  21.565  26.957   3.387
41545W        W 3076  10.224  12.773  10.087
41546W        W 3077  17.562   1.408  12.861
41547W        W 3078  12.123  14.613  14.477
41548W        W 3079   1.898  44.320  12.426
41549W        W 3080  38.074  11.742   2.673
41550W        W 3081  37.081  39.557   4.291
41551W        W 3082   0.962  12.663  14.793
41552W        W 3083  40.822  26.017   1.765
41553W        W 3084  41.828  30.978   4.204
41554W        W 3085  16.284  34.091   2.693
41555W        W 3086  20.038   2.909  10.485
41556W        W 3087  41.830  10.756   2.311
41557W        W 3088  31.482  31.107   4.347
41558W        W 3089  37.842  19.690   0.348
41559W        W 3090  42.002  44.306  14.508
41560W        W 3091  44.960  18.183  12.881
41561W        W 3092  23.697  21.139  14.315
41562W        W 3093   5.249  17.684   3.633
41563W        W 3094  16.249  32.104   2.366
41564W        W 3095   2.360  40.822  12.828
41565W        W 3096  40.361  29.952  12.852
41566W        W 3097  19.731   3.835   0.320
41567W        W 3098  39.438  16.184   3.739
41568W        W 3099  37.931   1.481  13.012
41569W        W 3100   2.729  20.553  11.477
41570W        W 3101  11.785  23.220   1.356
41571W        W 3102  22.037  27.520  13.904
41572W        W 3103  27.497  17.207   0.355
41573W        W 3104  31.424  33.882  14.765
41574W        W 3105  38.497  11.204  14.474
41575W        W 3106  28.072  39.810  11.609
41576W        W 3107  24.684   9.155   4.142
41577W        W 3108  17.249   5.766  11.868
41578W        W 3109   7.902   1.367   4.756
41579W        W 3110  25.193  40.922   1.237
41580W        W 3111  28.530  43.304   2.401
41581W        W 3112  35.977  39.828  12.924
41582W        W 3113  34.896  24.217   2.234
41583W        W 3114  19.619  41.939   2.811
41584W        W 3115  19.711  31.426  14.953
41585W        W 3116   4.432  17.642  14.476
41586W        W 3117   5.926   5.294   1.379
41587W        W 3118  43.357  19.156  11.120
41588W        W 3119  11.129   0.256   1.422
41589W        W 3120  18.106   1.897   1.314
41590W        W 3121  32.012  38.985  14.015
41591W        W 3122  15.667  40.962  12.563
41592W        W 3123  29.494  44.418   3.668
41593W        W 3124  37.830  26.515   2.902
41594W        W 3125  37.992  10.669  11.443
41595W        W 3126  34.065   1.855  11.393
41596W        W 3127  44.815   3.246   1.426
41597W        W 3128  40.433  27.116   3.727
41598W        W 3129  37.018  12.236   3.785
41599W        W 3130   0.770  37.531  11.575
41600W        W 3131   2.327  30.951  12.528
41601W        W 3132  42.354  23.153  13.861
41602W        W 3133   6.414   2.826  10.591
41603W        W 3134  37.505  31.015  13.356
41604W        W 3135  23.638  38.524   1.401
41605W        W 3136   6.697   7.839  12.397
41606W        W 3137  38.416  13.309  10.960
41607W        W 3138  39.511  15.669  11.498
41608W        W 3139  35.465   2.292   1.441
41609W        W 3140   0.760  15.583   3.800
41610W        W 3141  27.656  22.183   1.853
41611W        W 3142  30.978  33.593   0.319
41612W        W 3143  18.127  22.236  11.030
41613W        W 3144  27.526  26.541   3.762
41614W        W 3145  16.255   6.857   1.794
41615W        W 3146  33.921   3.300  12.932
41616W        W 3147   9.740   5.781   0.853
41617W        W 3148  39.838  32.623   1.877
41618W        W 3149  28.495  15.731   4.639
41619W        W 3150   7.910   8.394   1.306
41620W        W 3151  32.033  31.633   1.864
41621W        W 3152   1.244  32.624   3.784
41622W        W 3153  14.290  11.232   0.902
41623W        W 3154   6.353  22.503  12.455
41624W        W 3155   5.917  29.626  14.354
41625W        W 3156   0.785  16.304  10.431
41626W        W 3157  40.483  38.914  12.019
41627W        W 3158   1.929  31.582   1.262
41628W        W 3159  26.150   2.801   1.230
41629W        W 3160  40.973  36.372  13.463
41630W        W 3161   4.906  39.018   3.159
41631W        W 3162  18.726  21.132  12.931
41632W        W 3163  29.093  43.922   4.756
41633W        W 3164  25.660  36.421  11.376
41634W        W 3165  40.811  26.174  14.955
41635W        W 3166  10.758  28.139  13.496
41636W        W 3167   0.959  40.501  11.064
41637W        W 3168  34.867  16.264  11.921
41638W        W 3169  40.843  12.303   4.257
41639W        W 3170  18.572  33.513   4.753
41640W        W 3171   4.797  16.736   3.815
41641W        W 3172  31.972  14.106   2.334
41642W        W 3173   3.461   4.852  13.468
41643W        W 3174  32.630  25.619   1.311
41644W        W 3175  24.529  11.828   3.833
41645W        W 3176  30.567  21.593  12.042
41646W        W 3177  18.561  17.174  13.398
41647W        W 3178  32.932  36.466   4.267
41648W        W 3179  25.028  14.268  10.492
41649W        W 3180   9.202  35.574   3.258
41650W        W 3181   2.340  39.389   0.840
41651W        W 3182   8.279   2.426   0.742
41652W        W 3183  33.954   4.861  12.053
41653W        W 3184  43.802   6.336  13.490
41654W        W 3185  15.090  17.129   0.902
41655W        W 3186   8.657   8.290  11.478
41656W        W 3187   8.241  11.371  13.011
41657W        W 3188  29.945  37.528  11.434
41658W        W 3189  12.660  18.283   1.924
41659W        W 3190  30.434  34.385   0.812
41660W        W 3191  40.319  30.126  14.027
41661W        W 3192  15.760   7.887   0.913
41662W        W 3193  33.111  14.620   4.212
41663W        W 3194  17.275  44.991   0.752
41664W        W 3195  21.106   3.258  12.019
41665W        W 3196  44.344  21.626  12.560
41666W        W 3197  38.347  36.085  13.986
41667W        W 3198   4.744   9.341   4.705
41668W        W 3199  13.231  32.571  13.525
41669W        W 3200   1.310  39.874   3.838
41670W        W 3201  42.429  20.270  10.595
41671W        W 3202  35.944  41.388  10.538
41672W        W 3203  40.834  42.010  12.476
41673W        W 3204  40.854  38.344  11.080
41674W        W 3205  35.030   7.298   3.814
41675W        W 3206  16.252   9.211   4.319
41676W        W 3207  25.032  18.560  10.486
41677W        W 3208   6.742  17.100   0.384
41678W        W 3209  25.118  36.958   2.339
41679W        W 3210  19.580  35.962   4.737
41680W        W 3211  18.097  21.638   3.300
41681W        W 3212   0.361  30.589   3.285
41682W        W 3213  42.985  10.165  11.487
41683W        W 3214  43.001  32.578  10.477
41684W        W 3215  21.226  24.671  11.578
41685W        W 3216  22.171  14.149   1.333
41686W        W 3217  35.473  21.078  12.900
41687W        W 3218  32.012  22.572  12.936
41688W        W 3219   2.413  15.215   1.389
41689W        W 3220  33.432  32.113  11.091
41690W        W 3221  24.153  11.241  14.299
41691W        W 3222  26.632   0.249  12.017
41692W        W 3223  24.035   1.798  13.516
41693W        W 3224  21.539  44.410   1.440
41694W        W 3225  10.731  32.391   4.684
41695W        W 3226  20.635  37.374   4.198
41696W        W 3227  10.269  13.653  13.431
41697W        W 3228   6.793  24.038   3.370
41698W        W 3229  12.307   1.898  14.901
41699W        W 3230   7.784  30.615  14.863
41700W        W 3231   8.237  16.746  14.461
41701W        W 3232   1.754  23.140  10.538
41702W        W 3233  13.773  38.535   3.339
41703W        W 3234  30.961  25.008  10.137
41704W        W 3235  44.912   6.265   2.867
41705W        W 3236   0.312  29.657  11.586
41706W        W 3237  42.851  25.126   2.201
41707W        W 3238  44.819   1.286   3.780
41708W        W 3239  14.684  29.005  11.597
41709W        W 3240  23.098   1.791  11.941
41710W        W 3241  29.596  12.197  14.999
41711W        W 3242  26.970  38.834  14.422
41712W        W 3243  12.790  44.331   4.113
41713W        W 3244  34.039  33.076   1.784
41714W        W 3245  43.826  43.859  14.029
41715W        W 3246   2.446  33.453  14.449
41716W        W 3247  28.668  17.225  10.968
41717W        W 3248  27.531  39.997   2.866
41718W        W 3249   9.864  40.468   4.123
41719W        W 3250  10.289  23.016   0.739
41720W        W 3251  24.578  14.304  12.093
41721W        W 3252   9.193   1.247  13.051
41722W        W 3253  20.554  17.745   1.317
41723W        W 3254   1.844  34.583   4.828
41724W        W 3255   8.162  37.858   4.156
41725W        W 3256  22.746   7.782   3.323
41726W        W 3257  35.905  11.814  11.911
41727W        W 3258  12.322  26.469   0.460
41728W        W 3259  14.802   6.810   2.193
41729W        W 3260  19.559  28.063   3.190
41730W        W 3261  12.160  44.907  11.030
41731W        W 3262  12.623  24.592   4.237
41732W        W 3263  26.112  36.841   1.861
41733W        W 3264  13.174  23.648  11.414
41734W        W 3265  14.267  32.127  14.855
41735W        W 3266  15.327  28.142   2.378
41736W        W 3267  33.495  39.822  14.884
41737W        W 3268  38.048   9.653  12.073
41738W        W 3269  36.855  40.464   0.735
41739W        W 3270  18.768  44.903  13.877
41740W        W 3271  36.402   3.882   0.904
41741W        W 3272  24.483  44.994   1.428
41742W        W 3273  22.617  10.751  13.381
41743W        W 3274   8.375   4.440  13.859
41744W        W 3275  38.449  15.744   0.889
41745W        W 3276   1.265  42.972  12.347
41746W        W 3277  24.127  33.118   1.889
41747W        W 3278   0.882  17.800  13.402
41748W        W 3279  20.204  38.516  11.462
41749W        W 3280  26.109  11.195  12.878
41750W        W 3281  33.033  19.754   0.766
41751W        W 3282  40.804  24.985   2.851
41752W        W 3283  36.572   5.711   4.625
41753W        W 3284  22.174  12.166   0.901
41754W        W 3285  37.443  43.853   4.838
41755W        W 3286  25.633  29.510  13.423
41756W        W 3287   4.931  17.784  12.384
41757W        W 3288  13.106  40.387   2.736
41758W        W 3289   9.221  33.985  12.525
41759W        W 3290   1.771  30.145   4.832
41760W        W 3291  35.441   9.758  13.871
41761W        W 3292  26.031  32.946  13.006
41762W        W 3293  24.982   0.397  13.816
41763W        W 3294  41.826   4.207  13.986
41764W        W 3295  34.529  25.134  11.380
41765W        W 3296   4.308  20.246  14.377
41766W        W 3297   8.812  20.064  12.503
41767W        W 3298  31.915  35.421  11.431
41768W        W 3299  14.636   1.286  14.337
41769W        W 3300   8.215   6.782  14.368
41770W        W 3301   8.375  10.148  11.920
41771W        W 3302  30.507  37.539  13.031
41772W        W 3303  15.218  17.080   4.616
41773W        W 3304  30.584  27.509  14.764
41774W        W 3305  24.631  12.307   1.355
41775W        W 3306  22.193  18.136   0.901
41776W        W 3307   3.766   4.227  12.039
41777W        W 3308  33.558  34.054   1.901
41778W        W 3309  14.099  10.211   1.857
41779W        W 3310   7.238  29.622  14.433
41780W        W 3311  31.553   7.280  11.590
41781W        W 3312  12.216   0.814   0.923
41782W        W 3313  16.772  31.995  12.484
41783W        W 3314  40.802  14.117  14.389
41784W        W 3315  28.633   7.724  14.963
41785W        W 3316  13.190  39.460   2.698
41786W        W 3317   3.270  21.032  10.632
41787W        W 3318  27.658  20.724   2.256
41788W        W 3319  19.751  36.058   3.780
41789W        W 3320  24.657  32.007   0.371
41790W        W 3321   9.263  38.387   1.442
41791W        W 3322  24.697  23.564  10.625
41792W        W 3323  11.145  32.956  11.429
41793W        W 3324  34.420  30.145   4.738
41794W        W 3325  35.467  27.060  10.533
41795W        W 3326  14.291  17.713   4.836
41796W        W 3327  34.439   8.217  12.062
41797W        W 3328  36.532   0.270  10.153
41798W        W 3329   3.384  31.405   2.214
41799W        W 3330   8.214  34.115  10.503
41800W        W 3331  30.065  33.119  11.101
41801W        W 3332  44.451  19.665   4.769
41802W        W 3333  30.480  35.526   1.211
41803W        W 3334  18.628  31.971   3.634
41804W        W 3335  16.729  31.147   1.231
41805W        W 3336   5.760   0.357   1.288
41806W        W 3337  12.703  44.334  13.901
41807W        W 3338  35.885  25.644  12.417
41808W        W 3339  41.439  12.810  12.341
41809W        W 3340   3.786  10.691  14.393
41810W        W 3341  42.351   9.238  12.958
41811W        W 3342  26.485  32.499  13.861
41812W        W 3343   6.855  36.069  13.038
41813W        W 3344   2.741  43.903   1.870
41814W        W 3345  32.466  21.216   3.791
41815W        W 3346  29.150  20.660  13.914
41816W        W 3347  27.954  29.543  12.841
41817W        W 3348  34.104  27.167   3.343
41818W        W 3349  18.079   6.867   3.202
41819W        W 3350  42.856  21.232   1.266
41820W        W 3351  43.858  19.117   2.711
41821W        W 3352  26.564  37.955  11.485
41822W        W 3353  13.599   4.274  12.554
41823W        W 3354  13.659   2.396   4.229
41824W        W 3355  35.917  37.579   3.759
41825W        W 3356  19.105  35.001  14.370
41826W        W 3357  29.937  37.957  11.029
41827W        W 3358   0.328  39.502   1.825
41828W        W 3359  29.608  42.800   2.313
41829W        W 3360  29.647  13.327  10.530
41830W        W 3361  36.413   6.794   3.268
41831W        W 3362  33.110   1.881  14.819
41832W        W 3363  13.816  24.566  14.939
41833W        W 3364  31.604   5.203   2.354
41834W        W 3365  42.808  18.134  14.801
41835W        W 3366  12.695  23.212   3.724
41836W        W 3367  19.268  22.670  12.929
41837W        W 3368  15.720  37.900  13.326
41838W        W 3369  27.032  35.030   1.789
41839W        W 3370  11.837  12.270  12.496
41840W        W 3371  15.300  21.069   4.254
41841W        W 3372   0.782  33.074  13.539
41842W        W 3373  18.182   9.701   2.383
41843W        W 3374  15.790  30.496   5.228
41844W        W 3375  20.725  27.660   3.708
41845W        W 3376   3.379  34.480  12.494
41846W        W 3377  36.985   2.964   4.758
41847W        W 3378   5.375   3.756   2.381
41848W        W 3379   3.243   9.819   4.731
41849W        W 3380  24.479  28.606  14.835
41850W        W 3381  28.110   4.746   0.455
41851W        W 3382  20.764  39.527   2.220
41852W        W 3383  44.391  36.978   3.822
41853W        W 3384  44.289  31.618   1.920
41854W        W 3385  36.392  35.488   3.632
41855W        W 3386   7.727   1.846  13.497
41856W        W 3387  28.979  11.819  14.378
41857W        W 3388  40.898  27.018   0.939
41858W        W 3389  37.522  19.610  11.059
41859W        W 3390  38.869  36.880  13.385
41860W        W 3391  30.574  10.734  13.309
41861W        W 3392  27.129   5.872   0.368
41862W        W 3393   8.262   7.338  11.467
41863W        W 3394  36.509  26.000  13.035
41864W        W 3395   8.896   8.251  13.470
41865W        W 3396  27.626  18.560  14.359
41866W        W 3397  12.842  10.737  11.509
41867W        W 3398   2.424   1.326   1.851
41868W        W 3399  10.186  34.949   4.206
41869W        W 3400  22.537  23.499  10.096
41870W        W 3401  28.042  16.756   0.297
41871W        W 3402  12.248  37.362  12.479
41872W        W 3403  34.464  20.194  12.048
41873W        W 3404  44.885  32.597  14.510
41874W        W 3405  41.469  10.188   4.138
41875W        W 3406  25.537  37.570   2.286
41876W        W 3407  18.579  27.018   5.177
41877W        W 3408  21.584   0.427   0.925
41878W        W 3409   9.303  42.917   3.284
41879W        W 3410  11.242  39.511   2.874
41880W        W 3411  24.169  41.293   2.291
41881W        W 3412  38.479   6.905   3.236
41882W        W 3413   1.828   1.309   4.706
41883W        W 3414  21.116  24.201   4.304
41884W        W 3415  18.581  10.164   2.847
41885W        W 3416  29.585  15.621   1.860
41886W        W 3417  12.778  25.649  14.905
41887W        W 3418   7.226  20.645   3.775
41888W        W 3419  35.904  21.030   3.868
41889W        W 3420   5.792  26.651  14.801
41890W        W 3421   0.963  24.985   1.756
41891W        W 3422  27.476  24.151   1.902
41892W        W 3423   7.275  34.506   3.212
41893W        W 3424  14.288  31.084   3.705
41894W        W 3425  37.400  44.441  11.071
41895W        W 3426  42.966  24.676   3.679
41896W        W 3427  37.031  41.536   1.389
41897W        W 3428  10.165  13.315   5.123
41898W        W 3429  37.480  14.608  12.928
41899W        W 3430  12.301  32.599  11.990
41900W        W 3431  31.105  38.362   1.245
41901W        W 3432  40.879   8.390  11.430
41902W        W 3433  40.421  11.334  12.006
41903W        W 3434  25.164  10.676   2.401
41904W        W 3435   1.806  27.193  14.764
41905W        W 3436  10.703  34.079   3.812
41906W        W 3437  38.062  10.636   4.237
41907W        W 3438   1.268  11.692   2.775
41908W        W 3439   1.957  10.655  13.033
41909W        W 3440  20.575  21.261  14.970
41910W        W 3441  33.432  41.485   5.186
41911W        W 3442   9.838  22.101   3.319
41912W        W 3443  15.806   9.272  12.347
41913W        W 3444  40.845   5.799   0.286
41914W        W 3445  12.297  16.227   0.407
41915W        W 3446  25.569  35.004  12.576
41916W        W 3447  39.371   8.854   2.396
41917W        W 3448  11.756  34.052  11.990
41918W        W 3449   8.775  11.687  14.007
41919W        W 3450  35.491  19.241  11.549
41920W        W 3451  12.178   6.241   1.885
41921W        W 3452  36.872  32.031  13.029
41922W        W 3453   4.701  11.770  10.045
41923W        W 3454  12.630  40.400   3.629
41924W        W 3455  28.112  11.284   1.213
41925W        W 3456   8.833   2.427   2.802
41926W        W 3457   3.878  31.444  10.457
41927W        W 3458  20.235  36.874  13.464
41928W        W 3459  41.948  44.965   0.385
41929W        W 3460  44.990  16.111  12.054
41930W        W 3461  19.713  17.251  10.562
41931W        W 3462  18.119  19.672  14.018
41932W        W 3463  24.198   0.774   4.627
41933W        W 3464   0.753  17.598   4.601
41934W        W 3465  34.051  12.222   4.621
41935W        W 3466   0.424  40.942  12.917
41936W        W 3467  42.808  32.577  12.524
41937W        W 3468   5.695  11.350   4.212
41938W        W 3469  28.989  23.538  14.498
41939W        W 3470   3.799  11.357  12.392
41940W        W 3471  30.626  29.605  13.963
41941W        W 3472  33.902  36.431  11.565
41942W        W 3473  12.633  29.480  11.516
41943W        W 3474   3.764  13.327   3.785
41944W        W 3475  13.721  32.103  12.452
41945W        W 3476  42.520  21.206   0.759
41946W        W 3477  43.361   9.357   0.404
41947W        W 3478  16.201  35.469  11.073
41948W        W 3479  32.452  33.021  12.985
41949W        W 3480  32.001  18.290   1.874
41950W        W 3481   9.821  25.971  12.388
41951W        W 3482  23.637  23.080   3.308
41952W        W 3483  24.977  30.465   9.990
41953W        W 3484  27.031   0.932   3.380
41954W        W 3485   4.377  31.081   3.734
41955W        W 3486  35.055  36.519  14.963
41956W        W 3487  36.357  25.140  14.409
41957W        W 3488  22.628  32.403   1.421
41958W        W 3489  10.325  43.860  11.377
41959W        W 3490  10.837  17.790  12.995
41960W        W 3491   7.364   7.713  13.917
41961W        W 3492   1.320  29.492   1.722
41962W        W 3493   0.907  36.470  13.929
41963W        W 3494  17.799  33.564   4.766
41964W        W 3495  34.559  28.045   2.668
41965W        W 3496  25.675  28.973   1.717
41966W        W 3497  34.084  22.108  11.524
41967W        W 3498  13.243  33.603  13.475
41968W        W 3499  24.158  13.165   0.456
41969W        W 3500   7.290  23.189  12.854
41970W        W 3501  39.463  25.531  12.449
41971W        W 3502  13.178  11.783  14.312
41972W        W 3503  29.010   2.913   3.841
41973W        W 3504  32.892  38.516  11.884
41974W        W 3505  23.660  40.309  14.915
41975W        W 3506  20.658   8.827   4.318
41976W        W 3507   3.308  40.537  13.891
41977W        W 3508  11.706  26.063   2.255
41978W        W 3509  33.015  44.362   2.693
41979W        W 3510  20.164   2.920  12.936
41980W        W 3511  17.129  24.128  12.849
41981W        W 3512  18.223  31.919   3.771
41982W        W 3513   8.899  25.707  11.602
41983W        W 3514  14.790   1.258  12.451
41984W        W 3515  18.782  40.366  13.491
41985W        W 3516  42.802  26.157  10.919
41986W        W 3517  27.170  35.856  12.893
41987W        W 3518  21.056   5.802   1.706
41988W        W 3519   5.438  13.801   4.131
41989W        W 3520  44.941  27.992   4.333
41990W        W 3521  18.598  28.104  13.478
41991W        W 3522  35.567   2.736   4.138
41992W        W 3523  11.283  25.665   2.690
41993W        W 3524  44.767  43.313  10.407
41994W        W 3525   4.335  33.902   1.215
41995W        W 3526  40.509  44.335  13.958
41996W        W 3527  42.918   2.263  11.997
41997W        W 3528  18.148   3.304  13.907
41998W        W 3529   5.834  31.608  11.452
41999W        W 3530  14.291  42.316  11.121
42000W        W 3531  12.271  43.780  13.370
42001W        W 3532   5.278  29.475   1.849
42002W        W 3533  21.684  13.834  13.062
42003W        W 3534  33.089  34.576  13.452
42004W        W 3535   3.367   1.278  13.327
42005W        W 3536  25.609  11.211   1.370
42006W        W 3537  21.527  40.804   4.236
42007W        W 3538  36.587  37.057   2.672
42008W        W 3539   0.742  35.936   5.163
42009W        W 3540  29.109  39.486  10.998
42010W        W 3541  26.596  33.596   0.874
42011W        W 3542  30.118  29.438   4.660
42012W        W 3543  24.070   3.921   3.702
42013W        W 3544  25.567   3.456  12.411
42014W        W 3545   0.817  33.423   1.740
42015W        W 3546   5.882   3.238  13.962
42016W        W 3547  21.712   9.153   1.339
42017W        W 3548  35.887  43.322   5.193
42018W        W 3549  20.152  20.136  11.446
42019W        W 3550  38.007   6.412  14.780
42020W        W 3551   0.925  24.118  10.556
42021W        W 3552   2.428  31.092  13.950
42022W        W 3553  12.741   5.388  13.864
42023W        W 3554   9.268  20.267   3.723
42024W        W 3555  39.477  36.962   2.692
42025W        W 3556  31.154  39.471  14.883
42026W        W 3557  25.622  17.675  13.965
42027W        W 3558  19.119  15.224   3.184
42028W        W 3559  22.151  15.772   1.820
42029W        W 3560   5.222  42.994   2.842
42030W        W 3561  35.582  35.048  11.452
42031W        W 3562  19.570  33.619   0.729
42032W        W 3563  42.518  12.184  13.809
42033W        W 3564   4.370  12.716   3.701
42034W        W 3565  39.051   2.372   5.139
42035W        W 3566  13.249   4.883   0.265
42036W        W 3567  12.158  13.666   1.393
42037W        W 3568   7.211   1.392   1.720
42038W        W 3569  44.315  43.765  14.993
42039W        W 3570  21.694  11.334   1.243
42040W        W 3571  32.009   8.175   4.354
42041W        W 3572   3.719  31.435  11.034
42042W        W 3573  39.935  27.062  12.568
42043W        W 3574  27.506  32.586   3.844
42044W        W 3575  22.510  36.005  13.848
42045W        W 3576   2.471   3.327   1.891
42046W        W 3577  18.771  10.854  11.877
42047W        W 3578   0.337  41.307   4.348
42048W        W 3579  43.432  10.337   2.816
42049W        W 3580  33.564  17.110  11.018
42050W        W 3581   3.328  22.522  12.437
42051W        W 3582  32.568  35.954  11.866
42052W        W 3583  12.735  29.988  10.983
42053W        W 3584  19.718   6.232   5.103
42054W        W 3585  29.522  26.500   4.831
42055W        W 3586  37.346  40.458   1.793
42056W        W 3587  42.361  38.024  12.944
42057W        W 3588  42.451  10.663  11.487
42058W        W 3589   3.221  37.925   5.317
42059W        W 3590  39.445  42.338   0.296
42060W        W 3591   2.451   3.907  10.915
42061W        W 3592   3.354  15.176  11.049
42062W        W 3593  24.648  33.489  10.629
42063W        W 3594  20.648  34.391  13.812
42064W        W 3595  38.452   7.402  13.509
42065W        W 3596  35.580  14.669   3.273
42066W        W 3597  41.332  40.381   1.309
42067W        W 3598  18.233  22.244   4.626
42068W        W 3599   3.309   6.358  11.902
42069W        W 3600  35.953  31.405   4.212
42070W        W 3601  20.071  23.179   3.826
42071W        W 3602   2.901   7.251  12.903
42072W        W 3603  41.798  22.676  14.460
42073W        W 3604  15.150  41.824  12.932
42074W        W 3605  25.183  18.737  11.574
42075W        W 3606  27.069  30.444   5.643
42076W        W 3607   7.719  23.635  14.438
42077W        W 3608  15.186  30.101  13.947
42078W        W 3609  30.642  25.488   2.310
42079W        W 3610  14.745  16.313   2.708
42080W        W 3611  11.314   0.284   4.349
42081W        W 3612   3.926  13.605  11.444
42082W        W 3613  42.826  28.537  10.892
42083W        W 3614  33.958  29.924  11.876
42084W        W 3615  40.332  40.884   2.284
42085W        W 3616  32.423  43.493   1.731
42086W        W 3617  26.171  17.155  11.950
42087W        W 3618  44.303   5.792  11.004
42088W        W 3619  35.046   4.943   1.375
42089W        W 3620   4.327   7.668   4.792
42090W        W 3621  35.983  25.996   1.724
42091W        W 3622  31.144  30.980   3.236
42092W        W 3623  29.063  15.116   1.863
42093W        W 3624  29.926   7.876   5.631
42094W        W 3625   1.746  26.177  13.433
42095W        W 3626  24.065  40.034  12.987
42096W        W 3627  12.616  33.430   5.238
42097W        W 3628  18.725   6.314   1.781
42098W        W 3629  36.470  30.645   2.216
42099W        W 3630  14.170   6.704   4.186
42100W        W 3631  11.313  36.915   0.961
42101W        W 3632  20.228  26.534   1.364
42102W        W 3633  40.902  21.256  10.993
42103W        W 3634  30.025   0.986  13.386
42104W        W 3635   8.249  43.860   4.775
42105W        W 3636  15.296  24.175  11.967
42106W        W 3637  23.034  12.225   2.795
42107W        W 3638  18.225  37.350   3.838
42108W        W 3639  25.173  42.862  14.442
42109W        W 3640  42.458  29.436  11.383
42110W        W 3641  34.949  24.667  14.441
42111W        W 3642  14.218  43.907   1.747
42112W        W 3643  25.983  10.779  11.404
42113W        W 3644  43.318  28.016   2.706
42114W        W 3645  14.804  42.839  11.416
42115W        W 3646  42.341  20.722  14.276
42116W        W 3647  43.494  20.744   3.381
42117W        W 3648  22.680   2.794  12.020
42118W        W 3649  16.658  18.594   0.960
42119W        W 3650  10.315   1.408   2.285
42120W        W 3651   3.859  10.700  14.989
42121W        W 3652  40.997   9.811   2.893
42122W        W 3653  20.079  41.904   1.348
42123W        W 3654  44.462  24.138   3.636
42124W        W 3655  28.565   9.686  12.009
42125W        W 3656  19.197  33.502  12.364
42126W        W 3657   9.321  33.954   0.344
42127W        W 3658  43.426  21.253  12.893
42128W        W 3659  17.205  29.991   3.857
42129W        W 3660  42.395   3.843  12.050
42130W        W 3661  34.965  29.514   2.695
42131W        W 3662  11.317  10.240  13.420
42132W        W 3663  24.086   7.303   4.627
42133W        W 3664  23.527  26.466  11.464
42134W        W 3665  32.033  26.471  11.935
42135W        W 3666   5.758  11.833  12.963
42136W        W 3667  16.146  33.545   1.760
42137W        W 3668  39.844  12.809  10.445
42138W        W 3669  39.482  33.616  10.131
42139W        W 3670  37.414  35.555   1.322
42140W        W 3671  42.356   4.408   1.928
42141W        W 3672  23.043  40.899   3.746
42142W        W 3673  39.857  40.042  12.527
42143W        W 3674  29.483  10.319   2.393
42144W        W 3675   8.763   5.726   1.761
42145W        W 3676  37.085  22.643   4.152
42146W        W 3677  25.170  28.969  10.980
42147W        W 3678   2.721  30.954   1.753
42148W        W 3679  12.168  13.175  14.415
42149W        W 3680  32.973  39.425  10.469
42150W        W 3681  29.643  16.585  10.938
42151W        W 3682  33.458  33.547   2.334
42152W        W 3683  30.608  11.225  12.487
42153W        W 3684   9.362  35.901  10.901
42154W        W 3685  11.665  13.827  13.049
42155W        W 3686  19.622  19.243   1.743
42156W        W 3687  41.901  30.990  10.496
42157W        W 3688  29.669   2.308  11.014
42158W        W 3689  33.923  22.193   4.193
42159W        W 3690  37.968  21.518   2.212
42160W        W 3691  41.388  37.081  14.487
42161W        W 3692  22.101  34.045  11.595
42162W        W 3693  15.729  42.844   3.803
42163W        W 3694   2.387  27.144   4.768
42164W        W 3695  28.669   9.210  13.505
42165W        W 3696  14.195   7.247   1.888
42166W        W 3697   5.842  41.460  14.376
42167W        W 3698  44.961  17.219  14.491
42168W        W 3699  27.490  14.805   3.645
42169W        W 3700  11.699   6.312  10.584
42170W        W 3701   7.873   2.415   4.828
42171W        W 3702  22.183  14.701  13.547
42172W        W 3703   3.301   0.908   0.262
42173W        W 3704  37.832  26.998   0.287
42174W        W 3705  43.802   3.812   4.818
42175W        W 3706  24.111  26.613   2.664
42176W        W 3707  17.721  27.088   2.269
42177W        W 3708  35.858  36.852  13.371
42178W        W 3709  23.576  42.361   0.375
42179W        W 3710  43.460  43.487  12.840
42180W        W 3711  18.103  20.098   0.393
42181W        W 3712  36.354  22.050   3.856
42182W        W 3713  14.304  23.174   2.882
42183W        W 3714  21.240  25.112   4.174
42184W        W 3715  21.216  15.188  10.464
42185W        W 3716  43.984  16.296  12.913
42186W        W 3717  12.734  31.455   2.204
42187W        W 3718   4.373   9.323  11.916
42188W        W 3719  31.570  44.422   0.331
42189W        W 3720  27.076  24.672   4.316
42190W        W 3721  32.137  11.248  11.862
42191W        W 3722  14.242   9.712  13.828
42192W        W 3723  18.248  38.430   3.720
42193W        W 3724  34.504  10.247   9.963
42194W        W 3725  28.004  21.531   0.467
42195W        W 3726  24.206  13.780   1.768
42196W        W 3727  32.550  34.390  12.055
42197W        W 3728  15.765   1.462   1.242
42198W        W 3729  37.993  14.151   4.135
42199W        W 3730  42.935  28.153  12.551
42200W        W 3731  19.123  21.029   0.904
42201W        W 3732  19.588  14.799   3.779
42202W        W 3733  14.094  40.333   4.176
42203W        W 3734  17.711  38.384   3.266
42204W        W 3735  44.463  44.877  10.952
42205W        W 3736   1.838  13.257   4.758
42206W        W 3737  10.349  36.379   0.439
42207W        W 3738  13.216  26.192  14.317
42208W        W 3739  24.108   1.327  13.858
42209W        W 3740  10.243  20.044  11.111
42210W        W 3741  15.610  17.597   3.819
42211W        W 3742  44.787  12.155  11.866
42212W        W 3743   1.734   2.762  13.915
42213W        W 3744  19.091  39.941  14.515
42214W        W 3745   2.843  13.793   3.648
42215W        W 3746  29.114   9.829   1.882
42216W        W 3747  42.391   9.683   4.268
42217W        W 3748  22.243  23.490   3.749
42218W        W 3749  25.040  36.503  14.276
42219W        W 3750  38.009  28.117   4.695
42220W        W 3751  15.086  18.633   3.335
42221W        W 3752  33.438  29.043  11.449
42222W        W 3753  37.057  40.969  11.929
42223W        W 3754  42.935  14.173  12.988
42224W        W 3755  27.134  14.209   3.346
42225W        W 3756  27.500   9.727   2.274
42226W        W 3757  24.716  18.094   0.816
42227W        W 3758  16.623  13.627   0.316
42228W        W 3759  24.097   1.417   0.376
42229W        W 3760   5.194  26.969   3.646
42230W        W 3761  34.597  43.411   1.862
42231W        W 3762  19.277  41.427   0.906
42232W        W 3763  31.991  40.894   3.279
42233W        W 3764  38.328  15.716  13.828
42234W        W 3765  44.908  14.123  11.396
42235W        W 3766  12.242  18.726  14.873
42236W        W 3767  26.190  19.584   2.185
42237W        W 3768  27.551  15.092  12.019
42238W        W 3769  19.634  24.586  12.931
42239W        W 3770  21.134   9.708  13.852
42240W        W 3771  15.139  11.232   3.767
42241W        W 3772  14.192  44.955  11.582
42242W        W 3773  11.160  32.602  12.080
42243W        W 3774  25.978  38.419   4.287
42244W        W 3775  44.865   2.862  13.508
42245W        W 3776   6.234  44.434  11.880
42246W        W 3777   1.252   4.350  14.360
42247W        W 3778  36.576   7.362  13.007
42248W        W 3779  38.550  12.619  14.931
42249W        W 3780  23.718  12.320   3.729
42250W        W 3781  31.455  32.111  13.487
42251W        W 3782  37.888  24.596   3.358
42252W        W 3783  27.191  29.497   4.192
42253W        W 3784  37.437  27.618  11.380
42254W        W 3785  33.564  41.375  14.302
42255W        W 3786  10.788  25.152  11.408
42256W        W 3787   7.800   6.273  14.477
42257W        W 3788   8.286  34.035  13.023
42258W        W 3789  15.723   5.326   4.833
42259W        W 3790  43.959  17.777  12.444
42260W        W 3791  27.464  11.820  13.340
42261W        W 3792  39.811  36.047   3.708
42262W        W 3793   0.427  28.107   2.329
42263W        W 3794  39.410  15.818   1.339
42264W        W 3795  26.152   7.179   0.777
42265W        W 3796   8.241  37.545   0.869
42266W        W 3797  34.487   6.198  13.512
42267W        W 3798  37.981  19.753   3.765
42268W        W 3799  37.422  42.969  11.430
42269W        W 3800  14.225  30.617   3.337
42270W        W 3801  10.208   9.741  11.036
42271W        W 3802  37.967  22.501   3.302
42272W        W 3803  18.228   0.952   1.279
42273W        W 3804  43.871  12.834   0.893
42274W        W 3805  42.432  14.720   4.720
42275W        W 3806  44.263  20.654   4.191
42276W        W 3807  26.107  34.035  12.992
42277W        W 3808  16.808  10.205  12.546
42278W        W 3809   6.226  43.849  14.313
42279W        W 3810  16.639  15.755  10.971
42280W        W 3811   0.432  22.610   0.249
42281W        W 3812   4.931  44.497  12.828
42282W        W 3813  29.541  35.050   4.334
42283W        W 3814  30.624   8.331  12.516
42284W        W 3815  40.797  26.047  13.853
42285W        W 3816  18.644  27.995  14.811
42286W        W 3817   1.911  42.463   2.400
42287W        W 3818   4.422   0.799   4.600
42288W        W 3819   0.382   7.199  12.550
42289W        W 3820  13.162  10.848  11.080
42290W        W 3821  42.984  36.080  11.545
42291W        W 3822  20.033  34.379  14.983
42292W        W 3823   5.905   0.945   3.337
42293W        W 3824   7.694  25.107  11.080
42294W        W 3825  12.288  41.862   3.778
42295W        W 3826  20.056  15.110  12.854
42296W        W 3827  26.117  38.044   1.849
42297W        W 3828   0.254  27.543   1.222
42298W        W 3829   0.802  38.050   2.274
42299W        W 3830  14.103  37.963  12.432
42300W        W 3831   1.445  32.436  14.407
42301W        W 3832  25.635  42.475   4.332
42302W        W 3833   8.731  37.958   0.761
42303W        W 3834  17.126  34.110  14.394
42304W        W 3835  11.860  27.099   3.642
42305W        W 3836  30.458  38.481   3.243
42306W        W 3837   0.986   6.294   0.368
42307W        W 3838  12.203  41.393   4.819
42308W        W 3839   8.371  23.077   1.350
42309W        W 3840   2.375  11.264   1.210
42310W        W 3841  30.955  29.070  14.859
42311W        W 3842   5.402  31.959   2.402
42312W        W 3843  28.449  15.102   0.361
42313W        W 3844  12.698  36.403   1.444
42314W        W 3845  24.140  26.120   0.260
42315W        W 3846  37.994  23.105   1.768
42316W        W 3847  35.044  11.343  11.065
42317W        W 3848  44.346   0.263   3.298
42318W        W 3849   5.254  36.593  14.486
42319W        W 3850  43.358  31.608   0.405
42320W        W 3851  40.513  23.164   3.360
42321W        W 3852  42.944   4.316   3.717
42322W        W 3853  25.607  24.085  11.926
42323W        W 3854  29.526  41.000  13.509
42324W        W 3855  11.655   7.188   1.282
42325W        W 3856   3.410  17.787  11.868
42326W        W 3857   5.437   2.806   0.470
42327W        W 3858   1.447  44.769   2.733
42328W        W 3859  24.615  43.422  10.449
42329W        W 3860  44.345   6.683   2.396
42330W        W 3861   5.882  21.589   2.411
42331W        W 3862  28.603   3.356   4.209
42332W        W 3863  13.192   0.261   1.822
42333W        W 3864  17.285  23.496  12.039
42334W        W 3865  12.317   6.306   2.274
42335W        W 3866   2.409   8.807   0.401
42336W        W 3867  36.418  26.119  13.926
42337W        W 3868  36.874   1.471   2.363
42338W        W 3869   5.307  26.553  13.493
42339W        W 3870  38.516   5.915   4.749
42340W        W 3871  44.937   4.738   0.936
42341W        W 3872  39.540  26.695   0.857
42342W        W 3873   0.913  31.538  12.383
42343W        W 3874  22.724   1.844   2.182
42344W        W 3875  20.080   3.905  13.813
42345W        W 3876   6.347  40.534  11.077
42346W        W 3877   5.726  17.194   0.956
42347W        W 3878   4.831  42.895  12.841
42348W        W 3879  28.146  28.668   4.775
42349W        W 3880  34.949  21.102   0.773
42350W        W 3881  27.644  33.056  13.505
42351W        W 3882  25.028  12.267  14.947
42352W        W 3883  31.556  29.524   3.760
42353W        W 3884  24.509   3.411  13.841
42354W        W 3885  40.347  34.915   0.266
42355W        W 3886  21.136  28.597   2.218
42356W        W 3887   0.753   3.794  14.380
42357W        W 3888  21.196  37.072  14.787
42358W        W 3889  25.073   2.431  12.929
42359W        W 3890   4.937  28.436   4.180
42360W        W 3891  34.060  33.470   0.956
42361W        W 3892   4.318  25.133  10.940
42362W        W 3893  35.392  43.443   4.297
42363W        W 3894   4.915   0.375  12.431
42364W        W 3895   4.800  20.524  13.390
42365W        W 3896  34.422  17.089   2.267
42366W        W 3897   0.981   1.913   0.743
42367W        W 3898   1.864  25.103   0.950
42368W        W 3899  41.885  34.940   1.332
42369W        W 3900  21.190  25.578  13.488
42370W        W 3901  32.118  10.323  13.024
42371W        W 3902  38.499  40.500   2.387
42372W        W 3903  14.147  20.209   2.834
42373W        W 3904  42.965   6.321   4.822
42374W        W 3905  35.001   4.314   2.874
42375W        W 3906  33.037   0.464  12.421
42376W        W 3907  12.269  30.072   1.421
42377W        W 3908  27.071  16.616  14.766
42378W        W 3909  24.189  11.328   4.155
42379W        W 3910  17.685   8.728   4.277
42380W        W 3911  19.621  23.592   2.699
42381W        W 3912  18.111   7.275  10.411
42382W        W 3913   2.226   4.819  12.476
42383W        W 3914   9.335  44.488   0.250
42384W        W 3915  16.219  12.219  10.535
42385W        W 3916   3.233  25.712   2.248
42386W        W 3917  17.075  32.575   9.944
42387W        W 3918  14.244  37.934  14.893
42388W        W 3919  24.069  17.643   4.830
42389W        W 3920  43.972  43.347   4.738
42390W        W 3921  13.171  43.321  14.442
42391W        W 3922  17.579  26.629  10.913
42392W        W 3923   9.831  30.015  13.419
42393W        W 3924   7.198   9.394   4.632
42394W        W 3925   7.675   5.799  14.986
42395W        W 3926   6.220  41.860   4.719
42396W        W 3927  18.211  23.987  13.965
42397W        W 3928  17.213   9.832   2.275
42398W        W 3929  13.159  12.856   4.829
42399W        W 3930  44.503  42.465  12.394
42400W        W 3931  10.292  42.009   0.814
42401W        W 3932  25.526  31.014  11.381
42402W        W 3933  42.525  22.242   3.257
42403W        W 3934  23.694  14.230  12.048
42404W        W 3935  33.433  20.747  10.988
42405W        W 3936   5.238  24.140  12.932
42406W        W 3937  13.812   6.195   1.327
42407W        W 3938  21.531  41.438  11.407
42408W        W 3939  21.697  31.437   4.259
42409W        W 3940   9.805  31.603   2.276
42410W        W 3941   8.210  25.180  13.895
42411W        W 3942  24.501  42.354  14.459
42412W        W 3943  32.018  13.249   2.890
42413W        W 3944  12.704   8.296  12.387
42414W        W 3945  30.994  41.847   2.271
42415W        W 3946  33.927  18.770  13.922
42416W        W 3947  25.624  21.723   0.820
42417W        W 3948  32.495  21.169   5.269
42418W        W 3949  21.564  31.067   1.264
42419W        W 3950  14.834  41.837  13.940
42420W        W 3951  40.988  34.521   4.703
42421W        W 3952  38.398  11.194  11.418
42422W        W 3953  24.097  32.082   0.860
42423W        W 3954  37.471  31.905  10.579
42424W        W 3955  18.114  11.243   1.780
42425W        W 3956  27.040   6.836  14.490
42426W        W 3957  22.114  42.785  10.623
42427W        W 3958   0.809  35.081  11.447
42428W        W 3959  36.049  28.527  12.940
42429W        W 3960  20.561  31.484   0.396
42430W        W 3961   5.201  32.513  11.483
42431W        W 3962  33.074  25.524  11.022
42432W        W 3963  43.271  27.462   2.308
42433W        W 3964  33.923  41.338   0.353
42434W        W 3965  21.557  27.496  12.543
42435W        W 3966  25.491  34.488  14.409
42436W        W 3967   7.846  39.353   2.377
42437W        W 3968  27.533   3.340   3.787
42438W        W 3969  36.563  32.091   1.347
42439W        W 3970  10.807   5.712  13.032
42440W        W 3971   2.824   1.394   1.286
42441W        W 3972   9.303  27.624  13.033
42442W        W 3973  40.998  14.123  11.486
42443W        W 3974  40.342  30.046   4.649
42444W        W 3975  29.527  14.290  12.017
42445W        W 3976  11.771  38.337   1.740
42446W        W 3977  24.199  18.728   4.225
42447W        W 3978  35.541  15.315  13.895
42448W        W 3979  24.705   1.244   4.740
42449W        W 3980  37.366  36.927   1.706
42450W        W 3981   0.426  15.597   2.734
42451W        W 3982  25.620  32.440  13.886
42452W        W 3983  35.464  17.305  10.931
42453W        W 3984  12.334  10.699  14.855
42454W        W 3985  21.545  40.821   4.801
42455W        W 3986   5.916  34.117  12.444
42456W        W 3987  38.338  38.342   2.248
42457W        W 3988  34.968   1.885  10.422
42458W        W 3989   1.905   6.293   3.167
42459W        W 3990  38.856  23.179  13.516
42460W        W 3991  16.136  12.236   0.844
42461W        W 3992  14.707   2.860  12.066
42462W        W 3993   2.811   6.379   2.746
42463W        W 3994  37.578  29.993  11.514
42464W        W 3995  20.045  14.672   3.191
42465W        W 3996  37.030  40.950   0.826
42466W        W 3997  19.099  17.563   1.358
42467W        W 3998   7.791  36.506   3.808
42468W        W 3999   1.858   5.398   0.948
42469W        W 4000  12.309  39.554   0.285
42470W        W 4001  17.183   6.380   0.787
42471W        W 4002  13.712  16.270  14.863
42472W        W 4003  42.017  13.766  13.356
42473W        W 4004  29.592  32.130  11.873
42474W        W 4005  34.888   2.817  11.581
42475W        W 4006   0.921  29.460  11.494
42476W        W 4007   5.766  23.009   0.363
42477W        W 4008  26.483  22.526   0.268
42478W        W 4009  36.506  34.612   4.327
42479W        W 4010  32.592  38.538  12.383
42480W        W 4011  41.829   5.222   0.409
42481W        W 4012  35.467  29.059  13.347
42482W        W 4013  13.174  38.957  13.903
42483W        W 4014  33.539  20.030   4.759
42484W        W 4015  30.958  27.158  11.977
42485W        W 4016  31.125   2.401  10.533
42486W        W 4017  27.474   0.487  14.323
42487W        W 4018  26.620  25.621  14.335
42488W        W 4019  14.675  12.658   5.168
42489W        W 4020   7.221  14.235   3.190
42490W        W 4021   7.898  21.169   2.249
42491W        W 4022  24.677  13.119   4.339
42492W        W 4023  38.509  41.408   1.769
42493W        W 4024  37.579  23.550  14.883
42494W        W 4025  29.052  19.170  11.115
42495W        W 4026  19.263  24.062  14.352
42496W        W 4027  30.432  35.528   2.280
42497W        W 4028   5.699  37.496   2.296
42498W        W 4029  14.600  19.063   2.323
42499W        W 4030  27.109  31.564  14.877
42500W        W 4031  29.140   8.746   0.321
42501W        W 4032  11.370  34.039  13.041
42502W        W 4033  16.693  40.455   1.853
42503W        W 4034   5.884  14.270  12.040
42504W        W 4035  14.246  37.497  10.540
42505W        W 4036  15.623  14.737  14.975
42506W        W 4037   5.808   3.278   0.938
42507W        W 4038   3.280  39.498  12.420
42508W        W 4039  38.856  40.038  10.002
42509W        W 4040  37.006  11.743  14.287
42510W        W 4041   2.467  19.171  13.978
42511W        W 4042  35.538  19.550   1.400
42512W        W 4043  24.166   8.756   3.791
42513W        W 4044  30.048  41.337   3.193
42514W        W 4045   3.391  24.162  11.447
42515W        W 4046  32.467   0.380   4.337
42516W        W 4047  43.861  20.625  11.587
42517W        W 4048  42.393  42.428   4.238
42518W        W 4049  24.691  33.883   3.862
42519W        W 4050  44.851  24.574  11.982
42520W        W 4051  38.041  29.644   2.236
42521W        W 4052  20.549  41.377   1.728
42522W        W 4053   2.772  14.750   2.337
42523W        W 4054  40.356  39.872  14.766
42524W        W 4055   9.797  31.146   4.178
42525W        W 4056  12.681  15.144  14.471
42526W        W 4057  42.513  43.987   1.354
42527W        W 4058  39.372  35.049   4.331
42528W        W 4059   0.262  24.129  12.906
42529W        W 4060  28.104  35.485   2.285
42530W        W 4061  43.396  36.386  11.435
42531W        W 4062  24.138   9.768   2.753
42532W        W 4063   2.472  14.280  10.409
42533W        W 4064  28.590   8.353  14.907
42534W        W 4065  27.688  13.668   3.194
42535W        W 4066  11.685   9.832  10.475
42536W        W 4067  19.677  18.229  14.815
42537W        W 4068  43.289  33.879   0.883
42538W        W 4069   8.162   1.916   0.894
42539W        W 4070   7.855  40.050   0.266
42540W        W 4071  40.408   9.219   0.447
42541W        W 4072  26.027  37.410  14.283
42542W        W 4073  24.581  41.293   3.376
42543W        W 4074  17.560   8.388  13.859
42544W        W 4075  21.116  11.326  12.451
42545W        W 4076   5.718  40.455  10.446
42546W        W 4077   8.219  20.087   1.435
42547W        W 4078   9.156  26.542  12.503
42548W        W 4079   1.958  12.664   4.190
42549W        W 4080  31.051  17.783   0.770
42550W        W 4081  28.952   0.387  14.456
42551W        W 4082  19.267  41.904   4.182
42552W        W 4083  13.717  24.542   2.696
42553W        W 4084  40.406  17.292   1.286
42554W        W 4085  42.864  11.693  10.486
42555W        W 4086  34.971  13.677  13.990
42556W        W 4087  11.788  22.190   0.398
42557W        W 4088  37.956  11.774   0.811
42558W        W 4089  21.634   2.355  12.960
42559W        W 4090  18.100  11.769   0.858
42560W        W 4091  31.121  41.366   4.645
42561W        W 4092  22.112  38.397  14.992
42562W        W 4093   7.669  15.247  13.916
42563W        W 4094  43.323  29.438  12.028
42564W        W 4095  17.134  28.664   1.707
42565W        W 4096  18.661  26.193  12.457
42566W        W 4097  18.267  23.039   3.385
42567W        W 4098  44.488  29.540  12.406
42568W        W 4099  44.915  33.466  10.538
42569W        W 4100  17.271   8.734   3.638
42570W        W 4101  19.151   8.177   3.153
42571W        W 4102  20.561   8.315  13.055
42572W        W 4103   2.286  15.763  10.522
42573W        W 4104  21.054  28.077   0.738
42574W        W 4105  25.549  24.130  11.500
42575W        W 4106  31.987  17.682  11.415
42576W        W 4107  26.625   5.787  10.946
42577W        W 4108  33.412  26.609  11.883
42578W        W 4109  29.098  20.187  12.873
42579W        W 4110  24.555  42.980  12.828
42580W        W 4111  43.794  23.586   4.758
42581W        W 4112  44.827   0.808  10.051
42582W        W 4113  33.949  14.671   1.333
42583W        W 4114  25.686  44.810  14.429
42584W        W 4115  24.021  30.596   3.192
42585W        W 4116  44.824   6.416  12.069
42586W        W 4117  39.928   6.358   3.701
42587W        W 4118  38.333  26.048   1.719
42588W        W 4119  39.836  29.068   4.815
42589W        W 4120  14.323  21.097   2.772
42590W        W 4121  30.504  19.076   2.329
42591W        W 4122  43.922  19.666  14.282
42592W        W 4123  28.449  41.850   2.400
42593W        W 4124  23.676   8.302  10.645
42594W        W 4125  42.861  39.905  12.415
42595W        W 4126   4.936   4.275  14.935
42596W        W 4127  28.553  34.020  14.341
42597W        W 4128   7.714  15.745   0.324
42598W        W 4129   4.294  10.245   2.340
42599W        W 4130   6.408  19.216  10.634
42600W        W 4131  25.078  20.117  13.437
42601W        W 4132  40.511  22.046  14.012
42602W        W 4133  13.820  33.066   4.731
42603W        W 4134  44.962  29.651  13.057
42604W        W 4135   1.300  20.696  10.420
42605W        W 4136  43.959   6.686  14.980
42606W        W 4137   4.848  12.749   4.313
42607W        W 4138   4.837  23.713   3.384
42608W        W 4139  44.407  23.089   0.832
42609W        W 4140  29.592  26.085  11.041
42610W        W 4141  35.881  12.635  14.805
42611W        W 4142   0.286   4.829   2.317
42612W        W 4143  35.446  16.603  13.894
42613W        W 4144  15.219  26.167  11.117
42614W        W 4145   8.670   9.765  10.087
42615W        W 4146   5.419  28.525  14.437
42616W        W 4147  17.109  41.878   1.714
42617W        W 4148  18.785  31.007   0.798
42618W        W 4149  19.067  44.485   0.477
42619W        W 4150  16.627  17.646   0.430
42620W        W 4151  33.483  34.992  12.408
42621W        W 4152  34.904  15.730   1.879
42622W        W 4153  34.528  37.548   3.150
42623W        W 4154  37.382  17.800   2.830
42624W        W 4155  24.051  23.560  11.455
42625W        W 4156  40.374  18.672  13.447
42626W        W 4157  15.204   9.342   4.601
42627W        W 4158  30.499  40.948  11.593
42628W        W 4159  43.329  30.459   4.705
42629W        W 4160  18.645  39.509   4.127
42630W        W 4161  16.764  37.930   1.926
42631W        W 4162  39.443  23.178  12.090
42632W        W 4163  11.212  40.459  12.472
42633W        W 4164   6.236  22.111   0.465
42634W        W 4165   6.877  29.655  12.052
42635W        W 4166  41.813  44.405   3.383
42636W        W 4167  15.153  14.188  13.833
42637W        W 4168  12.852  17.630   4.176
42638W        W 4169  16.683  20.619  11.501
42639W        W 4170  10.229  27.994   2.877
42640W        W 4171   1.353  34.938   0.250
42641W        W 4172  39.556  11.199  14.964
42642W        W 4173   1.310  35.457  10.431
42643W        W 4174   3.367  26.557  12.553
42644W        W 4175  17.150  19.241   1.418
42645W        W 4176  14.740  31.057  13.422
42646W        W 4177  37.470  43.315   0.912
42647W        W 4178  32.557  21.219  12.476
42648W        W 4179   1.910  13.610  14.408
42649W        W 4180   7.385   6.878  13.924
42650W        W 4181   9.395  43.778   1.776
42651W        W 4182  43.444   3.244  11.417
42652W        W 4183  36.859  30.059   3.368
42653W        W 4184  24.087  11.251  13.894
42654W        W 4185  39.038  16.155  13.888
42655W        W 4186   4.294   6.328  13.940
42656W        W 4187  25.491  19.723   4.639
42657W        W 4188  27.123   9.815   3.742
42658W        W 4189  10.344  25.015  12.424
42659W        W 4190  43.817  37.405   3.257
42660W        W 4191  37.401   5.360  11.861
42661W        W 4192  18.293  18.679  10.422
42662W        W 4193  23.211   8.360  10.580
42663W        W 4194  21.718  10.251   1.225
42664W        W 4195   1.283  41.472  13.820
42665W        W 4196  13.809  12.824   0.733
42666W        W 4197  31.648  29.426   1.287
42667W        W 4198  40.908  20.655  13.347
42668W        W 4199  35.861  32.482   0.328
42669W        W 4200  24.705  27.050   2.341
42670W        W 4201  36.444  43.304   0.933
42671W        W 4202  15.174  19.199  11.575
42672W        W 4203  43.969  36.372   0.479
42673W        W 4204  33.537  34.973  13.383
42674W        W 4205   7.387   7.784   0.874
42675W        W 4206  17.301  26.172  11.463
42676W        W 4207  10.737  36.356  14.827
42677W        W 4208  44.835  26.622   0.867
42678W        W 4209  20.090  18.771  10.455
42679W        W 4210  35.100  24.484   2.775
42680W        W 4211  22.518   1.389   4.237
42681W        W 4212  15.093  23.219  13.548
42682W        W 4213   7.396  41.005  11.556
42683W        W 4214  22.628  33.544  11.930
42684W        W 4215  35.542   1.420  12.915
42685W        W 4216  18.069   2.766   1.730
42686W        W 4217  14.118  24.194  14.788
42687W        W 4218  28.175  17.763  14.998
42688W        W 4219  24.560   9.371   0.805
42689W        W 4220  35.914  18.224  12.426
42690W        W 4221  20.740  28.102  12.060
42691W        W 4222  15.633  37.961  14.864
42692W        W 4223  15.083  16.801   0.956
42693W        W 4224  26.020  34.866   2.320
42694W        W 4225  17.648   9.678  12.996
42695W        W 4226  25.595  44.807   2.783
42696W        W 4227  38.033   9.305  12.563
42697W        W 4228  44.317  24.491   2.892
42698W        W 4229   5.872  23.048  13.820
42699W        W 4230  24.222  17.683   0.434
42700W        W 4231  21.591  18.734  14.940
42701W        W 4232  15.741   0.860  14.341
42702W        W 4233  26.627  17.142  14.026
42703W        W 4234  29.008  20.097  14.278
42704W        W 4235  41.520  19.558  10.928
42705W        W 4236  41.978  20.574   3.376
42706W        W 4237   4.327  43.856   0.798
42707W        W 4238  21.594  17.750   2.405
42708W        W 4239   7.765  21.564  11.031
42709W        W 4240  27.154  30.938  14.985
42710W        W 4241  12.660  26.626   4.295
42711W        W 4242   9.256  42.324  11.549
42712W        W 4243  18.094  39.463   2.875
42713W        W 4244  42.814  39.058   3.180
42714W        W 4245   2.891  13.130  10.520
42715W        W 4246  43.913  23.068   0.850
42716W        W 4247  36.070  26.043   3.750
42717W        W 4248   3.832  13.706  10.518
42718W        W 4249  17.086  39.982   0.822
42719W        W 4250  33.509  16.728   2.693
42720W        W 4251  38.368  31.602   2.728
42721W        W 4252   7.407  35.388   0.372
42722W        W 4253   1.755   6.365   4.661
42723W        W 4254  10.305  28.503   2.385
42724W        W 4255   4.745  40.828  12.089
42725W        W 4256  36.940  31.641   0.771
42726W        W 4257   5.231  26.457   2.310
42727W        W 4258  22.588  16.748   4.704
42728W        W 4259  37.895  15.787  11.066
42729W        W 4260  22.162  11.244   1.910
42730W        W 4261  19.043  19.059   3.362
42731W        W 4262  35.494  40.881   2.799
42732W        W 4263   4.430  22.164  10.968
42733W        W 4264  23.494   5.215   2.811
42734W        W 4265  12.247   1.328   1.904
42735W        W 4266  27.522   0.787   1.805
42736W        W 4267  22.107  24.052  13.828
42737W        W 4268  43.344   8.340   1.335
42738W        W 4269  37.524  16.222  13.835
42739W        W 4270  38.357  39.889   3.691
42740W        W 4271   8.315  20.270  12.952
42741W        W 4272  33.538  33.452   4.721
42742W        W 4273  20.103   3.850  12.009
42743W        W 4274  35.516   5.830  13.045
42744W        W 4275  19.748   7.194  13.393
42745W        W 4276  13.324  30.006   9.994
42746W        W 4277  29.928   6.831   1.232
42747W        W 4278  11.745  43.476   1.785
42748W        W 4279  34.988  39.832   4.179
42749W        W 4280  21.225  44.000   4.683
42750W        W 4281   7.771  30.927  13.436
42751W        W 4282  37.447  43.418  12.908
42752W        W 4283   8.332   4.943   2.852
42753W        W 4284  31.417  30.644   0.356
42754W        W 4285  36.478  24.666  14.872
42755W        W 4286  32.436  31.631  11.000
42756W        W 4287  40.980   3.254  10.434
42757W        W 4288  27.070   1.811   0.763
42758W        W 4289   4.758  29.583   3.355
42759W        W 4290  12.334  21.026   0.302
42760W        W 4291  22.518  43.406  11.416
42761W        W 4292  36.964  37.562  10.958
42762W        W 4293  23.003   3.375   4.736
42763W        W 4294  21.601  31.107  14.384
42764W        W 4295  38.391  28.993  11.861
42765W        W 4296  26.587  29.078   1.870
42766W        W 4297  35.041   8.709   1.422
42767W        W 4298  32.986  10.324  12.922
42768W        W 4299  12.321  16.670  13.843
42769W        W 4300   2.353   5.205  12.005
42770W        W 4301  31.979  39.029  12.038
42771W        W 4302   5.743   1.931   3.699
42772W        W 4303  44.395   6.891   4.273
42773W        W 4304  21.548  42.997   5.304
42774W        W 4305  20.565  18.191  12.372
42775W        W 4306   5.704  32.033  12.906
42776W        W 4307  25.562   6.720   0.907
42777W        W 4308  16.308  11.770   1.444
42778W        W 4309  38.931  24.515  14.413
42779W        W 4310  38.990  13.733  12.526
42780W        W 4311  20.722  32.516  11.555
42781W        W 4312  17.563  25.629   2.352
42782W        W 4313  41.320  10.760  12.992
42783W        W 4314   3.721  31.931   4.693
42784W        W 4315  22.558  13.751   1.390
42785W        W 4316  36.018  30.131  14.823
42786W        W 4317   1.409   8.310   4.232
42787W        W 4318   9.189  23.669  13.460
42788W        W 4319  21.661  40.320   2.901
42789W        W 4320  21.664  37.509  12.543
42790W        W 4321  21.727  13.813   1.393
42791W        W 4322  42.282  15.723   1.762
42792W        W 4323  18.742  25.990   4.231
42793W        W 4324  15.811  37.495   4.118
42794W        W 4325  22.591  13.742   0.365
42795W        W 4326  38.340   6.262  12.854
42796W        W 4327   8.232  31.518  11.946
42797W        W 4328  37.880   8.214   4.725
42798W        W 4329   5.243  30.530  12.373
42799W        W 4330  15.161  34.060   2.673
42800W        W 4331   7.319  18.090   2.841
42801W        W 4332  11.663   8.873  11.579
42802W        W 4333  20.050  31.027   3.853
42803W        W 4334   3.816  14.225   2.889
42804W        W 4335   3.813  27.138   4.354
42805W        W 4336  10.300  24.065  11.066
42806W        W 4337  40.459  11.838   0.923
42807W        W 4338   3.954   3.748  11.501
42808W        W 4339  12.699   2.753  11.016
42809W        W 4340   5.720  24.709  13.847
42810W        W 4341   3.776  31.530  11.567
42811W        W 4342  16.802  35.944   0.432
42812W        W 4343   8.729  10.848  11.889
42813W        W 4344  31.599   2.830   2.818
42814W        W 4345  20.101  41.974   3.789
42815W        W 4346  44.789  42.852  13.496
42816W        W 4347  24.076  17.168   5.209
42817W        W 4348  37.075  10.681   1.798
42818W        W 4349  36.861  42.433   1.237
42819W        W 4350  10.872  37.840  13.050
42820W        W 4351  10.262  43.937  11.037
42821W        W 4352  15.325  39.485   4.354
42822W        W 4353  44.755  26.001   3.868
42823W        W 4354  18.584   2.791   3.638
42824W        W 4355  28.068  28.539  13.863
42825W        W 4356  30.111  18.274   0.861
42826W        W 4357   3.222  30.115  12.510
42827W        W 4358  36.347  21.646  12.846
42828W        W 4359   9.286  29.961   0.817
42829W        W 4360  12.697   2.471  11.902
42830W        W 4361  29.072  22.173   2.761
42831W        W 4362   1.403  39.361   2.192
42832W        W 4363  18.725  37.497   0.347
42833W        W 4364  37.898  32.603  13.851
42834W        W 4365  25.501  40.542  13.409
42835W        W 4366  18.103   0.846  13.991
42836W        W 4367  30.996  38.052  14.488
42837W        W 4368   5.707  33.060  14.776
42838W        W 4369   9.294  17.250   4.116
42839W        W 4370   1.246  27.037  14.323
42840W        W 4371  19.614   0.807   3.793
42841W        W 4372  17.739   4.832  13.013
42842W        W 4373  14.283  42.288  12.414
42843W        W 4374   9.669  33.034   2.301
42844W        W 4375   1.422  42.956  13.429
42845W        W 4376  32.930  13.623   4.347
42846W        W 4377   0.422   8.237   2.223
42847W        W 4378   3.402  11.659  10.628
42848W        W 4379  37.556  30.996  13.864
42849W        W 4380   9.307  37.488   5.260
42850W        W 4381   6.881  40.933   4.300
42851W        W 4382   4.296  17.643  14.862
42852W        W 4383   4.889  13.605   2.769
42853W        W 4384   4.856   6.787   1.721
42854W        W 4385  26.467  15.579  13.344
42855W        W 4386  13.195  15.278   3.219
42856W        W 4387  28.057   5.919   2.228
42857W        W 4388  17.668  15.212   0.362
42858W        W 4389   0.982  19.081  12.441
42859W        W 4390  20.104  16.155  10.903
42860W        W 4391  42.927  17.253  12.975
42861W        W 4392  19.550  27.688  14.327
42862W        W 4393  35.411  25.693  14.795
42863W        W 4394  34.013  13.222  13.523
42864W        W 4395  38.419  38.388  12.046
42865W        W 4396  24.540  27.575  12.548
42866W        W 4397   4.272   5.735  11.400
42867W        W 4398  44.797   8.755   4.326
42868W        W 4399  29.092  21.098  11.934
42869W        W 4400  14.781  29.555  12.479
42870W        W 4401  40.548  36.965  10.971
42871W        W 4402  25.990   7.687   3.694
42872W        W 4403   8.378  24.606  14.453
42873W        W 4404   5.424  42.378   2.812
42874W        W 4405  24.674   8.901  11.921
42875W        W 4406  23.054  43.272  11.424
42876W        W 4407  30.100  40.942  13.422
42877W        W 4408   2.886  14.597  12.945
42878W        W 4409  26.624  23.150   3.833
42879W        W 4410  10.264  34.894   3.272
42880W        W 4411  39.932  31.921  11.888
42881W        W 4412  26.512  24.524   1.720
42882W        W 4413  42.023  36.431   3.365
42883W        W 4414  38.997   6.184  12.393
42884W        W 4415  28.085  43.012   3.774
42885W        W 4416  28.965  40.477  11.903
42886W        W 4417  33.622  14.264   2.198
42887W        W 4418  38.998   3.937   4.838
42888W        W 4419  32.557  41.932  12.898
42889W        W 4420   5.913  14.160   1.328
42890W        W 4421  35.047  36.581  14.382
42891W        W 4422  12.177  17.734  12.968
42892W        W 4423  22.139  35.462   0.855
42893W        W 4424   7.391  30.137  11.113
42894W        W 4425  41.335   0.460  11.390
42895W        W 4426  43.837  23.026  13.851
42896W        W 4427  30.949  19.071   4.810
42897W        W 4428  41.309  20.247   0.733
42898W        W 4429  39.320  10.142  14.816
42899W        W 4430  10.164   0.358   4.772
42900W        W 4431  40.309   0.471  12.511
42901W        W 4432  20.253  33.456   1.232
42902W        W 4433  19.681   1.313   0.813
42903W        W 4434   4.863  25.199   0.828
42904W        W 4435   0.879  38.993   1.822
42905W        W 4436   0.950  30.449   5.202
42906W        W 4437   1.871  27.627  13.516
42907W        W 4438  13.174  28.120  10.889
42908W        W 4439  11.310   3.369   2.226
42909W        W 4440   1.450  40.842   2.386
42910W        W 4441  29.559  31.512  11.991
42911W        W 4442  18.288  29.029   3.214
42912W        W 4443   0.295  18.178   4.656
42913W        W 4444  27.969   5.272   1.827
42914W        W 4445   2.266  20.229   0.865
42915W        W 4446  31.595   6.247  12.916
42916W        W 4447  33.568  35.891  14.436
42917W        W 4448  26.032  36.373   0.843
42918W        W 4449  21.236  24.594  11.887
42919W        W 4450   7.672  12.674  11.962
42920W        W 4451   3.794  10.769  11.900
42921W        W 4452   7.283  27.181  13.522
42922W        W 4453  38.404   4.944   1.264
42923W        W 4454  33.091   3.769  12.045
42924W        W 4455   8.333  31.932   0.907
42925W        W 4456  32.949  16.645  13.007
42926W        W 4457  33.506  14.762  12.412
42927W        W 4458   8.160  25.499  12.538
42928W        W 4459  23.215  27.539   3.373
42929W        W 4460   7.677  17.655  10.463
42930W        W 4461  13.263  29.561   3.818
42931W        W 4462  17.658  35.535   2.272
42932W        W 4463  24.555  37.429   4.279
42933W        W 4464  26.498  16.101  13.890
42934W        W 4465  10.262  19.263   1.910
42935W        W 4466   0.253  26.509   3.847
42936W        W 4467  21.223  42.910   3.697
42937W        W 4468  41.389   2.420  11.894
42938W        W 4469  16.129  42.442   2.713
42939W        W 4470  21.263   9.315   0.248
42940W        W 4471   5.882  39.440   2.880
42941W        W 4472   4.259  35.957  11.483
42942W        W 4473  39.026  23.704   0.446
42943W        W 4474  13.710   8.682   3.218
42944W        W 4475   1.266  29.047   3.174
42945W        W 4476   5.203  30.051  13.949
42946W        W 4477  41.399   9.718   3.790
42947W        W 4478  41.849  25.020  10.561
42948W        W 4479  29.090  18.726   3.694
42949W        W 4480   0.763  24.225  12.930
42950W        W 4481  31.012  29.057   0.795
42951W        W 4482  31.486  11.230  10.974
42952W        W 4483  19.578   1.826   3.258
42953W        W 4484  32.637  36.096   3.236
42954W        W 4485  23.587  39.480  11.487
42955W        W 4486  17.236   8.676  14.783
42956W        W 4487  19.139  18.141  11.527
42957W        W 4488  28.151   8.775  14.443
42958W        W 4489  25.619  10.164   4.272
42959W        W 4490   6.321  17.769  13.853
42960W        W 4491  10.803  13.132  14.960
42961W        W 4492  22.746  24.612   1.301
42962W        W 4493  28.641  31.148  10.577
42963W        W 4494  13.770  37.414  11.875
42964W        W 4495  41.299  24.480   3.200
42965W        W 4496  40.971  17.299  13.484
42966W        W 4497  43.896  19.629   2.729
42967W        W 4498  42.794   3.372   3.670
42968W        W 4499   1.768   7.302  14.992
42969W        W 4500   2.730  36.389   0.934
42970W        W 4501  26.002  36.470  11.517
42971W        W 4502   9.321  17.758   1.720
42972W        W 4503  18.050  31.583   2.198
42973W        W 4504  21.239  13.200   2.690
42974W        W 4505  15.627   5.834   2.229
42975W        W 4506  38.386  30.471   3.374
42976W        W 4507  29.481  26.039   1.324
42977W        W 4508  44.940  19.602  13.946
42978W        W 4509  36.441  10.778   3.216
42979W        W 4510  27.519  32.001   0.885
42980W        W 4511  31.969  19.567  14.343
42981W        W 4512  22.665  21.665  12.509
42982W        W 4513  22.689  43.377  10.590
42983W        W 4514  22.543  16.160  10.487
42984W        W 4515  23.067  11.779   4.609
42985W        W 4516  11.631  38.070   1.290
42986W        W 4517   0.784   6.410  12.456
42987W        W 4518  20.098  33.558  14.991
42988W        W 4519  28.186  28.445  11.900
42989W        W 4520  26.130   8.296   2.692
42990W        W 4521  32.419   0.305  12.917
42991W        W 4522  21.603  35.108   1.361
42992W        W 4523  41.016  40.314   0.344
42993W        W 4524  38.533  10.214  12.921
42994W        W 4525  43.379  17.637   4.275
42995W        W 4526  38.840  21.073  14.805
42996W        W 4527  11.373  15.122   4.227
42997W        W 4528  20.266  32.438   3.167
42998W        W 4529   4.721  44.410  13.948
42999W        W 4530  12.663  10.262   3.802
43000W        W 4531  12.750  41.938  11.384
43001W        W 4532  40.512  32.107  11.604
43002W        W 4533   2.751  29.012   2.222
43003W        W 4534  10.723  17.066  14.323
43004W        W 4535  44.457   1.784  14.870
43005W        W 4536  25.468   6.839   1.360
43006W        W 4537  28.542  31.146   0.959
43007W        W 4538  23.143   2.382   0.893
43008W        W 4539  34.591  36.481   2.257
43009W        W 4540  35.444   5.226  13.466
43010W        W 4541  24.031  17.637  12.343
43011W        W 4542   5.307  18.165  14.936
43012W        W 4543  39.553   1.245  11.485
43013W        W 4544  22.659   5.833  10.037
43014W        W 4545  40.982  39.864  12.498
43015W        W 4546   5.344   5.857  11.547
43016W        W 4547  28.541  33.447  13.798
43017W        W 4548  24.066  42.319  10.570
43018W        W 4549  16.216  23.218   2.771
43019W        W 4550  10.833  36.961  10.455
43020W        W 4551  41.976   7.719   2.211
43021W        W 4552  12.637   3.920   3.769
43022W        W 4553  14.251  34.434  11.421
43023W        W 4554  22.543  41.011  10.542
43024W        W 4555  36.069  23.004   0.739
43025W        W 4556   8.844  42.458   2.226
43026W        W 4557   9.860   7.790  12.993
43027W        W 4558  38.001  22.550   4.769
43028W        W 4559   1.341  36.928   1.286
43029W        W 4560  24.214  34.507   1.436
43030W        W 4561   4.796   8.725  13.496
43031W        W 4562  12.829  20.078  11.469
43032W        W 4563  14.595  19.560  13.308
43033W        W 4564  28.171  11.145  10.538
43034W        W 4565  19.141   0.867   4.797
43035W        W 4566  30.972  40.864   2.752
43036W        W 4567  15.614  44.755   1.820
43037W        W 4568  23.035   9.199   1.718
43038W        W 4569  26.203  20.149  14.877
43039W        W 4570  31.063  13.326  13.865
43040W        W 4571   2.859  40.820   2.811
43041W        W 4572   8.731   8.304   0.768
43042W        W 4573  20.263  37.081  12.406
43043W        W 4574   9.169  37.469   3.765
43044W        W 4575  35.883  19.284   0.369
43045W        W 4576  31.932  23.559   2.193
43046W        W 4577   8.289   8.757   3.719
43047W        W 4578  44.767   7.289  12.895
43048W        W 4579   4.922  11.831   1.846
43049W        W 4580  18.782  36.975   2.184
43050W        W 4581  38.012  10.750   1.874
43051W        W 4582  36.424  35.037  11.123
43052W        W 4583  44.278  16.105   3.171
43053W        W 4584  27.675  27.542  11.992
43054W        W 4585  10.790   1.411  14.427
43055W        W 4586  39.559  23.709   2.321
43056W        W 4587  32.909  15.312   3.637
43057W        W 4588  10.261   2.888  11.451
43058W        W 4589  33.989  25.648  13.847
43059W        W 4590  24.564  11.142  10.413
43060W        W 4591   0.983   3.854   1.740
43061W        W 4592   7.745  44.769  10.931
43062W        W 4593  20.749   9.231  13.804
43063W        W 4594  16.616  31.067  11.008
43064W        W 4595   1.435  42.372   1.255
43065W        W 4596  13.790  25.215  10.959
43066W        W 4597  34.560  12.318   4.202
43067W        W 4598  23.725  36.951   0.368
43068W        W 4599  38.406  12.292   0.836
43069W        W 4600   2.867  29.567   0.279
43070W        W 4601  39.821  40.872   4.611
43071W        W 4602  15.589  21.741  14.455
43072W        W 4603  18.238   5.723  14.475
43073W        W 4604   8.394  38.509   0.356
43074W        W 4605  16.191  43.314  14.808
43075W        W 4606  28.936  25.541   0.340
43076W        W 4607  21.042  44.390  13.530
43077W        W 4608  40.832  15.620  13.538
43078W        W 4609  26.111  16.648  14.378
43079W        W 4610  35.475   2.452   2.738
43080W        W 4611  40.940  17.258  12.914
43081W        W 4612   0.467  14.605  13.543
43082W        W 4613   6.888  23.628   3.145
43083W        W 4614   7.749   8.773   2.185
43084W        W 4615   7.344   8.763  14.363
43085W        W 4616  23.037  13.777   1.860
43086W        W 4617  39.849  20.244   2.387
43087W        W 4618  18.252  21.256   4.600
43088W        W 4619  21.719  28.963   3.679
43089W        W 4620   2.816  43.974   1.285
43090W        W 4621  22.670  10.871  14.026
43091W        W 4622  15.256  40.357   0.758
43092W        W 4623  21.520  34.595   3.793
43093W        W 4624  10.140  21.520   4.640
43094W        W 4625  24.597  21.229  14.408
43095W        W 4626  35.533  11.352   2.775
43096W        W 4627  16.737  10.763  12.944
43097W        W 4628  32.432  12.811   1.716
43098W        W 4629  19.537  36.885   4.655
43099W        W 4630  41.000  35.896   0.464
43100W        W 4631  40.032  12.734   2.311
43101W        W 4632  25.712  18.269   2.731
43102W        W 4633  21.032   1.262   0.861
43103W        W 4634  24.701  31.502  13.896
43104W        W 4635  10.769  25.652  11.929
43105W        W 4636  11.710   1.856   1.267
43106W        W 4637  30.971  29.622   2.380
43107W        W 4638  42.472  17.167  11.573
43108W        W 4639  25.567  44.888   0.946
43109W        W 4640  14.727   8.231  12.995
43110W        W 4641  17.163  18.239   1.349
43111W        W 4642  36.887   3.920   3.631
43112W        W 4643   5.226  19.621   3.809
43113W        W 4644  41.895  40.435   1.858
43114W        W 4645  17.602  17.702  13.879
43115W        W 4646  20.049  24.697   2.839
43116W        W 4647  33.581  16.170  10.985
43117W        W 4648   9.835  37.076   0.434
43118W        W 4649  44.870  15.241  11.451
43119W        W 4650   2.879  10.200   0.833
43120W        W 4651  15.287  27.602  14.002
43121W        W 4652  39.412  22.205   0.915
43122W        W 4653  30.966  43.503   1.294
43123W        W 4654  32.045  36.461   2.864
43124W        W 4655  27.451   7.884  13.539
43125W        W 4656   9.819  14.184   4.131
43126W        W 4657   0.898  20.637  11.471
43127W        W 4658  35.382   8.369   2.829
43128W        W 4659   0.796   6.865  10.624
43129W        W 4660   4.446  39.445  10.999
43130W        W 4661   7.854  34.931   3.635
43131W        W 4662  24.078  17.259  14.779
43132W        W 4663  42.864   0.437  11.911
43133W        W 4664  10.713  41.893   3.802
43134W        W 4665  24.522   9.166  13.866
43135W        W 4666  44.972  23.209   4.262
43136W        W 4667  36.444  18.615   3.380
43137W        W 4668  18.557   2.269   4.339
43138W        W 4669  40.496  40.385  14.879
43139W        W 4670  34.950  23.534   2.344
43140W        W 4671  19.076   1.421  13.487
43141W        W 4672  21.217   7.211  10.906
43142W        W 4673   7.373  12.797   1.309
43143W        W 4674  19.731  20.117   0.471
43144W        W 4675  12.855  10.274   1.237
43145W        W 4676  12.629  33.048   3.833
43146W        W 4677  23.006  42.839  14.768
43147W        W 4678  40.972  42.433   3.724
43148W        W 4679  16.267  11.668   4.809
43149W        W 4680  18.125  13.253   0.963
43150W        W 4681  12.335  43.768  11.942
43151W        W 4682   2.287  28.988  11.396
43152W        W 4683  17.159  29.998  12.002
43153W        W 4684  16.209  23.717  14.031
43154W        W 4685   0.978  35.912  12.985
43155W        W 4686  28.587  23.182  13.001
43156W        W 4687  28.490  22.237   2.802
43157W        W 4688  23.055  19.119  11.959
43158W        W 4689  40.974   2.334   3.706
43159W        W 4690  41.370  38.831  13.934
43160W        W 4691  38.914  33.982  14.026
43161W        W 4692  34.592  16.245  14.461
43162W        W 4693   2.756   4.776  10.512
43163W        W 4694  21.665  40.849   0.251
43164W        W 4695  41.440  28.512   3.827
43165W        W 4696   9.341   0.367   1.810
43166W        W 4697  39.032  37.578  12.034
43167W        W 4698   6.236  31.031  10.892
43168W        W 4699  18.666  10.361   0.298
43169W        W 4700  44.454  40.382  14.401
43170W        W 4701  10.380  23.052  14.428
43171W        W 4702  37.956   3.892  14.950
43172W        W 4703  18.759  15.811   1.771
43173W        W 4704   5.926  25.579   3.312
43174W        W 4705  22.688   0.257  14.357
43175W        W 4706  32.455  32.090   4.182
43176W        W 4707  33.074  21.626  11.387
43177W        W 4708  43.954  15.754   0.910
43178W        W 4709  25.015  33.092   4.621
43179W        W 4710  24.087   8.303   0.297
43180W        W 4711  26.959  43.016   4.644
43181W        W 4712   2.888  34.409   4.283
43182W        W 4713   6.357  25.670   0.357
43183W        W 4714  32.556   6.268   2.362
43184W        W 4715  43.273  41.933  13.866
43185W        W 4716  36.382  29.572   0.933
43186W        W 4717   5.307  25.485   3.160
43187W        W 4718  18.239  10.314   4.260
43188W        W 4719   2.788  44.421   0.823
43189W        W 4720  35.529  44.351  10.937
43190W        W 4721   9.264   8.219  14.869
43191W        W 4722  17.579  27.572  12.084
43192W        W 4723   0.867   9.733  11.032
43193W        W 4724  30.572  21.220  11.478
43194W        W 4725  16.189  32.473  12.838
43195W        W 4726  14.131  43.478   2.696
43196W        W 4727   7.223  43.802   4.123
43197W        W 4728  10.312  22.093   2.310
43198W        W 4729  14.607  26.995  11.390
43199W        W 4730  39.945  37.406  13.471
43200W        W 4731  38.536  21.032   2.289
43201W        W 4732   8.816  29.113   1.279
43202W        W 4733  34.984  40.513   0.315
43203W        W 4734  24.147  29.594   1.408
43204W        W 4735  31.505   9.279   9.960
43205W        W 4736  29.482   5.385   3.676
43206W        W 4737  35.922  33.068   2.772
43207W        W 4738  42.815  35.573   1.297
43208W        W 4739  14.745  36.856  14.472
43209W        W 4740   5.250  40.957   0.407
43210W        W 4741  25.127  38.043  12.402
43211W        W 4742  40.359  30.648   1.913
43212W        W 4743  30.614   6.918  14.939
43213W        W 4744  35.967  44.900   2.899
43214W        W 4745  39.394  31.088  10.923
43215W        W 4746  41.396  27.125   1.394
43216W        W 4747   9.176  44.334   4.818
43217W        W 4748  12.362  11.818  13.445
43218W        W 4749  40.844  23.616   2.901
43219W        W 4750  11.236  12.132   0.332
43220W        W 4751   6.747  19.733  11.412
43221W        W 4752  16.093  41.420  11.028
43222W        W 4753  24.222  16.714  11.035
43223W        W 4754   1.757  34.997   1.845
43224W        W 4755  22.237  31.003  14.435
43225W        W 4756   7.675  23.238   1.883
43226W        W 4757  24.161  11.297   2.183
43227W        W 4758  36.960  26.973  14.516
43228W        W 4759   2.370   6.237   1.737
43229W        W 4760  24.098   8.699   0.337
43230W        W 4761   2.456  31.924   1.880
43231W        W 4762   0.481  26.163   0.295
43232W        W 4763  35.993  40.983   0.248
43233W        W 4764  29.152  31.528   0.323
43234W        W 4765   9.691  36.543  12.846
43235W        W 4766  40.440  26.152  14.984
43236W        W 4767   4.774  12.193   4.333
43237W        W 4768  10.337  44.969   3.660
43238W        W 4769  16.647  25.164   5.314
43239W        W 4770  19.149  15.237   1.866
43240W        W 4771  36.526  21.209  13.006
43241W        W 4772   9.853   1.807   2.708
43242W        W 4773  34.451  24.137  13.377
43243W        W 4774   1.362   2.314   4.128
43244W        W 4775   5.708  15.765  12.018
43245W        W 4776   4.334  44.368  14.010
43246W        W 4777  16.670  15.174  14.293
43247W        W 4778   7.262   7.765  14.373
43248W        W 4779   5.207  12.627  13.546
43249W        W 4780  37.833  31.922   1.389
43250W        W 4781  11.689  25.634  11.482
43251W        W 4782   4.775  14.725   4.787
43252W        W 4783  15.242   8.377   0.308
43253W        W 4784  30.992  34.977   0.480
43254W        W 4785  35.980   0.867  13.043
43255W        W 4786  15.282  13.703   0.855
43256W        W 4787  44.892  16.173  13.519
43257W        W 4788  35.954   9.719  14.982
43258W        W 4789  38.516   9.871   3.181
43259W        W 4790  27.052   3.450   1.859
43260W        W 4791  23.689  13.822   3.682
43261W        W 4792  32.575   9.295   4.311
43262W        W 4793   5.769  36.010   2.818
43263W        W 4794  39.975  17.783   0.776
43264W        W 4795  16.220  16.578  12.963
43265W        W 4796  11.723  40.386  11.903
43266W        W 4797  25.066  25.552  11.429
43267W        W 4798  42.451  12.775   3.796
43268W        W 4799   6.725  43.798   1.272
43269W        W 4800  43.345  31.078   1.874
43270W        W 4801  22.995  44.396   1.410
43271W        W 4802  39.879  24.152  13.475
43272W        W 4803  19.092  36.360   2.847
43273W        W 4804  13.328  25.471   3.224
43274W        W 4805  44.963  43.777  13.352
43275W        W 4806  17.145  42.520   3.743
43276W        W 4807  29.493   4.728  10.129
43277W        W 4808  44.965  21.165   3.638
43278W        W 4809  23.651  24.531  10.600
43279W        W 4810  26.516  13.314   4.784
43280W        W 4811  41.991  34.532  11.512
43281W        W 4812   7.789   3.314   0.285
43282W        W 4813   4.355   0.458   1.251
43283W        W 4814  20.755  11.817  12.905
43284W        W 4815   8.274  27.001   1.302
43285W        W 4816   6.237   5.237   0.414
43286W        W 4817  10.293  41.364  10.920
43287W        W 4818  26.485  13.721  13.957
43288W        W 4819  12.151  28.138   2.200
43289W        W 4820  22.040  15.650  11.490
43290W        W 4821   6.853  10.709   0.352
43291W        W 4822  34.445  42.965  13.460
43292W        W 4823  36.448  20.207   4.177
43293W        W 4824  25.665  31.057   9.455
43294W        W 4825  34.883  26.521  12.081
43295W        W 4826  43.919  12.175  14.931
43296W        W 4827  24.110  36.369  11.553
43297W        W 4828  16.098   2.771   4.261
43298W        W 4829  16.142  28.056  14.331
43299W        W 4830  26.024  35.869  14.441
43300W        W 4831  18.161  15.703  11.965
43301W        W 4832  41.449  25.141  14.871
43302W        W 4833  24.992  44.788   3.788
43303W        W 4834  30.980   1.283   1.251
43304W        W 4835  44.503  22.194  12.947
43305W        W 4836  16.243  36.011   1.792
43306W        W 4837  39.860  29.962   1.759
43307W        W 4838  39.500  33.984  13.870
43308W        W 4839   0.754  24.620  11.061
43309W        W 4840   1.915   3.857  14.382
43310W        W 4841  35.524   2.789  14.763
43311W        W 4842  24.527  43.836  14.363
43312W        W 4843  10.347  22.161  14.435
43313W        W 4844   7.901  18.162   1.330
43314W        W 4845  16.158   3.877  14.503
43315W        W 4846  23.192  15.746  14.463
43316W        W 4847  16.192  43.831   4.787
43317W        W 4848   6.871  22.052  10.441
43318W        W 4849  32.548  13.277  12.540
43319W        W 4850   4.434   4.761  12.852
43320W        W 4851  44.491  22.251  14.953
43321W        W 4852  24.207  35.942  12.971
43322W        W 4853   7.184  13.139  12.890
43323W        W 4854  31.525   6.781  14.971
43324W        W 4855  37.905  16.130  14.476
43325W        W 4856  28.530  18.771   3.704
43326W        W 4857  44.777  36.983  11.552
43327W        W 4858  26.562  35.997  10.157
43328W        W 4859  17.174  42.397  13.035
43329W        W 4860   4.255  29.138   4.250
43330W        W 4861  10.376  19.164  12.571
43331W        W 4862  13.686  27.157   2.306
43332W        W 4863  28.163  24.022  10.607
43333W        W 4864  26.518  30.163  11.380
43334W        W 4865  28.023  17.130  11.908
43335W        W 4866   1.826  33.412   0.431
43336W        W 4867   2.388   1.440   2.198
43337W        W 4868  41.035   9.658   1.768
43338W        W 4869   0.311  14.680   1.449
43339W        W 4870   5.347  18.258   0.816
43340W        W 4871  21.570  35.445  10.920
43341W        W 4872   6.890  35.574  10.568
43342W        W 4873  40.362   2.909   0.872
43343W        W 4874  38.043  25.029   4.155
43344W        W 4875  26.584  11.738   1.230
43345W        W 4876  30.134  24.585   2.714
43346W        W 4877   3.428  12.744  12.052
43347W        W 4878  27.142  18.755   0.346
43348W        W 4879  33.057  21.681   3.834
43349W        W 4880  42.949   0.975  13.863
43350W        W 4881  12.117   6.420  14.943
43351W        W 4882  13.180   4.752  14.319
43352W        W 4883   0.755  36.017   9.980
43353W        W 4884  18.639  42.775  13.338
43354W        W 4885   7.352  26.483  14.759
43355W        W 4886   3.430  18.681  13.311
43356W        W 4887  36.863  30.478   4.153
43357W        W 4888   1.464   1.893   1.444
43358W        W 4889  10.177  39.818  13.546
43359W        W 4890  21.531  40.004  10.973
43360W        W 4891  34.114  42.432  14.865
43361W        W 4892   7.752  41.946   0.864
43362W        W 4893  22.680   1.786   0.926
43363W        W 4894  18.273   2.962  10.430
43364W        W 4895   6.384  37.514  14.299
43365W        W 4896  19.197  23.521  11.610
43366W        W 4897  32.972  24.057  12.489
43367W        W 4898  40.930   2.729   1.258
43368W        W 4899  28.050  27.986  11.093
43369W        W 4900  14.123  35.948  11.917
43370W        W 4901  41.518  28.442   0.884
43371W        W 4902  41.427  18.255  12.410
43372W        W 4903   4.403   5.365   0.291
43373W        W 4904  38.923  40.405  10.643
43374W        W 4905  10.382  32.081   0.773
43375W        W 4906  32.900  38.538   1.290
43376W        W 4907  11.752  25.699  13.055
43377W        W 4908  42.994   3.332  11.914
43378W        W 4909  41.959  27.149  13.457
43379W        W 4910  26.635  24.491  13.313
43380W        W 4911   4.704   2.270   1.697
43381W        W 4912   3.791  13.247  11.958
43382W        W 4913   1.456  42.941   4.277
43383W        W 4914  25.659  10.327  11.996
43384W        W 4915   4.394  29.641   4.283
43385W        W 4916  42.424  39.535  11.943
43386W        W 4917  31.473   6.800   3.271
43387W        W 4918  14.202  40.931   4.326
43388W        W 4919  17.237  14.324   0.957
43389W        W 4920   4.289  25.585  12.973
43390W        W 4921  30.159   6.300   2.764
43391W        W 4922  31.565   3.936  11.860
43392W        W 4923   6.896  14.336  11.912
43393W        W 4924  11.335   7.690  14.003
43394W        W 4925   3.386  35.096   2.212
43395W        W 4926   1.271  10.306  14.771
43396W        W 4927  41.825  39.861   0.832
43397W        W 4928  13.257  35.002   3.766
43398W        W 4929  10.319  20.042   5.126
43399W        W 4930   4.279  25.484   5.277
43400W        W 4931   9.375  31.145   3.321
43401W        W 4932  12.289  23.514  13.826
43402W        W 4933  42.808  19.657  12.937
43403W        W 4934  26.180   8.287   5.804
43404W        W 4935  39.492  12.671   1.237
43405W        W 4936  20.069   7.370   2.727
43406W        W 4937  38.004  26.647   5.121
43407W        W 4938  41.416   0.947  10.419
43408W        W 4939   1.364  40.971  13.414
43409W        W 4940  28.487  12.332  12.997
43410W        W 4941  13.651  25.538  11.916
43411W        W 4942  27.940  15.211   0.927
43412W        W 4943  32.143  17.702  13.481
43413W        W 4944  11.765  43.955  14.883
43414W        W 4945  25.571  30.654  14.284
43415W        W 4946  39.925  36.422  12.508
43416W        W 4947  13.259   5.373  14.864
43417W        W 4948  21.744  21.069  13.974
43418W        W 4949  40.543  36.486   0.403
43419W        W 4950  34.044   9.248   0.369
43420W        W 4951  42.898  41.392   0.796
43421W        W 4952   7.700  19.769  14.916
43422W        W 4953  30.155  11.182  14.796
43423W        W 4954  22.699  44.927  10.619
43424W        W 4955  24.083  13.647  10.514
43425W        W 4956  27.134  42.346   3.767
43426W        W 4957  36.442  40.351   3.206
43427W        W 4958  15.754   1.889  13.347
43428W        W 4959  19.069   9.188   4.782
43429W        W 4960  43.969  38.857  12.044
43430W        W 4961  14.226  14.593   2.191
43431W        W 4962  16.632   8.193  14.314
43432W        W 4963  31.990  44.971   0.795
43433W        W 4964  32.614  13.229   0.953
43434W        W 4965  26.133  31.920   2.256
43435W        W 4966  10.162  29.086   4.697
43436W        W 4967  11.868  27.127   4.772
43437W        W 4968  18.682  17.126   0.735
43438W        W 4969  14.778  40.957  12.533
43439W        W 4970  41.922  20.568  12.477
43440W        W 4971  23.103  18.290   2.346
43441W        W 4972   8.230  23.733   1.247
43442W        W 4973  26.119  39.989  10.583
43443W        W 4974  33.055  41.788   4.293
43444W        W 4975  29.549  23.660  11.988
43445W        W 4976  11.321  30.057  12.954
43446W        W 4977  26.120  41.381   4.803
43447W        W 4978  22.144  40.395  12.948
43448W        W 4979  37.415  24.083  11.091
43449W        W 4980  16.592  15.813   0.257
43450W        W 4981  19.229  15.186   0.466
43451W        W 4982  30.014  16.101  11.866
43452W        W 4983  38.900  22.565  10.960
43453W        W 4984  34.050   9.211   0.789
43454W        W 4985  20.677   7.351   3.161
43455W        W 4986   8.770  24.050   3.207
43456W        W 4987  12.184   6.727  10.642
43457W        W 4988  29.540  17.127   4.725
43458W        W 4989  35.042  23.077   3.327
43459W        W 4990   7.869  19.538   1.738
43460W        W 4991  25.018  22.509   5.132
43461W        W 4992  31.540  23.546   0.745
43462W        W 4993  39.013  19.246   4.178
43463W        W 4994  15.101  27.466  10.914
43464W        W 4995  21.751  31.990  13.860
43465W        W 4996   5.788  22.507   4.123
43466W        W 4997   5.855  29.633   4.168
43467W        W 4998  34.936  31.937   9.970
43468W        W 4999   4.720  32.968  13.800
43469W        W 5000  43.304  23.132   3.298
43470W        W 5001  26.112  30.971  10.045
43471W        W 5002   3.840  13.778   0.259
43472W        W 5003   8.329   9.276   2.898
43473W        W 5004  24.103  30.096  14.372
43474W        W 5005  37.885  12.785  12.022
43475W        W 5006  32.004  31.460  13.925
43476W        W 5007  27.489   5.397  12.531
43477W        W 5008  23.569   6.232  13.513
43478W        W 5009  43.404  24.658  14.866
43479W        W 5010  15.703  35.990   0.320
43480W        W 5011  26.189   0.913   1.364
43481W        W 5012  12.678   9.810  10.405
43482W        W 5013  13.656  42.504   0.439
43483W        W 5014  36.377  40.470  13.945
43484W        W 5015  21.616  34.110  10.900
43485W        W 5016  36.560  23.213  10.894
43486W        W 5017  37.509  34.417   2.732
43487W        W 5018   6.323   5.432  11.010
43488W        W 5019  36.042   8.331   5.107
43489W        W 5020   5.195  35.058   1.831
43490W        W 5021  18.168   3.790  14.814
43491W        W 5022  23.623  22.511  12.509
43492W        W 5023  13.614  18.613  12.970
43493W        W 5024  36.569  38.866   2.832
43494W        W 5025   7.268  35.069   4.222
43495W        W 5026  28.564  29.928  13.424
43496W        W 5027  10.778  42.804   2.819
43497W        W 5028  14.612   6.289   2.316
43498W        W 5029  34.020  23.726   2.677
43499W        W 5030  18.636  36.045  12.576
43500W        W 5031  34.426  43.911   2.879
43501W        W 5032  12.277   2.870  12.359
43502W        W 5033   1.440  40.025   0.811
43503W        W 5034  37.511  29.588   0.284
43504W        W 5035  19.137   1.830   1.792
43505W        W 5036  41.538  24.583  12.837
43506W        W 5037  42.844  26.014   4.331
43507W        W 5038  31.103  18.244  11.515
43508W        W 5039  20.602  14.664  13.945
43509W        W 5040  25.644  21.184   4.695
43510W        W 5041  38.825  37.349   0.320
43511W        W 5042  15.657   4.410  11.464
43512W        W 5043   4.750  10.781   1.237
43513W        W 5044  16.283  23.732   2.377
43514W        W 5045  27.097   1.850   3.373
43515W        W 5046  31.645  29.623  12.473
43516W        W 5047  25.003  40.349  14.012
43517W        W 5048  14.809  22.115   3.322
43518W        W 5049  15.773  32.504   1.874
43519W        W 5050  29.528  13.305   0.740
43520W        W 5051  43.438   2.400   0.907
43521W        W 5052  29.562   2.267  14.338
43522W        W 5053  31.000   8.284  14.438
43523W        W 5054  10.792  30.940   2.390
43524W        W 5055  26.477  37.003   2.790
43525W        W 5056  31.136  41.889   2.668
43526W        W 5057  23.057  37.553   1.805
43527W        W 5058  21.556   7.341   1.331
43528W        W 5059   7.845   9.648  10.975
43529W        W 5060  36.529   2.920  12.866
43530W        W 5061  35.544  28.488   2.719
43531W        W 5062   7.413   4.754  11.453
43532W        W 5063   5.355  26.031   3.240
43533W        W 5064   3.753  30.142   3.810
43534W        W 5065  34.932  26.137   4.137
43535W        W 5066  10.724  39.957   2.241
43536W        W 5067   6.829  43.443  13.921
43537W        W 5068  42.965   3.340   0.942
43538W        W 5069   9.260  22.560  11.425
43539W        W 5070  32.926  39.420  12.391
43540W        W 5071  26.526  22.098   3.665
43541W        W 5072  21.200  37.569   5.209
43542W        W 5073   5.323  43.894   4.297
43543W        W 5074  22.134  15.133  12.569
43544W        W 5075  17.785   1.468  13.479
43545W        W 5076  41.026  34.907   0.370
43546W        W 5077  11.158  13.204  12.009
43547W        W 5078  15.300   7.690  12.982
43548W        W 5079  31.026   1.287  10.949
43549W        W 5080  32.058  44.940   3.222
43550W        W 5081  36.588   8.691  12.080
43551W        W 5082   8.867   4.378  12.995
43552W        W 5083  34.973  25.539   3.163
43553W        W 5084  35.591   2.819   3.169
43554W        W 5085  37.074  13.308   2.362
43555W        W 5086  27.565  17.303   2.751
43556W        W 5087  40.946   1.920   2.665
43557W        W 5088  25.078  26.566   1.847
43558W        W 5089  30.438   8.687  11.860
43559W        W 5090  21.150   4.242  14.011
43560W        W 5091  13.722  42.418   2.756
43561W        W 5092  23.614  42.311  14.469
43562W        W 5093  24.633  16.149   3.769
43563W        W 5094   1.793   7.873   4.142
43564W        W 5095  22.716  26.000  14.002
43565W        W 5096  37.889  22.521   4.155
43566W        W 5097  30.559   3.766  12.411
43567W        W 5098   6.743  44.261  14.350
43568W        W 5099  40.879   3.730  14.452
43569W        W 5100   1.241  29.456  11.438
43570W        W 5101   6.421   4.936  14.017
43571W        W 5102   6.717   4.884  13.313
43572W        W 5103  23.104  44.010   3.770
43573W        W 5104  40.822  41.044   3.327
43574W        W 5105   1.294  24.155   0.483
43575W        W 5106   3.934   6.823   2.211
43576W        W 5107  40.522  26.076  10.931
43577W        W 5108  35.389  14.256  13.062
43578W        W 5109  12.698  33.430   3.798
43579W        W 5110   2.744  19.130   4.820
43580W        W 5111  42.983  31.898   4.617
43581W        W 5112  42.985  42.970   2.241
43582W        W 5113  32.491  35.066  11.980
43583W        W 5114   1.322   3.258  10.568
43584W        W 5115  30.637  28.983   3.379
43585W        W 5116  15.329  20.624  11.446
43586W        W 5117  12.761  34.990   3.868
43587W        W 5118  13.153   7.829  13.395
43588W        W 5119  39.054  16.609  14.988
43589W        W 5120  36.016  44.323  11.409
43590W        W 5121  18.760  13.107   0.320
43591W        W 5122  18.241  32.508  14.789
43592W        W 5123   9.189   0.837  13.416
43593W        W 5124  14.147  38.324   2.694
43594W        W 5125  32.442  39.990  13.908
43595W        W 5126  28.185  39.850  11.946
43596W        W 5127  18.139   9.695   3.151
43597W        W 5128  32.435  36.369  14.921
43598W        W 5129  40.042  14.202   2.418
43599W        W 5130   9.295   3.754   4.805
43600W        W 5131   3.250  28.003   4.763
43601W        W 5132  31.584  17.793  12.365
43602W        W 5133  29.649  20.207  14.872
43603W        W 5134   1.361   6.848   4.249
43604W        W 5135  18.220  16.299   4.641
43605W        W 5136  38.373  30.080  11.860
43606W        W 5137  34.026   9.730   4.293
43607W        W 5138  34.406  24.715  12.094
43608W        W 5139  30.596   2.905   1.250
43609W        W 5140   9.743  43.909  13.529
43610W        W 5141  16.703  29.955  10.966
43611W        W 5142   0.978   0.955  14.311
43612W        W 5143  10.217   6.764  13.810
43613W        W 5144  44.321   0.474   1.853
43614W        W 5145   3.432   2.743   3.199
43615W        W 5146  43.483  19.064   1.272
43616W        W 5147  25.024  31.904  14.939
43617W        W 5148  34.492  22.018  13.802
43618W        W 5149   3.371   9.155  12.889
43619W        W 5150  27.565   7.836   3.789
43620W        W 5151  32.019   3.784   4.724
43621W        W 5152   6.729   8.333   2.305
43622W        W 5153  27.514  44.312  11.963
43623W        W 5154  27.092  32.061  11.452
43624W        W 5155  31.991  31.437  11.432
43625W        W 5156  38.948   6.887  11.884
43626W        W 5157  29.051  39.015  13.484
43627W        W 5158  38.506  36.984   4.129
43628W        W 5159  43.423  28.177   0.463
43629W        W 5160   0.787   2.289  10.895
43630W        W 5161  18.172   5.786   0.860
43631W        W 5162  15.681  17.697  13.995
43632W        W 5163  19.556  11.190   1.408
43633W        W 5164   9.305  13.318  12.411
43634W        W 5165  13.214  30.443   5.238
43635W        W 5166  23.604  13.235   3.371
43636W        W 5167   6.697   7.776  10.562
43637W        W 5168  10.766   2.902   5.112
43638W        W 5169  41.293  36.362  10.939
43639W        W 5170  32.579   4.716  11.035
43640W        W 5171   7.291  17.300   2.294
43641W        W 5172   8.182  10.258   4.770
43642W        W 5173  43.369  31.608   3.359
43643W        W 5174  44.914  19.672   0.860
43644W        W 5175  34.001  10.806   0.773
43645W        W 5176   3.935  12.229   0.854
43646W        W 5177  39.401  40.901  13.913
43647W        W 5178  14.713  18.269   1.352
43648W        W 5179   3.262   2.380   4.183
43649W        W 5180   0.380  17.098  12.389
43650W        W 5181   3.263  24.018  11.009
43651W        W 5182  14.242  36.059  12.562
43652W        W 5183  23.629  42.017   1.367
43653W        W 5184  14.730  14.129  13.398
43654W        W 5185  19.234  11.214  13.482
43655W        W 5186  13.263  10.733  13.878
43656W        W 5187  20.046  14.625   0.797
43657W        W 5188  25.711  19.571   3.296
43658W        W 5189  11.849   8.189   1.399
43659W        W 5190   5.400  41.028  14.353
43660W        W 5191  39.965  23.627  13.501
43661W        W 5192  44.341   7.185   3.688
43662W        W 5193  22.543  23.046  14.330
43663W        W 5194  35.095  39.850   2.892
43664W        W 5195   1.480  32.911   3.796
43665W        W 5196  32.072   4.795  12.553
43666W        W 5197  30.107   6.222  13.872
43667W        W 5198   3.735   4.282  14.812
43668W        W 5199  11.861  30.044  11.911
43669W        W 5200  11.699  14.728   3.837
43670W        W 5201  34.927   4.273   0.444
43671W        W 5202  42.803  12.713   3.818
43672W        W 5203  32.092  13.206  12.948
43673W        W 5204  17.283  13.196   4.662
43674W        W 5205  23.687  34.010  13.369
43675W        W 5206  31.439  21.737  12.468
43676W        W 5207  10.229  20.191  13.969
43677W        W 5208   3.394  11.274   4.276
43678W        W 5209  22.543  34.587  13.358
43679W        W 5210  24.177  42.006  11.513
43680W        W 5211   3.784  30.415   3.293
43681W        W 5212  40.347  29.014  11.103
43682W        W 5213  24.079  38.438  13.869
43683W        W 5214  14.690   8.880   1.800
43684W        W 5215   3.853  35.429  12.501
43685W        W 5216  31.444  24.145   0.937
43686W        W 5217  42.881  23.503  13.819
43687W        W 5218  42.507   7.889  11.374
43688W        W 5219  41.963  41.984   1.724
43689W        W 5220  15.294  34.111   4.310
43690W        W 5221  19.669  42.455   0.371
43691W        W 5222  22.515   4.924   4.210
43692W        W 5223  22.604  31.075   4.803
43693W        W 5224  32.560   9.851   2.325
43694W        W 5225  24.715  23.657   2.364
43695W        W 5226  18.211  27.012  11.053
43696W        W 5227  43.351  11.268  10.474
43697W        W 5228  41.042  19.187   1.732
43698W        W 5229  26.973  10.253   2.210
43699W        W 5230  21.072  26.198   2.259
43700W        W 5231  13.649  29.492   0.302
43701W        W 5232  41.851  22.080   4.834
43702W        W 5233  36.986  12.642   0.766
43703W        W 5234  13.727  43.970  14.935
43704W        W 5235   0.379  24.533   5.127
43705W        W 5236  15.605  26.168  13.480
43706W        W 5237   7.278   5.823  11.486
43707W        W 5238  42.315  19.197  14.847
43708W        W 5239   5.876  11.270  13.399
43709W        W 5240  28.547  39.389  14.792
43710W        W 5241  35.950  13.305   1.916
43711W        W 5242  10.208   4.339  14.848
43712W        W 5243  30.538  33.014  13.429
43713W        W 5244  44.450  40.925  11.400
43714W        W 5245  41.800   5.823  11.915
43715W        W 5246  21.023  10.672   0.731
43716W        W 5247  29.647  22.137   2.702
43717W        W 5248  14.770  12.256  14.444
43718W        W 5249  29.033  44.863   4.639
43719W        W 5250   0.797  13.165  11.097
43720W        W 5251  27.469  21.117   1.727
43721W        W 5252  27.094  24.095   0.838
43722W        W 5253   3.388  34.905   2.752
43723W        W 5254  39.481  12.746  12.896
43724W        W 5255  43.778   7.682   0.472
43725W        W 5256  26.670  40.386  11.931
43726W        W 5257  13.340  35.390  13.510
43727W        W 5258  17.304  32.934  12.897
43728W        W 5259  33.594  33.608  14.014
43729W        W 5260  17.631   7.809  12.494
43730W        W 5261  38.942  18.597  11.375
43731W        W 5262   5.369  43.307  13.958
43732W        W 5263  12.194  12.172   3.851
43733W        W 5264  42.399  11.626  14.351
43734W        W 5265  44.947  36.583  14.436
43735W        W 5266  11.779  16.586   0.940
43736W        W 5267  24.199   6.727  14.792
43737W        W 5268  44.786  39.488   0.930
43738W        W 5269   9.375  43.792   3.687
43739W        W 5270  36.510  21.708  11.867
43740W        W 5271  29.649  26.549  11.909
43741W        W 5272  30.144  21.063  12.003
43742W        W 5273   6.254  44.432  13.954
43743W        W 5274   7.417  11.693   1.704
43744W        W 5275  25.659  35.043  14.378
43745W        W 5276   6.830   0.425  13.543
43746W        W 5277  29.542  43.822  14.351
43747W        W 5278  21.677   8.658   3.382
43748W        W 5279  43.793  44.780   3.674
43749W        W 5280  12.689   2.750   2.257
43750W        W 5281  15.696  33.538   3.247
43751W        W 5282  11.293   7.855   0.896
43752W        W 5283   8.837  24.140   2.224
43753W        W 5284  11.863   5.779  12.341
43754W        W 5285  13.226  29.135  13.945
43755W        W 5286  22.591  22.501   0.271
43756W        W 5287  44.381  16.157  12.055
43757W        W 5288  26.152  28.954  13.918
43758W        W 5289  41.525  14.791  11.466
43759W        W 5290  19.643  25.624  12.541
43760W        W 5291   5.877   6.226  13.349
43761W        W 5292  30.986   6.776   3.340
43762W        W 5293  29.055  33.417  11.126
43763W        W 5294  43.285  16.115  11.547
43764W        W 5295  12.235  13.707  13.475
43765W        W 5296   8.339   8.164   0.914
43766W        W 5297  43.489  28.059  10.080
43767W        W 5298  17.760  11.654  13.396
43768W        W 5299   4.861  22.144  11.043
43769W        W 5300   8.193  34.032   3.264
43770W        W 5301  24.056  10.365   4.281
43771W        W 5302  17.616   7.315   1.292
43772W        W 5303  30.097  20.523   4.660
43773W        W 5304  33.564  15.757  10.478
43774W        W 5305   4.853   1.439   0.773
43775W        W 5306  34.472  29.161  13.344
43776W        W 5307  43.882  27.483  10.409
43777W        W 5308   4.804   3.379   0.900
43778W        W 5309  18.565   9.705  12.843
43779W        W 5310  44.454  31.587  11.428
43780W        W 5311  16.584  16.571  12.877
43781W        W 5312  35.101  24.120  12.846
43782W        W 5313  40.919  33.542   0.861
43783W        W 5314  19.702  18.227  11.028
43784W        W 5315  28.167  32.600   0.332
43785W        W 5316   4.925  10.705   0.840
43786W        W 5317  24.040  33.623  12.065
43787W        W 5318  39.425  13.196   1.430
43788W        W 5319  28.089  28.562  10.027
43789W        W 5320  37.032  28.041   1.759
43790W        W 5321  21.706  13.627  14.835
43791W        W 5322  28.101  27.687  13.468
43792W        W 5323  28.664  14.098   4.598
43793W        W 5324  30.079  28.019  12.567
43794W        W 5325   1.927  20.203   4.286
43795W        W 5326  20.656  25.603   3.853
43796W        W 5327  43.396  10.277   0.295
43797W        W 5328  24.657  12.623  14.893
43798W        W 5329  39.546  22.542   0.433
43799W        W 5330  30.921  16.802  12.958
43800W        W 5331   4.797  29.551  14.423
43801W        W 5332  28.610  24.595  12.091
43802W        W 5333  22.121  11.352   4.180
43803W        W 5334  16.614  26.633   2.402
43804W        W 5335  43.429  38.984  10.599
43805W        W 5336  24.991  23.208   0.855
43806W        W 5337   4.428   9.382  13.323
43807W        W 5338   6.355  28.126  12.378
43808W        W 5339   3.870  22.231   2.223
43809W        W 5340  32.075  36.356   5.099
43810W        W 5341  15.097  44.972  12.508
43811W        W 5342  31.899  17.731  14.307
43812W        W 5343  13.301   6.769  12.017
43813W        W 5344  11.677  10.259   3.732
43814W        W 5345  29.992  14.771  12.436
43815W        W 5346   2.324   1.299   1.232
43816W        W 5347   9.184  10.687   3.355
43817W        W 5348  25.538  31.946  11.611
43818W        W 5349  19.548  16.230  11.570
43819W        W 5350  28.016  43.968  13.035
43820W        W 5351  21.569  43.302  12.398
43821W        W 5352  32.544  13.666  11.935
43822W        W 5353  23.637  36.582   3.671
43823W        W 5354  17.566  17.231   2.218
43824W        W 5355  30.972   5.757   4.324
43825W        W 5356  32.450  25.188   3.269
43826W        W 5357  21.132  29.455  13.434
43827W        W 5358  43.378   6.914   3.253
43828W        W 5359  41.382  39.344  11.528
43829W        W 5360  30.556  44.409  13.831
43830W        W 5361   9.846  13.672  11.610
43831W        W 5362   1.857   5.852  13.836
43832W        W 5363  29.663   5.793  14.516
43833W        W 5364  23.715  20.082   1.774
43834W        W 5365  15.767  31.507   2.808
43835W        W 5366  19.157   6.821   2.317
43836W        W 5367  11.152   1.336  13.435
43837W        W 5368  17.072  27.964   2.823
43838W        W 5369   6.357  19.730   1.340
43839W        W 5370  11.330   6.204   4.639
43840W        W 5371  25.551  26.199  11.926
43841W        W 5372  16.702  21.620   3.709
43842W        W 5373  20.123   0.885  10.571
43843W        W 5374  33.383   8.277   0.403
43844W        W 5375  36.957  14.320  14.333
43845W        W 5376  42.326  14.187  14.849
43846W        W 5377   6.204  44.978   1.716
43847W        W 5378  12.282  25.505  11.868
43848W        W 5379  26.032  21.034   3.194
43849W        W 5380  33.473  34.983  13.903
43850W        W 5381  42.932  17.639  13.054
43851W        W 5382  15.321  21.054   4.714
43852W        W 5383   0.801  20.072  13.400
43853W        W 5384   8.394   9.805   2.350
43854W        W 5385  27.187  13.186  14.399
43855W        W 5386  16.588   7.293   0.784
43856W        W 5387   1.973  24.018  14.451
43857W        W 5388  31.608   4.315   1.831
43858W        W 5389  22.136  33.459  14.436
43859W        W 5390   6.314  14.203   4.169
43860W        W 5391  32.082  35.452  13.465
43861W        W 5392  24.162  16.098  13.418
43862W        W 5393  39.047  21.536  10.923
43863W        W 5394  36.969   4.719   4.682
43864W        W 5395  23.123   9.663  11.869
43865W        W 5396  41.789  17.775  14.282
43866W        W 5397  12.163  27.150   2.783
43867W        W 5398  38.956  14.270   2.828
43868W        W 5399  18.693  12.754  14.351
43869W        W 5400  43.904  37.436   1.293
43870W        W 5401  42.974   5.418  10.553
43871W        W 5402  44.373   5.691   1.235
43872W        W 5403  13.721  11.289  13.915
43873W        W 5404   9.233   8.858   1.297
43874W        W 5405   4.788  18.213  14.013
43875W        W 5406   3.419  25.063  13.444
43876W        W 5407  13.300  41.841  12.932
43877W        W 5408  18.280  35.955   1.825
43878W        W 5409  29.483   8.368   1.253
43879W        W 5410  15.231  21.626  10.981
43880W        W 5411  17.641   2.906   4.202
43881W        W 5412   3.913   3.879  12.954
43882W        W 5413  18.126  35.461  14.311
43883W        W 5414  21.626  43.829   3.804
43884W        W 5415  35.392  11.151   0.404
43885W        W 5416  40.536  28.619   2.331
43886W        W 5417  40.893  20.249  13.397
43887W        W 5418  26.193  27.445   1.868
43888W        W 5419  44.791  11.342  13.346
43889W        W 5420   1.278  15.129  14.329
43890W        W 5421  13.613   1.449  14.312
43891W        W 5422  35.859  25.706   3.858
43892W        W 5423   6.752  34.393   4.750
43893W        W 5424  29.114  37.497  10.001
43894W        W 5425  27.184  33.934  11.976
43895W        W 5426  11.786   1.274  12.851
43896W        W 5427  22.103  40.926   1.745
43897W        W 5428   3.903  39.352   4.821
43898W        W 5429  22.702   8.780  10.993
43899W        W 5430  37.528  28.631  14.417
43900W        W 5431   4.397  40.834   0.746
43901W        W 5432  29.046  34.558  13.335
43902W        W 5433  38.044  20.708   2.826
43903W        W 5434   6.363  30.163  11.464
43904W        W 5435  10.642  15.268  14.856
43905W        W 5436  18.238  16.172  12.895
43906W        W 5437  33.089  32.515   2.698
43907W        W 5438  29.923  14.801  13.062
43908W        W 5439  21.060  42.400  11.118
43909W        W 5440  22.056   8.307  11.596
43910W        W 5441  36.390  17.724   2.894
43911W        W 5442  26.619  38.488  14.346
43912W        W 5443  18.787   8.720  12.921
43913W        W 5444  26.168  20.263   0.863
43914W        W 5445  25.076  15.613   1.239
43915W        W 5446  26.659  25.994   1.437
43916W        W 5447   8.195  21.198   1.889
43917W        W 5448  18.775  25.706   3.696
43918W        W 5449  23.040   3.953  12.969
43919W        W 5450   7.275  40.045   3.837
43920W        W 5451  16.085  43.932  14.779
43921W        W 5452  36.073  22.206   2.811
43922W        W 5453   1.357  40.002  12.065
43923W        W 5454  36.883  25.179   2.793
43924W        W 5455  21.632   4.832  13.439
43925W        W 5456  22.681  12.266  13.380
43926W        W 5457  38.872  34.015  12.362
43927W        W 5458  21.751  13.216   2.352
43928W        W 5459  15.619  35.883  12.874
43929W        W 5460  17.218  14.188  11.036
43930W        W 5461   5.320  25.092   1.381
43931W        W 5462  33.084  11.147   0.958
43932W        W 5463  36.067   9.280  13.354
43933W        W 5464   8.753  38.922  14.813
43934W        W 5465   6.307   9.244  13.358
43935W        W 5466  15.762  14.615  13.936
43936W        W 5467  41.485  38.058   1.347
43937W        W 5468   0.880  41.384  10.157
43938W        W 5469  12.170   4.880   4.702
43939W        W 5470  10.838  10.354   2.406
43940W        W 5471   7.318  10.236  14.901
43941W        W 5472  34.944   5.691  13.386
43942W        W 5473  23.548  22.590  11.102
43943W        W 5474  37.945  39.875  13.357
43944W        W 5475  22.746   0.759   0.293
43945W        W 5476  32.533   7.674  14.392
43946W        W 5477  11.155  33.625   0.252
43947W        W 5478  24.039   6.296  12.095
43948W        W 5479   3.717  32.556  12.490
43949W        W 5480   1.322  16.681   1.220
43950W        W 5481  14.335   1.374   4.256
43951W        W 5482   7.784   8.897  14.883
43952W        W 5483  37.568  13.245  11.993
43953W        W 5484   2.246  38.857  10.107
43954W        W 5485  20.750  31.079   0.408
43955W        W 5486  34.991  15.116   3.260
43956W        W 5487   2.720  18.293   4.319
43957W        W 5488  10.215  34.595  13.793
43958W        W 5489  42.822   2.950   2.856
43959W        W 5490  41.319  33.964  14.831
43960W        W 5491  29.029  37.361   3.291
43961W        W 5492  44.494  21.164   1.726
43962W        W 5493  24.132   0.445   4.204
43963W        W 5494  25.210  17.071   1.297
43964W        W 5495   1.337  23.051  10.554
43965W        W 5496  10.264  39.850  10.943
43966W        W 5497  17.725  33.013   1.824
43967W        W 5498  42.495  31.001  11.519
43968W        W 5499  41.433   7.298  14.348
43969W        W 5500  27.032  27.484  13.314
43970W        W 5501  42.896  30.502  12.388
43971W        W 5502  24.600  25.050   0.900
43972W        W 5503   8.660  21.625  12.359
43973W        W 5504  36.387  21.119   2.214
43974W        W 5505  14.684  34.613  12.969
43975W        W 5506  14.597  16.221  14.944
43976W        W 5507  32.483  16.122  12.499
43977W        W 5508  18.669  37.420   4.631
43978W        W 5509  30.014  15.719   3.811
43979W        W 5510   0.370   0.421  13.875
43980W        W 5511  34.450  17.745   5.272
43981W        W 5512  15.667  31.091  12.879
43982W        W 5513   7.308  20.110  13.323
43983W        W 5514  18.553  33.514  11.115
43984W        W 5515  30.954  18.270  12.427
43985W        W 5516   2.728   8.343  13.975
43986W        W 5517  13.688  10.245   3.645
43987W        W 5518  12.670   8.742  13.013
43988W        W 5519  36.540  31.036   1.794
43989W        W 5520  42.852  15.111  11.913
43990W        W 5521  17.780  27.036   2.897
43991W        W 5522  41.395  30.559   1.860
43992W        W 5523  37.415  29.085   0.906
43993W        W 5524  25.996  11.727  11.516
43994W        W 5525  11.843  38.937  13.313
43995W        W 5526  43.017  35.364  11.527
43996W        W 5527  20.691  36.045   3.713
43997W        W 5528  43.370  17.209  10.523
43998W        W 5529  29.095   0.935  13.383
43999W        W 5530  31.112  42.923  14.476
44000W        W 5531  27.960  20.101  14.372
44001W        W 5532  34.064  27.481  10.622
44002W        W 5533  31.537  35.520   1.312
44003W        W 5534  20.105  15.099   0.269
44004W        W 5535  12.289   7.242   1.789
44005W        W 5536  19.187  15.617   2.405
44006W        W 5537  18.246  40.532   3.786
44007W        W 5538  31.986  35.974   3.205
44008W        W 5539   1.456  44.389   0.838
44009W        W 5540  28.568  33.043   4.660
44010W        W 5541  41.942  24.525   4.623
44011W        W 5542  25.658  25.669  13.514
44012W        W 5543  15.824  41.839   2.689
44013W        W 5544   3.804  22.130   1.751
44014W        W 5545  41.899  21.169  12.477
44015W        W 5546  10.313  15.264  14.775
44016W        W 5547   6.257  19.054   2.725
44017W        W 5548   2.846  12.330  14.852
44018W        W 5549  31.473  41.425   3.218
44019W        W 5550  12.178  18.720  14.314
44020W        W 5551   9.764   4.444  14.991
44021W        W 5552  20.099  17.747  11.045
44022W        W 5553  11.739   0.833  12.032
44023W        W 5554  35.075  28.661  12.868
44024W        W 5555   2.236  10.170   4.736
44025W        W 5556  10.141  37.860   3.853
44026W        W 5557  13.268  40.923   3.638
44027W        W 5558  44.361   0.747   4.331
44028W        W 5559  24.996  21.181  14.488
44029W        W 5560  13.206  12.341   0.883
44030W        W 5561   1.431  44.343   1.868
44031W        W 5562  40.538  22.250  14.403
44032W        W 5563  30.599   6.411   1.709
44033W        W 5564  22.019  40.954   3.794
44034W        W 5565  30.970  43.949   1.451
44035W        W 5566  30.918  30.423  14.810
44036W        W 5567   1.457  32.474  10.537
44037W        W 5568  34.519  29.122   0.304
44038W        W 5569  36.406  34.554  13.365
44039W        W 5570  29.467   5.302  11.433
44040W        W 5571  23.624  18.599  11.987
44041W        W 5572   0.874  13.730   1.316
44042W        W 5573  42.527  20.134   1.406
44043W        W 5574  38.363  38.924  10.985
44044W        W 5575  34.977  38.864   1.287
44045W        W 5576  30.589  41.480  14.515
44046W        W 5577  17.766  17.227  10.410
44047W        W 5578  40.358   6.226  12.557
44048W        W 5579  41.344  38.378   0.839
44049W        W 5580   6.849  43.461   2.262
44050W        W 5581  26.555   0.334  10.027
44051W        W 5582  21.086  34.403  10.412
44052W        W 5583  12.302  20.048  14.878
44053W        W 5584   5.817   6.855  12.563
44054W        W 5585  16.134   5.237   3.750
44055W        W 5586  12.724  32.032   3.146
44056W        W 5587  23.682  23.494   3.254
44057W        W 5588  39.037  36.049   4.806
44058W        W 5589  36.416   7.220  13.843
44059W        W 5590  20.067  15.191  14.313
44060W        W 5591  36.034  24.524  13.851
44061W        W 5592  12.255  41.312   0.380
44062W        W 5593  30.127  15.319   9.437
44063W        W 5594  35.973  11.132  13.544
44064W        W 5595  16.632  34.911   0.963
44065W        W 5596  16.212  32.950  10.123
44066W        W 5597  18.782  19.181   1.231
44067W        W 5598  26.603  11.821  12.415
44068W        W 5599  13.134  11.784  13.519
44069W        W 5600  32.598  40.004  12.987
44070W        W 5601   0.446  33.007   1.389
44071W        W 5602   7.874   7.372   4.835
44072W        W 5603  12.763  25.519   1.241
44073W        W 5604  33.499  18.712   3.860
44074W        W 5605  14.643   5.904  12.882
44075W        W 5606  32.585  30.502  13.338
44076W        W 5607   9.673  28.580   1.766
44077W        W 5608  10.207  19.733  13.472
44078W        W 5609   3.278  43.425   3.702
44079W        W 5610  17.710  35.055   0.413
44080W        W 5611  35.477  12.662  14.335
44081W        W 5612   8.877  36.502   4.176
44082W        W 5613  24.157  33.469   1.827
44083W        W 5614  29.072  16.783  12.460
44084W        W 5615   0.919  43.414  10.524
44085W        W 5616   8.717   3.333  10.569
44086W        W 5617  33.933  26.055   0.384
44087W        W 5618   6.340   0.896  10.001
44088W        W 5619   7.256   6.361  13.972
44089W        W 5620  32.446  42.992  13.970
44090W        W 5621  11.248  32.600   1.785
44091W        W 5622  29.478   6.214   4.598
44092W        W 5623  43.323  14.292   2.274
44093W        W 5624  34.615  36.453   1.374
44094W        W 5625  42.982  40.376   2.899
44095W        W 5626  24.080  42.022  14.377
44096W        W 5627  27.457  20.745  13.423
44097W        W 5628  37.465  29.611  11.127
44098W        W 5629  40.314   5.814  14.462
44099W        W 5630  25.680   4.308  14.978
44100W        W 5631   3.343  32.933  10.956
44101W        W 5632  38.944  17.637   1.771
44102W        W 5633  39.386   1.348  13.990
44103W        W 5634  43.839  13.155  12.996
44104W        W 5635   8.793  20.035   0.462
44105W        W 5636  43.327  26.684  13.525
44106W        W 5637  33.030  27.979   0.315
44107W        W 5638  36.967   2.277   2.810
44108W        W 5639  19.083  21.214   4.240
44109W        W 5640  27.567  41.966  10.420
44110W        W 5641  35.492  26.177  14.785
44111W        W 5642  40.312  27.014   4.679
44112W        W 5643   5.371  23.649   2.818
44113W        W 5644   2.353  18.583   3.325
44114W        W 5645  41.851  26.101  13.028
44115W        W 5646  31.116   7.831   4.267
44116W        W 5647  12.202  12.846   3.855
44117W        W 5648  24.032   0.943   1.310
44118W        W 5649  13.736  23.559   2.811
44119W        W 5650  33.461  25.172  11.558
44120W        W 5651   5.217   4.337  13.511
44121W        W 5652  14.657   9.339  14.389
44122W        W 5653  39.821  29.576   0.764
44123W        W 5654  36.846  25.158   3.864
44124W        W 5655   1.243  15.783   1.749
44125W        W 5656   9.319  29.075  14.770
44126W        W 5657   4.401  43.389  13.948
44127W        W 5658  30.627  33.918  14.369
44128W        W 5659  37.034   5.782   0.431
44129W        W 5660  42.305  38.411   2.411
44130W        W 5661  18.784  35.918   1.288
44131W        W 5662  27.530  17.252  12.016
44132W        W 5663  35.944  12.788   3.161
44133W        W 5664   8.865  17.749   1.867
44134W        W 5665  40.037  40.437  13.973
44135W        W 5666   2.232  31.043  10.590
44136W        W 5667  22.230  16.800   1.306
44137W        W 5668  28.151   9.786  11.899
44138W        W 5669  11.749  21.544  13.364
44139W        W 5670  41.304   6.370   2.359
44140W        W 5671  13.335  43.894  11.472
44141W        W 5672  16.103  36.358   3.316
44142W        W 5673   2.764   5.407  12.990
44143W        W 5674  37.870  31.060   1.371
44144W        W 5675  24.188  12.217  12.391
44145W        W 5676   3.815  35.909   4.168
44146W        W 5677  13.607  35.923  14.289
44147W        W 5678   4.767  16.308   2.788
44148W        W 5679  31.945  23.558  13.005
44149W        W 5680  12.748  16.567   1.778
44150W        W 5681  17.077  44.816  14.864
44151W        W 5682  20.039  42.336  12.010
44152W        W 5683  37.934  31.450   2.867
44153W        W 5684  42.433  44.779   0.429
44154W        W 5685  15.296  13.213   2.206
44155W        W 5686  44.825  25.117   5.320
44156W        W 5687  28.128  18.142   2.232
44157W        W 5688  19.735  25.997   1.817
44158W        W 5689  17.600  13.635  13.361
44159W        W 5690   2.235   2.341  11.999
44160W        W 5691   6.204   9.262   0.474
44161W        W 5692  43.318  32.005   0.902
44162W        W 5693  38.963  32.554   0.360
44163W        W 5694   0.937  10.832  14.015
44164W        W 5695  17.071  22.127  13.521
44165W        W 5696  31.506  29.609  14.902
44166W        W 5697   3.278  19.619   3.865
44167W        W 5698  37.424  43.286   3.222
44168W        W 5699  40.832  19.667   1.766
44169W        W 5700  32.999  41.985  11.938
44170W        W 5701  19.211  44.907   0.887
44171W        W 5702   3.731  35.535   1.387
44172W        W 5703  35.985  40.460   2.683
44173W        W 5704  26.692  40.836  14.516
44174W        W 5705  43.443  33.896  12.481
44175W        W 5706  29.175  21.611  14.378
44176W        W 5707  42.433  42.285   0.401
44177W        W 5708  19.542   3.836   4.220
44178W        W 5709  30.613  27.017   4.127
44179W        W 5710  21.253  21.755   1.390
44180W        W 5711  13.318   3.914   2.774
44181W        W 5712  14.701  21.598   1.932
44182W        W 5713  16.790  20.678   1.417
44183W        W 5714   0.453  22.014   3.197
44184W        W 5715  43.492   8.173   4.249
44185W        W 5716  26.583   8.206  10.983
44186W        W 5717  43.402  19.558  10.587
44187W        W 5718  25.201  36.447   3.266
44188W        W 5719   0.257  23.133  11.429
44189W        W 5720  10.861  10.379   3.824
44190W        W 5721  32.962   0.487   1.232
44191W        W 5722  14.822   6.770  14.924
44192W        W 5723  28.573  43.492   2.882
44193W        W 5724  21.516  11.127   3.865
44194W        W 5725  28.165   3.854  13.546
44195W        W 5726  20.709  37.457  14.806
44196W        W 5727   4.882  10.320   4.285
44197W        W 5728   4.386  22.740   2.664
44198W        W 5729   4.772   3.866  11.066
44199W        W 5730  23.680   5.733   2.757
44200W        W 5731  17.246  13.344   3.830
44201W        W 5732  17.581  34.994  14.298
44202W        W 5733  14.227  19.567  12.984
44203W        W 5734  39.477   6.775  14.847
44204W        W 5735   8.296  28.667  10.459
44205W        W 5736  36.549  15.290  12.024
44206W        W 5737  17.130  15.664   0.850
44207W        W 5738   0.327  32.025   4.715
44208W        W 5739  35.048  34.502   2.245
44209W        W 5740  15.291  42.499  10.911
44210W        W 5741  36.009   2.244  11.402
44211W        W 5742  37.415  40.906  12.848
44212W        W 5743  17.254  25.201  11.476
44213W        W 5744  34.092   0.988   1.745
44214W        W 5745   8.174  26.579   1.772
44215W        W 5746  17.254   2.267   4.708
44216W        W 5747  33.122  14.696   3.269
44217W        W 5748   1.313   3.879  12.079
44218W        W 5749   1.429  21.183   4.170
44219W        W 5750  29.044  38.339   0.394
44220W        W 5751  34.922   7.839   1.919
44221W        W 5752  14.281  41.292  13.318
44222W        W 5753   7.801  22.526  11.530
44223W        W 5754  11.298  44.339  12.840
44224W        W 5755  37.030  14.294   3.641
44225W        W 5756  12.627  21.556   0.871
44226W        W 5757  39.454   4.259   2.187
44227W        W 5758  27.554   0.883   3.713
44228W        W 5759  38.567  21.610  12.452
44229W        W 5760  42.885  37.371   3.725
44230W        W 5761   0.272  29.930  11.431
44231W        W 5762  13.261  32.569  11.125
44232W        W 5763  40.028  31.505   2.668
44233W        W 5764  20.108  22.185   0.845
44234W        W 5765  14.615  43.441   3.735
44235W        W 5766  43.507  36.465   0.761
44236W        W 5767  12.302  41.799  12.428
44237W        W 5768   3.872   9.392   3.665
44238W        W 5769  27.981  25.142   4.708
44239W        W 5770   0.493  14.147   1.406
44240W        W 5771  30.454   5.282  13.503
44241W        W 5772  27.608   4.233   4.156
44242W        W 5773   1.367  34.469   3.827
44243W        W 5774   9.788   9.731  11.536
44244W        W 5775  43.509  37.930   1.443
44245W        W 5776   2.780  17.716   1.854
44246W        W 5777   6.264  22.113  12.473
44247W        W 5778  21.741  11.807  14.924
44248W        W 5779   9.366  11.855  10.491
44249W        W 5780  42.352  15.784  11.517
44250W        W 5781  13.758  31.047  14.276
44251W        W 5782  34.976  10.177  12.083
44252W        W 5783  30.533  22.199  12.989
44253W        W 5784   1.777   8.722   1.250
44254W        W 5785  38.946  32.591  10.533
44255W        W 5786  44.838  11.198   1.376
44256W        W 5787  43.947   3.956  11.417
44257W        W 5788  15.717  20.078   2.397
44258W        W 5789  23.689  27.614  13.512
44259W        W 5790   0.395  15.124   0.394
44260W        W 5791   3.789  13.181   0.318
44261W        W 5792  43.408  31.005   2.383
44262W        W 5793  19.729   1.818  11.539
44263W        W 5794  27.034  41.939   2.371
44264W        W 5795  17.182  44.318  10.012
44265W        W 5796  15.137  38.375   0.470
44266W        W 5797  15.252   6.796   0.833
44267W        W 5798  16.310   2.797   2.410
44268W        W 5799  40.808  42.364   2.250
44269W        W 5800  20.692  17.226  10.486
44270W        W 5801  12.207  37.413  13.388
44271W        W 5802  44.426   5.741  14.360
44272W        W 5803  40.393  22.060   4.746
44273W        W 5804  43.369  44.294   2.267
44274W        W 5805  16.073  18.688  14.786
44275W        W 5806  22.011   5.428   3.282
44276W        W 5807   1.360   6.806   3.153
44277W        W 5808  19.723  18.177   4.620
44278W        W 5809   3.305  28.557   2.800
44279W        W 5810  28.559   1.797   3.724
44280W        W 5811  37.923   6.393  10.011
44281W        W 5812  39.398  44.309  12.526
44282W        W 5813   5.241  35.568   4.682
44283W        W 5814   2.867  44.919   3.227
44284W        W 5815  31.573  11.347   1.787
44285W        W 5816  15.682  26.630  10.065
44286W        W 5817  29.072  40.351  14.770
44287W        W 5818   8.880   2.897  10.492
44288W        W 5819  43.314  33.941  13.491
44289W        W 5820  21.684  30.529   4.283
44290W        W 5821  33.078  14.737  14.333
44291W        W 5822  17.689  43.890   2.810
44292W        W 5823  11.642  39.919   3.862
44293W        W 5824   3.443  36.857   0.464
44294W        W 5825  39.917  38.018   0.447
44295W        W 5826  14.749  37.337  14.515
44296W        W 5827  12.176   0.260   1.768
44297W        W 5828   7.809   3.810  13.430
44298W        W 5829  35.361  41.000  14.361
44299W        W 5830   0.372  24.584  14.376
44300W        W 5831  43.377  37.465   4.292
44301W        W 5832  36.022   2.781   2.712
44302W        W 5833  34.456  44.282   2.359
44303W        W 5834   7.837  42.282   0.270
44304W        W 5835   7.382   4.837  10.549
44305W        W 5836  39.954  14.240  13.327
44306W        W 5837  19.174  41.374   2.709
44307W        W 5838  44.318  20.755  12.825
44308W        W 5839  37.922  37.460  12.857
44309W        W 5840   1.366  40.916  13.012
44310W        W 5841  39.033  12.191   2.864
44311W        W 5842  25.620  35.099   1.886
44312W        W 5843  43.306  13.123  14.940
44313W        W 5844   2.861  23.133  11.525
44314W        W 5845  17.095  31.477   0.963
44315W        W 5846  15.329  24.054   5.104
44316W        W 5847   3.245  44.410   2.414
44317W        W 5848  20.266   2.849   1.245
44318W        W 5849  36.884  32.090   3.760
44319W        W 5850  42.420  13.602   0.759
44320W        W 5851   4.850   3.745  11.598
44321W        W 5852  22.678  36.978   0.784
44322W        W 5853  36.383  37.982   2.228
44323W        W 5854  19.151  11.767  14.403
44324W        W 5855  36.451   1.787  11.500
44325W        W 5856  23.509  30.591   1.244
44326W        W 5857  31.949  30.508  11.873
44327W        W 5858  12.314  21.252  13.829
44328W        W 5859  22.031   6.686  10.966
44329W        W 5860   9.834   8.235  10.513
44330W        W 5861  15.802  30.610  12.481
44331W        W 5862  38.460  37.943  14.320
44332W        W 5863  29.650  35.474   4.306
44333W        W 5864   2.836  28.506   5.782
44334W        W 5865   1.919  31.115  11.065
44335W        W 5866  16.633  22.029   9.650
44336W        W 5867  25.128   3.376  12.092
44337W        W 5868   8.395  10.747   0.327
44338W        W 5869  41.420   8.254   1.773
44339W        W 5870   3.730  12.142   0.329
44340W        W 5871   8.828  35.000   1.303
44341W        W 5872  24.672  41.526   2.328
44342W        W 5873  28.492  42.000   4.716
44343W        W 5874  19.127  30.101   4.704
44344W        W 5875  32.433  38.019  13.325
44345W        W 5876  42.457  42.446   1.730
44346W        W 5877  12.225   4.927  12.052
44347W        W 5878   0.469  23.686   3.313
44348W        W 5879   4.852  17.692   4.801
44349W        W 5880  21.030  44.909   3.365
44350W        W 5881  39.048   1.382  11.939
44351W        W 5882  36.422  37.519  13.504
44352W        W 5883   9.669  29.020   3.749
44353W        W 5884  20.762   5.754  14.835
44354W        W 5885  31.064  37.398  13.970
44355W        W 5886   6.801   3.764  11.019
44356W        W 5887  44.890   2.804  14.796
44357W        W 5888   6.270  21.544   2.387
44358W        W 5889  40.434  40.355   1.370
44359W        W 5890  39.986  33.116   3.631
44360W        W 5891  35.357  20.185  13.462
44361W        W 5892   9.242  26.574   4.737
44362W        W 5893   1.438  28.650   3.157
44363W        W 5894  14.238  25.167  11.113
44364W        W 5895   6.771  27.614   2.733
44365W        W 5896  24.041  21.125   2.273
44366W        W 5897  27.949  28.659   2.188
44367W        W 5898  22.188   6.352  13.896
44368W        W 5899  36.517  27.585   2.817
44369W        W 5900   2.799  28.182   4.191
44370W        W 5901  39.452  14.122  12.528
44371W        W 5902   8.843  40.469  14.338
44372W        W 5903   2.368  17.568   2.669
44373W        W 5904  16.684   5.841   0.935
44374W        W 5905   3.267  15.744   4.747
44375W        W 5906  26.126   7.797  14.284
44376W        W 5907   1.282  21.035   1.253
44377W        W 5908   2.821  44.461  12.050
44378W        W 5909  27.166   0.466  14.878
44379W        W 5910  35.420   7.407   1.417
44380W        W 5911  24.638  21.047   0.872
44381W        W 5912  15.724  41.383  13.525
44382W        W 5913  19.715   5.788  11.470
44383W        W 5914   4.331  28.081  11.534
44384W        W 5915   5.800  12.664   0.740
44385W        W 5916  40.863  42.477  14.839
44386W        W 5917  20.031  36.499   1.696
44387W        W 5918   3.828   8.846  12.065
44388W        W 5919  40.036   0.844   0.322
44389W        W 5920  41.966   9.271  14.897
44390W        W 5921  25.500  34.068   1.344
44391W        W 5922  23.523  10.861   2.287
44392W        W 5923   0.947  37.419   2.182
44393W        W 5924  39.861  25.109   1.738
44394W        W 5925   0.896  23.635  14.983
44395W        W 5926  17.734  26.204  14.452
44396W        W 5927  10.876  33.445  14.515
44397W        W 5928  14.746  37.073   2.203
44398W        W 5929  36.525  11.627  13.361
44399W        W 5930   8.731  15.213  14.808
44400W        W 5931   9.687  37.047  11.948
44401W        W 5932  36.438  18.187   4.278
44402W        W 5933  32.417  37.469   2.799
44403W        W 5934  17.148  10.383   5.249
44404W        W 5935  23.229  26.127  12.522
44405W        W 5936  22.135  36.058   3.669
44406W        W 5937  22.721   1.882  12.398
44407W        W 5938   7.293  43.962  14.387
44408W        W 5939  39.378  25.072   0.325
44409W        W 5940   8.223  26.628  12.080
44410W        W 5941  22.243  12.725  10.999
44411W        W 5942  23.229  16.132  12.987
44412W        W 5943  40.467  18.288   2.218
44413W        W 5944  16.088  16.078   3.666
44414W        W 5945   0.893  26.149  14.472
44415W        W 5946  18.724  11.278   1.313
44416W        W 5947   2.777  21.543   2.253
44417W        W 5948  19.195  41.360   0.278
44418W        W 5949  41.964  39.418  14.426
44419W        W 5950  32.482  22.211  14.932
44420W        W 5951  16.154  15.151   0.301
44421W        W 5952  39.350  43.449   3.760
44422W        W 5953  37.405   1.736   4.625
44423W        W 5954  19.551   7.267   4.213
44424W        W 5955  15.603  33.105   4.782
44425W        W 5956  38.927  17.734   3.349
44426W        W 5957  22.628  35.588  13.816
44427W        W 5958  39.501  34.432   0.426
44428W        W 5959   4.217  13.307   3.199
44429W        W 5960  18.695  16.657   4.171
44430W        W 5961  43.370  29.584   2.853
44431W        W 5962  33.010  18.107  10.999
44432W        W 5963  35.532  24.549  10.459
44433W        W 5964  30.535  11.621   4.346
44434W        W 5965  41.406  16.225  12.824
44435W        W 5966  30.437  44.426   1.439
44436W        W 5967   3.335  20.132  14.343
44437W        W 5968   5.209  18.692  14.341
44438W        W 5969  39.337   2.332  10.441
44439W        W 5970  21.625  39.913  13.481
44440W        W 5971  26.469  27.980   4.215
44441W        W 5972  31.486  29.634   2.729
44442W        W 5973   9.774   4.355   1.933
44443W        W 5974   6.764   3.313  13.842
44444W        W 5975  14.220  43.972   0.924
44445W        W 5976   3.270   4.210  12.876
44446W        W 5977  26.468  15.695  10.110
44447W        W 5978  16.792  25.136  14.819
44448W        W 5979  13.160  40.923  14.449
44449W        W 5980  37.955  34.097   1.400
44450W        W 5981   8.256  19.040  13.863
44451W        W 5982   0.900   5.720  12.865
44452W        W 5983   1.781  20.717  12.024
44453W        W 5984  41.826   3.256  11.594
44454W        W 5985  40.979   8.767   2.310
44455W        W 5986   4.772  36.476   2.306
44456W        W 5987   2.874  11.357  11.438
44457W        W 5988  38.043  40.797   0.276
44458W        W 5989   3.275  44.392   3.185
44459W        W 5990   5.782  21.032  12.423
44460W        W 5991  17.081  28.970   2.411
44461W        W 5992  37.054  29.057   0.350
44462W        W 5993  15.742   9.309   3.854
44463W        W 5994   6.319  38.067   3.351
44464W        W 5995  28.614  32.022  11.879
44465W        W 5996   7.218  17.746  11.865
44466W        W 5997  42.313   0.455  13.376
44467W        W 5998   1.468  43.359  10.935
44468W        W 5999  30.924  11.726   2.369
44469W        W 6000  36.508  20.766   3.268
44470W        W 6001   5.895  28.147  13.888
44471W        W 6002  40.448  32.916   4.252
44472W        W 6003  19.538  14.122  10.551
44473W        W 6004  35.394  23.544  10.990
44474W        W 6005   4.894  31.044  11.589
44475W        W 6006  21.022  24.166  10.604
44476W        W 6007  29.040   7.312   4.786
44477W        W 6008  29.553   6.913   3.685
44478W        W 6009  41.443  36.438   3.816
44479W        W 6010  34.930  16.111   1.298
44480W        W 6011  35.548   7.308   2.222
44481W        W 6012  10.669  11.201  12.561
44482W        W 6013  12.361  13.720   2.707
44483W        W 6014  35.477  18.604   4.142
44484W        W 6015  11.670  29.141  12.419
44485W        W 6016   8.288  11.661  13.902
44486W        W 6017  22.520  19.684  14.293
44487W        W 6018   4.881   8.190  12.530
44488W        W 6019   3.347  42.368  12.989
44489W        W 6020  13.183  18.729  14.422
44490W        W 6021   9.152  39.011  11.056
44491W        W 6022  30.138  11.270  12.990
44492W        W 6023  29.608  11.748  13.050
44493W        W 6024  43.308  22.051   0.440
44494W        W 6025  20.547  31.936   2.832
44495W        W 6026  34.380  13.618  10.423
44496W        W 6027  37.493  41.500  10.480
44497W        W 6028  43.385  29.164  12.559
44498W        W 6029  38.912  31.546   3.699
44499W        W 6030   3.782  24.522   1.694
44500W        W 6031  19.655   0.371  14.839
44501W        W 6032  13.345  32.512   0.483
44502W        W 6033   1.268  14.682  11.453
44503W        W 6034  16.676  38.820  13.872
44504W        W 6035  28.587  22.036  14.934
44505W        W 6036  24.649  34.600  11.061
44506W        W 6037  21.539  16.074   0.841
44507W        W 6038   6.747   8.874   0.787
44508W        W 6039   5.794  10.182  11.964
44509W        W 6040  28.569  34.033   1.704
44510W        W 6041  32.889  44.761   4.287
44511W        W 6042  15.713   0.276   1.399
44512W        W 6043  36.499  27.657   0.862
44513W        W 6044  12.829   3.341   3.832
44514W        W 6045  15.264  20.133  14.963
44515W        W 6046  43.447  28.597   2.304
44516W        W 6047  32.081  18.274  12.043
44517W        W 6048   2.803   8.281  11.381
44518W        W 6049  37.441   3.300  11.534
44519W        W 6050   0.817  22.136   1.282
44520W        W 6051   5.331  41.439   5.126
44521W        W 6052  37.450  22.016  11.129
44522W        W 6053  25.101   3.376   2.346
44523W        W 6054  26.197   7.852   2.738
44524W        W 6055  11.254  20.691  12.438
44525W        W 6056  40.394   6.272  10.982
44526W        W 6057  31.483   7.800   3.155
44527W        W 6058  12.201  37.900   3.283
44528W        W 6059  29.490  35.917   2.331
44529W        W 6060  32.392  23.100   1.244
44530W        W 6061  36.858  30.010  13.518
44531W        W 6062  27.462  43.938  13.873
44532W        W 6063  44.952  34.404  12.455
44533W        W 6064  30.009  14.769  10.892
44534W        W 6065  43.997   6.833  14.303
44535W        W 6066   1.920  13.251  10.968
44536W        W 6067  24.187  26.187   2.415
44537W        W 6068  33.595  23.642   3.197
44538W        W 6069  12.622  10.174   2.767
44539W        W 6070  11.315  25.507  11.013
44540W        W 6071  28.520  39.418  10.939
44541W        W 6072  38.863  33.499   5.266
44542W        W 6073  22.006  34.114   1.906
44543W        W 6074  13.726  16.293  13.815
44544W        W 6075  22.617  30.596   1.729
44545W        W 6076  43.867   4.370   0.804
44546W        W 6077  43.933  13.271   1.700
44547W        W 6078   4.450  10.319  12.827
44548W        W 6079  38.922  20.091  12.830
44549W        W 6080  34.562  28.103  11.943
44550W        W 6081  25.536  33.938   4.807
44551W        W 6082  40.333  16.316  13.462
44552W        W 6083  13.675   3.739  13.328
44553W        W 6084  40.321  16.090   4.765
44554W        W 6085  31.027  26.497   1.238
44555W        W 6086  32.959  18.696   4.751
44556W        W 6087  43.465  19.076   4.790
44557W        W 6088  13.723  15.792   4.157
44558W        W 6089   7.731  12.291   4.692
44559W        W 6090  36.439  21.630   4.347
44560W        W 6091  42.960  18.061   3.705
44561W        W 6092  20.636  31.607  13.007
44562W        W 6093  14.129  37.010  12.979
44563W        W 6094  35.463  43.927  14.799
44564W        W 6095  27.004  35.930  12.013
44565W        W 6096  35.915  43.933  10.903
44566W        W 6097  24.486   0.354  13.028
44567W        W 6098   0.283  15.632  14.820
44568W        W 6099  42.336  35.362  12.400
44569W        W 6100  22.521  39.001  13.422
44570W        W 6101  11.820  20.149  14.406
44571W        W 6102  11.342  17.301  12.535
44572W        W 6103  20.736  23.041  12.421
44573W        W 6104  19.147  27.170   3.810
44574W        W 6105  25.181   7.775   4.322
44575W        W 6106  35.901  12.310  14.028
44576W        W 6107  26.698  10.296   2.700
44577W        W 6108  42.898  11.366  13.541
44578W        W 6109  34.566  41.928  14.028
44579W        W 6110   6.897  13.249  11.050
44580W        W 6111  33.475  35.420   4.830
44581W        W 6112  31.105   2.854   3.255
44582W        W 6113  15.769  17.274   4.692
44583W        W 6114  34.486  28.956  12.352
44584W        W 6115   8.337   9.676  13.001
44585W        W 6116  12.144  39.811   3.180
44586W        W 6117   2.801  23.226   2.859
44587W        W 6118  43.994  39.454   3.171
44588W        W 6119  24.050  37.341   1.277
44589W        W 6120  15.596  38.534  12.054
44590W        W 6121   5.749  18.618  10.890
44591W        W 6122   1.754  20.123   3.214
44592W        W 6123  25.656   9.812   0.761
44593W        W 6124   6.747   0.343  11.563
44594W        W 6125   9.857  10.202   2.789
44595W        W 6126  35.534  26.478   9.936
44596W        W 6127  11.366   9.812   0.826
44597W        W 6128   8.398  26.505   0.799
44598W        W 6129  38.874  14.711  12.834
44599W        W 6130  16.215  39.902  14.502
44600W        W 6131   4.879   0.829  12.513
44601W        W 6132  11.781   5.883  12.847
44602W        W 6133   9.877  30.161   1.394
44603W        W 6134  24.651  38.991  14.312
44604W        W 6135  32.951  11.201   1.752
44605W        W 6136   1.243  28.557   0.755
44606W        W 6137   1.253  43.879  11.120
44607W        W 6138   7.356  42.870  13.857
44608W        W 6139  34.109  15.084  14.000
44609W        W 6140  36.577  40.811   4.193
44610W        W 6141  19.263  23.229  11.879
44611W        W 6142  21.057   6.285   1.377
44612W        W 6143  35.028  32.553  14.863
44613W        W 6144  22.744  40.486  14.778
44614W        W 6145   8.707   6.370  13.421
44615W        W 6146  18.150  38.470   2.346
44616W        W 6147  35.895  15.579  14.322
44617W        W 6148   9.242  14.813   1.818
44618W        W 6149  41.848  43.349   4.811
44619W        W 6150  24.974  25.061  14.336
44620W        W 6151  36.031  34.405   4.260
44621W        W 6152  15.801  11.177  12.886
44622W        W 6153  25.061  20.643  12.851
44623W        W 6154  28.162  19.255   0.390
44624W        W 6155  18.280  27.604  10.491
44625W        W 6156  21.165  39.949   2.890
44626W        W 6157  15.666   5.866   4.692
44627W        W 6158  34.047  27.130   4.249
44628W        W 6159  42.348  29.556   3.652
44629W        W 6160   8.343  21.685  12.464
44630W        W 6161  43.924  12.817   3.816
44631W        W 6162  33.446  44.853   0.847
44632W        W 6163  38.828  24.522   2.876
44633W        W 6164  30.460  10.737  14.900
44634W        W 6165  30.524  33.538  10.902
44635W        W 6166  10.274  22.048  11.875
44636W        W 6167  31.144  21.696   4.143
44637W        W 6168  37.843  13.194  11.502
44638W        W 6169  15.723   1.825   0.942
44639W        W 6170  32.560   7.688   1.253
44640W        W 6171   4.223  29.492   2.672
44641W        W 6172  33.567  33.538   0.862
44642W        W 6173   7.783  11.323  11.582
44643W        W 6174  43.347  32.941  13.465
44644W        W 6175  12.738  31.565  12.534
44645W        W 6176  30.021   5.844  12.971
44646W        W 6177  22.645  35.396   2.327
44647W        W 6178  42.362  33.890  11.413
44648W        W 6179  19.677   0.327   9.976
44649W        W 6180  38.868   6.849  13.899
44650W        W 6181  31.044  13.838  10.492
44651W        W 6182  40.888  10.210   1.818
44652W        W 6183  42.895  22.623  12.434
44653W        W 6184   3.749   5.705   3.728
44654W        W 6185  39.982  17.274  13.951
44655W        W 6186  12.132  43.834   0.961
44656W        W 6187  35.074  43.842  12.482
44657W        W 6188  43.958  20.741   4.286
44658W        W 6189  39.444  21.097   0.749
44659W        W 6190  25.587  32.058  12.096
44660W        W 6191   8.740  20.753   1.919
44661W        W 6192  15.214  41.486  14.770
44662W        W 6193  18.112  38.938  11.398
44663W        W 6194  15.582   5.854   0.265
44664W        W 6195  18.154  22.200   4.343
44665W        W 6196  17.723  35.880   1.284
44666W        W 6197   1.444  28.443   1.370
44667W        W 6198  33.415  21.041   1.722
44668W        W 6199  16.133  43.929  14.473
44669W        W 6200  23.599  11.774  12.463
44670W        W 6201  27.513  30.505  11.603
44671W        W 6202   6.260  17.632   4.154
44672W        W 6203  12.196  19.079  14.480
44673W        W 6204  40.806  31.027   1.796
44674W        W 6205  43.273   0.743  12.002
44675W        W 6206  21.545  10.800  13.018
44676W        W 6207  10.151   3.371  11.995
44677W        W 6208  19.747  42.842   4.746
44678W        W 6209  16.101   7.416   4.194
44679W        W 6210  44.423  31.488   0.759
44680W        W 6211   7.817  33.883   0.287
44681W        W 6212  16.200  21.525   4.644
44682W        W 6213  36.014   9.363  11.481
44683W        W 6214   4.449  14.727   0.821
44684W        W 6215  32.504  31.956  11.454
44685W        W 6216  39.863  30.534   0.854
44686W        W 6217   7.884   2.846   0.964
44687W        W 6218  44.973  35.597  11.863
44688W        W 6219  10.343   0.258  13.932
44689W        W 6220  41.442  17.295  14.877
44690W        W 6221  34.944  33.381  11.387
44691W        W 6222  37.864   3.803   0.842
44692W        W 6223  23.060   7.279  10.942
44693W        W 6224  16.587  27.983   4.163
44694W        W 6225  12.311  44.838   4.202
44695W        W 6226  42.883  23.194   1.359
44696W        W 6227   6.831   2.864   2.789
44697W        W 6228  25.481  22.713   4.668
44698W        W 6229  33.989  21.058   0.818
44699W        W 6230  31.902  44.426  11.396
44700W        W 6231  19.175  29.059   3.383
44701W        W 6232  34.503  16.111  13.482
44702W        W 6233  26.068  23.550   2.281
44703W        W 6234   8.805   6.756  12.905
44704W        W 6235  14.117  24.573   3.843
44705W        W 6236  28.455  22.099  14.488
44706W        W 6237   5.846  30.514   2.706
44707W        W 6238  11.768   4.352   3.264
44708W        W 6239  35.545  20.624  12.838
44709W        W 6240   1.468  40.407  11.086
44710W        W 6241  30.450  35.546   3.147
44711W        W 6242  36.052  44.394   2.228
44712W        W 6243  26.163   3.218   3.146
44713W        W 6244   7.692  26.108  11.855
44714W        W 6245  13.179  15.759   1.364
44715W        W 6246  18.097  19.569  14.484
44716W        W 6247  23.514  39.331  12.472
44717W        W 6248  33.891  30.124  14.028
44718W        W 6249  40.007  17.731  10.479
44719W        W 6250  29.670  36.933   2.181
44720W        W 6251   5.738   5.228  11.440
44721W        W 6252  44.262  30.641   4.345
44722W        W 6253  10.221  15.774   0.762
44723W        W 6254  31.969  27.053   3.172
44724W        W 6255  30.423   1.940  12.860
44725W        W 6256  34.994  11.280   9.514
44726W        W 6257   9.746  38.831  12.418
44727W        W 6258  17.274  13.306   2.754
44728W        W 6259  39.507  34.485   1.396
44729W        W 6260  39.390  38.364   1.242
44730W        W 6261   7.386  29.158   1.212
44731W        W 6262  18.272  36.516   2.187
44732W        W 6263  14.678  29.610   0.407
44733W        W 6264  37.944  14.598  11.106
44734W        W 6265   7.327  19.148   2.800
44735W        W 6266  31.946  27.517   1.438
44736W        W 6267  18.240   6.283   2.409
44737W        W 6268  27.986  18.763  13.980
44738W        W 6269  42.342   1.350   3.209
44739W        W 6270  30.643  36.984  12.964
44740W        W 6271   8.198  15.236   0.871
44741W        W 6272   9.702   1.785  14.935
44742W        W 6273  38.399  21.218  13.824
44743W        W 6274  25.058   4.735  13.502
44744W        W 6275  28.139  32.400   0.773
44745W        W 6276   6.856  32.539   0.353
44746W        W 6277  40.477   3.384  12.576
44747W        W 6278  17.201  15.183  14.870
44748W        W 6279  14.659  37.894   1.211
44749W        W 6280  22.573  42.871  14.354
44750W        W 6281  40.441  25.639   4.733
44751W        W 6282  40.403  37.908   1.747
44752W        W 6283  21.535   7.196   2.397
44753W        W 6284  14.260  23.055   4.239
44754W        W 6285   0.321  14.226   1.696
44755W        W 6286   1.784  30.939  13.353
44756W        W 6287  32.025  25.169  11.971
44757W        W 6288  35.482   6.836   2.228
44758W        W 6289  42.349  35.580   2.406
44759W        W 6290   7.799  18.120  10.462
44760W        W 6291  10.173  25.509   0.928
44761W        W 6292  31.583  36.525   0.853
44762W        W 6293  17.296  43.306   4.182
44763W        W 6294  16.769  41.455  13.936
44764W        W 6295  32.572   4.771  10.572
44765W        W 6296  30.079  44.334  12.870
44766W        W 6297   5.795   2.941  13.439
44767W        W 6298  23.637   5.802  12.071
44768W        W 6299  11.829   3.726  12.386
44769W        W 6300  29.653   4.278  13.452
44770W        W 6301  12.730  11.723  14.920
44771W        W 6302  30.991  43.835   0.402
44772W        W 6303  41.400   8.859   2.307
44773W        W 6304  11.864  25.199   1.759
44774W        W 6305  29.521  11.231  12.571
44775W        W 6306  23.576  38.896   9.980
44776W        W 6307  44.980  31.499   1.394
44777W        W 6308  14.833  42.471  10.546
44778W        W 6309  38.986  33.998   0.255
44779W        W 6310  23.126  44.285  12.403
44780W        W 6311  30.154  19.704   3.348
44781W        W 6312   7.883  21.079  12.401
44782W        W 6313  22.021   5.341  10.555
44783W        W 6314  36.087  25.991  12.840
44784W        W 6315  27.674   7.402   3.720
44785W        W 6316  10.652  34.552  10.495
44786W        W 6317  27.029  23.532   0.345
44787W        W 6318  22.150   9.747   3.236
44788W        W 6319   1.317   6.744  10.637
44789W        W 6320  40.312  25.475   3.149
44790W        W 6321   5.901  30.108   3.373
44791W        W 6322  19.159   4.755  12.573
44792W        W 6323  30.973  15.324  13.433
44793W        W 6324  44.446  16.268   0.364
44794W        W 6325  14.124  32.521   1.352
44795W        W 6326  34.387  40.548  11.011
44796W        W 6327   6.795  16.610  11.512
44797W        W 6328  24.678  39.894   5.172
44798W        W 6329  42.871  10.798   0.838
44799W        W 6330  34.977  24.483  12.852
44800W        W 6331  20.185  34.482  13.851
44801W        W 6332  18.632  31.567   0.390
44802W        W 6333  31.564  44.504   1.836
44803W        W 6334  24.578  31.963   3.804
44804W        W 6335   5.364  31.521  13.885
44805W        W 6336  24.568   3.369   1.320
44806W        W 6337  28.524  32.004   0.883
44807W        W 6338   3.219  41.868  14.355
44808W        W 6339   7.407   2.766   1.750
44809W        W 6340  14.105  19.707  12.510
44810W        W 6341  28.132  33.024  12.062
44811W        W 6342  31.440  17.725  11.946
44812W        W 6343  28.513  13.123   0.312
44813W        W 6344  32.524  18.636  11.469
44814W        W 6345  30.485  27.082  11.902
44815W        W 6346  31.588  38.419  14.416
44816W        W 6347  33.093   7.894   0.335
44817W        W 6348  28.653   1.818   1.403
44818W        W 6349  34.600  41.933  14.804
44819W        W 6350  19.637  26.695   2.667
44820W        W 6351   4.210  32.453  11.864
44821W        W 6352  35.047  36.912  12.358
44822W        W 6353  29.108  24.127   1.449
44823W        W 6354  23.692  14.278   4.230
44824W        W 6355  27.132  10.188  14.942
44825W        W 6356   8.375  16.227  11.879
44826W        W 6357   5.392   2.464  10.497
44827W        W 6358  35.918  36.990  11.424
44828W        W 6359   3.289   0.425   3.798
44829W        W 6360  17.695  22.120  13.056
44830W        W 6361  28.515   2.813   2.853
44831W        W 6362  35.996  10.651  14.290
44832W        W 6363  36.038  30.426   0.423
44833W        W 6364  34.514   8.300  13.933
44834W        W 6365   4.311  30.154   3.810
44835W        W 6366  12.266   8.360  14.435
44836W        W 6367  34.089   1.400  12.391
44837W        W 6368  13.343  19.121  13.320
44838W        W 6369  35.577  33.390  11.600
44839W        W 6370   7.842  25.562   0.298
44840W        W 6371  10.868  38.468   1.826
44841W        W 6372  31.954  22.656   0.446
44842W        W 6373   5.375   4.892   9.991
44843W        W 6374  44.453  33.989   3.716
44844W        W 6375  22.599   1.419  12.028
44845W        W 6376   9.831  17.097  10.634
44846W        W 6377  29.599  18.063  11.882
44847W        W 6378  23.142   2.459  12.926
44848W        W 6379  44.835   6.923  10.918
44849W        W 6380  43.947   6.787   4.322
44850W        W 6381  33.446  20.190  13.032
44851W        W 6382   6.415  42.988   4.247
44852W        W 6383  24.602  44.502  10.621
44853W        W 6384  29.465  24.999  13.357
44854W        W 6385  40.992  41.833   3.668
44855W        W 6386  15.824   2.928  14.949
44856W        W 6387   7.219  30.478   4.623
44857W        W 6388   1.836   4.717  11.880
44858W        W 6389  13.617  13.738   0.950
44859W        W 6390  13.660  18.060   4.799
44860W        W 6391  25.016  20.730   1.418
44861W        W 6392   7.302  40.053   4.250
44862W        W 6393  34.904  43.364   1.781
44863W        W 6394   4.371  32.093  10.596
44864W        W 6395   7.879  33.044   0.389
44865W        W 6396   6.422  13.756  14.782
44866W        W 6397  21.175  20.185  14.384
44867W        W 6398  36.909  21.218  14.822
44868W        W 6399  43.967  22.700  10.945
44869W        W 6400  17.576  41.504  13.428
44870W        W 6401  38.487  11.686  12.556
44871W        W 6402  32.030  34.085  12.401
44872W        W 6403  36.469  32.483   0.333
44873W        W 6404  36.436   3.800  13.316
44874W        W 6405  22.180  42.494  11.376
44875W        W 6406   5.703  19.240   4.784
44876W        W 6407  29.922   7.315  10.502
44877W        W 6408  13.219  21.238   4.252
44878W        W 6409  29.622  17.090  10.043
44879W        W 6410  13.783  12.754  12.071
44880W        W 6411  10.152   5.916  14.918
44881W        W 6412  40.960  43.502  13.412
44882W        W 6413   6.321   5.338   3.632
44883W        W 6414  32.138  23.039   2.772
44884W        W 6415  10.229  11.290   2.878
44885W        W 6416  43.865  31.044  12.050
44886W        W 6417  28.582   4.273  14.456
44887W        W 6418  38.358   6.737  14.394
44888W        W 6419  10.370  18.191   0.862
44889W        W 6420   3.258  34.469   3.660
44890W        W 6421  31.141  17.206   1.297
44891W        W 6422   2.871  32.022   3.164
44892W        W 6423  36.864  37.468  11.582
44893W        W 6424  24.555  28.511  14.495
44894W        W 6425  14.340  17.571  12.045
44895W        W 6426  10.784   0.778   4.289
44896W        W 6427  36.979  30.635  13.033
44897W        W 6428  34.999  39.847   1.307
44898W        W 6429  24.219  14.758   0.351
44899W        W 6430  10.349  19.057   2.702
44900W        W 6431  10.309  38.932   2.677
44901W        W 6432  44.280   3.392   1.339
44902W        W 6433   2.837  24.218  12.938
44903W        W 6434   5.773  24.682  11.089
44904W        W 6435  23.200  14.820  10.572
44905W        W 6436  43.343  22.594  11.126
44906W        W 6437  42.938   7.267  14.761
44907W        W 6438  27.515   0.906  12.398
44908W        W 6439  23.162  33.608  13.999
44909W        W 6440   8.267   5.317   0.246
44910W        W 6441   1.944   9.229  11.997
44911W        W 6442   4.810  13.210   2.730
44912W        W 6443   2.934   9.329  11.049
44913W        W 6444   8.835  17.651  10.912
44914W        W 6445  17.762  38.044  14.352
44915W        W 6446   8.315  27.097  10.574
44916W        W 6447  12.207  21.619   0.812
44917W        W 6448  40.330  17.223  12.872
44918W        W 6449   8.796  32.621  11.111
44919W        W 6450  22.088   7.859  12.897
44920W        W 6451   8.189   8.224   2.858
44921W        W 6452  13.257   7.901   1.273
44922W        W 6453  10.196  37.992  10.461
44923W        W 6454  39.912  31.627   0.782
44924W        W 6455  16.275   4.432   0.427
44925W        W 6456   2.954  30.160   1.743
44926W        W 6457  32.933  43.371   3.163
44927W        W 6458  22.657   9.714   1.450
44928W        W 6459  10.751  23.674  10.618
44929W        W 6460  20.584  15.662  10.964
44930W        W 6461  17.789  19.714   4.675
44931W        W 6462  29.058   3.416   3.297
44932W        W 6463   6.676  12.692   1.315
44933W        W 6464  28.537   3.320  11.959
44934W        W 6465   9.191  13.663  12.458
44935W        W 6466   8.304  23.567   3.632
44936W        W 6467  33.094  42.282   2.217
44937W        W 6468  35.460  35.933  11.394
44938W        W 6469  44.329  43.982  14.379
44939W        W 6470  30.470  18.176   0.482
44940W        W 6471  10.227  25.582   4.173
44941W        W 6472  11.790  23.236  11.012
44942W        W 6473  13.707  10.710   4.183
44943W        W 6474  15.767  37.552  14.850
44944W        W 6475  40.547  37.853  12.457
44945W        W 6476  29.663  30.428  10.070
44946W        W 6477   1.919  16.078  12.515
44947W        W 6478  32.020  11.371  14.470
44948W        W 6479  12.836  11.172   0.337
44949W        W 6480  12.697   1.319   0.750
44950W        W 6481  23.215  13.184  13.865
44951W        W 6482  29.561  35.361   0.865
44952W        W 6483  25.081  24.577  12.449
44953W        W 6484   0.413  30.003   3.307
44954W        W 6485  12.349  18.788  11.569
44955W        W 6486  14.730   2.382   1.742
44956W        W 6487  25.166  13.778   1.706
44957W        W 6488  23.705  12.618   0.334
44958W        W 6489  33.432  17.595   3.772
44959W        W 6490   8.379   9.662  14.882
44960W        W 6491  19.671  40.004  14.862
44961W        W 6492  25.690  28.140  12.451
44962W        W 6493   5.323  21.703  11.865
44963W        W 6494  37.541  19.614  13.355
44964W        W 6495  15.678  12.654  10.594
44965W        W 6496  43.300  31.925   2.319
44966W        W 6497  44.441  12.320  11.395
44967W        W 6498  37.455  29.443   1.398
44968W        W 6499  21.110   6.372  12.396
44969W        W 6500  42.368  31.108  11.960
44970W        W 6501  12.325  19.568  13.804
44971W        W 6502  11.754  31.978  13.458
44972W        W 6503  30.620  37.347   3.239
44973W        W 6504  29.481  24.681   4.336
44974W        W 6505   5.350  21.166  12.964
44975W        W 6506   8.345  18.611  14.988
44976W        W 6507  42.963  38.343  14.389
44977W        W 6508   4.915  30.049   0.414
44978W        W 6509  13.260  15.777   1.741
44979W        W 6510  39.405   9.826   1.864
44980W        W 6511  10.820  15.301  14.032
44981W        W 6512  11.303  35.971   1.900
44982W        W 6513  12.165  24.482  13.439
44983W        W 6514  10.708  30.075   4.724
44984W        W 6515   6.812  15.810   2.784
44985W        W 6516  42.295   0.383  11.583
44986W        W 6517   8.837  39.827   2.236
44987W        W 6518  41.319  35.435  11.582
44988W        W 6519  23.559  36.954  14.000
44989W        W 6520  34.043  44.472  14.796
44990W        W 6521  29.542   5.928   0.354
44991W        W 6522  27.041  28.444   1.856
44992W        W 6523  37.899  36.521   1.857
44993W        W 6524  27.172  13.821   3.337
44994W        W 6525   2.459  40.813  11.030
44995W        W 6526  30.436  29.428  12.500
44996W        W 6527  26.208  27.082  14.991
44997W        W 6528  14.102  24.153   3.811
44998W        W 6529  22.163  26.045   4.341
44999W        W 6530  22.706  40.801  10.999
45000W        W 6531  43.441   6.901  14.281
45001W        W 6532   4.392   2.364  10.973
45002W        W 6533  40.846  25.139   1.847
45003W        W 6534   7.778  18.678   4.337
45004W        W 6535  23.714  20.734   2.365
45005W        W 6536  30.118   6.796   3.210
45006W        W 6537  10.839  37.560  11.093
45007W        W 6538  23.147  20.142  11.543
45008W        W 6539  31.034  16.766  14.985
45009W        W 6540   3.331  37.455   0.886
45010W        W 6541  31.993  30.919   0.919
45011W        W 6542  39.555  16.780  11.912
45012W        W 6543  24.203  42.320  14.428
45013W        W 6544  17.752  36.454  12.374
45014W        W 6545  33.571  42.963  13.494
45015W        W 6546  31.128   9.203  12.894
45016W        W 6547  21.079  37.376  10.460
45017W        W 6548  18.620  27.035   4.758
45018W        W 6549  37.436  15.606   0.419
45019W        W 6550  32.974  16.705   3.715
45020W        W 6551  18.279  35.585  13.432
45021W        W 6552   4.708   5.398  12.428
45022W        W 6553  25.472  28.997   2.249
45023W        W 6554  39.013  42.296   4.297
45024W        W 6555   2.312  13.752  12.061
45025W        W 6556  16.095  31.077   9.946
45026W        W 6557   8.217   0.788  11.083
45027W        W 6558  34.075  14.279  14.765
45028W        W 6559  24.172  37.893   3.257
45029W        W 6560  33.015   0.479  12.970
45030W        W 6561  40.326  29.051  14.774
45031W        W 6562  13.237   8.162  11.610
45032W        W 6563   8.751  30.549   0.847
45033W        W 6564  36.402  40.506  12.366
45034W        W 6565  28.474  23.506   3.146
45035W        W 6566  17.154  41.944   1.256
45036W        W 6567   7.799   1.423   2.750
45037W        W 6568  43.468   5.775   3.677
45038W        W 6569  19.225   8.333  14.504
45039W        W 6570  41.034  20.183  14.941
45040W        W 6571  27.547   8.678   0.336
45041W        W 6572   1.810  33.572  12.399
45042W        W 6573  25.487  18.787   3.688
45043W        W 6574  27.961  31.073  11.972
45044W        W 6575  11.141  39.536   4.762
45045W        W 6576  23.631  31.943  13.909
45046W        W 6577  41.904  29.429   1.867
45047W        W 6578  35.020  24.583   3.364
45048W        W 6579  16.280  22.017   2.203
45049W        W 6580  44.792  12.247  13.367
45050W        W 6581  22.007  13.789   0.859
45051W        W 6582  43.906  37.866   2.847
45052W        W 6583  22.046   5.352  13.990
45053W        W 6584  21.745  18.549   4.225
45054W        W 6585  22.147  37.077  13.888
45055W        W 6586   9.752   7.889  11.982
45056W        W 6587   1.370   6.269  13.449
45057W        W 6588   3.428  18.571  10.981
45058W        W 6589  37.521  28.489   4.683
45059W        W 6590  21.122  36.411   2.384
45060W        W 6591  36.968  43.396  14.798
45061W        W 6592  37.552   5.732   1.374
45062W        W 6593   0.956  16.282  12.850
45063W        W 6594   4.721  29.633  10.640
45064W        W 6595  13.666  14.100   1.315
45065W        W 6596  41.382  31.045  14.835
45066W        W 6597  30.938  35.058   2.837
45067W        W 6598  19.083   2.468   4.278
45068W        W 6599  12.777  14.669   2.866
45069W        W 6600  23.037  17.780   4.816
45070W        W 6601  37.016   2.768   1.435
45071W        W 6602   9.663   6.757   1.228
45072W        W 6603   7.899  17.061   4.673
45073W        W 6604   3.347  42.950   3.207
45074W        W 6605   9.340  34.010   1.426
45075W        W 6606   1.407  27.499  12.844
45076W        W 6607  34.935  21.683  13.967
45077W        W 6608  17.088  26.648  14.495
45078W        W 6609  23.991   7.723   2.878
45079W        W 6610  19.167  30.598   2.284
45080W        W 6611  23.099  34.574  13.328
45081W        W 6612  21.548  32.891   4.161
45082W        W 6613  43.449  19.700   3.757
45083W        W 6614  10.653  27.530   0.283
45084W        W 6615  17.167  30.424  10.143
45085W        W 6616   3.219  35.477   0.913
45086W        W 6617  26.953  26.673   2.731
45087W        W 6618  20.582   8.680   3.345
45088W        W 6619  37.025  28.664   2.785
45089W        W 6620   0.897  37.907  10.944
45090W        W 6621  32.629  37.856  12.546
45091W        W 6622  22.160   2.438   4.620
45092W        W 6623  21.162   9.711  14.490
45093W        W 6624  41.871  10.865  11.884
45094W        W 6625   2.898  13.145   2.236
45095W        W 6626  16.789   3.434   4.754
45096W        W 6627  19.660  40.881  11.390
45097W        W 6628  27.178  16.754   4.326
45098W        W 6629  24.605  39.825   2.418
45099W        W 6630  10.719  19.547  14.325
45100W        W 6631  15.618  25.120   3.342
45101W        W 6632  44.988  19.140  12.991
45102W        W 6633  40.826  18.179   1.218
45103W        W 6634  34.554   7.876   4.760
45104W        W 6635  12.244  38.548   1.252
45105W        W 6636  27.138  20.207  12.931
45106W        W 6637  34.032   3.309  13.896
45107W        W 6638  43.294  25.152   4.294
45108W        W 6639  34.911  39.488  13.000
45109W        W 6640   5.898  20.589  12.483
45110W        W 6641  16.603  27.060  11.020
45111W        W 6642   4.397  16.161   2.281
45112W        W 6643  43.437  19.077  11.995
45113W        W 6644  36.027  39.428  12.079
45114W        W 6645   7.225  18.166   0.738
45115W        W 6646  23.154  15.774  12.933
45116W        W 6647  32.928  36.475   1.399
45117W        W 6648  33.622  18.176  10.589
45118W        W 6649  20.229  26.152  10.421
45119W        W 6650   4.803  13.635  11.474
45120W        W 6651  29.449   1.256  14.469
45121W        W 6652  18.079  14.149  14.465
45122W        W 6653  33.075  27.616  11.975
45123W        W 6654  35.912  29.429  13.961
45124W        W 6655  28.673  11.733   2.796
45125W        W 6656  32.097  14.670  14.850
45126W        W 6657  40.810  18.551  14.387
45127W        W 6658  37.409  25.006   3.669
45128W        W 6659  39.389  32.005   1.850
45129W        W 6660   1.446  27.610   0.807
45130W        W 6661  18.271   0.339  14.401
45131W        W 6662  26.011  15.742  12.083
45132W        W 6663  40.021   7.677   3.723
45133W        W 6664   5.798  25.594  14.487
45134W        W 6665  44.398  29.636  13.379
45135W        W 6666   3.324  27.019   5.144
45136W        W 6667   6.758  20.688   1.413
45137W        W 6668   2.796  36.394   4.326
45138W        W 6669   5.774   1.425  12.545
45139W        W 6670  17.215  32.065  14.907
45140W        W 6671  13.250  40.854   0.873
45141W        W 6672   2.472  16.268   4.623
45142W        W 6673  23.085  41.793  10.991
45143W        W 6674  14.340  12.732  13.400
45144W        W 6675  32.558  41.911  14.306
45145W        W 6676  29.448   3.947   1.397
45146W        W 6677  38.960  43.811   4.697
45147W        W 6678   1.761  39.442  14.022
45148W        W 6679  17.149  12.671   4.767
45149W        W 6680  16.078  43.912  12.386
45150W        W 6681  35.510  17.157   2.732
45151W        W 6682  17.670  31.598   0.344
45152W        W 6683  38.431  22.521  14.010
45153W        W 6684  30.938  34.069  13.830
45154W        W 6685  34.013  18.108  13.353
45155W        W 6686  10.305   1.854   2.304
45156W        W 6687   5.417   4.365   4.810
45157W        W 6688   2.329  35.394   4.218
45158W        W 6689  10.652  15.633   3.666
45159W        W 6690  18.113  35.462   0.857
45160W        W 6691   3.353  19.199  13.899
45161W        W 6692  27.618   3.437   1.789
45162W        W 6693  16.668  27.041  13.486
45163W        W 6694  14.296  12.179   1.312
45164W        W 6695  40.018  26.629  11.530
45165W        W 6696  29.506  20.143   2.341
45166W        W 6697   5.247  23.629  12.944
45167W        W 6698  44.326  34.594   4.234
45168W        W 6699  10.158  41.460   1.280
45169W        W 6700   4.767   4.911   0.957
45170W        W 6701  37.053  21.689   1.331
45171W        W 6702  24.541  42.818   1.821
45172W        W 6703  28.468   4.374  14.822
45173W        W 6704   1.344  16.172   3.702
45174W        W 6705  22.020  44.937  10.614
45175W        W 6706  12.727  32.501   3.833
45176W        W 6707  34.406   9.821  14.288
45177W        W 6708  12.622  24.494  14.777
45178W        W 6709  30.608  29.425   3.278
45179W        W 6710  26.988   0.822  13.882
45180W        W 6711  12.136  23.103  12.521
45181W        W 6712  27.595   2.447  10.615
45182W        W 6713  33.883  41.392   1.866
45183W        W 6714  43.344  12.759   0.324
45184W        W 6715   2.344  26.184  10.452
45185W        W 6716  44.401  12.251  13.023
45186W        W 6717  33.615  27.070  10.890
45187W        W 6718  37.370  18.692   3.718
45188W        W 6719   3.852  14.832   1.800
45189W        W 6720  27.688   7.835   2.320
45190W        W 6721  13.300  41.381  11.583
45191W        W 6722  32.625  11.863  11.582
45192W        W 6723   6.834  34.426   0.466
45193W        W 6724  22.041  41.981   1.350
45194W        W 6725  28.008  24.099  13.421
45195W        W 6726  42.473   0.415   1.308
45196W        W 6727  41.402   9.230   2.317
45197W        W 6728   7.270  16.159  10.903
45198W        W 6729  12.733  35.960   2.873
45199W        W 6730  36.860   2.843   0.333
45200W        W 6731  31.534  12.258  13.996
45201W        W 6732   0.959  39.815   0.900
45202W        W 6733  43.949  15.811  11.600
45203W        W 6734  43.981   6.886   3.208
45204W        W 6735  38.523  27.579   0.340
45205W        W 6736   0.305  27.103   0.374
45206W        W 6737  13.326  18.685   3.791
45207W        W 6738  42.775   9.715   3.647
45208W        W 6739  22.213  22.580  12.350
45209W        W 6740  35.870  34.090  14.899
45210W        W 6741  43.418  31.945   1.805
45211W        W 6742  42.912  13.345   1.768
45212W        W 6743  12.181  14.153   1.922
45213W        W 6744  33.432   9.344   2.736
45214W        W 6745   0.249  32.057  11.409
45215W        W 6746  44.321  36.982   4.653
45216W        W 6747  11.143  43.328   0.803
45217W        W 6748  37.433  28.099  11.044
45218W        W 6749  24.549  27.507  10.524
45219W        W 6750  39.426   3.268  11.867
45220W        W 6751   6.411  12.700   3.813
45221W        W 6752  11.787  22.008   2.699
45222W        W 6753  19.690  34.453   4.238
45223W        W 6754  15.724  30.604   0.258
45224W        W 6755  11.354  37.516   3.294
45225W        W 6756   1.828  40.038  12.983
45226W        W 6757  10.650   1.431  13.310
45227W        W 6758  23.530  34.439   0.935
45228W        W 6759  31.964  25.634  12.378
45229W        W 6760  27.958  31.583  13.365
45230W        W 6761  41.905  32.140   1.908
45231W        W 6762   4.438  19.063   0.879
45232W        W 6763   8.744   5.695  12.443
45233W        W 6764  12.321  22.131   1.773
45234W        W 6765  31.404  12.723   1.734
45235W        W 6766  18.737  19.622   2.853
45236W        W 6767  23.587  20.690  10.518
45237W        W 6768  39.455  12.833   5.757
45238W        W 6769  31.486  28.617   1.404
45239W        W 6770  39.389  25.987   3.217
45240W        W 6771  44.418  18.083  13.997
45241W        W 6772  31.630  18.736  11.532
45242W        W 6773  42.430  39.927   4.655
45243W        W 6774  12.803  34.879   5.085
45244W        W 6775  26.039  24.976  11.992
45245W        W 6776  37.360  41.402   1.304
45246W        W 6777  18.050  13.758   2.835
45247W        W 6778  36.532  15.321   3.714
45248W        W 6779  35.496  25.640  12.993
45249W        W 6780   8.730  32.064   3.862
45250W        W 6781   5.434  39.388   1.229
45251W        W 6782  33.953  43.491   4.794
45252W        W 6783   9.813  30.036  13.939
45253W        W 6784  18.616  42.834   2.288
45254W        W 6785  42.893  18.684   0.425
45255W        W 6786  18.202  10.811   3.788
45256W        W 6787  13.754  10.827  12.834
45257W        W 6788  37.065  31.085   4.658
45258W        W 6789  35.593   5.806  14.320
45259W        W 6790  21.172   5.253  14.982
45260W        W 6791  31.422  24.702   0.774
45261W        W 6792  16.613  29.962   2.318
45262W        W 6793  30.136   9.239  12.913
45263W        W 6794  34.038  19.762   5.300
45264W        W 6795  21.066  13.142  14.338
45265W        W 6796  13.698  18.231   2.718
45266W        W 6797  40.339  28.633  11.893
45267W        W 6798  24.627  29.006   0.367
45268W        W 6799   5.326  18.580   2.338
45269W        W 6800  19.109  26.205   3.758
45270W        W 6801  29.115  20.542   2.370
45271W        W 6802  20.163  12.755  12.375
45272W        W 6803  30.621  34.009  13.973
45273W        W 6804  19.102  13.335   0.380
45274W        W 6805  38.444  35.416  11.119
45275W        W 6806  44.441  32.456   0.918
45276W        W 6807  25.212  21.022  14.929
45277W        W 6808   0.406  29.578   0.283
45278W        W 6809  32.533  23.120   4.614
45279W        W 6810  23.067   6.405  11.444
45280W        W 6811  42.419  38.506   4.126
45281W        W 6812  44.400   9.255   4.335
45282W        W 6813   3.421  12.789   0.316
45283W        W 6814  13.806  16.657   2.728
45284W        W 6815  22.583   4.271   1.321
45285W        W 6816  26.505  26.529  11.417
45286W        W 6817  26.181  28.601   0.759
45287W        W 6818   8.883   3.905  13.838
45288W        W 6819  18.281  16.794  13.935
45289W        W 6820   0.848  44.300   4.812
45290W        W 6821   9.276  24.633  11.469
45291W        W 6822  23.502  10.753   3.755
45292W        W 6823  35.090  31.035   1.764
45293W        W 6824  39.982   2.761  14.781
45294W        W 6825  38.976  25.618  11.026
45295W        W 6826  36.905   3.345   3.227
45296W        W 6827  25.629  22.564   3.841
45297W        W 6828  17.595  11.204  10.408
45298W        W 6829  29.001  29.529  14.007
45299W        W 6830  14.748  33.096   3.805
45300W        W 6831   6.225  18.261  11.986
45301W        W 6832  43.473  31.139  12.908
45302W        W 6833  32.063  14.282   3.156
45303W        W 6834  13.252  10.678  12.833
45304W        W 6835  21.512   3.444  13.416
45305W        W 6836  37.927  36.469   3.286
45306W        W 6837   6.887  40.513  14.888
45307W        W 6838  10.207  34.491   2.190
45308W        W 6839  14.657  37.874  13.860
45309W        W 6840  22.079  18.545   3.201
45310W        W 6841  22.558   9.826   0.861
45311W        W 6842  37.046  12.650   3.218
45312W        W 6843   9.797  44.406   1.725
45313W        W 6844  13.172   0.415  13.827
45314W        W 6845  10.193  15.163  13.396
45315W        W 6846  18.615  16.675  13.062
45316W        W 6847  31.969  20.232   2.889
45317W        W 6848  41.507  36.418   0.460
45318W        W 6849  28.004  32.007  14.426
45319W        W 6850   2.248  28.089  10.633
45320W        W 6851  34.514  42.517  14.788
45321W        W 6852  10.657  15.747   1.864
45322W        W 6853  29.473  27.132   1.237
45323W        W 6854   3.443  41.447  12.069
45324W        W 6855  12.235  30.529   3.832
45325W        W 6856  15.626  15.774   9.972
45326W        W 6857  23.200  25.501  14.400
45327W        W 6858  44.307  22.154  11.396
45328W        W 6859  37.479  25.537  12.441
45329W        W 6860  13.648  18.641   0.272
45330W        W 6861  35.474  28.139  14.772
45331W        W 6862  43.430  19.156   2.673
45332W        W 6863  29.525  19.074  11.114
45333W        W 6864  28.166   3.281  14.395
45334W        W 6865  24.672   3.256  12.994
45335W        W 6866  24.701  30.454   3.248
45336W        W 6867   4.278  10.358   1.930
45337W        W 6868   6.196  37.892  12.441
45338W        W 6869   7.885  15.669   1.346
45339W        W 6870  34.028  20.696  13.480
45340W        W 6871  24.172   4.943   2.783
45341W        W 6872  23.654   3.357  11.568
45342W        W 6873  16.702  36.498  10.529
45343W        W 6874  23.494  43.331   1.853
45344W        W 6875  13.117  13.698  13.467
45345W        W 6876  41.856  18.629  14.831
45346W        W 6877  23.019  23.682  11.963
45347W        W 6878  33.978  17.284  14.995
45348W        W 6879   4.866   5.316  11.978
45349W        W 6880  42.027  31.941   1.310
45350W        W 6881   9.720   5.368  10.481
45351W        W 6882  32.022  36.927   9.928
45352W        W 6883   2.294  32.553   3.291
45353W        W 6884  36.015  26.093  14.862
45354W        W 6885  12.199  20.669   3.363
45355W        W 6886  37.841  16.246   0.859
45356W        W 6887  19.749   9.712   0.394
45357W        W 6888  32.449  35.982   1.402
45358W        W 6889  28.055  13.123   4.811
45359W        W 6890  23.228  15.191   1.866
45360W        W 6891  44.831  22.201   4.202
45361W        W 6892  13.204   3.766   1.753
45362W        W 6893  17.245  27.069   3.756
45363W        W 6894  34.525   0.753   0.833
45364W        W 6895   0.921   5.814  10.089
45365W        W 6896   0.796  31.958  14.435
45366W        W 6897   3.412  19.243   3.857
45367W        W 6898  17.146  13.183   1.845
45368W        W 6899  34.523   5.740   1.324
45369W        W 6900   4.893  12.706   3.245
45370W        W 6901  35.965   6.310   1.368
45371W        W 6902  26.132  31.920  13.841
45372W        W 6903  13.787  25.965  11.576
45373W        W 6904  23.034  41.465   3.780
45374W        W 6905  32.583  31.939  10.931
45375W        W 6906  44.862   1.367  12.358
45376W        W 6907  28.047  34.971  10.941
45377W        W 6908  37.915  24.567   4.261
45378W        W 6909   9.250  23.054  12.543
45379W        W 6910  42.358  15.660  11.031
45380W        W 6911  44.973  10.378  14.986
45381W        W 6912  16.212  35.597   1.227
45382W        W 6913  16.763   3.717  13.372
45383W        W 6914  26.207  44.911   0.396
45384W        W 6915  33.472  33.980   2.282
45385W        W 6916  24.078  22.101   4.834
45386W        W 6917  43.506  15.206   1.776
45387W        W 6918  14.212   5.861   3.725
45388W        W 6919  43.832  40.352  12.988
45389W        W 6920  32.454  30.997  12.344
45390W        W 6921  11.305  20.151   1.851
45391W        W 6922  33.032  18.097   3.285
45392W        W 6923  12.619  25.104  13.547
45393W        W 6924  43.862  26.003  14.877
45394W        W 6925  30.496  25.205   3.840
45395W        W 6926  39.524  36.021   2.235
45396W        W 6927  38.534  10.219  11.550
45397W        W 6928  18.754  20.562  13.903
45398W        W 6929  38.455   4.717   4.139
45399W        W 6930  30.578   5.776   3.213
45400W        W 6931  28.086  22.524  10.524
45401W        W 6932  16.237   6.231  12.078
45402W        W 6933   0.986  28.086   2.887
45403W        W 6934  18.115  28.504  14.961
45404W        W 6935  41.385   5.229   4.649
45405W        W 6936  35.419  12.180   0.961
45406W        W 6937  32.529  40.856  12.422
45407W        W 6938  41.880  20.082   2.401
45408W        W 6939  14.141  43.833   4.708
45409W        W 6940   4.831  27.621   4.248
45410W        W 6941   3.455  11.204   1.451
45411W        W 6942  39.440  11.768   2.718
45412W        W 6943  25.709  23.163  10.610
45413W        W 6944  26.468  39.061  12.542
45414W        W 6945   7.360  35.433   1.309
45415W        W 6946  36.016  11.364  13.905
45416W        W 6947  20.055  35.481  13.797
45417W        W 6948  34.604  18.712  14.899
45418W        W 6949  21.122   0.395   2.415
45419W        W 6950  15.324  33.439   2.742
45420W        W 6951  44.301   3.319  12.523
45421W        W 6952  32.055  34.402  14.417
45422W        W 6953  28.111  33.385  13.881
45423W        W 6954  27.472  36.412  13.797
45424W        W 6955  41.440  22.180  11.945
45425W        W 6956  43.335   2.391   4.638
45426W        W 6957  16.226  11.649   0.931
45427W        W 6958  27.166  15.086  13.462
45428W        W 6959  30.439  11.246   1.438
45429W        W 6960   5.297   9.341   0.825
45430W        W 6961  20.698  16.232  10.588
45431W        W 6962  10.330  11.815  13.374
45432W        W 6963  13.800  32.046   3.307
45433W        W 6964  27.663  18.702  13.062
45434W        W 6965  27.086  31.002   5.302
45435W        W 6966  39.342  28.491   0.273
45436W        W 6967  25.687   6.415   1.870
45437W        W 6968   2.884  41.366  13.448
45438W        W 6969  13.630   7.244   1.398
45439W        W 6970  22.065  34.080  14.982
45440W        W 6971  31.075  24.510  12.408
45441W        W 6972  30.615  15.706   2.222
45442W        W 6973  27.070  20.267  13.337
45443W        W 6974   4.399   2.965  12.946
45444W        W 6975  14.742   7.380   5.306
45445W        W 6976  37.853   4.291  12.908
45446W        W 6977  40.506   1.918  14.372
45447W        W 6978   4.828  37.964  11.584
45448W        W 6979  25.603  34.960  13.484
45449W        W 6980  18.553  35.981   2.375
45450W        W 6981  34.578  22.029  12.551
45451W        W 6982  29.623   4.711   5.278
45452W        W 6983  27.974   7.203   9.926
45453W        W 6984  21.637  32.416   2.791
45454W        W 6985  38.912  22.016  13.509
45455W        W 6986   3.720  24.092  11.997
45456W        W 6987  22.657  35.018   3.693
45457W        W 6988  36.509  41.987   1.424
45458W        W 6989  31.449  10.854   4.286
45459W        W 6990  23.663  23.038   4.800
45460W        W 6991  19.102  36.078   3.722
45461W        W 6992  29.538  25.004   9.989
45462W        W 6993  35.590  18.188   2.306
45463W        W 6994  34.564   9.312   1.902
45464W        W 6995  39.420  38.959  13.841
45465W        W 6996  38.529   4.323   2.863
45466W        W 6997  36.418  35.418  10.419
45467W        W 6998   9.264  13.291   0.273
45468W        W 6999  35.868  31.991  10.902
45469W        W 7000   9.242  40.514  10.935
45470W        W 7001  15.811  22.997  12.082
45471W        W 7002  32.460  33.990  14.448
45472W        W 7003  31.535  22.094   1.846
45473W        W 7004  24.995  28.056   9.984
45474W        W 7005   1.309   2.801  11.032
45475W        W 7006  15.289  38.981   2.865
45476W        W 7007  40.334  16.609  13.879
45477W        W 7008  33.393  42.947   3.744
45478W        W 7009  36.507   6.704  12.034
45479W        W 7010   4.248  42.952   2.681
45480W        W 7011  38.531  39.975   0.406
45481W        W 7012   6.790   1.408  12.534
45482W        W 7013  39.470  41.970   2.867
45483W        W 7014   4.219  39.341  13.481
45484W        W 7015  19.758   8.683  13.016
45485W        W 7016  34.386  32.980  11.521
45486W        W 7017   5.211  37.876  11.960
45487W        W 7018  28.145   9.673   3.380
45488W        W 7019  21.750  20.089   3.696
45489W        W 7020   4.722  19.671   4.687
45490W        W 7021   7.340  35.045   2.854
45491W        W 7022  15.582  28.982   1.276
45492W        W 7023   7.219   5.769  14.447
45493W        W 7024  44.491   9.166  14.995
45494W        W 7025  43.480  24.497   4.134
45495W        W 7026  23.572  10.246  10.161
45496W        W 7027  39.394   7.757  14.432
45497W        W 7028  16.269  27.961  12.562
45498W        W 7029  37.023  21.073   0.743
45499W        W 7030  41.838  41.841  11.423
45500W        W 7031  30.512  37.852  14.350
45501W        W 7032  29.099  27.188   1.900
45502W        W 7033  15.137   1.824   4.827
45503W        W 7034   2.322  39.478   3.313
45504W        W 7035  18.073  34.572  10.536
45505W        W 7036  44.875  14.771  12.545
45506W        W 7037   4.218   1.808  10.516
45507W        W 7038  35.063  42.007  11.047
45508W        W 7039  33.510  29.022  12.862
45509W        W 7040  28.010   0.843   0.765
45510W        W 7041  25.184  39.505  11.428
45511W        W 7042   0.746  28.937  11.081
45512W        W 7043  19.100  25.022   4.604
45513W        W 7044  29.640  12.276   0.951
45514W        W 7045  30.436  22.534  14.984
45515W        W 7046  11.752  21.254   5.096
45516W        W 7047  18.646  42.305  12.055
45517W        W 7048  12.729  11.828  12.900
45518W        W 7049   4.931  37.962  11.998
45519W        W 7050  44.944   1.939   4.660
45520W        W 7051  37.338   3.298  13.545
45521W        W 7052  11.642  37.449   5.086
45522W        W 7053  33.909  13.795  11.591
45523W        W 7054  15.668  20.596   0.840
45524W        W 7055  38.499  26.645   2.199
45525W        W 7056  42.388  15.260   1.389
45526W        W 7057  22.151   9.864  11.387
45527W        W 7058  36.518  21.699   1.302
45528W        W 7059  27.583  23.685  10.454
45529W        W 7060  29.617  21.734   3.349
45530W        W 7061  32.532  12.151   4.278
45531W        W 7062  24.614  12.218  13.490
45532W        W 7063  15.094  42.976  14.764
45533W        W 7064  32.461  35.570   2.196
45534W        W 7065  39.425  23.702   3.294
45535W        W 7066   5.366   6.776  11.939
45536W        W 7067  32.056   4.719   1.878
45537W        W 7068  25.692  37.526  13.980
45538W        W 7069   5.836  14.815   2.850
45539W        W 7070   6.841   6.910  13.935
45540W        W 7071  36.931  32.954  13.387
45541W        W 7072  27.633   5.301  14.991
45542W        W 7073  24.162  18.056   4.721
45543W        W 7074  10.818  39.923  13.832
45544W        W 7075  12.279  20.718  12.462
45545W        W 7076  32.956  25.154  12.937
45546W        W 7077  31.644  38.469   2.220
45547W        W 7078  18.177  36.994   0.319
45548W        W 7079  17.619  27.025  10.477
45549W        W 7080   3.322   6.262   1.228
45550W        W 7081  41.454  44.854  14.821
45551W        W 7082  21.644  12.257   1.392
45552W        W 7083  27.969  28.969  10.012
45553W        W 7084   6.681  31.079  13.309
45554W        W 7085  20.272  18.208  11.486
45555W        W 7086  11.170   0.933   3.788
45556W        W 7087  22.658  23.182   4.288
45557W        W 7088  13.277   0.877  12.387
45558W        W 7089  44.277  19.209  11.597
45559W        W 7090   8.221   9.787  11.555
45560W        W 7091   2.787  11.632   2.743
45561W        W 7092  28.622  43.767   0.397
45562W        W 7093   4.346  14.125   0.410
45563W        W 7094  21.615  40.834  13.845
45564W        W 7095  43.808  18.282  11.892
45565W        W 7096  25.025  40.909  11.494
45566W        W 7097   2.806  17.096  11.500
45567W        W 7098   6.893   0.966   3.358
45568W        W 7099   2.858  34.515   0.442
45569W        W 7100   5.260  28.035  10.953
45570W        W 7101  15.717  35.105  11.085
45571W        W 7102  41.507  13.322  14.786
45572W        W 7103  41.929  27.999  13.858
45573W        W 7104  13.265  10.277   5.168
45574W        W 7105  28.086  30.997   4.274
45575W        W 7106  44.369  35.966  11.903
45576W        W 7107  10.305  31.075   3.245
45577W        W 7108  25.652  25.696  14.492
45578W        W 7109  16.647  12.312   4.242
45579W        W 7110  20.110   2.429  14.937
45580W        W 7111   4.343   9.349  10.438
45581W        W 7112  41.897  10.841   3.800
45582W        W 7113  11.738  36.537  14.471
45583W        W 7114  13.229  15.713  14.429
45584W        W 7115  24.036   4.366  12.976
45585W        W 7116  36.551  16.790  14.990
45586W        W 7117  39.043  43.922   2.327
45587W        W 7118  34.602  23.546   0.907
45588W        W 7119  41.454   3.809   2.248
45589W        W 7120  28.107  16.178  11.611
45590W        W 7121  13.135  10.686   1.385
45591W        W 7122   5.332   8.260   0.829
45592W        W 7123  21.679   5.344  10.920
45593W        W 7124  42.978   2.874  13.327
45594W        W 7125  32.489  30.577   1.783
45595W        W 7126  42.310  32.552  14.455
45596W        W 7127  13.719  24.049  14.471
45597W        W 7128  38.864  23.990   2.227
45598W        W 7129   5.291  26.146   1.370
45599W        W 7130  10.350  19.597   3.378
45600W        W 7131  36.974  37.530  14.342
45601W        W 7132  13.688  26.964  11.936
45602W        W 7133  37.412  13.204  14.322
45603W        W 7134  12.119  19.576   0.301
45604W        W 7135  11.835  21.707   0.258
45605W        W 7136  20.594   1.815  13.026
45606W        W 7137   9.392   3.742  10.623
45607W        W 7138  31.058  23.229   4.647
45608W        W 7139  14.310   3.380   3.293
45609W        W 7140   5.426  29.020   0.361
45610W        W 7141  36.853  17.639  13.368
45611W        W 7142  31.014  23.541   1.352
45612W        W 7143  43.924  36.568   4.719
45613W        W 7144  40.897  35.950   1.911
45614W        W 7145   5.290  26.078  11.007
45615W        W 7146  38.891  11.752  14.789
45616W        W 7147  25.058  28.129   5.108
45617W        W 7148  34.082  13.627   5.720
45618W        W 7149  33.419   5.262   3.168
45619W        W 7150  31.933  44.986  12.850
45620W        W 7151  19.260   7.415  13.447
45621W        W 7152  29.508  44.280   2.296
45622W        W 7153  27.670  14.663   3.253
45623W        W 7154   4.368  16.689  13.950
45624W        W 7155  44.303  23.696  14.933
45625W        W 7156  11.366  29.611  10.468
45626W        W 7157  41.347  23.056   2.184
45627W        W 7158  28.156  41.534   5.234
45628W        W 7159  10.320  35.991  14.349
45629W        W 7160  32.955  33.031  11.879
45630W        W 7161  17.208  29.578   2.294
45631W        W 7162  31.150  22.741   3.364
45632W        W 7163   1.295  44.465   2.374
45633W        W 7164   9.364  17.789   4.829
45634W        W 7165  18.709  37.463  11.099
45635W        W 7166  33.125  18.726   3.806
45636W        W 7167  16.171  33.487  14.300
45637W        W 7168  12.290  28.548   3.671
45638W        W 7169  36.015  40.522  11.521
45639W        W 7170  20.656  28.084   0.959
45640W        W 7171  15.140   5.231   4.213
45641W        W 7172  32.022   2.747  12.511
45642W        W 7173  10.845  35.030   9.932
45643W        W 7174  33.877  13.716   0.393
45644W        W 7175  14.203  22.631   5.215
45645W        W 7176  14.308  17.239  13.909
45646W        W 7177  38.337   0.266   1.317
45647W        W 7178  19.261  12.728  13.486
45648W        W 7179   2.237  14.212   0.475
45649W        W 7180  28.095  37.082  11.442
45650W        W 7181  42.425  44.997   1.349
45651W        W 7182  39.532   1.288   0.779
45652W        W 7183  36.354  20.746   4.736
45653W        W 7184  27.560  41.532   3.867
45654W        W 7185  41.501  19.643   0.245
45655W        W 7186  15.275  24.558   2.372
45656W        W 7187   7.323  10.197  11.420
45657W        W 7188  43.837   6.692  13.935
45658W        W 7189  34.492  32.552  10.551
45659W        W 7190  39.462  16.289   0.962
45660W        W 7191   6.364  11.301  12.071
45661W        W 7192  15.753  38.881  11.857
45662W        W 7193  10.766  38.870  11.866
45663W        W 7194  35.972  34.510  11.534
45664W        W 7195  11.861  13.258  10.628
45665W        W 7196   1.754  37.373   3.207
45666W        W 7197  32.473  20.231  14.510
45667W        W 7198   4.363  10.340   4.756
45668W        W 7199   6.758  37.924   0.399
45669W        W 7200  41.330  19.755  13.336
45670W        W 7201   9.340  29.436  12.401
45671W        W 7202  39.531   7.713  12.393
45672W        W 7203   2.955  21.104   4.791
45673W        W 7204   2.431  13.219   4.273
45674W        W 7205   5.403  39.485  13.967
45675W        W 7206  43.771  24.057  11.081
45676W        W 7207  36.022  19.779  11.008
45677W        W 7208  36.409  27.516  13.347
45678W        W 7209   1.842  19.153   3.851
45679W        W 7210  25.598  38.022   1.350
45680W        W 7211  20.113  43.412   4.204
45681W        W 7212  42.482  40.859  11.044
45682W        W 7213  37.880  43.978  13.372
45683W        W 7214  14.224   4.769   1.267
45684W        W 7215  37.393  35.106   1.257
45685W        W 7216  40.801  23.545  12.547
45686W        W 7217  34.040   9.725  11.453
45687W        W 7218  14.281  18.719  14.781
45688W        W 7219  30.415  34.031  11.003
45689W        W 7220  37.403   2.885  13.795
45690W        W 7221  39.973  25.193  11.117
45691W        W 7222  43.453  39.466   1.276
45692W        W 7223  30.000  22.627  10.540
45693W        W 7224  26.150  37.004   1.286
45694W        W 7225  22.123   5.793   2.241
45695W        W 7226  22.514  27.549  13.368
45696W        W 7227  27.509  39.873  14.326
45697W        W 7228  38.897  43.472  12.456
45698W        W 7229  26.690  19.049   0.898
45699W        W 7230  26.977  14.753   0.746
45700W        W 7231  27.051  28.607  13.357
45701W        W 7232  24.644  30.071  14.457
45702W        W 7233  39.014   1.254   1.418
45703W        W 7234  15.158  30.015  11.115
45704W        W 7235  26.477   5.347   1.836
45705W        W 7236  16.192   1.836   3.198
45706W        W 7237  32.934  25.636  13.351
45707W        W 7238  43.918  24.125   0.818
45708W        W 7239  42.931  42.799   0.302
45709W        W 7240  21.243   3.293   3.309
45710W        W 7241  39.876  12.279   3.321
45711W        W 7242   3.399  26.633  14.833
45712W        W 7243  28.091  16.206   4.220
45713W        W 7244  32.989   2.917   3.671
45714W        W 7245  44.327  32.637  14.441
45715W        W 7246  43.860  37.071  13.448
45716W        W 7247  29.428  26.683  12.921
45717W        W 7248  36.462  25.700   2.824
45718W        W 7249   5.326   8.862  14.450
45719W        W 7250   4.745  27.087  14.327
45720W        W 7251  38.391  14.642   3.754
45721W        W 7252  15.745  32.500   2.319
45722W        W 7253  15.748  37.401   5.140
45723W        W 7254  32.414   5.411  14.361
45724W        W 7255  21.651  19.723  11.508
45725W        W 7256  42.002  40.847  12.341
45726W        W 7257  29.555  38.326   3.302
45727W        W 7258  43.852   2.756  11.440
45728W        W 7259   7.840   6.886  11.874
45729W        W 7260  23.172  17.228   3.184
45730W        W 7261  16.159  36.560  14.929
45731W        W 7262  30.655  25.646  11.500
45732W        W 7263   7.335  25.701  12.050
45733W        W 7264  18.718  14.257   2.688
45734W        W 7265  12.153  30.986   0.432
45735W        W 7266  16.308  10.377   2.732
45736W        W 7267  35.575  33.487  13.948
45737W        W 7268  10.753  12.767   1.810
45738W        W 7269  26.967  40.831  12.491
45739W        W 7270   1.295   9.851  10.431
45740W        W 7271  33.898  21.222  13.873
45741W        W 7272  37.006  31.430   1.415
45742W        W 7273  30.929  13.172   3.632
45743W        W 7274  32.922  34.041   4.171
45744W        W 7275  14.337  18.089  11.993
45745W        W 7276  25.490  11.656   3.800
45746W        W 7277  18.110  12.150  10.493
45747W        W 7278   7.697  25.981   2.311
45748W        W 7279  14.306  29.516   3.174
45749W        W 7280   6.232  10.198   5.145
45750W        W 7281  42.947   4.860  12.039
45751W        W 7282   8.205  33.512   1.419
45752W        W 7283   6.762  23.520   2.682
45753W        W 7284   7.374  21.067   2.871
45754W        W 7285  11.768  24.568   0.838
45755W        W 7286  32.435   8.166  10.457
45756W        W 7287  35.080  28.532   1.747
45757W        W 7288  23.120   9.280   2.308
45758W        W 7289  21.546  13.699  12.415
45759W        W 7290  34.540  30.653  13.043
45760W        W 7291  34.119  36.944  11.056
45761W        W 7292  24.991  18.735   0.764
45762W        W 7293  14.194  44.865  14.029
45763W        W 7294  10.380   5.829   0.803
45764W        W 7295  11.738   5.771   1.375
45765W        W 7296  37.026  34.043  14.988
45766W        W 7297  33.595  13.769   2.690
45767W        W 7298  23.136  38.444   4.767
45768W        W 7299  16.236  40.902  12.457
45769W        W 7300  41.971   3.751  10.963
45770W        W 7301   6.819  22.011   1.355
45771W        W 7302  23.205  25.111  11.013
45772W        W 7303  33.918  21.176  10.405
45773W        W 7304  16.725  40.496  12.854
45774W        W 7305  28.605  29.480   4.688
45775W        W 7306  23.236  21.073   0.761
45776W        W 7307  39.399  43.444   1.372
45777W        W 7308  22.138  38.507  12.493
45778W        W 7309  30.942  17.798   4.653
45779W        W 7310  16.162  30.142  13.853
45780W        W 7311  31.916  31.537   4.261
45781W        W 7312   0.755  39.937   3.689
45782W        W 7313  25.022  40.888   3.750
45783W        W 7314  11.233  20.595   2.766
45784W        W 7315   1.246  32.978   2.412
45785W        W 7316  33.027  17.232  13.426
45786W        W 7317  20.681   8.218  13.425
45787W        W 7318  21.575  28.668   2.893
45788W        W 7319  32.395  14.719  12.347
45789W        W 7320  36.418   4.817   4.322
45790W        W 7321  25.195   1.466  12.450
45791W        W 7322  17.287  35.420   3.240
45792W        W 7323  38.330  41.841   2.327
45793W        W 7324  33.053  17.602  13.922
45794W        W 7325  36.510  33.418  14.343
45795W        W 7326  10.650  28.490   1.933
45796W        W 7327  17.063  29.164   3.387
45797W        W 7328  42.420   1.327   1.903
45798W        W 7329  12.283  18.271  12.048
45799W        W 7330  34.882  14.142  13.953
45800W        W 7331  44.983  22.237  11.390
45801W        W 7332  18.549   3.723  12.496
45802W        W 7333  37.369   9.354   3.743
45803W        W 7334  36.040  30.068  13.477
45804W        W 7335   7.791  39.975  12.088
45805W        W 7336   3.251  24.010   3.726
45806W        W 7337   8.170  42.435  10.626
45807W        W 7338  21.157  42.775  12.518
45808W        W 7339  38.847  44.486   1.378
45809W        W 7340  13.695   3.319  12.849
45810W        W 7341  31.134   6.292   1.435
45811W        W 7342   0.411  34.491  12.560
45812W        W 7343  25.097  24.656  14.836
45813W        W 7344  23.093  21.572  10.941
45814W        W 7345  27.584   3.833   2.725
45815W        W 7346   5.231   9.336  11.965
45816W        W 7347  28.443  34.013  14.989
45817W        W 7348  29.656  12.846  11.061
45818W        W 7349  42.888   1.248  13.380
45819W        W 7350  27.641  12.128   0.853
45820W        W 7351   1.412   2.444   2.232
45821W        W 7352  23.201  15.083   0.272
45822W        W 7353  28.122  38.989  11.058
45823W        W 7354  25.089   6.918   1.430
45824W        W 7355   5.934  38.875  13.528
45825W        W 7356  18.073  28.177  13.930
45826W        W 7357  37.024  16.152   3.301
45827W        W 7358   2.775   2.789   4.649
45828W        W 7359  15.214  25.130  13.536
45829W        W 7360  23.043  30.151  12.441
45830W        W 7361  15.122  16.741  12.030
45831W        W 7362  35.091  33.439  14.471
45832W        W 7363  32.984  24.480   2.814
45833W        W 7364  17.300   4.336   9.962
45834W        W 7365  28.123   0.299  13.345
45835W        W 7366  41.300  41.458   0.964
45836W        W 7367  13.212  29.118   9.986
45837W        W 7368  14.669  42.357   2.316
45838W        W 7369  37.836  29.454   0.768
45839W        W 7370  34.601  22.675  13.911
45840W        W 7371  26.044  33.122   2.755
45841W        W 7372  37.438  21.661   3.332
45842W        W 7373  21.242  27.985   2.790
45843W        W 7374  22.195  15.241  13.900
45844W        W 7375  40.524   5.809   2.287
45845W        W 7376  18.709   5.342  14.823
45846W        W 7377  26.974   8.167   9.591
45847W        W 7378   8.371  35.927  13.964
45848W        W 7379  38.524   8.848  14.408
45849W        W 7380  14.606  14.710  12.836
45850W        W 7381  15.803  15.172  10.447
45851W        W 7382   5.853   8.684   3.645
45852W        W 7383  35.376  44.485   3.770
45853W        W 7384  29.424  36.424  11.125
45854W        W 7385  21.569   4.896  11.512
45855W        W 7386   1.852  11.682  14.794
45856W        W 7387   5.296   0.433   4.265
45857W        W 7388   9.756  17.590  10.539
45858W        W 7389  29.115   4.309  13.515
45859W        W 7390  15.807  18.077   4.764
45860W        W 7391  23.068   2.838  12.050
45861W        W 7392   9.204  25.495   4.169
45862W        W 7393  15.203  38.846   3.777
45863W        W 7394  12.124  37.940  13.362
45864W        W 7395  34.499  42.418  10.445
45865W        W 7396   4.243  28.981  13.892
45866W        W 7397   8.679  23.098  12.937
45867W        W 7398  37.401  39.348  10.512
45868W        W 7399  31.930  38.990   4.829
45869W        W 7400  18.647   7.732   0.957
45870W        W 7401   6.908  13.827   4.212
45871W        W 7402  10.331  44.320  13.418
45872W        W 7403  17.177  12.155   1.274
45873W        W 7404  15.732   9.720   4.755
45874W        W 7405   6.877   3.872   3.146
45875W        W 7406  17.579  32.913  13.411
45876W        W 7407   6.190   3.734   2.390
45877W        W 7408  32.608  27.025  12.088
45878W        W 7409  26.472  39.330  12.860
45879W        W 7410   5.381  11.164   2.216
45880W        W 7411   2.776  17.197  10.921
45881W        W 7412  32.115  20.587   0.945
45882W        W 7413  37.877  11.202  11.610
45883W        W 7414   1.813  29.638   2.373
45884W        W 7415  30.520   1.345   3.856
45885W        W 7416   2.425  42.403   3.661
45886W        W 7417  36.067   4.727   4.664
45887W        W 7418  12.674  34.989  14.986
45888W        W 7419  30.620  22.712   5.114
45889W        W 7420  29.596  43.472   2.254
45890W        W 7421   7.902  12.691   3.699
45891W        W 7422   7.909  17.559  11.428
45892W        W 7423  10.346  14.786  11.518
45893W        W 7424  18.130  35.940  14.481
45894W        W 7425  24.060  13.188   0.729
45895W        W 7426   6.391  19.156  13.342
45896W        W 7427  43.777   6.916   4.818
45897W        W 7428  27.038  28.638  10.407
45898W        W 7429  16.317  10.689  13.012
45899W        W 7430  17.667  37.870   0.403
45900W        W 7431  37.394  43.017   1.779
45901W        W 7432  18.257  17.088   2.397
45902W        W 7433  30.434  13.643  13.405
45903W        W 7434  38.553  44.909   4.758
45904W        W 7435  42.516  26.173   3.148
45905W        W 7436   9.172  21.725  12.857
45906W        W 7437  43.369  12.237   2.888
45907W        W 7438   7.183  29.051   1.819
45908W        W 7439  18.685  25.983   3.168
45909W        W 7440   8.773  41.892   1.224
45910W        W 7441  43.897  14.659   3.635
45911W        W 7442  18.551   8.729   1.250
45912W        W 7443  30.072  15.118  12.984
45913W        W 7444  10.171  31.616   1.292
45914W        W 7445   5.831  43.434  11.373
45915W        W 7446  32.591  35.478  12.404
45916W        W 7447  39.046  25.515   0.358
45917W        W 7448   1.349  16.292   3.214
45918W        W 7449  36.347  34.526   3.324
45919W        W 7450  32.459  37.025  11.510
45920W        W 7451   9.734  27.611   3.811
45921W        W 7452   8.173  18.063  10.604
45922W        W 7453  12.205  44.496   2.352
45923W        W 7454  17.113  33.576   2.268
45924W        W 7455  18.695  27.097  11.890
45925W        W 7456  35.521  15.736   1.227
45926W        W 7457  27.050  25.642  14.418
45927W        W 7458  16.631  25.633   0.432
45928W        W 7459  15.114  32.419   1.845
45929W        W 7460  15.718  14.279   3.834
45930W        W 7461  19.281  40.034   4.794
45931W        W 7462  16.129  24.004  12.439
45932W        W 7463  39.052  27.608  10.534
45933W        W 7464  39.377   5.868   1.773
45934W        W 7465  23.033  36.090  12.545
45935W        W 7466  14.175  44.969  14.293
45936W        W 7467   1.936  38.071  13.447
45937W        W 7468  19.082  12.672  12.013
45938W        W 7469  20.649  15.215  11.525
45939W        W 7470  19.579  21.719   2.180
45940W        W 7471  26.520  14.324  12.537
45941W        W 7472  25.542  29.005   0.439
45942W        W 7473  44.286  43.306   0.325
45943W        W 7474  39.826   5.241  14.311
45944W        W 7475   7.888  41.326   2.738
45945W        W 7476  38.384   6.364  12.414
45946W        W 7477  40.913  33.592   4.347
45947W        W 7478  32.546  42.309  14.280
45948W        W 7479   5.885  11.661   0.388
45949W        W 7480  29.549  39.874   1.846
45950W        W 7481  20.528  31.945  11.114
45951W        W 7482  30.160  11.210   4.260
45952W        W 7483  10.152   8.308   3.291
45953W        W 7484  31.965  20.604  12.974
45954W        W 7485  44.763  30.979   4.164
45955W        W 7486  19.746  17.073   0.851
45956W        W 7487   0.903  42.496  11.948
45957W        W 7488  20.110  12.240  11.490
45958W        W 7489   9.825  31.146   4.763
45959W        W 7490   0.439  26.520  12.450
45960W        W 7491  22.158   4.445  12.923
45961W        W 7492  42.781  19.148  10.932
45962W        W 7493  20.270  18.215   2.272
45963W        W 7494  22.528  44.936   0.471
45964W        W 7495   2.831  29.534  14.920
45965W        W 7496  40.948  31.107   2.377
45966W        W 7497  43.486  10.785  14.338
45967W        W 7498  14.184   2.890   0.420
45968W        W 7499  33.415  43.890  10.622
45969W        W 7500   4.824   6.315  13.996
45970W        W 7501  22.075  31.420   3.372
45971W        W 7502  14.707  35.396  11.460
45972W        W 7503  15.160  35.550  12.024
45973W        W 7504  17.242   2.232   4.164
45974W        W 7505  16.298  41.292  12.415
45975W        W 7506  21.727  38.999  13.995
45976W        W 7507  13.619   9.262   4.174
45977W        W 7508  23.050  43.275  13.028
45978W        W 7509  44.940  30.433   4.286
45979W        W 7510  19.183  19.149   4.151
45980W        W 7511  15.193  18.135   3.648
45981W        W 7512  17.117  44.975  13.407
45982W        W 7513  38.071   0.382  13.979
45983W        W 7514  34.513  12.314  11.905
45984W        W 7515   8.714  22.570  12.491
45985W        W 7516  38.069  26.200  11.378
45986W        W 7517  29.145  27.027  10.442
45987W        W 7518  33.928  23.992  14.311
45988W        W 7519  14.128  38.329  11.420
45989W        W 7520  20.642  24.674  12.430
45990W        W 7521   1.823  34.044   4.710
45991W        W 7522   2.810   0.856  10.960
45992W        W 7523  38.932  26.641   0.787
45993W        W 7524  27.942  31.495  12.526
45994W        W 7525   7.880  41.977   2.813
45995W        W 7526  17.143  31.053   4.255
45996W        W 7527  44.470  17.668   1.922
45997W        W 7528  43.399  22.150  13.949
45998W        W 7529   8.163  23.140   3.712
45999W        W 7530  24.045  32.939   0.738
46000W        W 7531  26.037  35.037  11.862
46001W        W 7532  13.136   9.731  12.539
46002W        W 7533  34.441  22.049   2.399
46003W        W 7534   3.939  25.185   0.869
46004W        W 7535  25.054  23.226  12.014
46005W        W 7536   0.438  24.542   2.767
46006W        W 7537   1.360  31.488  11.975
46007W        W 7538  26.582  36.371  14.925
46008W        W 7539  18.606  38.076   2.677
46009W        W 7540   0.886  36.923  13.424
46010W        W 7541   9.696  38.517  14.001
46011W        W 7542   2.401  14.815  10.959
46012W        W 7543  26.106   4.286   4.786
46013W        W 7544  38.388   9.826  12.395
46014W        W 7545   5.334   6.209   0.305
46015W        W 7546  23.590  43.458   0.465
46016W        W 7547  35.894  26.104   2.705
46017W        W 7548  17.597  17.262  14.453
46018W        W 7549  13.719   1.864  12.968
46019W        W 7550  10.223  12.172  13.020
46020W        W 7551   1.923  13.655  13.386
46021W        W 7552   4.907  33.046   0.790
46022W        W 7553  26.104  31.956  12.839
46023W        W 7554   0.280  10.225   3.761
46024W        W 7555   4.249   5.700  14.336
46025W        W 7556  38.403  12.181  14.508
46026W        W 7557  30.608  23.510   1.402
46027W        W 7558  37.890  10.256  11.897
46028W        W 7559  19.220  20.760  14.292
46029W        W 7560  27.445  12.220   4.645
46030W        W 7561  13.693   3.813   4.144
46031W        W 7562   1.435   3.345  11.406
46032W        W 7563  26.154   8.723  12.887
46033W        W 7564   8.168   4.422   0.451
46034W        W 7565  20.135   5.699   1.707
46035W        W 7566   8.204  24.556  14.833
46036W        W 7567  43.512  36.888   0.446
46037W        W 7568  30.436   5.255   4.248
46038W        W 7569  26.197   7.172   3.686
46039W        W 7570  16.692   8.705  11.056
46040W        W 7571  32.457  12.277  11.904
46041W        W 7572   2.865  35.375   1.212
46042W        W 7573  39.452   0.286  13.914
46043W        W 7574  36.552  40.861   0.791
46044W        W 7575  26.492  12.236  11.872
46045W        W 7576  24.037   8.355   3.193
46046W        W 7577  19.218  14.187  14.450
46047W        W 7578  31.648  26.489  14.881
46048W        W 7579  39.024  16.122   1.765
46049W        W 7580  21.642  30.004   0.946
46050W        W 7581  35.006   0.982  13.976
46051W        W 7582  32.577  24.073   2.229
46052W        W 7583  26.073   6.236  14.936
46053W        W 7584  28.551  11.354  14.766
46054W        W 7585  38.062   8.828   4.302
46055W        W 7586  16.291   4.830  12.508
46056W        W 7587  33.130  10.303   0.255
46057W        W 7588  19.214  24.479   1.390
46058W        W 7589   7.238  14.187  12.569
46059W        W 7590  28.999  31.047  10.602
46060W        W 7591   3.759  22.673  11.992
46061W        W 7592  20.661  37.988  10.919
46062W        W 7593  35.398  24.639  14.910
46063W        W 7594   8.857  23.670   0.845
46064W        W 7595  42.841  15.697  10.143
46065W        W 7596  13.206  31.491   4.270
46066W        W 7597  20.179   4.851   2.789
46067W        W 7598  41.007  13.138  14.937
46068W        W 7599  26.007  40.509   3.687
46069W        W 7600  44.269  37.836  12.028
46070W        W 7601  29.439   0.844   3.839
46071W        W 7602  44.996  41.982  14.890
46072W        W 7603   2.825  35.408   3.659
46073W        W 7604   7.869  31.638  13.511
46074W        W 7605  14.267   2.471   5.171
46075W        W 7606  27.977  23.989   5.170
46076W        W 7607  43.279  16.570  11.081
46077W        W 7608  40.527  13.204   0.779
46078W        W 7609  20.227  42.344   1.911
46079W        W 7610  19.047  18.743  13.830
46080W        W 7611  10.862  38.432  14.345
46081W        W 7612  15.762  10.817  14.984
46082W        W 7613  21.028  17.591  11.075
46083W        W 7614   1.895  39.976   4.630
46084W        W 7615  42.983   7.327   2.257
46085W        W 7616  39.469  21.727  13.034
46086W        W 7617  23.133   6.204   3.353
46087W        W 7618  42.820  39.405   0.731
46088W        W 7619  28.525  31.445   3.824
46089W        W 7620  11.623  36.347   2.881
46090W        W 7621  36.505  30.583  12.341
46091W        W 7622   9.723  33.042   4.787
46092W        W 7623   8.370   1.403  12.567
46093W        W 7624   0.439  34.085  12.558
46094W        W 7625  28.028   9.167   1.329
46095W        W 7626   2.765  11.856   0.377
46096W        W 7627  39.428  33.879   2.664
46097W        W 7628  31.452  35.516  14.425
46098W        W 7629  13.605  34.557   0.288
46099W        W 7630  12.284  27.961   3.384
46100W        W 7631  16.687  42.469   3.307
46101W        W 7632  40.370  30.641  11.028
46102W        W 7633   9.713  41.834   4.351
46103W        W 7634  22.521  13.131  12.459
46104W        W 7635  31.523  15.804   3.848
46105W        W 7636  33.898  20.626   2.712
46106W        W 7637  17.143  31.017   0.480
46107W        W 7638  37.021  41.979  12.986
46108W        W 7639  18.117  16.666   1.864
46109W        W 7640  35.438  15.807  13.486
46110W        W 7641  24.722   5.883  11.498
46111W        W 7642  29.074   3.285  14.890
46112W        W 7643  24.038   1.794  11.077
46113W        W 7644  32.053  21.141  13.858
46114W        W 7645   8.703   2.734  13.952
46115W        W 7646  44.319   0.742  12.931
46116W        W 7647  15.330  28.469   0.372
46117W        W 7648  44.980  26.008  11.593
46118W        W 7649   5.781  27.690   3.165
46119W        W 7650  28.474  24.026  12.920
46120W        W 7651  16.219  43.964  11.986
46121W        W 7652  16.712  18.652   4.621
46122W        W 7653  39.992  14.640   1.371
46123W        W 7654   6.840  23.619   2.237
46124W        W 7655  35.537  26.583   3.765
46125W        W 7656  40.424  29.636  11.513
46126W        W 7657   5.826   5.238  13.804
46127W        W 7658  10.315  40.437   3.149
46128W        W 7659  26.468  21.114  14.825
46129W        W 7660   2.408  43.359   3.276
46130W        W 7661  27.533  25.698   2.768
46131W        W 7662  13.143   5.322  11.474
46132W        W 7663   7.797   5.260   2.356
46133W        W 7664  31.024  22.572  13.951
46134W        W 7665  40.893  44.277   1.932
46135W        W 7666  41.956  19.055  12.432
46136W        W 7667   6.237   4.901  10.419
46137W        W 7668  15.657  30.933  10.555
46138W        W 7669  34.942  43.473   0.886
46139W        W 7670   3.347  25.508  14.497
46140W        W 7671  16.073  18.078   5.198
46141W        W 7672  14.835   8.184  13.404
46142W        W 7673  11.187  11.763   2.695
46143W        W 7674  18.133  14.674  12.893
46144W        W 7675   6.408   6.755   2.341
46145W        W 7676  32.405  36.910  12.500
46146W        W 7677   1.329  40.338  13.482
46147W        W 7678  14.308  42.293   4.294
46148W        W 7679  34.456  26.484  10.005
46149W        W 7680  42.884  29.061   3.350
46150W        W 7681  42.300  43.436   2.762
46151W        W 7682   4.789  25.602  12.997
46152W        W 7683  19.087  13.768   2.224
46153W        W 7684  23.025  14.138  14.326
46154W        W 7685  22.501  37.382  12.445
46155W        W 7686  43.891   0.893   4.639
46156W        W 7687   0.872  32.960  11.019
46157W        W 7688  39.386   2.733  11.952
46158W        W 7689   7.177  16.215   0.470
46159W        W 7690  22.700  33.531   5.212
46160W        W 7691  12.687   4.850  13.019
46161W        W 7692  30.091  37.851  14.871
46162W        W 7693   5.813  14.179   2.268
46163W        W 7694  44.333  14.209  10.008
46164W        W 7695  18.251  22.210   0.863
46165W        W 7696  13.707   0.394  12.019
46166W        W 7697   4.701  21.755   1.379
46167W        W 7698   2.268   4.277  12.080
46168W        W 7699  28.942  12.658  14.277
46169W        W 7700  12.804  22.612  13.459
46170W        W 7701  14.718  39.991   2.835
46171W        W 7702  32.414  15.160  11.561
46172W        W 7703  35.404  21.710   3.740
46173W        W 7704  43.902  41.522   2.391
46174W        W 7705  16.752  30.521  12.479
46175W        W 7706  35.935  42.317  12.395
46176W        W 7707  18.688  20.110   2.690
46177W        W 7708  38.874  26.966   3.292
46178W        W 7709  43.385  28.529  12.456
46179W        W 7710  16.285  30.943   1.290
46180W        W 7711  30.015  20.087   0.895
46181W        W 7712  13.738  20.645   1.272
46182W        W 7713  31.577  20.225  13.502
46183W        W 7714  24.041  24.697  10.995
46184W        W 7715   4.819  10.876  14.873
46185W        W 7716  15.158   4.867  10.031
46186W        W 7717  40.002   3.385   0.299
46187W        W 7718  32.021   0.400   0.805
46188W        W 7719  14.664  25.209   4.251
46189W        W 7720  23.168   9.294  13.816
46190W        W 7721   9.817  12.197   0.265
46191W        W 7722  22.184  42.007  13.880
46192W        W 7723  38.381   7.717   0.879
46193W        W 7724  31.496  11.202  14.801
46194W        W 7725  38.878  33.535   2.252
46195W        W 7726  35.939  31.066  10.972
46196W        W 7727  19.214  22.075  14.956
46197W        W 7728   7.876  26.613   3.261
46198W        W 7729  38.519  22.149  12.431
46199W        W 7730   9.772  27.629  13.493
46200W        W 7731  30.989  39.444   2.274
46201W        W 7732  32.989  31.896   2.304
46202W        W 7733  12.119  18.082   3.351
46203W        W 7734   9.238  35.913   0.429
46204W        W 7735  27.557  21.725   1.447
46205W        W 7736  28.125  20.095   4.732
46206W        W 7737   6.719  43.783  13.914
46207W        W 7738   0.813  24.079   1.794
46208W        W 7739  24.045  21.631   4.801
46209W        W 7740  34.537   4.921   1.273
46210W        W 7741   6.788  35.544  11.021
46211W        W 7742  44.945  24.104  11.941
46212W        W 7743  37.861  41.395   4.601
46213W        W 7744  25.172  34.573  13.808
46214W        W 7745   8.680  23.685  14.410
46215W        W 7746  13.715   8.724   0.452
46216W        W 7747  13.306  11.164  13.530
46217W        W 7748   1.934  40.535  11.600
46218W        W 7749   6.857   9.159   2.406
46219W        W 7750  32.889  17.563  12.846
46220W        W 7751  38.435  20.115  11.027
46221W        W 7752  29.029  30.134  10.529
46222W        W 7753  31.426   7.335  12.577
46223W        W 7754  40.904  14.101  13.967
46224W        W 7755  42.305  44.259   0.382
46225W        W 7756  29.156  21.638   3.317
46226W        W 7757  21.546  33.382   1.228
46227W        W 7758  15.815   3.786  12.451
46228W        W 7759  20.060  14.689  13.373
46229W        W 7760   7.247  31.943  11.548
46230W        W 7761   3.887  12.213   3.667
46231W        W 7762  29.074  28.166   1.428
46232W        W 7763  19.169   3.945   1.895
46233W        W 7764   9.380  35.390  12.983
46234W        W 7765   2.318   5.847  14.925
46235W        W 7766  33.605   4.750   1.245
46236W        W 7767   2.766   5.317  10.942
46237W        W 7768  12.751   5.353  13.388
46238W        W 7769   3.336  23.556  12.909
46239W        W 7770  14.687  41.019   3.246
46240W        W 7771  39.048   3.892  10.492
46241W        W 7772   6.274  10.758   3.639
46242W        W 7773  20.584  37.516   9.522
46243W        W 7774  15.206  27.042   3.261
46244W        W 7775   6.736  33.031  10.563
46245W        W 7776  10.307  16.200   2.235
46246W        W 7777  35.366  11.814  13.335
46247W        W 7778   4.245   8.672  12.502
46248W        W 7779   5.762  42.783   0.888
46249W        W 7780  33.486  44.460  10.531
46250W        W 7781  41.387   0.353   1.896
46251W        W 7782  36.448  28.570  14.277
46252W        W 7783   6.901   7.753   0.874
46253W        W 7784  38.377  36.913   2.234
46254W        W 7785  10.797  35.018  13.500
46255W        W 7786  33.399  29.554  13.055
46256W        W 7787  25.992   9.712   1.872
46257W        W 7788  38.387  43.465   0.389
46258W        W 7789   9.750   6.212   3.833
46259W        W 7790  41.505  38.064  14.339
46260W        W 7791   4.848  43.953  12.446
46261W        W 7792   3.856  13.249  13.849
46262W        W 7793   4.408   3.943   0.401
46263W        W 7794  11.868   0.286  10.546
46264W        W 7795  27.519  38.477  14.494
46265W        W 7796   1.279  25.655   1.440
46266W        W 7797  27.042  20.225  14.307
46267W        W 7798  24.608  23.019   3.318
46268W        W 7799  32.606  35.366  11.902
46269W        W 7800  16.103   2.437  11.497
46270W        W 7801  20.681   1.946  10.487
46271W        W 7802  25.058  17.792  11.371
46272W        W 7803  20.650  28.492  10.433
46273W        W 7804  25.556  39.516   1.265
46274W        W 7805   1.973  11.752   3.699
46275W        W 7806  18.275  12.671  14.956
46276W        W 7807   0.315  11.627  14.466
46277W        W 7808  39.950  31.599  11.526
46278W        W 7809  43.826  19.762  12.904
46279W        W 7810   5.313  16.775  14.429
46280W        W 7811  12.649   7.694  12.825
46281W        W 7812  24.644  12.169  12.360
46282W        W 7813  21.557  23.567   3.804
46283W        W 7814   6.371  37.535  11.440
46284W        W 7815  44.825  40.502   4.206
46285W        W 7816   1.833  14.274  12.435
46286W        W 7817  41.360   9.770  14.435
46287W        W 7818  36.366  28.466  10.602
46288W        W 7819  35.517   6.787  12.467
46289W        W 7820  24.103  38.869  11.507
46290W        W 7821  41.348   6.380  11.013
46291W        W 7822  35.417  10.246  11.536
46292W        W 7823  33.555  10.821  14.991
46293W        W 7824   3.947  21.252   4.207
46294W        W 7825  15.153  39.416   0.928
46295W        W 7826  20.166  11.326   1.347
46296W        W 7827   4.889   7.879  12.563
46297W        W 7828  44.850  11.232   1.927
46298W        W 7829  38.946  21.573  10.498
46299W        W 7830  13.758  41.369  14.963
46300W        W 7831  26.058   9.166  11.093
46301W        W 7832   0.468  11.250   2.903
46302W        W 7833  37.065  33.469  14.289
46303W        W 7834  17.201  40.371   4.610
46304W        W 7835   7.890   5.749  12.857
46305W        W 7836  36.468  29.012   9.976
46306W        W 7837  12.813  27.959  11.510
46307W        W 7838  31.128  38.532  13.826
46308W        W 7839  14.686   3.341  14.781
46309W        W 7840  22.125   6.374   0.253
46310W        W 7841  43.018  37.946  14.808
46311W        W 7842  35.421  25.980  12.900
46312W        W 7843  31.416  27.679  10.927
46313W        W 7844  16.592  21.589  13.047
46314W        W 7845  30.105  30.550   3.164
46315W        W 7846  36.081  10.664  12.989
46316W        W 7847  25.971  15.609   1.384
46317W        W 7848  33.105  36.968   4.758
46318W        W 7849  44.866  23.593   0.428
46319W        W 7850  31.602  26.020  10.476
46320W        W 7851  11.237   8.787  10.466
46321W        W 7852   1.838   5.311   4.329
46322W        W 7853  21.610   4.722  12.443
46323W        W 7854  25.652  14.722  13.307
46324W        W 7855  14.118  25.535   4.644
46325W        W 7856  34.523  38.447  12.902
46326W        W 7857  33.036   7.688  12.467
46327W        W 7858  44.473  39.353  12.042
46328W        W 7859  36.461  30.937   2.326
46329W        W 7860  13.736  29.666  14.911
46330W        W 7861  42.832  26.631  10.553
46331W        W 7862  26.107  35.358   2.234
46332W        W 7863  33.078  17.625   2.336
46333W        W 7864   2.321  44.394  14.931
46334W        W 7865  28.113  23.730  13.942
46335W        W 7866  15.678   5.390  12.402
46336W        W 7867  41.863  37.547   1.333
46337W        W 7868   2.296   1.257   3.181
46338W        W 7869   5.932  40.019  12.379
46339W        W 7870  28.514  41.940   0.385
46340W        W 7871  31.556  12.703   4.758
46341W        W 7872  17.070  40.925   3.344
46342W        W 7873  39.900  40.988  10.560
46343W        W 7874  40.475   6.717  10.933
46344W        W 7875  15.284  18.108  10.575
46345W        W 7876  21.680  38.980   1.231
46346W        W 7877  29.629  21.580  10.925
46347W        W 7878   0.934  31.572  13.913
46348W        W 7879  20.582  40.988   2.714
46349W        W 7880  15.108  26.589  11.013
46350W        W 7881  30.020  33.115   1.445
46351W        W 7882   5.748  16.579  12.945
46352W        W 7883  29.005  37.450   2.831
46353W        W 7884  10.250  39.920   0.284
46354W        W 7885  21.185   8.264  13.377
46355W        W 7886  28.659  23.616   0.775
46356W        W 7887  25.131  24.123  14.974
46357W        W 7888  26.032  24.090  14.412
46358W        W 7889  23.688  11.792  12.992
46359W        W 7890  12.188   2.891   2.705
46360W        W 7891  28.524  13.245  13.321
46361W        W 7892  27.588  10.266  13.420
46362W        W 7893  21.674  30.063  11.991
46363W        W 7894  33.507  25.597  14.968
46364W        W 7895  24.011  11.847   2.898
46365W        W 7896  26.073  11.655   3.212
46366W        W 7897  33.621  24.508   3.279
46367W        W 7898  44.362  31.991   3.310
46368W        W 7899   3.834  11.645  11.386
46369W        W 7900  18.287  22.546  13.466
46370W        W 7901  26.563  33.587  11.968
46371W        W 7902  35.527  34.007   3.246
46372W        W 7903   9.291  37.520  10.642
46373W        W 7904   7.389  16.134   4.707
46374W        W 7905   7.837   3.749   4.769
46375W        W 7906  20.240  15.796  12.573
46376W        W 7907   8.270   6.198   0.277
46377W        W 7908  41.488   2.751  11.060
46378W        W 7909  40.451  42.988  13.400
46379W        W 7910  23.131  26.974  11.882
46380W        W 7911  16.280  25.545   5.261
46381W        W 7912  43.276  32.088   3.865
46382W        W 7913  37.002   8.741   4.118
46383W        W 7914  18.284  27.940   3.197
46384W        W 7915  39.334  39.324  12.411
46385W        W 7916  14.313   3.302   1.915
46386W        W 7917  18.180  17.090  11.581
46387W        W 7918  22.621  13.727  13.460
46388W        W 7919  42.439  15.701   4.610
46389W        W 7920   4.806  32.636   1.721
46390W        W 7921  28.475   1.776  11.060
46391W        W 7922  11.129  21.196  10.946
46392W        W 7923  24.664   3.378  14.480
46393W        W 7924  16.607   2.775  11.437
46394W        W 7925   9.834  13.123   3.363
46395W        W 7926  37.991  32.900   3.657
46396W        W 7927  33.533  36.355   4.645
46397W        W 7928  44.427  37.531   2.368
46398W        W 7929  13.205  21.090   3.274
46399W        W 7930  17.219  21.585  11.888
46400W        W 7931  23.534  44.345   1.441
46401W        W 7932   7.691  23.579   1.728
46402W        W 7933  21.683   0.800  14.284
46403W        W 7934  17.675  37.509   5.156
46404W        W 7935  33.426  36.409  13.799
46405W        W 7936   3.286  17.795  14.784
46406W        W 7937  28.635  36.430  10.591
46407W        W 7938   7.817  18.618   1.448
46408W        W 7939  43.339  16.765  12.899
46409W        W 7940  25.583  39.424   2.891
46410W        W 7941   7.214   1.924  12.563
46411W        W 7942  11.836  13.311   3.302
46412W        W 7943  22.025  34.966   0.344
46413W        W 7944  36.459  41.292  10.075
46414W        W 7945   2.358  25.706   1.904
46415W        W 7946  38.328  39.349   3.232
46416W        W 7947  40.339  38.567   2.674
46417W        W 7948  39.836  13.613   0.244
46418W        W 7949   8.350  36.034  14.866
46419W        W 7950  25.489  37.957   3.817
46420W        W 7951  12.741   0.791   0.401
46421W        W 7952  28.991   7.245   5.167
46422W        W 7953  27.483  20.671   1.878
46423W        W 7954  20.063  11.286  11.436
46424W        W 7955   9.198  16.663   4.756
46425W        W 7956  40.387  27.690   3.808
46426W        W 7957  30.646  42.290   3.207
46427W        W 7958  32.092  29.630   0.245
46428W        W 7959  43.977  35.852  12.485
46429W        W 7960  16.636  11.854   2.381
46430W        W 7961   9.337  10.825   4.243
46431W        W 7962  32.971  24.538  11.399
46432W        W 7963  16.779  40.886   2.292
46433W        W 7964  28.090   3.406  13.030
46434W        W 7965  20.145  23.511   9.631
46435W        W 7966  28.670  31.923  11.550
46436W        W 7967   6.394  25.624  11.103
46437W        W 7968  38.334  20.223   0.335
46438W        W 7969  25.501  28.080   1.323
46439W        W 7970  35.978  22.067   1.769
46440W        W 7971  35.475  40.353  12.823
46441W        W 7972  32.954  29.491  12.391
46442W        W 7973   8.305  35.904   1.350
46443W        W 7974  15.731  37.370  11.545
46444W        W 7975  25.502   4.296  12.942
46445W        W 7976  33.027  44.303   4.598
46446W        W 7977  16.640   4.282  10.507
46447W        W 7978  28.040  11.656   4.261
46448W        W 7979  42.430  15.109  11.563
46449W        W 7980  26.152   7.410  13.935
46450W        W 7981   7.281  36.967   1.401
46451W        W 7982  24.058  25.089  11.887
46452W        W 7983  29.096  26.521   4.301
46453W        W 7984  40.415  19.254  12.525
46454W        W 7985  12.250  39.324   2.770
46455W        W 7986  13.718  28.509   5.632
46456W        W 7987  36.456  17.770   3.790
46457W        W 7988  16.587  28.461  11.396
46458W        W 7989   5.193   9.711   4.638
46459W        W 7990  10.806  33.554   4.649
46460W        W 7991  37.571  21.628  10.425
46461W        W 7992  28.081   1.748   4.251
46462W        W 7993  15.619  38.863   4.641
46463W        W 7994  38.891  21.754   0.870
46464W        W 7995  10.806   0.864  11.565
46465W        W 7996   3.232   9.756   1.290
46466W        W 7997  43.842  41.912  10.993
46467W        W 7998  14.175  40.457  10.640
46468W        W 7999  24.591  16.083  12.981
46469W        W 8000   7.365  14.117  14.941
46470W        W 8001  27.552  22.125   3.664
46471W        W 8002  20.675   4.749   0.406
46472W        W 8003  15.172   5.729   0.366
46473W        W 8004  30.612   3.932   1.743
46474W        W 8005  19.197   8.678   1.366
46475W        W 8006  20.671  31.570  10.549
46476W        W 8007  32.586  13.720   0.928
46477W        W 8008  15.675  21.700  14.008
46478W        W 8009  42.885  24.086  13.035
46479W        W 8010   1.270  18.222   4.599
46480W        W 8011  19.578  39.943  11.127
46481W        W 8012  40.005  10.245   0.789
46482W        W 8013  31.589  17.741  14.896
46483W        W 8014  39.418  31.507   1.241
46484W        W 8015   8.241   3.942   0.473
46485W        W 8016  34.991  19.152   3.334
46486W        W 8017  33.080   0.806  10.928
46487W        W 8018   1.745  27.646  11.992
46488W        W 8019  44.326  32.621  13.934
46489W        W 8020  36.559  16.574   2.874
46490W        W 8021  25.214  22.504   4.337
46491W        W 8022  30.137   7.186  13.488
46492W        W 8023   8.740   8.691  13.000
46493W        W 8024   8.233  10.785  12.976
46494W        W 8025  20.250  40.490  11.896
46495W        W 8026  29.158  14.153  12.034
46496W        W 8027  35.568   5.767  10.988
46497W        W 8028  22.024   2.332  14.356
46498W        W 8029   2.755  35.104  10.608
46499W        W 8030   1.960  34.978   4.610
46500W        W 8031   0.893  15.741   2.283
46501W        W 8032  24.032  12.660   4.233
46502W        W 8033  12.828  40.835  14.994
46503W        W 8034   6.699   4.724   2.227
46504W        W 8035  28.165  36.032  14.759
46505W        W 8036  31.634  14.648   3.722
46506W        W 8037   1.894  16.765  11.987
46507W        W 8038   0.849  29.168  13.938
46508W        W 8039   7.799  20.158  14.876
46509W        W 8040   2.886  20.078   3.765
46510W        W 8041   9.248  17.188  10.448
46511W        W 8042  30.983   4.781  10.093
46512W        W 8043   8.279  14.096   1.336
46513W        W 8044  17.737  15.286  13.416
46514W        W 8045  39.480   0.266   5.226
46515W        W 8046  43.511  16.254  10.941
46516W        W 8047  39.888  35.542   1.717
46517W        W 8048  31.523  38.406  12.503
46518W        W 8049  32.538  35.988  10.506
46519W        W 8050  37.336  12.154  13.960
46520W        W 8051  42.919   0.439   4.164
46521W        W 8052   5.373   9.789  14.791
46522W        W 8053  10.706  16.714   0.744
46523W        W 8054  25.974  24.206   1.226
46524W        W 8055   8.324  37.869  10.904
46525W        W 8056  11.830  41.387   5.097
46526W        W 8057  13.169  16.679   1.912
46527W        W 8058   8.869  18.079  10.619
46528W        W 8059   4.795   6.255   5.132
46529W        W 8060  27.160  20.546   0.402
46530W        W 8061  24.060  41.524   4.242
46531W        W 8062  23.068   1.795  10.986
46532W        W 8063  25.177  28.013   4.689
46533W        W 8064  20.073  38.012   5.269
46534W        W 8065   5.860  44.480   1.799
46535W        W 8066  16.601  27.476   3.721
46536W        W 8067  20.693   8.815  13.824
46537W        W 8068  11.181   4.728  10.933
46538W        W 8069  40.416  34.886   4.751
46539W        W 8070  16.194  27.972   2.215
46540W        W 8071  29.039  16.255  11.870
46541W        W 8072   8.816   9.805   4.257
46542W        W 8073  34.381  23.532   2.414
46543W        W 8074  12.621  36.435  14.965
46544W        W 8075  42.989   5.912   4.274
46545W        W 8076   9.840  23.121  12.005
46546W        W 8077  25.497  44.427  11.485
46547W        W 8078   3.884  29.664   2.367
46548W        W 8079  37.519  26.110  10.512
46549W        W 8080   4.379   0.466   1.745
46550W        W 8081  26.954  33.116   1.832
46551W        W 8082  20.211  22.609  14.990
46552W        W 8083  27.080  39.025   4.685
46553W        W 8084   0.943  15.100   0.402
46554W        W 8085  43.986  16.119   3.381
46555W        W 8086  25.172  19.747   0.935
46556W        W 8087  37.432  44.988  11.882
46557W        W 8088   4.228  32.031   1.251
46558W        W 8089  31.960  19.127   4.602
46559W        W 8090  11.771  35.953   4.163
46560W        W 8091  25.990  15.134  11.890
46561W        W 8092  13.327  16.685  11.545
46562W        W 8093  12.658  35.561   2.395
46563W        W 8094  17.075  12.692   3.673
46564W        W 8095  43.421   2.823   0.837
46565W        W 8096  40.356   3.346  11.990
46566W        W 8097  26.650   7.766   0.439
46567W        W 8098  16.313   8.400   3.715
46568W        W 8099   8.161  41.489   1.896
46569W        W 8100  21.597  37.997   5.676
46570W        W 8101  40.040   6.320  14.346
46571W        W 8102  27.016  14.604   2.740
46572W        W 8103  38.969  13.777   5.236
46573W        W 8104  22.240  21.576   4.162
46574W        W 8105  44.834  31.058  13.970
46575W        W 8106  25.091   8.819  12.933
46576W        W 8107  18.698   0.396   2.828
46577W        W 8108  14.292  14.269  12.476
46578W        W 8109  41.301  10.688   4.212
46579W        W 8110  29.460   2.750   2.710
46580W        W 8111  36.984  19.631   1.282
46581W        W 8112  14.807  33.510  12.576
46582W        W 8113  36.438  41.799  12.030
46583W        W 8114  23.630   8.877   0.849
46584W        W 8115  10.153  27.490  12.934
46585W        W 8116  44.871   3.389  13.911
46586W        W 8117  12.257  43.835   1.413
46587W        W 8118   1.957  14.727   2.245
46588W        W 8119  19.253  39.924   1.850
46589W        W 8120  28.955   8.692  12.905
46590W        W 8121  15.213  43.347   3.230
46591W        W 8122   8.883  20.742   2.324
46592W        W 8123  40.427  22.732  13.379
46593W        W 8124  20.578  24.016  12.362
46594W        W 8125   7.829  34.592   4.627
46595W        W 8126  28.996  21.205  14.451
46596W        W 8127   3.290  38.991   4.213
46597W        W 8128   5.210  36.559   0.839
46598W        W 8129  30.461   1.778   0.744
46599W        W 8130  24.608  23.135  13.829
46600W        W 8131  39.451  23.493   4.227
46601W        W 8132  26.487  44.272  12.032
46602W        W 8133  32.039  28.582   5.140
46603W        W 8134  24.119  21.727   2.198
46604W        W 8135   9.865  13.215  13.447
46605W        W 8136  26.533  12.740  10.478
46606W        W 8137  21.582   3.399   1.285
46607W        W 8138  24.520   8.270   1.918
46608W        W 8139   3.913   7.792   4.715
46609W        W 8140  21.159  24.027   1.882
46610W        W 8141  37.476   8.899   9.660
46611W        W 8142  42.368  35.024  11.593
46612W        W 8143  41.351  21.613   3.256
46613W        W 8144  31.477   6.839   0.791
46614W        W 8145  33.970  10.374   3.239
46615W        W 8146  14.308  28.069   0.879
46616W        W 8147  34.393  17.254   1.431
46617W        W 8148  38.371   7.208   2.366
46618W        W 8149  24.555   3.909   0.477
46619W        W 8150  21.212  41.020   4.754
46620W        W 8151  19.632  27.997   4.282
46621W        W 8152  28.492  26.028  12.957
46622W        W 8153  34.473  21.034  14.463
46623W        W 8154  30.094  13.652   2.712
46624W        W 8155  44.942   0.376   0.910
46625W        W 8156   0.251   6.242  12.377
46626W        W 8157  36.958  40.010  12.856
46627W        W 8158  30.652   1.283   1.709
46628W        W 8159  15.786  23.540  14.018
46629W        W 8160  20.170  32.422   4.274
46630W        W 8161  24.709  35.853  12.982
46631W        W 8162   2.839  32.013  13.823
46632W        W 8163  35.578  42.391   1.410
46633W        W 8164  43.455  14.163   3.663
46634W        W 8165  25.653  41.398   4.673
46635W        W 8166  12.825  21.516  14.355
46636W        W 8167  29.069  21.599   0.405
46637W        W 8168  11.164  23.162  10.509
46638W        W 8169  17.740  44.346  13.373
46639W        W 8170   5.233  40.326   0.828
46640W        W 8171  24.065  20.052   4.233
46641W        W 8172  18.630  26.205   0.296
46642W        W 8173  29.516  11.247   3.262
46643W        W 8174   3.893  11.744   3.741
46644W        W 8175  33.043  23.037   3.201
46645W        W 8176   2.449  12.304  14.320
46646W        W 8177  24.544   3.238  10.477
46647W        W 8178  39.825  30.445   4.278
46648W        W 8179  24.512  10.867   1.851
46649W        W 8180  43.272   7.736   2.690
46650W        W 8181  15.704   8.166   1.695
46651W        W 8182  10.770   7.738  13.384
46652W        W 8183  27.453  39.874  13.452
46653W        W 8184  37.420  17.110  10.995
46654W        W 8185  35.544  25.145  14.977
46655W        W 8186  37.339  27.515  10.434
46656W        W 8187  39.457  16.209  14.839
46657W        W 8188  26.673   0.284   1.220
46658W        W 8189  21.657  30.078   9.519
46659W        W 8190  21.532  13.326   2.776
46660W        W 8191  14.625   4.843   1.232
46661W        W 8192  27.501  29.123  14.423
46662W        W 8193  29.511  28.028   1.440
46663W        W 8194  35.546  23.614  13.969
46664W        W 8195   4.343  40.526  13.062
46665W        W 8196   6.745  18.077  11.550
46666W        W 8197  37.554  18.148  10.495
46667W        W 8198  33.474  28.053   4.350
46668W        W 8199  13.254  37.901  13.931
46669W        W 8200   6.220  13.793  12.987
46670W        W 8201   1.915  37.473   1.832
46671W        W 8202  37.336  17.115  13.460
46672W        W 8203   7.265  26.960  10.455
46673W        W 8204   0.803   9.206  13.999
46674W        W 8205   9.843  27.190  13.800
46675W        W 8206  21.090   3.290   1.825
46676W        W 8207   1.388  33.918   4.649
46677W        W 8208   3.713   7.342   2.348
46678W        W 8209   9.257  20.645   0.456
46679W        W 8210   4.771  19.254  12.018
46680W        W 8211  39.816  37.557   5.219
46681W        W 8212  12.236  36.999  11.985
46682W        W 8213  18.215  23.147   2.701
46683W        W 8214  28.485  34.990  14.985
46684W        W 8215  39.861   3.775   1.735
46685W        W 8216  25.089  41.944  11.942
46686W        W 8217   4.880  15.323   3.763
46687W        W 8218  37.450  29.583   1.712
46688W        W 8219   5.341  11.700  13.883
46689W        W 8220  14.109  15.087   1.450
46690W        W 8221  13.695  11.236   0.738
46691W        W 8222   6.858  36.933   2.312
46692W        W 8223  29.114   9.806  12.463
46693W        W 8224   5.838   6.876  12.868
46694W        W 8225  17.204   0.306   2.695
46695W        W 8226   9.677  28.042   3.835
46696W        W 8227  19.240  16.284   4.181
46697W        W 8228  11.306  26.194   1.301
46698W        W 8229  33.068  19.716  14.438
46699W        W 8230  42.462   2.356   3.265
46700W        W 8231  23.138   7.251  12.917
46701W        W 8232  27.959  10.377   4.115
46702W        W 8233   8.186  28.550  13.920
46703W        W 8234  37.399  33.038   1.784
46704W        W 8235  19.725  38.026  12.891
46705W        W 8236   1.784  33.978   0.748
46706W        W 8237  10.857   3.333   3.797
46707W        W 8238  16.229   0.274  12.503
46708W        W 8239  10.188  11.639  12.865
46709W        W 8240   1.478  16.156   1.448
46710W        W 8241   5.900  43.388  11.090
46711W        W 8242   7.682  13.723  11.980
46712W        W 8243  41.373   0.862   4.724
46713W        W 8244  21.563  28.080   3.770
46714W        W 8245  39.472  13.328  14.943
46715W        W 8246  41.338  20.532   0.439
46716W        W 8247  38.911   5.697   0.821
46717W        W 8248  26.163  19.566   0.344
46718W        W 8249  12.339  19.115   1.297
46719W        W 8250  31.588  30.503  14.810
46720W        W 8251  25.179   1.766   0.773
46721W        W 8252  36.932  16.715  11.504
46722W        W 8253   1.466  12.642  14.451
46723W        W 8254   8.397   3.835  12.505
46724W        W 8255   7.825   1.874   5.628
46725W        W 8256  20.129  12.298  14.903
46726W        W 8257   3.821  21.030  13.538
46727W        W 8258  41.475  41.827  12.478
46728W        W 8259  40.957  26.177  14.376
46729W        W 8260   0.271   7.321   3.830
46730W        W 8261  14.698  44.299  12.067
46731W        W 8262  13.738  21.138  11.095
46732W        W 8263  20.153  24.688  11.613
46733W        W 8264   3.372   4.218  10.946
46734W        W 8265  31.940  23.511  12.563
46735W        W 8266  17.588  36.468   3.673
46736W        W 8267  40.955  18.683   3.688
46737W        W 8268   8.382  18.123   2.245
46738W        W 8269  26.592  14.236   2.692
46739W        W 8270  43.457  35.982  13.013
46740W        W 8271  15.271  17.787   3.363
46741W        W 8272  29.615  30.991  10.620
46742W        W 8273   4.832  15.223   4.633
46743W        W 8274   7.838   2.773  13.319
46744W        W 8275  29.124  25.670  13.846
46745W        W 8276   4.348   5.335   0.745
46746W        W 8277  30.153  20.763   3.702
46747W        W 8278  37.483   4.753   3.177
46748W        W 8279  11.260  39.970   2.822
46749W        W 8280  11.158  44.905   0.265
46750W        W 8281  26.124  12.750  14.923
46751W        W 8282   9.154  34.415   1.915
46752W        W 8283  35.040  26.074  10.989
46753W        W 8284  41.297  14.280   1.367
46754W        W 8285  19.731  27.135  10.120
46755W        W 8286   2.745   0.836  14.942
46756W        W 8287  43.391  12.710  14.391
46757W        W 8288  34.588  38.337  12.008
46758W        W 8289  36.891  36.889   3.299
46759W        W 8290  25.666   5.411   3.822
46760W        W 8291  14.646  40.899  10.453
46761W        W 8292  34.868  19.733   3.827
46762W        W 8293  16.083  36.358   2.389
46763W        W 8294  23.605  38.834  11.371
46764W        W 8295  30.650  24.667   2.183
46765W        W 8296  24.102  20.737  12.559
46766W        W 8297  44.314  33.964   9.973
46767W        W 8298  29.946  11.702  14.278
46768W        W 8299   0.760   7.300  13.372
46769W        W 8300  30.545  22.127  13.454
46770W        W 8301  28.981  36.066  12.390
46771W        W 8302  25.056  41.294   4.285
46772W        W 8303  43.883  24.050   3.826
46773W        W 8304   1.868  22.191  12.369
46774W        W 8305   3.938  11.789   4.239
46775W        W 8306  41.817   1.860  12.875
46776W        W 8307  15.105  44.436  12.017
46777W        W 8308  17.186  24.217   0.483
46778W        W 8309  34.883   3.239   0.425
46779W        W 8310  20.614   0.342   2.673
46780W        W 8311   6.741  24.125   1.282
46781W        W 8312   6.258  38.529  12.951
46782W        W 8313   6.313  18.212   2.783
46783W        W 8314  33.963  38.470   0.343
46784W        W 8315   7.859  42.489   3.694
46785W        W 8316  12.629  44.888   0.335
46786W        W 8317  31.501  40.340  11.402
46787W        W 8318  37.951   2.731  13.909
46788W        W 8319  44.373  25.621   0.765
46789W        W 8320  38.971  32.633   2.855
46790W        W 8321  26.620  12.353  13.437
46791W        W 8322  28.167  21.544  14.466
46792W        W 8323  33.509  41.325  11.920
46793W        W 8324  41.949  24.535  11.048
46794W        W 8325  42.981  26.545   1.377
46795W        W 8326  29.951  42.481  13.405
46796W        W 8327   9.313  26.958  10.606
46797W        W 8328  18.676  12.623  10.462
46798W        W 8329   7.847  36.987  12.989
46799W        W 8330  14.165   0.966  13.024
46800W        W 8331  25.131  10.281   0.343
46801W        W 8332  20.250   8.380   0.480
46802W        W 8333   9.782  22.508  10.428
46803W        W 8334  12.786  14.105   0.264
46804W        W 8335  10.323  37.011  10.480
46805W        W 8336  17.174  30.564  11.967
46806W        W 8337  29.645  44.363   0.752
46807W        W 8338  43.808  27.010  14.973
46808W        W 8339  30.438  42.777  13.345
46809W        W 8340  37.373  18.173   3.754
46810W        W 8341   9.793  17.280   0.815
46811W        W 8342  33.541  28.178   3.316
46812W        W 8343   9.333   9.806  10.498
46813W        W 8344  23.182  32.506   2.783
46814W        W 8345  23.079  27.475   3.641
46815W        W 8346  14.666  20.086   4.304
46816W        W 8347  21.661  36.349   0.875
46817W        W 8348   6.373  42.387  14.280
46818W        W 8349  24.708  14.294  13.887
46819W        W 8350  34.562  21.027   2.265
46820W        W 8351  22.539   8.789   1.421
46821W        W 8352   4.446  39.510   4.806
46822W        W 8353   3.801  22.996  11.922
46823W        W 8354   3.855  43.471   4.225
46824W        W 8355  27.456  14.776  10.478
46825W        W 8356  10.220  16.709   2.236
46826W        W 8357  17.234  35.929   3.641
46827W        W 8358   9.690  36.037  11.964
46828W        W 8359   2.433  31.623  11.494
46829W        W 8360  15.593  39.987   4.166
46830W        W 8361   1.773  40.487  13.877
46831W        W 8362  34.925  34.968   3.849
46832W        W 8363   8.801  15.592   2.269
46833W        W 8364  27.510  11.245   3.269
46834W        W 8365  17.656  38.957  12.933
46835W        W 8366  17.086  22.717  14.430
46836W        W 8367  36.002  30.523  13.961
46837W        W 8368  24.197  27.549  11.091
46838W        W 8369  39.410   4.395   0.768
46839W        W 8370   6.266  14.284  14.417
46840W        W 8371  12.733   6.693  10.540
46841W        W 8372  25.114  41.989  12.351
46842W        W 8373   6.252   4.288  10.498
46843W        W 8374   0.404  35.491   1.272
46844W        W 8375   1.238   7.230  13.813
46845W        W 8376   7.836  35.586  10.640
46846W        W 8377  27.581  41.303  12.059
46847W        W 8378   9.745   3.416   1.890
46848W        W 8379  23.638   2.301  12.018
46849W        W 8380   6.331   0.485   1.220
46850W        W 8381   8.837  16.697   0.803
46851W        W 8382  29.559  17.598   3.634
46852W        W 8383  24.535  42.805   4.778
46853W        W 8384  16.201  43.311  13.855
46854W        W 8385   5.875   9.870   0.728
46855W        W 8386  42.012   5.419  14.469
46856W        W 8387  32.465  37.418   0.869
46857W        W 8388  27.981  31.578   2.331
46858W        W 8389  28.050  18.565  14.424
46859W        W 8390  38.959   3.716  12.041
46860W        W 8391   8.295  15.699  14.334
46861W        W 8392  38.869  13.194  14.477
46862W        W 8393  39.537   6.909   3.179
46863W        W 8394   2.438  21.025   1.247
46864W        W 8395  42.331   9.808  10.570
46865W        W 8396  32.070   0.415  10.423
46866W        W 8397  10.637  38.935  12.522
46867W        W 8398  12.711  34.480   1.770
46868W        W 8399  35.429  30.023   4.636
46869W        W 8400  40.426  36.377   2.768
46870W        W 8401  14.185  28.024   4.773
46871W        W 8402  26.679  10.260  11.556
46872W        W 8403  39.398  42.324  12.489
46873W        W 8404  43.378   3.942  13.365
46874W        W 8405  20.202  29.473   3.319
46875W        W 8406  21.086  30.482  13.496
46876W        W 8407   5.414  22.057   2.741
46877W        W 8408  15.243  29.654  13.451
46878W        W 8409  17.072  16.747  10.507
46879W        W 8410   2.384  27.962  12.444
46880W        W 8411  23.092  29.491  12.467
46881W        W 8412   4.741  28.513  13.883
46882W        W 8413  38.348  22.602   4.149
46883W        W 8414  34.877   9.197   2.253
46884W        W 8415  24.989  15.237   2.727
46885W        W 8416  28.470  22.156   4.156
46886W        W 8417   5.307  30.014   4.239
46887W        W 8418  32.618  12.807  13.963
46888W        W 8419  44.279   7.698   0.954
46889W        W 8420  15.151  31.473   1.892
46890W        W 8421  40.320  22.118  10.482
46891W        W 8422  40.330  28.161  11.857
46892W        W 8423  21.687  36.084  11.468
46893W        W 8424  21.213  23.625  14.901
46894W        W 8425   5.264  28.999  13.946
46895W        W 8426  12.703  18.178   3.211
46896W        W 8427   4.245  21.636   2.863
46897W        W 8428  12.249  23.666  12.437
46898W        W 8429  44.484  20.274  12.434
46899W        W 8430  44.975  34.472  10.976
46900W        W 8431  40.839  17.109   3.323
46901W        W 8432  24.987  36.863   4.599
46902W        W 8433  41.350  28.559  12.407
46903W        W 8434   5.892  23.015   2.796
46904W        W 8435  29.616  41.353   0.851
46905W        W 8436  20.745   0.968   1.420
46906W        W 8437  29.464  10.709   2.902
46907W        W 8438  36.908   1.750  12.043
46908W        W 8439  18.723   4.834  11.408
46909W        W 8440   3.240   6.299   2.684
46910W        W 8441   2.743   5.413   0.334
46911W        W 8442   5.309  34.589   3.839
46912W        W 8443  23.582  19.278  11.886
46913W        W 8444   3.864  42.522   4.660
46914W        W 8445  20.764  10.721   2.761
46915W        W 8446  27.188  23.154  12.034
46916W        W 8447  26.083   6.904  11.964
46917W        W 8448  42.296  25.530   1.802
46918W        W 8449   8.780  29.611  14.769
46919W        W 8450  36.397  38.482   2.764
46920W        W 8451  26.510  13.840   0.267
46921W        W 8452  11.820   0.420  11.030
46922W        W 8453  12.291  17.159  13.996
46923W        W 8454  18.057   9.206   0.830
46924W        W 8455  34.104  25.554  13.024
46925W        W 8456  40.491  26.653  12.829
46926W        W 8457  19.650  14.590   1.218
46927W        W 8458  37.069   9.178  12.962
46928W        W 8459  30.591  16.598  10.031
46929W        W 8460  43.294  37.964  14.904
46930W        W 8461  32.453  32.905  10.969
46931W        W 8462  23.540   5.751  14.423
46932W        W 8463  43.929  14.680   4.240
46933W        W 8464  24.039  30.515   3.855
46934W        W 8465   1.295  25.982  11.902
46935W        W 8466  42.980  31.442   0.961
46936W        W 8467  32.545  22.652   0.256
46937W        W 8468  22.693   7.723  14.013
46938W        W 8469   6.320  21.024   2.321
46939W        W 8470  33.616   3.899  13.496
46940W        W 8471  40.843  25.085  10.906
46941W        W 8472   1.419  15.304   4.151
46942W        W 8473   3.771   4.719   3.718
46943W        W 8474  20.723  23.632   4.793
46944W        W 8475   0.772   2.732   1.296
46945W        W 8476  43.441  12.199  12.378
46946W        W 8477  20.742  31.899   2.386
46947W        W 8478   3.943   9.869   0.249
46948W        W 8479   4.865  28.138   0.251
46949W        W 8480  15.130  42.850   5.220
46950W        W 8481  43.328   1.882  14.975
46951W        W 8482  29.957   1.373   2.763
46952W        W 8483   2.316  38.904  14.991
46953W        W 8484  37.416   3.739  13.410
46954W        W 8485   3.733   3.430  13.442
46955W        W 8486   9.174  40.378   2.865
46956W        W 8487  39.533   5.299   3.766
46957W        W 8488  34.943  41.468   3.232
46958W        W 8489  31.474   0.377  14.888
46959W        W 8490  19.734  29.026  10.436
46960W        W 8491  22.583  25.640  13.374
46961W        W 8492  42.984  28.161  13.872
46962W        W 8493  35.448  26.081  13.380
46963W        W 8494  32.609  39.498   4.136
46964W        W 8495  23.545   5.427  11.014
46965W        W 8496   7.695   5.279   1.222
46966W        W 8497  24.226  30.158   1.744
46967W        W 8498  37.550  40.016  10.953
46968W        W 8499  16.307  41.469  11.887
46969W        W 8500  29.050  42.871  10.421
46970W        W 8501  34.035  29.055   3.230
46971W        W 8502   1.778  43.010  14.280
46972W        W 8503  11.127  10.704  13.388
46973W        W 8504  25.198  26.623   5.088
46974W        W 8505  41.825  28.679   1.255
46975W        W 8506  42.408  19.112   2.315
46976W        W 8507  28.497  36.065   3.709
46977W        W 8508  33.491  44.823  13.953
46978W        W 8509  15.667  13.131   5.143
46979W        W 8510   3.719   7.766   2.262
46980W        W 8511  13.314  27.130  13.354
46981W        W 8512  34.011  25.020  11.573
46982W        W 8513  36.415  40.468   0.855
46983W        W 8514  35.453  37.568   0.483
46984W        W 8515  34.395  27.029  11.018
46985W        W 8516  44.442  21.543   1.889
46986W        W 8517  26.622   8.766  10.560
46987W        W 8518  11.191  23.036   0.301
46988W        W 8519   7.330  23.065  10.524
46989W        W 8520   4.283  30.926  14.912
46990W        W 8521  27.557   9.221  12.016
46991W        W 8522  18.771  23.994  12.951
46992W        W 8523   2.782  44.896   2.765
46993W        W 8524   3.949  40.007   2.734
46994W        W 8525   4.888  40.980   4.818
46995W        W 8526  11.343  34.504   4.639
46996W        W 8527  44.833   2.416   2.810
46997W        W 8528  10.821  35.999  14.282
46998W        W 8529  25.052  16.131  10.429
46999W        W 8530   6.220  24.041  11.000
47000W        W 8531   2.875  11.227   3.161
47001W        W 8532  38.072  14.156   3.163
47002W        W 8533  24.078  40.368   3.739
47003W        W 8534  35.995  14.769  14.887
47004W        W 8535  25.631  19.651  10.512
47005W        W 8536  31.103  12.649   3.686
47006W        W 8537  35.393   7.186  14.812
47007W        W 8538  14.665  12.673  13.820
47008W        W 8539  32.591  18.151  11.441
47009W        W 8540   7.756  40.906  10.623
47010W        W 8541   8.773  11.680  12.831
47011W        W 8542  38.915  13.197  13.340
47012W        W 8543  29.605  37.499   4.218
47013W        W 8544  12.674   4.399  11.907
47014W        W 8545  30.074  43.987   0.956
47015W        W 8546  26.662  11.789   4.687
47016W        W 8547   6.194  25.662  12.904
47017W        W 8548  37.967  29.921  11.404
47018W        W 8549  15.298  40.905  13.004
47019W        W 8550  33.601  39.981   3.203
47020W        W 8551  26.458  27.654   3.382
47021W        W 8552  25.113  30.622  13.335
47022W        W 8553  14.142   1.253  13.917
47023W        W 8554  12.642  19.549  10.994
47024W        W 8555  40.954  43.380  12.891
47025W        W 8556  23.998  35.991   2.804
47026W        W 8557   7.269   8.861  12.346
47027W        W 8558   3.738  35.465  10.577
47028W        W 8559   3.351  32.482  14.966
47029W        W 8560  14.681  11.191  11.532
47030W        W 8561  35.061  41.888   2.318
47031W        W 8562  24.210  21.216   0.274
47032W        W 8563   6.340   4.269   4.627
47033W        W 8564  13.304  10.369   2.262
47034W        W 8565  35.074  24.712   4.826
47035W        W 8566  14.257  33.060  11.495
47036W        W 8567  36.357  37.052  12.412
47037W        W 8568   2.388  10.246   4.243
47038W        W 8569   6.224  24.005   0.885
47039W        W 8570   5.849   2.859   3.797
47040W        W 8571  25.130  16.176   3.363
47041W        W 8572  17.712   5.221  11.559
47042W        W 8573  27.168   1.252   3.261
47043W        W 8574  15.206  19.552  13.976
47044W        W 8575  42.803  14.731  14.500
47045W        W 8576   5.929   9.706  13.802
47046W        W 8577  40.319  37.369  14.441
47047W        W 8578  43.841  32.109  14.800
47048W        W 8579  18.103   3.949   4.649
47049W        W 8580   6.853  35.882  11.990
47050W        W 8581  20.708   0.296  13.467
47051W        W 8582   0.387   1.421  13.993
47052W        W 8583  42.846   2.801   4.265
47053W        W 8584  18.571  39.967   5.682
47054W        W 8585  42.785  24.596   1.398
47055W        W 8586  17.124  15.204   3.837
47056W        W 8587  43.343  41.857   2.888
47057W        W 8588  28.669  13.136   0.843
47058W        W 8589  13.834  13.725   3.224
47059W        W 8590  15.597  32.998  10.627
47060W        W 8591   1.260  13.315   4.764
47061W        W 8592  27.463  21.710  12.427
47062W        W 8593  28.019   3.274   5.213
47063W        W 8594  19.081  42.396   4.810
47064W        W 8595  43.329   3.860  14.281
47065W        W 8596  32.392  26.603  13.451
47066W        W 8597  31.029  30.948  14.422
47067W        W 8598  11.233  41.965   4.623
47068W        W 8599  12.704  41.532  13.361
47069W        W 8600  17.734  12.357  10.573
47070W        W 8601   7.714  15.777  13.410
47071W        W 8602  44.468   5.220   2.865
47072W        W 8603  27.474  24.214  12.983
47073W        W 8604  44.274  25.187  12.446
47074W        W 8605  15.777   1.792  10.604
47075W        W 8606  32.629  27.074  13.854
47076W        W 8607  10.793  27.529  14.767
47077W        W 8608   2.318  29.979  11.380
47078W        W 8609  38.502  31.513  14.772
47079W        W 8610  32.541   9.771   9.663
47080W        W 8611  22.014   8.888  10.444
47081W        W 8612  31.021   2.425  13.041
47082W        W 8613  10.651   7.780   0.902
47083W        W 8614   2.904  41.390   0.257
47084W        W 8615  28.001  31.111   1.874
47085W        W 8616  33.013  15.117  11.932
47086W        W 8617  31.637  24.628  11.028
47087W        W 8618  25.153  26.074   0.791
47088W        W 8619  10.262  20.735   2.702
47089W        W 8620  13.214  39.866   0.268
47090W        W 8621  17.124  11.803  13.924
47091W        W 8622  11.162  14.185  14.369
47092W        W 8623   7.197  44.306   3.340
47093W        W 8624  42.484  14.763   4.162
47094W        W 8625  42.489   9.249   0.762
47095W        W 8626   9.693   9.285   3.749
47096W        W 8627  25.201  44.858  14.804
47097W        W 8628  14.201  19.739  14.277
47098W        W 8629  18.210  28.143  13.512
47099W        W 8630  10.704  23.694   3.795
47100W        W 8631  35.889  36.914  12.517
47101W        W 8632  43.401  26.036   1.924
47102W        W 8633  10.325  28.515  12.567
47103W        W 8634  36.905   8.200  12.498
47104W        W 8635  34.585  39.447   4.687
47105W        W 8636   1.257  39.495   0.852
47106W        W 8637  19.672  36.593   3.198
47107W        W 8638   5.293  21.229  14.916
47108W        W 8639   5.235  30.629  13.905
47109W        W 8640  16.682  34.090  12.865
47110W        W 8641  36.018  27.950  13.420
47111W        W 8642   2.761  14.180  12.446
47112W        W 8643  12.168   5.862  11.568
47113W        W 8644  31.022  12.641  13.969
47114W        W 8645  23.667  23.133   0.824
47115W        W 8646   4.417  33.464  12.454
47116W        W 8647  22.124  34.970  11.412
47117W        W 8648  27.677  14.588  13.984
47118W        W 8649  11.758  12.664  13.510
47119W        W 8650  34.521   6.881  14.445
47120W        W 8651  38.430  44.425   1.408
47121W        W 8652  18.241  39.869  10.899
47122W        W 8653  44.976   1.813   1.935
47123W        W 8654  27.486  10.229   5.176
47124W        W 8655  13.263   4.774  11.544
47125W        W 8656  10.744  13.603   3.363
47126W        W 8657   8.250  30.974  10.975
47127W        W 8658  16.235   4.833   3.783
47128W        W 8659  12.717  35.098   1.833
47129W        W 8660  44.487   4.859   1.730
47130W        W 8661   4.445   8.381   4.623
47131W        W 8662  21.163  10.185   5.295
47132W        W 8663  18.104  42.338   0.826
47133W        W 8664  29.159  37.957   1.390
47134W        W 8665  23.640  16.771  12.833
47135W        W 8666  15.693  32.577  10.500
47136W        W 8667   8.699  13.118  10.600
47137W        W 8668  27.459  27.163   4.135
47138W        W 8669  25.512   7.240   4.766
47139W        W 8670  37.966  10.673   1.266
47140W        W 8671  10.349  35.387  11.576
47141W        W 8672  38.477   0.953   4.649
47142W        W 8673  24.557  24.608  13.478
47143W        W 8674  36.458   8.288  12.906
47144W        W 8675   6.311  25.470  13.999
47145W        W 8676  35.963   5.707  13.537
47146W        W 8677  22.031   2.279   4.341
47147W        W 8678   2.803  28.010  12.350
47148W        W 8679  34.444  12.129  11.083
47149W        W 8680  34.395  39.391   3.281
47150W        W 8681  42.013   0.899   4.715
47151W        W 8682  18.163  35.478   3.336
47152W        W 8683  15.635  32.106  13.944
47153W        W 8684  12.842  42.506   4.342
47154W        W 8685  40.896  20.189   0.395
47155W        W 8686  32.014  29.469  10.496
47156W        W 8687   6.697   0.464   3.146
47157W        W 8688  27.022  36.943   4.348
47158W        W 8689  32.022  41.306   0.940
47159W        W 8690   0.293   6.295  12.037
47160W        W 8691  44.305  22.107  13.967
47161W        W 8692  31.633  17.648  13.836
47162W        W 8693  17.633   7.706  10.922
47163W        W 8694  12.677  32.013  12.893
47164W        W 8695  35.561  32.553  14.912
47165W        W 8696  26.171  12.298   2.417
47166W        W 8697   9.178   8.406   3.189
47167W        W 8698  21.111  24.652   4.819
47168W        W 8699  30.441  29.569   2.822
47169W        W 8700  10.657  41.042   3.246
47170W        W 8701  32.113  40.000  10.913
47171W        W 8702  28.650  15.302  10.923
47172W        W 8703  40.053  43.280   4.143
47173W        W 8704  37.838  15.619   1.715
47174W        W 8705  14.300  27.010  13.815
47175W        W 8706  35.475  38.467  12.568
47176W        W 8707  11.305   8.219  11.954
47177W        W 8708  29.572  34.998  13.408
47178W        W 8709  26.134  17.798   0.448
47179W        W 8710  23.213   6.331   0.879
47180W        W 8711  36.531  28.157  11.945
47181W        W 8712  24.675  10.769  13.063
47182W        W 8713  12.350  26.089  11.859
47183W        W 8714  13.259   4.231   2.852
47184W        W 8715  39.818  41.822  12.083
47185W        W 8716   0.869  42.883   3.330
47186W        W 8717  40.352  24.017  10.899
47187W        W 8718  38.331  43.483   4.198
47188W        W 8719  33.461  37.848  12.070
47189W        W 8720  10.357  25.556  11.045
47190W        W 8721  13.229  38.960  12.003
47191W        W 8722  33.024   7.387   1.812
47192W        W 8723  42.433   4.313   2.726
47193W        W 8724   5.881  29.159  12.009
47194W        W 8725  41.943  40.352   0.269
47195W        W 8726  16.648  24.201  11.380
47196W        W 8727   2.276  13.769  14.847
47197W        W 8728  40.482  24.611  13.394
47198W        W 8729  44.820  18.191   2.262
47199W        W 8730  11.259  44.354   0.477
47200W        W 8731   0.817   8.887   1.836
47201W        W 8732  10.349   0.877   5.301
47202W        W 8733  12.129   2.294   5.298
47203W        W 8734   4.246  21.260   3.218
47204W        W 8735   7.795  29.613  10.427
47205W        W 8736   0.896  41.333   0.859
47206W        W 8737  44.314  17.285   2.823
47207W        W 8738  14.163  30.493  12.460
47208W        W 8739  36.472   6.348  13.854
47209W        W 8740  24.000  16.215   1.388
47210W        W 8741  40.003   1.731  12.560
47211W        W 8742  32.997  28.985  14.277
47212W        W 8743  32.926   1.732  10.437
47213W        W 8744  18.565   7.327  12.359
47214W        W 8745  10.205  20.194   4.343
47215W        W 8746   9.167  44.501   3.732
47216W        W 8747  40.940  16.259  14.024
47217W        W 8748  30.947  17.158  14.866
47218W        W 8749  14.825  24.038  14.997
47219W        W 8750  40.515  25.547  10.907
47220W        W 8751  42.801  11.728  11.014
47221W        W 8752  39.348  11.782  13.370
47222W        W 8753  22.575  11.791  13.452
47223W        W 8754  22.666  33.616  12.340
47224W        W 8755  17.267   2.736  14.504
47225W        W 8756  16.245  32.475   9.671
47226W        W 8757  25.482   7.191  10.964
47227W        W 8758  28.471  27.607  11.543
47228W        W 8759  38.062  32.059   0.790
47229W        W 8760  22.519  34.535  14.375
47230W        W 8761  38.567  21.058  12.035
47231W        W 8762  10.185  25.043   3.769
47232W        W 8763  26.579   7.297  14.412
47233W        W 8764  43.291   4.312  10.569
47234W        W 8765  13.188  17.564   4.633
47235W        W 8766  29.954  44.281  11.400
47236W        W 8767  28.567  44.762  14.006
47237W        W 8768  29.042  36.870  12.546
47238W        W 8769  14.284   2.239  12.846
47239W        W 8770  23.564  23.226  11.088
47240W        W 8771  43.438  44.785   1.318
47241W        W 8772  31.488  12.340   4.674
47242W        W 8773  21.128  36.398  12.044
47243W        W 8774  18.604  42.977   1.792
47244W        W 8775  21.089   2.393   3.826
47245W        W 8776  18.124  42.888  13.481
47246W        W 8777  20.052  30.107  11.863
47247W        W 8778  31.939  12.253  12.070
47248W        W 8779   3.302  36.581  14.408
47249W        W 8780  10.276   9.278   0.814
47250W        W 8781  41.885  16.635   0.289
47251W        W 8782  19.241   0.883  12.957
47252W        W 8783  27.975  41.905  10.933
47253W        W 8784  16.188  36.460   0.373
47254W        W 8785  33.519  38.489   3.718
47255W        W 8786  36.452  40.494  12.872
47256W        W 8787  14.787  35.556  13.010
47257W        W 8788  13.280  29.954   0.778
47258W        W 8789  10.678  41.819  14.015
47259W        W 8790  20.044  25.205   2.893
47260W        W 8791  11.842  13.755   1.365
47261W        W 8792   3.350  37.391  13.315
47262W        W 8793  37.965  15.088   4.156
47263W        W 8794  20.169  17.644   4.253
47264W        W 8795  28.588   0.256  11.860
47265W        W 8796  41.347  31.451   2.243
47266W        W 8797  10.281  30.948   2.783
47267W        W 8798  21.071   1.940   1.331
47268W        W 8799  10.218   7.372  10.065
47269W        W 8800  32.504  12.736   5.165
47270W        W 8801  19.182  41.372   5.154
47271W        W 8802   9.687  25.200   3.151
47272W        W 8803  26.658   3.871   2.761
47273W        W 8804  12.307  10.730  11.102
47274W        W 8805  11.315  21.558  13.477
47275W        W 8806  17.795  31.587   4.668
47276W        W 8807  32.457  12.637  14.803
47277W        W 8808  18.564  26.103  11.936
47278W        W 8809   9.297  27.465   2.753
47279W        W 8810  22.526  39.334   0.295
47280W        W 8811   5.315  43.805   0.772
47281W        W 8812   5.925  16.251   2.884
47282W        W 8813  41.355  25.003  12.927
47283W        W 8814  13.813   3.236  14.889
47284W        W 8815  39.965   1.318   1.794
47285W        W 8816  15.628  17.629   0.445
47286W        W 8817   3.217  16.203   3.664
47287W        W 8818  44.398   0.764  11.416
47288W        W 8819   0.940   2.405  14.940
47289W        W 8820  17.261   1.770   5.245
47290W        W 8821  32.432  41.836   3.300
47291W        W 8822  32.098   1.455   2.829
47292W        W 8823   2.781   4.308  12.914
47293W        W 8824  41.814   6.368  12.544
47294W        W 8825   5.696  39.382  10.624
47295W        W 8826  37.902  12.202   4.706
47296W        W 8827  30.136  37.446  14.471
47297W        W 8828  29.111  15.625  14.997
47298W        W 8829   2.456  11.353  15.000
47299W        W 8830   2.373  27.159   0.286
47300W        W 8831  35.386  27.465   3.827
47301W        W 8832  42.518  16.275  10.585
47302W        W 8833  15.299  35.088  14.912
47303W        W 8834  21.536  36.592   4.232
47304W        W 8835  34.989  31.549   2.222
47305W        W 8836  43.874  39.017  11.378
47306W        W 8837  30.415  30.579  10.589
47307W        W 8838   0.305  21.652   0.385
47308W        W 8839  28.628  27.573   2.200
47309W        W 8840  24.228  23.692  12.048
47310W        W 8841  13.704   6.861  12.376
47311W        W 8842  44.342  18.184  14.356
47312W        W 8843  42.884   3.946  14.025
47313W        W 8844  35.857   1.371  10.628
47314W        W 8845  31.042  33.979  13.457
47315W        W 8846  11.632   8.200  14.280
47316W        W 8847  26.497  17.263   2.211
47317W        W 8848   8.343  12.823  14.888
47318W        W 8849  20.120   6.413   0.966
47319W        W 8850  12.313  30.494  14.373
47320W        W 8851  31.985  22.070  11.108
47321W        W 8852   9.795  22.165  11.112
47322W        W 8853  21.155   8.248   4.350
47323W        W 8854  20.156  24.216   3.159
47324W        W 8855  11.867  17.797   0.342
47325W        W 8856  13.109  30.622   1.249
47326W        W 8857  27.659  42.354  12.014
47327W        W 8858  37.972   6.413   1.397
47328W        W 8859   1.889  22.606   4.773
47329W        W 8860  11.808  29.530  12.366
47330W        W 8861  33.569   3.285   1.733
47331W        W 8862  26.620  12.834  14.424
47332W        W 8863  44.325  12.707   3.671
47333W        W 8864  40.953  35.854   4.697
47334W        W 8865  23.723  18.214  13.878
47335W        W 8866  10.754   3.460   4.615
47336W        W 8867  31.537  44.414   3.201
47337W        W 8868  41.293  10.310  12.461
47338W        W 8869  20.570  11.335   2.802
47339W        W 8870  19.741  36.943  12.415
47340W        W 8871  41.308   3.323  12.558
47341W        W 8872  13.134  23.518  14.994
47342W        W 8873  38.337  11.348  14.911
47343W        W 8874  25.482  19.566   4.186
47344W        W 8875   6.687   9.857  14.299
47345W        W 8876  10.755  44.845  12.934
47346W        W 8877  38.508   0.364   0.293
47347W        W 8878  10.825   8.741   1.741
47348W        W 8879  17.699  43.839   2.309
47349W        W 8880  22.081  22.603  14.792
47350W        W 8881  34.485   0.405  11.855
47351W        W 8882  37.429  27.990   5.082
47352W        W 8883  41.532  42.928  10.449
47353W        W 8884  30.647  32.084   1.794
47354W        W 8885  27.089  44.444  11.930
47355W        W 8886   4.215  13.180  12.919
47356W        W 8887  12.130  37.433   3.692
47357W        W 8888  38.933  42.860  10.431
47358W        W 8889  31.969   8.671   4.689
47359W        W 8890  10.338  41.899  12.936
47360W        W 8891  24.684  41.444  11.419
47361W        W 8892  27.637  38.930  11.391
47362W        W 8893   8.381  24.005   4.309
47363W        W 8894   4.725   7.403   4.119
47364W        W 8895  11.829   3.365   1.803
47365W        W 8896  34.571  18.243   0.778
47366W        W 8897   7.210  40.909  12.509
47367W        W 8898   5.219  21.611   4.625
47368W        W 8899  34.611   6.275  14.373
47369W        W 8900  41.879  15.816  10.447
47370W        W 8901  22.043  12.136   3.331
47371W        W 8902  24.565  38.476  10.617
47372W        W 8903   8.165  10.316   0.773
47373W        W 8904  24.592  32.074   1.782
47374W        W 8905  32.457  14.255   2.304
47375W        W 8906  39.014  32.142   2.393
47376W        W 8907  26.622  25.467   4.244
47377W        W 8908  15.151  13.839  13.525
47378W        W 8909  28.057  43.273  12.977
47379W        W 8910   9.293  10.826   2.349
47380W        W 8911  20.547   6.392   0.449
47381W        W 8912  38.407  33.444   2.345
47382W        W 8913  37.992  15.095   1.732
47383W        W 8914  26.091  21.046  10.425
47384W        W 8915  18.181  13.817  12.922
47385W        W 8916  25.205  23.596  10.408
47386W        W 8917   3.418  33.092   4.268
47387W        W 8918  31.456  13.646  11.100
47388W        W 8919  20.247  32.492   3.763
47389W        W 8920  12.244  38.337   0.255
47390W        W 8921   0.802  15.129  10.641
47391W        W 8922  12.141  26.081  13.927
47392W        W 8923  44.917  27.638   4.783
47393W        W 8924  11.727   0.749  11.103
47394W        W 8925  32.887   4.766   4.281
47395W        W 8926   9.247   7.699   0.266
47396W        W 8927   4.939  10.814  10.472
47397W        W 8928  25.156  13.121  12.846
47398W        W 8929   2.734  37.473  11.954
47399W        W 8930  33.908  12.246  10.950
47400W        W 8931  32.091   5.916  12.022
47401W        W 8932   9.788   0.807  11.530
47402W        W 8933  44.959  14.816  11.968
47403W        W 8934  33.919  36.406  11.932
47404W        W 8935  28.107   2.829  11.857
47405W        W 8936  35.021  30.586   0.270
47406W        W 8937  22.616  40.809  14.935
47407W        W 8938  35.935  35.471  11.874
47408W        W 8939   5.800  43.995  13.968
47409W        W 8940  13.665  32.913  12.952
47410W        W 8941   2.425   1.732  11.062
47411W        W 8942  15.787  43.363   0.801
47412W        W 8943  17.569  28.169  10.426
47413W        W 8944  44.826   6.706   0.335
47414W        W 8945   8.345  28.452  12.921
47415W        W 8946  15.645   1.797   3.686
47416W        W 8947   3.710  32.626   2.885
47417W        W 8948   5.909  19.669   4.170
47418W        W 8949  27.545  16.234   2.756
47419W        W 8950  29.503   1.940  10.565
47420W        W 8951  32.543  16.608  13.421
47421W        W 8952   1.925  29.556  11.403
47422W        W 8953  19.674  41.036   4.174
47423W        W 8954  31.962  41.928   2.383
47424W        W 8955  44.366  14.132  13.818
47425W        W 8956   6.243  25.151  10.092
47426W        W 8957  23.690  44.820   3.295
47427W        W 8958  16.668   7.385  12.353
47428W        W 8959  36.940  36.883  14.903
47429W        W 8960  33.438  12.733   2.236
47430W        W 8961  35.580  26.033  14.419
47431W        W 8962  24.218  24.086  12.444
47432W        W 8963  22.227  17.254  13.546
47433W        W 8964   2.956  33.616  11.467
47434W        W 8965  44.893  24.589   1.783
47435W        W 8966  33.895   5.746   0.894
47436W        W 8967  24.976  30.131  13.868
47437W        W 8968  40.445  30.909   2.855
47438W        W 8969  22.673  22.125  13.493
47439W        W 8970  36.546  35.080  11.609
47440W        W 8971  16.254  42.874   2.268
47441W        W 8972  39.843  41.834   2.219
47442W        W 8973  37.348  42.781  10.530
47443W        W 8974   2.812   7.744   1.778
47444W        W 8975  17.721  39.337  11.533
47445W        W 8976  31.472   0.743  10.927
47446W        W 8977  24.058  13.184  11.989
47447W        W 8978  25.594  10.872  11.377
47448W        W 8979  30.049  31.959  10.427
47449W        W 8980  22.127   7.242  14.446
47450W        W 8981  26.649  17.191  10.475
47451W        W 8982  28.476  22.208  11.105
47452W        W 8983  21.631  14.654  13.511
47453W        W 8984  25.107  33.411  12.483
47454W        W 8985   0.407  43.412   3.699
47455W        W 8986  28.069   6.893  12.852
47456W        W 8987  39.861  28.968   1.758
47457W        W 8988  36.924   8.383  12.891
47458W        W 8989  28.559  22.685   4.115
47459W        W 8990  33.606  22.190  11.910
47460W        W 8991   5.311  14.308   3.219
47461W        W 8992  31.515  27.632   0.759
47462W        W 8993  40.803  21.052  13.823
47463W        W 8994  11.172  24.987   1.760
47464W        W 8995  23.101  32.423  12.383
47465W        W 8996  27.106  10.750   3.660
47466W        W 8997  13.271  33.948   2.187
47467W        W 8998  11.307  30.964   3.838
47468W        W 8999  25.971  29.109  13.479
47469W        W 9000  29.931  26.581   0.282
47470W        W 9001  33.595  39.820  13.961
47471W        W 9002  39.523  29.594   1.217
47472W        W 9003  14.649  34.449   3.672
47473W        W 9004  39.874  42.432  10.900
47474W        W 9005  44.963   2.850  14.390
47475W        W 9006  18.114  10.869   4.819
47476W        W 9007  30.047  14.248  14.487
47477W        W 9008  17.755  20.747   0.829
47478W        W 9009  23.220  34.604  10.418
47479W        W 9010  11.212  13.653   2.361
47480W        W 9011  24.658  20.196   4.326
47481W        W 9012  20.693  15.126  14.841
47482W        W 9013  29.541  19.735   3.316
47483W        W 9014   9.350  12.222   0.966
47484W        W 9015  26.564  25.206   2.390
47485W        W 9016   7.800  14.125   2.286
47486W        W 9017  24.706  41.942  12.843
47487W        W 9018  40.389  42.507  13.534
47488W        W 9019   5.293  27.538   4.184
47489W        W 9020  12.624   1.290   2.865
47490W        W 9021  24.491  15.287  11.452
47491W        W 9022  34.089   4.394   4.192
47492W        W 9023   5.268   8.786   4.175
47493W        W 9024  25.562  44.363  11.907
47494W        W 9025  31.445   2.879  10.496
47495W        W 9026  11.279  18.672   2.398
47496W        W 9027   5.797  40.818  12.845
47497W        W 9028  36.552   1.842   2.198
47498W        W 9029  15.093  22.073  13.873
47499W        W 9030  16.212  37.363  13.524
47500W        W 9031   6.922  22.588  11.017
47501W        W 9032  28.513  36.006   0.880
47502W        W 9033  35.980   4.311  12.562
47503W        W 9034  23.196  19.609   3.251
47504W        W 9035  23.632  28.089   1.277
47505W        W 9036  31.611  42.472  13.322
47506W        W 9037  11.143  38.892   3.373
47507W        W 9038  34.554  12.668   4.246
47508W        W 9039   5.885  33.532   0.859
47509W        W 9040  18.576   2.753   1.914
47510W        W 9041  28.647  41.373  10.583
47511W        W 9042   2.270   2.959  13.534
47512W        W 9043  18.708  22.527  12.345
47513W        W 9044  13.229   0.329   0.482
47514W        W 9045  18.169   8.864   4.770
47515W        W 9046  23.121  44.842  11.079
47516W        W 9047   3.445  23.624  13.533
47517W        W 9048  23.011  28.078  14.415
47518W        W 9049  33.535   4.448   4.302
47519W        W 9050   4.358  28.436  14.005
47520W        W 9051  39.534   1.438   1.316
47521W        W 9052  43.901  12.248   3.680
47522W        W 9053  11.283   0.341   1.878
47523W        W 9054   1.304  17.182   3.167
47524W        W 9055  15.650  43.923  11.945
47525W        W 9056  30.525  33.523   4.627
47526W        W 9057  44.498  11.690  11.950
47527W        W 9058  44.899   1.870   2.259
47528W        W 9059  36.946   4.341   1.752
47529W        W 9060  17.785  21.198  13.799
47530W        W 9061  23.596  14.287   1.281
47531W        W 9062   5.347  17.081   2.781
47532W        W 9063   7.865  32.514   1.229
47533W        W 9064  10.783  19.191   4.670
47534W        W 9065  25.595  38.920  13.061
47535W        W 9066  40.522  33.918  14.298
47536W        W 9067  28.659  21.026  14.282
47537W        W 9068  16.740  23.080   3.259
47538W        W 9069  39.927   5.262  11.598
47539W        W 9070  36.389   7.259  13.394
47540W        W 9071  33.613  16.192  14.407
47541W        W 9072  30.911  19.561  11.408
47542W        W 9073   3.757  21.652   3.719
47543W        W 9074  13.636  24.218  11.985
47544W        W 9075   8.262  19.636   4.681
47545W        W 9076  12.715   8.787   1.351
47546W        W 9077  35.938   7.696   0.339
47547W        W 9078  19.209  22.111  11.928
47548W        W 9079  38.343  35.519  14.437
47549W        W 9080  16.777  22.135  13.476
47550W        W 9081  32.927  10.309  12.027
47551W        W 9082  24.589  41.816  10.409
47552W        W 9083  31.109   3.933   1.326
47553W        W 9084   3.455  20.270   2.770
47554W        W 9085   3.825  27.967  11.100
47555W        W 9086  33.093  37.352   9.987
47556W        W 9087  36.869  22.225  10.492
47557W        W 9088   2.871  27.571   0.834
47558W        W 9089  44.448  40.018   1.362
47559W        W 9090   4.403  18.051  12.392
47560W        W 9091  44.820   9.845  12.076
47561W        W 9092  21.261  15.766   1.418
47562W        W 9093  25.672  25.567   1.743
47563W        W 9094  13.705  27.036   4.639
47564W        W 9095  20.661  42.464  11.406
47565W        W 9096  27.508  39.316   0.355
47566W        W 9097  12.353  33.588   0.343
47567W        W 9098   2.837  17.594  10.540
47568W        W 9099  18.663  37.891   2.308
47569W        W 9100  39.058  28.577  10.053
47570W        W 9101  20.065  19.602   1.304
47571W        W 9102   7.351  36.502   2.770
47572W        W 9103  24.167   3.363   3.368
47573W        W 9104  28.980  17.250  13.916
47574W        W 9105  22.529  26.147   0.888
47575W        W 9106  31.130  32.910   2.182
47576W        W 9107  17.172  29.107   4.287
47577W        W 9108  23.639  11.626   2.200
47578W        W 9109  31.085   8.664   2.349
47579W        W 9110  22.562  35.571  12.467
47580W        W 9111  21.725  19.777   3.330
47581W        W 9112  34.498  39.360   1.325
47582W        W 9113   5.740  12.830   3.192
47583W        W 9114  13.130  37.533  12.509
47584W        W 9115  10.175  41.946   3.270
47585W        W 9116  43.513  14.816  12.852
47586W        W 9117  33.073  23.615  12.402
47587W        W 9118  16.214  22.159  13.915
47588W        W 9119  38.043  40.431   4.200
47589W        W 9120   1.421  44.852   0.337
47590W        W 9121   1.880  29.929  11.892
47591W        W 9122   0.774  40.531  11.376
47592W        W 9123  12.747  33.009   2.300
47593W        W 9124  14.167  40.411   3.187
47594W        W 9125  16.276  34.954   2.701
47595W        W 9126   8.663  27.511  12.021
47596W        W 9127  39.530  36.955  12.827
47597W        W 9128  27.446  32.594  10.431
47598W        W 9129  21.742  16.630  14.466
47599W        W 9130   7.243  38.977   2.767
47600W        W 9131  32.432  30.967  14.321
47601W        W 9132  25.700  16.162   4.261
47602W        W 9133  14.238  22.997  12.345
47603W        W 9134  10.154  34.423   3.263
47604W        W 9135   9.375  11.169  13.991
47605W        W 9136  18.257  41.437   2.680
47606W        W 9137   5.382  29.610  10.412
47607W        W 9138  39.831   7.265   4.254
47608W        W 9139  21.240  32.548  12.867
47609W        W 9140  23.573  40.538  13.922
47610W        W 9141  35.419  23.683   2.785
47611W        W 9142  12.160  22.066  13.372
47612W        W 9143  11.340  22.706  12.072
47613W        W 9144  31.405   9.726  14.897
47614W        W 9145   8.733   1.792  12.047
47615W        W 9146  34.953  13.767   1.339
47616W        W 9147  15.725  34.595   4.252
47617W        W 9148  32.477  10.862  10.502
47618W        W 9149  41.926  30.582  13.922
47619W        W 9150  33.914   7.406  12.024
47620W        W 9151   0.299   1.456   3.263
47621W        W 9152  11.679  14.323  14.858
47622W        W 9153  13.135  33.041  10.602
47623W        W 9154   1.779  40.861   4.830
47624W        W 9155  19.114  17.627   1.881
47625W        W 9156   4.883  35.875   0.439
47626W        W 9157  31.971  26.591   1.450
47627W        W 9158  44.430  35.904   3.672
47628W        W 9159  30.624  43.914   4.770
47629W        W 9160  11.256  42.935   1.339
47630W        W 9161  37.915  36.475  13.968
47631W        W 9162   5.871  20.725   4.776
47632W        W 9163  30.039  22.594  13.816
47633W        W 9164   7.710  23.213   2.364
47634W        W 9165  41.467  23.166  12.057
47635W        W 9166  28.010  26.984  13.479
47636W        W 9167  39.831  23.562  10.472
47637W        W 9168  12.259  33.928  13.017
47638W        W 9169  43.419  36.850  14.417
47639W        W 9170  30.497  26.988  13.425
47640W        W 9171   0.849  14.791   0.879
47641W        W 9172   1.970   0.417   1.866
47642W        W 9173  33.500  16.113  10.542
47643W        W 9174  23.629  10.862   1.705
47644W        W 9175  24.533  12.846  10.909
47645W        W 9176  17.155  17.233  10.927
47646W        W 9177   4.435  40.428   4.151
47647W        W 9178  30.939  30.913   0.919
47648W        W 9179   1.344  44.977  11.856
47649W        W 9180  34.063  18.774  10.075
47650W        W 9181  24.688  32.031  11.120
47651W        W 9182  12.295  42.294   2.262
47652W        W 9183  26.644  37.893   2.276
47653W        W 9184  28.616  31.536  11.858
47654W        W 9185   0.410  24.029   4.204
47655W        W 9186  23.572  42.787  11.950
47656W        W 9187  39.027  24.140   4.167
47657W        W 9188  12.663  10.744  11.927
47658W        W 9189  15.579  27.669   0.295
47659W        W 9190  17.574  41.859   3.280
47660W        W 9191  43.779  19.557   4.343
47661W        W 9192  17.784   2.226   4.262
47662W        W 9193  44.276  19.245   4.723
47663W        W 9194  34.053   8.683  12.827
47664W        W 9195  15.186  42.944   4.347
47665W        W 9196  15.091   2.318   1.917
47666W        W 9197  38.034   5.899  13.800
47667W        W 9198  39.975  36.491  10.518
47668W        W 9199  22.676  26.029   3.675
47669W        W 9200   5.378   3.429  10.616
47670W        W 9201  32.560  25.629   4.259
47671W        W 9202  41.417  15.646  10.150
47672W        W 9203  19.096   0.802  11.609
47673W        W 9204  30.132  38.986   1.273
47674W        W 9205  20.188  33.062  13.334
47675W        W 9206  39.006  26.143   4.826
47676W        W 9207  14.322   7.345   4.728
47677W        W 9208  22.069  36.921   0.445
47678W        W 9209  11.216  21.063  12.378
47679W        W 9210  14.253   3.834  14.408
47680W        W 9211  35.877  37.457  12.050
47681W        W 9212  23.994   8.279  13.416
47682W        W 9213  37.844  43.306  14.790
47683W        W 9214  42.785   5.782  11.574
47684W        W 9215  26.088  30.918   3.304
47685W        W 9216  18.617  20.239  10.928
47686W        W 9217  35.484   3.821  13.510
47687W        W 9218  34.097  22.177  14.309
47688W        W 9219  29.624  19.105  12.550
47689W        W 9220   3.259  18.679  13.895
47690W        W 9221  33.419  40.895   3.760
47691W        W 9222   5.857   8.740   4.342
47692W        W 9223   5.348  34.398   3.180
47693W        W 9224  12.650  16.200  12.016
47694W        W 9225  17.189   3.910  13.496
47695W        W 9226  31.067  32.922   3.758
47696W        W 9227  43.782  20.102   1.426
47697W        W 9228   0.921   4.434  11.388
47698W        W 9229  12.806  19.640   2.209
47699W        W 9230   9.649   2.923   0.441
47700W        W 9231  18.586  44.813  13.437
47701W        W 9232  33.552   9.791   0.956
47702W        W 9233   4.322  41.307   0.824
47703W        W 9234  11.646  25.060  14.947
47704W        W 9235  19.726  19.158  14.786
47705W        W 9236  40.430  36.990  12.861
47706W        W 9237  38.984  12.712   1.926
47707W        W 9238  37.939  22.119   0.870
47708W        W 9239  37.522  12.279   0.326
47709W        W 9240   7.391  23.128  12.438
47710W        W 9241  23.650   8.190  11.508
47711W        W 9242   5.433  21.545   3.284
47712W        W 9243  11.142  18.098  11.949
47713W        W 9244  36.892  19.651   4.649
47714W        W 9245  37.355  33.449  13.347
47715W        W 9246  35.387  27.690   1.724
47716W        W 9247  31.583  17.097   2.669
47717W        W 9248  29.053  11.149   0.852
47718W        W 9249  19.206   1.238   3.323
47719W        W 9250   9.316   7.179   2.876
47720W        W 9251  38.519  37.474   3.814
47721W        W 9252  12.293   6.794  12.547
47722W        W 9253  43.503  15.322  13.314
47723W        W 9254  12.791   1.846   1.716
47724W        W 9255  11.352  32.404  10.904
47725W        W 9256   0.480  24.607   4.289
47726W        W 9257   2.902  27.966  14.873
47727W        W 9258   8.795  24.554   3.747
47728W        W 9259   2.367  31.591   1.921
47729W        W 9260  32.030  16.223  14.377
47730W        W 9261  16.302  25.170  11.111
47731W        W 9262  15.788  12.263  13.061
47732W        W 9263  44.329  20.122   1.414
47733W        W 9264   1.824  12.851   3.148
47734W        W 9265  17.299   4.853   3.693
47735W        W 9266   3.767  36.381  12.431
47736W        W 9267  30.636   8.734   2.265
47737W        W 9268  16.703  40.372   4.664
47738W        W 9269   8.700  19.140   4.162
47739W        W 9270  32.524  10.157  11.491
47740W        W 9271  29.542  25.100   2.317
47741W        W 9272  20.689  23.499  13.403
47742W        W 9273   5.796  36.403   0.756
47743W        W 9274   6.676  24.625  10.996
47744W        W 9275  36.960  21.156  11.598
47745W        W 9276  19.107   6.303   4.797
47746W        W 9277  15.714  25.990   1.930
47747W        W 9278  20.113  43.803  12.493
47748W        W 9279   2.900  28.446   9.551
47749W        W 9280  34.954  43.955   3.171
47750W        W 9281  36.550  44.810   0.386
47751W        W 9282  21.625  24.687   0.904
47752W        W 9283  25.205  26.510   0.338
47753W        W 9284  39.065  20.629   3.314
47754W        W 9285  20.665  13.142  10.542
47755W        W 9286  41.481  22.681   2.884
47756W        W 9287   3.733  23.123   4.144
47757W        W 9288  38.526  28.663  11.932
47758W        W 9289  26.601   3.389  12.053
47759W        W 9290  20.769  30.955   4.722
47760W        W 9291  32.891   6.383  14.920
47761W        W 9292  33.067   8.252   4.268
47762W        W 9293   6.237   9.282  10.436
47763W        W 9294  41.922  34.056   4.164
47764W        W 9295  43.858  41.816  11.904
47765W        W 9296  14.207  27.611   4.194
47766W        W 9297  10.719  32.947  14.317
47767W        W 9298  25.594   7.196   2.842
47768W        W 9299  30.611  33.397  13.841
47769W        W 9300  33.935   0.316   2.870
47770W        W 9301  15.685  16.169   1.746
47771W        W 9302  40.037   4.887   0.951
47772W        W 9303  26.127  38.925   3.169
47773W        W 9304   1.445   2.432   3.634
47774W        W 9305  11.372  27.619   4.760
47775W        W 9306   6.826  24.978   2.894
47776W        W 9307  30.015  17.146   5.181
47777W        W 9308   0.933  22.129   3.678
47778W        W 9309  39.468  17.618  14.802
47779W        W 9310  16.609  25.159   0.884
47780W        W 9311   5.796  31.638  13.453
47781W        W 9312  23.121   1.363   3.161
47782W        W 9313  39.457  41.808  11.566
47783W        W 9314  18.556  16.769  11.117
47784W        W 9315  25.629  42.284  14.398
47785W        W 9316  40.375   4.271   0.454
47786W        W 9317  41.464  30.097  14.409
47787W        W 9318   0.850  31.060  11.594
47788W        W 9319  26.512  31.573  11.537
47789W        W 9320  13.298  18.128   0.791
47790W        W 9321  17.647  13.605   1.782
47791W        W 9322  20.697  30.610   2.803
47792W        W 9323  26.152  25.563   3.789
47793W        W 9324  14.630  17.717  13.371
47794W        W 9325  20.239   2.328   2.373
47795W        W 9326  39.854  11.715   1.912
47796W        W 9327  20.037  28.592  14.790
47797W        W 9328  40.993  10.205  14.322
47798W        W 9329  15.791   7.383  14.938
47799W        W 9330  34.899  17.293   0.854
47800W        W 9331  23.187  23.996  12.056
47801W        W 9332  11.681  37.466   0.805
47802W        W 9333  42.449  41.334  10.903
47803W        W 9334  25.106  39.470  12.017
47804W        W 9335  11.195   0.862  12.554
47805W        W 9336  22.995  27.163  12.386
47806W        W 9337  43.935   2.817  14.363
47807W        W 9338  13.833  27.038   4.171
47808W        W 9339  18.692   1.452  13.803
47809W        W 9340  14.318  13.840   2.726
47810W        W 9341   9.681  40.928   4.630
47811W        W 9342  11.344  13.792   0.767
47812W        W 9343  44.270  31.455   0.349
47813W        W 9344   0.767   2.854   2.735
47814W        W 9345  37.511  12.218   1.306
47815W        W 9346   6.874   0.317   0.911
47816W        W 9347  39.973   3.390  11.953
47817W        W 9348  38.563  10.683   4.216
47818W        W 9349  23.139   8.880   2.732
47819W        W 9350  38.917  37.560  10.414
47820W        W 9351  35.464   5.206   0.305
47821W        W 9352  30.465  13.606  11.927
47822W        W 9353  41.897  30.127   1.727
47823W        W 9354  41.007  41.534   4.655
47824W        W 9355  14.771  44.440   3.196
47825W        W 9356  14.176  32.474  12.348
47826W        W 9357   2.868   8.173  13.346
47827W        W 9358  38.563  11.343   4.801
47828W        W 9359  18.730   5.765  12.560
47829W        W 9360  23.037  12.618  14.819
47830W        W 9361  25.108  39.933  10.922
47831W        W 9362  22.159  26.024  12.043
47832W        W 9363  43.886  22.558  12.416
47833W        W 9364   3.216   9.741   3.287
47834W        W 9365  30.156  25.219   1.228
47835W        W 9366   4.317   6.228   2.784
47836W        W 9367  12.721  38.989   1.754
47837W        W 9368   4.239  41.381  12.433
47838W        W 9369  21.560  40.054   4.793
47839W        W 9370   4.929  13.324  10.459
47840W        W 9371  33.103  28.951   2.200
47841W        W 9372  16.200  25.101  14.986
47842W        W 9373  13.629  44.845   3.726
47843W        W 9374  30.102  37.014   2.818
47844W        W 9375  33.440  10.344   2.187
47845W        W 9376  20.063  41.405   3.753
47846W        W 9377  31.145   9.307  13.880
47847W        W 9378   9.706   0.749   4.207
47848W        W 9379   3.750  42.910  13.866
47849W        W 9380  10.680  32.965  11.566
47850W        W 9381   5.839  24.102  11.603
47851W        W 9382  12.849  18.729   2.767
47852W        W 9383  25.518  12.631  10.060
47853W        W 9384  23.137  17.134   2.694
47854W        W 9385  42.462   6.336  10.529
47855W        W 9386  25.517   9.871   3.196
47856W        W 9387  10.308  29.089   0.953
47857W        W 9388   1.794  30.044   0.385
47858W        W 9389  27.123  30.950  13.850
47859W        W 9390  21.659  10.705   4.758
47860W        W 9391   0.452   5.730  13.849
47861W        W 9392  39.323  15.700   0.811
47862W        W 9393   6.296  42.913   9.928
47863W        W 9394  12.625   6.246  12.375
47864W        W 9395  37.564  14.263  12.928
47865W        W 9396   1.845  44.457   2.272
47866W        W 9397  30.656  31.908   0.408
47867W        W 9398  33.889  20.582   2.352
47868W        W 9399  11.372  23.672   3.173
47869W        W 9400  41.034  40.984   4.830
47870W        W 9401  22.200  44.776  12.511
47871W        W 9402   5.797   9.208  13.466
47872W        W 9403   6.858  25.678  14.939
47873W        W 9404   2.779  39.466  12.570
47874W        W 9405  24.081  31.039   2.859
47875W        W 9406   8.355  32.550   2.300
47876W        W 9407   8.846  25.558  13.514
47877W        W 9408  31.060  33.033   0.899
47878W        W 9409   5.745   4.796  11.937
47879W        W 9410  37.932  17.199   3.784
47880W        W 9411  40.498  15.627   5.124
47881W        W 9412  17.755  20.549   4.287
47882W        W 9413  32.066  44.963   4.724
47883W        W 9414   2.814  26.979   2.300
47884W        W 9415   4.915  43.964  13.412
47885W        W 9416  38.027  15.230   2.202
47886W        W 9417  16.651  17.711   2.864
47887W        W 9418  20.099  15.088  11.052
47888W        W 9419   5.921  12.758  14.483
47889W        W 9420  20.125  21.195  14.867
47890W        W 9421  30.149  35.099  13.842
47891W        W 9422  34.487   1.328   4.636
47892W        W 9423  35.875   4.909  12.900
47893W        W 9424   2.302  42.379  14.905
47894W        W 9425  42.936  33.448   1.855
47895W        W 9426  18.679  21.045   3.711
47896W        W 9427  14.684  42.998  11.003
47897W        W 9428  39.506  30.952   1.237
47898W        W 9429  19.191  21.757  14.387
47899W        W 9430  20.139  14.233  14.909
47900W        W 9431  44.844  15.623  10.445
47901W        W 9432   2.397  12.171  12.891
47902W        W 9433  21.585  32.970   2.303
47903W        W 9434  31.926  27.065   4.822
47904W        W 9435   0.803   3.292   1.367
47905W        W 9436  10.143  11.225  14.486
47906W        W 9437  34.595   2.777  12.922
47907W        W 9438  27.688  27.946  13.358
47908W        W 9439  15.802   6.368  11.888
47909W        W 9440  17.589  10.272  14.910
47910W        W 9441  30.640  43.823  13.463
47911W        W 9442  30.985  31.034  11.125
47912W        W 9443  35.961  19.565   2.314
47913W        W 9444  26.683   2.830   3.785
47914W        W 9445  25.492  28.044   0.912
47915W        W 9446  30.958  12.274  12.888
47916W        W 9447  33.009  20.670  13.501
47917W        W 9448   3.933  28.174   4.729
47918W        W 9449  43.899   1.458   4.720
47919W        W 9450  22.607   5.842  12.876
47920W        W 9451  16.311  17.139  13.469
47921W        W 9452  36.067  39.401   5.202
47922W        W 9453  12.656  12.845  12.889
47923W        W 9454   2.861  28.678  11.099
47924W        W 9455   1.775  40.503   4.794
47925W        W 9456  38.058  25.131  14.447
47926W        W 9457  16.594  35.555  13.310
47927W        W 9458  18.581  23.070   2.371
47928W        W 9459   6.214  36.898   2.865
47929W        W 9460  17.152  28.052  10.615
47930W        W 9461  25.590  31.152   2.700
47931W        W 9462   6.804  34.899   1.242
47932W        W 9463  19.625   1.935   2.742
47933W        W 9464  20.145  40.347  12.412
47934W        W 9465  32.101  40.377   1.436
47935W        W 9466  15.089  10.874  11.413
47936W        W 9467  29.439   2.453  12.404
47937W        W 9468  19.682  19.651  12.468
47938W        W 9469  36.525  15.627  11.970
47939W        W 9470  29.628  22.206   3.312
47940W        W 9471  34.965  33.031   3.376
47941W        W 9472  20.663   0.328   4.762
47942W        W 9473  44.394   1.757   2.902
47943W        W 9474   4.316   6.910   0.456
47944W        W 9475  12.338  29.961   5.127
47945W        W 9476  17.593  19.719   3.313
47946W        W 9477  36.036   6.769   0.390
47947W        W 9478   5.332  22.021  13.930
47948W        W 9479  11.732  29.578   4.217
47949W        W 9480  35.429  13.638   4.617
47950W        W 9481  19.662  40.413  10.474
47951W        W 9482  43.423  33.907   2.410
47952W        W 9483   9.859  38.059  13.808
47953W        W 9484  10.314  27.000   3.168
47954W        W 9485  13.229  41.315  12.494
47955W        W 9486  30.470   9.726   3.168
47956W        W 9487  36.441  27.984   3.180
47957W        W 9488  27.524   0.789  13.360
47958W        W 9489  19.277  12.850   4.347
47959W        W 9490   9.264  37.479   2.224
47960W        W 9491  34.889  30.998  13.470
47961W        W 9492  20.236  19.561   3.691
47962W        W 9493  15.302  28.163   1.789
47963W        W 9494   0.329  15.174   3.635
47964W        W 9495  33.392   9.740  10.517
47965W        W 9496  26.034  43.304   3.745
47966W        W 9497  36.086  13.125   0.830
47967W        W 9498  33.087  29.114   1.269
47968W        W 9499  42.356   5.355  13.530
47969W        W 9500  42.804   9.367  11.031
47970W        W 9501   6.201  26.980  10.421
47971W        W 9502  40.500  21.206  11.095
47972W        W 9503   8.829  18.776  11.535
47973W        W 9504  41.468  14.205  13.374
47974W        W 9505  37.390  31.950  13.343
47975W        W 9506  33.579   6.896  12.023
47976W        W 9507  36.011  24.621  10.421
47977W        W 9508  25.022  41.392  14.927
47978W        W 9509  17.287  41.928  14.435
47979W        W 9510   8.376  38.352   3.669
47980W        W 9511  12.262   4.382   4.307
47981W        W 9512  17.117  34.525  11.028
47982W        W 9513   3.328  30.995   4.825
47983W        W 9514  24.500   9.183   2.191
47984W        W 9515  30.430  36.952   0.806
47985W        W 9516   5.368   8.777  11.470
47986W        W 9517   9.787  16.279   4.701
47987W        W 9518  12.160  33.124  10.537
47988W        W 9519  10.638   2.408   3.694
47989W        W 9520  38.458  19.102  13.964
47990W        W 9521  25.518  15.681  11.047
47991W        W 9522  38.393  25.510  10.994
47992W        W 9523   8.396  38.982   1.238
47993W        W 9524  20.051  43.792  13.508
47994W        W 9525   3.434   4.347  12.517
47995W        W 9526  22.171  26.483  13.372
47996W        W 9527  43.411  36.540  13.378
47997W        W 9528  31.533  41.889   0.360
47998W        W 9529  36.056   9.739   5.594
47999W        W 9530  36.519   0.289   1.869
48000W        W 9531  14.667  10.667   4.660
48001W        W 9532   5.268   5.815  10.478
48002W        W 9533  13.662  31.131   0.807
48003W        W 9534  20.554  34.975   2.875
48004W        W 9535  22.576  19.138  14.486
48005W        W 9536   2.385  28.617  11.409
48006W        W 9537  43.772  43.448   1.750
48007W        W 9538  14.770   8.829  11.860
48008W        W 9539  17.630   1.965   2.733
48009W        W 9540  25.598  14.103   4.124
48010W        W 9541   9.180  20.704   2.736
48011W        W 9542  27.493  10.786  11.120
48012W        W 9543   0.476  15.577  14.466
48013W        W 9544  30.061   6.853  11.371
48014W        W 9545  13.217  42.943   1.919
48015W        W 9546  19.255  11.650   3.355
48016W        W 9547   0.419  12.338  13.506
48017W        W 9548  33.122  41.316   0.407
48018W        W 9549  42.989   5.800  14.967
48019W        W 9550   6.739  19.263   1.355
48020W        W 9551  31.631  16.735   2.189
48021W        W 9552  41.966  35.943  12.922
48022W        W 9553  36.938  43.838  12.920
48023W        W 9554  35.558  10.373   1.342
48024W        W 9555  40.306  21.661   2.747
48025W        W 9556  29.970  42.023   1.758
48026W        W 9557  12.129  25.556  14.980
48027W        W 9558  21.255  25.107   0.918
48028W        W 9559  13.714  24.661   4.764
48029W        W 9560  22.665   9.644  12.982
48030W        W 9561  41.999  13.599  11.909
48031W        W 9562  38.995  12.339   0.356
48032W        W 9563  23.177  13.759   4.791
48033W        W 9564  21.574  33.442  10.083
48034W        W 9565  31.959  31.592  12.932
48035W        W 9566   6.398  24.695  12.847
48036W        W 9567  19.196  39.396   5.769
48037W        W 9568  17.252  13.239   2.394
48038W        W 9569  18.741   0.476   3.187
48039W        W 9570  25.476  32.885   9.647
48040W        W 9571  10.663  44.394  12.934
48041W        W 9572  37.935  14.102  13.835
48042W        W 9573  36.869  11.736  13.833
48043W        W 9574  32.981  14.243   3.676
48044W        W 9575   5.881   4.337  10.445
48045W        W 9576  18.560  44.288   3.802
48046W        W 9577   6.893  25.009   0.383
48047W        W 9578  17.655  30.044   1.326
48048W        W 9579  27.530  33.947   0.936
48049W        W 9580  32.399  31.072  13.432
48050W        W 9581  28.467  29.666   1.921
48051W        W 9582  26.504  11.299   4.136
48052W        W 9583   1.263  26.085  12.386
48053W        W 9584  32.024  29.131   1.784
48054W        W 9585  38.552  12.274   4.822
48055W        W 9586  30.161  29.650   2.884
48056W        W 9587  32.935  41.446   4.781
48057W        W 9588  37.920  18.090   2.395
48058W        W 9589  10.369  44.417   0.479
48059W        W 9590   6.895  35.464   3.851
48060W        W 9591  19.051   5.923  14.380
48061W        W 9592  35.442  16.173   2.878
48062W        W 9593  31.567  13.814   3.730
48063W        W 9594  16.106  26.991   0.364
48064W        W 9595  22.679  24.984   3.324
48065W        W 9596  41.942  32.906  13.966
48066W        W 9597  12.236  17.731  10.535
48067W        W 9598  42.479  11.757   2.272
48068W        W 9599   2.942  34.928   3.741
48069W        W 9600   5.346  19.220   4.235
48070W        W 9601  40.463   0.868  14.366
48071W        W 9602  34.075  15.301   2.199
48072W        W 9603  28.108  30.492  10.512
48073W        W 9604  34.961   2.776  12.389
48074W        W 9605   2.273  18.641  11.129
48075W        W 9606   1.399  31.552   3.637
48076W        W 9607   2.786   2.842   0.321
48077W        W 9608  16.597  41.338   0.264
48078W        W 9609   0.942  22.218  11.417
48079W        W 9610   0.383  14.786  14.936
48080W        W 9611  11.798  19.533   2.782
48081W        W 9612   1.351  34.989   1.231
48082W        W 9613  14.106  29.946  10.568
48083W        W 9614   3.890  28.612  14.307
48084W        W 9615  31.902  10.715   9.441
48085W        W 9616   4.753   9.230  14.793
48086W        W 9617   3.330  16.673  10.150
48087W        W 9618  25.501  17.166   0.442
48088W        W 9619   9.730  23.731  11.567
48089W        W 9620   1.963  25.469   2.846
48090W        W 9621  27.518  38.335   3.822
48091W        W 9622  27.671  36.845  14.289
48092W        W 9623  40.369  24.130  14.361
48093W        W 9624   5.415  32.612  14.907
48094W        W 9625   5.747  20.065   4.613
48095W        W 9626   7.225  25.713   1.776
48096W        W 9627   5.285  30.635   2.211
48097W        W 9628   4.933   8.213  14.882
48098W        W 9629  15.755  42.965  12.836
48099W        W 9630  39.878  16.755   3.835
48100W        W 9631   4.227   1.799   2.745
48101W        W 9632  43.304  34.040  12.975
48102W        W 9633   2.789  24.495   0.406
48103W        W 9634  31.619   6.333  10.632
48104W        W 9635  19.549  23.050  14.899
48105W        W 9636  31.080  38.014   0.937
48106W        W 9637  38.569  20.634  14.361
48107W        W 9638  14.298  33.536  14.363
48108W        W 9639  31.568  21.061   0.793
48109W        W 9640  11.644  10.297   5.088
48110W        W 9641   0.457   7.192   0.822
48111W        W 9642   1.480  15.794  14.890
48112W        W 9643   1.790  28.169  13.343
48113W        W 9644  31.591  30.534   3.373
48114W        W 9645  36.062  15.822  12.383
48115W        W 9646  31.557  16.174   9.638
48116W        W 9647  34.002  41.984  11.918
48117W        W 9648  42.856   9.276  12.453
48118W        W 9649   3.327  10.256   3.805
48119W        W 9650  29.971  23.074   0.313
48120W        W 9651  28.492  39.408   3.637
48121W        W 9652  32.098  16.693   4.279
48122W        W 9653  40.831  40.413  14.945
48123W        W 9654   5.339  23.162  11.501
48124W        W 9655   9.232  22.049   1.704
48125W        W 9656  30.082  19.651  14.991
48126W        W 9657   8.816  33.580  12.420
48127W        W 9658   9.890   3.426  10.516
48128W        W 9659  30.004  18.696   3.187
48129W        W 9660  15.192  11.688  12.490
48130W        W 9661  15.763  30.972  11.999
48131W        W 9662  38.049   6.873   4.155
48132W        W 9663  24.693  24.640  14.805
48133W        W 9664  24.999  28.659  12.477
48134W        W 9665  37.366  44.502  13.062
48135W        W 9666   0.817  38.568   4.254
48136W        W 9667  34.972   6.867   0.411
48137W        W 9668  38.936  30.608   2.220
48138W        W 9669  44.380  13.757   4.191
48139W        W 9670   9.302  18.562   1.733
48140W        W 9671   1.269  43.843   0.328
48141W        W 9672   9.316  11.624   3.702
48142W        W 9673  30.625   5.827   4.285
48143W        W 9674  38.984  13.722  11.565
48144W        W 9675   2.771  10.682  13.796
48145W        W 9676  27.501  29.565  13.978
48146W        W 9677   2.260   0.795   4.645
48147W        W 9678  29.590   6.855   3.212
48148W        W 9679  41.791  23.685   4.142
48149W        W 9680  39.862   6.833   0.416
48150W        W 9681  11.673   2.914  12.080
48151W        W 9682  39.972  26.685  10.585
48152W        W 9683  33.026  32.994   4.787
48153W        W 9684   9.889  33.991   0.871
48154W        W 9685  23.210  31.436   4.352
48155W        W 9686  40.460  31.625  12.825
48156W        W 9687  30.999  17.566  10.511
48157W        W 9688   9.840  44.462   0.397
48158W        W 9689   2.460  26.529  14.280
48159W        W 9690  31.127  42.523   2.417
48160W        W 9691   4.871  42.948   2.299
48161W        W 9692  21.216  17.637  13.380
48162W        W 9693  25.180  32.896  12.346
48163W        W 9694  23.673  26.161  12.858
48164W        W 9695   4.739  18.188  10.946
48165W        W 9696  30.656  38.908   3.318
48166W        W 9697  15.771  18.174   1.330
48167W        W 9698  41.334  16.766   0.338
48168W        W 9699   5.381   0.955   3.852
48169W        W 9700  28.647  12.701  14.322
48170W        W 9701   8.878   2.897   3.192
48171W        W 9702  39.377  16.160  13.953
48172W        W 9703  35.061  33.420  11.892
48173W        W 9704  21.119  43.845   2.861
48174W        W 9705   0.285  37.040  11.105
48175W        W 9706  13.625  34.098  13.862
48176W        W 9707  37.495  32.405  13.893
48177W        W 9708  26.679  26.202   2.334
48178W        W 9709  34.941  22.081  14.924
48179W        W 9710  37.916  22.580   3.846
48180W        W 9711  44.011   1.258  14.901
48181W        W 9712  21.128  23.147   2.369
48182W        W 9713  21.037  17.292   3.380
48183W        W 9714  14.180  17.105   1.776
48184W        W 9715   4.275  22.518   1.857
48185W        W 9716  19.559  21.244  10.493
48186W        W 9717   3.351  11.827  13.920
48187W        W 9718   9.782  34.883   1.407
48188W        W 9719  28.639  43.479  14.401
48189W        W 9720  10.819  10.268  13.471
48190W        W 9721  42.823  22.208  13.512
48191W        W 9722  30.555  23.712  10.642
48192W        W 9723  14.673   1.792   5.130
48193W        W 9724  41.882   8.766  13.976
48194W        W 9725  31.968  43.826  10.904
48195W        W 9726   0.927  17.091   5.154
48196W        W 9727  12.852  30.543   0.799
48197W        W 9728   9.685  38.983  13.465
48198W        W 9729   6.419  39.459   3.828
48199W        W 9730  18.277   3.453   4.293
48200W        W 9731  29.659  19.230  14.954
48201W        W 9732  35.422  21.726  12.993
48202W        W 9733  39.895  12.772   3.377
48203W        W 9734  21.567  40.384   1.806
48204W        W 9735  10.835  18.191   0.360
48205W        W 9736  37.570  36.054  11.115
48206W        W 9737  27.944  26.093   4.724
48207W        W 9738  14.253   1.800  14.321
48208W        W 9739   4.281  12.192   2.776
48209W        W 9740  17.767  39.820  10.965
48210W        W 9741  31.078   5.295  12.402
48211W        W 9742   7.285   0.335  10.483
48212W        W 9743  29.975  44.489   1.868
48213W        W 9744  15.210  11.187   1.242
48214W        W 9745  36.353  33.426   4.266
48215W        W 9746  35.530  21.661  10.639
48216W        W 9747  15.641   5.285  10.477
48217W        W 9748  36.485  21.241  11.966
48218W        W 9749  30.534  27.960   4.179
48219W        W 9750   2.278  42.858   2.817
48220W        W 9751  39.546  15.805   9.943
48221W        W 9752  43.466  11.210   1.930
48222W        W 9753   2.815  39.859   2.240
48223W        W 9754   9.318  19.582  13.341
48224W        W 9755  22.544  37.997   0.951
48225W        W 9756   1.366  42.780   0.739
48226W        W 9757  12.651  11.738  11.094
48227W        W 9758   1.804   9.681   0.339
48228W        W 9759   7.669  21.259   4.178
48229W        W 9760  18.248   5.382   3.377
48230W        W 9761   9.372  34.434  11.463
48231W        W 9762   3.367   7.174   4.627
48232W        W 9763   7.370  36.412   4.316
48233W        W 9764  20.531  31.947  13.374
48234W        W 9765   8.261  22.028  13.538
48235W        W 9766  36.047  20.540  12.580
48236W        W 9767   2.879  19.712  13.459
48237W        W 9768  31.899   0.323  13.818
48238W        W 9769  41.534  27.012  10.495
48239W        W 9770  37.493  16.745  11.064
48240W        W 9771  39.886  44.758  12.563
48241W        W 9772  19.759  43.928  14.351
48242W        W 9773  11.725  42.468  11.483
48243W        W 9774  44.929  14.792   4.832
48244W        W 9775  41.871  16.642   1.213
48245W        W 9776  16.304   1.753   0.787
48246W        W 9777  23.097  21.105   3.211
48247W        W 9778  44.863  15.771  13.937
48248W        W 9779  13.349  18.260   0.262
48249W        W 9780  25.537  36.415  14.445
48250W        W 9781  27.557   8.811  14.475
48251W        W 9782  10.852  33.605   4.310
48252W        W 9783  21.688   1.306   4.704
48253W        W 9784  37.442  40.936   2.409
48254W        W 9785  29.024  23.597   2.708
48255W        W 9786  37.367   7.369  14.851
48256W        W 9787  27.541   7.296  12.863
48257W        W 9788   7.732   2.746   2.382
48258W        W 9789   1.405  43.016  14.466
48259W        W 9790  16.117  17.283   0.918
48260W        W 9791  25.689  13.163   2.244
48261W        W 9792   5.857  20.189   0.895
48262W        W 9793  17.135   1.423  11.121
48263W        W 9794   7.297  34.005  11.490
48264W        W 9795  29.164  11.157   5.226
48265W        W 9796   7.715  23.573  10.967
48266W        W 9797  29.553  15.736   3.662
48267W        W 9798  36.478  25.547   0.842
48268W        W 9799  33.582  34.455  14.834
48269W        W 9800   2.879  31.617   3.708
48270W        W 9801  41.905  38.905  13.431
48271W        W 9802  32.415  10.203  14.833
48272W        W 9803  32.561  44.262  12.578
48273W        W 9804  35.102  15.268  13.973
48274W        W 9805  39.814  42.871   2.742
48275W        W 9806  26.057  33.881  11.029
48276W        W 9807  33.012  38.924   4.699
48277W        W 9808   8.309  31.029   3.351
48278W        W 9809  22.079  36.505   1.716
48279W        W 9810   0.361  13.732   3.336
48280W        W 9811  18.676  20.756  12.876
48281W        W 9812   4.231   2.252   4.640
48282W        W 9813  37.541   6.741   4.276
48283W        W 9814   4.753   7.264   3.170
48284W        W 9815  25.493  44.435   0.381
48285W        W 9816  33.089  35.993  11.955
48286W        W 9817   9.319  13.718  12.961
48287W        W 9818  35.898  13.721   3.307
48288W        W 9819   8.823   3.233   5.191
48289W        W 9820  27.165  27.498  12.464
48290W        W 9821   1.365  33.103  12.923
48291W        W 9822  22.588  38.002   2.255
48292W        W 9823  26.042  16.582  13.528
48293W        W 9824   6.682  12.842  13.452
48294W        W 9825  19.114   5.776  13.012
48295W        W 9826  28.050  11.784   0.472
48296W        W 9827  16.658  32.509  14.488
48297W        W 9828  10.167  32.118  11.536
48298W        W 9829   2.399  41.836  13.307
48299W        W 9830  40.962   6.823  14.987
48300W        W 9831  35.931  10.779  12.429
48301W        W 9832   2.444   0.842   9.979
48302W        W 9833  28.472  23.622  10.503
48303W        W 9834  13.741  28.146   2.269
48304W        W 9835  43.993  31.009  13.343
48305W        W 9836   6.693  38.891  12.915
48306W        W 9837   6.300  25.151   1.763
48307W        W 9838  28.934  31.542   3.758
48308W        W 9839  38.966  13.344  12.472
48309W        W 9840  28.061  29.094   1.345
48310W        W 9841   2.402  27.023  10.966
48311W        W 9842   7.193   9.327  12.505
48312W        W 9843  23.709  23.663   4.829
48313W        W 9844  44.463   2.753  10.975
48314W        W 9845  23.572  24.172   4.820
48315W        W 9846  23.597   2.452   0.444
48316W        W 9847  27.961  35.442  14.320
48317W        W 9848  26.671  21.162  14.024
48318W        W 9849   1.795  42.399  14.383
48319W        W 9850  25.143  29.162   1.852
48320W        W 9851  26.055  11.725  10.598
48321W        W 9852  20.086   0.358  14.918
48322W        W 9853   5.792  27.143   9.660
48323W        W 9854  27.617  31.405  11.091
48324W        W 9855   7.222  43.494   2.220
48325W        W 9856  14.637  34.375   2.739
48326W        W 9857  43.824  39.427   2.180
48327W        W 9858  26.955  44.425  11.072
48328W        W 9859  29.655   3.892   1.730
48329W        W 9860  15.128  37.916  12.940
48330W        W 9861  43.786  38.858   2.664
48331W        W 9862  43.015  35.603   2.278
48332W        W 9863  26.113  25.686   2.327
48333W        W 9864  21.212  26.174   0.477
48334W        W 9865  17.761  39.919  12.384
48335W        W 9866  35.459  27.477  14.816
48336W        W 9867  33.478   1.352  10.554
48337W        W 9868  36.035   2.785  10.974
48338W        W 9869  21.185  29.115   0.459
48339W        W 9870   1.352  16.091  12.889
48340W        W 9871  16.626  44.949  13.871
48341W        W 9872  40.907  27.618  12.517
48342W        W 9873  39.362  29.603   0.869
48343W        W 9874  24.714  43.417   0.285
48344W        W 9875   1.283  25.138  14.891
48345W        W 9876  33.490  13.822  13.336
48346W        W 9877   3.334  17.257   2.342
48347W        W 9878  43.808   3.393   3.179
48348W        W 9879  34.575  19.191  14.860
48349W        W 9880  36.046  28.616  13.968
48350W        W 9881  16.621  37.344   0.473
48351W        W 9882  41.456  29.000   0.875
48352W        W 9883  23.158  32.622   1.896
48353W        W 9884  15.700   5.872  14.953
48354W        W 9885   1.801  20.631  13.878
48355W        W 9886  25.662  19.702   9.933
48356W        W 9887   1.929   0.756  13.989
48357W        W 9888  17.633  26.028  13.858
48358W        W 9889  13.765  20.123   0.964
48359W        W 9890  30.601  23.602   4.795
48360W        W 9891  28.646  44.291   3.636
48361W        W 9892  34.892  44.426  14.433
48362W        W 9893  11.175  30.512   1.388
48363W        W 9894  33.429  32.550   1.807
48364W        W 9895  14.170  43.942   3.738
48365W        W 9896  20.758   7.300   0.961
48366W        W 9897  21.588  40.330   5.786
48367W        W 9898  25.018  20.254  12.548
48368W        W 9899  32.544  14.774   1.292
48369W        W 9900  14.171  37.874   2.765
48370W        W 9901   1.365  37.345   2.284
48371W        W 9902  34.991  30.512   3.699
48372W        W 9903  17.666  31.946   4.632
48373W        W 9904  36.895  40.860  12.418
48374W        W 9905  21.228  14.131  14.813
48375W        W 9906  24.129  32.931  13.868
48376W        W 9907  40.000  26.618  14.993
48377W        W 9908  38.880  38.002   0.288
48378W        W 9909   0.313  42.976   3.753
48379W        W 9910  11.763   9.320   2.878
48380W        W 9911  16.227  20.571  14.929
48381W        W 9912   3.833   7.734  13.370
48382W        W 9913   1.942  28.094  14.291
48383W        W 9914  33.520  10.756  11.055
48384W        W 9915  30.010  33.492   3.259
48385W        W 9916  41.327  19.568   1.353
48386W        W 9917  12.196  23.134   1.792
48387W        W 9918  41.407  11.335  13.045
48388W        W 9919  39.986  44.882   0.941
48389W        W 9920  37.401  29.988  13.390
48390W        W 9921  12.267  43.345   0.920
48391W        W 9922   7.816  20.102   1.251
48392W        W 9923   4.225   4.450  12.057
48393W        W 9924  37.439  36.967   1.344
48394W        W 9925  24.599  31.430  14.308
48395W        W 9926  32.957  30.610  14.815
48396W        W 9927   3.284  34.448   4.266
48397W        W 9928  14.811   0.386  11.565
48398W        W 9929   6.385  12.700   1.893
48399W        W 9930   2.454  12.837   1.380
48400W        W 9931  19.047  37.858   0.858
48401W        W 9932  22.511  20.698  13.874
48402W        W 9933  24.604  24.723   0.814
48403W        W 9934  17.789   8.384  11.565
48404W        W 9935  35.034  23.623  14.424
48405W        W 9936  23.585  12.192   0.772
48406W        W 9937   3.828  30.451  12.521
48407W        W 9938  40.914  27.028   4.827
48408W        W 9939  21.028  15.205   0.765
48409W        W 9940  44.835  32.982  10.955
48410W        W 9941  18.145   3.798   3.228
48411W        W 9942  38.975  40.946   3.689
48412W        W 9943   5.329   5.220   1.385
48413W        W 9944  33.530  41.995  12.981
48414W        W 9945   3.242  31.562   1.283
48415W        W 9946  22.698  32.615  13.043
48416W        W 9947  15.745  27.030   3.669
48417W        W 9948  36.091   6.345  12.450
48418W        W 9949  31.949   8.844   5.131
48419W        W 9950  16.744  33.918   2.178
48420W        W 9951   3.778  23.241   3.723
48421W        W 9952  23.146   2.255  14.412
48422W        W 9953   6.734  30.965  11.391
48423W        W 9954   2.840  36.537  11.894
48424W        W 9955  42.518  28.080   3.736
48425W        W 9956  20.689  39.525   2.822
48426W        W 9957   1.932  41.844  11.901
48427W        W 9958  34.110  40.992  13.385
48428W        W 9959   1.874  39.051   2.831
48429W        W 9960   6.219  16.626  13.064
48430W        W 9961  17.188  41.958   5.257
48431W        W 9962  19.091  25.214   2.696
48432W        W 9963   4.753   9.689  11.040
48433W        W 9964  40.445  14.297   1.373
48434W        W 9965  16.765  33.013  12.451
48435W        W 9966  29.160  36.071   4.669
48436W        W 9967  36.428  19.689  12.471
48437W        W 9968  29.037  10.311   0.411
48438W        W 9969   8.771  33.958   1.738
48439W        W 9970  24.031  44.326  10.466
48440W        W 9971  37.049  28.167  12.945
48441W        W 9972   2.810  29.603   1.842
48442W        W 9973  10.208   8.822   1.329
48443W        W 9974  20.735   7.833   4.792
48444W        W 9975  41.816  25.535  13.894
48445W        W 9976  22.722  25.666  14.284
48446W        W 9977  22.649  25.144  11.108
48447W        W 9978   0.250   7.784   1.904
48448W        W 9979  31.421  32.423  10.588
48449W        W 9980  13.781   0.953  14.366
48450W        W 9981  21.563  11.640   3.744
48451W        W 9982  13.634  25.967  13.890
48452W        W 9983  15.774  37.086   2.417
48453W        W 9984   6.755  40.049  13.474
48454W        W 9985   0.912   0.855   4.771
48455W        W 9986   4.705  34.078  11.521
48456W        W 9987  15.178  17.135  12.007
48457W        W 9988   0.418  38.502  12.490
48458W        W 9989   9.293  33.552  10.077
48459W        W 9990  21.017  44.275  10.090
48460W        W 9991  38.837  12.130   2.244
48461W        W 9992  18.598  25.064   1.810
48462W        W 9993   0.974  22.531  11.586
48463W        W 9994   9.673  35.941  10.981
48464W        W 9995  13.204  34.577   0.297
48465W        W 9996  12.633   1.905  13.923
48466W        W 9997  16.598   2.405   1.337
48467W        W 9998   5.283  17.651   1.864
48468W        W 9999  18.171  21.555   2.338
48469W        W10000   3.389   9.314   4.243
48470W        W10001  27.667  18.246  10.918
48471W        W10002  12.311  40.410  11.003
48472W        W10003  27.618  31.050  13.857
48473W        W10004  27.460  23.132  13.409
48474W        W10005  14.816  33.554   0.423
48475W        W10006  36.366  12.747  14.409
48476W        W10007  32.545   7.313  10.490
48477W        W10008   1.807  19.071  13.453
48478W        W10009  18.551   3.772   0.815
48479W        W10010  18.262   1.451  11.513
48480W        W10011   3.950   2.756   1.357
48481W        W10012  28.440   2.932   0.814
48482W        W10013  11.808  18.173  10.407
48483W        W10014  21.583  23.128  13.360
48484W        W10015  33.555   4.882   4.127
48485W        W10016  16.655  18.125   4.202
48486W        W10017  26.525  30.164  12.397
48487W        W10018  30.551   8.689   0.298
48488W        W10019  30.089  32.049   3.259
48489W        W10020  12.119  40.379  10.453
48490W        W10021  43.860  11.330   1.295
48491W        W10022   8.727  16.304  13.432
48492W        W10023  23.698  31.901  10.956
48493W        W10024   3.873  25.695   0.966
48494W        W10025  15.812  38.021   1.274
48495W        W10026  41.927  31.104   1.908
48496W        W10027  35.078  31.551  10.430
48497W        W10028   2.776  43.792   4.192
48498W        W10029  17.709  23.515  12.031
48499W        W10030  38.558   0.976  11.021
48500W        W10031  13.665  18.578   2.753
48501W        W10032  34.995  15.645   1.259
48502W        W10033  25.198  16.130   4.204
48503W        W10034  14.718  38.945  12.922
48504W        W10035  22.506  24.087  14.284
48505W        W10036  38.835  43.863  11.965
48506W        W10037  23.706  29.935  11.517
48507W        W10038  29.002  19.697   3.643
48508W        W10039  25.032   9.688  14.973
48509W        W10040   2.403   7.299   0.886
48510W        W10041   9.370  17.064  11.069
48511W        W10042  32.067   9.850  12.010
48512W        W10043   1.890  18.173   0.352
48513W        W10044   6.280  27.011  14.813
48514W        W10045  31.142  37.074   0.312
48515W        W10046  37.439  12.646  13.541
48516W        W10047  30.629   2.742   2.889
48517W        W10048  35.982  10.162   4.150
48518W        W10049   1.364  21.144  14.902
48519W        W10050  19.668  43.425  11.598
48520W        W10051  10.745   5.926  12.580
48521W        W10052  13.145  14.332   9.929
48522W        W10053  28.539  17.196  13.886
48523W        W10054   3.877  44.357  12.824
48524W        W10055  41.493  20.248   3.232
48525W        W10056  11.661  28.670   4.168
48526W        W10057  37.359  31.592   0.745
48527W        W10058  29.017  31.429   1.266
48528W        W10059  15.093  39.372   0.426
48529W        W10060  42.991  32.599   4.827
48530W        W10061  42.500  38.351  12.574
48531W        W10062  27.027  37.527  10.432
48532W        W10063  30.652  12.657  11.869
48533W        W10064   2.740  17.729   4.156
48534W        W10065  21.634  19.177  11.394
48535W        W10066  13.696  18.669   4.185
48536W        W10067  33.511  37.425  10.567
48537W        W10068  11.860  35.377  12.921
48538W        W10069  30.921  11.332   3.314
48539W        W10070  31.501  34.531   1.737
48540W        W10071  32.491  19.153   4.176
48541W        W10072  12.788  39.839   1.441
48542W        W10073  39.032  16.570   2.892
48543W        W10074  14.114  30.131  13.426
48544W        W10075  21.181  42.919   5.182
48545W        W10076  13.659  37.384  10.516
48546W        W10077  10.845  16.250   1.290
48547W        W10078  13.149   4.812  10.451
48548W        W10079   8.676  41.898   0.284
48549W        W10080  31.543  39.033  10.437
48550W        W10081  17.767  34.100   1.839
48551W        W10082  38.953  31.431  11.434
48552W        W10083   7.187  35.393  12.486
48553W        W10084  28.991  41.017  14.326
48554W        W10085  34.879  21.547   1.396
48555W        W10086  33.891  24.706   2.350
48556W        W10087  41.843  34.923  12.920
48557W        W10088   1.386  29.989  11.489
48558W        W10089  21.561  30.923  12.933
48559W        W10090   7.329   0.798  11.403
48560W        W10091  35.919  25.651  13.905
48561W        W10092  26.487  39.400   3.847
48562W        W10093   2.744  30.560   2.843
48563W        W10094  20.680  27.981  13.444
48564W        W10095  36.579  40.860  10.119
48565W        W10096  42.877  21.065   4.169
48566W        W10097   2.777  38.341   4.124
48567W        W10098  18.707  42.396  12.352
48568W        W10099  29.649  31.092  14.972
48569W        W10100   8.685  41.509  10.614
48570W        W10101   7.333  20.567  12.361
48571W        W10102  31.529  36.499  14.341
48572W        W10103  24.632  17.082   4.745
48573W        W10104  15.701   6.855  13.876
48574W        W10105   3.731  14.697  10.489
48575W        W10106  32.901  31.026  14.916
48576W        W10107  39.885  32.126  14.510
48577W        W10108  37.902   2.880   4.757
48578W        W10109   1.827  36.589   3.265
48579W        W10110   8.672  26.131  14.896
48580W        W10111  31.526  24.097   3.774
48581W        W10112  35.916  22.190   3.313
48582W        W10113  23.498  10.310  14.368
48583W        W10114   3.414  37.406  11.018
48584W        W10115  29.499  24.721   3.635
48585W        W10116   0.837  26.535   3.664
48586W        W10117  28.058  36.855   2.221
48587W        W10118  10.263  12.260  11.998
48588W        W10119  14.145  35.504  11.591
48589W        W10120  27.685  42.781  12.833
48590W        W10121  23.241   8.256   2.841
48591W        W10122  14.121  29.474  12.927
48592W        W10123  26.697  11.673  14.318
48593W        W10124  13.144  20.550  13.809
48594W        W10125  39.511   4.897  10.559
48595W        W10126  27.483  13.317  13.454
48596W        W10127  29.083  43.907  13.451
48597W        W10128   1.291   7.325   4.224
48598W        W10129  34.554  31.901  10.939
48599W        W10130  27.940   1.862   0.377
48600W        W10131  32.079  27.561   2.331
48601W        W10132  42.401   4.400   1.391
48602W        W10133  37.901   3.897  14.446
48603W        W10134  21.191  21.718   4.148
48604W        W10135   8.767  18.251  12.081
48605W        W10136  29.998   1.733  10.487
48606W        W10137   1.372  36.851   0.311
48607W        W10138  40.050   8.666  14.936
48608W        W10139  35.507  14.294  13.845
48609W        W10140  38.353  38.405  10.000
48610W        W10141  30.434  34.443   4.298
48611W        W10142  20.643  42.965   5.177
48612W        W10143  38.895   2.886   0.749
48613W        W10144  20.599   5.342  11.911
48614W        W10145  24.153  23.712   4.597
48615W        W10146   4.257  43.890   0.417
48616W        W10147  30.427  12.259  14.952
48617W        W10148  17.565   3.273  12.378
48618W        W10149  29.621   3.271   0.323
48619W        W10150  19.710  13.236   2.891
48620W        W10151  36.867   7.264   4.223
48621W        W10152  23.071  29.091   3.196
48622W        W10153  30.629  38.434  14.894
48623W        W10154  16.316  42.018  13.333
48624W        W10155  41.794  31.571   3.705
48625W        W10156  10.194  40.945   0.800
48626W        W10157  12.267  37.571   2.859
48627W        W10158   9.265   9.195  11.486
48628W        W10159   9.723  32.428   4.251
48629W        W10160  12.211  38.859   0.891
48630W        W10161  15.657  19.681   2.831
48631W        W10162  12.222  39.884   2.382
48632W        W10163  41.502  41.894  11.099
48633W        W10164  37.913  22.712  13.007
48634W        W10165  36.904   4.356  14.826
48635W        W10166  14.780   2.942  10.600
48636W        W10167  40.941  33.565   1.901
48637W        W10168  30.931  14.251   2.209
48638W        W10169  18.126  14.231  11.413
48639W        W10170  26.049  17.191  12.547
48640W        W10171  14.259  23.507   2.688
48641W        W10172   6.231  24.221  13.383
48642W        W10173  24.034   9.260  13.490
48643W        W10174  27.025  12.683  14.460
48644W        W10175  11.698  14.635  12.085
48645W        W10176  13.122  22.679   2.388
48646W        W10177  35.457  19.593  12.902
48647W        W10178  38.848  40.800   0.772
48648W        W10179  22.174  28.643  11.061
48649W        W10180  28.473   0.315  14.853
48650W        W10181   6.820  35.477  13.533
48651W        W10182  22.039  23.017   0.365
48652W        W10183  40.368  36.889  12.074
48653W        W10184  30.993  29.066   2.245
48654W        W10185  19.705  13.668   4.819
48655W        W10186  12.221  15.202   0.299
48656W        W10187  26.009   8.270  10.891
48657W        W10188  15.317  22.200  12.447
48658W        W10189   7.263  32.555  12.486
48659W        W10190  43.291  38.492  14.870
48660W        W10191   7.809  30.562  14.433
48661W        W10192  30.566  21.155   3.360
48662W        W10193   1.935  16.695  14.401
48663W        W10194  14.176  39.560   1.439
48664W        W10195  34.970  38.929  13.500
48665W        W10196  40.906  17.698   2.389
48666W        W10197  31.940  30.600   4.727
48667W        W10198   8.884  36.896  12.835
48668W        W10199  36.985  29.034   2.887
48669W        W10200  15.226   7.855   2.897
48670W        W10201  10.876  34.032  10.538
48671W        W10202  25.023  32.480   2.397
48672W        W10203  35.897  27.543   3.832
48673W        W10204  25.619  21.060  12.022
48674W        W10205  31.615   2.281   4.319
48675W        W10206  14.205   3.810   0.479
48676W        W10207  19.641  21.088   9.945
48677W        W10208   6.264  34.403   4.828
48678W        W10209  11.845  37.371   2.311
48679W        W10210   3.227  30.476   4.707
48680W        W10211   9.220   1.304   3.193
48681W        W10212   1.790  11.800   4.269
48682W        W10213  25.510  24.022   3.699
48683W        W10214   3.458  15.122  12.428
48684W        W10215  41.021  33.996   2.373
48685W        W10216  19.163   6.351   1.784
48686W        W10217  41.482   0.460  14.837
48687W        W10218  20.731  11.647  13.842
48688W        W10219  33.890  16.673   4.226
48689W        W10220  37.849  43.383   4.810
48690W        W10221   0.911   6.205  12.935
48691W        W10222  43.943  40.863   3.189
48692W        W10223   6.198  14.191  14.899
48693W        W10224  11.291  44.953   0.903
48694W        W10225  32.965  12.341   0.250
48695W        W10226   7.708  36.086   1.873
48696W        W10227  33.080  27.175  12.965
48697W        W10228   4.743   1.279   2.226
48698W        W10229  10.674  12.232  14.410
48699W        W10230  36.976  38.947   0.741
48700W        W10231   9.154  16.770  12.993
48701W        W10232   4.831  40.822   0.812
48702W        W10233  16.283  38.430   4.754
48703W        W10234   0.984  11.184  14.450
48704W        W10235   1.940  10.255  11.912
48705W        W10236  12.272  19.085  13.834
48706W        W10237  12.343   8.723   3.361
48707W        W10238  30.054  42.850  10.536
48708W        W10239   9.784  27.488   0.326
48709W        W10240  23.083  30.532  13.346
48710W        W10241  23.589  10.765  12.958
48711W        W10242  25.031  43.782  12.007
48712W        W10243  17.073   4.226   1.802
48713W        W10244  19.676   6.349   2.309
48714W        W10245  31.989   4.810  13.352
48715W        W10246  44.378  35.374   1.276
48716W        W10247   3.736   7.744   3.689
48717W        W10248  24.615   3.383   0.802
48718W        W10249  36.502  35.425  12.843
48719W        W10250  34.073  20.553  12.018
48720W        W10251  28.097  39.521   3.369
48721W        W10252   9.840   4.902   0.869
48722W        W10253  14.799  39.890  14.408
48723W        W10254  15.156   5.431  10.996
48724W        W10255  44.766  21.693  14.423
48725W        W10256  16.093  36.444   4.153
48726W        W10257  31.596  37.348   2.318
48727W        W10258  22.644  21.215   0.898
48728W        W10259   3.743  26.138  14.939
48729W        W10260  19.720  26.988  12.091
48730W        W10261  30.478  40.972   4.175
48731W        W10262  37.458   1.335  11.031
48732W        W10263   4.814  41.017  11.603
48733W        W10264   9.233  36.886   0.743
48734W        W10265  22.219  24.517   4.297
48735W        W10266  29.486  27.599   1.408
48736W        W10267  21.061  38.935   4.247
48737W        W10268  28.036  10.830  11.980
48738W        W10269  37.066   5.816  11.050
48739W        W10270   7.910  21.060   4.762
48740W        W10271  36.848  22.508  10.415
48741W        W10272  32.984  37.530  11.509
48742W        W10273  36.378  23.150   0.890
48743W        W10274  36.559  11.693  14.458
48744W        W10275   5.866  39.861   0.281
48745W        W10276  26.669  15.742  14.355
48746W        W10277   6.329   0.806  14.776
48747W        W10278  41.955  25.551   2.209
48748W        W10279  41.421   7.850   1.903
48749W        W10280  19.721   5.200  14.936
48750W        W10281  34.485  19.584   0.428
48751W        W10282  15.092  10.698   3.722
48752W        W10283  10.333  22.653   1.352
48753W        W10284  16.790  41.830  11.098
48754W        W10285  27.669  31.114  11.410
48755W        W10286  22.114  24.209   3.807
48756W        W10287  40.487  43.786   4.262
48757W        W10288  38.076  16.682   1.916
48758W        W10289  36.431  20.538   0.311
48759W        W10290   1.914  26.956  11.609
48760W        W10291  34.964  44.280   1.897
48761W        W10292   2.412   9.394  13.802
48762W        W10293  32.099  42.311   4.788
48763W        W10294  14.714  23.115  11.407
48764W        W10295  18.236   7.389  13.831
48765W        W10296   9.707   3.780  10.008
48766W        W10297  30.986   7.676  13.836
48767W        W10298  43.015  41.308   1.310
48768W        W10299   6.307  42.428  12.358
48769W        W10300  32.898  41.957   3.294
48770W        W10301  41.853   9.713   4.254
48771W        W10302   6.771  12.239  12.963
48772W        W10303  13.735  40.549  10.634
48773W        W10304  32.087   6.816   3.348
48774W        W10305  42.456  24.211   0.420
48775W        W10306  44.796  17.667  14.019
48776W        W10307  15.644  26.063   4.673
48777W        W10308   5.361  26.039   4.708
48778W        W10309   9.691  34.499  10.504
48779W        W10310  40.395  31.518   2.818
48780W        W10311  31.449  22.033  14.451
48781W        W10312  39.057  39.909   1.811
48782W        W10313  38.427   6.773   0.422
48783W        W10314  32.001  41.920  10.569
48784W        W10315  23.206  19.738   0.886
48785W        W10316  23.696  32.553  14.785
48786W        W10317   6.877  31.931  13.460
48787W        W10318  44.993  22.608  14.932
48788W        W10319   7.358  37.456   2.252
48789W        W10320  25.219   3.249  14.022
48790W        W10321  16.758   3.277   3.235
48791W        W10322   5.802   4.809  14.812
48792W        W10323   9.217  13.799   1.301
48793W        W10324  43.932   6.922  13.353
48794W        W10325  23.105  10.151  13.041
48795W        W10326  30.518  32.953  10.595
48796W        W10327  24.034  34.010  12.534
48797W        W10328   1.800  11.685   4.667
48798W        W10329  42.311   5.901  14.900
48799W        W10330  21.707  25.988   0.856
48800W        W10331  25.632  37.450  10.480
48801W        W10332   0.904  19.285   0.850
48802W        W10333  12.295  19.740   2.256
48803W        W10334  27.011  43.303  12.402
48804W        W10335  28.639  33.457  13.019
48805W        W10336  19.546   0.749   4.266
48806W        W10337  30.952   6.733  12.887
48807W        W10338  17.642  24.682   1.297
48808W        W10339  28.057  28.463   0.255
48809W        W10340  37.999  27.943   3.256
48810W        W10341  38.447  28.611  13.034
48811W        W10342  16.317  17.567   3.349
48812W        W10343  34.515  16.701  14.838
48813W        W10344  21.732  20.076   3.367
48814W        W10345  35.382  23.137   1.904
48815W        W10346  16.615   7.866  11.568
48816W        W10347  32.952  28.486  10.478
48817W        W10348  38.499  18.689  14.784
48818W        W10349  16.793  22.616   3.147
48819W        W10350   3.391  37.923  14.935
48820W        W10351  27.141   8.715  12.877
48821W        W10352   6.839  42.460   0.879
48822W        W10353  17.744  17.226  13.483
48823W        W10354  26.206   6.359  13.885
48824W        W10355  15.160  39.902  14.832
48825W        W10356   1.907  28.486  12.918
48826W        W10357  41.927  18.573   2.796
48827W        W10358  17.114  14.322  14.965
48828W        W10359   4.802  40.921  14.311
48829W        W10360  25.531   9.841   1.382
48830W        W10361  42.808  25.135   1.396
48831W        W10362  38.435  42.805   3.727
48832W        W10363   2.317   5.932   3.854
48833W        W10364  23.556  36.472  11.440
48834W        W10365  34.935  11.154   4.322
48835W        W10366  34.556   2.228  11.431
48836W        W10367  39.476  20.595  10.994
48837W        W10368  33.986  29.077   2.190
48838W        W10369  34.533   4.354  14.840
48839W        W10370  23.016   6.892  13.375
48840W        W10371   4.934   5.316   1.296
48841W        W10372  36.411  37.433   3.777
48842W        W10373  27.960   0.988   4.289
48843W        W10374  35.954  34.961  11.473
48844W        W10375   0.861  32.469   0.468
48845W        W10376  20.054  38.377  12.492
48846W        W10377  41.406   3.380   0.873
48847W        W10378  32.996  42.449  13.942
48848W        W10379  26.183   3.881  12.568
48849W        W10380  22.588  26.612  10.069
48850W        W10381   9.262  24.226  12.458
48851W        W10382  42.466  36.841   4.765
48852W        W10383  15.105  11.856  10.911
48853W        W10384  20.124  23.679   0.439
48854W        W10385   4.208  30.060  11.496
48855W        W10386  10.236  16.250  10.410
48856W        W10387  24.201  41.383   2.882
48857W        W10388  28.135  43.297   1.865
48858W        W10389   4.356  13.209   3.782
48859W        W10390  35.949  33.913   0.284
48860W        W10391  20.126   0.465   3.763
48861W        W10392   2.319   2.741   1.388
48862W        W10393   2.873  29.161  14.825
48863W        W10394  44.889  29.970   4.786
48864W        W10395  18.161  16.072  11.579
48865W        W10396  39.061  23.541  13.015
48866W        W10397  13.650   2.254   1.410
48867W        W10398  20.090  25.688   1.868
48868W        W10399  30.051  19.177   2.843
48869W        W10400  42.881  12.290  11.883
48870W        W10401  13.694  18.598   3.715
48871W        W10402  31.029  12.303   2.801
48872W        W10403  42.420  19.612   1.211
48873W        W10404   2.470  43.406   1.903
48874W        W10405  38.347   4.856  12.882
48875W        W10406   2.860   6.255  13.968
48876W        W10407  28.506  15.789   3.823
48877W        W10408  30.588  40.429  13.956
48878W        W10409   2.411  34.868   0.466
48879W        W10410  10.279  44.866  14.978
48880W        W10411  11.357   3.888  14.872
48881W        W10412  17.262  13.224  12.996
48882W        W10413  18.620  42.466  13.503
48883W        W10414  40.356  20.098   1.329
48884W        W10415  28.023  15.117   3.865
48885W        W10416   8.798  24.581   1.763
48886W        W10417   9.259   6.815  10.897
48887W        W10418   1.354   9.657   4.624
48888W        W10419  42.410  43.789  12.479
48889W        W10420  13.174  28.460   4.658
48890W        W10421  25.594  10.325  14.998
48891W        W10422   8.175  21.559   2.394
48892W        W10423  22.586  25.007  10.112
48893W        W10424  29.990   5.925  13.910
48894W        W10425  40.020  32.580   0.931
48895W        W10426  35.091  27.631   3.794
48896W        W10427  10.733  30.131  13.808
48897W        W10428  34.903  26.979  11.948
48898W        W10429   4.759   2.766  10.471
48899W        W10430  38.950  32.039   0.931
48900W        W10431   2.404  38.032  13.360
48901W        W10432  28.517   0.867   0.743
48902W        W10433  43.409  15.319  13.906
48903W        W10434  13.288   0.464   3.837
48904W        W10435   2.248  16.805  12.998
48905W        W10436  24.487  33.553  14.859
48906W        W10437  26.605  30.043   5.798
48907W        W10438  21.585  18.050   3.332
48908W        W10439  38.390  17.150  14.412
48909W        W10440   1.820  21.587  14.332
48910W        W10441  44.871  15.749   0.449
48911W        W10442  43.380  41.513  12.959
48912W        W10443   2.421  43.347  13.985
48913W        W10444  42.280  38.375  11.531
48914W        W10445  37.440  35.950   3.708
48915W        W10446  11.128  12.819   1.851
48916W        W10447  12.780  19.214  14.389
48917W        W10448  42.031  18.150   0.333
48918W        W10449  18.285  32.013   1.757
48919W        W10450  37.914  10.289  12.362
48920W        W10451  27.515   4.422  10.443
48921W        W10452  29.033   5.922   0.825
48922W        W10453  41.038   0.343  10.544
48923W        W10454   1.884   0.880   1.708
48924W        W10455   0.414  29.092  14.313
48925W        W10456  44.462  42.781   3.790
48926W        W10457  31.045  27.147  13.450
48927W        W10458  30.011  31.564   3.343
48928W        W10459  41.902  28.570  11.555
48929W        W10460  39.390  40.955   0.242
48930W        W10461   9.773  28.015   1.405
48931W        W10462  39.522  12.151   0.945
48932W        W10463  43.469  42.880   5.113
48933W        W10464  14.158   9.876   1.271
48934W        W10465  35.911   3.852   3.781
48935W        W10466  38.932  26.575   4.717
48936W        W10467  34.419   3.364  14.279
48937W        W10468  33.551  43.986   3.217
48938W        W10469  43.327  26.530  13.024
48939W        W10470  40.318  42.451   2.322
48940W        W10471   0.961  40.331   3.295
48941W        W10472  17.250  44.480   3.864
48942W        W10473   1.262  20.745  11.379
48943W        W10474  18.660  20.038   4.260
48944W        W10475  26.125  10.278   1.766
48945W        W10476  14.788   6.864  14.441
48946W        W10477  22.655  31.901   0.421
48947W        W10478  20.080  11.353  13.316
48948W        W10479  16.720  25.514   3.654
48949W        W10480  24.576  14.117  12.572
48950W        W10481  32.429  28.934  11.432
48951W        W10482  14.660   1.951  14.453
48952W        W10483  33.888  38.834  12.869
48953W        W10484   7.870   3.266  10.411
48954W        W10485   3.867   1.265   1.921
48955W        W10486  44.934  19.695  14.969
48956W        W10487  27.676  29.484  12.375
48957W        W10488  36.391  38.037   0.347
48958W        W10489  24.601  36.002  14.803
48959W        W10490  16.635   2.233   2.733
48960W        W10491  36.367  17.090  13.794
48961W        W10492  44.461  24.510  12.060
48962W        W10493  13.347   6.272  13.057
48963W        W10494  32.076  28.457  13.973
48964W        W10495  14.741   3.865  10.546
48965W        W10496   2.798  12.223  11.483
48966W        W10497   9.264   8.167  13.964
48967W        W10498   7.404  14.647  13.832
48968W        W10499  12.357   3.258   0.927
48969W        W10500  15.098  25.690  14.863
48970W        W10501   4.726  44.466  10.111
48971W        W10502  24.996  27.971  10.895
48972W        W10503  14.218  26.645   0.310
48973W        W10504   9.355  23.155   4.200
48974W        W10505  19.274  35.057   1.218
48975W        W10506  29.936  34.008  14.835
48976W        W10507  21.096  35.482   2.280
48977W        W10508   8.282  32.019  13.332
48978W        W10509  20.117  12.217  10.990
48979W        W10510  29.595   2.385  11.466
48980W        W10511  38.487   4.812  12.073
48981W        W10512   8.792   7.860  12.550
48982W        W10513   8.254  30.140  12.849
48983W        W10514  35.051  40.319  13.490
48984W        W10515  43.860  38.923  13.994
48985W        W10516  34.946  25.978   3.358
48986W        W10517  13.203  43.293  13.544
48987W        W10518  12.697  19.108  10.914
48988W        W10519  34.582  14.124   0.747
48989W        W10520  11.254  38.876  12.486
48990W        W10521  14.766  24.086   4.726
48991W        W10522  22.644  38.879  13.043
48992W        W10523  15.299  18.745  14.287
48993W        W10524   8.756  43.405  11.921
48994W        W10525  25.666  28.454  14.406
48995W        W10526  14.243  33.580  12.363
48996W        W10527  43.968   6.288   2.672
48997W        W10528  16.622  28.076  12.557
48998W        W10529  28.120   3.767  14.403
48999W        W10530  26.563   4.381   0.871
49000W        W10531  12.804  20.597  14.022
49001W        W10532  11.774  28.124   1.376
49002W        W10533   1.782   4.880   3.692
49003W        W10534  34.567  22.575   0.961
49004W        W10535  25.654  12.250   1.419
49005W        W10536  15.753  28.043  12.900
49006W        W10537  22.686   9.874   4.828
49007W        W10538   8.303  34.879   1.915
49008W        W10539  20.089  26.088   3.300
49009W        W10540  19.270   8.296   1.732
49010W        W10541  35.516  39.451  10.921
49011W        W10542   8.385  44.357   1.389
49012W        W10543   8.839  14.666  12.500
49013W        W10544  34.574  40.310  13.989
49014W        W10545  26.196   3.801  14.848
49015W        W10546  31.116  34.609  11.461
49016W        W10547  44.988  27.481  12.444
49017W        W10548  44.927  34.960  11.894
49018W        W10549  24.505   2.260  13.863
49019W        W10550  11.209  19.143  14.504
49020W        W10551  30.094  36.526  13.513
49021W        W10552  20.037   5.269  11.125
49022W        W10553  31.084  44.985  14.825
49023W        W10554  38.891   0.366  10.477
49024W        W10555  42.777  15.174   1.898
49025W        W10556  39.410  39.033   4.349
49026W        W10557   2.893  14.749  11.612
49027W        W10558  25.573  43.848  14.370
49028W        W10559   9.675  41.790  14.381
49029W        W10560  25.685  40.961   1.699
49030W        W10561  44.941  31.905   0.290
49031W        W10562  18.271  39.817   4.295
49032W        W10563  28.989  32.024   2.682
49033W        W10564  17.620   8.249  14.910
49034W        W10565  38.377  11.272  11.124
49035W        W10566  29.534   7.889  13.007
49036W        W10567  43.351  17.661  13.347
49037W        W10568  23.530  39.315  13.323
49038W        W10569  40.842  40.404   3.211
49039W        W10570  13.768   4.252  14.932
49040W        W10571  42.006  21.585   0.764
49041W        W10572  18.549  16.229  12.488
49042W        W10573  21.714  27.553   3.260
49043W        W10574   6.219  26.033  11.875
49044W        W10575  29.946   5.715   3.747
49045W        W10576  18.730  17.191   2.369
49046W        W10577  19.607  37.517   2.815
49047W        W10578  13.691  39.335   2.218
49048W        W10579  36.540  37.476   2.240
49049W        W10580  22.533   4.784  13.402
49050W        W10581   2.299  30.525   2.362
49051W        W10582  10.147   7.343   2.403
49052W        W10583  11.169  19.246  12.888
49053W        W10584   0.799  28.656  12.838
49054W        W10585   7.908  28.117   3.263
49055W        W10586  24.186  35.403  11.382
49056W        W10587  21.115   8.701  14.990
49057W        W10588  17.588  40.974   4.225
49058W        W10589   8.343  43.297  14.030
49059W        W10590  18.747  21.689   4.120
49060W        W10591   1.279   1.962   4.226
49061W        W10592  36.888   6.350   4.690
49062W        W10593  16.711   7.891  14.957
49063W        W10594  10.876   0.874  13.943
49064W        W10595  43.311  28.474   4.245
49065W        W10596  25.203   4.921   0.916
49066W        W10597  14.157  14.299  13.418
49067W        W10598  36.534  25.609  14.512
49068W        W10599  36.873   7.238  13.312
49069W        W10600  12.288  40.810   2.763
49070W        W10601  42.474  14.159   4.247
49071W        W10602  32.503   6.868  12.460
49072W        W10603   4.873   4.252   0.481
49073W        W10604   8.825  25.565  11.090
49074W        W10605  42.809  17.267  10.992
49075W        W10606   4.284  14.823   1.357
49076W        W10607   1.953  20.636   2.720
49077W        W10608  39.860  19.204  13.314
49078W        W10609  37.894  33.973  13.366
49079W        W10610  34.030  35.961   4.286
49080W        W10611  12.210  13.263  13.015
49081W        W10612  34.106   2.267   4.352
49082W        W10613   2.851  15.798   1.444
49083W        W10614   8.655  16.111  11.508
49084W        W10615  15.176  38.022  14.470
49085W        W10616  37.878   7.719  14.951
49086W        W10617  36.992  18.198   4.607
49087W        W10618  27.590  33.083  10.441
49088W        W10619   0.272  29.482   4.621
49089W        W10620  33.572  42.023   0.290
49090W        W10621  17.179  29.044   0.365
49091W        W10622  21.220  41.874  14.935
49092W        W10623  34.918  38.027   4.288
49093W        W10624  38.509  13.625  14.459
49094W        W10625   2.410  38.951  11.945
49095W        W10626  13.142  41.973  14.004
49096W        W10627  35.915  44.999  13.885
49097W        W10628  35.424  24.662  11.578
49098W        W10629  15.601   7.680  14.759
49099W        W10630  13.266  29.998   4.784
49100W        W10631   1.796   8.329  12.085
49101W        W10632  29.578  33.039  12.363
49102W        W10633  30.556  40.856   0.937
49103W        W10634  20.054   9.223   1.311
49104W        W10635  25.028  29.440  12.992
49105W        W10636   3.787  19.170   2.702
49106W        W10637  29.940  12.778  13.544
49107W        W10638   1.358  32.134  13.905
49108W        W10639  44.823  16.654   3.331
49109W        W10640  36.360   8.362  11.539
49110W        W10641   9.187   1.883  12.357
49111W        W10642   0.370  39.330   3.358
49112W        W10643  44.781   5.358   2.759
49113W        W10644  36.847   4.785  11.467
49114W        W10645  25.587  15.592   0.393
49115W        W10646  38.455   8.242  11.032
49116W        W10647  40.946  15.180  11.058
49117W        W10648  40.386  35.041  14.833
49118W        W10649   2.310  23.145  12.531
49119W        W10650   3.355  27.486   1.821
49120W        W10651   7.720  10.140   1.864
49121W        W10652  20.225   7.845   0.958
49122W        W10653   0.893  19.742  10.972
49123W        W10654  40.826   5.224  10.521
49124W        W10655   1.300   2.453  13.366
49125W        W10656  26.014  27.195   0.858
49126W        W10657  20.657  37.361   1.392
49127W        W10658  20.629  33.012   3.343
49128W        W10659   8.684  43.972   2.227
49129W        W10660  36.352  36.971   0.964
49130W        W10661  34.416  10.857   4.153
49131W        W10662  24.502  23.027   0.854
49132W        W10663  10.334  30.641   2.245
49133W        W10664  26.029  16.262  14.406
49134W        W10665  44.837   7.751  13.938
49135W        W10666  22.186  12.264   4.620
49136W        W10667   9.380  42.494  12.555
49137W        W10668  41.477  28.051  14.289
49138W        W10669  25.610  14.140  11.867
49139W        W10670  35.385  28.037   4.122
49140W        W10671   5.803  27.488   0.409
49141W        W10672  37.580  38.046   1.909
49142W        W10673  39.547  12.683   4.659
49143W        W10674  33.890   8.684   1.389
49144W        W10675  35.442  14.826   1.296
49145W        W10676  35.460   2.379  13.353
49146W        W10677  15.294  10.853  12.512
49147W        W10678  17.758  39.007   3.164
49148W        W10679  22.656  27.082  14.776
49149W        W10680  11.776  15.216  13.351
49150W        W10681  14.341  37.033  13.922
49151W        W10682  26.591  36.482   2.801
49152W        W10683  32.036   3.439   3.168
49153W        W10684   9.213  23.241   2.388
49154W        W10685  35.579  11.693   3.175
49155W        W10686  19.558  32.081  11.545
49156W        W10687  27.553  14.651   0.853
49157W        W10688  40.867  25.472  12.911
49158W        W10689  18.260  38.895  12.373
49159W        W10690  25.702  42.827  14.506
49160W        W10691  25.971  29.578  10.996
49161W        W10692  13.804  38.464   4.738
49162W        W10693   0.908  20.632   2.866
49163W        W10694  22.073  16.590  13.832
49164W        W10695   5.744  25.031   5.113
49165W        W10696  16.708  21.648  14.025
49166W        W10697  24.116   8.354  10.460
49167W        W10698  20.698  31.595   1.349
49168W        W10699  34.534  19.670   1.733
49169W        W10700  21.030  38.056  12.010
49170W        W10701  12.287   4.425   3.788
49171W        W10702  42.802  15.687  12.347
49172W        W10703   1.381  11.812   1.785
49173W        W10704   9.839  15.188   4.346
49174W        W10705  17.671  11.714   2.895
49175W        W10706  19.753  41.828   0.747
49176W        W10707  34.405  21.708  13.959
49177W        W10708  25.192  28.566  11.460
49178W        W10709  21.086  25.606   1.237
49179W        W10710   8.245  31.045  14.492
49180W        W10711   7.281   7.252   0.451
49181W        W10712  20.567  37.567  11.590
49182W        W10713  23.614  37.423  12.465
49183W        W10714   6.822  32.554   4.223
49184W        W10715   0.751  10.727   2.681
49185W        W10716   8.371  18.654   1.354
49186W        W10717  21.650  13.142  12.471
49187W        W10718  21.556  22.105  12.471
49188W        W10719  35.855  21.155   1.373
49189W        W10720  23.083  37.528  11.946
49190W        W10721  39.892   3.897   4.712
49191W        W10722   5.920  40.507   0.898
49192W        W10723  25.643  44.950   1.735
49193W        W10724  44.884   4.860  10.925
49194W        W10725  24.153   2.926   1.269
49195W        W10726  24.547  24.570  12.541
49196W        W10727  29.595  32.894  13.414
49197W        W10728   3.425   6.405  14.956
49198W        W10729  33.389  12.715  11.079
49199W        W10730  31.447  10.197  11.594
49200W        W10731  26.135  21.085   1.380
49201W        W10732  34.589  43.876   4.313
49202W        W10733  32.135  23.158  11.966
49203W        W10734   3.308   8.226  11.452
49204W        W10735  21.157  13.178   4.349
49205W        W10736  37.573  18.053  13.481
49206W        W10737  39.853   5.412   0.782
49207W        W10738  37.965  32.458  10.482
49208W        W10739  26.044  11.235  13.988
49209W        W10740  28.640  10.766   5.210
49210W        W10741  28.058  16.282  13.792
49211W        W10742  21.224  10.649   4.654
49212W        W10743  18.780  18.748   4.614
49213W        W10744   9.310  43.516   4.813
49214W        W10745  17.189  39.465  11.072
49215W        W10746  15.156  42.514   2.346
49216W        W10747  14.764  42.912   4.244
49217W        W10748  36.041  24.146   2.196
49218W        W10749  29.474  10.688   0.288
49219W        W10750  10.288  26.502   3.711
49220W        W10751  34.527  31.459  12.073
49221W        W10752   7.229  11.305  11.117
49222W        W10753  30.482  41.433   4.677
49223W        W10754  36.013  42.281   3.644
49224W        W10755  40.445  16.170  10.427
49225W        W10756  16.580  31.616   0.826
49226W        W10757  13.186  14.767  12.032
49227W        W10758   5.373  23.034   2.768
49228W        W10759   9.291  38.329  12.041
49229W        W10760  31.917  12.117   2.407
49230W        W10761   4.216  36.012  14.397
49231W        W10762  11.767  19.208   4.654
49232W        W10763  31.617  20.092  10.890
49233W        W10764  34.994   6.352  10.626
49234W        W10765  16.689  31.901   1.780
49235W        W10766  30.957  32.977   1.856
49236W        W10767  26.701  40.475  12.472
49237W        W10768  31.450  34.591  12.529
49238W        W10769  35.581   0.282  13.001
49239W        W10770  17.183   4.295  10.637
49240W        W10771  11.262   7.339   3.273
49241W        W10772  38.965  10.341   2.242
49242W        W10773  16.620  23.624   1.886
49243W        W10774  21.030  38.461   2.238
49244W        W10775  39.332  24.504  11.882
49245W        W10776  24.649   7.275  12.491
49246W        W10777  17.783  23.544   1.425
49247W        W10778  43.312  44.943  12.826
49248W        W10779   4.860  19.286   1.417
49249W        W10780  38.569  35.029   0.916
49250W        W10781  37.053  14.289   1.883
49251W        W10782  38.422  20.628  11.375
49252W        W10783  12.148  14.765   3.642
49253W        W10784  14.737  40.048  12.445
49254W        W10785  19.137  13.820  12.031
49255W        W10786  17.707  36.429  12.935
49256W        W10787  17.659   5.890  12.005
49257W        W10788  30.064  22.035  11.931
49258W        W10789  30.142  39.838   4.651
49259W        W10790   0.390  14.764   0.797
49260W        W10791  31.912  25.646   2.882
49261W        W10792  19.226  27.180   0.463
49262W        W10793  30.514   9.165   3.680
49263W        W10794   6.813  42.015  13.534
49264W        W10795  13.254  24.226   3.191
49265W        W10796   1.367  41.387   1.750
49266W        W10797   7.411   1.891  10.523
49267W        W10798  36.047   1.390   3.387
49268W        W10799  44.442  33.096   3.689
49269W        W10800  26.561   0.333  12.839
49270W        W10801  12.187   5.408  11.980
49271W        W10802   3.327  28.980   3.693
49272W        W10803  15.769  24.646  14.477
49273W        W10804  22.204  39.432  11.470
49274W        W10805  19.637  37.515   0.764
49275W        W10806   0.945  40.994   3.756
49276W        W10807  11.794  36.367  13.928
49277W        W10808  33.533   4.231  13.536
49278W        W10809   7.237  19.051  12.500
49279W        W10810  31.930  38.850   3.361
49280W        W10811  25.048   1.280   4.816
49281W        W10812  28.103  31.402   2.771
49282W        W10813  15.186  19.235  10.423
49283W        W10814  34.046  26.979  13.493
49284W        W10815  31.907  26.026  13.014
49285W        W10816   0.885  39.497  14.949
49286W        W10817   9.887  40.872   1.775
49287W        W10818  31.982  36.365  14.500
49288W        W10819   6.309  41.412   1.817
49289W        W10820   1.820  40.499  12.881
49290W        W10821  12.762   9.760   4.340
49291W        W10822  44.932  34.040  11.976
49292W        W10823   8.691  39.455   2.836
49293W        W10824  38.047  35.567  12.042
49294W        W10825  17.097   7.266  13.032
49295W        W10826  14.804  14.306  14.874
49296W        W10827  25.104  29.067   2.748
49297W        W10828  14.591  35.950  10.517
49298W        W10829   1.404  20.252  11.508
49299W        W10830  44.272  34.908  14.466
49300W        W10831  38.021  35.414   2.358
49301W        W10832  20.693  24.522  10.489
49302W        W10833   2.925  38.000  14.378
49303W        W10834  34.013  17.248   4.316
49304W        W10835  11.748   6.805   0.373
49305W        W10836  42.804   3.796   0.470
49306W        W10837  42.870  44.845   3.267
49307W        W10838  31.647  44.861  11.114
49308W        W10839  10.830  21.239  12.431
49309W        W10840  36.581  30.040   3.363
49310W        W10841  36.976  40.820  14.962
49311W        W10842  27.544  13.206   2.669
49312W        W10843  17.142  43.816  14.387
49313W        W10844  41.532  21.657   1.368
49314W        W10845  24.581  29.583   0.263
49315W        W10846  28.012   3.228   1.359
49316W        W10847   5.765  39.849   3.723
49317W        W10848  17.683  26.568  10.579
49318W        W10849  28.961   0.426   1.391
49319W        W10850   5.340   8.346  11.433
49320W        W10851  25.138  32.523  12.044
49321W        W10852  18.554   6.917   0.816
49322W        W10853   2.245  29.531  10.441
49323W        W10854  16.568  18.279   3.847
49324W        W10855  18.271  24.700  10.535
49325W        W10856  44.901  36.911   0.439
49326W        W10857  19.052   5.927  13.441
49327W        W10858  34.023   5.311  13.518
49328W        W10859  29.540  11.210  11.545
49329W        W10860  41.372  17.289   0.830
49330W        W10861  28.980  40.355  12.406
49331W        W10862   7.192  37.443   1.769
49332W        W10863  19.273  42.453  13.431
49333W        W10864  34.970   7.316   9.920
49334W        W10865  36.358   6.255  14.776
49335W        W10866  22.681  15.613  13.316
49336W        W10867  14.222  44.369  14.411
49337W        W10868  30.549  43.385  11.581
49338W        W10869  43.938  19.244  12.389
49339W        W10870   5.335  29.484   0.407
49340W        W10871   0.967  42.931   2.792
49341W        W10872  16.193  37.001   0.802
49342W        W10873  22.710  39.911  12.465
49343W        W10874  33.917  30.982  13.901
49344W        W10875  21.736  10.150  10.522
49345W        W10876  32.127  14.779  11.913
49346W        W10877  24.996   0.345   2.378
49347W        W10878  28.474   5.694  10.072
49348W        W10879  14.822  26.205   9.456
49349W        W10880  20.568  44.921   3.361
49350W        W10881  18.665   5.751   0.942
49351W        W10882   0.909  44.351  14.366
49352W        W10883   2.888  35.906   4.137
49353W        W10884  25.626  14.182   3.835
49354W        W10885  11.259  16.268  11.895
49355W        W10886  13.329   1.284  12.485
49356W        W10887   9.193  14.713   4.600
49357W        W10888  18.569  14.674  12.533
49358W        W10889   4.376  15.115   3.165
49359W        W10890  36.518  12.817  13.867
49360W        W10891  32.425  13.657   0.322
49361W        W10892  44.853  30.001   3.816
49362W        W10893  21.150  36.971   4.710
49363W        W10894  34.943  19.587  14.914
49364W        W10895   9.691  33.560   3.870
49365W        W10896  22.028  18.654  11.452
49366W        W10897  35.058  28.631   2.776
49367W        W10898   1.948  13.635   2.281
49368W        W10899  10.781  42.350   4.278
49369W        W10900  34.950  30.584   2.310
49370W        W10901  16.763  11.642  14.496
49371W        W10902   4.739  11.226   4.656
49372W        W10903  14.211  40.419   4.765
49373W        W10904   0.322  42.866  14.472
49374W        W10905  36.975   8.350   1.734
49375W        W10906  43.334  33.123   0.469
49376W        W10907  12.667  15.272  10.940
49377W        W10908   1.839  17.163  10.509
49378W        W10909   7.273  33.424  12.949
49379W        W10910  18.703  32.060  11.109
49380W        W10911  15.106   9.260   0.812
49381W        W10912  32.452  16.713   3.366
49382W        W10913  36.047   7.260  11.123
49383W        W10914  27.979  12.229  13.485
49384W        W10915  36.354   5.307   3.744
49385W        W10916  44.320  19.572  13.888
49386W        W10917  25.678  41.952  14.369
49387W        W10918  32.039  21.562  10.642
49388W        W10919  33.613  21.051   2.282
49389W        W10920  28.492  39.021   0.249
49390W        W10921   0.328  40.032  14.379
49391W        W10922  44.779  37.350   5.233
49392W        W10923   8.880   5.265  11.090
49393W        W10924  32.036  29.455  11.412
49394W        W10925  38.965  44.428  14.965
49395W        W10926  30.580  25.508  11.944
49396W        W10927  15.163  18.680  13.439
49397W        W10928   7.887  21.555   2.737
49398W        W10929  25.047  39.405  12.975
49399W        W10930  24.640   1.946  11.488
49400W        W10931  22.204   8.736   3.190
49401W        W10932  14.306   5.211  13.847
49402W        W10933  43.402   2.325  13.492
49403W        W10934  33.616  43.306   0.348
49404W        W10935  20.076  11.350  12.404
49405W        W10936   8.268  29.471  11.124
49406W        W10937  34.063  40.835   3.701
49407W        W10938  29.504  35.072  12.851
49408W        W10939  37.926  27.556   3.276
49409W        W10940  32.393   1.404   4.833
49410W        W10941  32.472  43.824  12.869
49411W        W10942  31.151  30.551  10.013
49412W        W10943  30.578  10.150  12.507
49413W        W10944   1.785  31.008   4.251
49414W        W10945  13.130  27.512   2.269
49415W        W10946   2.726  41.800   4.351
49416W        W10947  40.362  38.009  14.923
49417W        W10948  14.223  30.497  12.038
49418W        W10949  16.193  16.805  13.478
49419W        W10950   8.242  23.593   4.605
49420W        W10951  18.270  41.010   4.720
49421W        W10952  12.714   1.475  14.323
49422W        W10953  28.115  27.466   0.844
49423W        W10954  16.656  38.330   2.289
49424W        W10955  11.324  11.860   1.857
49425W        W10956  41.812  40.511  11.108
49426W        W10957  44.780  30.067  11.395
49427W        W10958  33.486  18.238   4.133
49428W        W10959  30.947  21.020   0.410
49429W        W10960   9.731  27.946  14.285
49430W        W10961   2.386  23.571  13.412
49431W        W10962  14.216   0.371  14.964
49432W        W10963  26.579  36.087   3.686
49433W        W10964  18.612  31.450   2.705
49434W        W10965   1.931  10.338   1.841
49435W        W10966   7.235   7.746   2.894
49436W        W10967  29.935  15.665   5.123
49437W        W10968   8.297   0.454  14.967
49438W        W10969  12.274  38.057   1.894
49439W        W10970   4.421   7.893   1.283
49440W        W10971  23.665  13.735   3.360
49441W        W10972  14.780   7.891  14.932
49442W        W10973   3.299  22.035   4.776
49443W        W10974  40.836  39.386   1.450
49444W        W10975  34.395  29.982   4.334
49445W        W10976  22.100  24.199  14.811
49446W        W10977  32.561  24.073  14.856
49447W        W10978  24.494  24.677   4.741
49448W        W10979  14.182  40.037  12.416
49449W        W10980  44.329   7.710  14.845
49450W        W10981  19.616  28.550   2.329
49451W        W10982  13.680  36.470   3.853
49452W        W10983  42.928  12.180   2.845
49453W        W10984  29.148  36.471  12.463
49454W        W10985  21.702  42.927  11.536
49455W        W10986   8.249  14.827  11.914
49456W        W10987  43.921  31.621   0.848
49457W        W10988  28.493  38.411  14.275
49458W        W10989  12.848  38.991   2.828
49459W        W10990  15.197   2.929  13.864
49460W        W10991  29.598  20.588  12.852
49461W        W10992  29.516  43.478  10.586
49462W        W10993  13.719  41.396   0.347
49463W        W10994  31.527  35.862   3.357
49464W        W10995   6.379  15.111   2.196
49465W        W10996   3.298  16.581  10.565
49466W        W10997  19.659  42.908  13.324
49467W        W10998   0.764  29.455  10.522
49468W        W10999   3.359  15.699   2.895
49469W        W11000  11.764   1.318   2.902
49470W        W11001   5.308   3.765   4.647
49471W        W11002  34.432   6.702  11.037
49472W        W11003  18.285   7.325   3.641
49473W        W11004  42.778  31.516  14.883
49474W        W11005  11.277  39.438   1.783
49475W        W11006  12.277  11.663   1.277
49476W        W11007  21.248   3.788   1.752
49477W        W11008  43.380  12.276  11.504
49478W        W11009  35.372  14.606   0.303
49479W        W11010  44.263  15.786   5.298
49480W        W11011  26.084  43.807  10.565
49481W        W11012   9.749  11.315   4.117
49482W        W11013  16.780  32.983  14.885
49483W        W11014  10.818   8.735  12.914
49484W        W11015  33.005  37.830   2.879
49485W        W11016  32.912  31.957   1.924
49486W        W11017  14.197  25.600   9.993
49487W        W11018  14.333  20.258   0.268
49488W        W11019  30.041   6.362   3.858
49489W        W11020  22.188   5.304   2.852
49490W        W11021  31.643  35.389  11.062
49491W        W11022   4.387  33.122  12.904
49492W        W11023  31.048  23.661   2.694
49493W        W11024   7.381   5.283  12.013
49494W        W11025   6.871  23.102  12.503
49495W        W11026  23.665  25.160  11.589
49496W        W11027  44.425   6.211  13.810
49497W        W11028  24.664   4.857   2.845
49498W        W11029  34.613  44.278   4.742
49499W        W11030  25.491   0.248   1.333
49500W        W11031   1.248   7.857  12.435
49501W        W11032  24.208   3.815   0.920
49502W        W11033  16.165   1.336   1.867
49503W        W11034  39.379  23.150   1.730
49504W        W11035  10.383  25.614   1.253
49505W        W11036   1.252  27.941   1.889
49506W        W11037  33.991  11.272   1.271
49507W        W11038  37.375  16.215  10.417
49508W        W11039  36.851  38.350   2.245
49509W        W11040  10.259   4.428   2.873
49510W        W11041  34.873  33.980   2.233
49511W        W11042  33.612  35.433  13.352
49512W        W11043   1.799  16.740   4.790
49513W        W11044  22.080  40.404   2.414
49514W        W11045  36.942  25.660  12.036
49515W        W11046  43.433   3.267  13.983
49516W        W11047  23.097  39.900  10.075
49517W        W11048  28.944  10.758  13.403
49518W        W11049   1.820  12.298   0.765
49519W        W11050  20.114  26.062  11.883
49520W        W11051  39.942   6.707  14.773
49521W        W11052  36.383  13.706   0.337
49522W        W11053  35.881  21.590   4.706
49523W        W11054  27.686  16.086  12.875
49524W        W11055  43.814  35.496  13.906
49525W        W11056  18.592  44.000   3.181
49526W        W11057   1.320  11.324   3.314
49527W        W11058  22.575   7.310  13.837
49528W        W11059   1.461  35.910  11.505
49529W        W11060  30.051   0.757   2.683
49530W        W11061  33.011  37.850   5.798
49531W        W11062   3.861  37.514  14.763
49532W        W11063  19.660   5.397  10.605
49533W        W11064  36.407   4.390   3.692
49534W        W11065  32.395   7.756  12.973
49535W        W11066   9.366   4.414  12.024
49536W        W11067  21.585  33.442  12.880
49537W        W11068  22.504  32.958   1.247
49538W        W11069  19.269  26.060  10.986
49539W        W11070   2.756  33.598   3.779
49540W        W11071  21.181  11.653  11.594
49541W        W11072  35.417  29.004   1.249
49542W        W11073   5.380   1.453  11.867
49543W        W11074  24.597  28.485   3.814
49544W        W11075  20.161  22.041   4.725
49545W        W11076  24.536  39.891  12.512
49546W        W11077   3.436  25.711   2.856
49547W        W11078   2.962  13.326   4.688
49548W        W11079  35.464   1.240   0.960
49549W        W11080  39.889   4.821   4.718
49550W        W11081  26.042  43.793   0.844
49551W        W11082  41.815  16.170  14.944
49552W        W11083  35.909  35.879   1.710
49553W        W11084  41.909  21.191  13.837
49554W        W11085  32.429  40.054   4.306
49555W        W11086  27.558  30.414   2.819
49556W        W11087  20.240   4.937   4.347
49557W        W11088  36.915  14.652   3.256
49558W        W11089   8.171  12.832   2.242
49559W        W11090  12.855  38.874  12.870
49560W        W11091  37.056  10.715   2.675
49561W        W11092   0.455   7.192  11.996
49562W        W11093  11.173  30.056  14.369
49563W        W11094  22.595  23.133  13.485
49564W        W11095  26.189  41.961   4.680
49565W        W11096  13.197  42.442   2.887
49566W        W11097  38.958  32.973   3.187
49567W        W11098   5.295  32.475   4.310
49568W        W11099  22.053  44.760  11.385
49569W        W11100  40.540  36.962   0.340
49570W        W11101  28.040  19.146  12.018
49571W        W11102  34.027  32.019  11.038
49572W        W11103  41.354  27.071  11.442
49573W        W11104   4.342  37.492   4.218
49574W        W11105   8.362  14.654  12.403
49575W        W11106  10.381  29.997   3.207
49576W        W11107  14.328  42.896   2.671
49577W        W11108   1.426  34.500   2.814
49578W        W11109  24.998  12.758  10.546
49579W        W11110  40.400  26.146  10.507
49580W        W11111  27.966  15.111  14.850
49581W        W11112  25.687  19.757   3.797
49582W        W11113  20.179  41.351   4.349
49583W        W11114  24.085  44.452  14.981
49584W        W11115   1.291  17.146   2.363
49585W        W11116  23.548  18.197  10.978
49586W        W11117  13.222   9.154  14.799
49587W        W11118  28.021  38.983  13.547
49588W        W11119  29.519  17.197  13.959
49589W        W11120  27.174   9.304   1.239
49590W        W11121   1.809  40.476   3.266
49591W        W11122  37.369   7.230   0.760
49592W        W11123  11.634  35.087  11.864
49593W        W11124   7.821  24.511   2.372
49594W        W11125   4.441  19.658   3.843
49595W        W11126  10.877  19.578  13.321
49596W        W11127  43.465  33.463   2.366
49597W        W11128  37.388  29.478   3.256
49598W        W11129  41.924  11.359   3.331
49599W        W11130  31.611  25.542  11.058
49600W        W11131   4.890  26.961  11.016
49601W        W11132   6.255  23.562   0.747
49602W        W11133  17.070  37.969  10.927
49603W        W11134  25.052   1.748  13.540
49604W        W11135  19.565  23.118   2.853
49605W        W11136   7.220   5.386   1.402
49606W        W11137  26.055  23.088  10.523
49607W        W11138  19.174  26.467  13.877
49608W        W11139  19.560  20.221   2.189
49609W        W11140  21.130  31.908  11.932
49610W        W11141   6.239  32.902  14.012
49611W        W11142  36.390  33.513   1.778
49612W        W11143   4.736  24.699  14.880
49613W        W11144   0.483  35.019   0.862
49614W        W11145  32.526  13.346   3.240
49615W        W11146  38.912   4.310  14.848
49616W        W11147  31.434  41.852   4.224
49617W        W11148  25.194  15.307   0.274
49618W        W11149  37.417  11.730  13.971
49619W        W11150  44.875   5.690   3.762
49620W        W11151  42.014  42.453  11.054
49621W        W11152  32.409   6.243  12.092
49622W        W11153  21.210  12.776   9.983
49623W        W11154  14.763  20.697   1.313
49624W        W11155  10.708  33.582  12.964
49625W        W11156  10.343  24.704   2.730
49626W        W11157  14.190  42.927   0.907
49627W        W11158  37.032   9.343   2.883
49628W        W11159  29.447  18.773  13.055
49629W        W11160  11.834  11.127   2.669
49630W        W11161   6.219   2.310  11.124
49631W        W11162  37.483   2.732   2.722
49632W        W11163  19.746  37.843   3.185
49633W        W11164  24.692  31.119  13.001
49634W        W11165  16.128   2.366   2.759
49635W        W11166  35.946   6.870  11.543
49636W        W11167   1.814   4.797   0.766
49637W        W11168  41.417  24.570   0.872
49638W        W11169  17.588  43.946  14.281
49639W        W11170   8.283  37.516   4.836
49640W        W11171  43.477  10.381  10.076
49641W        W11172  17.583  31.425  12.937
49642W        W11173  29.073   6.715  13.371
49643W        W11174   9.194  30.021  13.403
49644W        W11175  40.362   4.261  13.429
49645W        W11176  16.123  34.566   0.401
49646W        W11177  29.621  19.736   1.906
49647W        W11178  37.965   7.666   0.243
49648W        W11179  35.887  10.269   2.252
49649W        W11180  44.918  37.536   3.649
49650W        W11181  16.236  32.018  12.361
49651W        W11182  15.736  38.820  14.456
49652W        W11183  36.516  43.433  10.968
49653W        W11184  30.000  22.595  12.340
49654W        W11185  20.061  44.460  13.523
49655W        W11186  10.157  17.164  11.963
49656W        W11187  24.629  42.855  10.623
49657W        W11188   8.838  19.210   2.212
49658W        W11189  22.243  10.166   0.817
49659W        W11190  21.039  34.964   4.225
49660W        W11191   4.335  34.066  11.981
49661W        W11192   5.753  24.584   1.760
49662W        W11193   6.244  26.179   1.889
49663W        W11194  34.484   1.269   2.702
49664W        W11195  31.025  22.654   1.243
49665W        W11196  40.000  24.130   2.273
49666W        W11197  21.179  43.294  11.552
49667W        W11198  21.707   2.838   4.791
49668W        W11199  30.601  41.799   4.342
49669W        W11200  20.088  16.779  12.022
49670W        W11201   5.868  13.631   0.951
49671W        W11202  41.380  16.259   3.297
49672W        W11203   4.283  12.283  12.549
49673W        W11204   9.258  26.503   2.836
49674W        W11205  32.087   4.797   5.175
49675W        W11206  30.146  21.104   2.354
49676W        W11207   9.367  40.481   3.231
49677W        W11208   2.427  40.423   4.285
49678W        W11209  35.493  20.549  14.010
49679W        W11210  44.991  20.039   3.274
49680W        W11211  32.475  21.589  13.957
49681W        W11212  10.282  33.490   1.916
49682W        W11213  23.554  24.995   3.236
49683W        W11214   7.376   1.906   3.214
49684W        W11215  30.162  28.107   3.359
49685W        W11216  17.601  12.738   1.367
49686W        W11217  30.587  20.079   4.685
49687W        W11218  40.817   2.361  14.506
49688W        W11219  20.607  19.274  14.789
49689W        W11220  27.009  17.585  13.354
49690W        W11221  24.577   1.376   1.850
49691W        W11222  40.042  32.469  11.401
49692W        W11223  43.329   4.850  12.425
49693W        W11224  41.325  31.933   1.232
49694W        W11225   4.306   7.305  11.103
49695W        W11226  17.067  26.187  10.472
49696W        W11227  37.549   8.676  14.479
49697W        W11228  44.922  20.668   4.315
49698W        W11229  25.622  40.537   3.701
49699W        W11230  33.045  16.212   2.823
49700W        W11231  36.355  20.046   3.336
49701W        W11232  29.498  35.981  14.876
49702W        W11233  34.374  28.676  11.917
49703W        W11234  29.560  13.339  11.483
49704W        W11235  42.775  23.110   1.713
49705W        W11236   2.804  31.098   2.213
49706W        W11237  42.865  20.145   4.252
49707W        W11238  16.757  32.524   0.405
49708W        W11239  14.112  30.036  11.514
49709W        W11240  35.058  19.184   1.414
49710W        W11241  42.410  22.695  11.955
49711W        W11242  27.501  37.376   1.347
49712W        W11243  40.523  42.843   4.290
49713W        W11244  39.924  21.756   1.819
49714W        W11245  37.936  11.697   1.244
49715W        W11246  26.547  26.088   0.831
49716W        W11247  27.164  20.562   1.378
49717W        W11248  12.320  12.216  12.062
49718W        W11249  10.299   4.737  11.105
49719W        W11250  20.124   8.888   4.651
49720W        W11251  30.926  37.005  10.929
49721W        W11252  19.585  15.803   4.275
49722W        W11253  33.545  25.204  10.569
49723W        W11254  29.167  16.796  10.425
49724W        W11255   6.405  18.236  11.512
49725W        W11256  42.377  22.232   1.752
49726W        W11257  32.886  31.520   3.353
49727W        W11258   9.275   3.830   4.162
49728W        W11259  24.615  10.368   2.240
49729W        W11260  31.081  15.219  11.376
49730W        W11261  18.219  27.647   2.205
49731W        W11262  29.495  31.906   0.447
49732W        W11263   4.367  15.819   0.335
49733W        W11264  16.145  12.723   4.289
49734W        W11265   4.239  31.528  12.382
49735W        W11266  10.224  20.101   0.802
49736W        W11267  23.704   4.404   4.276
49737W        W11268  15.087  28.562  11.005
49738W        W11269   4.803  35.049   1.933
49739W        W11270   6.325  44.812   4.348
49740W        W11271  15.177  11.219   2.817
49741W        W11272  13.246  17.801   0.792
49742W        W11273   3.843  29.109   0.960
49743W        W11274  19.723  33.928  13.895
49744W        W11275  37.546  12.802  11.052
49745W        W11276  35.456  24.069   0.471
49746W        W11277  28.465  26.134  14.295
49747W        W11278  37.960  29.590   0.294
49748W        W11279   1.248  39.369   1.848
49749W        W11280  17.182  35.457  11.019
49750W        W11281  44.461  29.620   4.678
49751W        W11282  15.163   7.195  12.572
49752W        W11283  24.984  41.405  14.004
49753W        W11284  31.439  12.699   2.339
49754W        W11285  29.553  12.285   3.256
49755W        W11286  38.412   7.760  14.892
49756W        W11287  42.381  28.495  14.917
49757W        W11288  25.524   5.403   2.894
49758W        W11289  24.027   7.237  14.958
49759W        W11290  43.940  40.012   0.291
49760W        W11291  18.646  10.139  14.791
49761W        W11292   6.906   7.263  12.924
49762W        W11293   1.847   3.853  11.116
49763W        W11294  40.449  25.713   2.326
49764W        W11295  12.175   4.714  14.910
49765W        W11296   0.385   7.171  11.091
49766W        W11297  38.363  35.953   4.792
49767W        W11298  44.004   4.814  14.404
49768W        W11299  28.933  44.880  11.113
49769W        W11300  20.764   8.815   2.901
49770W        W11301  29.108   6.183   2.853
49771W        W11302   2.377  20.725   4.704
49772W        W11303  34.471  35.093   3.647
49773W        W11304  27.985  31.081  10.945
49774W        W11305  21.038   6.795   0.251
49775W        W11306  23.053  40.541  12.871
49776W        W11307  12.731   5.760   1.443
49777W        W11308  24.533  27.516  14.847
49778W        W11309  28.679  39.848   4.268
49779W        W11310  36.017  29.432   3.808
49780W        W11311   0.960  27.515  10.435
49781W        W11312  42.847  36.527   0.252
49782W        W11313   7.280  38.415  11.381
49783W        W11314  19.535  43.509  13.521
49784W        W11315  29.625  14.218  10.502
49785W        W11316  41.876   2.826  11.958
49786W        W11317  42.861  28.458  10.620
49787W        W11318  12.187  11.336   3.666
49788W        W11319  15.660  30.084   1.238
49789W        W11320  27.183   7.206   2.403
49790W        W11321  24.716  41.323  12.834
49791W        W11322  19.131   0.310  13.335
49792W        W11323  25.007  21.673   0.366
49793W        W11324   7.295  11.686  11.048
49794W        W11325  31.969  11.235   0.465
49795W        W11326   5.873   9.272   0.936
49796W        W11327   9.174  16.640   2.200
49797W        W11328  38.073  17.233  14.494
49798W        W11329  14.764  13.334   3.725
49799W        W11330  39.811  11.353   3.703
49800W        W11331  42.514  36.936   0.870
49801W        W11332  30.427   8.185   0.445
49802W        W11333   5.401  27.010  10.486
49803W        W11334  40.989  14.698  13.888
49804W        W11335   0.309  34.107   0.851
49805W        W11336   8.721  44.331   4.212
49806W        W11337  21.527  22.739  11.072
49807W        W11338  38.911   8.750  12.425
49808W        W11339  33.883  19.771  12.081
49809W        W11340  17.674  43.006  12.919
49810W        W11341  24.623   3.882   4.606
49811W        W11342  34.962  30.584  12.513
49812W        W11343  37.990  14.640   4.609
49813W        W11344   0.481  42.027   1.808
49814W        W11345  26.575  28.048  11.990
49815W        W11346  36.849  34.445   1.927
49816W        W11347  12.347  14.828  12.866
49817W        W11348  29.057  16.230  12.447
49818W        W11349  37.562  20.551  13.965
49819W        W11350  26.053  26.611   4.236
49820W        W11351  22.737  37.368  12.915
49821W        W11352  16.263  33.589  12.087
49822W        W11353  36.068   8.849   1.319
49823W        W11354   9.198  29.570   3.257
49824W        W11355  35.914  31.623   0.270
49825W        W11356   3.264  38.060  14.320
49826W        W11357   5.305  40.978   4.709
49827W        W11358  44.304  40.513   5.242
49828W        W11359  42.994  11.706   3.763
49829W        W11360  15.264   5.778   4.784
49830W        W11361   6.301  10.730  12.940
49831W        W11362   8.285  41.965  12.469
49832W        W11363  30.129   5.281   2.402
49833W        W11364  28.555  28.492   2.219
49834W        W11365  14.716  43.878   3.203
49835W        W11366  20.598  13.749  13.858
49836W        W11367  27.671  23.077  14.994
49837W        W11368  10.768  20.239  14.371
49838W        W11369  38.480   2.753  14.770
49839W        W11370  41.949   4.429  11.920
49840W        W11371  31.152  32.626   3.794
49841W        W11372  10.784  23.171  11.549
49842W        W11373   6.768  30.933  12.909
49843W        W11374   2.901  33.507   3.379
49844W        W11375   4.765   2.414  13.957
49845W        W11376  25.981  12.634   2.396
49846W        W11377  42.785  19.776   4.139
49847W        W11378  17.088  34.883   0.884
49848W        W11379  20.767  32.034   0.429
49849W        W11380  42.484  28.152  10.938
49850W        W11381  17.096  38.352  10.991
49851W        W11382  31.461  13.104   2.263
49852W        W11383   2.402  31.419   4.740
49853W        W11384  15.257  30.453   2.340
49854W        W11385   4.750  37.075   1.786
49855W        W11386  24.718  35.072  13.988
49856W        W11387  22.705  16.606  10.405
49857W        W11388  32.438  41.788   2.785
49858W        W11389  20.751   5.804   1.719
49859W        W11390  39.820  14.773  12.079
49860W        W11391  44.762  32.590   1.700
49861W        W11392  21.551   1.398  12.938
49862W        W11393  30.546  40.403   3.245
49863W        W11394   3.404  15.763   3.841
49864W        W11395  41.790  42.812   4.226
49865W        W11396  23.204  25.014  11.499
49866W        W11397   4.370   1.903   3.711
49867W        W11398  31.978  41.851  13.436
49868W        W11399  38.405  24.205  13.875
49869W        W11400  19.263  34.946   0.273
49870W        W11401  26.185  17.760  13.464
49871W        W11402  41.502   8.667  12.431
49872W        W11403  40.975   7.297  14.945
49873W        W11404  22.220  13.708   4.803
49874W        W11405  27.140  42.026   1.790
49875W        W11406  15.667  40.918  13.498
49876W        W11407  29.095   9.331  12.969
49877W        W11408   3.843  29.603  12.072
49878W        W11409  35.977  44.946   4.743
49879W        W11410  16.231  13.679  10.478
49880W        W11411  39.454   4.768   2.226
49881W        W11412  23.590  28.115  12.505
49882W        W11413  24.653  21.199  11.468
49883W        W11414  12.624  20.690  11.401
49884W        W11415  33.494  44.504   1.829
49885W        W11416  32.900  10.801   3.321
49886W        W11417  35.069  28.487   0.333
49887W        W11418  25.510  18.169  12.473
49888W        W11419  27.561  37.412  11.469
49889W        W11420  35.023  26.159   1.390
49890W        W11421  28.185  16.636  13.817
49891W        W11422  16.612   9.761   0.342
49892W        W11423  33.093  44.784   2.316
49893W        W11424   5.916  18.560   0.783
49894W        W11425  10.250   2.256   2.389
49895W        W11426  41.860  30.569  11.547
49896W        W11427  10.718  16.189   1.889
49897W        W11428  27.492  42.471  13.031
49898W        W11429  40.510  12.319  11.885
49899W        W11430  38.964  22.080  14.503
49900W        W11431  23.595  19.726  14.474
49901W        W11432  33.955  19.538   3.835
49902W        W11433  29.492  27.952   4.705
49903W        W11434  30.474  35.083   1.793
49904W        W11435  37.969  25.060  12.974
49905W        W11436  39.050  18.553  11.022
49906W        W11437  23.582   7.380  12.020
49907W        W11438  28.034  36.060   0.336
49908W        W11439  32.978  13.732  12.999
49909W        W11440  16.718  16.167  10.595
49910W        W11441  44.326  30.416   3.700
49911W        W11442   7.879  29.535  12.088
49912W        W11443  43.859  25.520  11.382
49913W        W11444  31.465  14.097  10.488
49914W        W11445   2.919  31.466  13.453
49915W        W11446  41.921  10.251   2.778
49916W        W11447  14.647  36.020   3.859
49917W        W11448  22.130  25.510  14.300
49918W        W11449  35.060  19.252  14.973
49919W        W11450  17.063  43.471  10.613
49920W        W11451  31.053  41.867   1.765
49921W        W11452  43.344  13.613  11.003
49922W        W11453  11.792  16.247  12.078
49923W        W11454  12.676  43.939  13.890
49924W        W11455  44.981  42.918  11.540
49925W        W11456  12.695  40.012  14.979
49926W        W11457  27.165   1.964   2.770
49927W        W11458  10.149  27.664   3.660
49928W        W11459  30.932  18.218  14.418
49929W        W11460   5.689  13.831   4.744
49930W        W11461  30.987  20.572  12.428
49931W        W11462  20.567   8.239   1.397
49932W        W11463  33.102   8.745   0.736
49933W        W11464  29.649   3.329  10.077
49934W        W11465  17.590   6.758   3.179
49935W        W11466  24.005  19.144  14.371
49936W        W11467  42.309  11.631   3.657
49937W        W11468   4.716  38.483   5.157
49938W        W11469   4.358  26.190   0.371
49939W        W11470  44.416  19.681   1.875
49940W        W11471  44.329  13.658   0.276
49941W        W11472  41.967  14.677   4.723
49942W        W11473  19.585  23.558   3.230
49943W        W11474   6.806  12.795  10.995
49944W        W11475  27.474  21.106  14.431
49945W        W11476  33.472  24.554   0.278
49946W        W11477  16.585  38.053   0.457
49947W        W11478  41.797   5.829   4.741
49948W        W11479  23.496  25.091   4.706
49949W        W11480  32.506   3.937   0.759
49950W        W11481  35.025  27.172   1.219
49951W        W11482  30.647   7.696  11.974
49952W        W11483  20.554  36.997   0.447
49953W        W11484  14.166  19.611   1.252
49954W        W11485  14.332  24.615   4.819
49955W        W11486  28.975   3.927  14.397
49956W        W11487  32.054  31.028   1.272
49957W        W11488  29.021  40.337  14.027
49958W        W11489   1.908  12.619   2.384
49959W        W11490   2.341  32.118  10.941
49960W        W11491   2.305  40.862  13.962
49961W        W11492   7.281  15.717   0.435
49962W        W11493  34.377  29.567  12.021
49963W        W11494  43.022  27.475  11.492
49964W        W11495   6.916  14.746  12.386
49965W        W11496  26.480   5.289   2.200
49966W        W11497  33.977  24.586   0.795
49967W        W11498   6.864  39.993   4.303
49968W        W11499   6.914  15.608  11.457
49969W        W11500  30.418  18.135   3.638
49970W        W11501  29.066  30.930   2.665
49971W        W11502  39.357   0.798   0.480
49972W        W11503  24.090  35.524   2.178
49973W        W11504  31.622  28.031  12.481
49974W        W11505  39.969  31.469  12.897
49975W        W11506   7.399  28.185   4.137
49976W        W11507  19.217  14.827  10.637
49977W        W11508  22.675  23.080  11.941
49978W        W11509   8.669  40.956  13.346
49979W        W11510  29.924  31.544  10.479
49980W        W11511  37.352  37.968   2.804
49981W        W11512  29.428  41.297  13.530
49982W        W11513  12.652  29.147   4.324
49983W        W11514   8.370  26.510  14.851
49984W        W11515  42.953  14.320   1.700
49985W        W11516   3.780  10.722  10.961
49986W        W11517  35.435  27.518   4.797
49987W        W11518  33.580  15.229  10.974
49988W        W11519   6.267   2.229  11.893
49989W        W11520  37.574   7.859   1.714
49990W        W11521  10.228   4.227  12.483
49991W        W11522  34.107  11.223   3.735
49992W        W11523  16.609  22.623   5.221
49993W        W11524  37.088  11.809   4.650
49994W        W11525  24.979   2.957  12.349
49995W        W11526  30.557  41.959  10.923
49996W        W11527   2.455  20.125   1.790
49997W        W11528  13.157  15.816  13.961
49998W        W11529  26.024   7.366   4.230
49999W        W11530  36.460  43.372   3.644
50000W        W11531  30.097  10.275   3.801
50001W        W11532  10.240  44.276   1.839
50002W        W11533  14.256  22.523   3.633
50003W        W11534   7.252  36.539  11.475
50004W        W11535   8.390   4.425  14.350
50005W        W11536  12.264  33.965  14.331
50006W        W11537  38.009  28.946   0.378
50007W        W11538   5.289  38.974   2.240
50008W        W11539   6.908  34.047   1.888
50009W        W11540  30.126  12.251   1.738
50010W        W11541  31.990  11.131   4.298
50011W        W11542  10.722  34.991   2.814
50012W        W11543  11.361   2.228  11.939
50013W        W11544   0.774  42.380   2.231
50014W        W11545  29.666  29.590   0.764
50015W        W11546  35.505  20.669   4.614
50016W        W11547  29.564   4.905  11.499
50017W        W11548  18.744  36.431  14.900
50018W        W11549   6.847   2.374  13.978
50019W        W11550  42.784  34.983   4.211
50020W        W11551  20.688   0.811  13.017
50021W        W11552  36.488  16.119   4.646
50022W        W11553   9.808  31.959   3.320
50023W        W11554  44.969   9.673  10.575
50024W        W11555   2.277  29.562   0.950
50025W        W11556  24.125  35.534  10.464
50026W        W11557  23.504  30.649  13.916
50027W        W11558  36.021   5.344   3.836
50028W        W11559  17.283  14.740  13.012
50029W        W11560   1.830  35.862   3.668
50030W        W11561  25.581  38.949  14.996
50031W        W11562  35.570  32.520   4.606
50032W        W11563  24.113  34.418  12.024
50033W        W11564  41.975  10.857   0.956
50034W        W11565  32.632  23.221  14.839
50035W        W11566  27.536  30.034  11.577
50036W        W11567   8.871  29.531  11.937
50037W        W11568  14.682   8.708  14.972
50038W        W11569  39.060  39.458  13.383
50039W        W11570  22.720  44.408  11.496
50040W        W11571   9.847  34.431  13.925
50041W        W11572  12.354  37.998  14.998
50042W        W11573  18.079   0.988  14.377
50043W        W11574   7.789   7.374   2.729
50044W        W11575  15.788  30.122  14.981
50045W        W11576  30.122  23.601  13.398
50046W        W11577  43.856  33.985  11.397
50047W        W11578  17.715  34.553  11.603
50048W        W11579  13.281  39.396   1.291
50049W        W11580  12.325   0.406  12.006
50050W        W11581  39.464  36.417   2.722
50051W        W11582  40.485  14.131   0.363
50052W        W11583  35.034   0.399  14.342
50053W        W11584  34.116  21.220   3.714
50054W        W11585  40.841  37.431  14.017
50055W        W11586  38.412  15.238  11.592
50056W        W11587  42.002  17.177   2.252
50057W        W11588  13.645  44.833  10.993
50058W        W11589   9.255  43.346  14.989
50059W        W11590  10.208   4.411   2.194
50060W        W11591  25.017  10.871  12.873
50061W        W11592  18.152  40.847   0.830
50062W        W11593  14.655   8.273  14.860
50063W        W11594  13.833  14.242   3.359
50064W        W11595  28.186  22.139   3.637
50065W        W11596  36.569  35.603   2.351
50066W        W11597   8.655  15.153   4.600
50067W        W11598  32.573  39.833   1.227
50068W        W11599  24.639  21.721   0.729
50069W        W11600   3.895  16.710   4.807
50070W        W11601  28.625  24.604   0.891
50071W        W11602  26.171  19.628  10.405
50072W        W11603   9.291  23.104  14.998
50073W        W11604  29.506  37.342  14.316
50074W        W11605   6.198  24.019   2.183
50075W        W11606   6.782  36.917   1.892
50076W        W11607  25.705  12.214  10.415
50077W        W11608  12.684  19.276  13.821
50078W        W11609  37.848  23.164  12.476
50079W        W11610  43.280  16.108   3.666
50080W        W11611  40.863   5.694  11.571
50081W        W11612  19.767  31.030   5.301
50082W        W11613  41.980   4.803   3.720
50083W        W11614   6.240  25.571  10.496
50084W        W11615  38.970  17.726  12.943
50085W        W11616  40.027   8.189   2.744
50086W        W11617  31.483  41.963  14.981
50087W        W11618  16.286  25.217   4.616
50088W        W11619  34.919  42.999  13.800
50089W        W11620  19.278  37.475   0.259
50090W        W11621  23.600  40.818   2.244
50091W        W11622  40.437  10.355  12.024
50092W        W11623  21.138  44.353   1.404
50093W        W11624  36.886  21.685  10.638
50094W        W11625  24.564  38.494   0.801
50095W        W11626   8.895  31.524  11.437
50096W        W11627  35.492  35.521  14.384
50097W        W11628   2.449  29.501  13.900
50098W        W11629  33.439  15.642   0.319
50099W        W11630   5.221  40.326   4.162
50100W        W11631   4.283  15.733  12.975
50101W        W11632  41.815  31.139  11.411
50102W        W11633   3.399  26.987   4.250
50103W        W11634  20.662   3.834  11.117
50104W        W11635   7.278  26.194  11.861
50105W        W11636  40.541   4.843   4.174
50106W        W11637  31.921   8.830  13.846
50107W        W11638  38.996  37.937  12.519
50108W        W11639  28.146   2.917   2.886
50109W        W11640  38.478  37.847   1.374
50110W        W11641  28.010  40.446  12.574
50111W        W11642  15.261  22.568  14.934
50112W        W11643  35.964   5.340  11.597
50113W        W11644  19.594  27.138   0.477
50114W        W11645  10.792  36.098  12.974
50115W        W11646  10.197  41.940   0.422
50116W        W11647  17.196  44.826  12.408
50117W        W11648  27.959   5.932   0.378
50118W        W11649  22.214  23.163   3.867
50119W        W11650   2.839   4.741  14.449
50120W        W11651  42.308   2.299   1.770
50121W        W11652  42.968  26.145   0.784
50122W        W11653   2.295  36.024   0.306
50123W        W11654  20.056  42.384  12.990
50124W        W11655   9.669  31.569  12.929
50125W        W11656   0.759  13.196  14.413
50126W        W11657  37.861  37.344  14.459
50127W        W11658  23.536  16.313   0.406
50128W        W11659  25.712  40.999  12.961
50129W        W11660  24.548  10.798  11.393
50130W        W11661   9.294   7.313  10.004
50131W        W11662   8.862  15.158   1.277
50132W        W11663   0.960  43.293  12.061
50133W        W11664   6.366  24.483   3.239
50134W        W11665  25.095   3.359   0.446
50135W        W11666  26.632  28.941   4.776
50136W        W11667   4.413  15.170  11.974
50137W        W11668  10.159  27.477   0.411
50138W        W11669  44.305  31.057   0.735
50139W        W11670  33.901  34.381  15.000
50140W        W11671  43.833  15.235   2.726
50141W        W11672   6.900  41.377  12.955
50142W        W11673  16.087   0.775   0.784
50143W        W11674  32.586   3.837  10.490
50144W        W11675   0.919  18.659  14.386
50145W        W11676   1.274  32.066   3.752
50146W        W11677  39.371  38.988  11.406
50147W        W11678  44.001   0.388   2.274
50148W        W11679  22.562   2.386   3.369
50149W        W11680  25.019  28.118   2.843
50150W        W11681   3.291  41.325   0.290
50151W        W11682  28.675  43.297   0.434
50152W        W11683  28.031   5.922  11.432
50153W        W11684  44.496   1.950  14.497
50154W        W11685  23.017   4.711  10.029
50155W        W11686  31.068  43.842   3.815
50156W        W11687  34.475  28.668   1.829
50157W        W11688  12.757   7.802   2.795
50158W        W11689  27.141   2.411   1.324
50159W        W11690  41.905  21.165  11.428
50160W        W11691   4.888  13.318   3.338
50161W        W11692  24.058   0.256   3.730
50162W        W11693  19.569  25.113  14.382
50163W        W11694   6.816  41.341   3.779
50164W        W11695  10.662  26.619  10.916
50165W        W11696   4.299  42.860  10.478
50166W        W11697  37.426  39.977   2.262
50167W        W11698  25.007  41.404   2.246
50168W        W11699  27.555  26.028   0.765
50169W        W11700   8.857  11.805   4.130
50170W        W11701   0.902  27.446   4.688
50171W        W11702  16.800  36.572   1.917
50172W        W11703  15.113   4.730   4.326
50173W        W11704  38.028  29.936  12.425
50174W        W11705  15.214  26.071   1.866
50175W        W11706   4.844  34.919   3.196
50176W        W11707   3.872  32.994   0.814
50177W        W11708  34.407  25.621   0.326
50178W        W11709  42.387   6.423   2.811
50179W        W11710  14.109   6.716  11.470
50180W        W11711  19.111  32.075  14.313
50181W        W11712  24.058   5.340   1.756
50182W        W11713  18.711  43.413  14.430
50183W        W11714  12.192  34.119  13.850
50184W        W11715  35.407  42.886  11.990
50185W        W11716  10.182  29.549  12.349
50186W        W11717   3.952   9.764   0.841
50187W        W11718  32.120  35.462  13.007
50188W        W11719  38.522   3.327  13.946
50189W        W11720  18.547  10.715  12.558
50190W        W11721  29.950  27.611   3.362
50191W        W11722  15.201   2.432   0.935
50192W        W11723   0.784  33.990  10.437
50193W        W11724   1.355  20.642  13.329
50194W        W11725  27.631  10.756   1.329
50195W        W11726  13.775  26.207   1.708
50196W        W11727   4.923   5.813   2.283
50197W        W11728  38.487  14.707   0.445
50198W        W11729  18.625  16.569  13.971
50199W        W11730   0.830  30.139   4.161
50200W        W11731  10.677   1.748   2.261
50201W        W11732  16.318  44.804   1.841
50202W        W11733   9.666   9.207   2.349
50203W        W11734  30.156  32.571   2.896
50204W        W11735  17.074  40.442   1.840
50205W        W11736   1.371  12.747  12.503
50206W        W11737  27.488  44.466   3.285
50207W        W11738  16.284  17.682   2.397
50208W        W11739  17.637   4.767   9.965
50209W        W11740  29.956   2.779   2.686
50210W        W11741  43.005  15.757  13.889
50211W        W11742  33.567   7.401  13.934
50212W        W11743  44.984  35.552  12.548
50213W        W11744  15.190  20.066   2.240
50214W        W11745   3.453  22.034  10.633
50215W        W11746  29.065  13.158  13.058
50216W        W11747  17.290  23.202  14.477
50217W        W11748  23.505   3.270   3.743
50218W        W11749  19.651   2.428   1.830
50219W        W11750  30.044  11.328   4.607
50220W        W11751  12.241  18.660   1.738
50221W        W11752  14.329  28.088   3.798
50222W        W11753  44.423  23.611  10.595
50223W        W11754  31.412   9.687  12.857
50224W        W11755  22.145  31.903   0.263
50225W        W11756   5.270  27.143  13.319
50226W        W11757  27.685  42.409   2.667
50227W        W11758  29.065  43.307   4.609
50228W        W11759  39.904  33.605   1.848
50229W        W11760  13.645   3.295  10.997
50230W        W11761   6.701   7.289  13.990
50231W        W11762  26.462  40.462  12.911
50232W        W11763  39.545   4.271   3.377
50233W        W11764  15.756  12.794   2.713
50234W        W11765  44.443  11.159  12.983
50235W        W11766  12.191  22.081   4.193
50236W        W11767  32.471   7.802   3.685
50237W        W11768   9.739  37.555  13.400
50238W        W11769   7.328  34.575   3.852
50239W        W11770  14.794  16.755   3.208
50240W        W11771  19.594  35.096   3.868
50241W        W11772  44.295  14.102   2.821
50242W        W11773  12.251  20.150  11.885
50243W        W11774  35.075  23.152  14.454
50244W        W11775  39.391   0.959  11.958
50245W        W11776   8.362  39.937   0.355
50246W        W11777  19.127  22.175   3.863
50247W        W11778  39.009  33.490   1.353
50248W        W11779  32.530  36.996  13.992
50249W        W11780  18.074  33.966   2.666
50250W        W11781  42.285  19.535   0.297
50251W        W11782  28.006  32.453  10.421
50252W        W11783  22.206  30.944  14.794
50253W        W11784  19.701  22.207   4.748
50254W        W11785  33.616  18.760   0.353
50255W        W11786  11.691  12.133   0.381
50256W        W11787  14.251  35.580  14.463
50257W        W11788  41.312  31.104  10.624
50258W        W11789  22.514   9.813  14.330
50259W        W11790  13.145  28.603   3.837
50260W        W11791  11.261  30.485   5.268
50261W        W11792  18.691  14.299  12.373
50262W        W11793  28.461  34.063  12.982
50263W        W11794  40.851   9.783  14.420
50264W        W11795  12.633  13.758  14.912
50265W        W11796  15.100  10.212   0.392
50266W        W11797  10.714  35.054  12.954
50267W        W11798  31.411  13.759  13.416
50268W        W11799  27.120  32.926   3.648
50269W        W11800  23.655  42.357  13.318
50270W        W11801   7.808   5.913   0.859
50271W        W11802  23.998  44.492  11.099
50272W        W11803  39.462  14.763   1.225
50273W        W11804   7.908   3.791  11.592
50274W        W11805  17.731  25.149  10.448
50275W        W11806  37.042  38.024  11.509
50276W        W11807  35.003  21.729  11.878
50277W        W11808  15.108  20.553  13.799
50278W        W11809  38.459  29.574  10.952
50279W        W11810  36.441   2.432  10.940
50280W        W11811  12.653  12.155   4.250
50281W        W11812   4.918  22.531   2.261
50282W        W11813   4.903  25.059   0.432
50283W        W11814   0.825  37.439  10.927
50284W        W11815  30.059  38.990  14.295
50285W        W11816  22.110  16.167   2.686
50286W        W11817  44.386   1.848  13.974
50287W        W11818  22.219  12.284   1.303
50288W        W11819   5.340  28.653   3.791
50289W        W11820  22.119   0.748   4.160
50290W        W11821  27.616   2.343  12.924
50291W        W11822  18.127   6.405  14.903
50292W        W11823   7.729   6.314   3.313
50293W        W11824  34.458  40.427  12.467
50294W        W11825  29.975  43.480  14.373
50295W        W11826  25.983  35.511  14.014
50296W        W11827  32.059  37.077   4.608
50297W        W11828  16.807  32.126  10.558
50298W        W11829   0.311  40.517   4.230
50299W        W11830  36.975  33.611   1.376
50300W        W11831   4.714  37.358  11.981
50301W        W11832  32.589  29.162   2.875
50302W        W11833   9.335  19.228   0.396
50303W        W11834   3.271   4.399  13.816
50304W        W11835  13.633  19.751   2.262
50305W        W11836  43.418  28.103   3.195
50306W        W11837  23.184  19.604  11.024
50307W        W11838  37.519   3.954  12.071
50308W        W11839  11.723  27.945  11.949
50309W        W11840  31.470  34.106  12.389
50310W        W11841   5.829  44.301  10.969
50311W        W11842   4.290  38.880  14.989
50312W        W11843  31.931   8.231  12.421
50313W        W11844  26.183   4.863   0.782
50314W        W11845  31.028  36.577  13.533
50315W        W11846  17.146  30.019   0.296
50316W        W11847  36.355  31.991   0.316
50317W        W11848  23.686  12.840  10.426
50318W        W11849  44.819  11.333   0.280
50319W        W11850  14.745  19.245  14.471
50320W        W11851   7.299  11.314  13.019
50321W        W11852  39.880  44.286   0.342
50322W        W11853  20.244  43.411   3.289
50323W        W11854  30.942  18.683   1.423
50324W        W11855  44.486  15.238   0.897
50325W        W11856  30.558  27.062   4.773
50326W        W11857   2.454   4.703   2.834
50327W        W11858  30.909   5.260   2.243
50328W        W11859  27.083   1.930   4.753
50329W        W11860  43.011  39.467  13.513
50330W        W11861   7.864  42.796   0.300
50331W        W11862  41.514  22.216  12.370
50332W        W11863  14.151   0.799  13.807
50333W        W11864   3.234  44.928  11.881
50334W        W11865  39.964  30.487  12.047
50335W        W11866   7.307  25.687   1.395
50336W        W11867  37.533  43.417  13.829
50337W        W11868  27.157  35.396   3.371
50338W        W11869  37.892   4.218  10.499
50339W        W11870  33.461   7.398   1.445
50340W        W11871  12.346  13.671  14.897
50341W        W11872  39.054  41.829   4.741
50342W        W11873  42.878   4.892   5.212
50343W        W11874  28.451  43.780  13.459
50344W        W11875  23.716  21.070   3.666
50345W        W11876  10.356   9.783   2.727
50346W        W11877  32.997  42.477   4.234
50347W        W11878  14.265  42.425  12.946
50348W        W11879   9.659  28.169  13.929
50349W        W11880  19.282  25.472  13.032
50350W        W11881  37.523  15.822   1.852
50351W        W11882  20.161  38.343   3.849
50352W        W11883  20.273  36.417   0.397
50353W        W11884  21.551  27.168  13.412
50354W        W11885  34.938  34.046  10.542
50355W        W11886  31.965  22.078  11.375
50356W        W11887  10.868  27.998   3.342
50357W        W11888  39.986  26.683   3.316
50358W        W11889  17.679  36.373  11.918
50359W        W11890  37.941  15.266  13.521
50360W        W11891  44.331  14.725   2.191
50361W        W11892  32.133  44.881   1.751
50362W        W11893  27.138  23.141  14.839
50363W        W11894  19.618  34.509   2.352
50364W        W11895  19.170   4.861   0.912
50365W        W11896  28.622  19.165  14.509
50366W        W11897  24.215  34.930  12.934
50367W        W11898   2.447  23.013   5.113
50368W        W11899  24.542  18.731  13.003
50369W        W11900  36.081  24.711  13.011
50370W        W11901  23.194   7.906  12.487
50371W        W11902  21.609  31.940   2.364
50372W        W11903   4.860   6.377  11.563
50373W        W11904   9.165  20.134   2.232
50374W        W11905   9.846   3.339  13.372
50375W        W11906   3.780   1.735   3.333
50376W        W11907  19.590  19.095   4.180
50377W        W11908  38.440  38.384  12.894
50378W        W11909  39.833  23.577   0.424
50379W        W11910   6.318  32.136   3.216
50380W        W11911  28.623   4.751   2.328
50381W        W11912  22.504  19.680   0.832
50382W        W11913  13.730  16.641  12.403
50383W        W11914   7.174  38.465  10.481
50384W        W11915   9.255  29.058   4.653
50385W        W11916   2.304  26.122   1.295
50386W        W11917  10.369  42.331   1.828
50387W        W11918  30.637  15.662  14.889
50388W        W11919  42.443  18.113   0.358
50389W        W11920  29.109  10.323  13.385
50390W        W11921  43.931   9.768   2.784
50391W        W11922  25.656   2.798   0.882
50392W        W11923  33.892  14.201   1.706
50393W        W11924  26.108  23.538   3.794
50394W        W11925  36.398  18.758  11.426
50395W        W11926  13.838  24.009   4.182
50396W        W11927  43.912  37.461   1.929
50397W        W11928  36.541  10.172   3.372
50398W        W11929   6.242  10.263  14.497
50399W        W11930   3.741  34.904   0.375
50400W        W11931  22.138  30.586   2.857
50401W        W11932  29.043  13.305   3.761
50402W        W11933  27.445  27.052   0.307
50403W        W11934   6.906  27.556  14.973
50404W        W11935  21.035   5.266  12.405
50405W        W11936  36.909  11.767   3.262
50406W        W11937  41.925  41.515   3.736
50407W        W11938   5.335  15.190  12.962
50408W        W11939  27.684  11.203  11.946
50409W        W11940  32.912  20.191  11.074
50410W        W11941   9.299  38.401  13.517
50411W        W11942  37.897  30.966  10.984
50412W        W11943  11.239   8.774   1.929
50413W        W11944   4.809  33.434   2.869
50414W        W11945  11.167  15.148  13.315
50415W        W11946  27.642  26.685   2.229
50416W        W11947  32.422  41.464   2.881
50417W        W11948  30.468  17.762   0.788
50418W        W11949  17.262  15.811  14.957
50419W        W11950  44.447  12.771  14.357
50420W        W11951  30.088   5.407   0.766
50421W        W11952  32.887   9.166   2.891
50422W        W11953   5.780  33.948   3.783
50423W        W11954  38.570  36.457   4.646
50424W        W11955  25.049  10.140  12.393
50425W        W11956   0.461  11.635   1.801
50426W        W11957   1.480   3.897   2.880
50427W        W11958   3.308   5.852   1.786
50428W        W11959  29.028   4.819  13.519
50429W        W11960  34.500  27.588  13.466
50430W        W11961  33.614   7.830   3.265
50431W        W11962   6.239  40.493   2.830
50432W        W11963  10.217  10.243  10.537
50433W        W11964  32.517  32.630   2.309
50434W        W11965  35.471  33.903  13.876
50435W        W11966  30.911  13.815  11.079
50436W        W11967  38.854  32.901   4.336
50437W        W11968   0.426  37.359   0.735
50438W        W11969  43.437   3.263  10.029
50439W        W11970  13.241   6.909   2.415
50440W        W11971  25.985  38.001  12.576
50441W        W11972  12.200   6.359   1.380
50442W        W11973  37.580   7.280  12.457
50443W        W11974  44.842  41.377  10.570
50444W        W11975  28.631  38.408   2.746
50445W        W11976  34.011  18.217  10.952
50446W        W11977  43.430  27.592   4.711
50447W        W11978  10.265   2.763   2.417
50448W        W11979  30.629   3.361  13.042
50449W        W11980   1.878  28.435   0.370
50450W        W11981   4.352   8.681  10.931
50451W        W11982   6.334  10.860  11.940
50452W        W11983  36.446   8.383  13.500
50453W        W11984  33.381  19.735   1.340
50454W        W11985  14.659   2.849   4.638
50455W        W11986  40.487  25.971   1.281
50456W        W11987  16.220  25.509  10.477
50457W        W11988  39.009  28.004   1.737
50458W        W11989   6.254  23.194   4.261
50459W        W11990  43.959  29.926   2.753
50460W        W11991  11.261  32.602  12.580
50461W        W11992  15.289  29.142   4.322
50462W        W11993  20.533  28.110   2.249
50463W        W11994  34.901  40.831   0.828
50464W        W11995  32.486  25.645   1.920
50465W        W11996  23.040  30.492   2.375
50466W        W11997  25.066  42.925   3.691
50467W        W11998  28.975   7.716   1.879
50468W        W11999  36.015  39.391   2.303
50469W        W12000  16.250  33.535  13.458
50470W        W12001  12.251   6.695   0.755
50471W        W12002  11.137  37.020   0.453
50472W        W12003  24.694  32.898  13.492
50473W        W12004  41.797  26.673   1.318
50474W        W12005  34.518  26.961   3.181
50475W        W12006   1.819  15.271   1.285
50476W        W12007  29.514  14.740  11.049
50477W        W12008  31.454  37.980   4.657
50478W        W12009  26.493  41.335   1.415
50479W        W12010  28.599  25.712   1.409
50480W        W12011   4.845  37.976  10.405
50481W        W12012   2.776  43.365   4.245
50482W        W12013  31.956  12.815  12.877
50483W        W12014  14.747  11.661  14.937
50484W        W12015  25.985  17.214  14.283
50485W        W12016  19.248  19.128  13.947
50486W        W12017  13.160  16.126   2.312
50487W        W12018  25.558  14.126  12.464
50488W        W12019  41.808  24.001   2.398
50489W        W12020  30.001  10.220  13.018
50490W        W12021  11.267  13.833   4.817
50491W        W12022   2.254  31.597   3.363
50492W        W12023  19.043   6.278  10.598
50493W        W12024  26.994   9.364  13.891
50494W        W12025  34.083  33.064   2.346
50495W        W12026  26.536   9.758   5.710
50496W        W12027  11.778  42.989  10.084
50497W        W12028  19.669  35.509  14.872
50498W        W12029  42.340  26.483   0.342
50499W        W12030  15.768  34.445   1.344
50500W        W12031  44.774   7.285  11.521
50501W        W12032   6.326  35.567   2.272
50502W        W12033  15.741  20.147   3.825
50503W        W12034  10.637   4.750   3.644
50504W        W12035   2.933  37.980   3.154
50505W        W12036  13.312   9.655   3.367
50506W        W12037   7.837  40.444   0.476
50507W        W12038  32.562   6.677   4.182
50508W        W12039  15.187  27.463  12.982
50509W        W12040  10.267  36.901   1.906
50510W        W12041  28.050  42.838  10.536
50511W        W12042  25.711   0.369  13.403
50512W        W12043  18.734  34.991  13.850
50513W        W12044  10.800  15.211  12.043
50514W        W12045  13.619  40.432   0.759
50515W        W12046  44.397  22.116   1.744
50516W        W12047  33.947  42.963   4.646
50517W        W12048  39.925  42.460  12.047
50518W        W12049  27.482  11.674   2.729
50519W        W12050  12.835  44.008  13.051
50520W        W12051  39.820  41.485  11.035
50521W        W12052   9.149  34.911  14.792
50522W        W12053  35.934  36.392  12.371
50523W        W12054  12.637  30.463   3.739
50524W        W12055  16.277  24.584  14.387
50525W        W12056  15.594  25.706  11.938
50526W        W12057  23.142  20.748   0.770
50527W        W12058  32.041  39.441   0.347
50528W        W12059  40.950  19.213  12.922
50529W        W12060  36.570   6.919   2.306
50530W        W12061   1.363  34.408  13.323
50531W        W12062   3.329  26.967   2.696
50532W        W12063  42.439  22.569   3.279
50533W        W12064  17.785  24.152  14.903
50534W        W12065  34.590  35.944  11.458
50535W        W12066   8.166  34.516   3.778
50536W        W12067  11.322   7.400  11.873
50537W        W12068  26.485  26.635   4.704
50538W        W12069  13.728  34.439   4.250
50539W        W12070  34.017  43.899  10.994
50540W        W12071  33.449  26.605   3.364
50541W        W12072  36.581  13.835   4.240
50542W        W12073   2.392  33.125  12.026
50543W        W12074  14.628  43.765   4.245
50544W        W12075  34.376  25.512   1.701
50545W        W12076  25.613   0.874  13.331
50546W        W12077  43.811   3.719   1.810
50547W        W12078  10.817  37.501   0.868
50548W        W12079  29.543  29.454  13.003
50549W        W12080  32.582  37.060   9.974
50550W        W12081  31.500  43.983  10.591
50551W        W12082  41.015  29.573  10.539
50552W        W12083  15.667  43.275   0.453
50553W        W12084  11.775   5.923   9.930
50554W        W12085   9.803  35.984   2.740
50555W        W12086  17.688   8.378  13.318
50556W        W12087  10.684  11.317  12.875
50557W        W12088  30.016  38.438  13.047
50558W        W12089  23.008  36.379  14.767
50559W        W12090   8.359  28.002  13.934
50560W        W12091   1.807  25.514   1.253
50561W        W12092   2.434  34.396  11.562
50562W        W12093  31.596  12.769   3.258
50563W        W12094  28.570  35.010  12.340
50564W        W12095   3.278  20.056  13.347
50565W        W12096  30.066  23.206   3.346
50566W        W12097  35.931  30.415   2.788
50567W        W12098   6.273  40.806  14.004
50568W        W12099   5.415  12.271  10.618
50569W        W12100  15.668   1.311   3.799
50570W        W12101   2.257  16.224  13.310
50571W        W12102  39.557  26.064   0.822
50572W        W12103  14.790  11.190  10.474
50573W        W12104  19.558  35.001   1.800
50574W        W12105  32.402  44.817  11.036
50575W        W12106  33.502  26.187   0.284
50576W        W12107  13.272  44.949   4.597
50577W        W12108  17.661  38.455  14.791
50578W        W12109  35.490  25.513  11.899
50579W        W12110  10.719   3.302  13.051
50580W        W12111  21.631  37.419   2.387
50581W        W12112  17.707   1.794   3.786
50582W        W12113  11.689  40.353   4.238
50583W        W12114  20.757  32.077  12.466
50584W        W12115  40.826   5.344  11.415
50585W        W12116  35.495  20.240   3.861
50586W        W12117  24.655  22.518  14.799
50587W        W12118  24.190  22.502   1.246
50588W        W12119  22.527  42.856   4.728
50589W        W12120  30.470  23.697  13.353
50590W        W12121   2.967  11.829  12.992
50591W        W12122  43.273  30.495  13.492
50592W        W12123  41.916  20.099   2.827
50593W        W12124  18.184  35.388  11.551
50594W        W12125  11.319   5.885   1.322
50595W        W12126  28.550  19.702  11.999
50596W        W12127  42.816   2.453  14.466
50597W        W12128   4.382  25.130  14.338
50598W        W12129   5.427   8.323   3.215
50599W        W12130  31.947  35.035  10.623
50600W        W12131  17.112  13.342   4.185
50601W        W12132  22.187  22.119   2.294
50602W        W12133  28.077  42.514   1.306
50603W        W12134   8.167  17.094  10.896
50604W        W12135  17.579   4.926  14.849
50605W        W12136  27.516  12.636   4.827
50606W        W12137   1.761   2.381   1.424
50607W        W12138   2.745  12.731  13.864
50608W        W12139  22.206  17.745   0.763
50609W        W12140  27.584  16.795   3.301
50610W        W12141  12.186   2.460   2.261
50611W        W12142  15.125  14.799   1.271
50612W        W12143  39.514  41.817   3.290
50613W        W12144  16.305  36.905   2.195
50614W        W12145  15.743  13.624  12.434
50615W        W12146  21.664  24.571   4.327
50616W        W12147  18.241  38.401  12.364
50617W        W12148   5.384  17.140  10.546
50618W        W12149  37.934  20.753  11.094
50619W        W12150  40.002  22.668  12.369
50620W        W12151  27.991  37.436   0.861
50621W        W12152  27.033  14.805   2.275
50622W        W12153  24.693  40.026   0.967
50623W        W12154   1.433  17.190   4.830
50624W        W12155  12.795  17.185   2.287
50625W        W12156  26.564  28.098   0.396
50626W        W12157  35.002   3.444  10.464
50627W        W12158  38.035  34.871  14.937
50628W        W12159  35.383   6.186  12.073
50629W        W12160  41.952  42.399   4.123
50630W        W12161  26.597  23.710   3.719
50631W        W12162  21.565  25.963  12.870
50632W        W12163  43.941  33.566   3.670
50633W        W12164  36.915  31.097  12.367
50634W        W12165  36.507  25.143  14.900
50635W        W12166  20.545  44.264   4.182
50636W        W12167   8.351   1.273  14.305
50637W        W12168  34.931  31.897   5.219
50638W        W12169   9.825   9.795  12.473
50639W        W12170  18.609  10.806  11.605
50640W        W12171  24.583  43.324   0.730
50641W        W12172  25.980   6.710  14.835
50642W        W12173   8.750  24.191  14.412
50643W        W12174   6.827  23.528  14.907
50644W        W12175  39.999  14.268  12.988
50645W        W12176  21.697  37.003  12.005
50646W        W12177   4.398   0.848  11.602
50647W        W12178   6.913  43.401   4.653
50648W        W12179  29.008  30.124   3.640
50649W        W12180   7.180  39.019   4.774
50650W        W12181   7.295  31.617   4.139
50651W        W12182  14.834  35.573  11.073
50652W        W12183   4.302  19.718  14.848
50653W        W12184  23.585   3.370   1.700
50654W        W12185   3.436  36.464   3.344
50655W        W12186  43.953  30.541  13.030
50656W        W12187  41.813   6.265  13.926
50657W        W12188  36.565   8.168  11.004
50658W        W12189   4.303  43.443   1.893
50659W        W12190  42.896  28.657  11.534
50660W        W12191  13.829   2.790   1.865
50661W        W12192  38.482  16.255   2.360
50662W        W12193  31.418  31.130  13.839
50663W        W12194  39.922  41.407  13.929
50664W        W12195  27.961  31.937  13.415
50665W        W12196  19.083  42.944   1.849
50666W        W12197  12.768   3.221  13.494
50667W        W12198  34.605  26.063   1.930
50668W        W12199  11.361   6.743   0.247
50669W        W12200  33.486   1.957   2.312
50670W        W12201  42.445  33.583  14.277
50671W        W12202  38.032  41.437   3.255
50672W        W12203   1.855  35.384  11.955
50673W        W12204  33.080  26.591   4.665
50674W        W12205  29.937  33.951   1.710
50675W        W12206   9.810  29.097  14.328
50676W        W12207  27.455  14.318  14.333
50677W        W12208  18.745   2.364   1.856
50678W        W12209   6.724  37.931  12.970
50679W        W12210  19.685  25.676   3.846
50680W        W12211  10.716  43.475   3.178
50681W        W12212  18.684   8.236  13.856
50682W        W12213  41.005  39.516  12.953
50683W        W12214  26.209  41.331   0.839
50684W        W12215   1.380  13.754   0.750
50685W        W12216  26.107  41.835   1.329
50686W        W12217  19.101  35.937  13.343
50687W        W12218  24.064  31.920   1.743
50688W        W12219  12.294  29.016   2.753
50689W        W12220   4.801  11.705  11.934
50690W        W12221  43.354  26.007   3.382
50691W        W12222  30.594  16.225   1.245
50692W        W12223   4.363  41.407   1.876
50693W        W12224  24.710  24.066  13.511
50694W        W12225   5.389   0.810  14.368
50695W        W12226  43.015  10.152   3.285
50696W        W12227  18.221  40.424  14.963
50697W        W12228  39.908  17.293   0.480
50698W        W12229  27.619  20.067  14.387
50699W        W12230  28.020  41.410  13.889
50700W        W12231  32.517  30.024   1.793
50701W        W12232  23.009   7.413  11.431
50702W        W12233  36.588  37.078   1.750
50703W        W12234  32.950  24.553   2.243
50704W        W12235  39.037  42.893  11.879
50705W        W12236  17.646  33.492  14.772
50706W        W12237  29.025  12.739   1.341
50707W        W12238  19.656  20.135  13.913
50708W        W12239  40.953  27.981  11.581
50709W        W12240  30.964   2.274  11.022
50710W        W12241  26.548   6.371   0.416
50711W        W12242  33.093  20.205   3.697
50712W        W12243  12.781  10.846  12.449
50713W        W12244  29.614  31.468   1.850
50714W        W12245  25.038  21.106  12.443
50715W        W12246  21.520   3.438   2.299
50716W        W12247  26.011  26.568  10.002
50717W        W12248  18.113  27.571  11.022
50718W        W12249  30.510  39.947  12.922
50719W        W12250  17.610  41.963   2.688
50720W        W12251   1.971   8.751   2.701
50721W        W12252  28.002  23.014   2.345
50722W        W12253  37.343  11.147  14.763
50723W        W12254   7.211   2.445   3.222
50724W        W12255  10.790  32.527  11.519
50725W        W12256  30.929  28.062  14.385
50726W        W12257  27.484  33.553  14.999
50727W        W12258  34.045   7.270  10.963
50728W        W12259  14.204  18.277   3.859
50729W        W12260  24.565  28.068  13.412
50730W        W12261   9.812  16.780   2.818
50731W        W12262  11.841  43.317   3.317
50732W        W12263   7.203  18.708  11.555
50733W        W12264  38.441  43.383   2.751
50734W        W12265   0.425  39.832  13.315
50735W        W12266  26.160   1.805  12.916
50736W        W12267  36.027  33.080   0.892
50737W        W12268  30.142   2.723   0.312
50738W        W12269  32.594  40.824   2.731
50739W        W12270  23.073  25.024  14.387
50740W        W12271  34.438  15.096  11.515
50741W        W12272  24.543   1.300  13.455
50742W        W12273  34.068  30.516   5.296
50743W        W12274  32.429  39.530  12.487
50744W        W12275  40.527  40.965   0.303
50745W        W12276  41.358  22.692  10.639
50746W        W12277  21.718  15.325  12.980
50747W        W12278  32.406  39.549   1.708
50748W        W12279  27.186  27.098   4.741
50749W        W12280  40.537   8.199   1.856
50750W        W12281  17.152  34.445   4.180
50751W        W12282  20.110  30.058  10.579
50752W        W12283   4.751  16.222   0.308
50753W        W12284   1.924  34.611   2.374
50754W        W12285  37.376  33.474   4.833
50755W        W12286  16.806  29.492   1.351
50756W        W12287  36.587   6.685   1.859
50757W        W12288  33.438  42.297  13.895
50758W        W12289  35.500  16.664  12.546
50759W        W12290  43.288  11.854  13.453
50760W        W12291  25.202  39.917   0.917
50761W        W12292   7.857   7.216  11.372
50762W        W12293  44.379  40.834   1.902
50763W        W12294  12.857  17.062   2.824
50764W        W12295   4.357  18.719   2.250
50765W        W12296  40.873  31.485   0.824
50766W        W12297  26.141  23.215   4.607
50767W        W12298  33.588   1.751  12.985
50768W        W12299  39.401  26.976  12.390
50769W        W12300  31.598  10.772  14.405
50770W        W12301  38.010  15.176  10.934
50771W        W12302  24.703  43.410  12.483
50772W        W12303  15.581   9.762  12.015
50773W        W12304  28.182  31.414   4.717
50774W        W12305  20.610  26.654  14.007
50775W        W12306  21.184   3.271   1.407
50776W        W12307  31.601  19.650   0.371
50777W        W12308  26.205  26.008   3.305
50778W        W12309  11.170  15.289  11.385
50779W        W12310  40.841  14.112   3.203
50780W        W12311  43.398  29.105   0.281
50781W        W12312   7.325   8.708  14.828
50782W        W12313  25.672  12.753   1.767
50783W        W12314  16.086  41.020   1.228
50784W        W12315  44.462  34.399  14.797
50785W        W12316  18.227  23.641   2.769
50786W        W12317  15.242  20.187   2.823
50787W        W12318  18.766  35.399   3.702
50788W        W12319  10.141  41.859  10.474
50789W        W12320  20.609  15.229   4.633
50790W        W12321  15.137  33.459   2.207
50791W        W12322  33.463  27.508   1.350
50792W        W12323   6.281  19.249   0.370
50793W        W12324  42.308  28.098  14.991
50794W        W12325  34.459  16.765   5.126
50795W        W12326  28.499  26.600   0.914
50796W        W12327   9.298   3.721  12.976
50797W        W12328  31.148  44.775  14.007
50798W        W12329  39.944  23.130  11.864
50799W        W12330  33.076  15.767  13.481
50800W        W12331   1.882   7.293  12.422
50801W        W12332  39.537  33.468  14.348
50802W        W12333  23.604  16.792  11.052
50803W        W12334  30.650   9.696  14.473
50804W        W12335  17.800  16.080  12.445
50805W        W12336   7.674  43.374   0.473
50806W        W12337  13.299  20.041   4.800
50807W        W12338  19.779  28.586  13.982
50808W        W12339  43.794  32.503   4.779
50809W        W12340  19.543   8.900  10.973
50810W        W12341  16.738  28.167   1.385
50811W        W12342  36.987  11.131   3.652
50812W        W12343  36.991  15.215  10.555
50813W        W12344   8.740   7.792  10.987
50814W        W12345  33.124   0.817   4.720
50815W        W12346  28.520  27.052  13.367
50816W        W12347  17.665  25.013  13.315
50817W        W12348  33.601  13.706   3.823
50818W        W12349  36.091  20.561   2.770
50819W        W12350   6.294  19.171  11.505
50820W        W12351  20.576  16.621  11.863
50821W        W12352  32.534  11.658  12.569
50822W        W12353  44.779  26.576  12.949
50823W        W12354  19.540  39.345   0.852
50824W        W12355  43.914  40.342  10.570
50825W        W12356  10.647  21.093  10.595
50826W        W12357  14.310   2.255  13.457
50827W        W12358  44.867  24.044   2.814
50828W        W12359  17.123  44.865  11.958
50829W        W12360  21.143  11.242  13.051
50830W        W12361  38.345  34.560  10.641
50831W        W12362  21.608  37.831   2.393
50832W        W12363  13.177  18.708   0.289
50833W        W12364  26.198   2.449   2.350
50834W        W12365   4.883  40.044  10.032
50835W        W12366  29.025  22.078   3.154
50836W        W12367  40.453   7.388   5.175
50837W        W12368  28.436  10.229  12.477
50838W        W12369  10.673  25.004  10.546
50839W        W12370   2.866  34.909  12.405
50840W        W12371  43.975  24.481  14.802
50841W        W12372  44.778   8.215   0.352
50842W        W12373  13.323  43.437   2.751
50843W        W12374  29.583  12.642   2.697
50844W        W12375  33.616   7.797   3.812
50845W        W12376  17.290  17.158  12.998
50846W        W12377  38.993  43.828  14.300
50847W        W12378  21.232  23.674  11.403
50848W        W12379  26.142  24.983   0.353
50849W        W12380  15.739   5.929  10.994
50850W        W12381  26.511  19.709  11.930
50851W        W12382  34.956  24.604  14.857
50852W        W12383  24.096  29.925  13.522
50853W        W12384   1.912  43.948  10.948
50854W        W12385   7.250   6.789   3.771
50855W        W12386  32.551   6.199  11.488
50856W        W12387  27.490  40.911  11.555
50857W        W12388  25.511  27.984   4.344
50858W        W12389  25.551  42.816   4.158
50859W        W12390  40.500  27.036  14.408
50860W        W12391  35.077  22.056   4.761
50861W        W12392  36.444   5.750  13.973
50862W        W12393   0.770  39.828   2.399
50863W        W12394  29.028  19.633  11.125
50864W        W12395  44.483   3.826  10.413
50865W        W12396   6.354  35.911  12.965
50866W        W12397  14.771   4.802  10.063
50867W        W12398  26.626  27.016  14.415
50868W        W12399   1.926  32.472   1.759
50869W        W12400  42.280  23.103  12.438
50870W        W12401  16.604  23.736  12.379
50871W        W12402  24.017   8.805  14.352
50872W        W12403   2.291  25.041  14.356
50873W        W12404  38.926  22.007   4.300
50874W        W12405  12.645   7.362   3.276
50875W        W12406   4.394  20.119   4.822
50876W        W12407  36.841  39.980   2.748
50877W        W12408  19.133  11.263   3.209
50878W        W12409  20.041  27.181   3.792
50879W        W12410   2.807  12.654  10.605
50880W        W12411   8.701  28.088   2.747
50881W        W12412  15.751   9.233   5.309
50882W        W12413  20.171  11.761   3.161
50883W        W12414  29.529   0.767  11.455
50884W        W12415  37.385  39.318  13.042
50885W        W12416  38.864   0.879  11.985
50886W        W12417  29.529  14.783  10.585
50887W        W12418  24.229  24.057  11.060
50888W        W12419  20.690   3.379   1.710
50889W        W12420  11.626  11.184   3.325
50890W        W12421   4.716  19.058   2.670
50891W        W12422  25.512  16.171   0.915
50892W        W12423   2.340   0.300   2.357
50893W        W12424  38.340  36.925  11.408
50894W        W12425  38.512  18.071   1.334
50895W        W12426  17.261   1.900   4.622
50896W        W12427  44.269  29.446  10.437
50897W        W12428   9.645   0.483  14.377
50898W        W12429  33.505  29.944  14.910
50899W        W12430  27.652  21.720   4.697
50900W        W12431  25.582  21.134   1.901
50901W        W12432   9.174  36.362   1.344
50902W        W12433   4.423   7.849  13.798
50903W        W12434  32.907   0.469  11.983
50904W        W12435  18.114  25.627   2.837
50905W        W12436  27.493  18.776  13.925
50906W        W12437  14.253   3.917  12.022
50907W        W12438  23.592  18.153  11.983
50908W        W12439  43.971  20.230   4.659
50909W        W12440  33.597  19.196   1.703
50910W        W12441  12.302  43.307   4.183
50911W        W12442  32.414  36.901  13.361
50912W        W12443  20.223   6.375  14.313
50913W        W12444  44.858   9.774   4.774
50914W        W12445  25.082  24.122  13.836
50915W        W12446  30.987   2.838  13.953
50916W        W12447  30.960  21.188   2.302
50917W        W12448  14.215  44.428   1.236
50918W        W12449  43.013   6.289   3.185
50919W        W12450  32.529  24.575   4.141
50920W        W12451  20.129  34.110   3.379
50921W        W12452  16.730  34.585   1.430
50922W        W12453   2.793   2.427   0.302
50923W        W12454  25.988  36.432   4.119
50924W        W12455  15.796  19.619   3.727
50925W        W12456  36.572  24.679   4.611
50926W        W12457  25.615  21.633  11.028
50927W        W12458  10.796  35.580   2.685
50928W        W12459   7.821  10.191  10.925
50929W        W12460  25.617  12.623  11.009
50930W        W12461  21.239  26.555   3.299
50931W        W12462  39.365  41.372  10.611
50932W        W12463   7.287  12.808  14.280
50933W        W12464  31.954  37.575   3.363
50934W        W12465  10.263  21.666  14.957
50935W        W12466  35.883  16.302   2.829
50936W        W12467  32.465   6.217   4.664
50937W        W12468  33.537   7.729   0.897
50938W        W12469  30.045  19.695   2.901
50939W        W12470  34.587  40.536   1.372
50940W        W12471  36.844  17.117  12.437
50941W        W12472  35.914  19.610  13.030
50942W        W12473  15.084  32.535   2.409
50943W        W12474  34.093  37.526  12.991
50944W        W12475  10.673  24.109  14.504
50945W        W12476  26.634  33.442  12.370
50946W        W12477  14.146  29.578  14.405
50947W        W12478   9.297  25.975   2.891
50948W        W12479   4.708  24.022  11.476
50949W        W12480  20.047  13.230   3.741
50950W        W12481  12.259   8.395  11.931
50951W        W12482  32.502   2.427  13.014
50952W        W12483  21.225  25.217   3.313
50953W        W12484   5.333  37.443  14.510
50954W        W12485   3.796  35.499  13.990
50955W        W12486  17.660  28.133  14.512
50956W        W12487  10.678  10.771  14.026
50957W        W12488  28.473  13.633  11.383
50958W        W12489   6.407  29.061  13.840
50959W        W12490  16.662  44.436   4.609
50960W        W12491   6.816  26.547  10.904
50961W        W12492   7.191  23.679  10.518
50962W        W12493  13.821  42.472  13.014
50963W        W12494  32.972  34.958  12.972
50964W        W12495  22.593  24.681   2.194
50965W        W12496  30.455   8.201  12.972
50966W        W12497   5.800   2.909   3.330
50967W        W12498  38.943  12.162   1.854
50968W        W12499  11.681   7.898  11.921
50969W        W12500  10.301   6.909  14.925
50970W        W12501   2.811  39.064   3.249
50971W        W12502  11.747  29.450  11.040
50972W        W12503  10.700  28.550   3.638
50973W        W12504   0.812  11.280   3.859
50974W        W12505  16.720   6.846  10.465
50975W        W12506   2.794  36.526   1.925
50976W        W12507   3.371  39.540  10.641
50977W        W12508  28.123  29.979  10.591
50978W        W12509  13.319  17.082  10.998
50979W        W12510  20.261   1.942  12.484
50980W        W12511  17.716  40.430   0.297
50981W        W12512   1.786  12.261  13.792
50982W        W12513  44.988  37.343   1.446
50983W        W12514   5.897  21.750  11.914
50984W        W12515  11.164  35.443   2.693
50985W        W12516  42.858  10.840   4.658
50986W        W12517  27.163  40.322  14.822
50987W        W12518  19.207  40.839   1.289
50988W        W12519  42.316  32.621   2.709
50989W        W12520  41.797  36.078  10.584
50990W        W12521  19.559   4.893   4.316
50991W        W12522  20.211   5.774   1.344
50992W        W12523  19.775   4.837   0.380
50993W        W12524  24.048  28.971  12.466
50994W        W12525  29.621  25.129   3.371
50995W        W12526  35.487  36.512   9.462
50996W        W12527  30.001  11.811  12.079
50997W        W12528   0.874  20.658  12.026
50998W        W12529  35.434   4.226  13.827
50999W        W12530  36.987  41.855  12.094
51000W        W12531  20.756  13.338  12.387
51001W        W12532  33.059  30.432  14.459
51002W        W12533  36.478  35.415  14.362
51003W        W12534  43.018   0.827  10.431
51004W        W12535  35.073  36.529   4.630
51005W        W12536  27.493  12.312  12.828
51006W        W12537   9.701  43.927  11.033
51007W        W12538  10.744   0.327   0.819
51008W        W12539  16.648   3.345   0.413
51009W        W12540  36.969  38.534  13.368
51010W        W12541  27.036   5.209   2.413
51011W        W12542  21.528  14.795  10.415
51012W        W12543  39.897  19.190  12.960
51013W        W12544  20.688  10.714   2.335
51014W        W12545  15.230  32.601  14.360
51015W        W12546   8.854  12.648   3.701
51016W        W12547  14.778   2.471  14.422
51017W        W12548  22.022  30.139  13.799
51018W        W12549  36.910   2.272  11.103
51019W        W12550   7.190   4.781   1.361
51020W        W12551   1.742  20.531   0.748
51021W        W12552   1.864  44.756  12.499
51022W        W12553  39.321  24.577   4.339
51023W        W12554  10.263  36.093  14.789
51024W        W12555  16.657  13.179  13.886
51025W        W12556  15.762  39.812   0.371
51026W        W12557  21.093   1.848   0.280
51027W        W12558  20.187  44.412   3.158
51028W        W12559  25.538  27.014   1.305
51029W        W12560   4.252  43.923  12.396
51030W        W12561  26.157  35.957  12.531
51031W        W12562   0.337  29.438  13.526
51032W        W12563  35.065  32.092  10.979
51033W        W12564  34.460  16.589  11.392
51034W        W12565  18.579  32.504  13.980
51035W        W12566  35.551  19.106   4.624
51036W        W12567  23.176  10.274   1.800
51037W        W12568  10.814  23.104  11.124
51038W        W12569  31.968  36.532   1.853
51039W        W12570  36.964  23.229  10.599
51040W        W12571   8.889   1.963  13.488
51041W        W12572  34.544  12.648  10.901
51042W        W12573   8.271  19.202   0.735
51043W        W12574  18.293   5.692  13.339
51044W        W12575  30.024  44.900  10.544
51045W        W12576  34.059  28.473  14.478
51046W        W12577  25.984   2.791   4.644
51047W        W12578  12.276   6.320   4.284
51048W        W12579  43.794  29.443   4.309
51049W        W12580  35.979  28.057  11.981
51050W        W12581   5.241  33.482  12.090
51051W        W12582  18.107  44.991  14.821
51052W        W12583  40.030  27.612  11.903
51053W        W12584  18.610   2.865  13.531
51054W        W12585  28.570  24.056  10.980
51055W        W12586  36.908  36.910  10.625
51056W        W12587  13.270  26.506   3.810
51057W        W12588  29.432  42.490  14.914
51058W        W12589   1.961  14.605  13.830
51059W        W12590  39.976  10.685   3.155
51060W        W12591  35.044  43.887   3.810
51061W        W12592  15.277  37.051  13.453
51062W        W12593  34.979  40.522   0.771
51063W        W12594  29.087  41.829   1.788
51064W        W12595  26.609  38.552   4.633
51065W        W12596  30.617  25.161  14.936
51066W        W12597  13.141  11.663  11.936
51067W        W12598  40.055  36.364  14.875
51068W        W12599  13.706  40.371  13.371
51069W        W12600  14.324  25.493   5.317
51070W        W12601  22.657  44.286  13.917
51071W        W12602   8.790   0.817   0.804
51072W        W12603  19.238  31.986  11.964
51073W        W12604  10.299  25.008   4.636
51074W        W12605  38.480  29.955   1.349
51075W        W12606  14.623   5.207   4.166
51076W        W12607  43.784  21.706   1.836
51077W        W12608   8.200  15.745  13.441
51078W        W12609   9.367   3.449   3.191
51079W        W12610  21.748  20.049  14.485
51080W        W12611  22.185  13.256  10.482
51081W        W12612  30.915  17.084   2.721
51082W        W12613  44.377  40.462  11.102
51083W        W12614   4.235  11.309   3.815
51084W        W12615  41.530  27.499  10.491
51085W        W12616  12.693  13.144   4.221
51086W        W12617  17.688  13.251   3.198
51087W        W12618  30.157  42.786   0.313
51088W        W12619  41.337  26.968  11.069
51089W        W12620   4.427  18.568   3.201
51090W        W12621   9.200  32.604  10.976
51091W        W12622  17.709  32.892  10.409
51092W        W12623   6.753  36.885  10.603
51093W        W12624   5.322  18.770   4.715
51094W        W12625  37.939   3.369   5.216
51095W        W12626   5.713  32.453   2.246
51096W        W12627  17.085  40.418  13.882
51097W        W12628  36.997  10.226  14.490
51098W        W12629  33.446   2.393  13.872
51099W        W12630   7.858   2.300  13.994
51100W        W12631  19.126  41.822   1.898
51101W        W12632   1.446  11.134   4.329
51102W        W12633   8.317   7.405  13.473
51103W        W12634  44.292  24.660   2.410
51104W        W12635  32.964  26.606  12.894
51105W        W12636  28.460  16.227   1.790
51106W        W12637   3.352   2.869  13.497
51107W        W12638  26.105   0.311  11.451
51108W        W12639  43.766  43.501   1.442
51109W        W12640  27.096  22.726   0.361
51110W        W12641  18.102  34.071   0.731
51111W        W12642  31.014  12.165   3.364
51112W        W12643  16.193  10.878   1.406
51113W        W12644  38.032  35.488  11.021
51114W        W12645   3.293   6.387  13.936
51115W        W12646  19.632  38.496  13.448
51116W        W12647  19.547  19.593  14.286
51117W        W12648  30.448   9.653  11.872
51118W        W12649  35.855   0.979   2.238
51119W        W12650  26.500  40.003   0.294
51120W        W12651  22.078  11.363  11.050
51121W        W12652  18.242  13.109   4.237
51122W        W12653  33.593  41.314   1.270
51123W        W12654  18.052  19.177   4.174
51124W        W12655  34.892  43.415  11.391
51125W        W12656  41.349  31.614  11.544
51126W        W12657  36.361  25.101   5.114
51127W        W12658  34.463  10.805  12.482
51128W        W12659  32.523   9.348  12.402
51129W        W12660  23.505   8.317   4.219
51130W        W12661  31.972  12.670   2.891
51131W        W12662  38.902   1.874   1.711
51132W        W12663  20.265  34.523   3.776
51133W        W12664  19.128  36.381  12.400
51134W        W12665  35.092  40.384  12.578
51135W        W12666  33.101  17.185   0.378
51136W        W12667   3.251  10.319  14.021
51137W        W12668   8.680  20.177   2.694
51138W        W12669  37.568  35.409  13.545
51139W        W12670  14.100   2.932   3.773
51140W        W12671   0.880   7.838   3.220
51141W        W12672   6.787  28.003  11.122
51142W        W12673  44.259  34.932   2.845
51143W        W12674  31.509   9.317   3.322
51144W        W12675  26.150  35.867  13.809
51145W        W12676  34.375  31.035  11.026
51146W        W12677  28.184  24.608  14.405
51147W        W12678  43.429  11.224  13.460
51148W        W12679  43.402  23.620  11.465
51149W        W12680  33.498   6.709   1.393
51150W        W12681  15.229  33.956  13.996
51151W        W12682  11.223   5.923   2.803
51152W        W12683  34.953  28.118   3.194
51153W        W12684  20.186  41.846   1.904
51154W        W12685  18.268   2.452  14.799
51155W        W12686  19.112  14.208   0.251
51156W        W12687  36.981  16.775  10.528
51157W        W12688  27.023  31.502   0.478
51158W        W12689   6.328  15.242  12.950
51159W        W12690  32.938  31.125   0.935
51160W        W12691  40.847  42.943   1.885
51161W        W12692  32.411  43.493  13.057
51162W        W12693  19.153  25.697  13.928
51163W        W12694  43.010  36.571   3.750
51164W        W12695  27.481  37.914   4.712
51165W        W12696  19.086  28.137   2.322
51166W        W12697  10.372   9.859   2.190
51167W        W12698  13.746   2.265   0.955
51168W        W12699  14.316   7.241  12.930
51169W        W12700  10.674  16.790   1.334
51170W        W12701   8.317  36.851   4.644
51171W        W12702  31.483  29.966   1.290
51172W        W12703   2.280  24.700  13.010
51173W        W12704  10.795  34.583  12.392
51174W        W12705  31.144   7.859  12.929
51175W        W12706  35.985  17.206  14.932
51176W        W12707  15.810  32.528   1.316
51177W        W12708  31.459  36.574   1.813
51178W        W12709  23.512  23.042  13.025
51179W        W12710  38.532  12.151  10.456
51180W        W12711  34.956  16.746   5.193
51181W        W12712  18.209  23.170  14.950
51182W        W12713  14.269  16.589  10.891
51183W        W12714  14.254  42.492  12.072
51184W        W12715  13.816  36.947  12.445
51185W        W12716  35.109  31.636   4.828
51186W        W12717  16.211   8.683  12.544
51187W        W12718  13.148  28.665  12.545
51188W        W12719  29.450   2.302   4.161
51189W        W12720  40.486   7.207  10.133
51190W        W12721   0.362   3.274   2.354
51191W        W12722  19.653   4.882   3.707
51192W        W12723  43.988  10.728  12.579
51193W        W12724  41.858  10.184   3.672
51194W        W12725  24.058  32.956   0.383
51195W        W12726  10.819  43.414  14.484
51196W        W12727  38.050   0.803   2.666
51197W        W12728  21.019  30.416   2.305
51198W        W12729   7.288  24.695  12.348
51199W        W12730  16.213  37.971   0.370
51200W        W12731  33.078  25.538   4.135
51201W        W12732   3.884   1.340   0.857
51202W        W12733  11.174  25.666   0.762
51203W        W12734  10.140  16.187  11.955
51204W        W12735   1.860  37.561  10.948
51205W        W12736  30.454   0.298   2.316
51206W        W12737  19.254  38.530  12.975
51207W        W12738  33.081  43.374  14.901
51208W        W12739   2.728  18.611  14.380
51209W        W12740  44.373  30.046   4.666
51210W        W12741  13.780  22.182   1.354
51211W        W12742  22.696  11.835   3.311
51212W        W12743  11.767  21.215   1.907
51213W        W12744  23.163   2.373   2.735
51214W        W12745  39.355   6.908  13.387
51215W        W12746  42.373  32.450  13.061
51216W        W12747  24.569  26.178   1.434
51217W        W12748  29.031  15.176  14.841
51218W        W12749  31.445  39.457   0.407
51219W        W12750   5.742  35.369  10.909
51220W        W12751  15.269  44.814   1.699
51221W        W12752  20.658  36.422   5.685
51222W        W12753  42.491  12.163  12.849
51223W        W12754  26.615  27.078  14.781
51224W        W12755  40.500  35.035   4.242
51225W        W12756   6.368  24.977  14.367
51226W        W12757  35.466   5.745   3.864
51227W        W12758  38.020  19.214   0.900
51228W        W12759  19.682  37.393  11.422
51229W        W12760  17.279  29.076  12.397
51230W        W12761   4.400  26.579  13.034
51231W        W12762  41.456  28.022   2.341
51232W        W12763  36.890  15.632  14.432
51233W        W12764  17.202  34.391   0.936
51234W        W12765  36.463  37.860   3.260
51235W        W12766  40.007  41.314   3.152
51236W        W12767   1.805  44.994  13.842
51237W        W12768  14.111   1.874   3.205
51238W        W12769  27.529  40.478   0.791
51239W        W12770  37.866  32.399   2.238
51240W        W12771  13.842  15.599  10.932
51241W        W12772  42.975  42.952  13.410
51242W        W12773  17.755  31.643   3.781
51243W        W12774  17.067   7.885   1.751
51244W        W12775  43.405  40.494   0.450
51245W        W12776  15.193  19.122   2.376
51246W        W12777  42.450  25.986  13.329
51247W        W12778   3.214  20.152   0.359
51248W        W12779  37.501   7.187   3.347
51249W        W12780  13.234  39.346   4.737
51250W        W12781  18.782  33.379  12.370
51251W        W12782  37.069  26.694   4.792
51252W        W12783  30.027  28.968  12.863
51253W        W12784  15.715  43.454  14.925
51254W        W12785  40.374  30.528  13.985
51255W        W12786  44.785  14.212  14.281
51256W        W12787  12.350   1.741  12.458
51257W        W12788  16.085   4.218  11.551
51258W        W12789  42.852   3.744   3.630
51259W        W12790  22.578   0.904  14.426
51260W        W12791  16.277   6.908   3.264
51261W        W12792  23.207  40.812  14.309
51262W        W12793  43.831  40.941   0.813
51263W        W12794  40.332  39.555  11.079
51264W        W12795  26.489  21.245   5.322
51265W        W12796  43.332  22.174  14.411
51266W        W12797  43.874  32.453  13.522
51267W        W12798  21.733   1.856  12.510
51268W        W12799  10.376  16.183   0.261
51269W        W12800  21.511   9.733  13.051
51270W        W12801  22.537   1.343  12.552
51271W        W12802  31.573  26.998  13.891
51272W        W12803  23.529  28.163  10.465
51273W        W12804   2.313  19.204  13.322
51274W        W12805  24.494  10.803  13.911
51275W        W12806  22.054  15.714   0.848
51276W        W12807  13.827  14.791   0.858
51277W        W12808  41.993  30.022  10.433
51278W        W12809   2.308   8.390   4.287
51279W        W12810  20.541  36.914   0.775
51280W        W12811  30.595  22.171  10.531
51281W        W12812  36.583   6.247   3.155
51282W        W12813  41.482  36.894  11.585
51283W        W12814  27.685  39.439   2.211
51284W        W12815  29.100  24.551  13.374
51285W        W12816   3.347  38.852  13.913
51286W        W12817  18.178  14.129   2.263
51287W        W12818  31.032   6.335   0.904
51288W        W12819  14.264  37.549   4.652
51289W        W12820   3.227  42.905   0.379
51290W        W12821   1.472  18.089  10.931
51291W        W12822  16.309  19.656  14.322
51292W        W12823   8.339  15.317   3.653
51293W        W12824  37.069  19.076   3.718
51294W        W12825  29.467  10.243   2.843
51295W        W12826  26.168   2.438   0.423
51296W        W12827  20.086  10.185  12.427
51297W        W12828  25.494   3.448   0.360
51298W        W12829  37.505  14.617   4.715
51299W        W12830  31.937  18.293   3.858
51300W        W12831   3.893  33.887   2.245
51301W        W12832  41.413  22.620   2.418
51302W        W12833  12.844  37.929   2.876
51303W        W12834  24.135  15.187   3.146
51304W        W12835  18.291  41.818  13.945
51305W        W12836  29.135  33.098   4.132
51306W        W12837   0.815  31.903   1.286
51307W        W12838  20.755  13.244  14.973
51308W        W12839  11.267  44.388  12.000
51309W        W12840   4.756  17.154   4.628
51310W        W12841  12.361   5.314   0.354
51311W        W12842  34.411  24.658  14.838
51312W        W12843  12.650  30.938  14.891
51313W        W12844  33.959   9.166  13.043
51314W        W12845  39.348  39.542  14.394
51315W        W12846   5.904   6.290  14.967
51316W        W12847  39.981  22.140   3.774
51317W        W12848  25.469  33.554  11.542
51318W        W12849  41.904  26.469   0.318
51319W        W12850  19.081  37.976   1.386
51320W        W12851  22.506  24.140   0.435
51321W        W12852  33.127  15.598   1.911
51322W        W12853  41.386  24.003  10.519
51323W        W12854  42.490  33.594   4.709
51324W        W12855  20.194  43.856  13.845
51325W        W12856  28.008  10.647   0.730
51326W        W12857  35.913   8.248  14.355
51327W        W12858  12.769   4.879  12.459
51328W        W12859  29.518   7.378  10.570
51329W        W12860  33.501  39.935   9.570
51330W        W12861  42.310  23.156  11.048
51331W        W12862   5.887  13.122  11.119
51332W        W12863   3.751  15.722  12.947
51333W        W12864  41.532  33.614   2.664
51334W        W12865  37.348  29.488  12.898
51335W        W12866  12.839  42.485   3.867
51336W        W12867   5.859  24.709   2.341
51337W        W12868  34.605  10.787   3.348
51338W        W12869  36.848  35.500   4.123
51339W        W12870  18.132  36.538  11.899
51340W        W12871   1.772  22.583  10.469
51341W        W12872  43.009  42.889   2.745
51342W        W12873  31.132  37.863   4.832
51343W        W12874  18.620  37.896   4.766
51344W        W12875   7.792  37.958   1.756
51345W        W12876  28.126  14.314   9.952
51346W        W12877  13.351  34.075  12.375
51347W        W12878  33.573  41.802  13.842
51348W        W12879  36.438  35.859   3.211
51349W        W12880  21.063  17.751  12.576
51350W        W12881   3.947   1.314  13.828
51351W        W12882  22.176   8.255  13.925
51352W        W12883  37.369  30.060  13.949
51353W        W12884  20.631  21.197   4.728
51354W        W12885   4.862  17.063   5.309
51355W        W12886  26.164  13.713  13.476
51356W        W12887  28.622   9.174   1.419
51357W        W12888  14.205   4.392  10.106
51358W        W12889  35.076  11.670   4.279
51359W        W12890   2.254   6.722   2.276
51360W        W12891   2.344   1.385   0.248
51361W        W12892  26.142  42.350   0.413
51362W        W12893  42.390   4.702   0.752
51363W        W12894  21.135  11.800   1.232
51364W        W12895  19.185  32.426   2.686
51365W        W12896  33.552  15.623   2.796
51366W        W12897  14.742  21.024   4.210
51367W        W12898  23.552  41.935   3.815
51368W        W12899  31.113  13.645   3.381
51369W        W12900  30.124  26.531  14.404
51370W        W12901  36.535  24.137   2.347
51371W        W12902  25.003  37.488  12.914
51372W        W12903  39.895   0.846   1.345
51373W        W12904  29.106  10.183   4.752
51374W        W12905  18.652   2.323  11.989
51375W        W12906  13.692  14.295  11.877
51376W        W12907  41.311  19.274   4.606
51377W        W12908  32.399  37.382   3.849
51378W        W12909   4.235   0.798  10.408
51379W        W12910  33.980  28.679   1.718
51380W        W12911  25.500  19.558   1.872
51381W        W12912  18.059   1.454   0.832
51382W        W12913  19.265  41.902  14.306
51383W        W12914  17.670  10.368   0.290
51384W        W12915  39.834  17.166   1.792
51385W        W12916  27.947  41.392  12.092
51386W        W12917  22.686  29.926   3.357
51387W        W12918   1.355  16.744  11.548
51388W        W12919  41.494  31.058  12.384
51389W        W12920  38.499  23.008   2.302
51390W        W12921  26.684  19.665   2.236
51391W        W12922   3.737  30.038  14.944
51392W        W12923   7.709  21.747   3.754
51393W        W12924   8.658  25.630   5.156
51394W        W12925  40.512  39.843   2.718
51395W        W12926  28.960  38.538  14.284
51396W        W12927  25.195  40.496  14.830
51397W        W12928   3.415  38.887   4.703
51398W        W12929  37.893  11.701  14.781
51399W        W12930  12.847   3.256  14.327
51400W        W12931  29.444  44.307   1.816
51401W        W12932  40.429  30.637  12.879
51402W        W12933  21.042   8.883  10.933
51403W        W12934  28.143   9.771  12.975
51404W        W12935  23.071   9.779  10.991
51405W        W12936  25.674  14.671   3.377
51406W        W12937  18.598   1.827   4.612
51407W        W12938   2.942  44.943  13.399
51408W        W12939  13.249  10.182  14.970
51409W        W12940  11.623  42.324   1.886
51410W        W12941  25.073  13.341  13.322
51411W        W12942  20.662  33.996  12.397
51412W        W12943  24.640  30.155  14.809
51413W        W12944  15.639  22.587   4.215
51414W        W12945  19.121  23.618  12.461
51415W        W12946  26.588  16.682   3.784
51416W        W12947  35.478  40.339  14.343
51417W        W12948  30.579  32.008  13.463
51418W        W12949  23.724   5.321   0.483
51419W        W12950  29.946  17.766  14.445
51420W        W12951  18.101  15.212  13.370
51421W        W12952  43.941  39.937   0.782
51422W        W12953  18.250   6.747   0.944
51423W        W12954  29.602  40.339  11.001
51424W        W12955  16.281  44.966  13.830
51425W        W12956  12.318  19.764   3.216
51426W        W12957  25.130  12.198   1.760
51427W        W12958  19.101   9.884   0.932
51428W        W12959  35.911  21.151   0.891
51429W        W12960  31.978   9.706   1.362
51430W        W12961  19.730   0.874  12.063
51431W        W12962  35.564  10.288  12.083
51432W        W12963  15.242  25.540  13.362
51433W        W12964  18.719  16.306   0.956
51434W        W12965  44.329  22.142   0.432
51435W        W12966  32.092  28.935   3.361
51436W        W12967  14.787  12.686   3.850
51437W        W12968   5.398  14.761   3.262
51438W        W12969  36.503   0.873  12.910
51439W        W12970  36.392  41.310   2.335
51440W        W12971  41.352   3.249   3.815
51441W        W12972  27.062  10.681   4.606
51442W        W12973  22.186  26.591  14.464
51443W        W12974  27.018  41.895   4.181
51444W        W12975  29.014  15.264  13.435
51445W        W12976   9.155  23.140  12.923
51446W        W12977  37.579   9.298  11.978
51447W        W12978  31.928  12.695   4.315
51448W        W12979  18.697   9.328   4.801
51449W        W12980  30.144  19.113  13.795
51450W        W12981  15.713  30.501  11.099
51451W        W12982   7.224   9.767  13.441
51452W        W12983  16.626   0.443   3.251
51453W        W12984  23.056  26.511   5.083
51454W        W12985  33.971  30.462   2.247
51455W        W12986   9.669  32.580   3.763
51456W        W12987  17.069  10.358  12.092
51457W        W12988  37.847  14.815  13.977
51458W        W12989  25.596  37.060  10.545
51459W        W12990   8.204  35.444  11.385
51460W        W12991  40.927  27.015  12.962
51461W        W12992  27.139  35.017   1.246
51462W        W12993  18.619  43.835  12.869
51463W        W12994  15.284  28.181   1.381
51464W        W12995  37.526  12.313  10.899
51465W        W12996   0.326  16.599   4.286
51466W        W12997  25.203  18.191   0.322
51467W        W12998  19.627  11.198  10.949
51468W        W12999  40.934  37.017  14.984
51469W        W13000  21.668  18.720   0.248
51470W        W13001   0.347  21.735   4.641
51471W        W13002  27.096  28.110  10.950
51472W        W13003   1.799  26.076   0.336
51473W        W13004  13.759  32.445  11.946
51474W        W13005   2.318   4.383  11.103
51475W        W13006  17.088  42.882   4.266
51476W        W13007  34.048  35.036  11.983
51477W        W13008  32.020   1.897   0.748
51478W        W13009  20.762  41.988  10.601
51479W        W13010   5.813  33.905  10.562
51480W        W13011  39.012   0.351  11.057
51481W        W13012  31.987  32.085  12.571
51482W        W13013  36.470  20.618  11.000
51483W        W13014  26.030  42.004  14.848
51484W        W13015  34.920  23.068  11.972
51485W        W13016  17.629   0.397  11.532
51486W        W13017  17.582  26.667  11.885
51487W        W13018  36.392  19.630  12.991
51488W        W13019   2.807  31.586  10.490
51489W        W13020   9.151  13.785  11.464
51490W        W13021  33.500   9.323  10.159
51491W        W13022  27.474  32.630  11.124
51492W        W13023   1.341  20.050  10.584
51493W        W13024   3.387  32.140  14.334
51494W        W13025   5.386   3.312  14.432
51495W        W13026  18.633  41.859   1.311
51496W        W13027  27.175   9.758   4.815
51497W        W13028  35.935  13.271  13.436
51498W        W13029   8.363   1.391   0.926
51499W        W13030   4.767  44.400   3.815
51500W        W13031  16.274  24.525   3.821
51501W        W13032  23.614   7.688   2.801
51502W        W13033  38.347   7.210  12.559
51503W        W13034  38.470  10.729   4.762
51504W        W13035  22.652  11.218   1.386
51505W        W13036  31.077   3.418  13.993
51506W        W13037   7.362  16.246  13.382
51507W        W13038  37.972  23.076   3.356
51508W        W13039  42.907  33.407  14.363
51509W        W13040  24.605  41.008   3.677
51510W        W13041   1.871  14.273  11.006
51511W        W13042  30.989  43.936   4.240
51512W        W13043  18.665   6.327  12.534
51513W        W13044  37.341  39.944   3.176
51514W        W13045   7.737  23.578   1.286
51515W        W13046  16.681  36.526   4.188
51516W        W13047  35.993  14.606   0.414
51517W        W13048  41.928  31.969  14.284
51518W        W13049  26.472  41.402   2.808
51519W        W13050  10.700   2.268  10.509
51520W        W13051  14.193  34.082  12.431
51521W        W13052   9.269  20.149   0.480
51522W        W13053   0.785  36.405  12.432
51523W        W13054  24.103  38.434   3.728
51524W        W13055  33.498  34.880  14.952
51525W        W13056  13.619  33.433  12.405
51526W        W13057  34.545  16.704  12.498
51527W        W13058  27.559   1.888  12.418
51528W        W13059  31.416  39.372  13.446
51529W        W13060  23.496   0.856   4.784
51530W        W13061  31.130  41.880  10.627
51531W        W13062  30.432   2.805  14.367
51532W        W13063   9.312  28.653   1.847
51533W        W13064  43.505  31.101  10.622
51534W        W13065  27.542  34.581  13.368
51535W        W13066   1.255  37.083  11.597
51536W        W13067   7.384  27.120   4.124
51537W        W13068  13.336  31.036   0.469
51538W        W13069   3.403  35.082  12.055
51539W        W13070  41.344   3.224  11.472
51540W        W13071  13.259  32.448   5.682
51541W        W13072   4.397   9.349  11.459
51542W        W13073  18.113  29.659  14.029
51543W        W13074  22.503  37.849   5.295
51544W        W13075  27.691  15.329  13.825
51545W        W13076  14.139  14.291   4.704
51546W        W13077  15.133  23.601  10.104
51547W        W13078  14.326  13.676   0.808
51548W        W13079   1.410  23.626   3.259
51549W        W13080   2.910  38.846   1.399
51550W        W13081  33.043   1.465   2.875
51551W        W13082  38.913  41.847   3.827
51552W        W13083   8.843  23.231   0.739
51553W        W13084  10.721   5.238  12.540
51554W        W13085  43.329  20.164   4.338
51555W        W13086  38.400   2.945  14.369
51556W        W13087  29.001  39.813   0.353
51557W        W13088  11.790   0.438   1.341
51558W        W13089  10.156  44.926   2.697
51559W        W13090  30.060  23.131  10.543
51560W        W13091  29.109  19.136  12.832
51561W        W13092  13.810   2.790  14.804
51562W        W13093  16.242  29.602  12.929
51563W        W13094  40.503  35.561   4.305
51564W        W13095  39.004  30.538   0.764
51565W        W13096   8.726  34.590  10.625
51566W        W13097  18.620  26.544   0.933
51567W        W13098  11.667  39.900  13.050
51568W        W13099   1.741  21.747   1.284
51569W        W13100  10.832   1.374   3.783
51570W        W13101  21.662  37.066   3.842
51571W        W13102   5.882  25.636  13.964
51572W        W13103  41.343   1.349  11.405
51573W        W13104  43.361  41.504  10.898
51574W        W13105  35.020   6.770  14.351
51575W        W13106  17.097  34.033  14.810
51576W        W13107  37.011   2.926  10.908
51577W        W13108   9.309  26.187  12.496
51578W        W13109   5.782   0.984  14.497
51579W        W13110  23.542  30.939  12.823
51580W        W13111  36.982   4.244  14.001
51581W        W13112  28.032  38.411  10.073
51582W        W13113  44.447  33.984  13.488
51583W        W13114  20.713  37.067   5.784
51584W        W13115   7.691   6.836   2.360
51585W        W13116  28.447  25.013  11.418
51586W        W13117  13.739  19.060  11.373
51587W        W13118  38.511   8.662   5.796
51588W        W13119   1.264  34.902  12.863
51589W        W13120  26.678  41.367  13.814
51590W        W13121  22.135  28.674   0.364
51591W        W13122   7.216  17.152   1.854
51592W        W13123  31.543  22.687   3.321
51593W        W13124   5.845  11.131   4.606
51594W        W13125   9.326   1.456   3.655
51595W        W13126  35.417   7.884  13.856
51596W        W13127   9.737  21.060   9.953
51597W        W13128  22.078  19.727  12.836
51598W        W13129  29.545   7.791  11.413
51599W        W13130  40.972   8.824  14.515
51600W        W13131   9.828   9.204   3.370
51601W        W13132  23.184  15.091   4.208
51602W        W13133   2.950  31.583   1.701
51603W        W13134  19.695   7.278  14.027
51604W        W13135  44.992  23.598  12.489
51605W        W13136  33.909  26.492   3.192
51606W        W13137  34.889  21.154   5.242
51607W        W13138  44.419  24.004   0.908
51608W        W13139  20.626  40.405   0.426
51609W        W13140  44.004  33.104   1.913
51610W        W13141  36.501  15.705   2.411
51611W        W13142  16.641  11.762  12.857
51612W        W13143  18.619  32.443   4.295
51613W        W13144  17.566  16.281   3.853
51614W        W13145  29.550  33.102  10.612
51615W        W13146  16.203   7.700   2.720
51616W        W13147  12.119  20.578   1.865
51617W        W13148   8.301  33.444   4.147
51618W        W13149  33.911  42.460  13.455
51619W        W13150  44.477  11.272   3.849
51620W        W13151  33.403   6.305  14.370
51621W        W13152  22.564  26.641   1.729
51622W        W13153  25.473  37.341  11.520
51623W        W13154  43.386  25.214   5.120
51624W        W13155  10.779   0.357  10.932
51625W        W13156   2.726   5.277   0.876
51626W        W13157   9.264  41.949  10.615
51627W        W13158  26.973  29.591   2.861
51628W        W13159  16.112  12.804   1.913
51629W        W13160  41.350   2.937   4.687
51630W        W13161  12.190  14.111   4.169
51631W        W13162  29.084   0.842  12.512
51632W        W13163  30.161  16.237  13.518
51633W        W13164  30.651  35.910  12.014
51634W        W13165   7.255  41.477   1.257
51635W        W13166  19.546  27.464   1.737
51636W        W13167  23.574  16.745   0.728
51637W        W13168   6.414  31.992   5.168
51638W        W13169   9.730  19.249  11.934
51639W        W13170  42.027  38.034  12.054
51640W        W13171  35.033  21.073  10.504
51641W        W13172  17.612   7.410   2.330
51642W        W13173  40.526  21.210   3.302
51643W        W13174  37.837   7.336  11.609
51644W        W13175  27.988   4.896  10.992
51645W        W13176  25.043  38.418   1.823
51646W        W13177   2.288  20.247  14.854
51647W        W13178  33.548  13.642  11.950
51648W        W13179  18.125  39.842  11.982
51649W        W13180  35.506  39.512   0.859
51650W        W13181  35.563   8.223   1.432
51651W        W13182  41.866  31.044   0.760
51652W        W13183  34.427   5.831  14.992
51653W        W13184  24.556  16.575  14.993
51654W        W13185  25.119   3.228  14.467
51655W        W13186  23.193  37.476   4.709
51656W        W13187  28.074  21.110  10.943
51657W        W13188   0.370  30.658  14.856
51658W        W13189  23.636  18.203   0.459
51659W        W13190  41.817   2.887  13.871
51660W        W13191  21.091   6.362   1.836
51661W        W13192  21.653  26.640  10.460
51662W        W13193  27.686  24.539   1.326
51663W        W13194   3.367  16.802  10.969
51664W        W13195   7.777  16.164   2.229
51665W        W13196  33.502  20.140  13.411
51666W        W13197   9.359  42.020  12.827
51667W        W13198  23.015   2.343  11.589
51668W        W13199   3.266   7.857  12.061
51669W        W13200  25.631  40.937  11.895
51670W        W13201  21.675  28.489  13.519
51671W        W13202  11.274  34.524   3.847
51672W        W13203   8.272  28.630   2.664
51673W        W13204  24.019  11.758   1.713
51674W        W13205  43.990  18.239  12.923
51675W        W13206  41.434  32.586  14.838
51676W        W13207  16.275  18.723   2.332
51677W        W13208  11.169   3.381  11.449
51678W        W13209  15.735  22.151  11.014
51679W        W13210  25.063  23.202   4.148
51680W        W13211  30.154  19.770  10.506
51681W        W13212  36.461  42.506   3.719
51682W        W13213  29.057   0.742  11.859
51683W        W13214  35.861   6.321  10.511
51684W        W13215   9.247  33.938   4.310
51685W        W13216   1.316  39.834  13.375
51686W        W13217   5.785  11.736  14.922
51687W        W13218  20.146  23.706  10.450
51688W        W13219  30.914  25.658  14.504
51689W        W13220   8.179   7.206   2.380
51690W        W13221  40.323   3.428   1.697
51691W        W13222  27.003   2.811  11.584
51692W        W13223  23.184   5.869  11.600
51693W        W13224   1.439  36.540   4.337
51694W        W13225   8.769  36.018  12.542
51695W        W13226  33.492   6.706   2.315
51696W        W13227   7.785  29.164  13.810
51697W        W13228  10.845   3.322   5.747
51698W        W13229  24.035  21.537  11.858
51699W        W13230  21.131  11.772  12.936
51700W        W13231  29.932  17.279   0.827
51701W        W13232  26.168  34.525   1.737
51702W        W13233  35.083  28.444   0.765
51703W        W13234  27.456  29.986   3.330
51704W        W13235  35.074  44.990   1.876
51705W        W13236   2.946  21.176   2.760
51706W        W13237  31.467  24.544  13.392
51707W        W13238   5.829  32.116   1.309
51708W        W13239  37.398  20.568  11.399
51709W        W13240   2.896  18.083   3.773
51710W        W13241  31.085  15.795  14.363
51711W        W13242  35.430  26.104   4.604
51712W        W13243  19.163   4.826   3.366
51713W        W13244  16.085  27.067  13.546
51714W        W13245  22.590   0.772  12.486
51715W        W13246   1.765  29.940  11.462
51716W        W13247   9.301  29.525  11.372
51717W        W13248   6.714  44.936   0.375
51718W        W13249  31.006   8.841  12.001
51719W        W13250  21.240   8.712   2.385
51720W        W13251  23.533   7.191   2.415
51721W        W13252   6.871   4.423  12.912
51722W        W13253  40.990  13.313   0.267
51723W        W13254  25.500  34.400   2.688
51724W        W13255  16.740  25.603  13.958
51725W        W13256  41.934   5.792  12.468
51726W        W13257  40.511  32.928  13.427
51727W        W13258  29.091   4.799  12.922
51728W        W13259  31.987   2.854  13.379
51729W        W13260  39.889  28.531   0.449
51730W        W13261  29.055  36.936   3.668
51731W        W13262  12.684  22.165   2.254
51732W        W13263  10.840  35.040  14.418
51733W        W13264  41.295  37.985  10.914
51734W        W13265  32.890  35.583  11.927
51735W        W13266   0.298   3.280   3.248
51736W        W13267  41.525  18.735   2.248
51737W        W13268  42.376  24.607  11.470
51738W        W13269   1.434  22.665  13.055
51739W        W13270  11.216  14.221  13.821
51740W        W13271  21.590  33.533  14.318
51741W        W13272   5.871  31.096   2.335
51742W        W13273   5.238   1.757   0.397
51743W        W13274  32.628  15.602  14.293
51744W        W13275  35.863  35.040   0.407
51745W        W13276   0.491  44.336  14.385
51746W        W13277   8.695  21.160   2.712
51747W        W13278  12.834  34.044  14.362
51748W        W13279  39.482   0.338  12.351
51749W        W13280  17.592  27.608   2.362
51750W        W13281  34.071  37.491  11.482
51751W        W13282   9.236  19.603  14.858
51752W        W13283   6.198   6.680  14.820
51753W        W13284  32.037  13.129   5.287
51754W        W13285  25.638  32.097   3.339
51755W        W13286  42.480  35.389   0.370
51756W        W13287  14.309  43.983   9.950
51757W        W13288  14.591   6.723   0.872
51758W        W13289  17.608   9.688  11.096
51759W        W13290  15.269  32.396  11.464
51760W        W13291  14.797  44.791  14.823
51761W        W13292   7.322  14.605   2.709
51762W        W13293  32.958   1.364  14.954
51763W        W13294  14.146  22.656   2.779
51764W        W13295   7.384   9.378   1.803
51765W        W13296  12.284   0.808   4.818
51766W        W13297  36.394  29.652  13.828
51767W        W13298   0.894   4.368   9.922
51768W        W13299  42.411  30.601  11.487
51769W        W13300   7.727  24.500  10.581
51770W        W13301  40.404  11.283  12.357
51771W        W13302  32.099   9.827   0.806
51772W        W13303  34.970  33.478   4.160
51773W        W13304   8.376   2.798   0.887
51774W        W13305  39.959  41.512  14.759
51775W        W13306  38.957  33.948  11.595
51776W        W13307  33.081  33.964   2.875
51777W        W13308  44.818   9.789   2.298
51778W        W13309   1.449  39.478  11.392
51779W        W13310  15.665  13.323   1.331
51780W        W13311   6.333  33.559  10.042
51781W        W13312   2.277  13.610  13.424
51782W        W13313   1.251  31.086  13.803
51783W        W13314  36.424  22.508   1.735
51784W        W13315  12.838  43.794  11.966
51785W        W13316  13.630   4.908  12.401
51786W        W13317  15.146  14.241   2.788
51787W        W13318  35.044  17.743   2.734
51788W        W13319  35.535  27.601   1.297
51789W        W13320  41.810   4.307   1.715
51790W        W13321  12.624   6.315   3.680
51791W        W13322  36.556  17.788   2.315
51792W        W13323   6.204  35.385  13.022
51793W        W13324  28.061  20.587  10.453
51794W        W13325  15.114  15.679  14.975
51795W        W13326  25.706   3.884  14.401
51796W        W13327   3.248  30.007  11.098
51797W        W13328   3.436  43.505  14.000
51798W        W13329  37.418   2.860  11.968
51799W        W13330  42.462  16.279  12.830
51800W        W13331   6.729  32.124   4.227
51801W        W13332  35.358  36.963  12.366
51802W        W13333  17.642  24.021   4.168
51803W        W13334  26.988  24.127   3.794
51804W        W13335  28.591  23.688  11.443
51805W        W13336  35.555  14.670   3.684
51806W        W13337  24.196  29.100   0.364
51807W        W13338  24.220  36.851  11.463
51808W        W13339  13.630  19.236   2.822
51809W        W13340  33.513   2.956  11.983
51810W        W13341   6.809  29.426   0.798
51811W        W13342  39.436   5.293  11.508
51812W        W13343  33.122  42.404   3.215
51813W        W13344  38.354  40.371   2.683
51814W        W13345   1.284  19.560  12.950
51815W        W13346  25.513  17.789   3.261
51816W        W13347   3.255  28.008  14.847
51817W        W13348  44.386  28.085  10.616
51818W        W13349  41.002   3.379  11.372
51819W        W13350  27.541  13.213  10.600
51820W        W13351  10.805   8.244  12.943
51821W        W13352  41.378  22.144  13.326
51822W        W13353   8.392   2.434   1.730
51823W        W13354  20.737  41.016  10.904
51824W        W13355  27.631   5.861  11.087
51825W        W13356  14.748  19.159  11.022
51826W        W13357  43.929   8.694   2.239
51827W        W13358  35.987  17.737   1.298
51828W        W13359  26.472  20.550   2.764
51829W        W13360   0.890  28.674  14.859
51830W        W13361  22.159  25.471  11.910
51831W        W13362  37.446  14.156  11.535
51832W        W13363  32.902  12.818  14.001
51833W        W13364  10.305  29.527  13.812
51834W        W13365   1.734   6.385  11.089
51835W        W13366  11.207  25.164  14.844
51836W        W13367  15.819  16.312  12.444
51837W        W13368  15.243  36.541  11.529
51838W        W13369   7.810  35.096  12.519
51839W        W13370  29.946  44.287   4.808
51840W        W13371  29.636  38.881  12.061
51841W        W13372  10.179   3.241   3.780
51842W        W13373  17.593  18.695  12.861
51843W        W13374  22.184  19.200   4.778
51844W        W13375   0.339   5.921  14.516
51845W        W13376  10.212   5.774   0.412
51846W        W13377  34.105  42.358   0.817
51847W        W13378  13.243  13.211  12.084
51848W        W13379  14.170  42.989  12.492
51849W        W13380  20.043   5.715   2.778
51850W        W13381  35.978  38.368   2.677
51851W        W13382  24.183  32.609  11.519
51852W        W13383  40.319  22.584  12.499
51853W        W13384   1.876  13.826  11.458
51854W        W13385   3.925   8.697  10.959
51855W        W13386  27.614  26.471   4.784
51856W        W13387   4.268  20.032  14.943
51857W        W13388   3.370  27.961   4.316
51858W        W13389  35.503  35.494   5.116
51859W        W13390  23.573  29.093   3.212
51860W        W13391  22.516  25.009   3.690
51861W        W13392  26.560  14.223   0.739
51862W        W13393  39.345  20.663   1.324
51863W        W13394  12.795  29.534   0.749
51864W        W13395  32.437   1.932   5.212
51865W        W13396  44.839  31.454  14.006
51866W        W13397   4.313   3.405   3.778
51867W        W13398  31.507  28.182  14.917
51868W        W13399  28.565  11.178   1.292
51869W        W13400  10.798   9.290  13.854
51870W        W13401  13.168  37.931  13.536
51871W        W13402  37.426  24.498  14.912
51872W        W13403   5.734   9.313  13.934
51873W        W13404  36.590   4.281   3.208
51874W        W13405  24.166  11.213  14.940
51875W        W13406  32.467   8.350   3.843
51876W        W13407  33.054  33.950  10.524
51877W        W13408  27.037   5.905  11.857
51878W        W13409   2.411  39.043  13.977
51879W        W13410  10.291  22.206  14.818
51880W        W13411  14.326  16.172  11.870
51881W        W13412  40.518  19.729   4.311
51882W        W13413  26.558  44.824  14.314
51883W        W13414  18.113  44.354  14.997
51884W        W13415  27.988  32.059   4.122
51885W        W13416  41.344  32.478   3.150
51886W        W13417  20.689  27.474  14.882
51887W        W13418  24.203  29.961   0.787
51888W        W13419  39.387  44.502  13.400
51889W        W13420  30.123  18.128  12.937
51890W        W13421   8.245   1.828   2.880
51891W        W13422  16.590  40.854  14.763
51892W        W13423  11.328   8.896   0.427
51893W        W13424  27.605  31.987   2.704
51894W        W13425   4.306  44.482   2.384
51895W        W13426  18.226  15.638   1.802
51896W        W13427   2.235  26.955  11.944
51897W        W13428  38.978   2.291   0.950
51898W        W13429  30.428   9.224   3.217
51899W        W13430   5.396  30.574  11.036
51900W        W13431  36.934  36.988  10.029
51901W        W13432  37.473  38.391   2.891
51902W        W13433  15.676  27.103   5.268
51903W        W13434  40.827  31.583  14.359
51904W        W13435   4.848  10.259  13.385
51905W        W13436  17.251  20.562   4.692
51906W        W13437  39.485  36.407   2.204
51907W        W13438  44.815   5.884   3.282
51908W        W13439  11.626  33.023  10.492
51909W        W13440  24.167  30.603  13.024
51910W        W13441  33.458  17.739   0.921
51911W        W13442  23.690  22.602   4.629
51912W        W13443  29.548  20.116   4.247
51913W        W13444  14.271  37.966   1.802
51914W        W13445  34.960  21.062   4.608
51915W        W13446   9.352  32.939  14.375
51916W        W13447  36.017   8.200   0.751
51917W        W13448  19.057  24.598   2.738
51918W        W13449  22.719  27.159   3.814
51919W        W13450  34.095  44.345   4.217
51920W        W13451  38.525  41.039   3.789
51921W        W13452  10.767  34.527   2.183
51922W        W13453   7.326  27.988  10.411
51923W        W13454  27.546  14.234  12.936
51924W        W13455  31.040  12.125   0.320
51925W        W13456  24.974   1.350  13.032
51926W        W13457  11.155  40.054   3.658
51927W        W13458  20.706  18.091   4.308
51928W        W13459  13.233   2.769   0.273
51929W        W13460  38.377  36.366   0.464
51930W        W13461  43.447  20.669   0.448
51931W        W13462  11.176  30.439  12.076
51932W        W13463  37.526   1.444   3.232
51933W        W13464  30.006   6.325  14.779
51934W        W13465  22.013  23.503  14.031
51935W        W13466  20.099  27.545  10.580
51936W        W13467   9.770  41.449  11.914
51937W        W13468   2.810  10.818   1.777
51938W        W13469   2.466  11.720   2.361
51939W        W13470  31.429  13.708  13.853
51940W        W13471  26.556  43.008   1.404
51941W        W13472  18.227   0.927  10.450
51942W        W13473  39.338  14.790   3.851
51943W        W13474  10.290  22.677   0.418
51944W        W13475  33.059  32.005  11.559
51945W        W13476  41.462  43.979   4.169
51946W        W13477  16.273  21.708   0.418
51947W        W13478   0.304   7.819   0.747
51948W        W13479  11.645   5.283  11.508
51949W        W13480  24.186  38.558  13.504
51950W        W13481   4.878  44.458   5.182
51951W        W13482  23.205  27.541  11.012
51952W        W13483  41.842  35.070   3.288
51953W        W13484  17.612  10.364   0.825
51954W        W13485  10.809  17.586   3.277
51955W        W13486  18.789  41.971  14.992
51956W        W13487  36.522  31.540  13.990
51957W        W13488  29.455  31.964   3.636
51958W        W13489   2.956  32.113  11.510
51959W        W13490  44.927  10.681  12.846
51960W        W13491  27.655  27.152  13.017
51961W        W13492  10.307  20.599   0.726
51962W        W13493  23.677  22.710  14.332
51963W        W13494  33.602  42.820  14.418
51964W        W13495  25.069  27.555   0.376
51965W        W13496  24.036  11.246   2.694
51966W        W13497   1.750   7.877   0.801
51967W        W13498  10.700  27.957   2.367
51968W        W13499  10.156  13.662  12.383
51969W        W13500   8.823  42.974  10.494
51970W        W13501  12.729  10.793   3.799
51971W        W13502  37.367  27.660  13.803
51972W        W13503  44.496  10.685  11.480
51973W        W13504  18.203  29.079   4.182
51974W        W13505   2.300   2.804  14.824
51975W        W13506  44.354   8.236   0.317
51976W        W13507  40.388  34.959  10.902
51977W        W13508  26.646  20.210   2.225
51978W        W13509  10.645  23.731   3.387
51979W        W13510  39.517  31.092   0.727
51980W        W13511  36.475  41.974  13.436
51981W        W13512  15.771  25.567   2.229
51982W        W13513   6.684  29.479  14.388
51983W        W13514   9.383  28.554   3.185
51984W        W13515   1.883   5.713  12.054
51985W        W13516  41.370  40.482   4.651
51986W        W13517   6.367  25.175   2.865
51987W        W13518   9.248  30.987  11.564
51988W        W13519  27.590  21.667   2.377
51989W        W13520  15.628  39.546  14.419
51990W        W13521  16.100   4.778  10.947
51991W        W13522  40.841  44.982  14.001
51992W        W13523  39.837  38.064   2.189
51993W        W13524  11.364  13.234   3.254
51994W        W13525  38.478  19.197   0.918
51995W        W13526  13.344  27.679  10.442
51996W        W13527  23.522   8.213   1.217
51997W        W13528  27.571  19.174  14.886
51998W        W13529  18.667  31.043   4.341
51999W        W13530   9.342  40.487   4.264
52000W        W13531  27.576  10.636  14.441
52001W        W13532   4.264   1.868   0.793
52002W        W13533  40.874  21.745   2.185
52003W        W13534  39.986  40.008  11.548
52004W        W13535  21.643  19.551   2.869
52005W        W13536  26.471  14.125   1.221
52006W        W13537  38.527  38.450  14.480
52007W        W13538   3.417   2.299  13.902
52008W        W13539  13.711   9.674   3.351
52009W        W13540   2.452   4.238   0.386
52010W        W13541  43.489  17.626  10.458
52011W        W13542  39.815  20.709  12.858
52012W        W13543  16.092  23.070   4.653
52013W        W13544  33.032  41.309  14.354
52014W        W13545   0.355   4.203   1.869
52015W        W13546  36.397  25.473  11.102
52016W        W13547  27.548   1.775  11.595
52017W        W13548   2.866  25.666  12.525
52018W        W13549  34.481  23.207   4.242
52019W        W13550  40.984   7.312  13.900
52020W        W13551  24.594  33.019   3.659
52021W        W13552  33.911  42.819  10.598
52022W        W13553  34.968   4.232  13.802
52023W        W13554  35.968   3.276  14.982
52024W        W13555  26.525   0.982  13.934
52025W        W13556  10.875   6.331   2.399
52026W        W13557  20.525  28.168  13.055
52027W        W13558   2.787  37.471   1.438
52028W        W13559  31.996  18.228   0.922
52029W        W13560  43.951  17.270   3.171
52030W        W13561   2.918  11.248   3.845
52031W        W13562   2.436   5.296  13.382
52032W        W13563   9.282  20.215   1.737
52033W        W13564  36.087  18.080   2.249
52034W        W13565   7.328  26.531   4.259
52035W        W13566  25.620  35.876   1.830
52036W        W13567  20.190  19.582  13.914
52037W        W13568  21.662  12.232  14.487
52038W        W13569   4.794   1.827   2.726
52039W        W13570  27.479  18.632   0.447
52040W        W13571   9.838  34.977  14.456
52041W        W13572  25.683  35.586   0.812
52042W        W13573  43.415  29.920   4.121
52043W        W13574   1.254   2.738   1.307
52044W        W13575  41.390  42.379  10.510
52045W        W13576  43.001  33.618   2.243
52046W        W13577   0.443  40.877   0.450
52047W        W13578  41.378  29.490   2.373
52048W        W13579  37.555  21.528   0.812
52049W        W13580  11.746  29.012  10.407
52050W        W13581   8.359  29.444   3.341
52051W        W13582  12.621   8.695  12.561
52052W        W13583   7.179  28.640  11.033
52053W        W13584  27.176   6.381  11.450
52054W        W13585   4.314  35.515   4.634
52055W        W13586   5.433  36.024   4.731
52056W        W13587  10.877  34.002  13.420
52057W        W13588  36.517   8.771   2.366
52058W        W13589  43.894  18.763   1.706
52059W        W13590  36.098  27.689  12.021
52060W        W13591  20.256   1.262   2.275
52061W        W13592  15.677  23.615  11.453
52062W        W13593  44.300  27.084   0.412
52063W        W13594  29.607  20.259  12.345
52064W        W13595  33.077  17.139   1.270
52065W        W13596  17.798  41.340  14.798
52066W        W13597  21.034  38.383   0.729
52067W        W13598   2.814  21.727   0.932
52068W        W13599   8.814  31.023  13.380
52069W        W13600  18.767  43.847  14.310
52070W        W13601  15.321  27.507   3.223
52071W        W13602  28.993  28.161   3.789
52072W        W13603  10.160  10.783  10.622
52073W        W13604   3.359  31.020   1.391
52074W        W13605  35.576  12.173   9.673
52075W        W13606  19.209   3.444   3.794
52076W        W13607  14.130  43.845  11.560
52077W        W13608  34.884  20.039  14.447
52078W        W13609  42.843  31.577  13.395
52079W        W13610  14.225   9.208  13.414
52080W        W13611   5.746  39.552  12.043
52081W        W13612   2.265  27.131   4.333
52082W        W13613  31.920  28.568  10.605
52083W        W13614  24.117  27.039  13.524
52084W        W13615  32.064  36.578   0.774
52085W        W13616  44.959  43.772   0.482
52086W        W13617   4.274  15.207  14.412
52087W        W13618  36.364  25.613   3.240
52088W        W13619  14.605  26.688  14.895
52089W        W13620  38.925  11.758  13.526
52090W        W13621   0.308   6.403  14.935
52091W        W13622  41.828   9.656  13.311
52092W        W13623   4.833  13.652   4.319
52093W        W13624   9.242   3.752  11.950
52094W        W13625  19.050   9.858   1.422
52095W        W13626  27.630  43.373   1.864
52096W        W13627  21.625   7.901  11.111
52097W        W13628  16.233  25.144   3.188
52098W        W13629  19.274  26.649  12.090
52099W        W13630  44.301  12.230   4.602
52100W        W13631  30.509  14.163   2.840
52101W        W13632  44.382  37.980   2.677
52102W        W13633  28.163   2.371   1.411
52103W        W13634  28.554  42.303   3.178
52104W        W13635  15.613  21.640  10.092
52105W        W13636   5.834   5.900  14.797
52106W        W13637  26.659   0.400  13.808
52107W        W13638  10.313  27.146  14.345
52108W        W13639  44.367  22.067   1.372
52109W        W13640   7.404  27.586  14.848
52110W        W13641  21.134  38.969  10.497
52111W        W13642  28.045  26.597  14.497
52112W        W13643  37.461   7.308  13.897
52113W        W13644  28.512  34.433   0.782
52114W        W13645  40.456   7.252   3.274
52115W        W13646  14.265  19.687  14.872
52116W        W13647   0.916  17.770  12.900
52117W        W13648  25.123  15.183   3.151
52118W        W13649  33.076  26.623   4.337
52119W        W13650  36.971  38.951  13.392
52120W        W13651  20.629  19.214  11.495
52121W        W13652  18.296  26.577   1.380
52122W        W13653  28.137  26.176  14.321
52123W        W13654  41.852  24.565  11.374
52124W        W13655  44.860  11.622  11.893
52125W        W13656  11.818  11.236   4.205
52126W        W13657  38.867  41.356  11.965
52127W        W13658  32.451   9.182   3.357
52128W        W13659   1.440  22.699  14.947
52129W        W13660  41.922  11.698  10.078
52130W        W13661  28.119  19.718   0.249
52131W        W13662  37.348  34.101  12.980
52132W        W13663   6.389  11.729   5.314
52133W        W13664  24.114  17.603  10.970
52134W        W13665  44.800  22.569   3.223
52135W        W13666  24.978  38.454   2.192
52136W        W13667  40.918  36.991  10.983
52137W        W13668  13.608  31.064   1.815
52138W        W13669  15.195  20.538  12.892
52139W        W13670  11.268  30.530  14.824
52140W        W13671  40.989  31.459   4.233
52141W        W13672  18.732   5.350   0.810
52142W        W13673  18.721  41.407   0.459
52143W        W13674  21.067  17.773   1.850
52144W        W13675  11.760   0.428  13.904
52145W        W13676  14.692  36.901  12.343
52146W        W13677  24.128  33.590   2.302
52147W        W13678  39.481   3.431  10.572
52148W        W13679   8.698   5.360   2.211
52149W        W13680   2.258  29.990  11.112
52150W        W13681   9.271  34.485   0.924
52151W        W13682  25.540   6.386   4.653
52152W        W13683  41.464  18.294   0.279
52153W        W13684  40.526  27.053   2.859
52154W        W13685  42.347  24.587  12.875
52155W        W13686  39.024   8.360   1.706
52156W        W13687  37.564  25.704   2.413
52157W        W13688  17.182   2.319   1.308
52158W        W13689  13.681  21.621   0.819
52159W        W13690   4.908  22.014   3.269
52160W        W13691  16.706   6.218  13.393
52161W        W13692   0.895  30.022  10.938
52162W        W13693  23.241  32.460   2.234
52163W        W13694  26.606  16.302   3.199
52164W        W13695  33.917  11.136   3.293
52165W        W13696   1.251  19.683  13.879
52166W        W13697  38.365  33.912   2.367
52167W        W13698  33.492  22.234  10.922
52168W        W13699  11.341  37.498  12.081
52169W        W13700  28.935  12.198  10.943
52170W        W13701   2.276  12.199   0.907
52171W        W13702  27.500  28.062  14.335
52172W        W13703  14.647  12.636   1.399
52173W        W13704  27.999   6.414  13.054
52174W        W13705  21.630  10.651  11.603
52175W        W13706  19.203  22.033  13.825
52176W        W13707  42.965  36.577   0.892
52177W        W13708  20.763  25.053  10.118
52178W        W13709  43.309   9.225   4.139
52179W        W13710  34.613  26.639  11.950
52180W        W13711  39.933  28.941  14.355
52181W        W13712  29.535  42.969   4.238
52182W        W13713  32.406   5.269  10.582
52183W        W13714  39.990   7.346   3.343
52184W        W13715  36.019  21.735   2.202
52185W        W13716  11.212   2.264  12.433
52186W        W13717  31.481   4.756  11.934
52187W        W13718   3.421  28.477   9.573
52188W        W13719   7.360   0.974  12.534
52189W        W13720   7.339  19.535   4.786
52190W        W13721  12.256   7.674   1.364
52191W        W13722  34.000  24.068   4.159
52192W        W13723  37.851  11.224  10.609
52193W        W13724  19.693  16.224   0.418
52194W        W13725  31.599  20.660   4.687
52195W        W13726  19.651  37.898  10.142
52196W        W13727   5.752  27.516  13.504
52197W        W13728  27.582  21.623   0.771
52198W        W13729  16.248  39.889  12.536
52199W        W13730   2.790  17.610  14.305
52200W        W13731  21.681  41.901  12.074
52201W        W13732  33.888  17.774  11.932
52202W        W13733  11.231  37.948  12.564
52203W        W13734   5.205  33.409  12.877
52204W        W13735  11.327  31.989   4.628
52205W        W13736  37.572  18.285   4.144
52206W        W13737  15.767  31.617   1.787
52207W        W13738  29.573  24.605  14.989
52208W        W13739   5.269  17.776  12.521
52209W        W13740  20.095   2.368  10.960
52210W        W13741  30.558  36.044  11.001
52211W        W13742  17.577  23.701   4.320
52212W        W13743  40.002  13.131   3.759
52213W        W13744   0.446   2.456   3.793
52214W        W13745  42.478  37.975   0.912
52215W        W13746  31.582  40.372  13.829
52216W        W13747  25.095  42.466   2.404
52217W        W13748   8.863   9.298   0.838
52218W        W13749  40.320  33.968  10.429
52219W        W13750  10.737  13.209  13.852
52220W        W13751   1.405  23.563   0.420
52221W        W13752  22.252  14.116  10.544
52222W        W13753  24.641  30.105   0.404
52223W        W13754  16.279  31.442  12.075
52224W        W13755  34.014  33.513   3.337
52225W        W13756   7.263  38.908   0.906
52226W        W13757   6.814  24.015   0.862
52227W        W13758  37.953  18.116  10.598
52228W        W13759  22.104  15.261  14.852
52229W        W13760  24.994  44.294   3.362
52230W        W13761  13.677   2.741   3.735
52231W        W13762  34.422   5.822  12.362
52232W        W13763  15.712  43.772  14.947
52233W        W13764  40.411  32.078   4.144
52234W        W13765  43.349  27.661   0.728
52235W        W13766  13.270  40.799   1.861
52236W        W13767   3.949  35.096   0.822
52237W        W13768   4.705  29.527   1.320
52238W        W13769  35.507  40.017   0.344
52239W        W13770  30.607  13.256   0.423
52240W        W13771  43.793  27.139   2.230
52241W        W13772   9.732  34.116   2.835
52242W        W13773  14.823  10.733  10.430
52243W        W13774  35.502  36.865   3.687
52244W        W13775   9.789  42.474   3.843
52245W        W13776  25.524  43.446   2.183
52246W        W13777   1.800   3.815   4.218
52247W        W13778  28.942  16.602  13.792
52248W        W13779  11.755  28.156  14.831
52249W        W13780   1.313  26.052   3.273
52250W        W13781   9.371  13.741   3.222
52251W        W13782  21.198  25.980   4.281
52252W        W13783  36.899  28.046  10.623
52253W        W13784  12.729  28.063  11.930
52254W        W13785   6.873  22.105   3.853
52255W        W13786   5.380  13.631  14.363
52256W        W13787   2.227  10.830  12.868
52257W        W13788  33.451  21.198  11.532
52258W        W13789  39.900  24.556  14.311
52259W        W13790  24.096   7.688   4.175
52260W        W13791  42.892  16.588  13.990
52261W        W13792  26.080  16.661   2.788
52262W        W13793  12.620  37.412   2.296
52263W        W13794  29.111  38.429   3.706
52264W        W13795  37.373  33.599  14.832
52265W        W13796  14.764  30.005  14.967
52266W        W13797  34.966  34.942   9.963
52267W        W13798  41.378  22.050  14.445
52268W        W13799  29.001  12.316   3.189
52269W        W13800  38.074  25.009  14.772
52270W        W13801   9.809   7.910  12.528
52271W        W13802   6.385  41.487   1.245
52272W        W13803  43.941  43.453   3.634
52273W        W13804  28.983  11.148  14.899
52274W        W13805  32.561  15.819   3.303
52275W        W13806  44.316  16.674   0.871
52276W        W13807  31.028  33.912  10.477
52277W        W13808   5.870  44.439   2.243
52278W        W13809  31.120  30.554   4.807
52279W        W13810  31.143   9.371   1.352
52280W        W13811   3.232  11.201  10.544
52281W        W13812  18.156  26.008   2.298
52282W        W13813  32.114   8.199  14.466
52283W        W13814  21.752  26.639   3.740
52284W        W13815   3.434  44.826  14.298
52285W        W13816  35.043  21.230   0.269
52286W        W13817  37.022  25.147   4.645
52287W        W13818  16.251  11.743  12.080
52288W        W13819  30.022  20.231   4.604
52289W        W13820  34.525  16.616  14.424
52290W        W13821   6.334   9.234   0.794
52291W        W13822  31.587  44.801  13.467
52292W        W13823   8.746  38.036   3.345
52293W        W13824  30.939   2.294  13.853
52294W        W13825  14.129  34.387  11.927
52295W        W13826  18.553  40.020   2.198
52296W        W13827  43.417  30.932  12.505
52297W        W13828  27.460   2.233  11.065
52298W        W13829  11.686  43.789  14.389
52299W        W13830  22.678   2.912  12.503
52300W        W13831   3.740  28.618   9.943
52301W        W13832   5.859  15.722   3.199
52302W        W13833  23.735  28.665   4.834
52303W        W13834  33.015   6.906   3.677
52304W        W13835   9.211  34.056  12.995
52305W        W13836  27.967  10.313   4.782
52306W        W13837   9.765   0.293  10.133
52307W        W13838  24.632  38.548   5.144
52308W        W13839   9.751  39.560  12.026
52309W        W13840   4.370   7.282  14.871
52310W        W13841  28.021  11.724   1.373
52311W        W13842  12.179  16.763   1.867
52312W        W13843  29.459  27.617  11.486
52313W        W13844  33.464  21.641   1.748
52314W        W13845  32.500  23.201  12.536
52315W        W13846  25.160  31.045   3.272
52316W        W13847  28.042  12.651  11.993
52317W        W13848  34.463  19.563   3.285
52318W        W13849  24.712  13.187   2.382
52319W        W13850  11.323  32.911   0.849
52320W        W13851  41.044  24.200   2.371
52321W        W13852  43.913  36.520   0.805
52322W        W13853  14.203  26.516  11.503
52323W        W13854  38.846  21.178  14.478
52324W        W13855   9.852  14.224  11.554
52325W        W13856  27.953  11.146  13.823
52326W        W13857   3.768   4.933  10.533
52327W        W13858  26.171  41.484  10.939
52328W        W13859  16.313  27.591  10.958
52329W        W13860  28.011   8.226  14.892
52330W        W13861  29.658  25.006   0.806
52331W        W13862  23.603  41.895   4.201
52332W        W13863  23.725  14.698  10.479
52333W        W13864  39.912  18.100   1.214
52334W        W13865   6.366  17.613  12.949
52335W        W13866  26.982  23.062  12.344
52336W        W13867  19.614  43.968   4.169
52337W        W13868  28.011  11.194   2.870
52338W        W13869   6.690  32.610  12.013
52339W        W13870  23.686  25.499  12.522
52340W        W13871  25.601  23.686  14.327
52341W        W13872  11.194  16.679   2.703
52342W        W13873   7.860  10.834   1.702
52343W        W13874  33.572  27.118   4.662
52344W        W13875  34.951  17.618  13.830
52345W        W13876  38.509  34.495  14.450
52346W        W13877  12.297  18.150  10.942
52347W        W13878  31.147  12.641   0.912
52348W        W13879  20.714  20.642  14.022
52349W        W13880  39.953  35.427  14.478
52350W        W13881  29.126   6.746   0.952
52351W        W13882  42.802   2.944   3.800
52352W        W13883   5.834  38.862   3.176
52353W        W13884  35.592  22.686   1.242
52354W        W13885  16.249   8.358   4.754
52355W        W13886  28.618  32.444  14.493
52356W        W13887  41.331  40.894  10.418
52357W        W13888  43.824   0.872  10.540
52358W        W13889  18.553  31.641   4.122
52359W        W13890  22.160  30.619   2.320
52360W        W13891  11.219  22.210  11.450
52361W        W13892  34.515   3.731   1.853
52362W        W13893  22.238  20.123  14.495
52363W        W13894  23.661  32.113  13.333
52364W        W13895  18.620   3.376   5.179
52365W        W13896   7.726  30.927   4.721
52366W        W13897  15.193  38.032  13.940
52367W        W13898  22.226  24.015  14.425
52368W        W13899  38.347  34.578   0.436
52369W        W13900  38.392  33.897  10.918
52370W        W13901  32.428  38.024   5.599
52371W        W13902  31.517   2.358  14.469
52372W        W13903  33.400   2.884   4.294
52373W        W13904  39.325  16.582  10.490
52374W        W13905  13.169  27.015   3.783
52375W        W13906  14.123  22.602  14.481
52376W        W13907  22.198  11.659  14.469
52377W        W13908  29.563  17.620   0.929
52378W        W13909  38.956   2.333  10.577
52379W        W13910  27.063  13.786  13.378
52380W        W13911  11.316   9.656  10.474
52381W        W13912  28.568  30.574  10.595
52382W        W13913   5.436  27.945  12.023
52383W        W13914  19.596  32.561   3.736
52384W        W13915   0.960   2.300   2.339
52385W        W13916   8.171   7.366  13.899
52386W        W13917  44.933   1.290  11.503
52387W        W13918  37.835  36.445   4.146
52388W        W13919  44.960   4.730   3.172
52389W        W13920  19.178  21.703   3.291
52390W        W13921  35.509  16.095  14.412
52391W        W13922  31.142  33.927   3.256
52392W        W13923  43.898  41.383  12.366
52393W        W13924  26.991  38.490   2.705
52394W        W13925  15.117  14.117  12.374
52395W        W13926  10.642  31.412  12.846
52396W        W13927  43.282  16.749   1.809
52397W        W13928  31.461  26.028  12.025
52398W        W13929   6.422  32.427  10.495
52399W        W13930  30.046  10.275   0.466
52400W        W13931  16.173  14.197  12.900
52401W        W13932  14.197  24.599  12.492
52402W        W13933  18.753   0.843   9.985
52403W        W13934  37.999  17.161  12.575
52404W        W13935   0.951  41.521  13.909
52405W        W13936  37.486   1.298   3.679
52406W        W13937   2.276  10.706  13.828
52407W        W13938  14.150  24.150   4.744
52408W        W13939  29.593  25.040  14.853
52409W        W13940  14.652   7.182   1.884
52410W        W13941  30.594  19.250   3.211
52411W        W13942   9.193  25.693   2.853
52412W        W13943   1.821  17.682   2.391
52413W        W13944   1.264   4.246  11.108
52414W        W13945  35.868   5.399  10.517
52415W        W13946  26.621   3.767  13.328
52416W        W13947  22.022  38.948  12.093
52417W        W13948  14.221   4.218  14.388
52418W        W13949  20.637  15.214   0.477
52419W        W13950   6.684  29.094  11.030
52420W        W13951  30.488   2.242  12.931
52421W        W13952  21.019  34.951   3.361
52422W        W13953  29.964  13.768  11.979
52423W        W13954  24.186  44.801  14.483
52424W        W13955  17.126  43.014  11.956
52425W        W13956  29.519  37.515   2.899
52426W        W13957  21.749   4.383   1.365
52427W        W13958  14.164  19.576   3.378
52428W        W13959  12.770   6.271   0.355
52429W        W13960   0.295  32.945  10.640
52430W        W13961  17.239  26.171   5.240
52431W        W13962   9.672  25.686   4.317
52432W        W13963   6.779  44.781  14.431
52433W        W13964  38.478  20.757   3.362
52434W        W13965   2.803  14.743  14.833
52435W        W13966  39.371  36.984  13.906
52436W        W13967  38.991  44.857   3.741
52437W        W13968  26.026  27.944  12.062
52438W        W13969  11.295  26.507   0.930
52439W        W13970  33.590   1.452   4.775
52440W        W13971  35.077  14.245   3.365
52441W        W13972   4.910  20.028   3.776
52442W        W13973  30.924  14.148   2.731
52443W        W13974  30.480  30.968   1.440
52444W        W13975  18.157  17.244  14.296
52445W        W13976  26.067  32.537  14.414
52446W        W13977  38.907  41.014  14.873
52447W        W13978  11.327   3.857   0.431
52448W        W13979  42.821  23.515  10.982
52449W        W13980   3.722  39.524  12.532
52450W        W13981   2.812  20.532   0.402
52451W        W13982  18.678  33.103   0.475
52452W        W13983  38.401  21.567  14.326
52453W        W13984  32.048  32.989   4.818
52454W        W13985  40.524  22.197   1.415
52455W        W13986   7.350   4.768   0.419
52456W        W13987   0.847  12.799  12.885
52457W        W13988  43.992  38.413  13.352
52458W        W13989  14.114  16.242  12.522
52459W        W13990  31.972  15.320  14.498
52460W        W13991   8.278  34.089   4.717
52461W        W13992  31.012   2.799   0.292
52462W        W13993  26.633   8.402   3.731
52463W        W13994  20.142  18.554   3.756
52464W        W13995  43.008  11.275   0.329
52465W        W13996   3.757   7.224   4.700
52466W        W13997  23.636  41.396  10.071
52467W        W13998  24.713   6.363  11.114
52468W        W13999  14.706  18.767   2.794
52469W        W14000  44.788  40.942   4.670
52470W        W14001  18.662  22.146  13.506
52471W        W14002   9.155   9.340  13.513
52472W        W14003  16.259  33.398   2.212
52473W        W14004  11.344   7.855  10.542
52474W        W14005  42.925  11.246  12.445
52475W        W14006  42.386  40.540   0.245
52476W        W14007  14.340   3.833  13.945
52477W        W14008  18.605  37.020   1.808
52478W        W14009  15.301  18.077  14.029
52479W        W14010  42.901  28.642   1.240
52480W        W14011   6.361  42.499   2.669
52481W        W14012  17.675   0.900   4.822
52482W        W14013   8.205  14.283  13.540
52483W        W14014  17.693  19.602  13.475
52484W        W14015  14.687  25.696   4.615
52485W        W14016  16.768  36.582   3.161
52486W        W14017  34.511  26.685   2.755
52487W        W14018  35.087   8.778  13.830
52488W        W14019  13.168  37.397  13.467
52489W        W14020   1.861   1.933   3.673
52490W        W14021   4.209  28.457   0.890
52491W        W14022   1.308  11.622   3.194
52492W        W14023  30.924  27.168   2.719
52493W        W14024  42.515  21.017  14.485
52494W        W14025  16.130  25.155   1.736
52495W        W14026  31.107  21.033   3.153
52496W        W14027  35.490  21.618   3.369
52497W        W14028  25.598  39.542  12.404
52498W        W14029  23.700  19.113  13.884
52499W        W14030  35.927  23.029   4.169
52500W        W14031   0.933  19.039  11.412
52501W        W14032  40.007  32.124   1.739
52502W        W14033  12.759  19.641   0.319
52503W        W14034   8.334  35.454  14.881
52504W        W14035  33.915  25.057   1.271
52505W        W14036   7.208  30.448  14.955
52506W        W14037   8.768  28.603  12.981
52507W        W14038  30.640  11.289  14.819
52508W        W14039  14.632  24.678  10.410
52509W        W14040  29.947  35.879  13.984
52510W        W14041   8.215  26.680   3.226
52511W        W14042  23.675  30.055  14.511
52512W        W14043  34.898   5.842  11.052
52513W        W14044  24.510  32.443  11.948
52514W        W14045  12.690  43.351  14.489
52515W        W14046  13.248  37.038   3.746
52516W        W14047  26.971  30.936   3.201
52517W        W14048  28.490  40.815  13.050
52518W        W14049  27.630  30.922   2.313
52519W        W14050  33.888  44.341   1.804
52520W        W14051  18.196   7.832   0.832
52521W        W14052   9.277  38.468  14.960
52522W        W14053  13.755   2.752  13.319
52523W        W14054   8.724  23.087  12.480
52524W        W14055   7.384  36.448   3.228
52525W        W14056  39.546  16.082  10.502
52526W        W14057  18.637  33.955  10.959
52527W        W14058   0.435  30.455  13.502
52528W        W14059  32.527  29.655   3.263
52529W        W14060  24.609  29.462   5.799
52530W        W14061   3.421  34.900   3.670
52531W        W14062  19.533  41.505  13.805
52532W        W14063  25.583  36.974  11.391
52533W        W14064  23.558   7.711   2.271
52534W        W14065   8.269  23.700   1.811
52535W        W14066  31.013  44.975  14.515
52536W        W14067  44.939  30.078  10.526
52537W        W14068  10.694  12.745  13.953
52538W        W14069   3.339  27.168  12.943
52539W        W14070   0.767  39.940  13.814
52540W        W14071  35.022  14.189   0.860
52541W        W14072  20.251  10.168  14.354
52542W        W14073  20.616  27.480   4.701
52543W        W14074  17.722  25.038  12.863
52544W        W14075   3.898   3.308   3.786
52545W        W14076   8.279  44.459   0.410
52546W        W14077  24.629   3.425  11.611
52547W        W14078  18.748   8.814   4.306
52548W        W14079  16.805  15.301   3.219
52549W        W14080  22.514   1.789  10.462
52550W        W14081  21.099  23.208  10.476
52551W        W14082  36.926  11.248  14.292
52552W        W14083  10.645  34.450   0.861
52553W        W14084  39.007  13.610  12.827
52554W        W14085  16.585   5.252  11.922
52555W        W14086   1.892  40.840   0.455
52556W        W14087  36.443  39.324  13.381
52557W        W14088  32.043  30.572   0.933
52558W        W14089  33.408  21.020   4.210
52559W        W14090  24.716  13.270   4.746
52560W        W14091  44.498  34.568   5.122
52561W        W14092  17.278  18.751  10.611
52562W        W14093  18.614  38.060  14.930
52563W        W14094  32.469  44.305  14.785
52564W        W14095  20.730  30.613   2.296
52565W        W14096  26.051  31.475  14.432
52566W        W14097  23.648  23.986  13.356
52567W        W14098  39.443  34.429  14.313
52568W        W14099   4.707  11.163   4.200
52569W        W14100  38.851  38.436   1.301
52570W        W14101  33.400  35.106   3.335
52571W        W14102  16.607   0.453  14.019
52572W        W14103  21.254  32.119   4.266
52573W        W14104  42.448  12.688   1.253
52574W        W14105   9.768  40.004   0.285
52575W        W14106  18.107  23.101  12.457
52576W        W14107  22.729  24.706  10.555
52577W        W14108  31.558  39.544   3.657
52578W        W14109  20.264  42.973  10.104
52579W        W14110  22.721  30.630   1.271
52580W        W14111  39.470  39.874  10.535
52581W        W14112  43.865  24.986  13.031
52582W        W14113  30.929  16.267   0.273
52583W        W14114   5.263  34.438  12.459
52584W        W14115  39.909  16.312   3.207
52585W        W14116  10.662  11.771   2.288
52586W        W14117   2.847   9.275  11.511
52587W        W14118   3.719  31.481   0.418
52588W        W14119  21.740  24.226  12.366
52589W        W14120  20.070  36.478   2.313
52590W        W14121  30.624  29.137   0.756
52591W        W14122  24.973  25.551  12.522
52592W        W14123  17.073  21.044  10.039
52593W        W14124  31.916  18.196   2.721
52594W        W14125  17.112  21.118   2.863
52595W        W14126  19.201  29.041   3.673
52596W        W14127   3.955  26.497  10.464
52597W        W14128  44.335  19.634   2.295
52598W        W14129  26.521   0.848  13.018
52599W        W14130  41.430  44.816  11.421
52600W        W14131  37.540  31.587   1.395
52601W        W14132   3.302  27.089  10.994
52602W        W14133  19.119   1.319  12.020
52603W        W14134  40.949   5.360  14.861
52604W        W14135   3.248  40.367   4.801
52605W        W14136  24.510  36.964  13.917
52606W        W14137   7.877  30.151  12.347
52607W        W14138  23.002  27.671   0.960
52608W        W14139  22.635   6.235  11.606
52609W        W14140  39.335  15.639  13.910
52610W        W14141  41.407   5.792   0.388
52611W        W14142   7.891  11.345   2.389
52612W        W14143   6.693  13.637   0.393
52613W        W14144  11.846   0.465   0.794
52614W        W14145  39.472  40.382  12.945
52615W        W14146  12.259  33.443  12.935
52616W        W14147  39.845  24.594   3.709
52617W        W14148   8.705  42.014  12.859
52618W        W14149  44.454   8.359   4.835
52619W        W14150  29.142  40.804  12.554
52620W        W14151  18.151   2.791  14.375
52621W        W14152   7.179  12.277   2.206
52622W        W14153   3.864  14.797   0.901
52623W        W14154  27.534  26.500   1.781
52624W        W14155  12.665  39.505   0.948
52625W        W14156  38.490  13.118  14.365
52626W        W14157  22.701  14.731   3.698
52627W        W14158  43.863  17.281   2.383
52628W        W14159  41.478  29.046  12.355
52629W        W14160   2.808  12.848   0.410
52630W        W14161   2.856  10.140  10.942
52631W        W14162  28.634  36.453  13.507
52632W        W14163   5.299   5.923  12.000
52633W        W14164  31.493  27.450  12.355
52634W        W14165  43.466  33.980   1.219
52635W        W14166  10.754  12.716  14.381
52636W        W14167   2.442  41.388   4.286
52637W        W14168  33.948  15.766  12.064
52638W        W14169  37.370  29.584   4.340
52639W        W14170  12.263  42.345   0.480
52640W        W14171  39.356  17.757   1.838
52641W        W14172   0.813  38.823  12.341
52642W        W14173  35.597  19.683   0.886
52643W        W14174  38.986   6.846   1.362
52644W        W14175  32.601  13.246  10.632
52645W        W14176   1.812  41.305  11.972
52646W        W14177   9.879  11.144  13.871
52647W        W14178  24.146  38.373   4.339
52648W        W14179   5.747   4.440   4.822
52649W        W14180   8.811  33.019  12.046
52650W        W14181  38.831  13.164   3.864
52651W        W14182  39.314  19.654   4.233
52652W        W14183  35.402  21.685   4.193
52653W        W14184   9.342  35.455   2.679
52654W        W14185  31.486  16.092  13.871
52655W        W14186  24.504  25.189   1.339
52656W        W14187  17.191  43.877  13.821
52657W        W14188  34.015  17.568  14.499
52658W        W14189  30.635  42.410  12.824
52659W        W14190  16.668  44.430   4.241
52660W        W14191  28.938  17.202  11.997
52661W        W14192  37.376   7.248  12.853
52662W        W14193  15.261  10.758  13.962
52663W        W14194   2.450  29.110   4.821
52664W        W14195  37.069  19.141   1.717
52665W        W14196  28.074   2.383  13.362
52666W        W14197  33.545  36.980   3.324
52667W        W14198  18.186  34.065   4.713
52668W        W14199  19.241  17.772   4.748
52669W        W14200  39.979  27.573  13.484
52670W        W14201   7.888  36.400   1.327
52671W        W14202  16.579  32.939  12.940
52672W        W14203  24.707  20.721  12.067
52673W        W14204  31.483  29.425   0.856
52674W        W14205  28.987  25.209  10.603
52675W        W14206   5.772  37.038   1.378
52676W        W14207  29.538  10.193  11.892
52677W        W14208  10.284  37.951  14.506
52678W        W14209  15.659  31.476  14.987
52679W        W14210  37.042   7.788  12.947
52680W        W14211  19.545  37.413   2.350
52681W        W14212  33.885  11.205  11.476
52682W        W14213  41.397   4.365  13.387
52683W        W14214  32.433  43.966   4.196
52684W        W14215  24.166  20.756   2.826
52685W        W14216  17.634  44.265  11.877
52686W        W14217  41.799  14.606   1.339
52687W        W14218  11.221  21.246   4.298
52688W        W14219  29.918  37.837   1.754
52689W        W14220  39.552  35.047   3.749
52690W        W14221  39.022  36.540   4.289
52691W        W14222  40.836  42.494  13.967
52692W        W14223   5.229  12.684  12.421
52693W        W14224  41.362  37.961   4.751
52694W        W14225  29.952   3.735   4.248
52695W        W14226   6.727  42.318  14.989
52696W        W14227   9.706  39.450   3.260
52697W        W14228  42.409  32.434   4.237
52698W        W14229   6.899   1.883  14.442
52699W        W14230  13.326  24.605  10.511
52700W        W14231  38.526  14.640  14.863
52701W        W14232  21.093  37.469   2.857
52702W        W14233  31.419  13.333   2.858
52703W        W14234   0.418   4.874  12.007
52704W        W14235  27.083  11.168   4.330
52705W        W14236   1.828   0.397  13.812
52706W        W14237  27.475  10.237  12.357
52707W        W14238  20.523  36.431   0.919
52708W        W14239  27.527  30.146   0.774
52709W        W14240  39.319  33.038   3.384
52710W        W14241  23.988  19.615  11.906
52711W        W14242  19.150  35.388  14.928
52712W        W14243  21.679  23.127  10.535
52713W        W14244  38.030  21.690  10.454
52714W        W14245  38.999  15.084  11.044
52715W        W14246  28.641  16.792  13.319
52716W        W14247  13.712   8.762   2.672
52717W        W14248  20.691  11.857  11.856
52718W        W14249  32.513  33.099  14.946
52719W        W14250  12.810  28.943   9.947
52720W        W14251  28.138  38.551   0.404
52721W        W14252   9.645  33.568  12.898
52722W        W14253  44.495  24.178  12.574
52723W        W14254  13.666  23.083  11.957
52724W        W14255  16.612   8.297  13.800
52725W        W14256  33.935   4.390   2.413
52726W        W14257  38.497  30.570  11.613
52727W        W14258  29.073  38.545  12.032
52728W        W14259   1.450  42.981   3.782
52729W        W14260  26.976  13.277  13.363
52730W        W14261  43.958  42.879  14.830
52731W        W14262  40.839  14.824   4.642
52732W        W14263   4.700  30.515  14.291
52733W        W14264  25.654  19.587  12.388
52734W        W14265  38.936  14.605   3.688
52735W        W14266  31.544  21.563   3.150
52736W        W14267  20.588  31.897  12.909
52737W        W14268  22.524  42.483  11.443
52738W        W14269  10.698  38.379  12.077
52739W        W14270  16.731  33.584  12.493
52740W        W14271  26.595  34.050  13.521
52741W        W14272  32.124  41.427  13.019
52742W        W14273  24.496   7.394  13.416
52743W        W14274  20.252   5.254  10.571
52744W        W14275   5.392  39.393  11.041
52745W        W14276   9.187  37.021  14.275
52746W        W14277  16.132  17.646  11.116
52747W        W14278  38.903  16.272  11.407
52748W        W14279  32.889   8.804  14.434
52749W        W14280  18.231  16.664  10.900
52750W        W14281  26.498  37.855   3.650
52751W        W14282  13.816  21.556  11.079
52752W        W14283  25.523  12.843  13.059
52753W        W14284  21.083  13.845   3.844
52754W        W14285  38.561  19.588   0.331
52755W        W14286  14.732  28.955   1.868
52756W        W14287   1.360  41.847   0.835
52757W        W14288   7.850  19.772   4.677
52758W        W14289  31.493  29.668   2.241
52759W        W14290  22.640  36.492   3.723
52760W        W14291  38.840  14.203  12.431
52761W        W14292  24.142  14.762  12.490
52762W        W14293  27.035  31.006  12.032
52763W        W14294  11.275  33.400  11.870
52764W        W14295  42.821  22.149  11.379
52765W        W14296  24.541  43.493   1.754
52766W        W14297   5.903   5.305   2.363
52767W        W14298  34.939  32.017   1.447
52768W        W14299  28.591  39.047   1.414
52769W        W14300  44.971  36.919  14.898
52770W        W14301  25.641   7.296   0.801
52771W        W14302  10.329   2.257  12.823
52772W        W14303   4.243   2.292  11.384
52773W        W14304  40.969   3.896   4.633
52774W        W14305  39.864   8.254   3.844
52775W        W14306   3.866   9.337   0.263
52776W        W14307   5.870   4.354  11.061
52777W        W14308   5.865  20.218   3.265
52778W        W14309  27.160  40.380   3.680
52779W        W14310  39.969   4.730  10.642
52780W        W14311  37.576  23.148  11.986
52781W        W14312  22.745  22.071   0.936
52782W        W14313  22.534  27.059   3.304
52783W        W14314  26.604  20.747   1.918
52784W        W14315  13.315   6.815   2.770
52785W        W14316  18.646  13.141  11.458
52786W        W14317  25.686  16.721   4.340
52787W        W14318   7.297  23.173   3.386
52788W        W14319  17.641   7.792   3.850
52789W        W14320  14.784  35.907  12.371
52790W        W14321  38.903  12.613   3.159
52791W        W14322  26.153   7.249  11.456
52792W        W14323  11.246   6.215   1.781
52793W        W14324  16.115  23.006  14.337
52794W        W14325  26.588  10.361   4.679
52795W        W14326  42.981  16.187   2.312
52796W        W14327  22.706   6.889   2.718
52797W        W14328   9.390  30.148   2.713
52798W        W14329   6.712  32.949   3.709
52799W        W14330  20.159  26.623   3.216
52800W        W14331  27.457   5.434   4.122
52801W        W14332  18.594   1.963   0.435
52802W        W14333  42.794  42.998  13.797
52803W        W14334   2.857  38.958  11.126
52804W        W14335   6.397  22.680   3.637
52805W        W14336  17.226   1.426  12.952
52806W        W14337  23.023  29.541  11.894
52807W        W14338  24.190   5.281   2.195
52808W        W14339  11.372  17.748  11.416
52809W        W14340  14.765  13.656   0.294
52810W        W14341   5.257  22.584  10.494
52811W        W14342  31.085  11.631   1.341
52812W        W14343  32.446  32.449   1.925
52813W        W14344  11.639  16.307  14.801
52814W        W14345  16.164   5.807   4.163
52815W        W14346  41.479  18.662  13.547
52816W        W14347  39.898   6.825   1.408
52817W        W14348  33.927  42.315  14.341
52818W        W14349  32.501  29.443   1.282
52819W        W14350  23.011   4.936  14.414
52820W        W14351  28.580  37.518  14.842
52821W        W14352   6.880  23.565   0.960
52822W        W14353  26.692  36.916  14.421
52823W        W14354  15.095  28.171  13.374
52824W        W14355  16.118   7.305  10.553
52825W        W14356  13.266  14.275  14.879
52826W        W14357  42.782  10.696   3.862
52827W        W14358  41.356   2.763  13.005
52828W        W14359   7.281  10.840  12.449
52829W        W14360  30.126  34.475  10.514
52830W        W14361  32.437  42.299  11.925
52831W        W14362  22.685  34.929   1.785
52832W        W14363  39.453  43.982  14.769
52833W        W14364   1.244  34.087   4.232
52834W        W14365  36.411  16.802   3.822
52835W        W14366  21.079  12.738   0.785
52836W        W14367  12.146  31.091  13.862
52837W        W14368  21.231  10.143   0.286
52838W        W14369   8.179  32.633  11.931
52839W        W14370  36.076  15.725   4.307
52840W        W14371  44.989  36.024  12.033
52841W        W14372  44.349  40.471  11.610
52842W        W14373  12.334   2.875  14.924
52843W        W14374   7.904   4.312   2.789
52844W        W14375  44.314  29.009  13.020
52845W        W14376  41.949   6.303   2.831
52846W        W14377   0.936  32.468   2.254
52847W        W14378  28.943  33.401  11.385
52848W        W14379  39.506  30.005   1.222
52849W        W14380   1.848  25.595   3.764
52850W        W14381  10.299  28.007   1.273
52851W        W14382   5.344  28.491  10.528
52852W        W14383  22.572   0.907  13.955
52853W        W14384  25.659  16.662   0.912
52854W        W14385  24.066  18.638  13.922
52855W        W14386  20.187   7.744   1.934
52856W        W14387  38.852   0.250  13.412
52857W        W14388  29.594  38.362  11.121
52858W        W14389  42.775   6.222   2.342
52859W        W14390   2.278  31.512   3.659
52860W        W14391  21.733  29.504  13.972
52861W        W14392  31.503   2.771   4.602
52862W        W14393  43.428  34.988  12.508
52863W        W14394  19.713  39.536  13.931
52864W        W14395   1.915   1.469   3.324
52865W        W14396  44.792  36.019  12.897
52866W        W14397  25.991   6.864   0.783
52867W        W14398  31.926  37.985  13.404
52868W        W14399  20.634  22.203   2.396
52869W        W14400  22.583  36.892   2.814
52870W        W14401   5.426  10.168   3.151
52871W        W14402  40.029  34.902  10.992
52872W        W14403  26.165  26.524   0.470
52873W        W14404  34.514  31.467   2.189
52874W        W14405  42.466   8.222  11.515
52875W        W14406  26.552  31.941   1.846
52876W        W14407  41.415  23.629   1.377
52877W        W14408  28.964   3.759  10.991
52878W        W14409  18.659  26.555   9.668
52879W        W14410  13.182  23.678  12.372
52880W        W14411   9.723  31.932  10.959
52881W        W14412  40.464  43.901  14.021
52882W        W14413  23.040   2.393   3.797
52883W        W14414  33.065   8.709   0.380
52884W        W14415  37.833  33.480   0.246
52885W        W14416  10.296  19.677   2.263
52886W        W14417  26.073  42.909   4.743
52887W        W14418  24.499   8.663   2.866
52888W        W14419  24.167  38.030  11.384
52889W        W14420  35.998  35.897  13.502
52890W        W14421  12.296   8.227   0.319
52891W        W14422  21.636  29.609  11.076
52892W        W14423   0.828  29.110   4.777
52893W        W14424   6.310  21.227  14.782
52894W        W14425   8.682  36.938  11.904
52895W        W14426  18.065  29.086  13.826
52896W        W14427  20.560   3.746  13.414
52897W        W14428   1.976  38.949   3.772
52898W        W14429  43.287  18.193   2.757
52899W        W14430   7.232  32.978  12.958
52900W        W14431   0.417  44.284  12.489
52901W        W14432  28.107   1.453  12.510
52902W        W14433  41.999   0.371   3.326
52903W        W14434  14.212  23.128   1.903
52904W        W14435  27.544  11.805  14.479
52905W        W14436   4.742  37.883   3.777
52906W        W14437   0.282  35.002  13.917
52907W        W14438  18.287  12.205  10.963
52908W        W14439   0.845  19.194  10.494
52909W        W14440  37.569  39.469  12.340
52910W        W14441  25.648  42.827   5.213
52911W        W14442  41.404  17.244  10.946
52912W        W14443  12.717  36.454   1.911
52913W        W14444  27.972   7.669   5.682
52914W        W14445  32.943  36.915  13.872
52915W        W14446  38.466  27.483   2.688
52916W        W14447   4.936  26.125  14.960
52917W        W14448  37.922  36.365  14.891
52918W        W14449  23.147   2.952  12.916
52919W        W14450  23.111  19.674  12.092
52920W        W14451   3.736  15.306   0.417
52921W        W14452  37.529   6.359   1.381
52922W        W14453  32.436  40.032  12.457
52923W        W14454  18.559  31.136  10.950
52924W        W14455  25.627  33.079  14.868
52925W        W14456  34.093  32.027   0.935
52926W        W14457  39.414  32.918   2.698
52927W        W14458   4.737   2.253  12.078
52928W        W14459  43.842  39.354   4.140
52929W        W14460  27.466  30.577   1.292
52930W        W14461  43.287  16.301  14.309
52931W        W14462   2.948  19.204  13.903
52932W        W14463   3.217  26.476   0.847
52933W        W14464  43.926  12.151  14.285
52934W        W14465  28.442  44.428  13.004
52935W        W14466   1.410  38.490  11.568
52936W        W14467   5.256  17.604  11.060
52937W        W14468  39.837  28.642  14.457
52938W        W14469  10.296  36.024  10.604
52939W        W14470  38.897  30.141   0.801
52940W        W14471  38.008   1.310  14.835
52941W        W14472  15.632  16.247  12.049
52942W        W14473  10.860   1.830  11.990
52943W        W14474  15.209   2.273   2.771
52944W        W14475  42.854   0.405   1.301
52945W        W14476  10.720  26.546  13.874
52946W        W14477  16.575  11.236  10.952
52947W        W14478  36.881  23.540  10.977
52948W        W14479  37.578  37.941   0.357
52949W        W14480  43.846  35.403   0.384
52950W        W14481   0.404  37.554   1.895
52951W        W14482  43.424  36.949  14.934
52952W        W14483  27.148   9.749  12.412
52953W        W14484  34.496  12.340  11.497
52954W        W14485  33.481  28.004   4.677
52955W        W14486  36.888  32.116   4.265
52956W        W14487   2.399   5.314  10.958
52957W        W14488  20.675   1.376  12.391
52958W        W14489  13.818  22.106  12.996
52959W        W14490  11.234  33.439  14.933
52960W        W14491   3.725  28.954  12.554
52961W        W14492   0.445  44.833  10.609
52962W        W14493  13.625  26.184  14.418
52963W        W14494  17.299   6.224   4.191
52964W        W14495   8.253  23.105  11.980
52965W        W14496  42.323  18.571   1.271
52966W        W14497   7.821  43.472   4.342
52967W        W14498  37.474   6.417   0.250
52968W        W14499  37.832   1.908  10.963
52969W        W14500  25.689  25.488  10.495
52970W        W14501  38.368  30.914   2.358
52971W        W14502  29.065  15.187   1.336
52972W        W14503  33.928  38.980  13.338
52973W        W14504  41.379  39.337   0.868
52974W        W14505   4.349  26.531   2.287
52975W        W14506  20.137   9.377   0.874
52976W        W14507  41.003  40.025  14.499
52977W        W14508   5.912  31.413   2.790
52978W        W14509  23.605  26.473  10.523
52979W        W14510  43.327  37.959  10.457
52980W        W14511  41.844  35.512   0.389
52981W        W14512  14.203  21.151  14.908
52982W        W14513  33.961  13.752   2.766
52983W        W14514  16.216  29.146  14.771
52984W        W14515  25.529   7.324  11.972
52985W        W14516  24.582  19.547  12.511
52986W        W14517  11.336   2.337  12.972
52987W        W14518  28.181  29.584  11.872
52988W        W14519  31.561   2.872  13.022
52989W        W14520  36.908  41.305  11.867
52990W        W14521   4.448  22.157   1.293
52991W        W14522  31.639  29.559  11.935
52992W        W14523  35.029  26.052   0.308
52993W        W14524  14.156   5.430  13.476
52994W        W14525  39.023   9.254  12.833
52995W        W14526  33.982   7.699   4.631
52996W        W14527   0.463  43.810  10.612
52997W        W14528  16.141  11.629  14.812
52998W        W14529  39.389  43.278   4.802
52999W        W14530  37.557  16.108   0.343
53000W        W14531   2.379   6.386  12.385
53001W        W14532  23.169   0.764   1.379
53002W        W14533  16.252   9.153  13.983
53003W        W14534   2.267  24.221  11.572
53004W        W14535   0.398  42.312   2.319
53005W        W14536  27.480  43.821   1.262
53006W        W14537  17.602  11.286  12.382
53007W        W14538  15.117  35.560  13.958
53008W        W14539  26.661   5.389  14.485
53009W        W14540  21.165   0.962  11.559
53010W        W14541  27.601   1.930  12.857
53011W        W14542   9.290  40.323   0.769
53012W        W14543  44.764  27.557  14.312
53013W        W14544  17.675  11.350   3.644
53014W        W14545  24.018   1.911  11.504
53015W        W14546  27.122   1.386   0.427
53016W        W14547  27.651   9.789   3.237
53017W        W14548  34.499  31.137  14.870
53018W        W14549   7.865  15.315  14.769
53019W        W14550  27.473   6.852   3.703
53020W        W14551  15.820  13.224  12.063
53021W        W14552  29.007  20.650  11.079
53022W        W14553   3.801   7.715   1.707
53023W        W14554  11.797  39.974  10.949
53024W        W14555  41.459  41.982   0.440
53025W        W14556   5.910   5.860   2.814
53026W        W14557  24.228  19.235  13.496
53027W        W14558  19.738  34.520  14.323
53028W        W14559  41.525  43.857   3.784
53029W        W14560  23.525   5.326   1.420
53030W        W14561  42.291  36.371   0.329
53031W        W14562  16.221   7.408   4.686
53032W        W14563  24.186  16.738   4.191
53033W        W14564  25.083  33.525  11.531
53034W        W14565  42.351   1.282  11.409
53035W        W14566   4.218  21.213  13.455
53036W        W14567  14.246  30.002  10.018
53037W        W14568  27.973  39.887   4.737
53038W        W14569  15.777   8.271   1.287
53039W        W14570  28.490  16.648   3.273
53040W        W14571   4.887   6.798  12.003
53041W        W14572   9.298   9.818   1.832
53042W        W14573  42.780   5.344   3.373
53043W        W14574  28.994   3.422   4.747
53044W        W14575  18.703  42.919  13.048
53045W        W14576  44.308  35.478  13.506
53046W        W14577  34.883  23.607  10.585
53047W        W14578  10.874  16.599   3.201
53048W        W14579  15.680  42.828   1.293
53049W        W14580  27.984   4.240  13.929
53050W        W14581  25.585  27.643   2.836
53051W        W14582  44.489  23.687   0.294
53052W        W14583  22.208   0.820   4.655
53053W        W14584  13.327  32.577   3.278
53054W        W14585   7.864  10.689   2.383
53055W        W14586  39.823   9.309   1.913
53056W        W14587  12.617  10.723   4.836
53057W        W14588  37.077  10.861  10.113
53058W        W14589  14.827  23.558  13.390
53059W        W14590  35.856   7.179  14.884
53060W        W14591  15.820  19.212  13.968
53061W        W14592   9.822  31.584   3.798
53062W        W14593  10.812   9.678   4.279
53063W        W14594   5.840  38.871  14.366
53064W        W14595  41.975  28.595   1.869
53065W        W14596  15.121   6.255   2.889
53066W        W14597  24.017   8.717   1.397
53067W        W14598  27.973  26.527  13.027
53068W        W14599  19.153  26.086  11.371
53069W        W14600  31.073  42.828   1.436
53070W        W14601  12.665   1.934   3.782
53071W        W14602  44.974  20.528   1.443
53072W        W14603  27.067  18.654   3.705
53073W        W14604  12.817  28.659  12.505
53074W        W14605  29.085  10.642   5.243
53075W        W14606  31.112  43.467  11.990
53076W        W14607  33.444   3.241   3.700
53077W        W14608  20.163  13.631  14.309
53078W        W14609  29.664   6.678  14.301
53079W        W14610  18.278  29.487  11.514
53080W        W14611  25.199  11.773  11.109
53081W        W14612  32.906  37.970   3.212
53082W        W14613  17.282   7.900  12.871
53083W        W14614  40.306   4.330   4.246
53084W        W14615  15.720  28.514  13.800
53085W        W14616  21.687  28.939  10.602
53086W        W14617  37.931  21.625   0.414
53087W        W14618  41.807  33.430   4.831
53088W        W14619  24.595  13.734  12.044
53089W        W14620  16.291  34.385  11.004
53090W        W14621  15.160   0.311   2.391
53091W        W14622  32.008  24.183  11.888
53092W        W14623  18.133  14.766  11.903
53093W        W14624   8.178  42.444  10.990
53094W        W14625  22.184  30.417  13.932
53095W        W14626  25.630  18.146  10.443
53096W        W14627  16.684  16.760  14.428
53097W        W14628   6.334   8.374   2.351
53098W        W14629   5.920  15.823  14.930
53099W        W14630   0.945  12.313   0.250
53100W        W14631  13.343  20.121   3.226
53101W        W14632  42.502   6.422  13.011
53102W        W14633   5.259  44.499   0.839
53103W        W14634   5.380   1.814  11.885
53104W        W14635   8.761   0.373   1.798
53105W        W14636  36.878  34.898   0.835
53106W        W14637  19.049   1.860  14.003
53107W        W14638  40.048  15.276  14.920
53108W        W14639  14.283  30.028  14.319
53109W        W14640  38.438   6.697   9.484
53110W        W14641  18.284   8.193  10.895
53111W        W14642  30.050  12.246   4.821
53112W        W14643  11.682  27.541  13.547
53113W        W14644  25.038   6.263  10.529
53114W        W14645  19.255  31.403   0.761
53115W        W14646  37.518  24.631  11.469
53116W        W14647  25.576  26.592  12.046
53117W        W14648  44.868   4.450   0.948
53118W        W14649  43.328   3.294   2.199
53119W        W14650  35.538  36.525  13.496
53120W        W14651   6.857  27.124  12.912
53121W        W14652   5.870  41.343  10.967
53122W        W14653  30.149  15.798   0.418
53123W        W14654  28.450  17.256   3.309
53124W        W14655  30.554   9.699   4.783
53125W        W14656  16.703   8.659  11.904
53126W        W14657  27.186  32.495   0.452
53127W        W14658   7.383   2.868   3.825
53128W        W14659  38.847  15.664   1.256
53129W        W14660  26.597   2.745   2.881
53130W        W14661  12.855  11.300   2.359
53131W        W14662  32.928  42.414  14.297
53132W        W14663   4.756  26.009   4.770
53133W        W14664  11.653  27.061  14.948
53134W        W14665  44.364  27.079   0.943
53135W        W14666  21.715  34.070   0.394
53136W        W14667  44.417   7.292   2.274
53137W        W14668  25.508  20.590  14.837
53138W        W14669   1.898   9.231  14.825
53139W        W14670  22.580  32.921   2.760
53140W        W14671  38.495   1.314  10.457
53141W        W14672  23.043  18.731   3.318
53142W        W14673  35.054  34.891  12.495
53143W        W14674  32.897  17.184   1.815
53144W        W14675   5.895  15.316   1.444
53145W        W14676   2.926   4.272  11.519
53146W        W14677  28.145  33.933  10.433
53147W        W14678  15.690   4.777  14.450
53148W        W14679  21.614  40.919  14.886
53149W        W14680  34.041  15.134   1.923
53150W        W14681   2.350  41.373   1.260
53151W        W14682  35.867  36.470   3.381
53152W        W14683  30.929  41.500  13.334
53153W        W14684  44.335  42.842   2.302
53154W        W14685  35.906   2.953   4.612
53155W        W14686  14.207  10.873   0.265
53156W        W14687  18.178   3.407   2.261
53157W        W14688  42.345  15.627   0.247
53158W        W14689  11.258  26.171   2.232
53159W        W14690  21.550   6.401   2.313
53160W        W14691  40.463  17.779   1.721
53161W        W14692   2.244  22.678   5.758
53162W        W14693  13.265  39.455  14.925
53163W        W14694  27.978   0.951  13.516
53164W        W14695  28.645  29.163   3.274
53165W        W14696   3.344  32.050   2.861
53166W        W14697  11.717  33.027  13.826
53167W        W14698  38.947  15.096  12.497
53168W        W14699  42.819  11.238  13.805
53169W        W14700  24.986  29.513  13.964
53170W        W14701  34.993   3.927  12.357
53171W        W14702   2.264  16.600   0.363
53172W        W14703  33.984  18.104   1.830
53173W        W14704   7.716  41.447   1.248
53174W        W14705  10.655  26.555   4.235
53175W        W14706  31.000   9.798  12.342
53176W        W14707   9.840  33.430  14.289
53177W        W14708  40.487  32.598   0.827
53178W        W14709  34.923  16.112   0.762
53179W        W14710   9.728   8.660  10.429
53180W        W14711  26.645   6.207   4.349
53181W        W14712  42.321  23.540   2.260
53182W        W14713  28.131   4.446   0.882
53183W        W14714  24.634  41.883  12.399
53184W        W14715  15.643  14.753   2.669
53185W        W14716  42.859  22.134   3.742
53186W        W14717  13.291   8.824   5.089
53187W        W14718   0.483  40.441  14.808
53188W        W14719   6.252  12.816   0.292
53189W        W14720   7.196  39.045  11.093
53190W        W14721  31.118  14.153   1.708
53191W        W14722  24.506  41.895   4.321
53192W        W14723  34.938  38.413   1.249
53193W        W14724  29.083  14.289   2.843
53194W        W14725  44.848  19.742   2.735
53195W        W14726  41.023  42.403   0.886
53196W        W14727  35.054  23.051  11.001
53197W        W14728   4.919   1.426   5.206
53198W        W14729  21.658  30.547  14.014
53199W        W14730  17.575  26.631   1.257
53200W        W14731  38.928  24.609  12.825
53201W        W14732   2.448   3.841   1.341
53202W        W14733  21.550  18.262  10.897
53203W        W14734  38.556  38.426   3.219
53204W        W14735  40.824  12.232  12.934
53205W        W14736  37.078  39.908   3.694
53206W        W14737  22.724  21.228  14.894
53207W        W14738  15.202  35.427  11.087
53208W        W14739  12.742  34.414  12.095
53209W        W14740  35.865  35.889   3.218
53210W        W14741  20.749  24.147   3.146
53211W        W14742  14.301  39.972  12.900
53212W        W14743  20.211  25.585   4.243
53213W        W14744  19.577  17.294  11.555
53214W        W14745   2.436  32.897  10.594
53215W        W14746  40.805  40.833  11.875
53216W        W14747  42.816   5.785  14.492
53217W        W14748  33.061  29.977  11.575
53218W        W14749  37.529   7.282   1.903
53219W        W14750  35.059  40.843   3.649
53220W        W14751  23.496  18.681  14.869
53221W        W14752  12.844  35.968   3.664
53222W        W14753  26.996   3.877   1.254
53223W        W14754   0.908   5.281   4.206
53224W        W14755  40.988  18.186   0.952
53225W        W14756   3.265   1.930   2.319
53226W        W14757   0.799  30.089   1.212
53227W        W14758  37.382  15.798  14.308
53228W        W14759   9.816  39.339   2.872
53229W        W14760  37.949   6.721  12.051
53230W        W14761  31.573   2.924  12.339
53231W        W14762   1.407  16.180   0.763
53232W        W14763   9.711  32.589   4.674
53233W        W14764  28.014   6.868   1.236
53234W        W14765   6.726   0.293   9.943
53235W        W14766  21.017  11.838   5.224
53236W        W14767  35.108   9.372  12.467
53237W        W14768  13.639  14.657   2.872
53238W        W14769  39.813  28.106  14.799
53239W        W14770  20.734   9.275   0.786
53240W        W14771  29.462   3.301  14.374
53241W        W14772  26.087  31.466   3.858
53242W        W14773  35.509  24.507   0.247
53243W        W14774  38.863  38.966  10.568
53244W        W14775  41.909  15.196  11.579
53245W        W14776   0.424   3.829   1.882
53246W        W14777  13.142  16.227  13.329
53247W        W14778  17.167  43.871   1.222
53248W        W14779  19.617  12.273   1.706
53249W        W14780   0.401  19.591   3.244
53250W        W14781   9.720  40.360  12.904
53251W        W14782  36.558   7.336  11.050
53252W        W14783  30.098  32.119   0.406
53253W        W14784  22.686  12.130  14.478
53254W        W14785   9.835  15.820   3.352
53255W        W14786  16.717   6.822  13.808
53256W        W14787  28.089  19.639  12.447
53257W        W14788  23.073  16.158  11.901
53258W        W14789   7.712  11.809   4.267
53259W        W14790  34.095  26.994  12.341
53260W        W14791  29.967  20.206  14.778
53261W        W14792  22.532   5.769  10.640
53262W        W14793   9.649  20.205  13.896
53263W        W14794  44.487  32.124   2.352
53264W        W14795  41.804  43.779  12.028
53265W        W14796   8.848  22.629  14.889
53266W        W14797   9.738  10.719  13.874
53267W        W14798   3.917  37.858  14.309
53268W        W14799   6.923   7.691  13.047
53269W        W14800  14.147  36.493   0.472
53270W        W14801   6.265  39.557   2.359
53271W        W14802   5.889  17.620   4.337
53272W        W14803  19.216  16.274  12.026
53273W        W14804  18.576  20.194  12.429
53274W        W14805  24.484  26.037  12.972
53275W        W14806  40.316  34.083   3.657
53276W        W14807   0.876  28.673   4.648
53277W        W14808  43.809  26.006  13.424
53278W        W14809  17.256  39.340  13.318
53279W        W14810   4.420  32.083  11.418
53280W        W14811   6.747  33.995  12.528
53281W        W14812  33.078  35.468   1.828
53282W        W14813  44.797   0.914  13.453
53283W        W14814  14.236  20.638   0.815
53284W        W14815  26.642  31.951  14.508
53285W        W14816  31.132  21.129  13.983
53286W        W14817  13.319  24.697  11.465
53287W        W14818  31.942   2.435   4.675
53288W        W14819  17.668  37.415   0.824
53289W        W14820   4.386  18.244  13.060
53290W        W14821  12.336   0.484  14.382
53291W        W14822  29.146  32.432   3.364
53292W        W14823  23.186  18.170   1.722
53293W        W14824  29.145  17.754  13.470
53294W        W14825  43.937  13.265  14.880
53295W        W14826  20.555   4.286   4.226
53296W        W14827  29.004  15.712   2.740
53297W        W14828   1.357  40.006  13.978
53298W        W14829  27.053  15.154   3.714
53299W        W14830  33.984   7.875  12.066
53300W        W14831  42.522  33.975  11.950
53301W        W14832  21.040  37.931   0.329
53302W        W14833  18.570  16.177   4.693
53303W        W14834  24.196   2.959  14.511
53304W        W14835  29.174  12.759   3.792
53305W        W14836  22.534   6.365  12.478
53306W        W14837  32.611  40.549   0.473
53307W        W14838   4.713  28.993  14.883
53308W        W14839  35.463  32.046   0.393
53309W        W14840  27.000  24.990  14.454
53310W        W14841  42.517   4.936  11.526
53311W        W14842  13.148  44.359   1.706
53312W        W14843  11.204   3.805   1.364
53313W        W14844  16.079  10.151   3.179
53314W        W14845   2.273  29.957   0.336
53315W        W14846  39.045  19.561  11.499
53316W        W14847  11.314  10.834   2.903
53317W        W14848  11.190  10.744  13.986
53318W        W14849  25.686  15.724   3.731
53319W        W14850   9.366   7.852   0.781
53320W        W14851  15.207  40.427  10.463
53321W        W14852  25.020  33.427   2.395
53322W        W14853  11.207   4.225  10.937
53323W        W14854  16.805  30.462  10.446
53324W        W14855  37.337   1.763  12.984
53325W        W14856  14.123  40.034   4.253
53326W        W14857  20.242  40.920  13.327
53327W        W14858  21.736   8.762  14.944
53328W        W14859   7.779  36.034  10.491
53329W        W14860  16.249  38.499  11.420
53330W        W14861   7.908  40.046  14.969
53331W        W14862  37.544  44.775  14.463
53332W        W14863  37.465  14.656   1.416
53333W        W14864  42.312  27.128   4.676
53334W        W14865  39.334  37.467   0.415
53335W        W14866  43.783  38.396  14.844
53336W        W14867  35.472  34.020   2.292
53337W        W14868  38.398  31.990  13.008
53338W        W14869   5.908  20.227  11.092
53339W        W14870  24.066  44.879   1.926
53340W        W14871   1.312   5.351   0.303
53341W        W14872   0.385  29.032  14.800
53342W        W14873  38.928  21.750   1.786
53343W        W14874  11.753   6.287  11.559
53344W        W14875   2.770  31.992   3.821
53345W        W14876  28.622  27.574   1.395
53346W        W14877  41.997  18.247   1.924
53347W        W14878  23.991   9.326  10.495
53348W        W14879  16.290  19.643   2.901
53349W        W14880  41.868   9.355  11.537
53350W        W14881   3.251  19.176   0.348
53351W        W14882  19.219  16.117  13.058
53352W        W14883   0.335  39.435   4.287
53353W        W14884  12.802  31.625  13.050
53354W        W14885  31.074  16.802  12.005
53355W        W14886  38.401  24.050  11.987
53356W        W14887  10.329  31.998  11.945
53357W        W14888   4.870  17.261  12.980
53358W        W14889  26.205  26.663  11.933
53359W        W14890  44.935  35.971   0.394
53360W        W14891  25.652  28.645  13.356
53361W        W14892  37.495   4.427  13.871
53362W        W14893   2.810  20.208   4.127
53363W        W14894  11.767  17.564  12.548
53364W        W14895  12.789  22.031  11.426
53365W        W14896  11.204  23.616   2.266
53366W        W14897  44.271  12.785   0.405
53367W        W14898  40.979  29.629   4.344
53368W        W14899   6.697   2.936   5.735
53369W        W14900  41.364  33.547  11.942
53370W        W14901  19.154  32.906   2.722
53371W        W14902  14.316  10.790  14.023
53372W        W14903  26.167  15.765  12.831
53373W        W14904  32.541   6.272  10.409
53374W        W14905  11.811  22.693   0.853
53375W        W14906  29.539  40.957  13.795
53376W        W14907  18.604  41.436   2.186
53377W        W14908  20.201  42.401  13.389
53378W        W14909  18.764  23.603   3.870
53379W        W14910  37.521  41.945  13.531
53380W        W14911  37.867   7.899  12.428
53381W        W14912  15.274  29.467   0.306
53382W        W14913  11.784  42.296  11.051
53383W        W14914  23.235  14.806   4.613
53384W        W14915   1.921   0.844   3.776
53385W        W14916  39.505  39.457  13.955
53386W        W14917  42.339  44.938   4.833
53387W        W14918  26.067  23.170   3.310
53388W        W14919   9.804  27.063   3.240
53389W        W14920  20.134   6.188   1.855
53390W        W14921  44.948  12.787   0.348
53391W        W14922  37.520  41.813  13.808
53392W        W14923  11.711  19.225  11.522
53393W        W14924   1.401  22.534  11.909
53394W        W14925  34.007  27.969   0.749
53395W        W14926  27.147  15.241   0.820
53396W        W14927   9.154   3.232   4.232
53397W        W14928   0.895  10.202  12.419
53398W        W14929  37.890  42.835  11.585
53399W        W14930  24.660  21.094  11.897
53400W        W14931   2.402  43.835   3.235
53401W        W14932  27.050  42.006  13.826
53402W        W14933  37.475   0.921   1.891
53403W        W14934  36.372  28.600   3.691
53404W        W14935  10.662  11.723  12.990
53405W        W14936  35.017  35.482   4.212
53406W        W14937   6.251  39.389   4.701
53407W        W14938  36.539   5.791  11.105
53408W        W14939  44.807  22.659  13.882
53409W        W14940  10.155  27.648  10.058
53410W        W14941  24.508  13.684  12.441
53411W        W14942  36.557  16.779   0.770
53412W        W14943   5.855  43.317   4.767
53413W        W14944   6.415   2.246   1.443
53414W        W14945  14.647   4.841   3.748
53415W        W14946  16.114  22.584   4.712
53416W        W14947  44.286  31.147  10.513
53417W        W14948  24.976  25.048   0.423
53418W        W14949  35.881  26.617  10.465
53419W        W14950  15.236  38.064  14.844
53420W        W14951   9.295  28.435  11.510
53421W        W14952  42.510   3.239  14.993
53422W        W14953  11.369  11.234   1.875
53423W        W14954  17.769  41.905   1.429
53424W        W14955  27.641  22.061  12.976
53425W        W14956  18.205  22.242   9.579
53426W        W14957   0.914  42.425  12.556
53427W        W14958   7.321  21.520   3.234
53428W        W14959  34.888  13.733  14.515
53429W        W14960  40.435  16.295   1.812
53430W        W14961  19.125  20.138   3.346
53431W        W14962  22.031   6.202   0.762
53432W        W14963  32.495  28.494  14.412
53433W        W14964  32.616  40.473   1.363
53434W        W14965  36.914  41.453   0.843
53435W        W14966  25.684  35.854   2.848
53436W        W14967  31.407  41.359  12.005
53437W        W14968  13.115  41.448   3.842
53438W        W14969  10.820   4.816  12.359
53439W        W14970  26.094  42.970   2.839
53440W        W14971  44.830  22.032  10.463
53441W        W14972  19.722  29.614   1.405
53442W        W14973  11.166  24.220  12.371
53443W        W14974  20.574  36.094  14.972
53444W        W14975  24.129  33.517  13.037
53445W        W14976  32.543  35.501  13.506
53446W        W14977  17.605  16.641   4.778
53447W        W14978  43.372  17.767  12.914
53448W        W14979  19.060  17.179  13.999
53449W        W14980   4.768  11.866  13.899
53450W        W14981  26.987  39.904  10.124
53451W        W14982  42.961  15.244   0.735
53452W        W14983  23.684  14.661  12.359
53453W        W14984  31.566   2.733  14.503
53454W        W14985   1.976   1.246  12.572
53455W        W14986  34.898  22.036   2.879
53456W        W14987   4.773  36.977   2.720
53457W        W14988  16.619   2.789   2.766
53458W        W14989   2.937  26.064   2.695
53459W        W14990  43.514  24.075   4.741
53460W        W14991  41.527  43.929   2.282
53461W        W14992  15.692  41.789   0.442
53462W        W14993  42.477  22.091   0.961
53463W        W14994  16.294  25.711   0.816
53464W        W14995  39.983  30.075   2.871
53465W        W14996  35.586   5.848  14.889
53466W        W14997  22.591   0.328  10.645
53467W        W14998  24.107  29.084   4.751
53468W        W14999  32.067  27.554   0.254
53469W        W15000  42.943  11.177   1.773
53470W        W15001   0.418  13.200  12.062
53471W        W15002  35.437  13.191  13.058
53472W        W15003   0.258  17.736   2.371
53473W        W15004  34.994  44.815  13.525
53474W        W15005  12.826  42.288   0.347
53475W        W15006  35.429  20.183   3.245
53476W        W15007   1.925  14.132  13.048
53477W        W15008   4.257  20.134   4.329
53478W        W15009   3.307   3.764  14.334
53479W        W15010  28.475  27.484  12.006
53480W        W15011  18.734  41.034  12.481
53481W        W15012  22.131  44.268   2.194
53482W        W15013   5.696   2.835  11.551
53483W        W15014  28.474  44.410   4.636
53484W        W15015  30.451  41.859  14.917
53485W        W15016   0.839  12.259  13.049
53486W        W15017  18.618  38.540   1.842
53487W        W15018  32.041   7.234  14.305
53488W        W15019  43.799  41.971  13.899
53489W        W15020  11.719  16.743   1.786
53490W        W15021   5.432  33.009   3.788
53491W        W15022  22.735   3.414   3.848
53492W        W15023  34.071  17.563   3.245
53493W        W15024  13.706   1.830  13.981
53494W        W15025  23.118  38.392   3.780
53495W        W15026  41.514  25.472   1.214
53496W        W15027  32.585  43.477   1.385
53497W        W15028  40.934  43.764  11.970
53498W        W15029  20.217  17.222   2.295
53499W        W15030  17.276   6.377  12.362
53500W        W15031  33.944   4.914  14.782
53501W        W15032   5.778  13.628  14.514
53502W        W15033  27.625  19.756  13.307
53503W        W15034  38.012  22.108   2.832
53504W        W15035   3.229  25.124  14.028
53505W        W15036  12.717  41.993  11.890
53506W        W15037  27.021  12.190   4.272
53507W        W15038  13.706  10.172   2.686
53508W        W15039  41.830  27.675   3.205
53509W        W15040   1.274  31.037  13.539
53510W        W15041  14.748   1.876  11.957
53511W        W15042  24.145  33.482   3.374
53512W        W15043  17.702  25.040   2.832
53513W        W15044   4.836  38.441   1.343
53514W        W15045  27.638  20.707   4.242
53515W        W15046  31.407   9.310   1.429
53516W        W15047  39.350   6.262  13.371
53517W        W15048  36.934  41.523   4.300
53518W        W15049  25.030  14.621  14.760
53519W        W15050  16.210  27.131  10.057
53520W        W15051  31.403   3.312   4.608
53521W        W15052  29.170  28.529   1.212
53522W        W15053  35.536  43.859  12.539
53523W        W15054  21.249   6.921   4.728
53524W        W15055  28.137  43.950  12.344
53525W        W15056  30.985  44.836  13.055
53526W        W15057  21.547  38.940   3.231
53527W        W15058  34.508  27.130  14.419
53528W        W15059  13.332  28.039  10.132
53529W        W15060  28.982  24.571  11.929
53530W        W15061  16.297  23.628   4.768
53531W        W15062  35.090   1.914   1.773
53532W        W15063  33.601  33.114   0.947
53533W        W15064   4.902   5.734   1.315
53534W        W15065   8.826  21.562   1.284
53535W        W15066  11.676   1.295  10.918
53536W        W15067  42.983  39.464   4.660
53537W        W15068  22.592  43.974   4.317
53538W        W15069  23.707   0.912   2.222
53539W        W15070   7.749  35.894   0.462
53540W        W15071  21.583   1.418  13.399
53541W        W15072  22.233  27.674   2.361
53542W        W15073  15.256   0.892   1.790
53543W        W15074  13.347  23.524  10.513
53544W        W15075  14.204   6.408   2.363
53545W        W15076  41.865  21.094  13.468
53546W        W15077   5.697  42.843   1.772
53547W        W15078  30.606  14.328  13.898
53548W        W15079  32.974  37.550  13.396
53549W        W15080  43.377   8.288   0.275
53550W        W15081  31.126  35.008   4.172
53551W        W15082  26.143  41.856  13.543
53552W        W15083   4.324  39.992   3.253
53553W        W15084  13.350   5.895   1.697
53554W        W15085   0.280  39.045   2.217
53555W        W15086   3.442  36.456   5.129
53556W        W15087  15.750   2.791  10.449
53557W        W15088  13.170  22.217   3.706
53558W        W15089  11.254  14.156   0.890
53559W        W15090  28.164   7.834  12.488
53560W        W15091  31.039  25.022  14.985
53561W        W15092   9.157  43.910  14.488
53562W        W15093  18.129  19.058  11.454
53563W        W15094  41.789   4.772  13.438
53564W        W15095  11.786  34.609  10.135
53565W        W15096   9.686   3.251   2.894
53566W        W15097  12.304  27.046   0.944
53567W        W15098  21.155  26.025  14.314
53568W        W15099  25.131  11.798   0.477
53569W        W15100   1.264  10.747   2.761
53570W        W15101   0.299  20.071   3.691
53571W        W15102   3.440   9.253   0.816
53572W        W15103  23.214  20.179   0.482
53573W        W15104  36.079  28.070   2.278
53574W        W15105  44.955  10.642   3.785
53575W        W15106   1.883   7.178   4.339
53576W        W15107   7.252  16.073   2.368
53577W        W15108  41.462   8.293  14.822
53578W        W15109  20.182  13.615   1.811
53579W        W15110  21.672   7.319   0.259
53580W        W15111  10.835  12.749  12.036
53581W        W15112  19.044  13.607   3.256
53582W        W15113  35.925  33.025  11.509
53583W        W15114  11.789  17.643  12.962
53584W        W15115   7.719  12.175   4.179
53585W        W15116  10.723  44.395   0.871
53586W        W15117  11.228   9.838   1.871
53587W        W15118  34.971  40.546   4.785
53588W        W15119   4.252  42.944  12.974
53589W        W15120  32.460  24.692  14.921
53590W        W15121  38.410  11.293  11.921
53591W        W15122  35.095  44.358   0.341
53592W        W15123  33.938   3.954  13.470
53593W        W15124   5.815  28.546   1.906
53594W        W15125   3.799  40.958  13.053
53595W        W15126  39.319   4.291   1.372
53596W        W15127  21.735  35.391   3.331
53597W        W15128  20.609   2.430   4.119
53598W        W15129  32.905  28.056  12.885
53599W        W15130  36.880   6.279  14.345
53600W        W15131  13.800  32.929   2.232
53601W        W15132  22.735   0.399   4.236
53602W        W15133  21.164  42.408  10.055
53603W        W15134  44.855   9.694   0.789
53604W        W15135  10.678   8.210  10.891
53605W        W15136  37.408   3.771   4.709
53606W        W15137   1.429  25.185   1.397
53607W        W15138  21.617  26.195  11.071
53608W        W15139  18.286  38.517  13.438
53609W        W15140   4.424  21.727   2.303
53610W        W15141   8.846  31.644   4.155
53611W        W15142  20.604  44.300  12.967
53612W        W15143  42.442  27.447   2.242
53613W        W15144  16.791   1.322  13.905
53614W        W15145   2.958   1.439   3.831
53615W        W15146  11.705   8.782  14.832
53616W        W15147  13.822  21.653   3.148
53617W        W15148  30.074  17.083  10.110
53618W        W15149  31.013  40.458  10.444
53619W        W15150  32.127  37.513   1.819
53620W        W15151  21.659  37.393  10.606
53621W        W15152   6.685  35.005  13.363
53622W        W15153   3.811  38.009  11.405
53623W        W15154  27.193  31.490   2.375
53624W        W15155   2.781  19.199  14.846
53625W        W15156  28.655  25.531  12.960
53626W        W15157  41.962  11.857   3.851
53627W        W15158  24.645  13.837   4.781
53628W        W15159  26.648  36.520  10.479
53629W        W15160   4.307  27.003   3.793
53630W        W15161  20.757  33.115   3.784
53631W        W15162  43.489   4.844  11.522
53632W        W15163  30.150  13.812  12.866
53633W        W15164   7.311  11.177   0.760
53634W        W15165  20.215  27.050  13.948
53635W        W15166  42.997  18.213  10.590
53636W        W15167   0.936  31.466  11.957
53637W        W15168  37.552  38.948   0.302
53638W        W15169  31.518  13.242   3.798
53639W        W15170  19.095  25.199  11.555
53640W        W15171  32.099  41.010  13.358
53641W        W15172  34.945   7.191  12.405
53642W        W15173  34.979  24.697  11.020
53643W        W15174   1.751  14.324  13.923
53644W        W15175   2.783  13.223   3.633
53645W        W15176  16.141  34.439   2.764
53646W        W15177  32.955   4.800   1.305
53647W        W15178  33.475  41.837  11.117
53648W        W15179  24.669  24.045   2.845
53649W        W15180  21.513   3.741  14.960
53650W        W15181  43.379  22.722   4.123
53651W        W15182  28.983  30.491   4.697
53652W        W15183  10.239   4.856   0.732
53653W        W15184   4.868  26.614  12.873
53654W        W15185   9.665  12.351   3.816
53655W        W15186  35.464  25.671  13.887
53656W        W15187  21.566  40.818   2.213
53657W        W15188  28.551   6.351  13.973
53658W        W15189  13.242  44.773  13.902
53659W        W15190  25.112  38.883   2.737
53660W        W15191  44.273  39.847  11.460
53661W        W15192  26.168  17.752  12.396
53662W        W15193  17.121   4.275  13.801
53663W        W15194  20.157  14.322  13.884
53664W        W15195  10.693   0.806   9.481
53665W        W15196  25.182   2.462   2.742
53666W        W15197   6.849  39.019  12.570
53667W        W15198  42.355   3.239  14.510
53668W        W15199  40.352   0.263  10.431
53669W        W15200  27.580  33.909   3.775
53670W        W15201  20.718  23.591   2.675
53671W        W15202  10.696  27.462   1.275
53672W        W15203  21.248  22.712   2.827
53673W        W15204   8.215   7.859   3.386
53674W        W15205   9.324  41.486  13.873
53675W        W15206  31.140   2.398  11.964
53676W        W15207   3.846  30.611  10.069
53677W        W15208  15.648   3.361   4.774
53678W        W15209  34.924  17.606   2.228
53679W        W15210  26.463  14.686  14.436
53680W        W15211  32.396  30.659   9.988
53681W        W15212  28.610  36.995  11.878
53682W        W15213   8.244  44.945   2.261
53683W        W15214   7.863  24.996  13.857
53684W        W15215  15.684  44.379  11.373
53685W        W15216  44.464  32.908  14.816
53686W        W15217  41.409  11.625   2.284
53687W        W15218  29.573  39.833  12.834
53688W        W15219  30.527  21.165   0.481
53689W        W15220  11.641  41.809  13.933
53690W        W15221  41.003   8.259   2.323
53691W        W15222  37.373  13.213  10.091
53692W        W15223  19.261  29.496  13.810
53693W        W15224  30.941  31.595  12.006
53694W        W15225   5.247   5.244  13.891
53695W        W15226   8.706  25.212   2.721
53696W        W15227  42.327   8.840   0.366
53697W        W15228  18.101   8.664  14.875
53698W        W15229  17.764  23.611   5.152
53699W        W15230  44.766   2.363  13.010
53700W        W15231   8.666  29.644   1.889
53701W        W15232  22.598  23.182  14.019
53702W        W15233  17.691  44.948  11.072
53703W        W15234   8.783  38.547   3.811
53704W        W15235  44.372  24.594   4.824
53705W        W15236  21.556  15.696   3.671
53706W        W15237  27.690   6.400   2.744
53707W        W15238  44.970  17.662  14.445
53708W        W15239  31.535  35.995   0.761
53709W        W15240  23.617  15.652   3.351
53710W        W15241   9.169  14.657  13.387
53711W        W15242   1.758  26.030  11.089
53712W        W15243   2.804  34.612   1.934
53713W        W15244  28.956   7.725  10.489
53714W        W15245  14.824  39.966  10.587
53715W        W15246  41.961  44.932  14.833
53716W        W15247  10.258  33.973  14.851
53717W        W15248  23.172  28.510  14.964
53718W        W15249  22.661  15.641  12.840
53719W        W15250  24.083  13.145  11.589
53720W        W15251   7.208  26.200   2.243
53721W        W15252  36.454  41.406  10.418
53722W        W15253  16.256  11.663   0.375
53723W        W15254   0.859  26.592  11.498
53724W        W15255  17.640  39.050   0.941
53725W        W15256   8.162  42.823  14.505
53726W        W15257  31.120   7.852  11.002
53727W        W15258  34.483  43.780  14.848
53728W        W15259  44.294   8.185  14.819
53729W        W15260   6.789  21.640   1.379
53730W        W15261  25.671  17.251  10.546
53731W        W15262   2.744  14.748   4.133
53732W        W15263  14.196  11.230  14.357
53733W        W15264  10.239   2.337  10.059
53734W        W15265  29.545   3.250   2.697
53735W        W15266  15.651  36.468   3.257
53736W        W15267  20.657  15.247  12.931
53737W        W15268  13.290  30.423  10.111
53738W        W15269  19.143  21.077  12.006
53739W        W15270  16.757  33.472  10.937
53740W        W15271  40.485  17.594   0.919
53741W        W15272  15.767  16.747   9.977
53742W        W15273  34.448  40.999   3.209
53743W        W15274  14.210   0.372  10.605
53744W        W15275  38.562   3.433   2.892
53745W        W15276  29.136  18.161  14.932
53746W        W15277   9.648  37.387   3.849
53747W        W15278   4.726  21.237  10.058
53748W        W15279  42.887  30.633   0.311
53749W        W15280   0.772  34.891  11.022
53750W        W15281   0.374   9.390   0.949
53751W        W15282  42.341  19.070   3.633
53752W        W15283  30.063  31.124  10.597
53753W        W15284  14.158   9.204  12.076
53754W        W15285   8.752  27.608  12.551
53755W        W15286  12.344  29.563  10.021
53756W        W15287  36.031   9.648   9.510
53757W        W15288   9.836   0.265   0.348
53758W        W15289  20.167   5.318   1.904
53759W        W15290  41.424  29.430  14.423
53760W        W15291  23.550  13.793   1.900
53761W        W15292  25.470  21.058  12.857
53762W        W15293  10.362  14.316  12.924
53763W        W15294  17.711  23.515  10.953
53764W        W15295  31.002  37.548  11.456
53765W        W15296  43.980  33.619   2.885
53766W        W15297  39.461  41.855   1.813
53767W        W15298  20.702  41.948  13.804
53768W        W15299  19.191  19.541  12.369
53769W        W15300  39.507  19.281   3.676
53770W        W15301  12.331  37.570  11.093
53771W        W15302  43.403   3.398   5.106
53772W        W15303  19.550  16.763  10.566
53773W        W15304   5.765  16.311   4.652
53774W        W15305  18.702   7.245  12.908
53775W        W15306  34.942   1.238  14.287
53776W        W15307   9.648  17.118   2.843
53777W        W15308  20.693  24.622   2.666
53778W        W15309  38.885  25.018   4.251
53779W        W15310  16.097  22.546   3.247
53780W        W15311   1.740  11.799  14.311
53781W        W15312   2.432   1.879   5.131
53782W        W15313  41.972  39.992  12.411
53783W        W15314  21.259  27.122  11.500
53784W        W15315   0.783   4.735   2.253
53785W        W15316  23.034  15.760  13.979
53786W        W15317  19.555  23.083  10.426
53787W        W15318  14.690  36.991   3.780
53788W        W15319  25.102  33.567   3.848
53789W        W15320  31.054   7.416   4.728
53790W        W15321   3.307  10.667  10.512
53791W        W15322  29.513  17.789   1.771
53792W        W15323   4.854   4.725  12.093
53793W        W15324  27.047  26.181   4.795
53794W        W15325  29.941  42.474   2.393
53795W        W15326  23.098  10.265   0.860
53796W        W15327  12.331   6.259   3.755
53797W        W15328  20.079  23.504   3.367
53798W        W15329  12.748  28.942  12.555
53799W        W15330  23.546   0.408  13.006
53800W        W15331  41.476  16.291   4.714
53801W        W15332   4.266   0.856  13.331
53802W        W15333  17.673  35.085   4.177
53803W        W15334   2.330  36.872   0.250
53804W        W15335   4.237   4.349  10.448
53805W        W15336  41.455  23.664  14.458
53806W        W15337  34.882  33.537  13.369
53807W        W15338  29.931  39.420  14.986
53808W        W15339  21.017   9.771   1.784
53809W        W15340  17.799  14.639   2.836
53810W        W15341  14.266  43.346  14.292
53811W        W15342  25.616  24.186  13.953
53812W        W15343  28.122  32.943  12.494
53813W        W15344   1.451  40.010   4.711
53814W        W15345  42.322  39.331  13.985
53815W        W15346   2.251  40.880  12.497
53816W        W15347   6.762   3.221  12.385
53817W        W15348   2.886  33.409   2.185
53818W        W15349  27.108  25.577   4.835
53819W        W15350  22.198  44.782  10.943
53820W        W15351  34.598   7.747   3.319
53821W        W15352  34.487   3.395  12.918
53822W        W15353   1.322   9.788  11.565
53823W        W15354  39.434  32.126  10.557
53824W        W15355  31.550  26.673  12.831
53825W        W15356   2.923  22.653   4.281
53826W        W15357   1.284  10.148   2.388
53827W        W15358  21.251  41.987  10.911
53828W        W15359  14.098  10.249   3.284
53829W        W15360  26.012  35.405  11.476
53830W        W15361  22.658  21.134   0.482
53831W        W15362  39.320  43.384   4.354
53832W        W15363  23.638  10.689   0.442
53833W        W15364  43.338  19.705  11.968
53834W        W15365  11.777  21.585  10.557
53835W        W15366  34.430  11.729  11.976
53836W        W15367  44.266  10.280   0.858
53837W        W15368   0.382   3.753   1.215
53838W        W15369  39.899  31.494   0.307
53839W        W15370  40.936  43.331  14.766
53840W        W15371  43.869  16.079   0.416
53841W        W15372  11.757  24.585  12.963
53842W        W15373  18.573   1.425  14.483
53843W        W15374   5.771  15.735  12.427
53844W        W15375  16.600  34.081   3.226
53845W        W15376  41.010  23.677   3.355
53846W        W15377  27.956  41.345  12.354
53847W        W15378  35.028  39.463  11.966
53848W        W15379  43.910  34.482  12.562
53849W        W15380   7.685  10.205  10.114
53850W        W15381  12.620   4.256  14.318
53851W        W15382  21.514   4.714   1.345
53852W        W15383   9.167  42.331   2.229
53853W        W15384  14.309   8.342  12.460
53854W        W15385   9.306   7.831  10.931
53855W        W15386  31.601  35.578  10.463
53856W        W15387  42.968   5.875  14.030
53857W        W15388  26.533   8.362  10.095
53858W        W15389  12.803  32.505   0.953
53859W        W15390  40.434   7.248   1.341
53860W        W15391  39.382   9.889  12.849
53861W        W15392  13.618  41.392  11.957
53862W        W15393  28.459  22.251  14.013
53863W        W15394  14.199   6.811   0.838
53864W        W15395   1.833  13.730  13.050
53865W        W15396  17.570  27.446  11.015
53866W        W15397   0.450  20.594   4.230
53867W        W15398   1.449  21.664   0.764
53868W        W15399   6.913  25.508   3.737
53869W        W15400  31.607  38.350  13.853
53870W        W15401  15.292  11.366   2.293
53871W        W15402   1.315  27.604   1.901
53872W        W15403  21.617  38.554   3.843
53873W        W15404  20.674  31.642  13.793
53874W        W15405  19.577  11.194  14.465
53875W        W15406   2.275  29.464  14.508
53876W        W15407  32.082  33.415   5.298
53877W        W15408   2.909   5.849   3.726
53878W        W15409  31.029   8.748  14.842
53879W        W15410  31.995   6.377   4.658
53880W        W15411  28.452  12.803  13.479
53881W        W15412  11.318   6.219  14.382
53882W        W15413  30.502  22.064   1.931
53883W        W15414  19.275  33.507   2.687
53884W        W15415  24.614   0.415   2.808
53885W        W15416   6.262  21.222  13.831
53886W        W15417   1.341  28.142  10.132
53887W        W15418  25.649   3.876   1.418
53888W        W15419   2.913   1.910   2.756
53889W        W15420  33.920  14.097   1.380
53890W        W15421   3.740  22.143  14.905
53891W        W15422  21.180  42.994   4.772
53892W        W15423  32.045  26.626  10.892
53893W        W15424  19.081  22.620   2.410
53894W        W15425  29.086  15.764   0.351
53895W        W15426  20.038  36.935   1.917
53896W        W15427  19.240  43.951   2.891
53897W        W15428  16.276  25.127   2.822
53898W        W15429  36.359   4.789  14.949
53899W        W15430   9.340  11.273  11.455
53900W        W15431  37.344  38.869   3.355
53901W        W15432  39.538   5.282  13.453
53902W        W15433  22.140  36.864  10.405
53903W        W15434  33.939  20.069  14.968
53904W        W15435  42.305   0.884  13.458
53905W        W15436  27.459  22.191   0.962
53906W        W15437  11.765  36.395  10.483
53907W        W15438  26.642  39.966  14.313
53908W        W15439  12.225  16.265   1.775
53909W        W15440  37.577  23.690  10.958
53910W        W15441  44.767  14.675   1.228
53911W        W15442  21.726  12.701   0.727
53912W        W15443  42.466  33.509  13.961
53913W        W15444  10.221  36.469   3.868
53914W        W15445   4.806  29.133  10.549
53915W        W15446   9.281  32.629  10.452
53916W        W15447   1.483   8.847   4.153
53917W        W15448  19.110   4.726   4.643
53918W        W15449  34.019  41.856  12.361
53919W        W15450  28.493  14.270   3.707
53920W        W15451  42.317   5.194  14.943
53921W        W15452  34.511  18.697   5.182
53922W        W15453   0.930  37.030   3.181
53923W        W15454   6.398  23.157  10.121
53924W        W15455  39.540   0.901   1.887
53925W        W15456   6.201  17.276  10.894
53926W        W15457  16.309  43.341   0.245
53927W        W15458  33.580  23.621  11.522
53928W        W15459  34.403  29.996  12.379
53929W        W15460  35.044   5.224   0.913
53930W        W15461  31.525  23.528   1.349
53931W        W15462  22.243  26.595  12.869
53932W        W15463   6.185  10.293  14.026
53933W        W15464   0.476  22.546  14.504
53934W        W15465  24.014   8.887  11.121
53935W        W15466  23.618  19.583  11.959
53936W        W15467  25.086  12.815   0.396
53937W        W15468  37.418  33.425  11.121
53938W        W15469  40.416  42.345   2.700
53939W        W15470  24.614  16.754   3.636
53940W        W15471  44.851  30.940  10.466
53941W        W15472  21.079  41.333   1.280
53942W        W15473  29.538  31.151   3.289
53943W        W15474  38.391  32.931   4.734
53944W        W15475  18.598  44.476  12.884
53945W        W15476  18.226  10.185  10.638
53946W        W15477   8.819  11.775   0.340
53947W        W15478   8.196  40.417   3.337
53948W        W15479  44.408  38.994   0.304
53949W        W15480  20.544  35.484   1.428
53950W        W15481  27.670  24.528   3.236
53951W        W15482  43.769   0.750  11.868
53952W        W15483  27.523  36.028  10.934
53953W        W15484   2.913  16.141  13.881
53954W        W15485  26.561   4.376  13.325
53955W        W15486  42.286  43.013  13.443
53956W        W15487  23.547  12.749  12.967
53957W        W15488  17.606   8.688   2.360
53958W        W15489  20.209   9.672  11.046
53959W        W15490   1.932   3.765  14.971
53960W        W15491  24.554  12.691   2.755
53961W        W15492  14.211  42.893  11.392
53962W        W15493  36.391  26.487  12.859
53963W        W15494  40.321  25.199   0.377
53964W        W15495  41.818  23.078   1.394
53965W        W15496   4.873  35.601   2.695
53966W        W15497   1.362  13.219  10.588
53967W        W15498   9.884  28.452  12.023
53968W        W15499  12.826  29.984   9.495
53969W        W15500  36.578   8.300  14.318
53970W        W15501   0.271  16.287   4.145
53971W        W15502   5.424  40.843  12.085
53972W        W15503  23.090   0.774  13.820
53973W        W15504  12.316  24.158   1.321
53974W        W15505  23.568  23.571   0.461
53975W        W15506   9.810  30.497   0.808
53976W        W15507  16.622  36.420  12.534
53977W        W15508  37.022  44.854   0.353
53978W        W15509   7.190  30.656   2.225
53979W        W15510  42.862  28.472  12.467
53980W        W15511  36.380  30.491   4.680
53981W        W15512  43.817  22.198   4.314
53982W        W15513  10.313  26.546   0.786
53983W        W15514   6.370  17.651  13.423
53984W        W15515   1.442  23.009   0.418
53985W        W15516  16.620   6.236  10.556
53986W        W15517   5.334  31.539  10.984
53987W        W15518  12.206  30.641   0.777
53988W        W15519  12.708  28.662   0.871
53989W        W15520  44.775   2.919   2.885
53990W        W15521  22.172   3.404   4.237
53991W        W15522   7.738   4.844  12.064
53992W        W15523  17.070  19.566  11.927
53993W        W15524  43.930   2.243  13.846
53994W        W15525  20.131  11.237  14.874
53995W        W15526  41.926  12.795   0.726
53996W        W15527  36.388  43.767   4.826
53997W        W15528  22.238  34.089   3.381
53998W        W15529  12.678   9.791  12.537
53999W        W15530  37.374  31.522   0.422
54000W        W15531  41.951  16.625  12.984
54001W        W15532  29.024   4.345   4.227
54002W        W15533  13.171  24.008  14.869
54003W        W15534   9.675  14.590  14.786
54004W        W15535  20.257  32.513  14.392
54005W        W15536  16.193  13.337  12.424
54006W        W15537  13.799  37.452   3.663
54007W        W15538  41.990  24.211   3.787
54008W        W15539  34.931  37.455   4.178
54009W        W15540  20.604   7.744   2.323
54010W        W15541  38.907  22.164   2.324
54011W        W15542  43.993  20.703   1.757
54012W        W15543  42.957  39.364  12.354
54013W        W15544  38.866  25.026  13.849
54014W        W15545  37.034  22.017  11.605
54015W        W15546  44.848  25.601   0.400
54016W        W15547  22.691  27.971   4.129
54017W        W15548  18.078  29.517  14.952
54018W        W15549  38.539  41.964  11.423
54019W        W15550  26.068  15.166  12.910
54020W        W15551  14.834  14.738  14.985
54021W        W15552  38.969  27.173  13.905
54022W        W15553  41.817   4.410   4.644
54023W        W15554   5.215  42.322  10.940
54024W        W15555  33.588  16.304   4.713
54025W        W15556  31.929  27.453   5.229
54026W        W15557   2.283  17.108  11.417
54027W        W15558   0.488   3.431   4.657
54028W        W15559   3.930  44.927   1.322
54029W        W15560  41.933  41.908   1.382
54030W        W15561  33.592  29.644  13.881
54031W        W15562  15.327  18.280  11.551
54032W        W15563   7.872  12.159  13.311
54033W        W15564  20.562  28.003  10.493
54034W        W15565   1.465  21.263   3.253
54035W        W15566   2.733  26.597   4.192
54036W        W15567  30.101  26.623   0.868
54037W        W15568  20.615  20.212  13.498
54038W        W15569  40.340  23.674   1.866
54039W        W15570  28.477  25.165  12.974
54040W        W15571  28.596   2.927  10.561
54041W        W15572   5.884  38.055  14.350
54042W        W15573  21.566  41.507   3.161
54043W        W15574  31.001  27.973   3.165
54044W        W15575  17.651  32.128  10.930
54045W        W15576  17.212  14.105  13.927
54046W        W15577  30.454  33.537  10.474
54047W        W15578  24.486  11.625  14.970
54048W        W15579  41.400  17.745   1.767
54049W        W15580  23.685  31.969   1.764
54050W        W15581  31.910  26.121   0.778
54051W        W15582  13.340  10.188  14.321
54052W        W15583   9.204  11.729  14.926
54053W        W15584  27.078  25.601  11.453
54054W        W15585  21.592  41.937  13.310
54055W        W15586   1.966  27.940   1.887
54056W        W15587   3.913  41.865   1.789
54057W        W15588   4.730   2.942  12.016
54058W        W15589  12.246  23.230  10.607
54059W        W15590   2.347  20.529  14.437
54060W        W15591  33.388  42.329  14.929
54061W        W15592   1.821  41.392   3.160
54062W        W15593  44.011  23.636  12.527
54063W        W15594   6.253  29.645  12.037
54064W        W15595  38.039   4.838  11.102
54065W        W15596   4.332  22.584   1.436
54066W        W15597  18.062  11.369  13.925
54067W        W15598  33.081   1.845  14.469
54068W        W15599  22.094  33.485  12.397
54069W        W15600  32.107   7.845   1.435
54070W        W15601   4.757  26.951  12.567
54071W        W15602  28.456  15.110  12.833
54072W        W15603   0.952   6.205   3.282
54073W        W15604  11.734  11.816  14.867
54074W        W15605   1.286  35.409   4.328
54075W        W15606  27.973  12.326  12.967
54076W        W15607  36.009   3.953  13.361
54077W        W15608  33.506   9.179  13.896
54078W        W15609  42.426  13.203   4.627
54079W        W15610  30.985  11.232   4.317
54080W        W15611  40.889  17.610  12.451
54081W        W15612  31.111   7.713   0.886
54082W        W15613  12.635  24.545   1.359
54083W        W15614  37.478  44.505   2.329
54084W        W15615   1.302  39.527  13.868
54085W        W15616  30.439  27.521  14.021
54086W        W15617  18.256  16.192  10.540
54087W        W15618   8.763  34.377   3.719
54088W        W15619  43.302  38.014   0.883
54089W        W15620  35.856  25.077   3.212
54090W        W15621   9.850  36.491   3.342
54091W        W15622  25.638  26.989  14.936
54092W        W15623  12.645   4.937   4.308
54093W        W15624  39.489  17.656  11.928
54094W        W15625   1.896  40.384   1.359
54095W        W15626  37.371   5.885   3.645
54096W        W15627   0.787  10.787  13.526
54097W        W15628   7.668  19.610  13.933
54098W        W15629  29.606   9.841   2.849
54099W        W15630   6.797  36.981   3.815
54100W        W15631  18.586   3.259   3.330
54101W        W15632   5.280   3.276  14.030
54102W        W15633   2.732   4.351   4.225
54103W        W15634  21.614  17.583   2.794
54104W        W15635  33.913  30.971   0.251
54105W        W15636  14.316  20.228   4.116
54106W        W15637  32.396  34.454   0.298
54107W        W15638   3.783  33.429  12.407
54108W        W15639  19.164  30.052   0.390
54109W        W15640  20.686  42.026   3.317
54110W        W15641  15.319  28.577  12.456
54111W        W15642  34.950  33.100  12.383
54112W        W15643  39.822  31.599   1.419
54113W        W15644  41.044  40.841   3.681
54114W        W15645  25.602  17.214  14.482
54115W        W15646  11.855   7.886   4.328
54116W        W15647  20.604  22.068  13.016
54117W        W15648  22.167  40.322  13.927
54118W        W15649   8.725   5.391   4.799
54119W        W15650  13.696   7.894   1.224
54120W        W15651  28.135  44.870  10.532
54121W        W15652  27.552  19.105  12.922
54122W        W15653   9.750  19.727   1.311
54123W        W15654  12.674  22.075   3.856
54124W        W15655  27.999  32.562  14.330
54125W        W15656  40.902   3.298  11.110
54126W        W15657  38.828  26.595   2.293
54127W        W15658  44.438  39.475   1.248
54128W        W15659  25.699  15.648  10.608
54129W        W15660  18.595  22.111   2.680
54130W        W15661  27.111  31.931  10.591
54131W        W15662   5.307  35.416  14.359
54132W        W15663  11.801  19.229   1.820
54133W        W15664  22.158  30.614  14.418
54134W        W15665  29.153  26.163  12.956
54135W        W15666  33.540  44.503   4.681
54136W        W15667   8.375   2.327  14.299
54137W        W15668  12.740  30.155  14.370
54138W        W15669  23.083   8.191   1.790
54139W        W15670  15.173  26.572  12.891
54140W        W15671   4.210  37.849   4.163
54141W        W15672  19.185  22.675   2.724
54142W        W15673  25.505  28.030  10.611
54143W        W15674  35.429  19.161   3.812
54144W        W15675  44.788  26.544   3.817
54145W        W15676  23.631   4.904  11.082
54146W        W15677   9.823  19.643   4.761
54147W        W15678   8.318  12.196  11.030
54148W        W15679  41.370  24.170   2.748
54149W        W15680  10.797  38.007  11.892
54150W        W15681   7.838  23.213   0.734
54151W        W15682  39.526  30.415   2.671
54152W        W15683   4.317  21.538   3.165
54153W        W15684  13.164   3.871  12.566
54154W        W15685  33.020  44.763  12.028
54155W        W15686  36.363  34.050   2.805
54156W        W15687  27.027   9.372  14.432
54157W        W15688   8.805   4.436  11.569
54158W        W15689  29.459  42.810  12.563
54159W        W15690  11.229  30.513  11.008
54160W        W15691  31.047  15.098   4.211
54161W        W15692  20.593  42.388   9.542
54162W        W15693  14.688  11.769   1.379
54163W        W15694  20.082  29.962   3.258
54164W        W15695  35.030  33.490   2.884
54165W        W15696  38.438  40.483   4.124
54166W        W15697  28.495  22.610  14.764
54167W        W15698   2.441  25.600   1.426
54168W        W15699  30.094  20.098   2.379
54169W        W15700  26.659  32.131  11.872
54170W        W15701  31.062  31.531  11.008
54171W        W15702   2.406  35.069  14.279
54172W        W15703  13.751   0.478   4.183
54173W        W15704  40.452   7.301   4.152
54174W        W15705   7.750  25.159  14.976
54175W        W15706   6.676  16.313   4.142
54176W        W15707   7.896  23.721   3.175
54177W        W15708  13.725  32.997  12.036
54178W        W15709   9.345  33.530   3.188
54179W        W15710  39.341  16.099   2.408
54180W        W15711  41.033  26.120   1.361
54181W        W15712  29.926   9.320  10.451
54182W        W15713   8.848  39.538   3.711
54183W        W15714  18.069  29.106  10.909
54184W        W15715  38.864   8.844   4.158
54185W        W15716   0.898  11.221   2.663
54186W        W15717  22.556  20.075  14.314
54187W        W15718   5.796   7.328   3.862
54188W        W15719  32.607  24.559   4.604
54189W        W15720   0.978  14.234   3.715
54190W        W15721  37.988  26.494   1.766
54191W        W15722  41.443  35.936   2.293
54192W        W15723  30.657  24.489  14.307
54193W        W15724  28.516  12.238   0.887
54194W        W15725  40.503  38.529  10.461
54195W        W15726   9.149  12.833   3.151
54196W        W15727  34.412  14.620   0.356
54197W        W15728  40.504  44.835  10.901
54198W        W15729  10.824  22.730   2.891
54199W        W15730  18.682  28.989   2.327
54200W        W15731  15.234  10.358   2.673
54201W        W15732  30.003  10.771   3.258
54202W        W15733  34.448  38.542   0.307
54203W        W15734  37.449  26.982  10.514
54204W        W15735  29.427  21.609  12.082
54205W        W15736   8.247   7.173   4.653
54206W        W15737  13.599  22.565  12.013
54207W        W15738  20.271  21.201  11.963
54208W        W15739  18.648  36.362   0.950
54209W        W15740  10.806  32.972  10.426
54210W        W15741  19.629  31.630   0.924
54211W        W15742  32.043  30.137  14.320
54212W        W15743  27.664  28.663   9.627
54213W        W15744  34.053  21.737   3.709
54214W        W15745   8.805   7.282  14.410
54215W        W15746   2.831   2.818  10.474
54216W        W15747  42.390  16.087  12.430
54217W        W15748   7.744  29.159  13.323
54218W        W15749   9.672  25.048   1.319
54219W        W15750   5.789  41.937  12.876
54220W        W15751   7.678  43.978  11.019
54221W        W15752  18.587  11.369  14.025
54222W        W15753  22.110  12.677  14.340
54223W        W15754  25.162  44.965   4.190
54224W        W15755  39.059  32.073  10.549
54225W        W15756  12.289  14.625  13.423
54226W        W15757  40.886  39.376   4.634
54227W        W15758   8.319   0.434  11.084
54228W        W15759  16.220   1.926  11.569
54229W        W15760  36.931  40.799  10.617
54230W        W15761  37.355  28.969   0.390
54231W        W15762  29.454  23.151  10.612
54232W        W15763  40.973  16.282   3.760
54233W        W15764   3.442  41.892  11.915
54234W        W15765  34.454  36.541  14.434
54235W        W15766  29.644  30.568  14.006
54236W        W15767  43.377   5.280   0.432
54237W        W15768  24.665   2.274  13.444
54238W        W15769  18.215  10.373  11.601
54239W        W15770  38.068  41.988   2.693
54240W        W15771   2.323  30.924   0.271
54241W        W15772  43.948   1.348   2.385
54242W        W15773  28.994  34.889   0.244
54243W        W15774  36.455  23.730   2.198
54244W        W15775  40.352   0.299   0.785
54245W        W15776  41.506  44.791   2.210
54246W        W15777  37.465   8.770  12.512
54247W        W15778  35.949  38.459  12.552
54248W        W15779  10.298  43.012   3.838
54249W        W15780   5.297  20.544  14.876
54250W        W15781  19.634  29.112   0.394
54251W        W15782  21.698  21.518  12.358
54252W        W15783  41.913  26.610  11.401
54253W        W15784   8.712   8.724   0.748
54254W        W15785  16.083  29.550  12.068
54255W        W15786  12.354  42.504   3.319
54256W        W15787  20.732  28.444  12.441
54257W        W15788  24.102  20.108  14.864
54258W        W15789  35.959  43.007   4.340
54259W        W15790  18.569  41.869  11.910
54260W        W15791  41.305  40.444  11.380
54261W        W15792  34.971  37.076  14.321
54262W        W15793  44.999   5.339  14.827
54263W        W15794  29.477  29.486  11.456
54264W        W15795  42.889  20.747  10.962
54265W        W15796  12.709  25.545  11.499
54266W        W15797   7.398  29.066  11.958
54267W        W15798  39.528  21.083  12.431
54268W        W15799  36.095  12.326   0.309
54269W        W15800  26.551  23.047   4.186
54270W        W15801  15.267  24.097  12.988
54271W        W15802  10.374  36.040  11.006
54272W        W15803  20.184  12.293   4.228
54273W        W15804  32.461  23.046   0.844
54274W        W15805   8.160  32.485   3.355
54275W        W15806  41.825  27.617  14.901
54276W        W15807  15.684  26.080  11.942
54277W        W15808  15.230  22.516   5.306
54278W        W15809   3.796  16.653   2.790
54279W        W15810  25.144  31.135   0.727
54280W        W15811   8.684  22.182  11.579
54281W        W15812   4.904  17.645   3.224
54282W        W15813  16.628  16.085  11.980
54283W        W15814  11.167  31.579   1.910
54284W        W15815  15.268  18.151  11.891
54285W        W15816  35.032  41.377  12.953
54286W        W15817  29.650  39.822   2.263
54287W        W15818  21.684  25.474   3.216
54288W        W15819  37.451  40.052  12.895
54289W        W15820   4.239  13.785  12.054
54290W        W15821  38.416  33.913   2.719
54291W        W15822  39.399  35.373  11.068
54292W        W15823  17.599  33.883  11.937
54293W        W15824  26.104  12.314   2.853
54294W        W15825  20.621   3.319   3.254
54295W        W15826   2.938   7.700  12.923
54296W        W15827  30.444  24.583  12.417
54297W        W15828  42.984  25.199   2.837
54298W        W15829   6.270   4.836  10.958
54299W        W15830  19.617   9.303   3.326
54300W        W15831  42.448  23.559   0.342
54301W        W15832  11.134  24.198   3.862
54302W        W15833  26.627  42.339   2.223
54303W        W15834   5.918  44.863   1.325
54304W        W15835  39.043   3.789   0.820
54305W        W15836  29.920  31.121   4.195
54306W        W15837  34.369  20.743  13.915
54307W        W15838  17.126  38.364  11.970
54308W        W15839  27.487  32.107  13.033
54309W        W15840  20.629  44.763  14.796
54310W        W15841  44.985  38.977   0.308
54311W        W15842  24.494  13.790  11.578
54312W        W15843  15.180   2.812  13.483
54313W        W15844   6.900   2.333   1.412
54314W        W15845  28.537  28.556  14.458
54315W        W15846   1.931  33.398   1.913
54316W        W15847   7.229  25.209   3.356
54317W        W15848  11.788  40.920  14.870
54318W        W15849  44.900  30.926   2.764
54319W        W15850  33.491  44.493  14.421
54320W        W15851  44.889  27.498  14.781
54321W        W15852   1.914  24.176  12.891
54322W        W15853   7.908  36.957   4.811
54323W        W15854  41.306  34.431  13.919
54324W        W15855  42.014  23.712  10.555
54325W        W15856   6.392   5.241   0.891
54326W        W15857  10.324  24.064   5.140
54327W        W15858  25.605  30.562   0.287
54328W        W15859  25.549  31.412   3.298
54329W        W15860  29.971   9.286   0.769
54330W        W15861   1.383  40.348   4.193
54331W        W15862  16.699  41.443  12.573
54332W        W15863  38.530  15.735   0.285
54333W        W15864  16.784  19.717   0.960
54334W        W15865  16.229  21.182   4.143
54335W        W15866  11.669  41.387   0.769
54336W        W15867  21.521  11.368  11.076
54337W        W15868  43.922  16.633  11.960
54338W        W15869  13.223   4.876  11.073
54339W        W15870  32.511   2.831   0.731
54340W        W15871  23.529   3.805   4.354
54341W        W15872  23.642  44.450  10.607
54342W        W15873  31.983  33.056   1.703
54343W        W15874  41.974  23.129   1.843
54344W        W15875  27.955   1.940  11.914
54345W        W15876  19.678  26.997  13.839
54346W        W15877  30.032   4.229   0.410
54347W        W15878   5.368  12.847   3.770
54348W        W15879  11.865  17.275  13.879
54349W        W15880  16.639   7.228   3.155
54350W        W15881   2.789  43.001   2.233
54351W        W15882  40.347   6.337  13.976
54352W        W15883  35.601  27.507   2.243
54353W        W15884  18.781  25.089   0.947
54354W        W15885  25.011   8.276   4.131
54355W        W15886  40.328   2.781   2.220
54356W        W15887  15.630  32.441  10.931
54357W        W15888   2.259   4.804   1.706
54358W        W15889  44.759  33.874  11.043
54359W        W15890   8.361  11.807   0.434
54360W        W15891   7.909  26.698  12.963
54361W        W15892  27.026   9.373   3.302
54362W        W15893  17.793  21.017  10.631
54363W        W15894  31.553  31.648  11.510
54364W        W15895  29.606  20.579  12.480
54365W        W15896  23.556  32.036   2.247
54366W        W15897  39.387  19.189   3.279
54367W        W15898  17.708  35.896  11.571
54368W        W15899  16.128   4.900   4.641
54369W        W15900  12.212  29.637  14.809
54370W        W15901  42.972  33.503   3.200
54371W        W15902  33.890  10.658  13.853
54372W        W15903  12.696  38.410  14.992
54373W        W15904  20.656  30.614  12.397
54374W        W15905  33.535   4.838  12.838
54375W        W15906  20.674  32.976  14.768
54376W        W15907   6.262  18.232   3.805
54377W        W15908  18.243  24.976  12.972
54378W        W15909  42.402   5.731   0.763
54379W        W15910   1.359  14.123  13.399
54380W        W15911  18.632  38.048  11.510
54381W        W15912  17.662  29.599   2.686
54382W        W15913  42.350  24.057  13.960
54383W        W15914  33.436  22.152  12.359
54384W        W15915  37.853  16.707   2.778
54385W        W15916  20.570  22.238   9.593
54386W        W15917  35.896  32.399   4.598
54387W        W15918  41.975   8.715  10.150
54388W        W15919  42.868  20.159   0.264
54389W        W15920  14.757  14.770   2.325
54390W        W15921  20.133  35.372   1.271
54391W        W15922  44.819   8.804  10.474
54392W        W15923  25.201  27.561  13.791
54393W        W15924  12.151  19.643   3.853
54394W        W15925   5.862  37.566   0.873
54395W        W15926  11.310  15.161   1.893
54396W        W15927  28.938  12.730  12.455
54397W        W15928  13.626  26.071   0.746
54398W        W15929  34.385  24.040  11.439
54399W        W15930   5.841  21.671   2.741
54400W        W15931  29.570  16.226   2.323
54401W        W15932   9.170   4.945  11.517
54402W        W15933  26.610  27.594  10.493
54403W        W15934  19.625   1.830  10.930
54404W        W15935  28.159  13.722  10.939
54405W        W15936  40.897  34.115  11.098
54406W        W15937  23.654  27.679  12.008
54407W        W15938  42.337  31.631   4.699
54408W        W15939  26.099   3.409   2.826
54409W        W15940  31.934  40.823   4.718
54410W        W15941   5.292   5.317   2.715
54411W        W15942  29.028  44.479   2.230
54412W        W15943  12.781  24.098   0.807
54413W        W15944  22.600   9.649   0.321
54414W        W15945  37.048   1.281  11.908
54415W        W15946  42.990  11.263   2.218
54416W        W15947  29.531  41.804  13.061
54417W        W15948  27.963  32.565  11.090
54418W        W15949  19.218  20.550  13.013
54419W        W15950   5.196   9.237  14.894
54420W        W15951  24.484  33.517   3.313
54421W        W15952   6.232  23.191  11.457
54422W        W15953  29.579  19.574  13.532
54423W        W15954  44.304  32.079  10.417
54424W        W15955  12.797   5.307  12.935
54425W        W15956  30.461  34.374  14.487
54426W        W15957  16.775  13.215   3.353
54427W        W15958   2.234  11.134   3.673
54428W        W15959  22.137  32.010  13.390
54429W        W15960   7.375   5.373   0.927
54430W        W15961  43.446  28.537   3.841
54431W        W15962  37.558  39.064   1.698
54432W        W15963  44.286   1.463  10.065
54433W        W15964   0.438  16.283  10.434
54434W        W15965  29.024  37.925  14.296
54435W        W15966  16.786  36.875   3.233
54436W        W15967  15.747  37.352   0.924
54437W        W15968   3.712  41.464   1.841
54438W        W15969  20.240  26.119   0.945
54439W        W15970  14.200  22.246   3.710
54440W        W15971  12.786   7.763   3.170
54441W        W15972  35.082   9.687   4.833
54442W        W15973  33.934  39.972  11.524
54443W        W15974  15.683  13.738  13.999
54444W        W15975  31.569   8.871  14.438
54445W        W15976  37.900  33.526   0.910
54446W        W15977  22.520   6.728   1.262
54447W        W15978  23.999  37.889   1.885
54448W        W15979  13.662  38.436   4.234
54449W        W15980  25.529  10.667  14.001
54450W        W15981  44.495  16.788   1.266
54451W        W15982  34.591  41.801   9.994
54452W        W15983  42.371  21.149   1.322
54453W        W15984  26.632  23.164   1.226
54454W        W15985   4.330  36.069  11.118
54455W        W15986  28.159   8.761   1.872
54456W        W15987   9.392   8.692   3.159
54457W        W15988  44.382  30.628  10.619
54458W        W15989  25.987  32.950  14.509
54459W        W15990   1.882  44.860  13.368
54460W        W15991  32.429  11.143   1.242
54461W        W15992   9.175  39.824   0.282
54462W        W15993  44.367  14.770   1.390
54463W        W15994  43.922  21.521  11.446
54464W        W15995  25.065  13.612  11.995
54465W        W15996  22.648   7.262  11.527
54466W        W15997  26.681  37.892  13.509
54467W        W15998  40.011  26.580   4.803
54468W        W15999   4.301  19.225   3.754
54469W        W16000  27.986  38.496  12.080
54470W        W16001  38.909  41.389   9.967
54471W        W16002   1.731  37.000  11.123
54472W        W16003  37.938   2.833  14.775
54473W        W16004   2.805  12.206  14.378
54474W        W16005  40.896  32.000  13.055
54475W        W16006  19.191   1.735   2.740
54476W        W16007   3.904  24.594   3.246
54477W        W16008  36.354  36.397   4.742
54478W        W16009  34.601   9.338   1.352
54479W        W16010  34.057  41.385  11.603
54480W        W16011  16.631  42.939   0.900
54481W        W16012   5.725  25.563  12.994
54482W        W16013  42.509   7.787  12.456
54483W        W16014  28.580  23.199   0.303
54484W        W16015  15.751  21.620  11.877
54485W        W16016  40.344  23.039  11.917
54486W        W16017  17.195   2.367  12.902
54487W        W16018  18.603  19.052   4.120
54488W        W16019   9.219   5.323   0.413
54489W        W16020  29.503  21.594   4.703
54490W        W16021  23.026  16.591   4.646
54491W        W16022  17.238  12.228   2.244
54492W        W16023  32.460  22.115  10.497
54493W        W16024   0.330  41.362  11.964
54494W        W16025   6.719  13.267  13.874
54495W        W16026  13.269  34.604  10.587
54496W        W16027  37.934  27.041  12.557
54497W        W16028   3.882  17.723  14.952
54498W        W16029   0.795  34.569  12.835
54499W        W16030  38.834  44.407  12.870
54500W        W16031  17.075  29.590  13.873
54501W        W16032  14.310  10.758  10.897
54502W        W16033   0.318  13.178   3.205
54503W        W16034  11.159  24.165   1.694
54504W        W16035   7.880  28.076  14.491
54505W        W16036  43.921  18.631   4.207
54506W        W16037  37.927  30.622  11.089
54507W        W16038  34.919  29.986  12.527
54508W        W16039   8.900  22.995  14.002
54509W        W16040  41.407  44.315   3.799
54510W        W16041  35.023  36.848   5.307
54511W        W16042  37.901   5.288   4.781
54512W        W16043  37.467  32.928   2.183
54513W        W16044   2.246  39.516   2.748
54514W        W16045  26.498  44.967   1.890
54515W        W16046  24.220  30.519   2.331
54516W        W16047   8.873   8.680   1.256
54517W        W16048  21.622  15.110   4.674
54518W        W16049   0.357  27.567   4.166
54519W        W16050  44.912  44.321   9.973
54520W        W16051  38.517  12.676  11.608
54521W        W16052   5.338  12.787   1.327
54522W        W16053  29.965  23.000   0.787
54523W        W16054  19.255  40.026  10.466
54524W        W16055  22.109  23.495  12.829
54525W        W16056   6.872  42.881   4.661
54526W        W16057  17.653   4.236   2.768
54527W        W16058   7.393  43.850   2.391
54528W        W16059  14.774  19.543  12.401
54529W        W16060   6.704  21.730   3.179
54530W        W16061   2.804  26.612   0.954
54531W        W16062  19.669   2.420   1.287
54532W        W16063  28.020  39.998  12.875
54533W        W16064  19.233  28.101   2.730
54534W        W16065  27.050  10.316   4.718
54535W        W16066  33.976  14.180  14.468
54536W        W16067   1.393  44.488   2.902
54537W        W16068  27.955  43.344   0.732
54538W        W16069  15.167   2.360   3.280
54539W        W16070   7.807   9.851  13.358
54540W        W16071  30.095  28.946  11.003
54541W        W16072  34.024  18.620  11.092
54542W        W16073  24.163   3.730  14.896
54543W        W16074  14.200  13.136  11.973
54544W        W16075  42.376  27.128   0.925
54545W        W16076  29.107  41.304  10.470
54546W        W16077  20.250  16.291   1.325
54547W        W16078  28.999  44.818  11.976
54548W        W16079  22.041  42.291  10.581
54549W        W16080  39.012  26.458   2.837
54550W        W16081   1.856  20.635  14.915
54551W        W16082  10.764  15.084  14.475
54552W        W16083   6.286   7.197   4.252
54553W        W16084  35.854   1.763   3.225
54554W        W16085  31.450  23.646  12.837
54555W        W16086  39.957  37.837  13.858
54556W        W16087  20.624   5.323  11.476
54557W        W16088   2.962  16.587   0.474
54558W        W16089   0.758  34.530  14.803
54559W        W16090  12.203   1.801   0.310
54560W        W16091   5.389  27.547   0.474
54561W        W16092  37.580  15.224   2.306
54562W        W16093  18.289  38.959  14.304
54563W        W16094  27.096  36.490   4.719
54564W        W16095  29.075  28.667   4.813
54565W        W16096   3.931  25.213  10.150
54566W        W16097   1.807  29.948   2.316
54567W        W16098  27.952  17.721   3.777
54568W        W16099  43.330  11.200   4.771
54569W        W16100  41.945   2.432  12.449
54570W        W16101  44.448  33.601  13.979
54571W        W16102  16.202  22.537  14.937
54572W        W16103  35.464  10.175   2.673
54573W        W16104  16.096   6.734  10.908
54574W        W16105  18.150  25.999  10.075
54575W        W16106  35.100   2.792  13.927
54576W        W16107  32.962   7.750   1.328
54577W        W16108  28.554  22.526   0.769
54578W        W16109  28.461  12.358   9.482
54579W        W16110   4.240   4.355  14.447
54580W        W16111  34.382  44.855   1.398
54581W        W16112  14.134   4.844   2.382
54582W        W16113  36.589  22.724  12.573
54583W        W16114  43.792  33.881  13.507
54584W        W16115   4.873  24.987   1.740
54585W        W16116  23.112  21.211   2.705
54586W        W16117  32.472  14.132   1.792
54587W        W16118   9.850   6.296  12.538
54588W        W16119  23.645  28.516  14.478
54589W        W16120   4.812   9.757   4.198
54590W        W16121  15.767  42.005   5.135
54591W        W16122  31.552  15.802   0.250
54592W        W16123   1.791   4.378   2.385
54593W        W16124  10.278  11.726   2.238
54594W        W16125  41.021  26.589  12.394
54595W        W16126   6.258  43.894   1.297
54596W        W16127   6.850  17.563  12.074
54597W        W16128  39.018  12.810  12.399
54598W        W16129  37.863  42.341   3.279
54599W        W16130  42.381  42.313  12.580
54600W        W16131  35.108  22.740  10.456
54601W        W16132   2.298  29.550   2.875
54602W        W16133  10.738  18.255   0.779
54603W        W16134  36.531  23.499  10.002
54604W        W16135  23.597  26.530  14.441
54605W        W16136  10.159  23.627  12.341
54606W        W16137  39.861  44.385   1.886
54607W        W16138  19.647   6.372   1.306
54608W        W16139  42.893  25.511   5.185
54609W        W16140   8.404  30.493  12.526
54610W        W16141  34.869  27.164  14.844
54611W        W16142  17.129   5.762  14.032
54612W        W16143  30.453  35.867  12.451
54613W        W16144  13.779  16.653   0.817
54614W        W16145  17.294  17.123  13.965
54615W        W16146  31.118  30.164  12.405
54616W        W16147   0.423   0.834  13.518
54617W        W16148  40.805  11.292   1.333
54618W        W16149  28.963  21.020  13.959
54619W        W16150  36.962   4.749   1.391
54620W        W16151   7.253  29.143   2.254
54621W        W16152  16.660  22.052   0.857
54622W        W16153  40.498   9.191  11.375
54623W        W16154  38.897  37.430  13.839
54624W        W16155  44.935  12.174  11.576
54625W        W16156  37.570   1.974  11.547
54626W        W16157   3.271  10.811  13.996
54627W        W16158  12.854  40.020  13.524
54628W        W16159   7.317  18.709   2.230
54629W        W16160  17.788  25.553  13.987
54630W        W16161  12.301  41.365  11.087
54631W        W16162  40.050  21.099   3.693
54632W        W16163   3.759  19.680  14.930
54633W        W16164  39.408  31.980  14.501
54634W        W16165  35.445  24.996   3.689
54635W        W16166  31.112   6.204   1.881
54636W        W16167  42.843  24.230   0.333
54637W        W16168  32.995  43.322   4.707
54638W        W16169  19.609  13.606   0.743
54639W        W16170  33.915  31.451  13.874
54640W        W16171  30.055  22.150   2.868
54641W        W16172  31.457  19.613  11.073
54642W        W16173  34.004   9.702   3.250
54643W        W16174   4.227  13.295  11.948
54644W        W16175   4.851  22.026  11.550
54645W        W16176  16.692  15.328  13.809
54646W        W16177   1.750  17.247   1.810
54647W        W16178  34.953  12.776   3.748
54648W        W16179   7.233  19.103   4.821
54649W        W16180  11.156   7.231   4.181
54650W        W16181  40.414  17.181  14.415
54651W        W16182  26.618  28.098   4.642
54652W        W16183  17.745  39.408  13.911
54653W        W16184  29.109   9.689  10.905
54654W        W16185  34.399  22.077  12.872
54655W        W16186  30.591   8.837   3.334
54656W        W16187  44.932  39.458  10.453
54657W        W16188  24.230  21.582  13.442
54658W        W16189  17.079  34.543   0.397
54659W        W16190  24.675  18.188  13.944
54660W        W16191  15.806  12.736  13.541
54661W        W16192  16.313  15.588  14.306
54662W        W16193  39.419  11.137   4.659
54663W        W16194  16.585   8.817   2.359
54664W        W16195  31.146  25.645  12.886
54665W        W16196   5.774  35.010  14.004
54666W        W16197  22.718  24.223  12.519
54667W        W16198  17.782  17.571   2.205
54668W        W16199  33.076   2.398  14.345
54669W        W16200  13.137  12.303   3.720
54670W        W16201  11.656  43.495   4.163
54671W        W16202   6.262  26.676  14.296
54672W        W16203  35.361  12.261   1.764
54673W        W16204  30.051   4.851   3.173
54674W        W16205  35.966   1.806  14.417
54675W        W16206  39.038  33.918   3.266
54676W        W16207  14.712  15.324  14.462
54677W        W16208  13.670  27.459   3.283
54678W        W16209  28.108   7.203  10.506
54679W        W16210  24.177  11.744  11.419
54680W        W16211  40.949  11.200   0.327
54681W        W16212   3.887  27.452  11.977
54682W        W16213  19.605   0.299  13.457
54683W        W16214  23.237  37.864   0.929
54684W        W16215  11.270  28.671  13.995
54685W        W16216  41.417  13.665  10.923
54686W        W16217  43.846  38.922   1.768
54687W        W16218   5.839  30.994   3.355
54688W        W16219   1.248   1.971  13.815
54689W        W16220  24.506  38.378   3.221
54690W        W16221  34.476  32.923  14.306
54691W        W16222  41.798  13.243  13.363
54692W        W16223  10.848  16.772  14.818
54693W        W16224   4.410   3.941  12.955
54694W        W16225  35.978  15.122   2.675
54695W        W16226  34.060   8.708   4.254
54696W        W16227  42.346  17.672  14.952
54697W        W16228  39.358  31.425  13.473
54698W        W16229  24.525   1.367  12.454
54699W        W16230  11.275  25.117   2.276
54700W        W16231   2.386  34.528   4.658
54701W        W16232  17.776  19.638  14.319
54702W        W16233  21.659  40.361  10.556
54703W        W16234   8.699  31.547  13.540
54704W        W16235  25.090  28.073   0.733
54705W        W16236  26.100   9.387  12.925
54706W        W16237  11.703  41.905  13.532
54707W        W16238  21.653  25.683  14.836
54708W        W16239  36.395   1.840   5.266
54709W        W16240  44.486  38.835   2.676
54710W        W16241  44.869  12.695  11.946
54711W        W16242  30.535  24.641  13.402
54712W        W16243  10.368  11.312   1.896
54713W        W16244   2.766  11.300  10.619
54714W        W16245  34.907  23.197  13.500
54715W        W16246   5.407   8.401   0.322
54716W        W16247  18.602  12.327  14.907
54717W        W16248   4.917  25.126  11.886
54718W        W16249  23.217  28.121  12.930
54719W        W16250  19.053  33.981   2.700
54720W        W16251  28.115  43.917   0.739
54721W        W16252   7.409  17.163  10.422
54722W        W16253  31.564  37.382  10.572
54723W        W16254  13.606  31.416  11.875
54724W        W16255  28.039  16.802   0.813
54725W        W16256  10.673  15.154   2.855
54726W        W16257  15.644   6.677   3.190
54727W        W16258  14.824   1.266   3.664
54728W        W16259   3.436  44.318  14.864
54729W        W16260  32.445  21.524   4.805
54730W        W16261  29.967  23.727  13.869
54731W        W16262  43.397  36.502   0.427
54732W        W16263   6.726  14.183  13.388
54733W        W16264  17.637  40.492   3.226
54734W        W16265   1.404  38.870  14.288
54735W        W16266  42.373   0.794   1.228
54736W        W16267  34.377   4.327  10.983
54737W        W16268  33.416  18.624  10.628
54738W        W16269  13.836  32.609   2.708
54739W        W16270   0.494  22.016  12.855
54740W        W16271  37.394   4.818  12.017
54741W        W16272  26.005  24.546   1.924
54742W        W16273  41.009  20.036  11.599
54743W        W16274  13.667  37.838  12.504
54744W        W16275  44.463  13.238  12.850
54745W        W16276  20.264   8.682   4.202
54746W        W16277  22.743  41.424  14.835
54747W        W16278  43.442  41.042  12.580
54748W        W16279  43.009  13.112  14.902
54749W        W16280   9.273  41.848   0.243
54750W        W16281   2.281  17.719  10.957
54751W        W16282   2.366  11.626  10.051
54752W        W16283   6.309  16.581   1.817
54753W        W16284  39.382  16.568   0.301
54754W        W16285  10.657   0.910   0.846
54755W        W16286   6.820  34.970  11.412
54756W        W16287  36.082  39.410  14.373
54757W        W16288  13.711  18.743  10.964
54758W        W16289   8.725  28.468  14.942
54759W        W16290  38.502  42.406  10.933
54760W        W16291  14.109  26.508  10.083
54761W        W16292   8.660  43.316   0.316
54762W        W16293  29.572  10.868  11.981
54763W        W16294   3.384  35.944  13.464
54764W        W16295  22.664   4.269  12.562
54765W        W16296  37.872  41.829   1.290
54766W        W16297  30.486   3.948  14.955
54767W        W16298  24.601  42.009   2.325
54768W        W16299  12.185   8.243   4.761
54769W        W16300   8.791  19.621   5.295
54770W        W16301  42.343  13.169   2.695
54771W        W16302  22.208  42.291   1.794
54772W        W16303  21.225  16.655   2.179
54773W        W16304  20.685  39.427   0.952
54774W        W16305  19.733  14.796  14.883
54775W        W16306  28.605   0.377  10.456
54776W        W16307  30.466  24.143  12.841
54777W        W16308  31.633   5.258  12.080
54778W        W16309  30.564  19.763  12.389
54779W        W16310   4.860  30.952  11.969
54780W        W16311   4.339  37.012   1.355
54781W        W16312  23.649   7.720  11.866
54782W        W16313  28.050  22.158  11.486
54783W        W16314  17.155   5.227  11.962
54784W        W16315  25.097  15.717   0.798
54785W        W16316   7.225  26.119   1.297
54786W        W16317  43.310  25.152   3.251
54787W        W16318  29.026  40.384   2.266
54788W        W16319  28.992  22.566  12.523
54789W        W16320  21.672  15.111  13.971
54790W        W16321   2.771  44.260  14.837
54791W        W16322  14.301  22.740   3.266
54792W        W16323  13.738  43.872   3.189
54793W        W16324  31.087  25.981   3.735
54794W        W16325  23.520  11.693  10.471
54795W        W16326  11.697  27.142  11.501
54796W        W16327  37.413  43.932  12.955
54797W        W16328  40.894  38.562   0.371
54798W        W16329   2.252  34.889   3.211
54799W        W16330   5.770  35.929  11.487
54800W        W16331  37.545  17.773  10.644
54801W        W16332  30.936  10.165   5.151
54802W        W16333  28.030   9.855  12.481
54803W        W16334  22.122  22.075   2.760
54804W        W16335  20.699  11.663  13.538
54805W        W16336   2.278  10.229   2.891
54806W        W16337  12.783  16.219   1.870
54807W        W16338  13.226  32.514   2.318
54808W        W16339  42.332   0.810   1.926
54809W        W16340  40.407  33.093  13.955
54810W        W16341  22.220  31.103   1.414
54811W        W16342  29.457  32.498   2.239
54812W        W16343   1.468  10.220   4.792
54813W        W16344   4.800  19.668  10.974
54814W        W16345  41.369  31.619  14.807
54815W        W16346  22.738  38.820   1.829
54816W        W16347  35.570  19.750   4.149
54817W        W16348  24.041   9.199  11.904
54818W        W16349   7.848  22.674  10.621
54819W        W16350  14.200  23.198  13.324
54820W        W16351  30.631  44.489   5.279
54821W        W16352   1.325  15.610   4.705
54822W        W16353   5.769  41.032  13.427
54823W        W16354  19.132  17.189  11.937
54824W        W16355  33.562   8.805  13.950
54825W        W16356   1.808   6.812  14.415
54826W        W16357  31.084  37.512  12.429
54827W        W16358  23.214  36.402   1.402
54828W        W16359  36.070  30.088   3.244
54829W        W16360  33.957  11.633   4.153
54830W        W16361  34.028  12.734   5.144
54831W        W16362  26.101   0.465  13.520
54832W        W16363  43.905  34.993   3.240
54833W        W16364  33.500  11.629   3.699
54834W        W16365  20.114   5.770  14.921
54835W        W16366   1.347  33.519  11.882
54836W        W16367  27.002  28.975  11.589
54837W        W16368  43.930  35.399   3.648
54838W        W16369  20.271  38.416  14.948
54839W        W16370  29.154   2.818  13.839
54840W        W16371  34.979  13.286  13.548
54841W        W16372  22.210  41.472  10.623
54842W        W16373  15.141  33.085   4.678
54843W        W16374  15.301   4.368   1.399
54844W        W16375  25.544  34.080  11.899
54845W        W16376  35.921   1.748  14.771
54846W        W16377  13.121  39.378  13.311
54847W        W16378  36.479  16.781   3.171
54848W        W16379   4.277  15.253  11.020
54849W        W16380  24.535  17.675   1.853
54850W        W16381  33.599   0.967  10.156
54851W        W16382  41.530   5.234  14.295
54852W        W16383  18.622  28.042  10.458
54853W        W16384   7.816  41.022   1.717
54854W        W16385  25.652  23.574   0.878
54855W        W16386  39.547  33.914   3.315
54856W        W16387  38.824  23.510   4.214
54857W        W16388  35.059  44.301   1.411
54858W        W16389   6.859  23.233   1.276
54859W        W16390  32.935  13.174   0.321
54860W        W16391   4.276  20.068  12.557
54861W        W16392  20.119  40.898  11.867
54862W        W16393  30.933  39.456   3.734
54863W        W16394  13.665  42.444  13.983
54864W        W16395  20.620  39.952   1.369
54865W        W16396  32.908  41.303   2.756
54866W        W16397   4.234  40.049   1.753
54867W        W16398  35.484   1.816  11.099
54868W        W16399  34.533  25.575  12.498
54869W        W16400   4.395  21.045   4.285
54870W        W16401  20.530   1.759   1.220
54871W        W16402   6.297  40.381   1.240
54872W        W16403  44.406  22.113  12.441
54873W        W16404  15.254  14.595   0.845
54874W        W16405   5.394  22.513  12.092
54875W        W16406  24.123  24.506   4.749
54876W        W16407  35.585  14.652  13.451
54877W        W16408  30.599  37.917   2.865
54878W        W16409   1.351  13.688   4.745
54879W        W16410  11.340  14.625  14.414
54880W        W16411  23.038  23.633  14.500
54881W        W16412   1.912   1.846   1.765
54882W        W16413  12.254  25.146  13.534
54883W        W16414  18.722  35.581  10.451
54884W        W16415  34.946   8.397  11.951
54885W        W16416  11.291  10.302   1.436
54886W        W16417  22.739  18.065  10.012
54887W        W16418  15.767  22.116   1.866
54888W        W16419  12.787   1.384  14.949
54889W        W16420  17.307  14.333  12.928
54890W        W16421  36.013   7.378   0.952
54891W        W16422  17.786  30.430  11.498
54892W        W16423  28.677  44.000   1.744
54893W        W16424  35.060  34.491   4.286
54894W        W16425  25.638  14.159  14.792
54895W        W16426  24.723  41.406  10.594
54896W        W16427  28.181  18.175  11.554
54897W        W16428  14.641  24.012   1.833
54898W        W16429  41.874   5.314  13.524
54899W        W16430   7.908   0.777  11.607
54900W        W16431  14.244  38.354  14.355
54901W        W16432   5.301  31.143   4.303
54902W        W16433   6.705  11.355   0.751
54903W        W16434   1.289  11.319   1.809
54904W        W16435  22.693  31.014  14.980
54905W        W16436   6.286  21.743  10.999
54906W        W16437   3.354  16.072   4.250
54907W        W16438  12.798  26.953  13.826
54908W        W16439  23.676  12.264  11.858
54909W        W16440   4.715  37.551   3.328
54910W        W16441  33.874  35.080  12.854
54911W        W16442  39.040  13.836   1.255
54912W        W16443  32.454   2.851   2.244
54913W        W16444  27.461  11.677   4.641
54914W        W16445  38.848  12.754   4.679
54915W        W16446  42.300  19.279   4.686
54916W        W16447   9.808   3.422  10.992
54917W        W16448   1.412  40.418  12.872
54918W        W16449  25.543  28.034  11.974
54919W        W16450  35.886  17.667  11.564
54920W        W16451  10.796  32.919   2.742
54921W        W16452  29.027  33.888   3.645
54922W        W16453   8.715  11.747   0.726
54923W        W16454  42.453   5.727  13.852
54924W        W16455  36.364   4.406   0.414
54925W        W16456  20.189  40.487   2.898
54926W        W16457   6.336  12.765   2.757
54927W        W16458   1.825  31.075   1.762
54928W        W16459  39.018   0.329  12.555
54929W        W16460  24.644   7.825  13.904
54930W        W16461  26.680   8.742   1.745
54931W        W16462  35.460  25.201   3.305
54932W        W16463  42.806   8.365  11.504
54933W        W16464  14.227  24.486   0.420
54934W        W16465   5.797  26.160  13.897
54935W        W16466  26.983  25.106   4.774
54936W        W16467  10.205  42.791  14.353
54937W        W16468  40.364  11.716  12.826
54938W        W16469  38.034  33.509  13.874
54939W        W16470  27.161  23.721   1.276
54940W        W16471   8.876  34.497   1.780
54941W        W16472  44.397   8.889   0.246
54942W        W16473  16.800  22.011   4.209
54943W        W16474  11.818  18.180  13.868
54944W        W16475  13.314  20.613  14.919
54945W        W16476   6.403  32.587  13.356
54946W        W16477  13.675  32.464   0.777
54947W        W16478   6.239  16.289  12.376
54948W        W16479  18.782  15.736  14.023
54949W        W16480  27.659  39.490   1.842
54950W        W16481  15.200  32.489   0.910
54951W        W16482  43.876   5.805   2.769
54952W        W16483  22.080  28.465  11.581
54953W        W16484  43.818  24.498   1.278
54954W        W16485  35.547  31.103  14.378
54955W        W16486  14.592  29.539  14.007
54956W        W16487   5.277  16.292   1.239
54957W        W16488  19.234  41.509  13.796
54958W        W16489  23.992  19.736   2.790
54959W        W16490  30.555   9.676   4.253
54960W        W16491   7.759  41.790  14.807
54961W        W16492  21.162  12.645  13.870
54962W        W16493  30.057  11.270   1.433
54963W        W16494   4.371  21.254  14.367
54964W        W16495  38.475  36.079   3.345
54965W        W16496  20.547   7.705  13.002
54966W        W16497   6.224   1.281  11.435
54967W        W16498  24.116  17.215   2.834
54968W        W16499  41.513  28.042   1.840
54969W        W16500  43.447  25.600  12.560
54970W        W16501   2.910  25.555   5.188
54971W        W16502   7.364  34.970   3.658
54972W        W16503  13.251  18.710  11.426
54973W        W16504  41.418  15.198   2.297
54974W        W16505   2.328  27.635   3.268
54975W        W16506  33.029  20.691  12.049
54976W        W16507  12.311  10.141   1.235
54977W        W16508  42.850  24.637  11.446
54978W        W16509  31.136  11.327   3.819
54979W        W16510  34.103  41.394   3.669
54980W        W16511  42.402  43.812  11.991
54981W        W16512  14.224  27.076  13.495
54982W        W16513  29.017  42.413  12.405
54983W        W16514  30.040   5.920   0.351
54984W        W16515  19.746  19.236  13.446
54985W        W16516  29.547   3.460   3.632
54986W        W16517  27.576  31.124   4.226
54987W        W16518  31.051  39.932   4.746
54988W        W16519  39.052  27.001   2.283
54989W        W16520   3.752  31.624   3.683
54990W        W16521  33.130  14.650  13.936
54991W        W16522  29.156  40.359   1.357
54992W        W16523  23.657  15.150  12.947
54993W        W16524  33.127   5.294  14.310
54994W        W16525  24.503  41.960   3.169
54995W        W16526  23.543  25.587  11.941
54996W        W16527  13.688  21.218   1.782
54997W        W16528   0.324  15.638   4.634
54998W        W16529  23.502  41.383   5.171
54999W        W16530  33.917  15.211  12.393
55000W        W16531   3.407  36.990   2.683
55001W        W16532  43.814  18.084   0.343
55002W        W16533  33.518  13.233   0.837
55003W        W16534  38.019  19.590  13.466
55004W        W16535  30.008  26.963  10.981
55005W        W16536  13.311   1.879   4.250
55006W        W16537   4.252  16.691  11.422
55007W        W16538  27.149  41.000   3.299
55008W        W16539  23.561  20.542  13.852
55009W        W16540  21.073  20.577   0.883
55010W        W16541  42.893  33.598   3.694
55011W        W16542  33.013   9.749   2.874
55012W        W16543   2.326  22.598  14.863
55013W        W16544  12.280  34.121   3.711
55014W        W16545  42.943  13.119  13.454
55015W        W16546  10.281  32.049  12.969
55016W        W16547  22.611   2.764   0.938
55017W        W16548  15.183   5.815  14.788
55018W        W16549  25.477  43.292   1.761
55019W        W16550  14.639  27.131   0.855
55020W        W16551  32.572  40.999   4.321
55021W        W16552  38.343  39.359   4.684
55022W        W16553   9.657  20.735   1.440
55023W        W16554  24.681  36.444   4.689
55024W        W16555  20.125   4.803   3.711
55025W        W16556   2.386  18.747  13.944
55026W        W16557  43.877  40.535   3.267
55027W        W16558  13.301   3.419  11.550
55028W        W16559   5.364  30.137   1.402
55029W        W16560  14.663  22.027  14.905
55030W        W16561  29.077  27.527   1.307
55031W        W16562  30.514  32.410   0.326
55032W        W16563  16.697   8.707   4.775
55033W        W16564  42.304  16.220  11.921
55034W        W16565   3.344  35.449  10.492
55035W        W16566  35.913  11.856  10.419
55036W        W16567  37.507  43.272  13.406
55037W        W16568  35.911  21.662   0.389
55038W        W16569  28.981  21.559   1.881
55039W        W16570  40.847   7.696  12.906
55040W        W16571  13.318  13.267   0.767
55041W        W16572  19.749  16.251   1.428
55042W        W16573  30.118  32.965   2.667
55043W        W16574  15.769  27.454  10.643
55044W        W16575  15.243  19.780   4.158
55045W        W16576  16.646  10.142  14.513
55046W        W16577  13.746  27.996   2.770
55047W        W16578  10.174  38.489   2.785
55048W        W16579   3.460  28.061  13.881
55049W        W16580  14.248  34.456   1.867
55050W        W16581  21.649  10.697  14.379
55051W        W16582  26.165  32.099   3.693
55052W        W16583  28.070  36.059   3.779
55053W        W16584  38.053  14.287   0.888
55054W        W16585   1.324  25.673   4.777
55055W        W16586  33.380  44.937   3.702
55056W        W16587  37.939  26.967  13.428
55057W        W16588   7.674  44.835   4.821
55058W        W16589  41.303  34.026   4.320
55059W        W16590  21.044  22.162   2.895
55060W        W16591   6.209   9.877   2.415
55061W        W16592  42.821  32.439  11.427
55062W        W16593  30.927  20.215   1.747
55063W        W16594   2.421  39.963   9.976
55064W        W16595  34.480  13.254   1.772
55065W        W16596  28.022  19.222   4.125
55066W        W16597  44.406  35.566   0.961
55067W        W16598   6.877  34.514   3.666
55068W        W16599   9.829  44.265   2.900
55069W        W16600   9.332   6.806   2.215
55070W        W16601  18.706   3.296   3.728
55071W        W16602  41.440  28.091   1.446
55072W        W16603  19.144  16.682  14.797
55073W        W16604  29.667  41.501   3.159
55074W        W16605  33.522  40.847   4.315
55075W        W16606  40.875   9.218  10.123
55076W        W16607  37.487  41.910   3.240
55077W        W16608  31.995   3.350  10.426
55078W        W16609  25.703  33.091  13.334
55079W        W16610  14.114   7.814  14.010
55080W        W16611   6.190  14.329   3.334
55081W        W16612   6.683  38.344  13.821
55082W        W16613  39.038   1.973  10.144
55083W        W16614  38.507  13.743   3.824
55084W        W16615  41.893   5.376  11.110
55085W        W16616  37.900  27.539   2.416
55086W        W16617  21.666   6.872   0.950
55087W        W16618   4.813   5.770   3.796
55088W        W16619  15.192  42.968   1.822
55089W        W16620   6.209  18.784  13.422
55090W        W16621  40.923  28.589   4.686
55091W        W16622  40.437  16.804   4.718
55092W        W16623  23.491  34.921  14.380
55093W        W16624   1.448  14.154   1.898
55094W        W16625  31.514  42.478  12.896
55095W        W16626  43.785   3.804   2.192
55096W        W16627   6.198  18.278   9.944
55097W        W16628  35.857  41.860  11.407
55098W        W16629  29.079  23.010  13.934
55099W        W16630  43.361  39.932  14.819
55100W        W16631  25.640   6.387  13.808
55101W        W16632  28.569   0.479  11.022
55102W        W16633  42.468  18.073   3.687
55103W        W16634  31.954  32.468   0.326
55104W        W16635  29.150   0.970  14.280
55105W        W16636   7.175   4.866  12.442
55106W        W16637   5.757  32.569  14.931
55107W        W16638  29.534   0.421  13.355
55108W        W16639   3.901  10.823   4.294
55109W        W16640  31.644   5.357   1.420
55110W        W16641  24.613  14.600  10.627
55111W        W16642  42.305  26.176   2.662
55112W        W16643   5.319   2.327   3.384
55113W        W16644  10.776  33.470   2.346
55114W        W16645  13.711  19.208  12.992
55115W        W16646  23.564  17.169   1.903
55116W        W16647  30.132  25.160   1.883
55117W        W16648  16.215   4.264   3.679
55118W        W16649  20.119  24.105   5.579
55119W        W16650  15.593  33.930   4.632
55120W        W16651  31.550  14.677   9.932
55121W        W16652   7.210  23.989  10.608
55122W        W16653  20.183  37.895  10.964
55123W        W16654  26.073  34.011   2.882
55124W        W16655   7.170  33.547   4.251
55125W        W16656   0.405  39.456   0.356
55126W        W16657  22.995  26.679  11.969
55127W        W16658  39.943  11.318   0.762
55128W        W16659  10.729  30.542  12.449
55129W        W16660  34.982  33.934  14.970
55130W        W16661  29.158  31.460   2.390
55131W        W16662  10.260  41.463  12.562
55132W        W16663  26.952  17.740  10.625
55133W        W16664   5.296  30.979  14.422
55134W        W16665  14.604  36.936  10.941
55135W        W16666  42.787   5.416   2.243
55136W        W16667  23.064  12.672   2.354
55137W        W16668  10.318  15.269  14.366
55138W        W16669  13.672  32.457   0.417
55139W        W16670  13.224  11.658   1.449
55140W        W16671  12.158  28.460   0.742
55141W        W16672  38.343  26.202  13.859
55142W        W16673   7.193  10.367   2.322
55143W        W16674  30.595  38.417  13.478
55144W        W16675   2.844  21.716   4.320
55145W        W16676  37.347  27.966   2.371
55146W        W16677  16.658   2.913   3.634
55147W        W16678   0.447  18.158   4.321
55148W        W16679  23.562  21.535   0.278
55149W        W16680  21.077  17.636   1.424
55150W        W16681  10.296  30.473  13.890
55151W        W16682  12.779  20.126  11.964
55152W        W16683  13.227  26.523   3.323
55153W        W16684  28.536  25.093  14.768
55154W        W16685  35.486   6.683  13.548
55155W        W16686  30.463   8.356   2.762
55156W        W16687   4.772  11.701   0.395
55157W        W16688  37.023  27.020  13.363
55158W        W16689  37.458  34.885  13.394
55159W        W16690  13.736  22.157   2.818
55160W        W16691   8.337  26.651  14.403
55161W        W16692  12.337  22.210   4.679
55162W        W16693  32.034  21.147  13.397
55163W        W16694   4.769  20.710  11.418
55164W        W16695  10.749  32.450   2.856
55165W        W16696   2.241  44.871  11.504
55166W        W16697  18.605  10.331   1.325
55167W        W16698   3.900  30.644   4.184
55168W        W16699  14.642   1.801  11.555
55169W        W16700  38.063   5.847   3.183
55170W        W16701  21.578  16.758  12.036
55171W        W16702  27.690  44.866   3.853
55172W        W16703  24.677  39.557  10.505
55173W        W16704  35.485  10.223  14.899
55174W        W16705  24.123  18.566  10.892
55175W        W16706   0.827   6.329   4.647
55176W        W16707  38.833  24.121  14.282
55177W        W16708  36.905   5.333  11.951
55178W        W16709  36.547  40.987   5.612
55179W        W16710  41.513  19.243  11.064
55180W        W16711  38.510   6.791   5.162
55181W        W16712  37.078  42.958  10.982
55182W        W16713   8.220  22.198   4.773
55183W        W16714  33.889  36.348   1.303
55184W        W16715  29.944  36.484   4.809
55185W        W16716  43.002  21.152  11.113
55186W        W16717  32.900  37.480  11.069
55187W        W16718  25.532   4.779   1.420
55188W        W16719   9.265  28.463   4.315
55189W        W16720  18.072  13.184  13.997
55190W        W16721  17.614  12.813  12.036
55191W        W16722  12.264  13.240   2.664
55192W        W16723  25.170  33.602  10.981
55193W        W16724  21.022  25.515   2.723
55194W        W16725  27.176   0.965  11.609
55195W        W16726   3.927  14.681  14.758
55196W        W16727   5.827   6.759   4.827
55197W        W16728   9.796  26.512  10.127
55198W        W16729  41.007  24.635  14.924
55199W        W16730  31.628  44.967   0.866
55200W        W16731  32.421  12.270   3.299
55201W        W16732   5.872  25.673   1.220
55202W        W16733  10.301   6.812  10.447
55203W        W16734  16.664  40.385  13.462
55204W        W16735  21.240  38.834  12.404
55205W        W16736   2.735  35.893  11.906
55206W        W16737  16.655  28.555   2.703
55207W        W16738  43.287  15.156   3.311
55208W        W16739  41.862  12.127  11.064
55209W        W16740   3.453  39.397  13.333
55210W        W16741  22.136  17.211   2.677
55211W        W16742  16.209   0.789   1.217
55212W        W16743  33.599  19.713  12.569
55213W        W16744  25.663  29.165  12.440
55214W        W16745  13.113  24.984  13.318
55215W        W16746  43.360  36.584   4.216
55216W        W16747   5.340   0.933  13.895
55217W        W16748  21.584  19.125   0.779
55218W        W16749  15.249   6.325  10.515
55219W        W16750  15.098  20.601  14.408
55220W        W16751   1.934   8.800   0.880
55221W        W16752   2.324  38.531  11.590
55222W        W16753  21.614  14.289  11.543
55223W        W16754  33.943   9.289  13.945
55224W        W16755  28.500  24.066  13.411
55225W        W16756  15.608  34.098  14.854
55226W        W16757   9.302  10.355   1.868
55227W        W16758  32.635  30.940   3.862
55228W        W16759   6.292   8.753   0.356
55229W        W16760  44.763  38.922   3.767
55230W        W16761   6.272  34.484   2.860
55231W        W16762  22.099  26.499  13.988
55232W        W16763  42.338  31.558  14.872
55233W        W16764   0.429   2.297  14.300
55234W        W16765  42.838  30.606   4.783
55235W        W16766  10.702  14.150   1.217
55236W        W16767   1.732  24.983  12.892
55237W        W16768  14.761  24.723  11.883
55238W        W16769   7.864   3.810   1.750
55239W        W16770  25.584  13.785   1.790
55240W        W16771  10.665   6.275   2.783
55241W        W16772   3.728   3.940   3.815
55242W        W16773  16.631  16.806   0.810
55243W        W16774  15.598   2.240  14.927
55244W        W16775  19.156  35.040  13.923
55245W        W16776  19.273  15.136   1.313
55246W        W16777  30.603   1.769  10.415
55247W        W16778  36.454  30.054  10.466
55248W        W16779   6.419  29.580   2.191
55249W        W16780  43.431  19.728  11.444
55250W        W16781  25.536   9.339  13.500
55251W        W16782  14.717  15.232   1.275
55252W        W16783  20.255  43.462   4.763
55253W        W16784  28.004  34.571   3.166
55254W        W16785  11.311  14.274  10.889
55255W        W16786   1.939  11.152  12.538
55256W        W16787   2.802   2.957  12.535
55257W        W16788  13.686  13.251   1.782
55258W        W16789   4.838  20.529   0.764
55259W        W16790  29.462  16.175   3.238
55260W        W16791  27.128  38.471  10.422
55261W        W16792  17.242   8.214   4.608
55262W        W16793  22.679  34.985   5.242
55263W        W16794   6.272   5.257   3.157
55264W        W16795  36.447  43.485   2.848
55265W        W16796  20.223  15.128  12.346
55266W        W16797  22.747   0.889  12.968
55267W        W16798  34.088  22.067  14.850
55268W        W16799  16.170  14.188   3.206
55269W        W16800  42.846  21.026   2.202
55270W        W16801   7.814  21.667   1.899
55271W        W16802  43.398  24.557   4.782
55272W        W16803  40.496  28.486  13.871
55273W        W16804   5.777  30.625   0.927
55274W        W16805  24.588   7.880   0.320
55275W        W16806   6.399   6.385   0.962
55276W        W16807  23.220  20.112  10.933
55277W        W16808  20.678   6.195  11.879
55278W        W16809   5.331   3.945  12.516
55279W        W16810  27.108   2.878   2.330
55280W        W16811  29.007  22.548   1.929
55281W        W16812  30.507  42.817   4.139
55282W        W16813  33.034  30.504   4.748
55283W        W16814  38.855  16.206  11.924
55284W        W16815  25.166  28.665   0.822
55285W        W16816   8.242  17.578   0.253
55286W        W16817  40.838   3.302   4.680
55287W        W16818  14.131  15.217  11.950
55288W        W16819  37.581   6.765   3.856
55289W        W16820  13.274  44.492   2.759
55290W        W16821   7.821  33.406  14.019
55291W        W16822  22.997  17.633   3.214
55292W        W16823  32.981  15.295   0.770
55293W        W16824   5.389   9.775  11.379
55294W        W16825  11.131   4.846   4.262
55295W        W16826  29.005  28.004  10.978
55296W        W16827  31.154  23.135   2.672
55297W        W16828  32.040  12.150  13.008
55298W        W16829  39.358  28.149  10.543
55299W        W16830  18.623  16.092   3.656
55300W        W16831  23.989  27.507  12.437
55301W        W16832  30.641   5.890  11.032
55302W        W16833   6.428  33.966  14.482
55303W        W16834  40.826  10.177  14.835
55304W        W16835   4.930  43.796   1.722
55305W        W16836  12.769   4.250   3.309
55306W        W16837  12.641  43.975   2.867
55307W        W16838  26.019  11.156  10.007
55308W        W16839  11.708  21.172   0.376
55309W        W16840   5.346  16.253   1.933
55310W        W16841   0.422  15.759   4.238
55311W        W16842  43.328   0.938   1.326
55312W        W16843  25.540   8.751   0.886
55313W        W16844   8.826  43.950   1.333
55314W        W16845  10.158  21.157   3.363
55315W        W16846  43.835  24.484  12.053
55316W        W16847   6.299  36.841  13.362
55317W        W16848  21.234  11.703   4.188
55318W        W16849  23.639  13.609   4.745
55319W        W16850   9.271  36.909  13.800
55320W        W16851  20.529   2.812  10.403
55321W        W16852  41.448  13.606  14.816
55322W        W16853   5.932  44.296   3.739
55323W        W16854  15.646   6.272  13.432
55324W        W16855  14.306  11.754  13.848
55325W        W16856  22.072  23.605   3.250
55326W        W16857  28.664  20.529   0.431
55327W        W16858  19.185  30.937   1.794
55328W        W16859  12.748   1.270  11.589
55329W        W16860   4.720   7.729   2.837
55330W        W16861  18.176  13.697   0.852
55331W        W16862  20.692   9.233  14.293
55332W        W16863   0.405  31.050  14.471
55333W        W16864   7.408  16.232   4.350
55334W        W16865   1.326  12.691  12.059
55335W        W16866  31.107  25.986   2.294
55336W        W16867  34.514  26.525  11.613
55337W        W16868  22.569  21.096   4.810
55338W        W16869  29.641  27.466  14.506
55339W        W16870  38.048  20.076   1.358
55340W        W16871  22.149  39.014   0.918
55341W        W16872  35.055  38.552  12.015
55342W        W16873  15.257  38.052  13.514
55343W        W16874   5.302  35.922   0.762
55344W        W16875  16.150  31.421   4.347
55345W        W16876   1.837  13.799  13.855
55346W        W16877  40.013  39.986   1.916
55347W        W16878  12.743  32.094   1.717
55348W        W16879  16.305  29.018  13.010
55349W        W16880  12.324   7.866  11.387
55350W        W16881   8.822  20.104  10.518
55351W        W16882   9.720  35.564  10.427
55352W        W16883  15.242  29.118  12.359
55353W        W16884  15.328   6.787   2.216
55354W        W16885  15.693   4.318   2.781
55355W        W16886  35.080   8.884   2.191
55356W        W16887   9.662  39.538  13.421
55357W        W16888   2.861  21.716   1.268
55358W        W16889  41.833  22.636   2.877
55359W        W16890   5.782  32.994  13.331
55360W        W16891   5.300   6.756  14.970
55361W        W16892  37.839  37.023  12.401
55362W        W16893  27.529   7.720  10.922
55363W        W16894  33.595  20.113  13.842
55364W        W16895  21.726   2.387  12.055
55365W        W16896   2.267  32.612   2.409
55366W        W16897  30.054   8.692  12.876
55367W        W16898  36.908  16.123   1.313
55368W        W16899   6.773  16.099  13.375
55369W        W16900   6.315  26.019   2.682
55370W        W16901  20.208   9.794   1.369
55371W        W16902  35.472   8.377  13.792
55372W        W16903  28.061  42.865  13.379
55373W        W16904  10.165  35.046   1.699
55374W        W16905  32.407   1.483   1.854
55375W        W16906  27.048  39.317   3.700
55376W        W16907  36.867  30.415  11.095
55377W        W16908  21.686  27.059   3.811
55378W        W16909  10.235  26.996  13.519
55379W        W16910   6.771  38.844  14.325
55380W        W16911  15.316  42.023   3.354
55381W        W16912   7.788  12.173  10.432
55382W        W16913   0.315  44.382   3.865
55383W        W16914  11.723  10.230  10.573
55384W        W16915  29.129   4.738   3.861
55385W        W16916  23.100  18.135  12.446
55386W        W16917  20.073  24.717   2.262
55387W        W16918  36.081   8.193   4.293
55388W        W16919  38.366  37.007   0.396
55389W        W16920  15.101   3.838   1.835
55390W        W16921  38.568  10.145   3.845
55391W        W16922  39.371  36.395   4.773
55392W        W16923  15.269   4.861  11.006
55393W        W16924  30.531  43.291   0.794
55394W        W16925  27.108  41.026   1.897
55395W        W16926  26.067   0.361   3.277
55396W        W16927   4.438  31.115  13.497
55397W        W16928  36.933  21.606  13.946
55398W        W16929  11.854  27.651   1.882
55399W        W16930   5.773  43.274   3.747
55400W        W16931  35.075  14.650   4.158
55401W        W16932  17.101  25.119  13.886
55402W        W16933  10.298  40.487  10.510
55403W        W16934  33.434  26.686   0.878
55404W        W16935   0.261  15.717   3.292
55405W        W16936   4.792   1.886   3.250
55406W        W16937  25.501  25.531   4.747
55407W        W16938  41.449   6.780   1.735
55408W        W16939  26.692  25.683   2.766
55409W        W16940  38.058   5.788   0.742
55410W        W16941  11.179  24.516  13.029
55411W        W16942  15.586  27.963  11.588
55412W        W16943  17.593   9.270   3.793
55413W        W16944   2.866  39.898  14.914
55414W        W16945  19.133  26.179   2.295
55415W        W16946  33.954  30.461   1.392
55416W        W16947  34.063  20.753  12.431
55417W        W16948  39.017  18.279  11.373
55418W        W16949  14.716  22.519   2.408
55419W        W16950   2.363  29.119  13.798
55420W        W16951  25.103  11.183   2.681
55421W        W16952  22.170  41.410  13.949
55422W        W16953  21.026  23.081   4.227
55423W        W16954  22.224  24.649   2.401
55424W        W16955  44.464  43.970   3.233
55425W        W16956  39.875  27.081  10.644
55426W        W16957  10.677  32.029  14.002
55427W        W16958  41.450  16.648  14.969
55428W        W16959  43.768  35.514  14.790
55429W        W16960  11.359  41.939   2.404
55430W        W16961   7.865   5.211  13.842
55431W        W16962  27.155  35.858  10.410
55432W        W16963  11.258   6.311  14.921
55433W        W16964   5.899  32.040   3.284
55434W        W16965  42.517  15.586  12.502
55435W        W16966   7.905   9.152  13.404
55436W        W16967  12.733  13.323  13.979
55437W        W16968  35.591  21.218   2.737
55438W        W16969   3.784  11.631  12.913
55439W        W16970  23.586  22.034  13.990
55440W        W16971  35.998  13.129   5.127
55441W        W16972   6.737  31.062  14.949
55442W        W16973   7.794  38.515   3.675
55443W        W16974  34.017   2.801  13.846
55444W        W16975  37.834   8.768   1.769
55445W        W16976  11.727  38.033  11.044
55446W        W16977  39.931  23.106   2.228
55447W        W16978  20.111  40.944   0.244
55448W        W16979  39.377  28.021  10.920
55449W        W16980  41.329   3.461   3.268
55450W        W16981  34.529  37.556   2.698
55451W        W16982  27.139   4.259   2.257
55452W        W16983  10.177   8.745  13.544
55453W        W16984  17.569  39.372  10.438
55454W        W16985  13.838  29.529  12.496
55455W        W16986  41.514  16.286   0.408
55456W        W16987  14.767  35.515  10.571
55457W        W16988  14.157  28.487  13.528
55458W        W16989   7.391  22.524  13.997
55459W        W16990   8.827  28.567  10.994
55460W        W16991  12.242  30.609   0.367
55461W        W16992   8.356  22.154  12.347
55462W        W16993  29.582  25.570   2.342
55463W        W16994  11.351   3.440  12.017
55464W        W16995  11.752   4.412   1.278
55465W        W16996  31.432  39.956  12.560
55466W        W16997   7.209  37.864  10.911
55467W        W16998  21.576  33.035   0.896
55468W        W16999  39.928  31.019  12.031
55469W        W17000  27.621  37.467   2.770
55470W        W17001   6.761  41.018   3.750
55471W        W17002   8.261  12.610   1.252
55472W        W17003  26.969   9.670  13.057
55473W        W17004   9.784  17.110   4.175
55474W        W17005  43.504  32.448  14.477
55475W        W17006  26.174   9.759   0.342
55476W        W17007  19.236  23.691   3.742
55477W        W17008   3.221  23.081   0.960
55478W        W17009  44.403  30.141   2.386
55479W        W17010  23.565  41.965  12.572
55480W        W17011  31.919  20.603  11.441
55481W        W17012  20.697  19.661  11.122
55482W        W17013  33.392  30.427   0.778
55483W        W17014  40.896  35.359   4.694
55484W        W17015  29.060  30.129  10.953
55485W        W17016  10.222   4.904  12.438
55486W        W17017  39.047   6.357  11.396
55487W        W17018  35.960  41.814   0.295
55488W        W17019  19.207  20.549  13.402
55489W        W17020  16.775  32.513   5.308
55490W        W17021  11.152  15.205  11.997
55491W        W17022  37.948   0.261   4.270
55492W        W17023  19.168   3.354  14.961
55493W        W17024  38.017   3.359   2.743
55494W        W17025  28.511  15.756   1.777
55495W        W17026  27.642  18.289   0.468
55496W        W17027   5.888   2.827  12.371
55497W        W17028  41.293   6.907  13.020
55498W        W17029  28.636   0.825  13.375
55499W        W17030  26.638  44.919  11.938
55500W        W17031   1.292  30.483   1.414
55501W        W17032  19.605  35.578   1.697
55502W        W17033  14.833  25.705   4.258
55503W        W17034  18.667   3.216  12.579
55504W        W17035  25.553   0.770  10.956
55505W        W17036  43.944  44.809   4.288
55506W        W17037  32.117  30.113   3.364
55507W        W17038  33.091   9.859  12.010
55508W        W17039  28.942  14.804   0.891
55509W        W17040  21.554  33.526   0.339
55510W        W17041  25.023  33.486   0.381
55511W        W17042  28.937  35.515  10.598
55512W        W17043   1.270  16.645   3.669
55513W        W17044  14.667   4.832  11.609
55514W        W17045  13.210  17.634   1.744
55515W        W17046  29.623  17.800  13.529
55516W        W17047  38.426  17.754   3.275
55517W        W17048   3.310  32.940   2.755
55518W        W17049  12.648  43.978  11.089
55519W        W17050   0.896  40.465   4.665
55520W        W17051   1.379  15.216  14.859
55521W        W17052  20.739  18.212   0.757
55522W        W17053  39.051  24.567  10.082
55523W        W17054  25.218   8.864   2.360
55524W        W17055   8.663  42.986   4.318
55525W        W17056   7.249  26.696  13.957
55526W        W17057  38.075  26.030   3.379
55527W        W17058   6.260   4.255   3.827
55528W        W17059  43.483   4.766  13.909
55529W        W17060  11.169  14.097  10.536
55530W        W17061  18.562   0.263  11.967
55531W        W17062  20.614  35.358   1.723
55532W        W17063  22.073  18.104   0.349
55533W        W17064   8.270  27.479   2.825
55534W        W17065  11.812  20.103   3.719
55535W        W17066   7.415   6.349   4.828
55536W        W17067   6.364  17.118  11.416
55537W        W17068   8.824  32.937   4.221
55538W        W17069  43.884  34.074  14.389
55539W        W17070  44.418  19.747  12.917
55540W        W17071  39.991  11.783  13.524
55541W        W17072  15.221  35.061  10.985
55542W        W17073  36.908   8.829  14.016
55543W        W17074  26.129  13.227   0.761
55544W        W17075   6.838  34.372  13.863
55545W        W17076  44.797  43.345  14.977
55546W        W17077  44.340  35.950   1.761
55547W        W17078   0.315  42.939   2.880
55548W        W17079  27.143  39.386   4.693
55549W        W17080  42.009  21.237   3.821
55550W        W17081  27.610  39.345   4.280
55551W        W17082   3.363  12.642   3.695
55552W        W17083  22.577   5.349   3.657
55553W        W17084   6.864  28.043  14.882
55554W        W17085  43.888  37.500   0.301
55555W        W17086   8.819  27.645   3.303
55556W        W17087  26.541  33.433   4.128
55557W        W17088  25.177  21.246  13.335
55558W        W17089   1.954  39.921   3.326
55559W        W17090  43.457  28.626   1.420
55560W        W17091  36.965  33.121  12.347
55561W        W17092  36.076   8.860   2.402
55562W        W17093   0.318  10.700  11.913
55563W        W17094  35.458  17.158   0.892
55564W        W17095   2.409   3.809   3.306
55565W        W17096  27.148   3.714   3.163
55566W        W17097  23.220  39.009  11.485
55567W        W17098  38.568  12.719   0.276
55568W        W17099  36.583  27.028  12.362
55569W        W17100  43.804  18.600  11.585
55570W        W17101  10.821  29.136  13.876
55571W        W17102  14.228   8.746   2.388
55572W        W17103  34.524  26.679  14.455
55573W        W17104  41.873   8.864  12.016
55574W        W17105  19.678   1.786   0.315
55575W        W17106  20.187   5.709   4.303
55576W        W17107  18.110  31.007  11.524
55577W        W17108  42.021  19.617   5.263
55578W        W17109  20.047   3.359  11.382
55579W        W17110   5.323  31.990  13.874
55580W        W17111   4.391  13.343  14.487
55581W        W17112  39.056  19.273  14.347
55582W        W17113  30.962   0.873  14.412
55583W        W17114   7.291  38.065   2.698
55584W        W17115  33.535   5.922   1.319
55585W        W17116  16.284  18.258  11.607
55586W        W17117  23.538  17.157   0.278
55587W        W17118   8.817  34.066   0.439
55588W        W17119  29.988  31.427   0.364
55589W        W17120  44.955  12.271  12.899
55590W        W17121  23.011   8.900   4.771
55591W        W17122   5.418  41.838  10.567
55592W        W17123  24.098   7.723  14.913
55593W        W17124   5.926  33.072  11.027
55594W        W17125  35.974  19.764  14.021
55595W        W17126  31.958  43.979  12.843
55596W        W17127  12.617  18.067   1.363
55597W        W17128   9.210  43.278  11.993
55598W        W17129  40.928  14.296   4.219
55599W        W17130  39.908  30.000  13.343
55600W        W17131  33.542  13.811   2.190
55601W        W17132   2.789  18.060   1.416
55602W        W17133   3.886  42.451  11.991
55603W        W17134   4.310  23.545  13.997
55604W        W17135  31.098   6.271  10.089
55605W        W17136  13.633  27.459  14.320
55606W        W17137   0.269  10.740  10.554
55607W        W17138  22.509  26.985   0.338
55608W        W17139  25.088  21.666   1.711
55609W        W17140  24.148   8.316  14.383
55610W        W17141  44.785  36.502   0.944
55611W        W17142   8.712   0.758   0.449
55612W        W17143  34.889  36.521   3.785
55613W        W17144   2.779  35.049   1.371
55614W        W17145  17.690  28.472   2.886
55615W        W17146  19.168  17.158  13.342
55616W        W17147  39.537  14.163   3.232
55617W        W17148  29.497   7.859  10.913
55618W        W17149  28.609  42.923   0.907
55619W        W17150  17.185   4.701  10.935
55620W        W17151   9.275  30.979   4.182
55621W        W17152  28.516  24.696  11.405
55622W        W17153  33.417  11.647  14.924
55623W        W17154  31.125  28.640  11.122
55624W        W17155   6.829  17.712  14.429
55625W        W17156   2.829  19.167   3.203
55626W        W17157   5.194  28.510  10.976
55627W        W17158   3.296  12.331  13.341
55628W        W17159  16.118  19.574  10.971
55629W        W17160  21.168  38.856   2.229
55630W        W17161   7.190  18.691  11.000
55631W        W17162  19.770  33.472   1.751
55632W        W17163  34.018  34.923   0.373
55633W        W17164  19.557  18.237   0.460
55634W        W17165  16.578   6.781   4.158
55635W        W17166  24.526  29.450  14.293
55636W        W17167  43.476   5.780   4.327
55637W        W17168  26.507  32.947   3.639
55638W        W17169  22.514  39.859   3.667
55639W        W17170  25.039  33.030  14.836
55640W        W17171   7.401  33.116   3.210
55641W        W17172   0.848  17.290   3.777
55642W        W17173  30.486  18.755   1.290
55643W        W17174  15.233   3.849   4.287
55644W        W17175  14.632  31.456  14.483
55645W        W17176  17.188  37.441   3.234
55646W        W17177  37.954  34.864   4.833
55647W        W17178  21.139  42.011   2.229
55648W        W17179  30.423  12.305  11.539
55649W        W17180  24.199  33.543  14.458
55650W        W17181   6.846  12.756   4.731
55651W        W17182   8.820  29.549  14.350
55652W        W17183  33.385  33.887  13.810
55653W        W17184  15.192   8.665  10.622
55654W        W17185  25.608   1.363  13.308
55655W        W17186  42.405  34.046   1.252
55656W        W17187  18.726  12.665  11.111
55657W        W17188  11.815  38.487   3.734
55658W        W17189  41.007  14.108  14.912
55659W        W17190   5.316  20.163  13.890
55660W        W17191   0.401  13.633  13.892
55661W        W17192   7.304   9.270  14.360
55662W        W17193  15.216   6.284  13.368
55663W        W17194  26.577  38.009  14.909
55664W        W17195  38.450  22.673   3.346
55665W        W17196  32.472  23.679   4.737
55666W        W17197  21.177  19.623   3.235
55667W        W17198  37.503  41.930  14.835
55668W        W17199  14.787  37.415   9.996
55669W        W17200  43.850  43.856  10.905
55670W        W17201   4.868  34.507   0.898
55671W        W17202   0.754  21.111  11.439
55672W        W17203  16.163  17.600  14.346
55673W        W17204  18.105  44.868  12.826
55674W        W17205  15.612  28.665  11.443
55675W        W17206  35.877  32.630   2.804
55676W        W17207  15.663   8.263  13.924
55677W        W17208  33.407  34.096  12.964
55678W        W17209  44.431   9.708  10.024
55679W        W17210  25.981  12.314   0.475
55680W        W17211  22.547  16.203  14.001
55681W        W17212  37.502  39.858   0.417
55682W        W17213  13.842  42.320  11.926
55683W        W17214  44.803  31.606   0.440
55684W        W17215  32.615  15.662   0.947
55685W        W17216  41.917  41.882  12.497
55686W        W17217   1.390  31.129   3.825
55687W        W17218  36.456  10.349   2.369
55688W        W17219  18.187  36.087  12.380
55689W        W17220  27.637  15.138  13.444
55690W        W17221  41.382  11.229   0.928
55691W        W17222  22.227  16.215  14.445
55692W        W17223  23.147  12.664   0.741
55693W        W17224  34.603  29.100  11.116
55694W        W17225  26.554  27.632  11.503
55695W        W17226  35.100  35.531  13.434
55696W        W17227  16.300  44.800   3.715
55697W        W17228  42.935   2.233   5.201
55698W        W17229  13.813   9.872   4.689
55699W        W17230  36.481   2.293  13.795
55700W        W17231  35.545  40.375   1.370
55701W        W17232  29.003  14.098  10.499
55702W        W17233  10.284  10.266   3.708
55703W        W17234  12.222   6.303  11.423
55704W        W17235  28.009   7.183  10.900
55705W        W17236   0.796  13.116   3.356
55706W        W17237  10.690  34.034   0.340
55707W        W17238  25.039   9.791  12.033
55708W        W17239  17.727  25.479  12.395
55709W        W17240  36.450  18.575   4.310
55710W        W17241  19.545  24.037   3.220
55711W        W17242  10.309  36.887   5.163
55712W        W17243  28.144  18.595  10.440
55713W        W17244  37.908  28.570   0.418
55714W        W17245  10.729  15.782  10.452
55715W        W17246  23.128  26.179  13.382
55716W        W17247  22.251  13.250  12.041
55717W        W17248  27.967  35.407  11.015
55718W        W17249  41.473   0.776   4.201
55719W        W17250  31.955   1.832  12.879
55720W        W17251  30.451  41.327   3.868
55721W        W17252   4.881  40.018  10.991
55722W        W17253  43.363  13.322   4.233
55723W        W17254  36.993  36.024   4.150
55724W        W17255  35.447  24.675   4.745
55725W        W17256  37.963  11.197  12.434
55726W        W17257  17.714  24.043   3.259
55727W        W17258  22.533  36.379  11.564
55728W        W17259  29.968   5.409  12.518
55729W        W17260  37.345   8.751  12.043
55730W        W17261  42.032  38.504  14.007
55731W        W17262  29.084  35.377   4.814
55732W        W17263  40.918   6.343  10.929
55733W        W17264  13.815  36.493  10.926
55734W        W17265  44.429  36.511   3.386
55735W        W17266  10.689   7.299  13.798
55736W        W17267   0.950  22.603   3.863
55737W        W17268  10.808   0.978   1.927
55738W        W17269  20.144  18.783  12.873
55739W        W17270  26.616  32.931  11.518
55740W        W17271  41.981  34.945   2.360
55741W        W17272  14.269  33.470   0.446
55742W        W17273  11.273  19.272   0.747
55743W        W17274  11.204  25.062   0.361
55744W        W17275  18.570  21.143   0.450
55745W        W17276  26.497  17.759   3.836
55746W        W17277  21.113  35.435   0.799
55747W        W17278  12.118  29.122  11.890
55748W        W17279  30.527   8.815  14.865
55749W        W17280  33.626   2.437   2.785
55750W        W17281  44.427  27.116   2.188
55751W        W17282  32.988  28.035   1.408
55752W        W17283  13.345  32.994  14.289
55753W        W17284  20.558  20.667   1.735
55754W        W17285   1.943  23.028   0.730
55755W        W17286  15.675  20.625  13.050
55756W        W17287  17.163  27.573  13.327
55757W        W17288  17.299  14.314   4.203
55758W        W17289   2.724  20.112   3.225
55759W        W17290  28.133  25.045  11.057
55760W        W17291  13.233  18.053   2.254
55761W        W17292  25.471   8.192   1.886
55762W        W17293   7.400  19.256   0.755
55763W        W17294  24.081  36.890   2.796
55764W        W17295  28.087  41.797  11.559
55765W        W17296  41.522  38.436  12.526
55766W        W17297  13.303  29.563   1.761
55767W        W17298   9.815  37.445   0.331
55768W        W17299  26.078  19.571   3.217
55769W        W17300  29.567   7.183   3.813
55770W        W17301  33.522   5.358  14.347
55771W        W17302  17.791   3.927   2.840
55772W        W17303  28.027   4.214   3.284
55773W        W17304  44.891  18.703  12.006
55774W        W17305  34.539   0.341  11.505
55775W        W17306  27.032  29.961   2.285
55776W        W17307  34.478   0.327   4.686
55777W        W17308   7.252  36.069   3.729
55778W        W17309  32.529  38.043   5.095
55779W        W17310  25.676  13.617   3.283
55780W        W17311  25.009  36.945  11.072
55781W        W17312  25.662  40.448  12.434
55782W        W17313   0.318  14.310  11.891
55783W        W17314  42.822  26.204  13.314
55784W        W17315  25.506  32.616   2.714
55785W        W17316  17.276   7.719  13.413
55786W        W17317  13.253  21.105  13.041
55787W        W17318  27.497  22.032  12.512
55788W        W17319  14.598  11.262   1.281
55789W        W17320  25.607  35.571  13.794
55790W        W17321  31.923  43.877  12.517
55791W        W17322  38.881  34.522  10.639
55792W        W17323   9.198   7.191   4.307
55793W        W17324  25.141  30.033  14.825
55794W        W17325  12.687  16.297  10.538
55795W        W17326  26.601   1.787   1.428
55796W        W17327  34.979  29.487  13.009
55797W        W17328  21.192  35.949  11.033
55798W        W17329  25.641  13.681  10.912
55799W        W17330  26.021   2.299   4.181
55800W        W17331  27.659  31.465   3.774
55801W        W17332  42.989   6.218  14.915
55802W        W17333  42.032  38.055   4.277
55803W        W17334  40.349  32.577   2.371
55804W        W17335  30.414  40.966  12.376
55805W        W17336  36.949  27.038   3.697
55806W        W17337   0.478  41.369  11.424
55807W        W17338  10.821  31.099  13.908
55808W        W17339  20.239   3.796   3.647
55809W        W17340  43.376  25.214   1.323
55810W        W17341  26.986  35.357   0.297
55811W        W17342  27.606  29.959  11.980
55812W        W17343  11.813   5.866  14.313
55813W        W17344   8.857  23.214   2.316
55814W        W17345  17.240  34.979   4.794
55815W        W17346   1.902  32.541   0.412
55816W        W17347  29.453   2.825   1.446
55817W        W17348  44.770   1.438   0.922
55818W        W17349  36.856  26.193  14.414
55819W        W17350  44.942  24.555  12.464
55820W        W17351  13.332  20.050  12.378
55821W        W17352   4.906  33.440  10.502
55822W        W17353  24.130  39.927  14.388
55823W        W17354  20.563  33.450   2.189
55824W        W17355  39.336  22.113  13.046
55825W        W17356  43.450  24.556  13.316
55826W        W17357  38.370  31.990  14.415
55827W        W17358  18.085   3.948  12.399
55828W        W17359  15.307  26.673  11.372
55829W        W17360  35.004   9.846   1.385
55830W        W17361  17.637  25.610  14.844
55831W        W17362  13.644   3.460   3.776
55832W        W17363   2.895  23.070  11.115
55833W        W17364  40.890  31.570   2.883
55834W        W17365  12.158  21.708  12.915
55835W        W17366  23.725  27.581   5.185
55836W        W17367  24.115   0.326  12.539
55837W        W17368   4.896   4.927   3.737
55838W        W17369  28.186  29.022  14.948
55839W        W17370  29.426  38.060   1.834
55840W        W17371  26.087  26.151  14.473
55841W        W17372  33.435  35.897  12.454
55842W        W17373   8.369  43.855  10.632
55843W        W17374   3.736  21.223   9.960
55844W        W17375  28.620  19.235  13.823
55845W        W17376  27.659  29.545   1.907
55846W        W17377  28.630   2.783   1.906
55847W        W17378  44.459  29.670   3.158
55848W        W17379  14.171   7.376  12.453
55849W        W17380  30.598  42.419   0.854
55850W        W17381  29.470  36.037   9.997
55851W        W17382  33.878  38.036   1.380
55852W        W17383  16.745  44.006  12.884
55853W        W17384   2.739  10.745   3.222
55854W        W17385   3.776  13.269  10.439
55855W        W17386   9.386   1.456   1.890
55856W        W17387  36.551  25.079   2.897
55857W        W17388  38.872   0.386  14.863
55858W        W17389  27.597  19.632  11.915
55859W        W17390  40.005  15.615  12.068
55860W        W17391   5.829  13.786   3.729
55861W        W17392  38.400  16.670   0.349
55862W        W17393  16.166  27.653  13.910
55863W        W17394  28.101  25.128  11.525
55864W        W17395  40.484  33.901   3.301
55865W        W17396  16.619   0.455   1.333
55866W        W17397   9.697  26.491  12.070
55867W        W17398  13.114  41.426  13.983
55868W        W17399  29.585   2.283  11.971
55869W        W17400  21.555  13.599  13.501
55870W        W17401  32.440  22.644  13.457
55871W        W17402   3.397  29.095  10.965
55872W        W17403  41.531   4.885   0.913
55873W        W17404  10.198  36.386  12.923
55874W        W17405  31.991  21.142   3.273
55875W        W17406  13.782   9.742   4.218
55876W        W17407   4.905  31.613   4.680
55877W        W17408  25.487  36.014  13.053
55878W        W17409  24.137  23.202   3.173
55879W        W17410  35.532  40.935  13.366
55880W        W17411   8.703  42.303   0.264
55881W        W17412  10.828  23.704   2.716
55882W        W17413   7.691   4.833  10.935
55883W        W17414  32.602  10.241  13.391
55884W        W17415  40.512  35.392   0.854
55885W        W17416  29.518  38.492  12.571
55886W        W17417  16.730   9.312   4.617
55887W        W17418   0.299  10.237  14.413
55888W        W17419  15.795  39.953  10.645
55889W        W17420   3.309  18.088   1.816
55890W        W17421  22.744  36.883  14.406
55891W        W17422   7.773  29.556  13.476
55892W        W17423  29.571  17.281  13.018
55893W        W17424  27.198  25.690   3.761
55894W        W17425  39.527   3.833  14.356
55895W        W17426  27.123  21.686  12.022
55896W        W17427  34.890  38.885   2.840
55897W        W17428  44.330  40.379   0.769
55898W        W17429  22.242  14.598   4.626
55899W        W17430  44.286  28.586  10.432
55900W        W17431   3.442  32.498  14.450
55901W        W17432  29.604  10.260   3.725
55902W        W17433   8.889  13.655   1.774
55903W        W17434  43.813  25.014   4.116
55904W        W17435  17.278   2.266   0.964
55905W        W17436  34.087  20.631   0.876
55906W        W17437  30.961  34.937   5.264
55907W        W17438  24.582  41.827  13.960
55908W        W17439  44.310  13.744  14.025
55909W        W17440   7.700  38.480  14.428
55910W        W17441   1.443  35.007   1.924
55911W        W17442  40.913  11.749   4.294
55912W        W17443  20.754  25.102   2.827
55913W        W17444  43.771  22.243  10.512
55914W        W17445  29.670  44.787   4.707
55915W        W17446  19.137   1.385   1.731
55916W        W17447  29.438  34.880   1.853
55917W        W17448  21.027  26.570  10.968
55918W        W17449  25.074  40.483  12.086
55919W        W17450  35.579  27.070   3.747
55920W        W17451  26.477  42.885   4.690
55921W        W17452  27.640  35.487  10.421
55922W        W17453  37.482  17.208   4.790
55923W        W17454  15.243  12.277  14.879
55924W        W17455  26.527  27.068   0.766
55925W        W17456  40.873  39.496  13.401
55926W        W17457  34.501   4.248  12.061
55927W        W17458  43.835  40.442   1.779
55928W        W17459  23.057  37.898  10.160
55929W        W17460  14.668  15.283   0.270
55930W        W17461  32.053  20.221   5.201
55931W        W17462  26.147   7.323  14.897
55932W        W17463   2.315   0.385  12.579
55933W        W17464  19.240  18.575  10.428
55934W        W17465   3.230   5.709  14.941
55935W        W17466  35.019   2.889  14.978
55936W        W17467   7.675   3.740  12.552
55937W        W17468  40.905  11.144   1.770
55938W        W17469  11.866   5.307  11.015
55939W        W17470   3.712  43.363   1.329
55940W        W17471  11.673  11.829   5.273
55941W        W17472   6.788  23.590  13.493
55942W        W17473  42.389   2.448   0.834
55943W        W17474   9.847  31.034  14.432
55944W        W17475  43.865  32.461  10.949
55945W        W17476  29.970   9.395  11.461
55946W        W17477   4.739  26.036   2.833
55947W        W17478  37.983   6.831  12.397
55948W        W17479  39.859  20.669  12.381
55949W        W17480   6.769   7.367  11.084
55950W        W17481  37.964   8.381   9.553
55951W        W17482  29.053  21.645   2.204
55952W        W17483  42.455  10.659  14.761
55953W        W17484  10.251  40.017  14.503
55954W        W17485  33.624   3.415  11.566
55955W        W17486  16.185  17.579   4.229
55956W        W17487  13.695  10.256  11.513
55957W        W17488  20.646  12.851   2.883
55958W        W17489   6.880   0.844  10.435
55959W        W17490  13.344  24.633   4.646
55960W        W17491   6.231   5.758   4.156
55961W        W17492   7.250  16.694   3.827
55962W        W17493  16.252  37.406  11.878
55963W        W17494  24.144  39.935   4.711
55964W        W17495  34.597   4.336   2.374
55965W        W17496   8.223  18.240  12.524
55966W        W17497  30.082  13.663  12.565
55967W        W17498  36.847   4.287  11.423
55968W        W17499  36.953   1.357   0.764
55969W        W17500  37.989  37.431  13.831
55970W        W17501  36.449  30.511  14.921
55971W        W17502  16.699   6.360   2.731
55972W        W17503  14.163  37.936   4.733
55973W        W17504   4.234  36.872  14.867
55974W        W17505  44.773   0.460   0.372
55975W        W17506  21.565  31.053  14.882
55976W        W17507  19.736  15.736  14.454
55977W        W17508  28.048  21.053  12.078
55978W        W17509  25.506  16.241   4.635
55979W        W17510  32.079  29.930   0.435
55980W        W17511  11.859  26.666   5.148
55981W        W17512   8.774  30.627   1.284
55982W        W17513  21.749  25.473   4.797
55983W        W17514  20.271   8.823   3.336
55984W        W17515  29.541  17.665  10.475
55985W        W17516   2.800   3.246  14.823
55986W        W17517  22.662  20.056  11.118
55987W        W17518  41.944   2.281   1.824
55988W        W17519  16.706  27.029   0.293
55989W        W17520  32.890  15.241   0.437
55990W        W17521  16.224  14.161   2.892
55991W        W17522  24.661   7.875  14.916
55992W        W17523  13.207  15.775  11.416
55993W        W17524  30.054  16.580   5.133
55994W        W17525  17.736  29.599   4.118
55995W        W17526  41.529  42.509   1.901
55996W        W17527  32.417  44.882   0.780
55997W        W17528   6.917  27.542  13.418
55998W        W17529  43.860  21.536  12.901
55999W        W17530  14.661  30.950  14.840
56000W        W17531   9.829  33.048   1.262
56001W        W17532  12.806  18.556  12.057
56002W        W17533  12.214  21.569  10.924
56003W        W17534   7.823  24.973  10.425
56004W        W17535   3.432   0.770  13.917
56005W        W17536  38.886   1.808   0.425
56006W        W17537  42.900  10.358  14.496
56007W        W17538  11.686  42.901   5.159
56008W        W17539  12.223  23.507  14.968
56009W        W17540  30.929  27.124   0.246
56010W        W17541   9.291  23.033  13.358
56011W        W17542  32.426   1.290  11.072
56012W        W17543  44.276  30.642   0.355
56013W        W17544  18.646  20.522   2.250
56014W        W17545  27.586  32.500  13.967
56015W        W17546  41.986   6.402   1.448
56016W        W17547  20.747  21.534   1.421
56017W        W17548  42.968  17.711  10.594
56018W        W17549  33.902  37.069   4.684
56019W        W17550  36.457   2.960   2.795
56020W        W17551   9.877  41.431  13.959
56021W        W17552  37.832   2.461  12.442
56022W        W17553  22.542  30.425  12.055
56023W        W17554  34.476  18.099  12.093
56024W        W17555  28.953  11.761  11.071
56025W        W17556  39.336  21.753   1.365
56026W        W17557  41.918  33.952   2.331
56027W        W17558  41.381  44.946  10.602
56028W        W17559  34.455  22.741  13.435
56029W        W17560  27.144  31.570  12.981
56030W        W17561  11.146  17.800  10.995
56031W        W17562  37.387  22.597  11.120
56032W        W17563  21.211  37.574  12.872
56033W        W17564  19.652  37.940   5.137
56034W        W17565  24.600  19.061  13.915
56035W        W17566  17.647  25.177  12.054
56036W        W17567  22.642  18.574  14.458
56037W        W17568  39.902  29.558  10.484
56038W        W17569   6.400  38.935  13.361
56039W        W17570  14.134  17.248  11.580
56040W        W17571  18.144  39.523  13.481
56041W        W17572  32.899  38.820   2.893
56042W        W17573  36.049  16.664  11.520
56043W        W17574  30.105  15.661   3.357
56044W        W17575  10.358  31.532  11.541
56045W        W17576   7.825  11.239   3.171
56046W        W17577  44.388  34.582   0.776
56047W        W17578  39.890  35.079  12.839
56048W        W17579  39.524  32.510   2.773
56049W        W17580  26.003   0.973  10.478
56050W        W17581  30.108  34.461  14.895
56051W        W17582   6.248  42.491   4.327
56052W        W17583   9.291  31.036   4.729
56053W        W17584  20.051  10.757   1.902
56054W        W17585  19.213  21.612  13.407
56055W        W17586   3.235  14.127  13.398
56056W        W17587  24.671  19.143  11.422
56057W        W17588  21.583  31.458   2.396
56058W        W17589  41.355  20.683  10.468
56059W        W17590  27.455  11.196   3.805
56060W        W17591  27.691  14.150   1.769
56061W        W17592   2.937  33.405  14.767
56062W        W17593   4.428  32.471  14.382
56063W        W17594   6.685  21.658  10.624
56064W        W17595  37.981  19.054   1.730
56065W        W17596  43.451  25.634  11.025
56066W        W17597   5.250  27.503  11.580
56067W        W17598   4.851  33.415  13.975
56068W        W17599   4.846  15.692  14.988
56069W        W17600  42.446  36.893  12.868
56070W        W17601  43.902   2.725   4.119
56071W        W17602   6.209  11.699   0.354
56072W        W17603  29.547  27.476  13.800
56073W        W17604  10.661  22.007  13.973
56074W        W17605  11.656  17.733   3.352
56075W        W17606  38.564  15.596  10.937
56076W        W17607  28.595  11.164   2.290
56077W        W17608  33.560  36.976   5.249
56078W        W17609  19.690  35.573   3.679
56079W        W17610  20.160   9.827  13.874
56080W        W17611  10.338  12.238   4.626
56081W        W17612  13.809  40.522   1.792
56082W        W17613  41.018  32.564   1.419
56083W        W17614  13.228  17.155   5.231
56084W        W17615  14.832   2.771   0.897
56085W        W17616  27.976  35.006  14.285
56086W        W17617   7.743  41.524   0.891
56087W        W17618   1.416  10.675  11.105
56088W        W17619  10.757   6.788   1.841
56089W        W17620  12.336  21.597  13.891
56090W        W17621  27.027  34.413   1.216
56091W        W17622   8.360  26.142  14.019
56092W        W17623   3.826   1.869  14.942
56093W        W17624  29.490   2.267  13.064
56094W        W17625   5.887  21.747  10.963
56095W        W17626  38.868  19.548  10.003
56096W        W17627  37.457  43.319   2.751
56097W        W17628  33.022  35.555   0.321
56098W        W17629   9.320  29.490   3.759
56099W        W17630  35.859  22.084   4.611
56100W        W17631  44.815   6.749   1.889
56101W        W17632  14.242  15.181  11.563
56102W        W17633  26.069  25.478  13.420
56103W        W17634   7.309  24.152  11.992
56104W        W17635  36.872  21.595  10.950
56105W        W17636  41.983  44.958  11.909
56106W        W17637   3.866   5.350   1.855
56107W        W17638  28.054   0.904  12.912
56108W        W17639  10.148  44.937   2.412
56109W        W17640  10.195  13.145  11.475
56110W        W17641  31.997   6.301  10.432
56111W        W17642  35.407   3.943   1.875
56112W        W17643  16.612  22.169   3.757
56113W        W17644  35.896  25.657  14.839
56114W        W17645  12.733  36.843   3.812
56115W        W17646  27.149  38.430   4.178
56116W        W17647  41.837  40.895   2.180
56117W        W17648   5.276  29.163  11.056
56118W        W17649  21.147  16.580  13.431
56119W        W17650  37.957  11.361  11.919
56120W        W17651  30.536  13.306  13.342
56121W        W17652  26.527  26.659  14.826
56122W        W17653  37.966  23.734   1.398
56123W        W17654  25.522  20.180   3.728
56124W        W17655  44.344   0.479  12.975
56125W        W17656  18.158  19.679  12.950
56126W        W17657   3.954  27.131  14.461
56127W        W17658  16.106  14.213  13.793
56128W        W17659  24.003  22.239   2.239
56129W        W17660  31.014  37.014  10.613
56130W        W17661  11.218  36.531  11.057
56131W        W17662  31.566  30.593  10.561
56132W        W17663  22.075  17.166  11.601
56133W        W17664  41.032  13.279  12.919
56134W        W17665  16.800  39.059   3.244
56135W        W17666  11.348  44.299   1.242
56136W        W17667   8.815  36.591   1.930
56137W        W17668   6.383   1.932  10.558
56138W        W17669   9.722   4.910   3.738
56139W        W17670   8.269  29.983   0.787
56140W        W17671   9.777  44.289  12.491
56141W        W17672  41.896  22.595   3.248
56142W        W17673  12.778  18.054  11.121
56143W        W17674  25.023  23.597  14.388
56144W        W17675  43.382  23.233   2.669
56145W        W17676  44.283   7.859   3.371
56146W        W17677  26.647  30.993  14.334
56147W        W17678  13.121  21.716  10.946
56148W        W17679  27.156  38.443   2.241
56149W        W17680   9.790  29.921   3.218
56150W        W17681   5.253  12.242   2.367
56151W        W17682   2.456  23.098   9.619
56152W        W17683   0.407  21.635  11.602
56153W        W17684  28.554   1.733  10.488
56154W        W17685  21.102  32.604   5.256
56155W        W17686   0.813  16.166   2.211
56156W        W17687  16.303  29.936   1.307
56157W        W17688  25.000  21.119  13.915
56158W        W17689  42.473  14.333   3.732
56159W        W17690  42.389  30.037  14.977
56160W        W17691  20.252  12.720  11.372
56161W        W17692  29.095  23.495   3.256
56162W        W17693  10.296  44.259   2.834
56163W        W17694   2.870  26.066   4.128
56164W        W17695   0.954  21.731   3.848
56165W        W17696  36.032   5.765  14.810
56166W        W17697  30.432  42.813   5.242
56167W        W17698  22.613  15.183  11.434
56168W        W17699   3.282  30.573   2.775
56169W        W17700  34.080  32.097   1.256
56170W        W17701  22.145  44.950   4.641
56171W        W17702  21.620  19.041  14.506
56172W        W17703  21.665  25.158   4.702
56173W        W17704  21.213  29.593   0.400
56174W        W17705   6.255  27.977  14.910
56175W        W17706   0.978  11.681   4.155
56176W        W17707  40.419  33.967  10.888
56177W        W17708  38.491  28.494   4.826
56178W        W17709  11.339  17.194  13.340
56179W        W17710  34.877   4.698   2.351
56180W        W17711  34.422  25.002  10.581
56181W        W17712   7.283   0.946   0.395
56182W        W17713  25.002  37.466  11.390
56183W        W17714  37.054  15.154  14.793
56184W        W17715  13.206   3.265   9.468
56185W        W17716   5.847  16.305  11.987
56186W        W17717  22.739  35.018  14.995
56187W        W17718   6.746   1.329   3.298
56188W        W17719  22.550   4.847   3.798
56189W        W17720  41.948  10.224   1.422
56190W        W17721   7.751  44.308  12.026
56191W        W17722  23.172  44.339   4.610
56192W        W17723  14.199  26.466  10.582
56193W        W17724  44.908  25.177  14.510
56194W        W17725  44.900  36.464   0.365
56195W        W17726   8.687  22.707  14.005
56196W        W17727   5.690   1.866   4.200
56197W        W17728  19.127  12.356   2.839
56198W        W17729  38.502  35.101  12.897
56199W        W17730  14.102   5.230  12.527
56200W        W17731  17.087  13.833   1.935
56201W        W17732   6.353  23.657   2.822
56202W        W17733  26.013  15.200   4.260
56203W        W17734  20.229  37.060   0.792
56204W        W17735  28.001  17.294  10.551
56205W        W17736  43.856  39.410   2.782
56206W        W17737  38.480  32.636  14.855
56207W        W17738  29.134  19.633  13.916
56208W        W17739  28.517  16.314   1.329
56209W        W17740  33.453  34.575  12.844
56210W        W17741  14.336  34.604  10.478
56211W        W17742  11.321   1.743   0.943
56212W        W17743  18.241  35.373   4.235
56213W        W17744  21.579   5.373  13.801
56214W        W17745  34.549  23.624  13.033
56215W        W17746  42.509  38.859  10.508
56216W        W17747  24.521   1.423   0.279
56217W        W17748  19.677  43.510   4.278
56218W        W17749   1.326  27.508  11.892
56219W        W17750  13.139  19.571  13.503
56220W        W17751  41.807  27.192   2.826
56221W        W17752  38.349  17.615   1.697
56222W        W17753  10.793  11.773  14.951
56223W        W17754  27.162   9.298   2.814
56224W        W17755  22.667  23.226   2.747
56225W        W17756  21.552  32.919   0.436
56226W        W17757  34.583  35.503   1.791
56227W        W17758  10.729  17.306   3.632
56228W        W17759  17.714   2.228  12.051
56229W        W17760  33.384  21.728  11.866
56230W        W17761  34.899  40.313   3.828
56231W        W17762  15.648   0.487   0.850
56232W        W17763  11.726  38.435   4.836
56233W        W17764  31.068   8.720   9.457
56234W        W17765   3.870  33.393  10.532
56235W        W17766  16.142  20.264   3.205
56236W        W17767  43.366  22.098   4.749
56237W        W17768  26.580   5.802  14.871
56238W        W17769  35.040  17.668  13.439
56239W        W17770  27.994  27.648  11.472
56240W        W17771   5.805  14.799  14.765
56241W        W17772  40.500  17.739   3.701
56242W        W17773  21.583  19.245  13.345
56243W        W17774   4.433  44.324   0.946
56244W        W17775  44.419  17.634  13.418
56245W        W17776  29.167  44.461   0.338
56246W        W17777  27.987  12.683   3.371
56247W        W17778  32.085   6.321   4.313
56248W        W17779   7.858  13.602   4.308
56249W        W17780   1.253  15.718  11.875
56250W        W17781   2.891  11.638  11.890
56251W        W17782  27.061  13.108  12.045
56252W        W17783  28.485  26.558  11.548
56253W        W17784  12.321  32.394  12.837
56254W        W17785  18.658  24.172  12.525
56255W        W17786  28.671  30.967   4.708
56256W        W17787  37.415  37.952   3.177
56257W        W17788  43.470   4.290  13.984
56258W        W17789   8.273  30.509   0.803
56259W        W17790  22.188  12.248  10.412
56260W        W17791  24.069  35.914   5.312
56261W        W17792  44.940  26.482   4.211
56262W        W17793  23.691  19.164   4.712
56263W        W17794  44.452  32.625  13.491
56264W        W17795  34.935  39.933  12.035
56265W        W17796  43.341  17.596   2.240
56266W        W17797  14.140  17.105  10.511
56267W        W17798  23.128   8.862  10.551
56268W        W17799  33.535  26.095   1.280
56269W        W17800  11.811  15.293  12.401
56270W        W17801  13.825  44.447   2.412
56271W        W17802  25.485   2.867   4.186
56272W        W17803  38.346  38.865   5.800
56273W        W17804  14.311   3.239   0.866
56274W        W17805   6.858  14.706   3.241
56275W        W17806  41.935  20.698  10.446
56276W        W17807  19.200   3.238   1.782
56277W        W17808   3.300  24.987  12.531
56278W        W17809  24.143  24.065  14.776
56279W        W17810  14.175  37.974  12.836
56280W        W17811  43.413  27.031   3.850
56281W        W17812   0.489  11.761  13.044
56282W        W17813   3.390  26.629  11.538
56283W        W17814  38.984  18.246   2.272
56284W        W17815  37.922  26.463   2.404
56285W        W17816   1.274   7.356   1.742
56286W        W17817  24.575   5.861   4.691
56287W        W17818  23.628   5.439   3.295
56288W        W17819   6.873  24.034  11.100
56289W        W17820  35.940  20.723   1.257
56290W        W17821  44.991  30.962  14.312
56291W        W17822  27.457  20.599   1.315
56292W        W17823   6.259  29.539  10.017
56293W        W17824  12.796  34.418   3.292
56294W        W17825  21.208  42.412  11.515
56295W        W17826   9.842  36.373   0.276
56296W        W17827  43.766   6.906   1.762
56297W        W17828  29.429   3.818   2.202
56298W        W17829  16.208  22.619  11.427
56299W        W17830  40.513  32.134   2.681
56300W        W17831  44.985   7.393   1.839
56301W        W17832   0.327   4.239   2.314
56302W        W17833  13.754  15.699   0.253
56303W        W17834   4.847  18.669   3.350
56304W        W17835  24.125  25.671  10.500
56305W        W17836  12.286  19.200  11.449
56306W        W17837  40.530   0.815  14.973
56307W        W17838  30.529  35.564  10.485
56308W        W17839  33.943  12.746  12.471
56309W        W17840   4.742  39.945  10.451
56310W        W17841  36.572  15.687   3.270
56311W        W17842  24.984   5.918  11.071
56312W        W17843  40.917   0.399   2.223
56313W        W17844  27.505   9.750   0.253
56314W        W17845  40.474  15.753   1.265
56315W        W17846  40.933  40.855  14.464
56316W        W17847  23.718   5.807  13.839
56317W        W17848  11.286  36.053   3.309
56318W        W17849  35.422   0.802   4.219
56319W        W17850  14.313  30.974  13.869
56320W        W17851  36.381  40.366   4.606
56321W        W17852  14.094  14.097   4.324
56322W        W17853   0.895  14.115   0.410
56323W        W17854  26.203  12.129   3.752
56324W        W17855   8.783  35.362  14.502
56325W        W17856   9.346   4.399   1.832
56326W        W17857  26.003  42.289  12.839
56327W        W17858   4.870  19.773  12.093
56328W        W17859   4.222   5.689  13.531
56329W        W17860  17.740  10.664   4.257
56330W        W17861   6.316  42.955   1.792
56331W        W17862  15.715  28.082   3.635
56332W        W17863  17.782  43.389   3.845
56333W        W17864  24.170   2.229   1.348
56334W        W17865  30.943   5.222   3.722
56335W        W17866  37.045  19.108   4.795
56336W        W17867  44.990  21.679  13.907
56337W        W17868  39.449  15.823  13.528
56338W        W17869  42.810  12.329  13.918
56339W        W17870   1.778  13.789   3.386
56340W        W17871  17.225  12.834  10.539
56341W        W17872   9.198  39.473   1.753
56342W        W17873  44.810  40.892  12.353
56343W        W17874   1.456  44.434  11.071
56344W        W17875  37.992  33.592   4.176
56345W        W17876  11.355  26.963  14.395
56346W        W17877   4.385  11.635   2.346
56347W        W17878   7.714  37.988   1.292
56348W        W17879  24.192  12.765   3.160
56349W        W17880  26.565   2.960  12.503
56350W        W17881  10.649  25.552  14.469
56351W        W17882  30.149  11.281  13.530
56352W        W17883  15.312  25.622  12.360
56353W        W17884  30.529  44.791  13.870
56354W        W17885  40.510  31.074  10.936
56355W        W17886  38.415  21.524  13.885
56356W        W17887   8.177  25.015   3.662
56357W        W17888  31.401   1.248   3.770
56358W        W17889  42.280  43.978   2.762
56359W        W17890  43.999  16.717  14.495
56360W        W17891  26.146   6.272  11.083
56361W        W17892  39.371  20.182  10.936
56362W        W17893  36.453  19.720  14.966
56363W        W17894   3.438  42.473  12.562
56364W        W17895  17.246   4.345   3.783
56365W        W17896   3.259  13.161   1.313
56366W        W17897  42.414  17.776  10.637
56367W        W17898  18.105  33.883  11.412
56368W        W17899   8.832  33.429   1.367
56369W        W17900   9.680   1.287  13.852
56370W        W17901  15.108  34.392  10.941
56371W        W17902  23.531  43.406  14.473
56372W        W17903   2.824  37.369  10.446
56373W        W17904  21.627   5.317   4.751
56374W        W17905  13.276   8.760  12.435
56375W        W17906  30.510   6.277  13.495
56376W        W17907  22.513  19.217  13.857
56377W        W17908  16.128  36.849  13.973
56378W        W17909  40.531  27.140   0.806
56379W        W17910  15.226  23.674   0.843
56380W        W17911  33.513  36.949  11.434
56381W        W17912  13.708  13.165  12.420
56382W        W17913  31.577   5.259  11.000
56383W        W17914  33.405  29.432  10.643
56384W        W17915  41.468  32.996   1.211
56385W        W17916  32.109   6.219   3.691
56386W        W17917  15.790  11.291   3.809
56387W        W17918   9.280  28.539  14.786
56388W        W17919  19.703  37.422   3.152
56389W        W17920   8.879   9.673  12.561
56390W        W17921   8.368   6.190   0.902
56391W        W17922   8.682  29.169   3.294
56392W        W17923  38.957  34.417  14.017
56393W        W17924  22.555  31.617   1.881
56394W        W17925  13.129  40.988  14.918
56395W        W17926   6.749  20.229   1.422
56396W        W17927  39.530  20.231   2.697
56397W        W17928  32.062  32.535  13.332
56398W        W17929  29.445   0.928   2.378
56399W        W17930  25.038  36.377   3.838
56400W        W17931  12.141  11.200   1.752
56401W        W17932   3.872  23.572  12.467
56402W        W17933  35.584  23.512  12.844
56403W        W17934  14.714  32.571   0.790
56404W        W17935  34.894  10.677   0.748
56405W        W17936  19.577  16.105  12.497
56406W        W17937  41.025  42.032  10.582
56407W        W17938  42.010  27.012   0.811
56408W        W17939  17.658   8.861  10.605
56409W        W17940   3.319  19.111  11.028
56410W        W17941  10.842  12.346  12.354
56411W        W17942  10.812  41.868  10.930
56412W        W17943   0.819   8.384  10.506
56413W        W17944  33.993  41.027   0.794
56414W        W17945  32.001  21.187  14.315
56415W        W17946   3.303  38.477   3.202
56416W        W17947  17.789  30.615   4.604
56417W        W17948  23.525  29.003  13.382
56418W        W17949  30.450  30.072  11.968
56419W        W17950  41.432  31.913   2.688
56420W        W17951  30.965  14.191   4.821
56421W        W17952  28.492  37.008   4.832
56422W        W17953  12.332  33.897  11.899
56423W        W17954  10.689   1.768  14.481
56424W        W17955  29.471  24.028   3.650
56425W        W17956  35.392  21.114   1.721
56426W        W17957  20.743  41.835   1.280
56427W        W17958  19.180  21.568  10.635
56428W        W17959  32.430  42.302   4.725
56429W        W17960  35.467  43.418  11.412
56430W        W17961  17.264  14.268  11.969
56431W        W17962  30.617  39.395  11.093
56432W        W17963  25.481  33.097  10.406
56433W        W17964  29.462  37.518   3.157
56434W        W17965  15.258  17.764   0.770
56435W        W17966  37.042  27.447   3.816
56436W        W17967  22.017  34.918  11.874
56437W        W17968  35.430  44.829   2.877
56438W        W17969   3.424  28.564  13.526
56439W        W17970   3.384  17.082  10.591
56440W        W17971  31.091  11.233   0.387
56441W        W17972  20.593  29.997   0.305
56442W        W17973  30.017   6.332  11.544
56443W        W17974  33.614   5.240  14.827
56444W        W17975  18.176   2.947   0.883
56445W        W17976  42.928   7.727  14.302
56446W        W17977  43.819  31.019   0.733
56447W        W17978  42.927  41.020   4.141
56448W        W17979  16.746  10.281   0.274
56449W        W17980   3.337  26.104   1.866
56450W        W17981  28.460  11.636  12.576
56451W        W17982   0.834  36.430  10.955
56452W        W17983  33.555  28.004  10.409
56453W        W17984   9.166  11.259  12.884
56454W        W17985  32.534   4.929   2.243
56455W        W17986   4.396   1.864   4.598
56456W        W17987  23.586  12.242   3.343
56457W        W17988  13.218  41.976   3.212
56458W        W17989  17.262  15.258   1.232
56459W        W17990  25.121  43.853  13.831
56460W        W17991  16.263  10.813  12.580
56461W        W17992  15.312   6.222   2.267
56462W        W17993  16.239  23.617  14.777
56463W        W17994  34.944  13.319  11.954
56464W        W17995  10.797  15.707  14.927
56465W        W17996  43.934  10.374  11.601
56466W        W17997  33.490  27.464  14.990
56467W        W17998  44.869  35.894   5.277
56468W        W17999  27.186  13.323  11.000
56469W        W18000  22.197  20.743  10.899
56470W        W18001  32.894  19.251   9.478
56471W        W18002  43.399   4.832  14.367
56472W        W18003  19.694  13.769   3.714
56473W        W18004  40.011  22.123  11.024
56474W        W18005  41.976  19.242   4.171
56475W        W18006  44.780  20.592  14.302
56476W        W18007  32.600  34.868  12.342
56477W        W18008  10.769  44.400  14.848
56478W        W18009  35.066  12.161   1.271
56479W        W18010  42.962  44.933  11.120
56480W        W18011  16.607   5.853  10.420
56481W        W18012  17.241  40.906   0.748
56482W        W18013  16.131  34.584   5.273
56483W        W18014   5.260  23.680  12.427
56484W        W18015  14.174  27.045  11.001
56485W        W18016   5.439  12.277   2.842
56486W        W18017   8.673   9.160  12.833
56487W        W18018  14.724  32.605  14.808
56488W        W18019  28.609  12.179  10.636
56489W        W18020  43.784   2.389   3.212
56490W        W18021   0.459  36.868   4.753
56491W        W18022  11.135  36.509  14.006
56492W        W18023  37.926   1.784   0.246
56493W        W18024  24.672  29.428  14.774
56494W        W18025  37.066  32.981  14.863
56495W        W18026   2.292  12.325  13.335
56496W        W18027  42.817  27.014   2.416
56497W        W18028  25.024  32.629  11.119
56498W        W18029  32.513  21.242   4.620
56499W        W18030  37.895   6.317  13.548
56500W        W18031  42.990  16.187  14.811
56501W        W18032  13.281  20.725  10.581
56502W        W18033  37.873   0.923   4.221
56503W        W18034   6.275   6.211   0.344
56504W        W18035  35.023  12.343  11.030
56505W        W18036  22.686  24.177   2.410
56506W        W18037  24.651  41.297  11.985
56507W        W18038   8.678  16.766  14.953
56508W        W18039  32.412  38.965  10.491
56509W        W18040   9.663  40.430  10.605
56510W        W18041  44.369   5.754   9.947
56511W        W18042  11.211  31.116  14.025
56512W        W18043  26.132  19.612  13.385
56513W        W18044  39.814  23.071   3.846
56514W        W18045  10.383  43.004  12.080
56515W        W18046  32.577  23.729   3.286
56516W        W18047  43.488  27.581  11.878
56517W        W18048  42.893  11.760  14.946
56518W        W18049  19.682  29.040  11.517
56519W        W18050   1.384   1.839   0.297
56520W        W18051  17.794   5.791   2.856
56521W        W18052   9.195  33.414   0.815
56522W        W18053   5.864  28.559   0.331
56523W        W18054  30.995  30.606   2.329
56524W        W18055  12.676  23.192  13.021
56525W        W18056  40.360  35.866   2.225
56526W        W18057   3.910  18.740   2.361
56527W        W18058   3.848  15.096  13.971
56528W        W18059  25.029  24.071   2.851
56529W        W18060  21.135  17.289  13.460
56530W        W18061  17.070   6.685  10.565
56531W        W18062  24.054  27.607  11.483
56532W        W18063  32.570  37.378  10.516
56533W        W18064  12.206  33.458  13.411
56534W        W18065  42.374   1.892   4.668
56535W        W18066  43.902  28.510   0.846
56536W        W18067  21.735  23.675  14.364
56537W        W18068  12.857  15.587  10.482
56538W        W18069  11.792  38.491   0.889
56539W        W18070  21.570  18.555   0.760
56540W        W18071  43.021  37.998   0.336
56541W        W18072  17.800  32.989   4.274
56542W        W18073  28.054  22.038  10.411
56543W        W18074  30.973  25.124  10.997
56544W        W18075  26.187  17.111  13.332
56545W        W18076  25.208   7.206  13.959
56546W        W18077   5.872  19.210   3.696
56547W        W18078  16.704  11.771   2.736
56548W        W18079  17.665  43.451   1.749
56549W        W18080   7.345  21.577  14.842
56550W        W18081  27.180  27.989  11.375
56551W        W18082  41.874  18.614   4.704
56552W        W18083  36.046   8.830  14.806
56553W        W18084  25.575  44.759  14.868
56554W        W18085   3.378   7.307  12.885
56555W        W18086  10.832  31.641   1.418
56556W        W18087  15.602  44.497   3.679
56557W        W18088  31.541  22.060  12.050
56558W        W18089   1.382  29.049  12.846
56559W        W18090  33.513  19.620  11.128
56560W        W18091   4.719   1.265   4.158
56561W        W18092   0.443  11.793   2.810
56562W        W18093  13.162   4.343  12.342
56563W        W18094  25.565  18.711  14.362
56564W        W18095  22.019   2.254  10.585
56565W        W18096  30.980   9.666  14.384
56566W        W18097   3.921  20.231   2.378
56567W        W18098   0.357  14.304  14.492
56568W        W18099  16.608  37.036  14.311
56569W        W18100  31.031  24.995   4.157
56570W        W18101  15.710  21.512   1.350
56571W        W18102  17.215   5.374   1.246
56572W        W18103   8.887  29.918  11.863
56573W        W18104  43.378   0.484  12.987
56574W        W18105  31.134   5.207  11.954
56575W        W18106  12.244  15.697   1.436
56576W        W18107  44.002   8.673   1.211
56577W        W18108  24.618  18.669  13.448
56578W        W18109  18.181  39.893  12.987
56579W        W18110  35.481   5.337  13.896
56580W        W18111  15.813  14.832   4.118
56581W        W18112  42.001  32.939  11.957
56582W        W18113  35.886  23.679  12.932
56583W        W18114  36.995  37.061  14.027
56584W        W18115  29.496   0.298  11.873
56585W        W18116  19.567  24.160  14.321
56586W        W18117  20.616   2.780   0.853
56587W        W18118  16.577  29.922   2.831
56588W        W18119   1.946  11.146   2.727
56589W        W18120  33.081  40.363   9.966
56590W        W18121   4.889  37.991   4.820
56591W        W18122  36.476   9.296  11.413
56592W        W18123  35.518   7.258  12.001
56593W        W18124  24.207   8.235   4.263
56594W        W18125  40.427   9.377   3.148
56595W        W18126  31.946   2.845   1.423
56596W        W18127  27.156  38.861   1.447
56597W        W18128  35.020  27.530  14.498
56598W        W18129  16.711  30.481  12.827
56599W        W18130   8.848  35.899  11.107
56600W        W18131  29.529  13.274   1.875
56601W        W18132   3.802   5.731  12.965
56602W        W18133  24.583  20.236   0.451
56603W        W18134  16.079  34.961  12.078
56604W        W18135  25.967  12.260  12.537
56605W        W18136  23.579  43.510  13.389
56606W        W18137   3.311   1.288   4.207
56607W        W18138  23.179  30.476   3.816
56608W        W18139  39.969  19.766   4.268
56609W        W18140  26.191   8.846   4.219
56610W        W18141   7.905  13.114   1.802
56611W        W18142  29.516   8.314  14.927
56612W        W18143  15.137  37.534   0.325
56613W        W18144   0.841  36.055  12.439
56614W        W18145  10.313  20.151   4.788
56615W        W18146  39.956   1.304  12.342
56616W        W18147  14.812  23.666   4.192
56617W        W18148  36.008  25.518   1.916
56618W        W18149  10.151  40.394  12.866
56619W        W18150  11.653  14.671   4.332
56620W        W18151   2.767  30.972  13.312
56621W        W18152  29.489  23.144   2.788
56622W        W18153  29.576  10.790  12.399
56623W        W18154  42.426  40.930  13.864
56624W        W18155  30.493  44.302   4.348
56625W        W18156  31.103  14.139   4.298
56626W        W18157  17.144   8.664  13.398
56627W        W18158  30.149  38.325   4.276
56628W        W18159  16.232   6.368   1.746
56629W        W18160  33.936  25.150  10.957
56630W        W18161  34.012  30.502  13.859
56631W        W18162  42.476  31.951   4.187
56632W        W18163  10.821  41.365  12.891
56633W        W18164  14.712   8.229  11.497
56634W        W18165  44.832   7.804  13.309
56635W        W18166   9.683   4.852   1.400
56636W        W18167  27.564  24.507  14.316
56637W        W18168   5.215  10.789  14.346
56638W        W18169   3.714   0.828   3.241
56639W        W18170  24.498  43.347   4.737
56640W        W18171  33.918  17.145  11.502
56641W        W18172  28.973  27.539  14.771
56642W        W18173   6.878  35.900  12.343
56643W        W18174  22.600   6.766   2.241
56644W        W18175   0.260   1.922  14.461
56645W        W18176  16.573  42.348  13.897
56646W        W18177   7.415  44.990  12.853
56647W        W18178  38.518  42.932   1.250
56648W        W18179  29.132  21.089  13.466
56649W        W18180  40.973   8.380   3.387
56650W        W18181  35.550  11.346  14.288
56651W        W18182   3.372  21.668   0.380
56652W        W18183   4.406  16.653   2.764
56653W        W18184  16.811  19.241   2.870
56654W        W18185   4.935  17.307   0.844
56655W        W18186   1.463  30.420  10.548
56656W        W18187  19.177  22.607   3.243
56657W        W18188   4.851  38.826  11.876
56658W        W18189  34.413  17.724  13.542
56659W        W18190  12.805  13.255   3.243
56660W        W18191  28.125  28.562  12.904
56661W        W18192  16.727  30.441   5.119
56662W        W18193  18.226  19.557   4.182
56663W        W18194  42.928  20.660  11.423
56664W        W18195   1.825  27.070   0.283
56665W        W18196  15.219  30.011  12.967
56666W        W18197   7.738  42.444  14.960
56667W        W18198  23.544  10.225  14.977
56668W        W18199  44.496  17.208  10.990
56669W        W18200  42.413  31.017  10.456
56670W        W18201  22.625  26.614  13.482
56671W        W18202  44.999  26.540   1.399
56672W        W18203  20.137   0.867  11.530
56673W        W18204  37.987  20.065  12.525
56674W        W18205  13.615  21.701  11.952
56675W        W18206   4.380   6.757   4.814
56676W        W18207  41.029  23.672  10.923
56677W        W18208  13.655   7.256  14.287
56678W        W18209  32.071  40.338   4.618
56679W        W18210  40.413  33.422  10.606
56680W        W18211  27.484  16.170   3.356
56681W        W18212  35.046  28.671   1.306
56682W        W18213  40.902  31.087   4.719
56683W        W18214  12.198  40.984   1.337
56684W        W18215  43.937   3.226   1.912
56685W        W18216  42.898   9.392  12.850
56686W        W18217  31.076  30.478   3.725
56687W        W18218  19.199  25.010  10.059
56688W        W18219   2.264  15.721   0.333
56689W        W18220  17.736  31.611  13.900
56690W        W18221  19.543  44.340   0.859
56691W        W18222  12.305  17.078   4.801
56692W        W18223  31.430  18.751   5.296
56693W        W18224   2.880  32.520   3.252
56694W        W18225  36.437  41.513  13.332
56695W        W18226  37.057  21.236  12.093
56696W        W18227  15.291  40.988  11.385
56697W        W18228  34.101  29.612   4.747
56698W        W18229  32.423  42.494   3.292
56699W        W18230   9.321  12.266   4.353
56700W        W18231   3.819  23.567   0.783
56701W        W18232  43.278   4.754   4.622
56702W        W18233  29.977  29.041   2.685
56703W        W18234  41.978  43.000  14.496
56704W        W18235  33.462  30.547  10.959
56705W        W18236   8.247   0.842  13.439
56706W        W18237  41.015   7.800   1.831
56707W        W18238  10.366  29.568  10.968
56708W        W18239  21.651  19.709  14.444
56709W        W18240  37.855  17.137  10.521
56710W        W18241   2.265  35.574  14.944
56711W        W18242  41.902   9.349   1.325
56712W        W18243  14.780  14.692  11.856
56713W        W18244   0.361  29.466   3.639
56714W        W18245  19.573  39.976  11.856
56715W        W18246  31.000  22.014  11.594
56716W        W18247  20.563   5.702   0.372
56717W        W18248  21.597  21.021   1.449
56718W        W18249   8.654  12.320  12.926
56719W        W18250   3.803  44.351   3.306
56720W        W18251   8.201   7.389   3.325
56721W        W18252  31.985   1.825  11.525
56722W        W18253  12.280   0.347   3.801
56723W        W18254  13.137  44.395  13.533
56724W        W18255   8.890  14.271   3.160
56725W        W18256   5.249  15.651  14.443
56726W        W18257  13.666  12.347   1.429
56727W        W18258  25.115  33.913  12.899
56728W        W18259   8.172  29.548   4.667
56729W        W18260  11.748  20.569  14.947
56730W        W18261   9.206  38.941  14.957
56731W        W18262  19.228   0.396  12.889
56732W        W18263  28.177  14.095  14.982
56733W        W18264  40.468  26.505   0.939
56734W        W18265  42.003  31.144  13.936
56735W        W18266  19.125  32.906   0.272
56736W        W18267  24.165  26.515   1.415
56737W        W18268  42.027  20.590   1.914
56738W        W18269  19.768  39.910  10.115
56739W        W18270  23.642  41.323  14.501
56740W        W18271  41.422  31.927  13.407
56741W        W18272  29.548  26.690   9.972
56742W        W18273  27.008  36.963   1.724
56743W        W18274  10.302   2.841  12.943
56744W        W18275   3.293  26.652  13.318
56745W        W18276   3.884   0.471  10.450
56746W        W18277  35.584  14.185  12.479
56747W        W18278  36.508  27.662   2.243
56748W        W18279  40.460  27.507   2.327
56749W        W18280   6.897  11.130   3.300
56750W        W18281   1.897  17.788   4.647
56751W        W18282  16.209  17.674   0.746
56752W        W18283  10.659   0.287  10.622
56753W        W18284  39.982  44.451   4.301
56754W        W18285   4.737  33.392   5.214
56755W        W18286  23.062  34.078  12.902
56756W        W18287  27.947  39.464  10.490
56757W        W18288  22.006  40.538  14.365
56758W        W18289  32.604   2.277   4.203
56759W        W18290   2.852  27.066  13.960
56760W        W18291  15.789  44.473   5.262
56761W        W18292  27.564  15.109   0.761
56762W        W18293  19.575  30.937   2.686
56763W        W18294  42.459  11.720   4.751
56764W        W18295  35.012  43.837  11.454
56765W        W18296  25.520  15.721  11.538
56766W        W18297  44.927  20.256  10.955
56767W        W18298  18.086  41.357   9.969
56768W        W18299  26.459  41.337   4.146
56769W        W18300  14.816  27.062  10.953
56770W        W18301  35.381  20.554   1.441
56771W        W18302  27.108   0.484   3.253
56772W        W18303   5.787   8.160  10.629
56773W        W18304   6.821  21.590  11.067
56774W        W18305  40.410  37.354   1.887
56775W        W18306  17.732  40.805  11.435
56776W        W18307  32.594  18.615   0.771
56777W        W18308  43.378  27.996   0.878
56778W        W18309   9.179  18.269  12.065
56779W        W18310   6.245  30.566  13.988
56780W        W18311  14.208   5.897  14.908
56781W        W18312  19.212  16.079  14.297
56782W        W18313  25.101  42.316  10.972
56783W        W18314  11.733  14.308  13.905
56784W        W18315   9.857   8.178  13.945
56785W        W18316   0.787   4.282  12.545
56786W        W18317  36.528  41.903   2.184
56787W        W18318  33.620   5.933   4.664
56788W        W18319   5.754   8.829  12.890
56789W        W18320  12.240  33.928   0.355
56790W        W18321   6.268   4.819  10.100
56791W        W18322  12.699  15.731   4.318
56792W        W18323  16.260  30.942  11.030
56793W        W18324  26.609  17.758  11.977
56794W        W18325  11.263  26.046   4.169
56795W        W18326  36.975  34.379  14.293
56796W        W18327  14.785   8.711   4.120
56797W        W18328  35.924  41.453   2.260
56798W        W18329  32.916  24.161   3.194
56799W        W18330  26.594  43.421   0.730
56800W        W18331   6.240  17.222  13.379
56801W        W18332  40.475  12.361  11.576
56802W        W18333   9.739  20.043   3.672
56803W        W18334   7.234  41.815   0.473
56804W        W18335   9.371  12.157  10.465
56805W        W18336  43.968  30.571   0.919
56806W        W18337  13.725   9.312   2.886
56807W        W18338   5.356  34.021  11.517
56808W        W18339   9.694  10.779  11.977
56809W        W18340  41.393   9.764  11.379
56810W        W18341  21.034  17.633   3.188
56811W        W18342  16.081  18.116  14.791
56812W        W18343  33.399  26.497  13.913
56813W        W18344  35.864  40.046  14.888
56814W        W18345  16.640  39.957   2.235
56815W        W18346  18.129  16.146  12.470
56816W        W18347  32.047  14.593   3.802
56817W        W18348  36.976  42.469   3.264
56818W        W18349  10.652  37.883  13.923
56819W        W18350  44.361  18.703  10.926
56820W        W18351  24.665  22.098  10.929
56821W        W18352  35.494  44.902   4.694
56822W        W18353  44.911  37.927  11.409
56823W        W18354  21.520  39.319  11.429
56824W        W18355  21.223   0.962   1.321
56825W        W18356  31.969  34.613   4.628
56826W        W18357  25.030  41.984  11.554
56827W        W18358  35.009   2.784   0.329
56828W        W18359  12.728   2.917   1.353
56829W        W18360  29.958  33.971  12.360
56830W        W18361   9.851  34.975  13.518
56831W        W18362  13.173  30.910  12.393
56832W        W18363   3.727   8.364   4.288
56833W        W18364  21.692  43.020   0.817
56834W        W18365  39.855  11.146   9.921
56835W        W18366   7.236   2.890  11.972
56836W        W18367   8.280  34.388  10.964
56837W        W18368  13.811  20.562  11.433
56838W        W18369  43.807  13.343   2.229
56839W        W18370  27.566  43.851   1.811
56840W        W18371  16.170  24.648  10.939
56841W        W18372  21.087  43.391   0.956
56842W        W18373  20.695  37.466   4.711
56843W        W18374   4.305  25.468   2.229
56844W        W18375  39.859  41.314  12.890
56845W        W18376  23.168   4.340  13.040
56846W        W18377  44.505  43.790  11.860
56847W        W18378  16.106  23.185   0.447
56848W        W18379  32.587   2.448  11.454
56849W        W18380  12.855   9.161  11.020
56850W        W18381  16.214  10.379   1.769
56851W        W18382   5.837  22.738   4.650
56852W        W18383   9.391   2.293   3.669
56853W        W18384   4.729  41.828  12.968
56854W        W18385  18.759  34.613  10.990
56855W        W18386  13.220  33.405   4.774
56856W        W18387  30.087  23.544  12.979
56857W        W18388   9.794   4.416   2.337
56858W        W18389  14.629  38.535  14.825
56859W        W18390  32.907  34.930  10.522
56860W        W18391   6.750  26.028  10.416
56861W        W18392  20.636  30.466   4.755
56862W        W18393  30.995   5.743  11.393
56863W        W18394  24.618  37.558  14.938
56864W        W18395   2.284  28.146   5.173
56865W        W18396  20.561  28.621   2.800
56866W        W18397  10.277  28.655   4.714
56867W        W18398  43.510  32.445  14.951
56868W        W18399  35.570  13.192  11.886
56869W        W18400   4.304  42.937   4.185
56870W        W18401   6.739   2.302  11.049
56871W        W18402  35.105  18.247  14.837
56872W        W18403  31.004  37.382  13.415
56873W        W18404  39.442  25.578  13.398
56874W        W18405  15.587   5.198   2.727
56875W        W18406   4.355  22.595  13.815
56876W        W18407  41.004   7.877  14.388
56877W        W18408   1.252   0.359   0.399
56878W        W18409  16.654   2.843   3.322
56879W        W18410  22.729  13.186   3.734
56880W        W18411  21.047   7.282   0.441
56881W        W18412  13.148  29.022   2.233
56882W        W18413  28.055  37.864  10.494
56883W        W18414  39.371  21.161   1.791
56884W        W18415  31.081  38.008   4.325
56885W        W18416   6.428   9.805   3.159
56886W        W18417  38.463   4.722   0.917
56887W        W18418  18.230  34.499   1.736
56888W        W18419  32.937  27.075   3.692
56889W        W18420   7.791  15.707  12.555
56890W        W18421  13.720  10.216  10.535
56891W        W18422  43.408  39.958  13.805
56892W        W18423  38.013  26.676   0.879
56893W        W18424  32.490  38.030   3.836
56894W        W18425  41.384  41.315   2.902
56895W        W18426  14.206  14.189  13.975
56896W        W18427  12.749  10.835   1.795
56897W        W18428  42.344  28.144   1.248
56898W        W18429  39.526  21.699   4.193
56899W        W18430  17.743  37.875   0.853
56900W        W18431  38.063   0.446  13.495
56901W        W18432  13.668  25.179   4.798
56902W        W18433  38.525   8.786   3.365
56903W        W18434  25.600  41.368  13.062
56904W        W18435  28.157  44.323   4.708
56905W        W18436   5.227  31.915  10.895
56906W        W18437  35.878  37.935   2.832
56907W        W18438   4.305  39.007   3.203
56908W        W18439  22.662  42.359   3.808
56909W        W18440  22.175   0.437   4.799
56910W        W18441  35.002  33.581   0.906
56911W        W18442  28.634  18.605  14.418
56912W        W18443  43.952  43.443   4.166
56913W        W18444  40.972  30.644   3.313
56914W        W18445   8.881  27.495   0.443
56915W        W18446  34.104   5.408  14.989
56916W        W18447  16.748   1.247  11.013
56917W        W18448  33.388  19.171   0.934
56918W        W18449  30.163  44.007  14.019
56919W        W18450  10.225  40.818  11.587
56920W        W18451  22.133   5.194   3.653
56921W        W18452  41.789  31.112  10.961
56922W        W18453  23.690  32.555   2.698
56923W        W18454  12.347  34.569   3.735
56924W        W18455  19.282   7.230  12.845
56925W        W18456  19.080  33.508   0.792
56926W        W18457  15.130  26.615  10.561
56927W        W18458  13.795  12.276   0.364
56928W        W18459  16.698  12.766   0.320
56929W        W18460  39.369  39.329  11.484
56930W        W18461  20.685  38.490  13.520
56931W        W18462  37.879  11.180   3.805
56932W        W18463  22.057  17.734  14.437
56933W        W18464   5.701   8.293   4.186
56934W        W18465   3.258  31.927   9.934
56935W        W18466  31.564  17.592  11.085
56936W        W18467  35.896  42.939  12.073
56937W        W18468  22.731  30.015   2.339
56938W        W18469  35.583   4.268  14.415
56939W        W18470  34.113   9.379   1.352
56940W        W18471  25.710  36.963  14.870
56941W        W18472  38.379  24.497  12.913
56942W        W18473  14.654  16.193   3.288
56943W        W18474  17.779  35.900   4.308
56944W        W18475  42.005  42.486   0.348
56945W        W18476   1.273  31.005   4.220
56946W        W18477  19.630  14.755   1.742
56947W        W18478  23.111  33.598   2.257
56948W        W18479  17.118  15.174  14.421
56949W        W18480   1.972  34.538   3.177
56950W        W18481  17.628  15.599   0.334
56951W        W18482  10.708   8.260  12.348
56952W        W18483  43.779  34.943  12.527
56953W        W18484   6.281  43.416  11.097
56954W        W18485   4.317  27.690   4.674
56955W        W18486  33.906  13.177   4.117
56956W        W18487  43.940   6.286  12.530
56957W        W18488  26.951  30.604  10.903
56958W        W18489  32.512  26.064   4.210
56959W        W18490  26.144  41.338  14.384
56960W        W18491  18.254  11.193  11.112
56961W        W18492  17.631  23.134  11.577
56962W        W18493  42.783  17.172   4.197
56963W        W18494  39.876  37.941   3.773
56964W        W18495  39.814   5.326  10.608
56965W        W18496  26.108  32.135   4.663
56966W        W18497   0.282  43.010   2.260
56967W        W18498  29.146   0.410  11.898
56968W        W18499  44.330  26.035  10.595
56969W        W18500  24.052   2.896   1.714
56970W        W18501  26.199  34.884   3.312
56971W        W18502  26.202  26.964  11.930
56972W        W18503   9.199  29.949   4.754
56973W        W18504  20.188  22.546  13.816
56974W        W18505   0.919  16.566   2.412
56975W        W18506  15.192  18.754  11.388
56976W        W18507  25.543  39.497  11.035
56977W        W18508   9.255  19.592  12.915
56978W        W18509  31.011  17.744   0.463
56979W        W18510  24.540   6.813  14.865
56980W        W18511  44.839   6.899   3.177
56981W        W18512   8.202  29.439   3.851
56982W        W18513  30.616  21.755   0.742
56983W        W18514  10.318  22.008   1.851
56984W        W18515   2.922  41.905   3.371
56985W        W18516  44.499  28.031   0.402
56986W        W18517  12.689  33.432   5.686
56987W        W18518  29.166   3.292   1.342
56988W        W18519  43.957  38.040  11.483
56989W        W18520  22.230  11.652  11.577
56990W        W18521  11.276   0.972   4.826
56991W        W18522  14.778  30.531  10.106
56992W        W18523   5.761  31.056  10.584
56993W        W18524  18.276  41.807   3.825
56994W        W18525   8.828  17.158  13.502
56995W        W18526  39.419  10.138   1.438
56996W        W18527  38.901  23.125   2.718
56997W        W18528  17.217  15.210   3.244
56998W        W18529  15.086  12.128  11.584
56999W        W18530  25.009  10.810  14.902
57000W        W18531  18.060  34.077   3.690
57001W        W18532   3.928  11.166   2.273
57002W        W18533  39.868  33.082  11.067
57003W        W18534  27.528  24.552  11.609
57004W        W18535  22.170   4.903  12.982
57005W        W18536  32.584  36.053   4.174
57006W        W18537   2.759  26.677   1.749
57007W        W18538   1.449  34.447   1.841
57008W        W18539  34.440   0.281  13.812
57009W        W18540   3.284  40.537   2.378
57010W        W18541  20.651  25.077   5.225
57011W        W18542  21.663  44.270   1.877
57012W        W18543  36.870  29.516  14.369
57013W        W18544  41.792   6.879  10.576
57014W        W18545  13.843  17.140   3.373
57015W        W18546  21.546  21.612   2.716
57016W        W18547   7.360   8.399  10.447
57017W        W18548   4.815  26.965   1.935
57018W        W18549  24.495   0.789   3.689
57019W        W18550  12.354   0.409  10.488
57020W        W18551  12.777  20.627  12.923
57021W        W18552  24.616  27.035   1.848
57022W        W18553  20.104  17.198   3.219
57023W        W18554   0.749  13.181   0.881
57024W        W18555  41.515  18.154   4.280
57025W        W18556  23.988   5.316  12.947
57026W        W18557  31.467  37.532  13.490
57027W        W18558  35.098  42.843   1.440
57028W        W18559  43.813  12.842  11.611
57029W        W18560   4.750  23.016  10.638
57030W        W18561  38.453  33.583   3.240
57031W        W18562   3.880  31.619  14.404
57032W        W18563  15.233  23.682   2.872
57033W        W18564  39.339   1.936  10.554
57034W        W18565  31.494  32.590  11.571
57035W        W18566  27.678  18.148  10.578
57036W        W18567  17.284  44.272   0.260
57037W        W18568  25.627  32.056  14.942
57038W        W18569  14.778  31.641  12.050
57039W        W18570  10.232  34.971  12.566
57040W        W18571   6.253  38.850   4.119
57041W        W18572  26.693  39.409  14.821
57042W        W18573   7.873  21.168   5.128
57043W        W18574  43.324  40.920   3.841
57044W        W18575  29.940  28.668   1.698
57045W        W18576  12.167  43.300  14.343
57046W        W18577  18.171  19.755   2.876
57047W        W18578  38.956  32.892  14.284
57048W        W18579   3.795  29.507   1.323
57049W        W18580   1.876  32.517   3.775
57050W        W18581  16.624  10.798  14.765
57051W        W18582  21.612  24.496   2.304
57052W        W18583  16.706  38.985   0.316
57053W        W18584  20.690  14.802  10.465
57054W        W18585  21.741  35.106   3.640
57055W        W18586  29.472  30.055  13.524
57056W        W18587   0.842  14.203  11.934
57057W        W18588  13.668  14.754  13.800
57058W        W18589   6.302  30.033   0.400
57059W        W18590  44.337  21.634  10.596
57060W        W18591  27.653   5.725   2.757
57061W        W18592  31.559   4.726   3.164
57062W        W18593   6.224  18.244  12.391
57063W        W18594  42.904  31.898   5.199
57064W        W18595   3.751  26.551  12.093
57065W        W18596  19.126  16.274   0.448
57066W        W18597  36.533  22.111   3.249
57067W        W18598  26.031   7.830  10.066
57068W        W18599  14.176  15.330   4.311
57069W        W18600  40.527   3.848  10.409
57070W        W18601  10.851  21.242  11.874
57071W        W18602  20.683  27.084   1.843
57072W        W18603  44.786   1.242  14.432
57073W        W18604  29.938  40.817   0.351
57074W        W18605  42.032  43.500   4.148
57075W        W18606  44.301  27.991  12.431
57076W        W18607  23.648  41.343   1.439
57077W        W18608  38.978  35.049   5.251
57078W        W18609   5.377   6.317  10.523
57079W        W18610   6.804  24.480  14.375
57080W        W18611   1.961  29.547  13.826
57081W        W18612  20.170  30.427   1.304
57082W        W18613  30.453  34.493  11.426
57083W        W18614  14.317  33.611  12.868
57084W        W18615   8.377   8.247  11.892
57085W        W18616   6.728  38.339  12.026
57086W        W18617  34.511  27.113   4.179
57087W        W18618  16.310  30.583  13.335
57088W        W18619  34.034  28.021  13.546
57089W        W18620  32.973  17.224   4.163
57090W        W18621  43.864  22.252   1.305
57091W        W18622  36.948  44.426   4.208
57092W        W18623   7.757  26.116   0.284
57093W        W18624   7.804  17.159  13.827
57094W        W18625  11.161   7.363   3.830
57095W        W18626  23.644  27.463  14.021
57096W        W18627  12.310   6.308   2.733
57097W        W18628  30.528  11.797   5.142
57098W        W18629  29.478  25.051  10.935
57099W        W18630  11.157  24.008  13.440
57100W        W18631  21.029  22.069   2.246
57101W        W18632   5.222   6.900  12.342
57102W        W18633  26.132  41.011  13.882
57103W        W18634   1.959  37.872  11.933
57104W        W18635  36.055   9.188   1.415
57105W        W18636  31.141  25.210  12.858
57106W        W18637   6.206  24.204  14.834
57107W        W18638  23.616  33.959   0.247
57108W        W18639  34.509  17.784  14.008
57109W        W18640  15.236  14.677  11.446
57110W        W18641  40.513  23.679  14.488
57111W        W18642  18.700  18.073  14.368
57112W        W18643  41.983  14.194   4.830
57113W        W18644  42.028   0.263  10.993
57114W        W18645  17.776  12.806   3.145
57115W        W18646  32.060   8.815   4.175
57116W        W18647  14.286   7.808   2.400
57117W        W18648  10.859   2.847  11.471
57118W        W18649  39.950  32.980   3.254
57119W        W18650  36.399  38.533   3.769
57120W        W18651  35.060  20.687  12.873
57121W        W18652  15.768  17.742   4.134
57122W        W18653  32.518   9.721  10.416
57123W        W18654  20.706  25.542   5.102
57124W        W18655   7.780  22.166   1.425
57125W        W18656   6.824  39.009  14.776
57126W        W18657   2.887  44.873  14.002
57127W        W18658  15.150   1.802   4.124
57128W        W18659  36.858  23.636  12.536
57129W        W18660   9.796  34.558  14.843
57130W        W18661  18.213   9.149  10.900
57131W        W18662  22.024  22.181  12.868
57132W        W18663  22.646  33.965   2.190
57133W        W18664  43.283   2.957  12.457
57134W        W18665   9.196  16.645  13.891
57135W        W18666  14.288  26.095  13.819
57136W        W18667   9.380   0.362  13.824
57137W        W18668   7.335   7.770  12.467
57138W        W18669  34.411   0.257   1.825
57139W        W18670  30.422  10.355  12.864
57140W        W18671  10.704  15.221  11.600
57141W        W18672  35.438  18.131   0.941
57142W        W18673  15.681   3.261   1.795
57143W        W18674  28.480   5.369   1.357
57144W        W18675   2.904  22.626  12.058
57145W        W18676  34.613  12.696  11.547
57146W        W18677  40.940  25.644  13.823
57147W        W18678  13.687   2.845   5.681
57148W        W18679   8.285  33.131   3.199
57149W        W18680  32.442  38.522  11.404
57150W        W18681  21.589  40.348   0.836
57151W        W18682  13.107  34.497  12.533
57152W        W18683  40.903  16.710  11.038
57153W        W18684  19.169  42.294   1.785
57154W        W18685   0.829  10.283   3.216
57155W        W18686   8.364  27.181   3.796
57156W        W18687  10.669  13.264   2.249
57157W        W18688  17.592  44.277  14.864
57158W        W18689  25.696  23.528   0.282
57159W        W18690   5.846  44.364   0.254
57160W        W18691  13.649  29.087  12.378
57161W        W18692  35.948  22.144  11.026
57162W        W18693  36.456   8.766   1.848
57163W        W18694  36.375   5.755   1.212
57164W        W18695   9.241   9.373  10.406
57165W        W18696  44.004   4.263  11.468
57166W        W18697   3.793  28.603  12.577
57167W        W18698  18.747  40.477   4.601
57168W        W18699  14.281  13.215  13.005
57169W        W18700   2.418  13.226   3.799
57170W        W18701  32.931   8.280   2.698
57171W        W18702  33.969  29.928   3.298
57172W        W18703  26.478  33.083   2.822
57173W        W18704  40.947  19.039  11.873
57174W        W18705  27.615  13.670  14.504
57175W        W18706  31.411  42.957   4.763
57176W        W18707   8.232  40.370  10.628
57177W        W18708  37.929  43.424  12.892
57178W        W18709   8.800  19.731   4.704
57179W        W18710  20.236  11.843   4.144
57180W        W18711  34.971  13.196   0.438
57181W        W18712  21.629  26.545   1.418
57182W        W18713  33.620  42.432  11.928
57183W        W18714  30.140  25.518   3.338
57184W        W18715  20.075   9.725   3.799
57185W        W18716  18.119  20.046  11.975
57186W        W18717   3.930  39.846   1.747
57187W        W18718  39.554  40.343  10.455
57188W        W18719  40.471  32.894   1.711
57189W        W18720   0.478   2.883   2.301
57190W        W18721  16.628  20.076   1.816
57191W        W18722  10.274   3.410  10.513
57192W        W18723  24.221  33.903  13.832
57193W        W18724  32.499  14.715   4.690
57194W        W18725  19.752  27.114   2.366
57195W        W18726  10.164   4.801   3.221
57196W        W18727   7.870  33.116  13.374
57197W        W18728   2.363  42.475   4.344
57198W        W18729   8.688  28.565   1.342
57199W        W18730   0.269   1.407  12.050
57200W        W18731   3.309  14.790  14.293
57201W        W18732  37.547  42.450   4.218
57202W        W18733   4.355  23.237  10.610
57203W        W18734  13.261  29.457   3.278
57204W        W18735  28.037   2.812  14.285
57205W        W18736  31.634  15.283   0.820
57206W        W18737   7.233  24.090  14.395
57207W        W18738  41.876  30.942   2.240
57208W        W18739  38.361  36.491   3.372
57209W        W18740  12.713  18.553  10.988
57210W        W18741  24.061   6.196  10.946
57211W        W18742  36.349  14.306   4.268
57212W        W18743   6.216  25.504   5.247
57213W        W18744  26.099  36.577   3.359
57214W        W18745   2.406  23.713   1.727
57215W        W18746   0.349   5.312   4.721
57216W        W18747  32.424  42.811   3.859
57217W        W18748  41.845  29.145  13.874
57218W        W18749  10.339   1.804  11.015
57219W        W18750  10.221  12.153   4.141
57220W        W18751  43.374  12.151  11.975
57221W        W18752  19.764   6.400  12.074
57222W        W18753   8.766  40.819  14.361
57223W        W18754  21.019  30.592   0.444
57224W        W18755  12.673  11.328   1.314
57225W        W18756  29.167  24.100   2.222
57226W        W18757  15.711  17.684  12.081
57227W        W18758  37.943   8.839  10.030
57228W        W18759  43.405  38.562   1.799
57229W        W18760  16.302   9.239  13.440
57230W        W18761  23.000  14.126   2.240
57231W        W18762   8.868   9.881  10.538
57232W        W18763  23.494   0.963   1.811
57233W        W18764  28.972   0.845  13.896
57234W        W18765  26.535  34.595   1.229
57235W        W18766  10.674  11.682   1.924
57236W        W18767   8.285  33.524   4.714
57237W        W18768  24.985  24.531   3.715
57238W        W18769  10.294  16.711   0.420
57239W        W18770  34.612   9.795   0.740
57240W        W18771   3.233  32.099  11.411
57241W        W18772  29.062  20.161  10.518
57242W        W18773   2.408   8.326   1.864
57243W        W18774  34.975   8.169   0.937
57244W        W18775   1.836  26.124  12.918
57245W        W18776  41.305  40.353   3.382
57246W        W18777   7.681   1.895  12.341
57247W        W18778  28.491  13.347  10.433
57248W        W18779   3.396  32.480   0.904
57249W        W18780  31.044  34.594  10.009
57250W        W18781   7.709   6.346  13.389
57251W        W18782   1.341  21.208  13.935
57252W        W18783  10.172  40.016   4.342
57253W        W18784   1.886   2.249  10.568
57254W        W18785  40.809  32.984  12.554
57255W        W18786  23.567  22.235  13.499
57256W        W18787   8.732  33.622  14.321
57257W        W18788  10.260   6.848  11.518
57258W        W18789  21.184  11.707   2.407
57259W        W18790   5.326  25.129  14.958
57260W        W18791   9.744  14.147  13.055
57261W        W18792  28.178   7.252  11.579
57262W        W18793   7.230   0.870  10.987
57263W        W18794  43.869   9.649  13.495
57264W        W18795  10.366   8.819  14.412
57265W        W18796  16.252  35.494  14.939
57266W        W18797  12.188  40.431   3.334
57267W        W18798  24.030  43.988   3.695
57268W        W18799  37.573   3.906  14.363
57269W        W18800  24.088   3.304   0.279
57270W        W18801  25.161   0.797   0.286
57271W        W18802  19.649  12.345   0.810
57272W        W18803   5.408  33.414  11.497
57273W        W18804  32.109  33.059  13.485
57274W        W18805  22.211  32.634   4.127
57275W        W18806  23.513  35.456  12.945
57276W        W18807  19.581  17.674  10.560
57277W        W18808  22.731  15.262  10.549
57278W        W18809  16.618  41.041   3.746
57279W        W18810  43.305  13.201   1.439
57280W        W18811  44.309  33.573   3.748
57281W        W18812  32.112   3.241  11.925
57282W        W18813  43.874  25.601   1.745
57283W        W18814  15.632  25.709  14.956
57284W        W18815  44.274  18.234  10.107
57285W        W18816  18.176   9.309  11.978
57286W        W18817  41.343  20.621  12.958
57287W        W18818   3.421  23.075   9.945
57288W        W18819  23.716  30.481   3.791
57289W        W18820   1.939  37.079   1.436
57290W        W18821  20.700  39.024   2.393
57291W        W18822   0.398   9.678  11.022
57292W        W18823   8.236  33.040  12.062
57293W        W18824  42.475  22.516   4.778
57294W        W18825  40.025  26.123  10.466
57295W        W18826  42.979  40.430  13.348
57296W        W18827  44.300  32.402   2.335
57297W        W18828   6.224  38.914   1.792
57298W        W18829  42.981  14.320  11.411
57299W        W18830  22.537   6.368   3.177
57300W        W18831  23.627   1.758   2.326
57301W        W18832  38.566   2.257   4.322
57302W        W18833  14.305   8.337  10.441
57303W        W18834   7.411  23.543  14.030
57304W        W18835  28.598   7.359  14.418
57305W        W18836  13.307  43.854  12.878
57306W        W18837   0.810  42.290   1.715
57307W        W18838  19.138  44.757  11.431
57308W        W18839  19.683  23.544  10.077
57309W        W18840  33.579  10.831   3.668
57310W        W18841  24.202  25.595  14.433
57311W        W18842  17.187   0.802   0.833
57312W        W18843  40.470  32.988  12.939
57313W        W18844  31.015  39.434  11.387
57314W        W18845  36.933   3.852  10.960
57315W        W18846  44.919  39.846   4.739
57316W        W18847  18.613  18.253   0.333
57317W        W18848  13.653  28.648   4.757
57318W        W18849  15.172  36.403  10.524
57319W        W18850  30.656  25.116  11.440
57320W        W18851  42.964  31.978   1.321
57321W        W18852  35.555  32.479   2.662
57322W        W18853   3.893  14.171  12.464
57323W        W18854  34.868  25.657  12.480
57324W        W18855   5.750  39.013   0.727
57325W        W18856  27.020  38.965  14.831
57326W        W18857  35.961  14.251   0.904
57327W        W18858   1.469  37.441  13.897
57328W        W18859  22.581  29.668   5.099
57329W        W18860  37.460  37.011  13.533
57330W        W18861  27.544  12.193  11.417
57331W        W18862   0.954  13.308   2.330
57332W        W18863   1.925  30.031  10.554
57333W        W18864  44.949  19.160  10.583
57334W        W18865   0.317  12.665  14.031
57335W        W18866   9.803  25.602  12.911
57336W        W18867  32.100   6.888  14.483
57337W        W18868   8.885  42.803   0.785
57338W        W18869   5.774  32.945   4.703
57339W        W18870  41.877  10.648   1.294
57340W        W18871  42.837  42.875   5.214
57341W        W18872  20.071  26.641  11.876
57342W        W18873  10.194   1.443  12.942
57343W        W18874   6.326  14.768  10.524
57344W        W18875   3.937  37.034   2.309
57345W        W18876  27.447  33.528  11.998
57346W        W18877  14.689   1.901   4.294
57347W        W18878  36.349   7.172   4.308
57348W        W18879   6.234  37.359  14.891
57349W        W18880  41.468  21.044   5.193
57350W        W18881  21.619  42.004  10.626
57351W        W18882  21.056  10.713   1.447
57352W        W18883  27.998   7.187   4.784
57353W        W18884  17.159  20.036   2.244
57354W        W18885  12.308  40.388   2.766
57355W        W18886  23.569  34.922   4.655
57356W        W18887  27.033  14.230   4.741
57357W        W18888  22.502   2.259  14.374
57358W        W18889   1.736  30.416   3.710
57359W        W18890  35.051  16.616  10.152
57360W        W18891  34.541  21.110   0.350
57361W        W18892  39.019  38.374   4.139
57362W        W18893  42.928  23.626   2.727
57363W        W18894  12.771  44.993   1.235
57364W        W18895   5.799  22.535   2.259
57365W        W18896  43.947   1.894  12.509
57366W        W18897  22.161  40.322   1.736
57367W        W18898   8.696  17.694  13.358
57368W        W18899  35.455  43.468   2.839
57369W        W18900   0.258  35.936  13.476
57370W        W18901  43.487  33.617  13.547
57371W        W18902   0.816  34.029  11.115
57372W        W18903  28.062  41.303   0.933
57373W        W18904  21.230   1.433  14.984
57374W        W18905  23.596   2.922  14.366
57375W        W18906   7.831  44.419  10.491
57376W        W18907   5.308  23.124  13.054
57377W        W18908  36.040  15.304   0.902
57378W        W18909  41.791  44.263  13.871
57379W        W18910  20.237   3.734   1.720
57380W        W18911   8.870   8.875  13.930
57381W        W18912   9.707  18.762  14.390
57382W        W18913  28.097  19.199   1.762
57383W        W18914  36.535   7.287   3.274
57384W        W18915  25.711  34.017  14.437
57385W        W18916  44.833  16.186   4.822
57386W        W18917  34.966  14.339   2.779
57387W        W18918  10.351  31.443   2.673
57388W        W18919  42.502   0.974   4.800
57389W        W18920  39.064   7.812   1.841
57390W        W18921  11.838  29.044   1.756
57391W        W18922   8.350  14.796   3.261
57392W        W18923  39.984  43.286  11.865
57393W        W18924  35.458  18.199  14.280
57394W        W18925  18.774  29.535   0.804
57395W        W18926  12.844  33.098  14.904
57396W        W18927  31.612   9.159  12.892
57397W        W18928  13.127  31.058   0.877
57398W        W18929  23.162  37.373  13.385
57399W        W18930  12.803  40.839   4.234
57400W        W18931  24.983  42.344   4.799
57401W        W18932  16.712  27.533   4.645
57402W        W18933  10.807  14.305   4.702
57403W        W18934  29.641  40.484   4.680
57404W        W18935  10.336   0.929  14.489
57405W        W18936  40.331  14.154  12.832
57406W        W18937  22.527  34.514   3.199
57407W        W18938   4.229   5.433   1.218
57408W        W18939  35.368   4.283  12.997
57409W        W18940  26.147  30.440  14.329
57410W        W18941   3.924  22.664  13.996
57411W        W18942  39.387  12.351   0.382
57412W        W18943  29.003  33.876   2.316
57413W        W18944  23.655  12.636  12.013
57414W        W18945  35.520  18.737   0.338
57415W        W18946  23.675  29.008  14.821
57416W        W18947  22.078  25.603  12.443
57417W        W18948  12.692  42.798   4.354
57418W        W18949   1.344  37.047  14.780
57419W        W18950  39.399  10.838  14.015
57420W        W18951  42.281   3.305  12.854
57421W        W18952  25.712  29.451  11.876
57422W        W18953   3.365  43.413  11.882
57423W        W18954   3.435   9.800   0.795
57424W        W18955   5.781  15.315   3.361
57425W        W18956  18.131  17.558  13.357
57426W        W18957   4.418  18.694  12.365
57427W        W18958   3.229  27.974   1.218
57428W        W18959  27.969  43.826   0.386
57429W        W18960  37.063   9.249   3.761
57430W        W18961  29.656  37.025  10.557
57431W        W18962  31.617   6.753  11.501
57432W        W18963  37.052  11.190   0.411
57433W        W18964  19.776  18.248  11.600
57434W        W18965  36.441  31.002   0.342
57435W        W18966  10.879   5.901   1.212
57436W        W18967  36.090  22.121   3.850
57437W        W18968  26.109  32.527  13.822
57438W        W18969  17.667   5.227   2.859
57439W        W18970  10.655   9.234  13.045
57440W        W18971   3.284  12.358  14.430
57441W        W18972  13.817   4.430  12.903
57442W        W18973  18.625  38.562   4.324
57443W        W18974  36.018  23.124   0.302
57444W        W18975  16.174  17.126   1.877
57445W        W18976   8.259  14.192  12.876
57446W        W18977  17.136  17.074  14.939
57447W        W18978  35.047  35.564  14.888
57448W        W18979  22.014  34.923   2.862
57449W        W18980  31.936  27.672  12.835
57450W        W18981  39.431  39.816  14.770
57451W        W18982  33.445  12.138   1.862
57452W        W18983  36.932   9.843  13.310
57453W        W18984  24.993  25.575   0.346
57454W        W18985  43.481  25.047  10.006
57455W        W18986  18.711  29.117   2.724
57456W        W18987   5.737   9.360   1.912
57457W        W18988  42.942   5.212   3.830
57458W        W18989  13.712  32.972   4.321
57459W        W18990  17.664  26.178   4.264
57460W        W18991  38.509  20.597  12.553
57461W        W18992   1.776  40.039  14.964
57462W        W18993  36.071  18.107  13.999
57463W        W18994  43.791  43.320   0.757
57464W        W18995  22.674   6.701  12.508
57465W        W18996   2.353  28.502   0.903
57466W        W18997  38.947  39.383  10.962
57467W        W18998  21.027   8.804  14.419
57468W        W18999  17.234   7.339  10.151
57469W        W19000  13.730  40.898   4.253
57470W        W19001   9.836  12.180   4.183
57471W        W19002  23.177   5.822  14.329
57472W        W19003  37.995  44.306   4.128
57473W        W19004  21.625   2.729  13.865
57474W        W19005   4.418  40.935  11.900
57475W        W19006  26.956  24.689  12.991
57476W        W19007  16.209  19.712  10.586
57477W        W19008  22.618  42.800   3.822
57478W        W19009  31.930  43.012  13.988
57479W        W19010  25.071  39.500   0.869
57480W        W19011  39.914  20.740  11.075
57481W        W19012   8.693  43.299  12.864
57482W        W19013  39.358  25.674   0.794
57483W        W19014  19.744  33.435   4.311
57484W        W19015  34.543  24.205  14.433
57485W        W19016  10.691  44.919  14.015
57486W        W19017  15.782   5.839  14.467
57487W        W19018   9.316   5.339  12.384
57488W        W19019  18.609  10.648  10.428
57489W        W19020   6.380  21.584   4.176
57490W        W19021  39.904  24.519  14.850
57491W        W19022  14.213  33.548  12.059
57492W        W19023  42.503  13.262   1.310
57493W        W19024  27.549   7.840  13.950
57494W        W19025  32.515  17.623  11.491
57495W        W19026  37.452  15.662  14.808
57496W        W19027   6.870  32.432   0.806
57497W        W19028  24.136  22.744   2.758
57498W        W19029  15.658  32.085  10.922
57499W        W19030  11.297   2.810  12.994
57500W        W19031   5.316   4.712   4.317
57501W        W19032   7.245  10.826  14.930
57502W        W19033   8.814  38.923   2.299
57503W        W19034  21.735  30.642   2.210
57504W        W19035   6.749  35.047  14.451
57505W        W19036  37.877  28.504   1.928
57506W        W19037  18.774   7.349   0.272
57507W        W19038  26.105  33.024   1.395
57508W        W19039  24.982  12.719  14.852
57509W        W19040  29.075  11.340   1.242
57510W        W19041  12.698  25.134  13.804
57511W        W19042  31.497  25.991  11.434
57512W        W19043  41.388  15.638   4.267
57513W        W19044   4.803  17.659  11.485
57514W        W19045  20.529   3.806  13.951
57515W        W19046  11.776  19.167  10.499
57516W        W19047   7.208  32.471  14.446
57517W        W19048   9.674  13.778  12.943
57518W        W19049  37.841  14.164   1.414
57519W        W19050  31.516  10.297   0.457
57520W        W19051  38.377   4.931  11.056
57521W        W19052  30.577  32.969   2.810
57522W        W19053   8.773   7.876   4.816
57523W        W19054  17.597  24.154  10.987
57524W        W19055   8.247  36.568   0.438
57525W        W19056  38.934  30.628   1.819
57526W        W19057  34.484  26.693  10.590
57527W        W19058  20.111   5.693  10.634
57528W        W19059  28.967   2.427  12.578
57529W        W19060  10.758  17.673  10.894
57530W        W19061  38.535  39.439  11.558
57531W        W19062  25.977  19.241  13.430
57532W        W19063  39.364  35.521   0.743
57533W        W19064  31.128   1.366  11.603
57534W        W19065  17.652  41.451   2.745
57535W        W19066  23.546   3.238  14.861
57536W        W19067  29.476  39.021   2.794
57537W        W19068  22.138  25.074  14.772
57538W        W19069  44.826  41.370  13.052
57539W        W19070  28.936  13.674   4.189
57540W        W19071  27.138  27.187  10.921
57541W        W19072  36.559  33.011   1.896
57542W        W19073   2.928  11.668   0.783
57543W        W19074   2.928  37.547   3.782
57544W        W19075  37.955  14.688  11.972
57545W        W19076  37.498  29.642   4.809
57546W        W19077  20.763  26.133  14.495
57547W        W19078   3.909   8.160  11.921
57548W        W19079  24.061  39.889   1.364
57549W        W19080   3.840  34.060   1.825
57550W        W19081  31.014   9.225  12.094
57551W        W19082  44.776  24.980  13.977
57552W        W19083  24.636  43.478   1.357
57553W        W19084   4.923  41.857  11.947
57554W        W19085  43.460  19.083  13.349
57555W        W19086  16.318  32.619   3.236
57556W        W19087  33.409  38.521  14.007
57557W        W19088  20.033  16.699  11.486
57558W        W19089  36.032  16.695  11.856
57559W        W19090  27.177  20.103   3.706
57560W        W19091  25.220   5.211   0.252
57561W        W19092  32.545  44.358   1.403
57562W        W19093  21.587  26.559  12.916
57563W        W19094  19.563  35.377   0.866
57564W        W19095   0.353  22.591  11.525
57565W        W19096  35.416  22.058   4.208
57566W        W19097  21.141  41.455  11.963
57567W        W19098   1.776  16.317  13.332
57568W        W19099   0.866   9.237   0.443
57569W        W19100  42.357   7.784   2.718
57570W        W19101   7.359  43.273  11.448
57571W        W19102  14.670  16.620   1.246
57572W        W19103  29.616  31.014  11.992
57573W        W19104  12.825  13.701  11.968
57574W        W19105  44.837   7.240  10.973
57575W        W19106  39.945  22.014  11.510
57576W        W19107  36.353  30.045   0.443
57577W        W19108  23.072   0.866  10.621
57578W        W19109  22.576  13.290  13.924
57579W        W19110  30.001  12.362   5.635
57580W        W19111  27.146  29.512   1.306
57581W        W19112  36.925   1.898   2.329
57582W        W19113  14.672   2.389  11.987
57583W        W19114  18.085  29.492   4.297
57584W        W19115  35.928  13.228  11.073
57585W        W19116  44.962   4.213   3.173
57586W        W19117  29.972  16.124   4.239
57587W        W19118  33.966  20.217   3.767
57588W        W19119   9.301  39.428  11.425
57589W        W19120  43.781  19.661   3.755
57590W        W19121  30.439   7.782  13.366
57591W        W19122  39.953  10.632  12.910
57592W        W19123  23.495  43.902  12.525
57593W        W19124  28.635   8.396  11.517
57594W        W19125  28.114   4.366  12.497
57595W        W19126  31.949  17.254  13.983
57596W        W19127  17.067  17.574  11.081
57597W        W19128   3.813  42.848   4.738
57598W        W19129   3.332  28.520  10.644
57599W        W19130  37.936   7.272  12.431
57600W        W19131  25.124  12.347  13.010
57601W        W19132  14.108   8.827  13.008
57602W        W19133  23.120   9.711   3.787
57603W        W19134  42.861  30.984  10.631
57604W        W19135  24.025   2.434  13.902
57605W        W19136  12.258  41.977  14.301
57606W        W19137  14.203  15.129  13.826
57607W        W19138  19.136  40.549   4.697
57608W        W19139  28.667  40.412  14.292
57609W        W19140   2.282  28.485  13.052
57610W        W19141  42.368   4.755   1.422
57611W        W19142  42.297  15.749  14.323
57612W        W19143  39.535   8.177  14.880
57613W        W19144  38.448  42.311   4.685
57614W        W19145  29.076  25.063   1.714
57615W        W19146  21.158  31.001  13.545
57616W        W19147  27.464  37.966   3.364
57617W        W19148  32.589  26.687  10.526
57618W        W19149  27.542   9.339   0.729
57619W        W19150  25.545   7.737   4.764
57620W        W19151   9.344  18.288  11.578
57621W        W19152  22.132  38.822  14.012
57622W        W19153  43.784  11.799  13.352
57623W        W19154  36.923   4.343   0.267
57624W        W19155  41.528  20.128   2.827
57625W        W19156  22.205   6.725   0.474
57626W        W19157   7.401  25.029   3.637
57627W        W19158  30.573  11.330   2.372
57628W        W19159  40.545  26.656  13.378
57629W        W19160  43.330   2.319   3.358
57630W        W19161  36.888   1.876   0.333
57631W        W19162  14.784  22.239   0.809
57632W        W19163  12.651  29.527   3.154
57633W        W19164  36.429  40.929   2.295
57634W        W19165  38.398   8.861  14.929
57635W        W19166  17.216  20.602  11.996
57636W        W19167  38.421  31.533   0.792
57637W        W19168  38.926  28.144   2.687
57638W        W19169  39.345   6.183  11.122
57639W        W19170  39.316   8.196   3.839
57640W        W19171   1.476  30.468   3.829
57641W        W19172  17.712   5.198  13.055
57642W        W19173  10.283  40.356  11.463
57643W        W19174   7.376  31.540   3.170
57644W        W19175  13.316  38.423   1.284
57645W        W19176  22.617  15.232   3.317
57646W        W19177   9.818   3.340  14.382
57647W        W19178   6.874  42.444  12.540
57648W        W19179   1.436   8.847  11.558
57649W        W19180  35.539  17.244   4.837
57650W        W19181   0.439  36.984  12.834
57651W        W19182   6.766   3.839  12.533
57652W        W19183  23.689  13.755  12.061
57653W        W19184  40.863   8.833  13.809
57654W        W19185  43.368  26.031  12.830
57655W        W19186   9.877  28.086   2.263
57656W        W19187  42.471  17.695   0.436
57657W        W19188  31.436   0.956   4.660
57658W        W19189   0.914  28.679   0.416
57659W        W19190  44.316  12.675   5.274
57660W        W19191   8.654  40.984  14.952
57661W        W19192   5.203   0.768  11.588
57662W        W19193  32.614   8.774   5.172
57663W        W19194   8.324  31.048  10.499
57664W        W19195  38.009  43.962  12.825
57665W        W19196  27.558  44.806  12.019
57666W        W19197  15.678  23.008   4.714
57667W        W19198   5.728  43.337   2.408
57668W        W19199  22.159   5.891  14.460
57669W        W19200  21.041   6.747  14.339
57670W        W19201  43.468  38.398   4.123
57671W        W19202  44.361  38.842   2.403
57672W        W19203  40.512  44.778   2.209
57673W        W19204  36.984  37.372   1.354
57674W        W19205   9.844  22.649  11.532
57675W        W19206  24.663  25.490  13.995
57676W        W19207  29.547  40.308  13.049
57677W        W19208   0.941   9.214  10.456
57678W        W19209  32.907  32.073  13.825
57679W        W19210  27.020  15.085   2.363
57680W        W19211  12.793   2.349   0.844
57681W        W19212  44.413   0.263  12.516
57682W        W19213  34.999  21.666  10.488
57683W        W19214  10.683  39.508  11.375
57684W        W19215  27.165  20.618   1.917
57685W        W19216  43.012  10.383  10.627
57686W        W19217  27.161  36.547   0.759
57687W        W19218  43.375  18.644   4.641
57688W        W19219  40.859  38.956  13.915
57689W        W19220  13.643  24.696  11.433
57690W        W19221  30.938  23.710   4.336
57691W        W19222   2.375  23.057  14.387
57692W        W19223  27.479  44.796   4.340
57693W        W19224  10.227  34.428   3.831
57694W        W19225  32.527  34.032   4.622
57695W        W19226  30.488  22.059   2.792
57696W        W19227   4.736  41.959  12.560
57697W        W19228  28.609  20.203  13.326
57698W        W19229  27.033  36.587  11.856
57699W        W19230   1.757  22.068  11.015
57700W        W19231   4.889  21.203   2.209
57701W        W19232  15.713  44.294  10.917
57702W        W19233   3.713  40.012  12.398
57703W        W19234  42.511   3.889  10.406
57704W        W19235  27.571  11.848   3.270
57705W        W19236   1.958   0.844  12.356
57706W        W19237  19.264   3.454   4.212
57707W        W19238   9.813  18.223   2.883
57708W        W19239  41.904   0.423   1.813
57709W        W19240  27.609  38.851   2.401
57710W        W19241  23.516  39.060   3.827
57711W        W19242  44.350   2.441  12.988
57712W        W19243  19.121  15.705  11.428
57713W        W19244  24.117  28.545  12.894
57714W        W19245  26.655   5.311  10.415
57715W        W19246  39.892  42.917  11.596
57716W        W19247  16.297  23.039   1.414
57717W        W19248   1.867  33.611  14.837
57718W        W19249   5.419  31.637   0.774
57719W        W19250   2.322  14.325  11.025
57720W        W19251  27.523   5.801   2.338
57721W        W19252  40.865  32.506   1.743
57722W        W19253  37.866   2.260   1.415
57723W        W19254  22.536  39.911   1.282
57724W        W19255  16.591  38.850  14.819
57725W        W19256  33.117  23.490  10.412
57726W        W19257  15.590  23.242  10.595
57727W        W19258  15.765  26.097   3.164
57728W        W19259  36.002  31.965   9.952
57729W        W19260  18.550  30.983  12.963
57730W        W19261  40.954  24.168   3.196
57731W        W19262  43.460  40.054   1.839
57732W        W19263   2.825  22.552   5.101
57733W        W19264  41.294  23.219  12.977
57734W        W19265  12.124  42.998  12.868
57735W        W19266  44.343  32.554   1.744
57736W        W19267  37.408  44.834   4.607
57737W        W19268  36.494  32.907   0.891
57738W        W19269   8.746   7.378  12.077
57739W        W19270   7.693  33.595  12.533
57740W        W19271  16.694  12.792   2.850
57741W        W19272   0.989  21.067  12.992
57742W        W19273  26.546  12.655  13.360
57743W        W19274  30.056  10.700  14.501
57744W        W19275  30.936   5.341  14.781
57745W        W19276  25.153  14.167   4.225
57746W        W19277  20.197  41.446  12.921
57747W        W19278  31.638  26.669  11.937
57748W        W19279  43.383  27.079   2.290
57749W        W19280  24.662   6.397  13.933
57750W        W19281  11.239  34.941   1.413
57751W        W19282  13.187  11.748   4.134
57752W        W19283  28.463  43.900   0.925
57753W        W19284  12.177   1.941  13.398
57754W        W19285  28.184  43.789  12.070
57755W        W19286  40.306  14.772  11.938
57756W        W19287  25.712  11.754   0.463
57757W        W19288  25.069  12.611  11.431
57758W        W19289  17.728   7.820   0.780
57759W        W19290  30.964  21.592  12.419
57760W        W19291  30.136   0.421   3.687
57761W        W19292   0.338  31.606   4.691
57762W        W19293  21.141  25.544  12.873
57763W        W19294  17.686  12.840  14.435
57764W        W19295  31.623  42.312   3.215
57765W        W19296   2.274  28.144   4.336
57766W        W19297  42.786  34.000   4.306
57767W        W19298  21.077   1.476  11.421
57768W        W19299  22.090  24.022  11.513
57769W        W19300  27.500  29.519  12.896
57770W        W19301  10.312   1.881   4.687
57771W        W19302  27.099  41.029   3.724
57772W        W19303   4.740  30.111   2.281
57773W        W19304  26.194  17.159  10.570
57774W        W19305  37.946  20.553   1.312
57775W        W19306  32.590  17.145  13.975
57776W        W19307  18.784  14.253   1.237
57777W        W19308  12.699  28.066   4.305
57778W        W19309   7.214  43.390   4.339
57779W        W19310  24.521  23.702   4.333
57780W        W19311  37.467  35.477  12.567
57781W        W19312  24.991  11.301   1.353
57782W        W19313  16.318  27.581   1.749
57783W        W19314  29.025  44.806  13.424
57784W        W19315  24.974  32.041   9.961
57785W        W19316  33.091   8.303  13.474
57786W        W19317  16.251  15.799  13.417
57787W        W19318  38.395  20.121  14.871
57788W        W19319  24.004   0.807   1.930
57789W        W19320  14.739  37.056   0.300
57790W        W19321  29.036  24.721  14.479
57791W        W19322  33.490  13.792   1.245
57792W        W19323  11.638  23.202   1.887
57793W        W19324  22.010  20.163   0.730
57794W        W19325  13.687  19.601   0.455
57795W        W19326  23.131  19.218   0.929
57796W        W19327  13.331  24.638  13.364
57797W        W19328  28.001  19.251   1.379
57798W        W19329  10.773  43.953   2.726
57799W        W19330  36.026  21.214   1.754
57800W        W19331  27.136   8.709  11.995
57801W        W19332  12.618   5.371  12.443
57802W        W19333  23.591  32.918   0.285
57803W        W19334   9.826   1.273  12.474
57804W        W19335  42.865   8.230   2.816
57805W        W19336  31.141  27.135   4.827
57806W        W19337  36.021   6.240  11.513
57807W        W19338  40.807  40.342   2.844
57808W        W19339  26.994  14.642  13.517
57809W        W19340  41.391  40.000  13.438
57810W        W19341  10.764   4.887   1.260
57811W        W19342  29.071  44.450  11.936
57812W        W19343  38.551  29.033   1.765
57813W        W19344  43.912  23.716   3.338
57814W        W19345  29.038  16.250   1.447
57815W        W19346  26.691   1.944   2.741
57816W        W19347  41.910  20.089   4.279
57817W        W19348   7.851  28.014  13.314
57818W        W19349  32.939  35.096   0.739
57819W        W19350  26.536  35.035   0.753
57820W        W19351   6.861  24.109   3.777
57821W        W19352  11.264   0.948   5.763
57822W        W19353  30.535  37.534   2.787
57823W        W19354  33.934  40.503   4.284
57824W        W19355   3.755  26.977  11.433
57825W        W19356  19.670   0.964  12.853
57826W        W19357  42.401  15.752  10.413
57827W        W19358   2.372  11.343  13.314
57828W        W19359  36.904  18.069   2.787
57829W        W19360  34.101   3.865   0.265
57830W        W19361  19.064  44.944  12.429
57831W        W19362  18.060  13.679   4.748
57832W        W19363  20.625  42.479  12.056
57833W        W19364  40.942  38.428   2.413
57834W        W19365  33.540  24.552   4.316
57835W        W19366  26.165   7.174  10.950
57836W        W19367   2.919  17.780   3.341
57837W        W19368  33.942  37.854   0.274
57838W        W19369  24.527  44.376   2.381
57839W        W19370  23.184  12.172  14.857
57840W        W19371  36.498   5.794   2.795
57841W        W19372   2.340  11.801   5.251
57842W        W19373  28.678  21.653   3.851
57843W        W19374   8.253  39.346  12.929
57844W        W19375  25.052  25.119  14.975
57845W        W19376  29.496  25.529  13.901
57846W        W19377  20.184  31.149  12.833
57847W        W19378   3.417  19.678   0.895
57848W        W19379  15.656  20.593  13.489
57849W        W19380   3.795  30.611  10.949
57850W        W19381  32.556  39.864   0.326
57851W        W19382  44.984  34.992  14.463
57852W        W19383  33.450  34.474  11.983
57853W        W19384  13.157  30.487  12.513
57854W        W19385  25.971  15.709  13.342
57855W        W19386  31.057   6.812  11.446
57856W        W19387   4.718  23.635  11.091
57857W        W19388  22.212  37.977   3.194
57858W        W19389  14.224  20.089   1.858
57859W        W19390  22.682  29.580   2.763
57860W        W19391  38.054  10.739  13.463
57861W        W19392  40.843   4.943  12.079
57862W        W19393  27.485  36.090  12.916
57863W        W19394   5.258  42.327  11.435
57864W        W19395  39.834  26.966   3.718
57865W        W19396   2.343  11.365   0.894
57866W        W19397   3.942   4.894   0.958
57867W        W19398  17.644  25.187   3.245
57868W        W19399  11.651   0.873  12.887
57869W        W19400  35.019  22.180   0.452
57870W        W19401   5.720  30.091  10.902
57871W        W19402   0.373  32.939   0.773
57872W        W19403  41.858  43.469  13.010
57873W        W19404  28.674   6.829  13.999
57874W        W19405  12.773   2.817  10.024
57875W        W19406  30.530  30.089  12.385
57876W        W19407  28.011  28.996  12.082
57877W        W19408  30.451  22.641  10.527
57878W        W19409  44.419  31.483  13.937
57879W        W19410  15.156  14.333  14.960
57880W        W19411   2.366   3.281   0.800
57881W        W19412  40.938  44.962   3.662
57882W        W19413  14.306   6.354  13.536
57883W        W19414   4.747  20.162   4.832
57884W        W19415  22.142  25.661  10.554
57885W        W19416  14.815  11.776  12.086
57886W        W19417  37.373  33.568   2.361
57887W        W19418  18.257  36.886  13.979
57888W        W19419  36.414  11.708  13.965
57889W        W19420  30.074  16.724  12.019
57890W        W19421  35.988  20.644  13.990
57891W        W19422   6.762  33.966   2.326
57892W        W19423  17.642  34.045   3.186
57893W        W19424  23.721  32.437  12.856
57894W        W19425  40.379  16.671   2.272
57895W        W19426   2.416   9.194   1.383
57896W        W19427  17.127  18.705   2.248
57897W        W19428  22.124   2.900   3.283
57898W        W19429  11.344  21.653   4.190
57899W        W19430  15.606  12.851   0.940
57900W        W19431  34.042   1.929   0.458
57901W        W19432  10.654   1.268   3.261
57902W        W19433  31.947  30.920  10.405
57903W        W19434  25.054   3.763   0.836
57904W        W19435   2.405  35.057   3.699
57905W        W19436  39.476  21.048  11.448
57906W        W19437  28.114  24.198  12.093
57907W        W19438  44.859  38.500   0.957
57908W        W19439  24.683  38.492  12.917
57909W        W19440  24.150   8.232  13.933
57910W        W19441  23.176  28.674  13.901
57911W        W19442  15.238   8.368   4.706
57912W        W19443  43.372   8.176  11.410
57913W        W19444  23.630   4.877   3.257
57914W        W19445   0.434  38.363   1.857
57915W        W19446  18.080  21.128  13.005
57916W        W19447  18.288  35.562   4.606
57917W        W19448  12.833  29.954   5.082
57918W        W19449  24.006   5.861   4.732
57919W        W19450   8.858   3.865  11.042
57920W        W19451  26.687  20.200   2.838
57921W        W19452  28.073  44.931   4.795
57922W        W19453  44.845  37.935  13.402
57923W        W19454  10.260  25.159  11.887
57924W        W19455   2.357   5.750  11.549
57925W        W19456  40.360  29.094   0.282
57926W        W19457   4.735  26.162   0.742
57927W        W19458  10.223  13.748   1.365
57928W        W19459  20.615   0.773   1.699
57929W        W19460   4.739   1.946  12.962
57930W        W19461   5.256   8.380  11.889
57931W        W19462  20.733  18.063   2.218
57932W        W19463  13.721  16.249   3.793
57933W        W19464  13.191  16.274   0.928
57934W        W19465  33.591  40.966  11.559
57935W        W19466  32.927  28.494  14.349
57936W        W19467  22.688  29.559   3.853
57937W        W19468  35.568   0.910  12.032
57938W        W19469  30.915  18.624  12.522
57939W        W19470  19.069  34.412  11.551
57940W        W19471  41.391  27.690   3.274
57941W        W19472   1.960   9.160   4.272
57942W        W19473  33.062  37.072   3.646
57943W        W19474  14.635  14.113  11.405
57944W        W19475   7.381   4.876   2.673
57945W        W19476  36.552  14.740  11.969
57946W        W19477  12.850  41.914   2.716
57947W        W19478  13.192  19.559  11.434
57948W        W19479  44.986  32.920  13.485
57949W        W19480  21.584  29.013   3.291
57950W        W19481  44.440  32.937   1.354
57951W        W19482  29.459  15.653  12.832
57952W        W19483  15.268  31.431   3.641
57953W        W19484   2.775   0.253  12.929
57954W        W19485  18.735  10.701  13.959
57955W        W19486  31.628  40.403   0.869
57956W        W19487  27.628  38.517   4.688
57957W        W19488  30.101  20.081  13.384
57958W        W19489   8.354   3.391   2.710
57959W        W19490  39.433  18.206   1.254
57960W        W19491  39.332   5.866  14.365
57961W        W19492  22.619  26.208   3.291
57962W        W19493  28.586  26.474   2.778
57963W        W19494   7.264   1.851  13.836
57964W        W19495  40.037  31.148  13.441
57965W        W19496  24.051  30.433   0.311
57966W        W19497  40.493  39.995  13.534
57967W        W19498  20.155  13.840  11.965
57968W        W19499  10.781  29.079  11.505
57969W        W19500  26.527  22.736   5.307
57970W        W19501  19.193  24.056   1.224
57971W        W19502  35.004  13.767  10.948
57972W        W19503   4.318   7.337   3.213
57973W        W19504  44.265  11.845  10.013
57974W        W19505  44.800  31.482  13.463
57975W        W19506  34.406  43.868  12.467
57976W        W19507  10.273  12.322  11.051
57977W        W19508   0.298  31.575  10.491
57978W        W19509   1.320  25.662  11.490
57979W        W19510  20.102   4.911   1.715
57980W        W19511  14.154  41.917   2.903
57981W        W19512  29.931  30.128  12.533
57982W        W19513  39.898  13.764  13.519
57983W        W19514   9.831  26.487   1.381
57984W        W19515  41.463  24.482   4.664
57985W        W19516  33.516   6.333  11.990
57986W        W19517  15.639  13.120   2.711
57987W        W19518  24.134  28.630   2.706
57988W        W19519  37.941  25.480  12.986
57989W        W19520  29.114   4.303   1.325
57990W        W19521  10.692   8.220   1.795
57991W        W19522  10.754  31.591  13.995
57992W        W19523  13.841  21.521  11.520
57993W        W19524   5.255  17.305  12.427
57994W        W19525   2.844   0.899  12.880
57995W        W19526  36.535  44.281  13.526
57996W        W19527  19.068  20.054   3.708
57997W        W19528  24.723   1.914   1.286
57998W        W19529  27.076  25.074   1.884
57999W        W19530  29.138  18.778   1.922
58000W        W19531  15.102  44.461   4.796
58001W        W19532  25.010   8.326  10.612
58002W        W19533   8.832  10.826   3.849
58003W        W19534  42.387   8.847   4.292
58004W        W19535  24.631  13.263  10.628
58005W        W19536  13.703  22.557  13.420
58006W        W19537  31.919  30.017  10.608
58007W        W19538  31.642  35.510  13.413
58008W        W19539  15.274  25.704  11.512
58009W        W19540  20.076  19.548   2.320
58010W        W19541  23.563   3.772   3.816
58011W        W19542  26.993  11.829  12.003
58012W        W19543  27.654  17.279  14.953
58013W        W19544   9.855  28.944  12.826
58014W        W19545  27.606  34.519   2.209
58015W        W19546  27.099  33.392  13.051
58016W        W19547  33.902  30.022   3.783
58017W        W19548  20.535  34.443   3.799
58018W        W19549  15.230   1.451   4.215
58019W        W19550  25.198  21.594   4.725
58020W        W19551  22.033   7.255  12.421
58021W        W19552  43.809  38.061  14.491
58022W        W19553  27.598   2.303  12.565
58023W        W19554  36.039  16.677   3.372
58024W        W19555  19.628   5.908   0.933
58025W        W19556   1.449  20.064   1.414
58026W        W19557  20.547  36.464   3.679
58027W        W19558   4.857  38.921  10.628
58028W        W19559  14.738  20.034   2.225
58029W        W19560  24.664  29.507   2.263
58030W        W19561  35.876  32.930  13.936
58031W        W19562  29.089   8.851  14.924
58032W        W19563  41.455  44.759   3.659
58033W        W19564  35.475  36.942   2.241
58034W        W19565  32.499   3.372  14.937
58035W        W19566  22.033  12.247  12.946
58036W        W19567  31.606  31.988  14.407
58037W        W19568  17.202  38.558   3.651
58038W        W19569  27.112   9.316  11.528
58039W        W19570   9.188  34.952   2.854
58040W        W19571  15.772  34.539  12.860
58041W        W19572   8.238   9.685  13.479
58042W        W19573  38.456  39.940  11.497
58043W        W19574  13.843  21.204   2.187
58044W        W19575  40.476  17.122   3.658
58045W        W19576  41.372   4.819  11.862
58046W        W19577  43.778  27.474   4.632
58047W        W19578   8.165  14.253   2.286
58048W        W19579  34.429  25.609   2.311
58049W        W19580  18.117  37.910   4.756
58050W        W19581  37.537  27.685  14.401
58051W        W19582  44.490  14.678  12.990
58052W        W19583   1.821  16.213   0.320
58053W        W19584  14.664  38.860  12.420
58054W        W19585   0.442  44.781  12.548
58055W        W19586  36.017  13.839   9.442
58056W        W19587   8.183   5.746   3.298
58057W        W19588  44.817  39.403  14.376
58058W        W19589  43.447  13.629   3.753
58059W        W19590  37.840  42.906  14.771
58060W        W19591  23.158  30.094   1.697
58061W        W19592  34.466  26.001   4.192
58062W        W19593  17.761  31.038   0.834
58063W        W19594  27.035  14.808   3.246
58064W        W19595  36.968   0.453   3.789
58065W        W19596  32.462  37.514   2.193
58066W        W19597  17.608   3.327   0.256
58067W        W19598  19.110  10.695   3.741
58068W        W19599   7.403  10.320  12.056
58069W        W19600  12.732  31.078  12.091
58070W        W19601  19.571  17.250   3.671
58071W        W19602  20.236  29.086   3.737
58072W        W19603  20.208  28.577  10.528
58073W        W19604  35.434  38.347   3.732
58074W        W19605  19.202  33.912  14.402
58075W        W19606  21.181  17.756  13.915
58076W        W19607  30.509   3.293  13.517
58077W        W19608   7.221  17.716  14.819
58078W        W19609  41.412  20.675  11.129
58079W        W19610   3.922  24.683  13.952
58080W        W19611  44.423  26.534   2.178
58081W        W19612  23.613   6.768  11.885
58082W        W19613   3.946  28.037   3.747
58083W        W19614   4.386  41.531  13.524
58084W        W19615  21.745  12.800   1.835
58085W        W19616  21.073  43.380   1.213
58086W        W19617  38.566   7.671  14.355
58087W        W19618  12.312   0.925   1.896
58088W        W19619  22.137  33.490  14.934
58089W        W19620  10.145  34.448  13.050
58090W        W19621  39.356  44.392  14.838
58091W        W19622  32.109  32.966   4.340
58092W        W19623  39.905  11.257  10.508
58093W        W19624  24.111  31.527  10.489
58094W        W19625  44.769  18.135  13.866
58095W        W19626  20.726  25.054  12.571
58096W        W19627  21.624  26.598  12.515
58097W        W19628  23.098  38.418   2.220
58098W        W19629  34.910  23.584   0.842
58099W        W19630  39.993   6.424  14.888
58100W        W19631  24.661   0.256   3.689
58101W        W19632   9.231  36.574   4.302
58102W        W19633   7.258  25.219   5.273
58103W        W19634  30.537  12.840   4.632
58104W        W19635   8.254  16.584  12.008
58105W        W19636  35.584  14.107  10.519
58106W        W19637  33.975  42.896  12.522
58107W        W19638   0.406  18.728  12.842
58108W        W19639  44.857  24.580   4.171
58109W        W19640   7.882  17.291   9.937
58110W        W19641   6.715  17.790  10.938
58111W        W19642  42.385   0.887  10.588
58112W        W19643  27.166  43.927   1.711
58113W        W19644   9.245  12.343  11.434
58114W        W19645  31.444  42.346   3.795
58115W        W19646   6.406  11.696  12.471
58116W        W19647   2.399  25.629  13.399
58117W        W19648  41.017   5.879  14.956
58118W        W19649   4.840   8.215   3.813
58119W        W19650  26.558  14.115   0.367
58120W        W19651  41.473  34.888   4.748
58121W        W19652  44.267  42.900  13.997
58122W        W19653   8.215  43.950  14.988
58123W        W19654  14.236   3.342  14.919
58124W        W19655   1.433  17.300   0.291
58125W        W19656  41.524  44.318  12.457
58126W        W19657   3.455  17.278  13.817
58127W        W19658   6.722  28.965  12.022
58128W        W19659  32.142   3.952  13.981
58129W        W19660  38.971  32.472  12.039
58130W        W19661   6.785   3.903   4.329
58131W        W19662  34.077  31.614   2.780
58132W        W19663  19.749   3.426   4.184
58133W        W19664  15.735  18.737  12.415
58134W        W19665  24.125   0.925  14.444
58135W        W19666   1.786  19.687   2.212
58136W        W19667  14.744  18.687   4.794
58137W        W19668  19.164   8.166  12.980
58138W        W19669   3.427  24.154   3.288
58139W        W19670  24.486  34.109  13.966
58140W        W19671  29.112   2.789   1.413
58141W        W19672  31.507   9.848   2.789
58142W        W19673  43.406  36.992  11.433
58143W        W19674  24.518  28.975  11.855
58144W        W19675  23.130  40.977  12.872
58145W        W19676  42.478  42.498  14.388
58146W        W19677  31.001  11.643   2.675
58147W        W19678  24.644  17.673  12.975
58148W        W19679  36.949  27.198   2.408
58149W        W19680  29.428  41.830   1.869
58150W        W19681  21.025  17.222   1.748
58151W        W19682  33.422  15.232  14.010
58152W        W19683  43.378  43.301   0.313
58153W        W19684   7.845   0.375   0.394
58154W        W19685  37.080  21.733  11.549
58155W        W19686  35.991   3.440   1.750
58156W        W19687  34.549  30.574   4.801
58157W        W19688  40.966   7.404  14.351
58158W        W19689  36.499  34.870   4.702
58159W        W19690   9.668  20.123  11.860
58160W        W19691  36.010  20.740  12.888
58161W        W19692   7.189  11.239  13.482
58162W        W19693  16.289  38.526   3.334
58163W        W19694  13.323   1.869  12.015
58164W        W19695  11.775  22.676  13.441
58165W        W19696  10.654  18.760  12.400
58166W        W19697  25.652   7.260   3.762
58167W        W19698  33.506  34.428   1.785
58168W        W19699  24.611  43.840  10.612
58169W        W19700  19.709   9.735   4.118
58170W        W19701  14.268  29.647  11.999
58171W        W19702  13.657  23.105   3.657
58172W        W19703   6.333  20.272   0.358
58173W        W19704  24.157  37.848   1.274
58174W        W19705  40.390  12.760   3.769
58175W        W19706   0.943  16.298   1.898
58176W        W19707  44.949   9.307   0.371
58177W        W19708  25.969   2.229  10.499
58178W        W19709  35.476  29.981   1.311
58179W        W19710  22.598  22.179   0.327
58180W        W19711  41.832  20.610   1.384
58181W        W19712  30.617  40.340  12.384
58182W        W19713  11.824  10.279  11.414
58183W        W19714   5.402  20.114  12.417
58184W        W19715  31.986   4.368   2.892
58185W        W19716   8.726  40.850   1.704
58186W        W19717  35.911  34.877   3.215
58187W        W19718  40.878  17.674  12.015
58188W        W19719   7.734  35.360  14.376
58189W        W19720  41.984  26.483   2.785
58190W        W19721  21.097  42.862  13.009
58191W        W19722  33.984  21.521   0.306
58192W        W19723   7.686  19.554  10.427
58193W        W19724  23.593  39.432  11.919
58194W        W19725  30.049  16.672  13.325
58195W        W19726  18.242  12.146   2.357
58196W        W19727   7.673  11.756  10.002
58197W        W19728   1.369  27.467  11.106
58198W        W19729  41.862  28.101  11.051
58199W        W19730  36.538  42.500   0.406
58200W        W19731   5.367   3.294  12.943
58201W        W19732  11.261  43.878   4.241
58202W        W19733   6.216  25.126   1.344
58203W        W19734  22.044  29.521   5.161
58204W        W19735  37.484  11.633   3.200
58205W        W19736  38.834   3.394   0.383
58206W        W19737   1.831  33.434   3.305
58207W        W19738  34.386  26.176   0.325
58208W        W19739  18.152  43.364  11.099
58209W        W19740  43.939  10.380   3.272
58210W        W19741  33.611  14.330   4.612
58211W        W19742   2.837   3.264   4.794
58212W        W19743  32.953  21.630   0.383
58213W        W19744   6.258  24.217  10.076
58214W        W19745   8.365  25.122  10.970
58215W        W19746  33.604  43.480   4.257
58216W        W19747   8.655   0.933   3.743
58217W        W19748   2.322  20.153   1.219
58218W        W19749  34.389  35.507  10.440
58219W        W19750   0.396  25.028   2.709
58220W        W19751  34.988  41.012   1.718
58221W        W19752   6.239  35.936   1.435
58222W        W19753  19.055   8.682  10.429
58223W        W19754   3.387  26.077   4.330
58224W        W19755  19.171  19.719  10.483
58225W        W19756  42.385  38.454   4.790
58226W        W19757  10.674  37.077   1.700
58227W        W19758  44.504  25.112  11.398
58228W        W19759   5.876   6.347   2.784
58229W        W19760  25.178  15.660   4.666
58230W        W19761   2.341  15.243  13.927
58231W        W19762   7.403  15.305  11.071
58232W        W19763   9.290   4.866   0.474
58233W        W19764   4.815   8.862   4.735
58234W        W19765  31.568  16.700  14.439
58235W        W19766  14.767  26.978  13.404
58236W        W19767  31.538  31.609   2.777
58237W        W19768  12.638  29.527  10.096
58238W        W19769   7.412  41.929  11.888
58239W        W19770  16.286  30.933   0.852
58240W        W19771  11.364  17.589  13.508
58241W        W19772   2.804  37.460  11.413
58242W        W19773   5.738  17.685  14.886
58243W        W19774   2.872  41.382   4.742
58244W        W19775   4.752  20.768   2.672
58245W        W19776   5.217  40.041   1.398
58246W        W19777  27.622  39.481  12.860
58247W        W19778  11.841  37.459   1.717
58248W        W19779   8.319  41.805   4.621
58249W        W19780  26.649  21.121  10.914
58250W        W19781   9.729  37.021  10.625
58251W        W19782  33.105  15.098  14.979
58252W        W19783  36.552  26.576   5.213
58253W        W19784  31.584  29.548  10.458
58254W        W19785  37.986   2.798   3.248
58255W        W19786  33.912   4.213  10.440
58256W        W19787  38.881   7.240  10.084
58257W        W19788  37.439  42.379  13.017
58258W        W19789  13.215  44.891   2.360
58259W        W19790   7.900  32.074   0.431
58260W        W19791   2.937  12.651  12.530
58261W        W19792  38.966  37.865  12.859
58262W        W19793   5.757  22.245  14.851
58263W        W19794   4.357   0.787  14.911
58264W        W19795  43.356  35.424   3.211
58265W        W19796   0.327  23.551  14.486
58266W        W19797  37.482   4.267  11.966
58267W        W19798  33.996  20.107   1.912
58268W        W19799  34.982  36.540   5.686
58269W        W19800  37.876  19.086   4.806
58270W        W19801   8.248  12.773  11.037
58271W        W19802  28.545  26.176   2.284
58272W        W19803  14.594   4.274   4.719
58273W        W19804  35.528  22.137  11.395
58274W        W19805  10.778   7.773  12.834
58275W        W19806  44.288  38.041  10.600
58276W        W19807  35.943  27.667  11.117
58277W        W19808   1.422  10.711  14.899
58278W        W19809   5.423  44.777  10.517
58279W        W19810  23.719   2.266  10.930
58280W        W19811  17.115  35.075   4.231
58281W        W19812   7.735  27.577  14.392
58282W        W19813  41.461  44.772   0.301
58283W        W19814  16.281   0.478  14.440
58284W        W19815  11.175  15.808   0.735
58285W        W19816  27.039  11.763   4.158
58286W        W19817  34.463  22.170  11.496
58287W        W19818  27.051  14.259  12.093
58288W        W19819  42.975  36.528   1.919
58289W        W19820  27.997  15.164   4.664
58290W        W19821  27.581  35.081   1.792
58291W        W19822  18.647  37.894   3.815
58292W        W19823   5.239  43.018   5.322
58293W        W19824   9.846   0.866   3.301
58294W        W19825  25.617  35.431   1.723
58295W        W19826   9.645   8.709   4.283
58296W        W19827  28.141  41.461   3.656
58297W        W19828  24.507   6.229  12.072
58298W        W19829  37.964  25.538   1.713
58299W        W19830  26.171  28.120   0.756
58300W        W19831  18.754  35.592  12.536
58301W        W19832   7.289  39.040   4.124
58302W        W19833   1.462  11.780  10.900
58303W        W19834  12.839   8.769   2.874
58304W        W19835  34.876  27.555  11.498
58305W        W19836  38.360  40.045   4.341
58306W        W19837   4.874  35.893   4.677
58307W        W19838  19.225  41.919  13.812
58308W        W19839  24.481  21.113  12.853
58309W        W19840  17.759  39.414  12.054
58310W        W19841  38.011  28.068   0.803
58311W        W19842   1.338  40.892   3.816
58312W        W19843  20.166  32.967   4.607
58313W        W19844  11.233   9.207  11.089
58314W        W19845   5.397   7.789  10.417
58315W        W19846  26.617  33.390  11.029
58316W        W19847  33.442   8.271   1.273
58317W        W19848   4.864  31.977   3.306
58318W        W19849  33.078  14.155   2.857
58319W        W19850  26.587  15.263   0.413
58320W        W19851  20.525  37.063   3.364
58321W        W19852  10.871   6.211   3.660
58322W        W19853  21.252  42.440   1.435
58323W        W19854   5.897  10.236  10.476
58324W        W19855  37.919  38.981   3.723
58325W        W19856  12.632  30.956   1.873
58326W        W19857  37.903   3.247  14.496
58327W        W19858  26.155  38.945   1.728
58328W        W19859  36.365   3.829  13.993
58329W        W19860   8.204  10.314  13.824
58330W        W19861  37.450   3.260   2.790
58331W        W19862  15.762   7.351   1.812
58332W        W19863  17.688   0.461  12.346
58333W        W19864  28.526  41.926  11.111
58334W        W19865  16.076   1.275  10.558
58335W        W19866  37.502  39.416   3.803
58336W        W19867  37.392  31.084  11.879
58337W        W19868  11.806  43.411  12.064
58338W        W19869  38.381  18.137   0.960
58339W        W19870  25.055  34.409   2.729
58340W        W19871  38.837  43.318  11.506
58341W        W19872  25.522  17.208   4.627
58342W        W19873   6.912  33.531   0.760
58343W        W19874  18.585   9.350   3.802
58344W        W19875  28.132  44.467  14.865
58345W        W19876  22.674  10.832   3.255
58346W        W19877   5.271  37.473  11.982
58347W        W19878  17.651  15.122   0.804
58348W        W19879  39.870  24.022   1.909
58349W        W19880  26.205  24.017   4.212
58350W        W19881  36.023  29.592   4.263
58351W        W19882  32.067  12.816  14.853
58352W        W19883  28.492  20.090  10.640
58353W        W19884  19.205   1.780   4.340
58354W        W19885  19.766   9.329  11.115
58355W        W19886  27.651   3.340  14.430
58356W        W19887  32.129  31.510   3.220
58357W        W19888  32.011  20.602  11.027
58358W        W19889  17.114  18.121  13.383
58359W        W19890  18.139  37.498  12.028
58360W        W19891  27.651  16.717  12.061
58361W        W19892  42.800  30.991   0.803
58362W        W19893  23.027  43.890   3.157
58363W        W19894  10.334  31.479   2.346
58364W        W19895  11.148   1.281  11.895
58365W        W19896   3.935  23.183   4.761
58366W        W19897  27.049  44.992   1.778
58367W        W19898  14.302  41.901  10.982
58368W        W19899  32.554  40.521  11.023
58369W        W19900  31.429   7.891   4.120
58370W        W19901  39.374  26.699  10.503
58371W        W19902  11.278  24.043   2.838
58372W        W19903  27.070  28.969   4.316
58373W        W19904  15.824  21.092   3.211
58374W        W19905   4.296   7.258  12.087
58375W        W19906   0.782  43.953   1.282
58376W        W19907  13.824  36.966   3.667
58377W        W19908  29.634  44.908  10.562
58378W        W19909   5.783   1.275   1.364
58379W        W19910   9.811  30.421   2.193
58380W        W19911  24.571  19.059   2.280
58381W        W19912  40.032   3.234   3.360
58382W        W19913  40.989  21.258  12.857
58383W        W19914   4.291   8.237  11.406
58384W        W19915  13.620  15.645   1.762
58385W        W19916  21.093  38.068   3.735
58386W        W19917  31.422  38.367   3.716
58387W        W19918  29.484  21.133   9.933
58388W        W19919  25.623  39.877  12.969
58389W        W19920  16.735  21.712   0.413
58390W        W19921  37.963  17.596  11.454
58391W        W19922  22.546  34.466   4.821
58392W        W19923  43.478   8.738   0.883
58393W        W19924  18.779  43.320   1.297
58394W        W19925  44.437   1.434  12.458
58395W        W19926  38.931   1.409  14.420
58396W        W19927   0.883   6.682   0.279
58397W        W19928   8.201  42.931   4.160
58398W        W19929  43.392   8.371  13.500
58399W        W19930  37.963   8.399   0.758
58400W        W19931  38.929  13.689  10.545
58401W        W19932   5.738  22.541   0.760
58402W        W19933  12.192   2.744   2.378
58403W        W19934  10.247  34.110  11.528
58404W        W19935   4.429  34.911  11.053
58405W        W19936   4.322  25.014  10.459
58406W        W19937  13.306  28.993   0.329
58407W        W19938  10.246  11.303  10.976
58408W        W19939   2.355  34.521  14.500
58409W        W19940  44.878  29.049  13.442
58410W        W19941   3.296  20.562  11.417
58411W        W19942  34.457  14.179   4.647
58412W        W19943   6.182   6.816  11.547
58413W        W19944  43.433  24.123  14.801
58414W        W19945  10.360  21.168   4.269
58415W        W19946   9.725  26.671   3.656
58416W        W19947  13.290  40.050  14.435
58417W        W19948  34.023   7.358  11.448
58418W        W19949  28.120  21.117   3.187
58419W        W19950  21.176  24.590   4.222
58420W        W19951  38.388  43.840   0.272
58421W        W19952   4.840  23.677  12.484
58422W        W19953  40.920  26.203  11.129
58423W        W19954  19.665  41.041  12.358
58424W        W19955  10.642  43.966  13.455
58425W        W19956  42.890  44.324   1.883
58426W        W19957   8.890  44.775  13.055
58427W        W19958  11.752   9.815   2.670
58428W        W19959   0.323  33.529   3.373
58429W        W19960  36.387  40.465  11.933
58430W        W19961   6.183  22.232  14.490
58431W        W19962  31.496  13.728   4.209
58432W        W19963   4.435  11.778  13.873
58433W        W19964   2.908  33.909   3.717
58434W        W19965  31.902   8.241   0.293
58435W        W19966  39.501  29.089   3.853
58436W        W19967  39.032  38.889  11.491
58437W        W19968   7.769  13.770  12.359
58438W        W19969  20.548  34.952  11.050
58439W        W19970  30.543  38.004  13.327
58440W        W19971  33.088   5.762   2.217
58441W        W19972  14.659  21.155  11.007
58442W        W19973  18.153  11.680  11.559
58443W        W19974   4.297  38.820   1.445
58444W        W19975   1.305  10.806   3.695
58445W        W19976  14.137  14.152  11.042
58446W        W19977  23.023  29.613  12.897
58447W        W19978  39.944  16.665   3.348
58448W        W19979  15.155   4.437  10.899
58449W        W19980   7.332  26.140   0.426
58450W        W19981  32.037  16.804   5.129
58451W        W19982  13.721  13.667   1.246
58452W        W19983   1.384  31.424  14.823
58453W        W19984  16.623  27.077  12.886
58454W        W19985  13.801  27.601   1.213
58455W        W19986  20.050  37.563  11.900
58456W        W19987  32.589  26.083  14.328
58457W        W19988  42.896   9.816  12.406
58458W        W19989   4.331  35.907  13.482
58459W        W19990   9.199  27.454   0.328
58460W        W19991   2.316  42.396   2.388
58461W        W19992   4.332  26.178   4.751
58462W        W19993  10.689  42.968  13.008
58463W        W19994  26.528   1.782  10.054
58464W        W19995  13.829  18.733  13.934
58465W        W19996  30.035  14.172   0.248
58466W        W19997   9.379  30.536  12.459
58467W        W19998  27.964   8.746  12.898
58468W        W19999  16.664   8.202   2.777
58469W        W20000   0.318  27.537   0.910
58470W        W20001  24.612   1.766   1.748
58471W        W20002   2.737  29.061   0.376
58472W        W20003  20.118  22.726   1.793
58473W        W20004  37.505  14.264  13.401
58474W        W20005  37.840  19.223  13.804
58475W        W20006  44.909  27.574   0.798
58476W        W20007  39.344  15.191   3.326
58477W        W20008  20.256  20.168   3.802
58478W        W20009  12.284  12.163  12.408
58479W        W20010  13.705  23.119   4.214
58480W        W20011   4.402   9.791   0.445
58481W        W20012  44.284  18.748   0.914
58482W        W20013  12.814  40.319  13.402
58483W        W20014  37.518   8.251  13.336
58484W        W20015  17.786   1.451   3.772
58485W        W20016  26.598  44.401  13.517
58486W        W20017   5.418  20.567  12.554
58487W        W20018   5.857  22.576  14.884
58488W        W20019  25.080  42.289   3.842
58489W        W20020   4.937  32.576  13.522
58490W        W20021  34.611  10.358   3.651
58491W        W20022  31.487  44.949  12.061
58492W        W20023   0.912  41.471   3.803
58493W        W20024  33.615  23.714   1.236
58494W        W20025  14.813  28.450   3.829
58495W        W20026  40.822  18.726  10.443
58496W        W20027  34.023   7.872  14.822
58497W        W20028  40.412   9.345  12.956
58498W        W20029  27.977  26.040   0.819
58499W        W20030  23.044  32.119   0.766
58500W        W20031  15.209  38.355  13.983
58501W        W20032  27.029  17.570   3.300
58502W        W20033   3.402  30.498  11.561
58503W        W20034  34.882   0.827   0.460
58504W        W20035  34.457   5.761  11.466
58505W        W20036   1.765   0.909   4.767
58506W        W20037  24.637  38.019   2.418
58507W        W20038   8.339   6.681   2.236
58508W        W20039  44.772   4.762  11.933
58509W        W20040  23.208  40.841  13.391
58510W        W20041  34.911  21.692  12.339
58511W        W20042   0.954  13.741  12.555
58512W        W20043  23.662  24.709   0.933
58513W        W20044   2.743  28.620  14.771
58514W        W20045   9.330   5.270   2.893
58515W        W20046   7.835  22.120  11.119
58516W        W20047  14.192  23.603   0.738
58517W        W20048   7.261  40.005   4.797
58518W        W20049  17.677  30.578   2.899
58519W        W20050  24.127  38.332   3.164
58520W        W20051  40.948  33.400   2.308
58521W        W20052   1.900  14.728  10.483
58522W        W20053  29.440  33.481  13.347
58523W        W20054  20.232  34.003   4.288
58524W        W20055  40.466  31.938  14.774
58525W        W20056  21.229   4.367  11.970
58526W        W20057   9.718  42.378  14.959
58527W        W20058  39.899   6.706   4.307
58528W        W20059  31.093  10.352  10.559
58529W        W20060  37.561  22.678   2.711
58530W        W20061   6.788  15.316  12.016
58531W        W20062  18.199  17.197  10.418
58532W        W20063  37.460  29.566  10.508
58533W        W20064  17.575  14.263  14.876
58534W        W20065   5.701  39.812   0.914
58535W        W20066  29.134  41.529   3.168
58536W        W20067   0.972  15.148  12.992
58537W        W20068  20.626  33.506   0.272
58538W        W20069  22.246  22.587   0.882
58539W        W20070  24.721  33.069  10.536
58540W        W20071   2.946  11.845   1.405
58541W        W20072   6.272   9.695   0.733
58542W        W20073   2.866  43.474  14.458
58543W        W20074  15.600  26.081   0.795
58544W        W20075  28.996  42.339   3.148
58545W        W20076  28.099  24.509   4.163
58546W        W20077  32.010  35.995  11.897
58547W        W20078  42.515  33.009  11.124
58548W        W20079  14.102  12.150  12.911
58549W        W20080  36.096   4.788  10.904
58550W        W20081  10.266  30.438   0.398
58551W        W20082  43.299  31.544  14.958
58552W        W20083  41.805   6.798   4.218
58553W        W20084  33.097  13.328   5.180
58554W        W20085  12.693  18.063   0.452
58555W        W20086  30.026   7.910   9.975
58556W        W20087  29.110  35.071  11.028
58557W        W20088   1.752  12.267   1.835
58558W        W20089  18.752  29.968  14.908
58559W        W20090  12.758  41.376  10.618
58560W        W20091  42.356  39.504  14.370
58561W        W20092  37.523  30.515  12.083
58562W        W20093  11.816  22.235  12.574
58563W        W20094  31.087  20.099   4.762
58564W        W20095   3.859  29.006   3.236
58565W        W20096  28.943   6.399   3.780
58566W        W20097  10.723   4.258   3.171
58567W        W20098  14.254  36.884  11.861
58568W        W20099  27.944  31.466  12.874
58569W        W20100  28.525   0.303   2.812
58570W        W20101  44.370   5.416  14.465
58571W        W20102  41.862  38.906  14.275
58572W        W20103  39.862  30.445  12.915
58573W        W20104  30.933  28.978   1.883
58574W        W20105  24.530  14.151  10.425
58575W        W20106  44.879  16.755  10.417
58576W        W20107  37.969  35.105   2.857
58577W        W20108   7.740  14.124  14.931
58578W        W20109  15.124  27.190  12.944
58579W        W20110  35.880  18.110   4.171
58580W        W20111  31.433  15.277  12.450
58581W        W20112  42.326   4.848  11.042
58582W        W20113  28.971  42.812   3.289
58583W        W20114  10.293  13.617   1.824
58584W        W20115  38.514  33.129   3.786
58585W        W20116  37.843  18.244   3.258
58586W        W20117  31.144   7.253  14.355
58587W        W20118  29.586   4.298   2.288
58588W        W20119   4.206  34.381  14.858
58589W        W20120  26.139  34.450   4.804
58590W        W20121  24.718  38.921  14.806
58591W        W20122  18.115  44.456   3.659
58592W        W20123  15.239  22.205   2.720
58593W        W20124  18.666  19.118  14.848
58594W        W20125  15.202  33.426   3.177
58595W        W20126  16.677  41.787  11.893
58596W        W20127  39.437  17.074  12.368
58597W        W20128   2.393  44.807   3.654
58598W        W20129  25.011  27.056  14.302
58599W        W20130  42.290  39.027  14.786
58600W        W20131  29.146  13.225   4.693
58601W        W20132   0.481  33.509  11.876
58602W        W20133  30.590  28.111   3.804
58603W        W20134  40.817   9.659  10.598
58604W        W20135  34.604  30.938   4.161
58605W        W20136  34.068  17.088  12.356
58606W        W20137  19.673  41.448  12.438
58607W        W20138   3.863  14.298  10.072
58608W        W20139  24.982  30.055   0.734
58609W        W20140  24.985   6.268  12.385
58610W        W20141   7.770  17.240  12.385
58611W        W20142   7.892   1.917  14.881
58612W        W20143  26.964  13.751   4.674
58613W        W20144   0.751  10.813   2.304
58614W        W20145  30.470  38.345   3.750
58615W        W20146  41.497   9.160   5.114
58616W        W20147  34.944  42.870  11.930
58617W        W20148  22.685  12.829   2.178
58618W        W20149  20.534  15.762   2.193
58619W        W20150   3.785  41.414   0.779
58620W        W20151  29.925  16.178   1.336
58621W        W20152  38.045   5.275   1.287
58622W        W20153  40.345   8.835  14.443
58623W        W20154   4.894  28.658   1.865
58624W        W20155   4.725  35.426   2.336
58625W        W20156   4.409   0.334   4.185
58626W        W20157   5.237  15.699   4.348
58627W        W20158   1.735  30.989  12.988
58628W        W20159  40.978  39.369  14.880
58629W        W20160  32.985  39.812   1.717
58630W        W20161   6.362   4.928   3.216
58631W        W20162   1.848  37.838   4.210
58632W        W20163  24.552  11.762   2.729
58633W        W20164  42.300   6.360  13.988
58634W        W20165  24.671  38.527   4.702
58635W        W20166  36.038  32.450  11.401
58636W        W20167  10.327  29.631   0.345
58637W        W20168  42.793  32.012  14.501
58638W        W20169  15.818  17.148   0.472
58639W        W20170  11.676  35.021  10.554
58640W        W20171  15.327  15.645   2.213
58641W        W20172  33.055   5.862  10.589
58642W        W20173  21.252  20.578  10.460
58643W        W20174   1.877  36.899   1.925
58644W        W20175  21.172  10.712   2.718
58645W        W20176  41.444  21.614   1.808
58646W        W20177  17.081  18.286   3.730
58647W        W20178  43.991   8.206   1.776
58648W        W20179  16.796  43.883  10.502
58649W        W20180   1.414  10.186  14.316
58650W        W20181  11.691  24.030   2.360
58651W        W20182   4.380   0.443  13.378
58652W        W20183  24.583  33.529   0.473
58653W        W20184  27.102  40.546  10.580
58654W        W20185   8.877  27.483   2.356
58655W        W20186  22.607  28.571   2.358
58656W        W20187  40.846  43.940   3.264
58657W        W20188  33.559  38.848   4.720
58658W        W20189  40.829  14.101   1.321
58659W        W20190   0.358  24.146   2.351
58660W        W20191   5.290   6.361   4.834
58661W        W20192  29.654   5.245  13.839
58662W        W20193  36.355  26.503  10.108
58663W        W20194  42.895   2.802   3.180
58664W        W20195  41.031  12.121   0.316
58665W        W20196  28.108  36.357   3.159
58666W        W20197  43.429  40.834   4.698
58667W        W20198  32.591   8.867   2.231
58668W        W20199  19.056  18.765   1.438
58669W        W20200  24.712  15.795  13.469
58670W        W20201   1.899  42.956   2.401
58671W        W20202  27.050   9.769  10.956
58672W        W20203   6.809  29.605   0.467
58673W        W20204  40.036  26.502   4.118
58674W        W20205  14.728  11.812   2.218
58675W        W20206  43.883   5.752   0.420
58676W        W20207  11.823  44.863  13.495
58677W        W20208  38.912  32.023  12.879
58678W        W20209  41.417  17.720  12.506
58679W        W20210  23.140  24.654   2.690
58680W        W20211  13.647   2.966  14.286
58681W        W20212   0.972   6.922   0.805
58682W        W20213  32.040  26.132   4.285
58683W        W20214  24.198  36.412  14.305
58684W        W20215  29.670  31.485  14.939
58685W        W20216   6.320  14.194  12.881
58686W        W20217  22.690  36.409   4.784
58687W        W20218  31.500  37.048  13.918
58688W        W20219   3.426  37.478  14.964
58689W        W20220  32.437  10.680   3.363
58690W        W20221  11.283  12.179  12.577
58691W        W20222  38.534   2.371   0.402
58692W        W20223  10.786  31.089   5.570
58693W        W20224  24.129  23.997   5.156
58694W        W20225  18.279   9.660   1.812
58695W        W20226  26.514  16.568   3.220
58696W        W20227   6.847  23.592   3.838
58697W        W20228  25.605   2.456  13.865
58698W        W20229  18.587   3.247  11.593
58699W        W20230  23.524   3.256  13.349
58700W        W20231  35.074  17.564   3.743
58701W        W20232  15.152  30.597  11.045
58702W        W20233  17.255  43.443   1.925
58703W        W20234   5.409  12.659  10.927
58704W        W20235  17.286  41.461  13.368
58705W        W20236  22.523  34.433  11.051
58706W        W20237  26.557  42.978  13.955
58707W        W20238   4.286   6.187   0.442
58708W        W20239   3.817  44.268   4.647
58709W        W20240   4.325  16.715   1.426
58710W        W20241  37.850  29.026  14.790
58711W        W20242  16.294   9.851   2.417
58712W        W20243   6.347  44.283  10.923
58713W        W20244  14.129  20.545   4.723
58714W        W20245  25.033   6.711   2.731
58715W        W20246   9.691  19.197   2.817
58716W        W20247   8.767   1.742   2.679
58717W        W20248  35.030  36.047  13.974
58718W        W20249  28.624  38.068  14.437
58719W        W20250  32.983  22.549  10.929
58720W        W20251  17.602  38.421   0.874
58721W        W20252  36.856  16.193  10.989
58722W        W20253  29.161  42.300  14.300
58723W        W20254  21.700  29.133  14.001
58724W        W20255  18.257  13.210   2.708
58725W        W20256  23.662   2.365   1.909
58726W        W20257  16.112  14.719   4.135
58727W        W20258  29.005   9.286   3.776
58728W        W20259  31.136  21.619  11.525
58729W        W20260  34.012  27.609   4.792
58730W        W20261   6.896  16.784   2.823
58731W        W20262  43.287  29.578  14.836
58732W        W20263  10.245  20.142   3.229
58733W        W20264  17.778  18.773  11.501
58734W        W20265  39.381   7.412   0.323
58735W        W20266  19.744  42.478  14.934
58736W        W20267   4.704  44.365   4.156
58737W        W20268  41.027  29.982   4.133
58738W        W20269  22.067   3.859   2.416
58739W        W20270   4.329   1.816  10.960
58740W        W20271  44.972  33.398   3.236
58741W        W20272  27.997   2.268   3.323
58742W        W20273   4.879  17.579  14.314
58743W        W20274   9.834  25.126   2.763
58744W        W20275  31.587  10.692  12.424
58745W        W20276  34.095  11.860   3.851
58746W        W20277  44.391  13.750   0.883
58747W        W20278  13.105   3.755   1.249
58748W        W20279  25.500  29.119  11.094
58749W        W20280  31.080   9.819   4.792
58750W        W20281  23.160  43.020  11.374
58751W        W20282  30.912  27.591  12.376
58752W        W20283  40.451   9.365  10.002
58753W        W20284   9.177  41.029   2.841
58754W        W20285  25.580  28.625   3.364
58755W        W20286   4.369   1.773  13.482
58756W        W20287  19.254  40.460  14.289
58757W        W20288  28.156  19.151   2.809
58758W        W20289  24.665   0.817  14.287
58759W        W20290  44.999  29.593  12.345
58760W        W20291   3.423  30.607  13.534
58761W        W20292   1.798  14.249   4.668
58762W        W20293  12.244  30.418   3.276
58763W        W20294  35.922  38.901  12.870
58764W        W20295  28.626  22.997   2.314
58765W        W20296   1.286  41.914  12.531
58766W        W20297  28.168  37.977  12.092
58767W        W20298  27.107  15.682   5.301
58768W        W20299  11.276  21.720  11.128
58769W        W20300  34.868   2.251   3.345
58770W        W20301  19.681  20.071  11.415
58771W        W20302  15.103   9.648   0.797
58772W        W20303  42.785  35.426  12.896
58773W        W20304  16.184  19.596  11.924
58774W        W20305  35.548  34.484  10.452
58775W        W20306  26.101   6.737   2.734
58776W        W20307  19.612  39.386  14.777
58777W        W20308  30.589  37.491   0.854
58778W        W20309  36.539  29.149  12.865
58779W        W20310  13.672  14.833   4.328
58780W        W20311  21.025  19.707  13.539
58781W        W20312  44.366   2.411  14.309
58782W        W20313   7.786  35.557  13.451
58783W        W20314  41.967  16.255  13.951
58784W        W20315  28.483  26.032  12.371
58785W        W20316  40.988  15.198  14.350
58786W        W20317  36.884  39.010  12.486
58787W        W20318  24.582  41.878   3.644
58788W        W20319  44.342  25.186  14.858
58789W        W20320  30.022  21.517   4.692
58790W        W20321  32.035  27.948   4.608
58791W        W20322  34.004   7.816  12.429
58792W        W20323  38.507  33.465   2.682
58793W        W20324  17.800  11.179   1.405
58794W        W20325  35.474  36.908   3.178
58795W        W20326  21.641  21.163   0.901
58796W        W20327  42.396  25.159   3.169
58797W        W20328   9.310  22.586  14.963
58798W        W20329  42.951  38.397   4.284
58799W        W20330  27.051  30.417  13.960
58800W        W20331  17.625  26.159   2.338
58801W        W20332   5.378  31.599   2.827
58802W        W20333  16.183  35.472  12.421
58803W        W20334   7.875  29.624  10.134
58804W        W20335  12.289  42.485   3.753
58805W        W20336  26.195   8.324   3.323
58806W        W20337  23.000  43.349   1.287
58807W        W20338  20.740   4.923  10.538
58808W        W20339  14.163  38.375  11.974
58809W        W20340  33.451  40.017  10.998
58810W        W20341  34.898   4.876   2.816
58811W        W20342  34.601  32.561   3.200
58812W        W20343  13.776  10.746   2.255
58813W        W20344  34.940  20.029  11.557
58814W        W20345  38.068  11.265   1.259
58815W        W20346  14.165  16.116   2.853
58816W        W20347  44.375  20.662   0.363
58817W        W20348   8.814  29.086  12.076
58818W        W20349  35.886  17.555  14.473
58819W        W20350   9.308  39.849  10.606
58820W        W20351  32.921  30.045   0.793
58821W        W20352   2.836  14.264   3.326
58822W        W20353  36.864   9.271  10.043
58823W        W20354  39.035  28.513  13.906
58824W        W20355   2.742  12.163   0.834
58825W        W20356  39.461  31.096  12.415
58826W        W20357  31.555  16.105  12.928
58827W        W20358  38.541   4.402   4.272
58828W        W20359  41.967  25.194  13.450
58829W        W20360  13.258   5.351  14.371
58830W        W20361   5.424  15.276   2.345
58831W        W20362  16.695  32.392   5.630
58832W        W20363  19.692  30.140  11.011
58833W        W20364  31.532  27.628  13.359
58834W        W20365  37.400  22.022   3.147
58835W        W20366   4.930  30.106   3.818
58836W        W20367   9.710  14.191  14.791
58837W        W20368  22.632  44.896   2.325
58838W        W20369  14.720  36.445   1.829
58839W        W20370   0.466  31.095   3.321
58840W        W20371  24.198  26.654  10.542
58841W        W20372  37.051  43.886  12.522
58842W        W20373  24.665   0.490   0.925
58843W        W20374  34.938  12.359  13.002
58844W        W20375  14.778  27.665  12.552
58845W        W20376  25.631   0.899  14.982
58846W        W20377  44.903  35.445  13.965
58847W        W20378  31.102  24.134   4.761
58848W        W20379  19.730  11.866  14.296
58849W        W20380  34.605  30.016  10.984
58850W        W20381   9.179  31.551  14.960
58851W        W20382  13.280  21.143   3.760
58852W        W20383   1.788  20.084  10.595
58853W        W20384  42.326  30.441   0.859
58854W        W20385  31.941  10.352   5.190
58855W        W20386  35.876  28.567   1.303
58856W        W20387  14.749  25.026   0.336
58857W        W20388   9.798  33.115   2.686
58858W        W20389  41.881  41.452   0.900
58859W        W20390  28.583   0.371  12.386
58860W        W20391  33.472  11.349  13.502
58861W        W20392  16.806  19.565   2.367
58862W        W20393  34.022   3.865   2.202
58863W        W20394   7.341  29.961   4.301
58864W        W20395   1.280  22.172  12.366
58865W        W20396  15.264  36.509  14.328
58866W        W20397   4.866   1.840  12.048
58867W        W20398  42.903  21.679  11.956
58868W        W20399  27.594  11.806   0.286
58869W        W20400  40.525  17.715  14.954
58870W        W20401  38.422   5.691   3.321
58871W        W20402  10.651  28.580   4.837
58872W        W20403   2.800  12.627   4.619
58873W        W20404  14.180  13.330  13.934
58874W        W20405  39.413  25.548  10.481
58875W        W20406  24.003  20.689   0.319
58876W        W20407  33.907   0.489   0.472
58877W        W20408  34.598  42.025   1.299
58878W        W20409  44.004  33.432   4.802
58879W        W20410  44.353   7.761   2.685
58880W        W20411  44.450  20.118   4.146
58881W        W20412  29.445  12.853   2.206
58882W        W20413  28.465  39.434  12.029
58883W        W20414  18.589   4.260   4.304
58884W        W20415  21.112  19.143  14.878
58885W        W20416  34.447  11.177   3.750
58886W        W20417  26.175   2.795  14.823
58887W        W20418  40.993  16.571   0.332
58888W        W20419  20.668  25.651  13.912
58889W        W20420  44.817  22.998  12.843
58890W        W20421  23.616  27.982   0.463
58891W        W20422  22.156   5.246   1.315
58892W        W20423  27.987   9.152   0.398
58893W        W20424   8.224  43.920   3.174
58894W        W20425  11.255   4.282   2.672
58895W        W20426   8.721  19.183  11.118
58896W        W20427  28.067  36.372  14.846
58897W        W20428  13.801  20.087   4.341
58898W        W20429  39.488  43.414   1.768
58899W        W20430  22.609  43.979  10.422
58900W        W20431  20.742   6.252  14.026
58901W        W20432  43.947  16.629   0.739
58902W        W20433  30.446  18.095  14.951
58903W        W20434  35.412  24.203   4.276
58904W        W20435   0.912  44.447  10.460
58905W        W20436  30.153  42.018  11.927
58906W        W20437   6.710  23.185  13.002
58907W        W20438  21.656  43.338   0.334
58908W        W20439  25.579  13.231   4.187
58909W        W20440   1.971  37.919   0.832
58910W        W20441  26.543  34.873  11.604
58911W        W20442  32.006  21.042   2.728
58912W        W20443  17.068  19.110  10.952
58913W        W20444  43.286  37.077  12.043
58914W        W20445  39.843  37.928  14.305
58915W        W20446  17.175  21.628   2.222
58916W        W20447  10.724  16.133   3.669
58917W        W20448  12.362  31.435   0.843
58918W        W20449  38.359  39.855  13.931
58919W        W20450  40.962  34.919   4.713
58920W        W20451  37.492  44.403   2.853
58921W        W20452   9.281  42.485  13.895
58922W        W20453   6.885  19.646  14.352
58923W        W20454   7.740  23.699  13.026
58924W        W20455   0.449  18.157   3.631
58925W        W20456  39.416  37.469   4.671
58926W        W20457  18.072  34.933   1.429
58927W        W20458  15.301  42.510   1.719
58928W        W20459  12.324   6.757  14.354
58929W        W20460  15.117   0.414  14.501
58930W        W20461  10.760  24.541  13.913
58931W        W20462  32.623  43.343   0.906
58932W        W20463  11.137  35.057   0.728
58933W        W20464  26.998   8.898   1.341
58934W        W20465  39.832  42.295  13.038
58935W        W20466  28.569  38.034  11.536
58936W        W20467   1.298  29.603   1.405
58937W        W20468  35.468   7.322  14.482
58938W        W20469   6.843  39.957   0.932
58939W        W20470  19.723   3.305  14.786
58940W        W20471  22.570   3.859  11.471
58941W        W20472   1.294  40.329   2.782
58942W        W20473  36.573  32.519   1.252
58943W        W20474   0.797   8.662   4.723
58944W        W20475  20.188  24.061  12.957
58945W        W20476  30.042  26.063  13.881
58946W        W20477  15.301  32.982   2.353
58947W        W20478  17.776  17.609  12.443
58948W        W20479   2.731  25.591   0.402
58949W        W20480  23.108  35.048   4.208
58950W        W20481  16.594  15.117  14.833
58951W        W20482  14.754  20.274   4.613
58952W        W20483  22.625  19.634   4.158
58953W        W20484   5.795   7.303  10.890
58954W        W20485   3.808  21.736  14.450
58955W        W20486  15.579   5.417   4.326
58956W        W20487   4.444  26.473   2.761
58957W        W20488  43.874   2.436  12.557
58958W        W20489   2.339  27.993  11.918
58959W        W20490  17.560  26.019  13.332
58960W        W20491  38.925  43.818   2.663
58961W        W20492  41.507  36.949   0.936
58962W        W20493  43.385  34.943   3.195
58963W        W20494   8.229  33.111  11.577
58964W        W20495  16.227  25.016  13.812
58965W        W20496  43.278  40.030   4.268
58966W        W20497   1.294  14.300   3.767
58967W        W20498  20.574   2.880  11.040
58968W        W20499  28.152  43.979  13.492
58969W        W20500   3.285  15.748  12.403
58970W        W20501  35.523  14.223  14.513
58971W        W20502  44.765  10.850   1.308
58972W        W20503   5.193  23.546   0.889
58973W        W20504  39.408  39.435   4.599
58974W        W20505  26.182   0.421   1.310
58975W        W20506  26.516  37.392  11.519
58976W        W20507  22.688  27.594   2.287
58977W        W20508  43.407  41.301  14.321
58978W        W20509  18.226  33.905   1.784
58979W        W20510  31.607  42.403  14.336
58980W        W20511   5.429  14.255  10.404
58981W        W20512   4.898  33.053  14.275
58982W        W20513  39.056  13.166   2.209
58983W        W20514  18.234  22.019   3.871
58984W        W20515  39.061  43.281   0.273
58985W        W20516  26.576  27.658  14.941
58986W        W20517  17.593   1.411  12.387
58987W        W20518  23.539  38.838   0.308
58988W        W20519   7.905  11.279   2.748
58989W        W20520  42.803  32.597  14.772
58990W        W20521  11.355  22.555   2.340
58991W        W20522  37.932  22.234  11.011
58992W        W20523  30.605  40.428   5.275
58993W        W20524  42.288   6.785  11.932
58994W        W20525   1.248  40.806   0.772
58995W        W20526   7.290  11.823  12.997
58996W        W20527  33.454  29.670  11.067
58997W        W20528  15.088  25.112   0.301
58998W        W20529  32.500  32.134   5.162
58999W        W20530  41.886   9.253   0.355
59000W        W20531   5.330  29.103  14.759
59001W        W20532  19.715   4.293   4.278
59002W        W20533   3.283  23.987   1.335
59003W        W20534   7.270  35.467  12.959
59004W        W20535  16.149  41.320  12.983
59005W        W20536  39.553  10.874   5.692
59006W        W20537  20.073  21.127  10.898
59007W        W20538  44.926  12.798  12.392
59008W        W20539  12.224  30.151   4.837
59009W        W20540  37.503  19.256   2.339
59010W        W20541  28.008   9.346   3.646
59011W        W20542   6.230  39.508   4.270
59012W        W20543  10.776   6.781  12.046
59013W        W20544  22.162  30.629  13.417
59014W        W20545  34.082  29.660   1.332
59015W        W20546  11.222  15.594  13.056
59016W        W20547  26.105  26.485   3.861
59017W        W20548  18.218  17.744  14.297
59018W        W20549   9.381  20.600   4.281
59019W        W20550  18.570  37.578  13.835
59020W        W20551  24.660   4.231  10.576
59021W        W20552  40.870  28.479   1.917
59022W        W20553  12.734  27.655  10.501
59023W        W20554  20.652  20.544  13.320
59024W        W20555  19.051  38.050   0.361
59025W        W20556  21.650  31.024   2.702
59026W        W20557  36.080   5.834  11.501
59027W        W20558  15.226   3.319  13.420
59028W        W20559  42.923  21.680   4.213
59029W        W20560  29.049   0.332  12.960
59030W        W20561  12.306   8.821  10.509
59031W        W20562   4.296  11.188   4.226
59032W        W20563  21.529  32.986  11.549
59033W        W20564  19.611  22.594   3.167
59034W        W20565  43.009  25.962   1.327
59035W        W20566  38.487  14.807  13.393
59036W        W20567   4.337  24.045  14.822
59037W        W20568   9.731  30.414  14.918
59038W        W20569  12.700   8.882   3.202
59039W        W20570  39.477  43.976  11.891
59040W        W20571  27.500  30.988  14.890
59041W        W20572  33.395  30.642   3.759
59042W        W20573  18.744  24.544   0.813
59043W        W20574  19.641  24.658  12.086
59044W        W20575  35.864   3.854   1.294
59045W        W20576  41.931  19.276   0.344
59046W        W20577  43.944  29.073  14.428
59047W        W20578  18.625  25.098  12.393
59048W        W20579  29.035  40.967  10.450
59049W        W20580   1.962  16.111   2.357
59050W        W20581  13.799  36.048   1.739
59051W        W20582   0.488  38.939  14.865
59052W        W20583  22.713   5.194  14.488
59053W        W20584  25.641  35.380  10.585
59054W        W20585  15.119  16.217  14.934
59055W        W20586  15.590  25.594   4.170
59056W        W20587  29.572  27.470  12.846
59057W        W20588  37.533   1.302   4.270
59058W        W20589  27.597  26.526  12.373
59059W        W20590  13.693   5.399   4.170
59060W        W20591  43.510  27.057   3.240
59061W        W20592  11.323  38.980   0.766
59062W        W20593   6.383  36.981  11.986
59063W        W20594  22.557  43.997  13.526
59064W        W20595  19.584  41.814   3.856
59065W        W20596  41.366  28.619  12.001
59066W        W20597  33.926  43.495   1.697
59067W        W20598  19.716  27.143   4.158
59068W        W20599  14.660   0.345  10.928
59069W        W20600   6.363  10.678  14.366
59070W        W20601   4.928  42.814   9.990
59071W        W20602   0.954  10.151  10.499
59072W        W20603  25.529  17.663  12.489
59073W        W20604  27.124  31.539  11.480
59074W        W20605   7.848   4.298  12.023
59075W        W20606   1.354  44.311  12.917
59076W        W20607  14.182  34.505  11.019
59077W        W20608  10.759   7.179   0.948
59078W        W20609  25.157  44.448  11.897
59079W        W20610  31.118  23.988  13.499
59080W        W20611  24.056   9.198   2.721
59081W        W20612  26.132  36.373   0.457
59082W        W20613  14.715  30.503   3.837
59083W        W20614  11.263   4.252   3.181
59084W        W20615   9.220   6.190   1.314
59085W        W20616  38.465  11.343   0.339
59086W        W20617  37.470   8.194  14.413
59087W        W20618  13.807  32.479   3.206
59088W        W20619   6.419   2.298  13.881
59089W        W20620  21.710  43.433   3.283
59090W        W20621  34.469  34.883   0.460
59091W        W20622   9.239  42.298   4.262
59092W        W20623  18.598  44.483   1.429
59093W        W20624  44.833  39.902  12.933
59094W        W20625   3.738   0.364   4.738
59095W        W20626   7.229  41.532  10.480
59096W        W20627   3.450  38.484   3.709
59097W        W20628  13.807  35.031   3.197
59098W        W20629  20.606   4.809  11.521
59099W        W20630  13.163  41.413  11.906
59100W        W20631  41.537  21.538  11.463
59101W        W20632  30.524  12.767   1.341
59102W        W20633  21.738  36.909  12.504
59103W        W20634  18.555  10.149   0.735
59104W        W20635  41.861   3.936  12.929
59105W        W20636  21.196  27.558  10.568
59106W        W20637  41.945  38.861  10.064
59107W        W20638  41.887   7.731   1.782
59108W        W20639  10.264  28.475   2.861
59109W        W20640   5.708  34.872   4.814
59110W        W20641  25.690  32.946   9.966
59111W        W20642  32.577   9.348   0.374
59112W        W20643   6.840  31.098  12.440
59113W        W20644  24.033  15.613  14.487
59114W        W20645  33.016  18.201  14.511
59115W        W20646  22.119   5.336  11.899
59116W        W20647  41.913  37.431  10.604
59117W        W20648  31.043   7.395  14.972
59118W        W20649   2.770  40.929  11.048
59119W        W20650  27.944  28.019   0.895
59120W        W20651  25.688  35.898  13.901
59121W        W20652  25.091  16.805   0.958
59122W        W20653  39.495  33.427   2.186
59123W        W20654   6.358  42.300   3.689
59124W        W20655  42.512  30.585   3.387
59125W        W20656   1.433  14.163  11.399
59126W        W20657  15.637   0.935   0.297
59127W        W20658  37.337  34.994  12.898
59128W        W20659  33.614   0.808  13.804
59129W        W20660   7.703  40.042  13.036
59130W        W20661   5.909  34.520  13.323
59131W        W20662   4.857  13.203  12.485
59132W        W20663  16.301  42.808  14.280
59133W        W20664  20.618  30.596  10.503
59134W        W20665  16.150  40.404   0.882
59135W        W20666  26.661  32.409   1.926
59136W        W20667  30.964  36.942   3.209
59137W        W20668  31.921  18.290   3.326
59138W        W20669  41.488  35.852  14.465
59139W        W20670  30.428  19.778   2.246
59140W        W20671  30.959   0.394   4.743
59141W        W20672  38.057  17.624   2.363
59142W        W20673   0.779  13.605  10.576
59143W        W20674  31.912  29.473  14.826
59144W        W20675  41.534  19.666   2.846
59145W        W20676   6.324  29.494   0.960
59146W        W20677  42.912  41.891  13.859
59147W        W20678  38.892  39.058   4.782
59148W        W20679   2.772   9.749   1.817
59149W        W20680  36.054   9.799  12.936
59150W        W20681  38.327  33.966   3.864
59151W        W20682  35.414  37.895   4.819
59152W        W20683  43.338  43.499   1.330
59153W        W20684  42.816  42.392  13.475
59154W        W20685  15.179   6.270  14.782
59155W        W20686   5.248  41.963  13.443
59156W        W20687  17.608  42.362   3.662
59157W        W20688  15.155  11.817   4.620
59158W        W20689  29.561  29.532   1.255
59159W        W20690   7.901  21.142   2.678
59160W        W20691  18.722  41.931  10.994
59161W        W20692  17.174   7.307   2.217
59162W        W20693  33.549  42.456   1.277
59163W        W20694  44.328  21.139   0.409
59164W        W20695  25.123  12.189  11.523
59165W        W20696   6.804   7.860   4.804
59166W        W20697  14.207  18.634  13.496
59167W        W20698  40.321   1.250   4.727
59168W        W20699  14.775  42.858   3.718
59169W        W20700  19.767  43.019  10.588
59170W        W20701   6.423  19.045   3.663
59171W        W20702   6.255  38.966  14.389
59172W        W20703  40.380  36.523   2.182
59173W        W20704  21.240  35.033  12.410
59174W        W20705  40.472  42.979  10.471
59175W        W20706  38.531  27.158   3.360
59176W        W20707  35.896  16.597   0.465
59177W        W20708  24.128   2.393   3.298
59178W        W20709  25.636   5.764  10.508
59179W        W20710  39.493  31.590  11.394
59180W        W20711  11.791   4.355   0.856
59181W        W20712  38.880   5.303  13.923
59182W        W20713  29.561  43.515  11.974
59183W        W20714   2.322  42.364  11.952
59184W        W20715  30.569  38.422  13.907
59185W        W20716  38.981   0.876  14.352
59186W        W20717  31.617  20.192   4.725
59187W        W20718  33.414  31.403   2.866
59188W        W20719  11.345  11.853  12.465
59189W        W20720  19.576   2.824  12.006
59190W        W20721   7.174  22.236  11.570
59191W        W20722  23.009  16.691  10.584
59192W        W20723   0.452  34.016   3.326
59193W        W20724  14.783  23.680  12.084
59194W        W20725  42.521   3.460   2.833
59195W        W20726  40.467  34.445  14.419
59196W        W20727   1.828  37.487   3.815
59197W        W20728  40.973  26.513  11.000
59198W        W20729  19.221  16.228   4.742
59199W        W20730  28.578  19.729   3.689
59200W        W20731  11.241   1.741   1.263
59201W        W20732  22.630  33.118  14.832
59202W        W20733  17.256  43.970   1.852
59203W        W20734  34.901  13.136  14.373
59204W        W20735  36.911   7.236  10.482
59205W        W20736  18.203  20.704   1.226
59206W        W20737   0.482  38.492  13.856
59207W        W20738  26.178   5.920   1.413
59208W        W20739  23.598  17.231  12.967
59209W        W20740  41.969  22.184  14.948
59210W        W20741  35.409  22.593  12.944
59211W        W20742  30.588  21.730   1.859
59212W        W20743  12.154   4.272   1.327
59213W        W20744  29.043  18.749   4.737
59214W        W20745  38.879  12.798   5.189
59215W        W20746  37.421  44.864  12.435
59216W        W20747  14.193  35.969  12.921
59217W        W20748  44.430   9.873  13.536
59218W        W20749  30.438  30.975   2.316
59219W        W20750   3.913  19.777  14.310
59220W        W20751  34.443  15.617   0.857
59221W        W20752  33.903   8.775  14.980
59222W        W20753  21.206  42.297   0.415
59223W        W20754  30.092  24.019  11.093
59224W        W20755  22.739   7.278   1.828
59225W        W20756  31.536  37.928   0.960
59226W        W20757  18.242  26.472  13.990
59227W        W20758  27.470   2.780   0.260
59228W        W20759  32.517   1.236   0.852
59229W        W20760  19.646  22.026   2.262
59230W        W20761  17.626  17.288  14.817
59231W        W20762   6.270   8.178  14.861
59232W        W20763  43.508  25.167  14.339
59233W        W20764  44.865  17.181   4.160
59234W        W20765   7.807   4.932   0.863
59235W        W20766  10.709  10.351  12.866
59236W        W20767  42.387  19.656   2.195
59237W        W20768  11.839  20.626   3.672
59238W        W20769   5.408   8.762   1.290
59239W        W20770   1.934  15.811   4.212
59240W        W20771  30.041  15.123   3.364
59241W        W20772   7.702   9.376   4.729
59242W        W20773  33.087   6.821   0.376
59243W        W20774  37.839  44.437   4.679
59244W        W20775  42.423   7.902  14.004
59245W        W20776  44.767   6.728   3.775
59246W        W20777  44.008  43.275  12.563
59247W        W20778  41.929   1.838  14.485
59248W        W20779   2.806  44.926   2.224
59249W        W20780   1.930  35.987  10.431
59250W        W20781  37.519   7.312  14.277
59251W        W20782  21.137  41.908  12.968
59252W        W20783  26.186   8.783  11.109
59253W        W20784  12.671  33.460   9.570
59254W        W20785   0.860  22.152  14.472
59255W        W20786   7.895   1.384  12.369
59256W        W20787  16.126  19.217  12.841
59257W        W20788  14.778  38.355   0.901
59258W        W20789  17.706  32.991   0.270
59259W        W20790   4.243  15.764  14.387
59260W        W20791  36.001  41.034   1.931
59261W        W20792  10.789  38.500   3.147
59262W        W20793  20.734  39.967   0.734
59263W        W20794  39.921  22.009  14.997
59264W        W20795  19.671  29.929   2.309
59265W        W20796  15.597  13.671   2.717
59266W        W20797  10.367  21.605  13.324
59267W        W20798  36.356  15.628  12.924
59268W        W20799  20.737   9.708   3.692
59269W        W20800  41.879   0.447   2.780
59270W        W20801  23.102  35.991  13.819
59271W        W20802  33.616  18.772  12.571
59272W        W20803  38.933  23.021  14.395
59273W        W20804  41.394  34.537  10.997
59274W        W20805   3.338   2.962   1.396
59275W        W20806   6.811  13.810  14.768
59276W        W20807  35.973  26.086  12.077
59277W        W20808  13.128  36.025  10.965
59278W        W20809  33.420  33.094   3.855
59279W        W20810   0.363  44.799  13.810
59280W        W20811  15.815  14.657   4.696
59281W        W20812  12.764   5.708  10.595
59282W        W20813  42.502  31.955   3.795
59283W        W20814  22.143  38.828   2.311
59284W        W20815  13.277  19.279   2.852
59285W        W20816  15.757  15.160   1.341
59286W        W20817   4.865   6.366  14.292
59287W        W20818   3.435  23.560  14.892
59288W        W20819  28.601   1.866  12.973
59289W        W20820   2.413  27.578   2.713
59290W        W20821  34.550   4.837   3.757
59291W        W20822  42.493  27.479   0.885
59292W        W20823  31.025   4.422  14.942
59293W        W20824  30.908   4.283  12.094
59294W        W20825  40.959   6.395   4.126
59295W        W20826  21.520  20.218  10.639
59296W        W20827   9.810  16.226   0.962
59297W        W20828   1.384  17.693  12.078
59298W        W20829  42.964   1.429  10.553
59299W        W20830  38.932  40.465   4.318
59300W        W20831   4.387  10.788  14.007
59301W        W20832  44.909  35.918   2.706
59302W        W20833  17.587  17.199   3.824
59303W        W20834   4.304  42.795   5.240
59304W        W20835  31.600  15.660  11.890
59305W        W20836  21.231  31.997   0.458
59306W        W20837  20.221  37.385  10.974
59307W        W20838  44.312  26.023  14.481
59308W        W20839   5.289  18.790  11.879
59309W        W20840  16.145  16.735  11.428
59310W        W20841  42.338  42.405   2.802
59311W        W20842  38.556  25.677   3.311
59312W        W20843  27.680  12.325  14.415
59313W        W20844  21.596  30.035  10.428
59314W        W20845  33.021   8.195   0.310
59315W        W20846  19.099  37.412  10.994
59316W        W20847  11.302  10.336   3.234
59317W        W20848  15.124  14.238   3.823
59318W        W20849  42.406   1.396   4.218
59319W        W20850  43.300  25.185  13.360
59320W        W20851  40.854  34.893   3.305
59321W        W20852   8.240   7.674  11.420
59322W        W20853  40.377   0.337  13.380
59323W        W20854  41.415   4.779  10.613
59324W        W20855  17.612   3.940  10.404
59325W        W20856  19.705  21.064  13.920
59326W        W20857   9.249  39.405  13.521
59327W        W20858  32.435  44.979   3.765
59328W        W20859  23.618  39.964   4.774
59329W        W20860  10.877  17.683   1.371
59330W        W20861  38.535  11.828  13.333
59331W        W20862  28.617  26.519  11.960
59332W        W20863  15.771  43.017  11.474
59333W        W20864  39.022  26.693   5.227
59334W        W20865   2.420  39.409   2.283
59335W        W20866  41.035  36.923   3.318
59336W        W20867   5.200  41.015   3.818
59337W        W20868  19.776  30.010   0.273
59338W        W20869  11.758  37.978   3.679
59339W        W20870  12.712  41.474  14.375
59340W        W20871  43.278   3.272  14.827
59341W        W20872  35.898   8.884   3.344
59342W        W20873  23.661  26.091  11.063
59343W        W20874  42.003  30.028   4.616
59344W        W20875  44.835  25.697   2.677
59345W        W20876  23.653  22.566   1.385
59346W        W20877  14.141   2.856  13.517
59347W        W20878   4.780  25.556   0.956
59348W        W20879  22.102   1.882  13.952
59349W        W20880  35.556   9.347   1.344
59350W        W20881  17.241   5.234  13.317
59351W        W20882  28.649  33.409   1.837
59352W        W20883  26.569  26.542   1.867
59353W        W20884   3.326  30.007   1.313
59354W        W20885  13.613   9.367  11.031
59355W        W20886  26.475  21.612   4.632
59356W        W20887  32.461  32.459   3.726
59357W        W20888  38.453  14.105   2.748
59358W        W20889  13.169  36.487  14.792
59359W        W20890  26.961   0.257   0.836
59360W        W20891   7.709  28.449  14.430
59361W        W20892  28.111  43.504  10.993
59362W        W20893  41.529   1.359  14.434
59363W        W20894   1.418  17.791   3.865
59364W        W20895  15.616  21.164  10.931
59365W        W20896  19.644  10.232  13.957
59366W        W20897  33.529  38.827  14.990
59367W        W20898  26.190  38.971   2.867
59368W        W20899  34.881  24.230   1.908
59369W        W20900  22.643  43.970   2.389
59370W        W20901   4.281   9.351   3.821
59371W        W20902  37.465   4.299   3.304
59372W        W20903  28.016  42.791  11.600
59373W        W20904  36.467  10.677   2.739
59374W        W20905  40.375  37.917  14.441
59375W        W20906  25.683  21.671  12.840
59376W        W20907  19.552   7.740   1.757
59377W        W20908  40.548   9.722  13.883
59378W        W20909  20.599  25.038  11.570
59379W        W20910  43.355  19.236  13.802
59380W        W20911  41.825  17.753  13.370
59381W        W20912  24.542  41.462  10.911
59382W        W20913   3.891  44.319   1.313
59383W        W20914  41.885  43.401  14.456
59384W        W20915  12.269   9.259   3.760
59385W        W20916   0.850   0.464   0.938
59386W        W20917  15.808  35.910  11.553
59387W        W20918  31.466  42.796   1.393
59388W        W20919  15.117  12.265   2.307
59389W        W20920  32.052  42.913  12.400
59390W        W20921   6.331  19.568   2.389
59391W        W20922  19.760  10.663   3.209
59392W        W20923  29.963  28.518  14.430
59393W        W20924   5.856  28.999   3.838
59394W        W20925  15.088  29.050   5.084
59395W        W20926  25.065  34.870   2.736
59396W        W20927  27.532  33.408   0.760
59397W        W20928   9.252   8.805   1.855
59398W        W20929   7.266  26.573  10.583
59399W        W20930  18.671  42.808  14.765
59400W        W20931  18.562  40.951  13.453
59401W        W20932  38.398  23.571   0.411
59402W        W20933  32.579  21.679   2.720
59403W        W20934  38.913  32.970   3.644
59404W        W20935  35.372  24.525   2.796
59405W        W20936  19.134  19.256   0.469
59406W        W20937  27.528  39.833   0.746
59407W        W20938  21.740   1.754  11.590
59408W        W20939  37.875  13.783   1.246
59409W        W20940  30.975  12.351  14.822
59410W        W20941  39.559  20.647  10.465
59411W        W20942  35.047  19.692   2.366
59412W        W20943  12.276  19.209  11.874
59413W        W20944   0.392  25.566  12.408
59414W        W20945  42.920  38.490   2.374
59415W        W20946  37.362  21.158   3.676
59416W        W20947   2.452  15.097  11.049
59417W        W20948  32.484  37.991   4.223
59418W        W20949   2.352  40.961   2.799
59419W        W20950  44.443  21.247  10.438
59420W        W20951   0.493  39.842  12.389
59421W        W20952  10.849  34.886  14.816
59422W        W20953  37.435  12.292   4.135
59423W        W20954  35.860  31.631  11.933
59424W        W20955  29.919  33.479   2.888
59425W        W20956  30.614  30.575   0.932
59426W        W20957  17.293  33.544  11.987
59427W        W20958  13.119  14.235   2.662
59428W        W20959  27.128  18.682   4.264
59429W        W20960  12.624  26.037   3.363
59430W        W20961  42.428   7.886  14.484
59431W        W20962  16.302  36.409  10.509
59432W        W20963   1.936  15.285   0.763
59433W        W20964  14.277   5.327   2.368
59434W        W20965  10.353  35.906  12.934
59435W        W20966  16.795  30.520  14.869
59436W        W20967   9.304  44.386  12.079
59437W        W20968   4.448   7.199   1.790
59438W        W20969  24.695   2.368  11.979
59439W        W20970  35.975  19.778   4.276
59440W        W20971  21.529   9.373  12.087
59441W        W20972   7.393  15.698  14.498
59442W        W20973   5.257  20.229   4.263
59443W        W20974  30.450  25.706   1.311
59444W        W20975  39.402  18.732   2.329
59445W        W20976   6.276   4.716  14.464
59446W        W20977  20.241   1.920   2.232
59447W        W20978  11.151   5.312  14.504
59448W        W20979  11.663  35.512   1.812
59449W        W20980  32.013  43.908   2.223
59450W        W20981  20.190  28.981   1.355
59451W        W20982  41.840  39.061   2.360
59452W        W20983  32.965  41.867   2.393
59453W        W20984   2.812  12.679   1.731
59454W        W20985  26.005  40.992  12.957
59455W        W20986  17.688   4.436  14.394
59456W        W20987  26.634  19.656  14.305
59457W        W20988   3.798  36.881   4.232
59458W        W20989  28.599  31.643   0.462
59459W        W20990  42.825   0.320  11.049
59460W        W20991   8.343  31.915   2.380
59461W        W20992  31.645  33.525  13.372
59462W        W20993  16.197  12.202   4.157
59463W        W20994   8.723  43.374   4.250
59464W        W20995  15.143  22.142   9.603
59465W        W20996  40.404  29.592  13.314
59466W        W20997   4.725  34.555  12.344
59467W        W20998   6.738  18.719   0.785
59468W        W20999  41.976   1.286  14.459
59469W        W21000  11.256  37.342   2.336
59470W        W21001   1.950   7.759  13.440
59471W        W21002  34.575  28.149  13.797
59472W        W21003   6.900  36.962  13.518
59473W        W21004  33.940  44.365  10.018
59474W        W21005   5.761  34.061  12.845
59475W        W21006  38.924   1.275  13.365
59476W        W21007  32.046   2.396  11.506
59477W        W21008   4.810  15.773   9.954
59478W        W21009  17.184  44.308   1.899
59479W        W21010  38.407   0.800   3.211
59480W        W21011   3.730  33.986  11.068
59481W        W21012  26.463  26.511  10.412
59482W        W21013  15.614  42.859  11.085
59483W        W21014   3.400  12.622  13.945
59484W        W21015   3.716  20.090  13.938
59485W        W21016  38.455  12.667  14.374
59486W        W21017  36.527  31.076   3.783
59487W        W21018  25.618  19.250   3.226
59488W        W21019   6.288  35.411   3.296
59489W        W21020  27.481  34.523   3.816
59490W        W21021   8.768  30.656  12.436
59491W        W21022  31.437  37.913   5.208
59492W        W21023  13.755  42.873   4.614
59493W        W21024  24.985  15.755  11.929
59494W        W21025   2.780  36.953   1.890
59495W        W21026  19.173  21.528   1.867
59496W        W21027  42.867   3.835   2.389
59497W        W21028   6.399  28.445   4.797
59498W        W21029  36.038  44.339  14.824
59499W        W21030   4.877  25.991   1.920
59500W        W21031  31.435   8.875   9.965
59501W        W21032  29.951  35.529   3.704
59502W        W21033   1.463   6.881   3.730
59503W        W21034  11.345  21.520  11.436
59504W        W21035   0.877  25.525  10.891
59505W        W21036  40.510   7.323   1.826
59506W        W21037  30.056  16.778   3.158
59507W        W21038  41.538  42.493  13.329
59508W        W21039  39.006  27.648   4.305
59509W        W21040  41.481  22.088  13.892
59510W        W21041  32.447  41.984  11.538
59511W        W21042  43.508   3.909   4.629
59512W        W21043  24.559  39.960   4.221
59513W        W21044  12.805  19.183   2.674
59514W        W21045  34.517  16.288  12.510
59515W        W21046  13.269   9.298  12.448
59516W        W21047  28.568  32.397  11.380
59517W        W21048   8.354  42.434  14.505
59518W        W21049  40.326  29.438   3.640
59519W        W21050  26.497   6.423  14.287
59520W        W21051   8.172  33.574   3.318
59521W        W21052  15.771   4.903   0.379
59522W        W21053   7.804   3.757  13.825
59523W        W21054  23.075   5.891  14.891
59524W        W21055   1.733  14.136   1.388
59525W        W21056  27.096  25.189  13.830
59526W        W21057  44.339  32.031   1.403
59527W        W21058  32.955   4.355  12.039
59528W        W21059   4.762   7.266  11.558
59529W        W21060  21.238  29.075  14.472
59530W        W21061  21.600  16.744  11.384
59531W        W21062  37.526  34.888  14.342
59532W        W21063  32.628   9.873   4.210
59533W        W21064  28.973  44.972   1.694
59534W        W21065   5.219  25.681  13.986
59535W        W21066  22.610   4.434  11.062
59536W        W21067  42.999   9.877   3.188
59537W        W21068  31.036  25.703   4.633
59538W        W21069  40.422  31.402  13.385
59539W        W21070   4.392   7.403  11.580
59540W        W21071  29.534  36.580  14.022
59541W        W21072   4.238  36.880   3.277
59542W        W21073  22.067  26.669   1.878
59543W        W21074  14.117  10.862   3.339
59544W        W21075  12.783  26.198   4.199
59545W        W21076  34.902  16.673  13.523
59546W        W21077  31.537  21.522   4.246
59547W        W21078  27.005  25.494  12.955
59548W        W21079  12.851  31.974  12.571
59549W        W21080  38.352   8.881  13.954
59550W        W21081  40.396   9.677  12.456
59551W        W21082   4.818  32.397   4.644
59552W        W21083  38.458  38.045  13.029
59553W        W21084  28.968  15.713   1.772
59554W        W21085  26.968  19.216  12.523
59555W        W21086  12.666  10.376  11.544
59556W        W21087   9.177   1.977  12.992
59557W        W21088  24.101  12.702  14.496
59558W        W21089  23.159   6.888  11.106
59559W        W21090  30.019  36.379  11.099
59560W        W21091  30.114  41.873   0.925
59561W        W21092  17.101  35.886  12.354
59562W        W21093  18.213  20.106   1.781
59563W        W21094   1.789   5.327   0.342
59564W        W21095  26.027  37.947   3.183
59565W        W21096  32.931  16.209   2.293
59566W        W21097   6.868  26.695  10.067
59567W        W21098  18.739  13.750  10.461
59568W        W21099   1.830  10.197   0.913
59569W        W21100  19.634   5.363   1.378
59570W        W21101  20.649   5.356   4.196
59571W        W21102  17.120  26.084   2.860
59572W        W21103   6.427  25.617   3.664
59573W        W21104  35.029   0.385   9.969
59574W        W21105  42.946  22.124   1.831
59575W        W21106  22.723  14.682   4.714
59576W        W21107  27.570  27.548  12.480
59577W        W21108  35.054   2.433  12.526
59578W        W21109  30.484  15.823  14.321
59579W        W21110  34.546   2.827   4.652
59580W        W21111  21.571  26.099  11.502
59581W        W21112   8.285  39.871  11.083
59582W        W21113   5.415  19.199   2.213
59583W        W21114  22.191   9.675   1.316
59584W        W21115  34.433  36.934   2.873
59585W        W21116   6.248  21.032  10.430
59586W        W21117  28.150  21.723   0.906
59587W        W21118  18.178  29.957  14.773
59588W        W21119  35.373  18.679  14.313
59589W        W21120  14.604   3.456  10.919
59590W        W21121  30.495  42.953   3.733
59591W        W21122  25.483  33.995  10.046
59592W        W21123  29.462  28.440  11.426
59593W        W21124   0.936   8.400   3.361
59594W        W21125  36.897  23.053  13.393
59595W        W21126   7.708  23.513   0.313
59596W        W21127  22.208  30.435   3.317
59597W        W21128  23.540  42.974   3.201
59598W        W21129  39.427  31.552  13.824
59599W        W21130   7.335  13.263   0.965
59600W        W21131  10.151  26.642  11.910
59601W        W21132  26.140  34.525   0.957
59602W        W21133  43.416  35.467   1.737
59603W        W21134  40.542  34.024  12.413
59604W        W21135  32.990  22.245   2.247
59605W        W21136   1.855  32.956   1.309
59606W        W21137   3.280  26.491   5.796
59607W        W21138   8.762  38.544  13.020
59608W        W21139  36.412   2.227  10.454
59609W        W21140  31.960  31.528   3.787
59610W        W21141  33.937  22.707  10.455
59611W        W21142  28.092  40.900   0.483
59612W        W21143  16.109  20.618   1.780
59613W        W21144  38.059  22.614   0.470
59614W        W21145   6.814   8.670   1.258
59615W        W21146   8.690  37.840  13.045
59616W        W21147  18.073  14.166   2.779
59617W        W21148  33.882  32.996   4.223
59618W        W21149  14.616  15.662   3.378
59619W        W21150  14.175  36.849  13.487
59620W        W21151  21.251  21.674  13.413
59621W        W21152  43.508  25.037  10.615
59622W        W21153  13.759  43.786   3.690
59623W        W21154  37.381  42.974  13.332
59624W        W21155  28.531  17.579   1.336
59625W        W21156  11.859  10.301   3.368
59626W        W21157   0.867  14.227   1.441
59627W        W21158  27.592   0.302   4.698
59628W        W21159  34.424   9.646   0.367
59629W        W21160  12.129  40.373   1.267
59630W        W21161   9.322  34.582   1.399
59631W        W21162   2.945  27.665   4.243
59632W        W21163  12.754  30.448  10.904
59633W        W21164  40.423  28.052   1.924
59634W        W21165  41.863  38.465  11.042
59635W        W21166   2.443  13.694   2.842
59636W        W21167   3.242   4.712  13.887
59637W        W21168   1.318  26.066  14.321
59638W        W21169   0.302   3.828  13.954
59639W        W21170  32.511   1.776  10.428
59640W        W21171  35.973   6.189  14.016
59641W        W21172  17.713  28.445   1.360
59642W        W21173  25.626  29.145  10.453
59643W        W21174  36.907   9.774   3.749
59644W        W21175   7.864   2.286   1.887
59645W        W21176  27.999   7.690  13.029
59646W        W21177  39.049  38.954  10.058
59647W        W21178  14.136  24.577   0.808
59648W        W21179   4.872  44.759   4.192
59649W        W21180  11.284  29.024   0.872
59650W        W21181  31.067  40.403   3.363
59651W        W21182   1.248   0.855   0.303
59652W        W21183  41.386   6.831  14.848
59653W        W21184  36.003  42.865  14.447
59654W        W21185   2.300   3.258  14.377
59655W        W21186  40.911  23.584   4.657
59656W        W21187   2.779  27.178   0.354
59657W        W21188  30.060  36.573  12.533
59658W        W21189  17.063  37.866   1.721
59659W        W21190  13.178  26.007   4.795
59660W        W21191  12.635   9.388   2.180
59661W        W21192  22.134  31.519   0.764
59662W        W21193  23.662  26.986  10.986
59663W        W21194   5.794  40.525  11.543
59664W        W21195  10.158   2.779   0.856
59665W        W21196  41.971  39.041  13.969
59666W        W21197  15.263   9.704   2.269
59667W        W21198  31.987   4.799  14.914
59668W        W21199  27.624   8.376  12.371
59669W        W21200   3.929  18.266   2.700
59670W        W21201   4.413  28.440   2.210
59671W        W21202   4.814  23.647   1.293
59672W        W21203  35.874   4.833   1.740
59673W        W21204  28.617  27.051   4.607
59674W        W21205   7.370  14.170  10.943
59675W        W21206  19.692   4.372  14.923
59676W        W21207  13.259  37.385   4.254
59677W        W21208   3.825  20.754  13.968
59678W        W21209  28.948  20.250  11.603
59679W        W21210   9.873  18.123  12.906
59680W        W21211  37.071  20.726  12.012
59681W        W21212   8.331  36.894  13.477
59682W        W21213  11.262   4.392   0.836
59683W        W21214  27.582  24.514   3.675
59684W        W21215   1.352  10.181  12.488
59685W        W21216  16.219  33.991  13.803
59686W        W21217  41.880   8.172   4.698
59687W        W21218  11.656  33.424  11.520
59688W        W21219  18.582  38.964   5.091
59689W        W21220  44.930  44.345   3.694
59690W        W21221  11.370  31.127   1.772
59691W        W21222  25.213  10.272   1.861
59692W        W21223   0.884  15.736   0.371
59693W        W21224  39.371  18.135  10.608
59694W        W21225  41.036  42.905  14.477
59695W        W21226  14.756  33.014  14.815
59696W        W21227  37.489  15.295   1.400
59697W        W21228   8.798  40.460  11.050
59698W        W21229  38.386  12.636  11.071
59699W        W21230  30.449  27.507   0.876
59700W        W21231   7.200  12.128   2.702
59701W        W21232  17.242  13.808  14.380
59702W        W21233  11.746  24.210   1.907
59703W        W21234  33.505  35.475   1.873
59704W        W21235  12.808   5.335   2.881
59705W        W21236  19.623   4.267  12.997
59706W        W21237  41.975  37.084  11.947
59707W        W21238  32.610  23.217  13.020
59708W        W21239   8.744  12.694  13.810
59709W        W21240  18.131   9.303  14.283
59710W        W21241  14.289   2.398   4.124
59711W        W21242  34.599   4.726  13.924
59712W        W21243  17.225  32.942  13.492
59713W        W21244  38.891  27.612   1.849
59714W        W21245   0.316   6.413  14.323
59715W        W21246  15.682  40.962  11.378
59716W        W21247  19.581  26.183   4.201
59717W        W21248  27.616  38.420   0.950
59718W        W21249  42.977  41.526  14.822
59719W        W21250  13.791  15.092  14.760
59720W        W21251  28.169  23.087   0.244
59721W        W21252   7.743  24.052  11.423
59722W        W21253  17.644  17.780  14.790
59723W        W21254  11.813  38.966  11.474
59724W        W21255  41.323  27.170  12.955
59725W        W21256   2.944  34.867  13.490
59726W        W21257  40.351  40.484   3.364
59727W        W21258  34.584  10.669   2.821
59728W        W21259  12.166  43.851   1.704
59729W        W21260  40.436  16.236  12.000
59730W        W21261  33.605  35.999   1.340
59731W        W21262  17.249  38.487  12.545
59732W        W21263  29.944  19.695   3.794
59733W        W21264  26.540  43.291  11.421
59734W        W21265  32.984  37.965  11.998
59735W        W21266  44.963  39.450  11.114
59736W        W21267  17.226  32.478   1.728
59737W        W21268  29.072  22.055   2.237
59738W        W21269  32.414  26.596   3.809
59739W        W21270  38.365  34.896   1.919
59740W        W21271  37.476  39.940   3.667
59741W        W21272  33.098  36.966  14.483
59742W        W21273  12.305  11.673   2.181
59743W        W21274  15.271  41.844  14.318
59744W        W21275   4.218  41.536   2.378
59745W        W21276  39.877  19.773   3.653
59746W        W21277   0.829  34.386  14.385
59747W        W21278  19.155   1.293   4.615
59748W        W21279  10.855  23.029   4.126
59749W        W21280  33.501   1.380  11.380
59750W        W21281  29.543   9.228   3.714
59751W        W21282  19.774  41.948   4.777
59752W        W21283  16.186  18.133  11.858
59753W        W21284  18.616  42.438   0.417
59754W        W21285  21.651  12.312  14.982
59755W        W21286   9.218  15.628   4.312
59756W        W21287  13.775  31.402  14.352
59757W        W21288  18.147  44.357  14.464
59758W        W21289  18.260  22.523  14.288
59759W        W21290  35.064  11.851   1.801
59760W        W21291  12.774  35.491   4.127
59761W        W21292  18.580  21.723   4.686
59762W        W21293   5.702  19.098   3.367
59763W        W21294  29.167  23.558  12.993
59764W        W21295  35.543  41.980   0.351
59765W        W21296  11.861  38.028   2.285
59766W        W21297   9.358   1.884  11.949
59767W        W21298   9.230  14.745   2.336
59768W        W21299  34.894  36.522   9.455
59769W        W21300  19.151  38.493  10.959
59770W        W21301  13.752  12.643  14.831
59771W        W21302  40.457  23.496   2.343
59772W        W21303  19.565  15.128   0.799
59773W        W21304   1.467  37.550   3.308
59774W        W21305  18.177  22.729   0.767
59775W        W21306   9.177   9.765  12.080
59776W        W21307  12.820  41.328  14.772
59777W        W21308  23.699  25.196   2.730
59778W        W21309  16.773  37.337   0.964
59779W        W21310  35.952  33.107  12.896
59780W        W21311   9.772  37.948  14.375
59781W        W21312  32.023  41.530   1.222
59782W        W21313  22.598  15.161   2.292
59783W        W21314  32.393  19.243  14.878
59784W        W21315   1.449  32.618  13.499
59785W        W21316  38.505  25.152  10.605
59786W        W21317   4.437  27.554  10.972
59787W        W21318  11.622   2.303   1.708
59788W        W21319  24.696  33.014   4.672
59789W        W21320  43.912  25.166   0.338
59790W        W21321   5.837  35.451  12.535
59791W        W21322  44.968   6.899  13.473
59792W        W21323  21.665  16.579   3.309
59793W        W21324  36.929   2.787   0.754
59794W        W21325   7.753  42.908   1.740
59795W        W21326  28.480   4.218   4.245
59796W        W21327   8.740  13.792  12.097
59797W        W21328  36.476  22.532   3.307
59798W        W21329  22.996  17.306  12.964
59799W        W21330  41.386  37.038   3.849
59800W        W21331  22.011  18.611  12.468
59801W        W21332  30.492  11.809   0.303
59802W        W21333   1.844  27.016   3.220
59803W        W21334   9.164  25.580  13.485
59804W        W21335  45.000  25.665  11.610
59805W        W21336  32.138   6.234   2.239
59806W        W21337  20.061   3.735  12.478
59807W        W21338  32.126  35.046   1.414
59808W        W21339  22.516  25.023   0.392
59809W        W21340  44.280  20.623  14.355
59810W        W21341   3.797  23.227  13.827
59811W        W21342  24.488  42.322  11.922
59812W        W21343  17.607  36.064  10.991
59813W        W21344  24.079  10.721  13.340
59814W        W21345   4.423  28.994   0.787
59815W        W21346  44.893   5.904  13.358
59816W        W21347  32.623  23.736   5.242
59817W        W21348  33.079   2.449  14.770
59818W        W21349  34.495  23.545   4.326
59819W        W21350  17.269   1.323   4.651
59820W        W21351  28.948   3.419  12.995
59821W        W21352  22.055   7.835   1.366
59822W        W21353  37.041   2.361   1.290
59823W        W21354  21.666  31.120   2.290
59824W        W21355  34.956   3.441  11.565
59825W        W21356  43.350  40.900  12.893
59826W        W21357  22.578  44.295   2.336
59827W        W21358  44.500  10.835  12.535
59828W        W21359  30.992  12.144  12.490
59829W        W21360  22.625  37.442   1.428
59830W        W21361  15.768  11.201   2.849
59831W        W21362  36.988  33.944   0.760
59832W        W21363  17.696   4.749  10.571
59833W        W21364  24.106  22.078  11.991
59834W        W21365  23.613  15.246   4.158
59835W        W21366  42.836  32.471   2.894
59836W        W21367  16.725   0.762  11.974
59837W        W21368  37.007  39.442   0.822
59838W        W21369  40.884  39.474   2.343
59839W        W21370  12.819  39.975  11.015
59840W        W21371   5.908   6.365  10.591
59841W        W21372  34.897  19.769  10.924
59842W        W21373  37.441   2.903  11.542
59843W        W21374  25.172   2.419  12.449
59844W        W21375  30.943  22.043   3.855
59845W        W21376  12.152   2.904  13.916
59846W        W21377   2.882  13.709   4.744
59847W        W21378  42.009  29.659  12.074
59848W        W21379   6.256  34.968   0.915
59849W        W21380  23.141  13.749  13.457
59850W        W21381  26.700  40.316   3.378
59851W        W21382  18.620  20.254   2.282
59852W        W21383  22.559   6.375   2.865
59853W        W21384   6.324  16.733  14.401
59854W        W21385  23.597  18.064   1.746
59855W        W21386  11.761  27.638  12.523
59856W        W21387  23.554  23.576   0.834
59857W        W21388  17.650  11.178   4.793
59858W        W21389  38.895  28.564   0.928
59859W        W21390  28.050  13.235  13.889
59860W        W21391  33.009  14.226   9.576
59861W        W21392   2.447   6.411   1.347
59862W        W21393  17.196  23.576   0.887
59863W        W21394  32.493  40.838   3.243
59864W        W21395  25.579  24.210  12.357
59865W        W21396  27.600  37.358  11.861
59866W        W21397  20.646  11.145   0.861
59867W        W21398  33.984   0.328  10.439
59868W        W21399  35.951  24.498  10.991
59869W        W21400  43.838  12.283   4.774
59870W        W21401  34.109  41.948  13.894
59871W        W21402  33.005  42.948  14.320
59872W        W21403  18.583  37.417   4.248
59873W        W21404   2.748  30.631   2.306
59874W        W21405  24.580  29.156   4.338
59875W        W21406  23.508  33.129  13.877
59876W        W21407   0.444   4.919   4.664
59877W        W21408   3.953  13.246   4.181
59878W        W21409  20.177   3.458   2.801
59879W        W21410  27.942   4.214  11.604
59880W        W21411  31.080  31.467  12.542
59881W        W21412  23.997   4.750   4.801
59882W        W21413   8.323   1.916  12.414
59883W        W21414  20.747  28.141   0.461
59884W        W21415   6.327   8.263   3.287
59885W        W21416  38.861   6.818  14.822
59886W        W21417  42.479  33.903   3.736
59887W        W21418  41.322  31.899  14.397
59888W        W21419  36.849  44.835   0.803
59889W        W21420  25.112  37.876   4.211
59890W        W21421   8.684  31.984  14.311
59891W        W21422  32.410  27.573  11.978
59892W        W21423  42.949  15.147  10.569
59893W        W21424  40.809  25.654   2.764
59894W        W21425  15.305   9.285   1.346
59895W        W21426   6.879   9.368  11.486
59896W        W21427  16.792   8.758   3.642
59897W        W21428   0.328  19.057   4.140
59898W        W21429   2.361  20.611   0.740
59899W        W21430  40.439  41.362  14.387
59900W        W21431  16.733  18.129  12.947
59901W        W21432  43.360  11.728   1.732
59902W        W21433  30.636   0.397  10.155
59903W        W21434   6.848  44.284   2.181
59904W        W21435  21.663  13.627   2.826
59905W        W21436  28.491  42.886   3.260
59906W        W21437  39.343  43.794   4.719
59907W        W21438  13.828  26.603  12.469
59908W        W21439  15.104  18.685  13.858
59909W        W21440   0.800   5.227  12.347
59910W        W21441  43.887  35.922   0.940
59911W        W21442   2.780  21.530  14.441
59912W        W21443   9.289   2.371   2.412
59913W        W21444  23.734  15.824  14.766
59914W        W21445  12.327  27.597  11.971
59915W        W21446  31.047  30.423  11.023
59916W        W21447  40.427  43.788   0.299
59917W        W21448  14.164  32.036  13.877
59918W        W21449  42.807  34.526  13.812
59919W        W21450   4.275  36.877   0.953
59920W        W21451  17.616  37.931  11.012
59921W        W21452  40.326   2.433  13.420
59922W        W21453   2.871   6.789  14.803
59923W        W21454  19.754  33.438  11.055
59924W        W21455  44.473  30.123  12.417
59925W        W21456  32.130  31.609  14.807
59926W        W21457  33.979   5.898   4.777
59927W        W21458  27.974   8.813  14.016
59928W        W21459  18.734   1.842   3.320
59929W        W21460  42.510  29.135  12.562
59930W        W21461  21.117  18.740   3.317
59931W        W21462  22.514  18.556  12.354
59932W        W21463   7.407  12.652   4.621
59933W        W21464  10.785  36.376   3.349
59934W        W21465  35.012   8.846  13.473
59935W        W21466  33.446  35.036  12.913
59936W        W21467  38.508  25.492   2.721
59937W        W21468   0.351  17.064  11.613
59938W        W21469  39.066   1.271   2.244
59939W        W21470  26.192   7.695  13.478
59940W        W21471  12.688  13.780   1.281
59941W        W21472  32.108  25.704   3.858
59942W        W21473  41.804  27.116  12.865
59943W        W21474  10.725  43.382   0.872
59944W        W21475  12.681  37.858  12.444
59945W        W21476  44.411   7.349   0.898
59946W        W21477  38.961  39.345  14.898
59947W        W21478  36.476  19.236  13.431
59948W        W21479  40.972   8.319  10.063
59949W        W21480  12.762  24.069   2.410
59950W        W21481  27.627   5.321  11.122
59951W        W21482  21.692  34.462   4.186
59952W        W21483   3.314  42.956  10.110
59953W        W21484  38.013  20.187  13.538
59954W        W21485  32.521  23.236  10.404
59955W        W21486  19.151   0.256   1.903
59956W        W21487   2.347  18.227  11.034
59957W        W21488   0.846  11.212  11.111
59958W        W21489  31.137  34.966   3.178
59959W        W21490   9.844   7.172  13.821
59960W        W21491  25.647  34.491  10.419
59961W        W21492  27.459  24.187  13.820
59962W        W21493  37.070  35.902   2.182
59963W        W21494  20.274   0.339  12.894
59964W        W21495  11.623  40.955  12.390
59965W        W21496   2.885   4.289  12.466
59966W        W21497  25.993  29.455   2.236
59967W        W21498   9.390   9.373   0.475
59968W        W21499   1.934  11.666   2.234
59969W        W21500  15.807   0.485   2.841
59970W        W21501  26.490  34.426   3.344
59971W        W21502  34.961  31.954   0.913
59972W        W21503   6.895   5.894  14.863
59973W        W21504   5.246   0.259  14.810
59974W        W21505  33.619  28.534   3.685
59975W        W21506  17.249   9.342  12.916
59976W        W21507  34.927  20.050  12.953
59977W        W21508  19.736  27.170   4.748
59978W        W21509  43.864  23.239   3.243
59979W        W21510  12.627  37.438   2.684
59980W        W21511  41.487  22.569  13.531
59981W        W21512  20.110  29.096   4.274
59982W        W21513  39.351  40.800   1.291
59983W        W21514  17.641   1.431   0.273
59984W        W21515   7.703   5.794  11.108
59985W        W21516  29.991   2.892   3.750
59986W        W21517  12.282  40.323  12.564
59987W        W21518   8.787  37.556  13.813
59988W        W21519  37.511  33.471   4.321
59989W        W21520  44.487   1.448  12.943
59990W        W21521  44.787  36.090   0.792
59991W        W21522  32.126  25.148   2.710
59992W        W21523  30.055  44.894   0.846
59993W        W21524  33.026  32.986  11.457
59994W        W21525  40.347  24.605   0.912
59995W        W21526  42.469  40.844   0.483
59996W        W21527  38.390  29.426  11.540
59997W        W21528  17.086  28.965  14.871
59998W        W21529  39.937   0.368   3.251
59999W        W21530  18.111  37.068  12.839
60000W        W21531  43.824  28.467   3.656
60001W        W21532  30.026   3.770  10.493
60002W        W21533  19.261  36.425   1.919
60003W        W21534   6.250  11.648  14.365
60004W        W21535  11.367  31.613  13.037
60005W        W21536  34.971  34.552   3.703
60006W        W21537  16.635  21.670  10.541
60007W        W21538  24.514   6.738  14.510
60008W        W21539  37.005  17.294   0.750
60009W        W21540  38.553   9.280   2.833
60010W        W21541  22.600  44.916   1.716
60011W        W21542  38.370  14.805  12.848
60012W        W21543   9.657  24.097  12.022
60013W        W21544   3.414  38.466  14.996
60014W        W21545  19.636  20.769   1.376
60015W        W21546  10.662  36.432   1.346
60016W        W21547  29.920  22.618   3.283
60017W        W21548   2.856  19.068  13.325
60018W        W21549  28.564  25.202  14.482
60019W        W21550   4.731  23.047   2.345
60020W        W21551  23.610  21.547  14.994
60021W        W21552  25.148  26.082  14.006
60022W        W21553  35.980  39.812  12.499
60023W        W21554  15.328   1.301  11.096
60024W        W21555  11.718  12.629   3.701
60025W        W21556  28.125  36.437   2.694
60026W        W21557  39.956  37.550  10.490
60027W        W21558  13.330  19.668   0.855
60028W        W21559   2.402  19.231  10.614
60029W        W21560  32.984  11.779   1.245
60030W        W21561  33.464   0.916  12.047
60031W        W21562   9.761  11.348   4.738
60032W        W21563  10.231  13.194   4.292
60033W        W21564  26.131  34.488   0.461
60034W        W21565  15.669  28.094   4.770
60035W        W21566  28.489  39.024  14.861
60036W        W21567  24.211  15.609  14.965
60037W        W21568  29.475  43.463  14.393
60038W        W21569  13.229   5.217   2.178
60039W        W21570  18.289  22.998  12.904
60040W        W21571  18.225  12.688   1.760
60041W        W21572  11.356  20.041   3.284
60042W        W21573  18.229  26.473  14.456
60043W        W21574  19.721  35.413  10.923
60044W        W21575  41.311   3.866   1.388
60045W        W21576  22.652  44.465   0.934
60046W        W21577  11.327  10.339   1.733
60047W        W21578  19.079  42.885  10.581
60048W        W21579  16.797  16.107  11.412
60049W        W21580  20.528  28.946  14.489
60050W        W21581  26.028  23.040  13.316
60051W        W21582  21.209  39.984   2.234
60052W        W21583  29.637  26.586   2.836
60053W        W21584  13.608  37.445   2.314
60054W        W21585  27.653   2.268   3.232
60055W        W21586  16.206  22.045  11.091
60056W        W21587  39.370  37.455  12.096
60057W        W21588  25.555  19.285   0.384
60058W        W21589  32.610  12.826   4.688
60059W        W21590   2.811  41.847  13.513
60060W        W21591  31.595  20.532  11.539
60061W        W21592  41.378  42.292   0.356
60062W        W21593  29.924  36.997  12.438
60063W        W21594   8.718   3.755   1.328
60064W        W21595  31.478  19.681  14.954
60065W        W21596   0.490  21.082   0.904
60066W        W21597   2.381  36.907  12.069
60067W        W21598  32.409  10.763   2.754
60068W        W21599  22.520  37.487  14.926
60069W        W21600  37.983  24.106  11.119
60070W        W21601  44.381   2.335   0.803
60071W        W21602   0.951  34.919   0.740
60072W        W21603  39.990  15.661   4.241
60073W        W21604  22.229  26.505   3.636
60074W        W21605  44.934   8.680   0.748
60075W        W21606   8.345  33.448  12.477
60076W        W21607  17.585   0.925   0.401
60077W        W21608  16.684  33.961  11.020
60078W        W21609  36.080  40.983  10.428
60079W        W21610   9.707  12.658   4.673
60080W        W21611   0.939  40.422  13.864
60081W        W21612   6.760  36.523   3.819
60082W        W21613  32.510  10.816   0.292
60083W        W21614   0.280  27.491   1.813
60084W        W21615  34.939   5.372   4.274
60085W        W21616  42.874  39.031   0.292
60086W        W21617  18.672  19.537   4.662
60087W        W21618  32.905  39.903  11.058
60088W        W21619  12.616  30.096  11.492
60089W        W21620  39.950   2.413   3.168
60090W        W21621  41.970  17.595  11.519
60091W        W21622  39.396  18.787  13.042
60092W        W21623  25.694  20.539  12.892
60093W        W21624  24.032   4.735   0.361
60094W        W21625  22.251  30.022   3.242
60095W        W21626  27.611  44.947  12.853
60096W        W21627  25.009  16.311   2.341
60097W        W21628  11.686  36.347  10.895
60098W        W21629   2.858  16.649  13.835
60099W        W21630  38.022   5.883   4.267
60100W        W21631  19.187  37.877  14.896
60101W        W21632  18.791   9.264  12.836
60102W        W21633  17.081   4.722   3.163
60103W        W21634  20.594  39.423   0.371
60104W        W21635  17.117  11.193  12.069
60105W        W21636   9.238   9.647   3.331
60106W        W21637  36.079  44.944   1.912
60107W        W21638  43.380  42.501   3.315
60108W        W21639   5.766   6.849  11.591
60109W        W21640  39.845  12.309   0.911
60110W        W21641  40.406  41.969   4.315
60111W        W21642  31.077  13.290   0.315
60112W        W21643  31.419  35.097  11.946
60113W        W21644   7.689   8.830   1.382
60114W        W21645  39.373  27.587   1.217
60115W        W21646  43.300  24.092  13.877
60116W        W21647  22.682  38.511  14.911
60117W        W21648  11.127  31.906  10.612
60118W        W21649  15.697  40.436   5.129
60119W        W21650  15.712  22.203  11.873
60120W        W21651  20.063  11.642  11.104
60121W        W21652  17.067  28.601  12.833
60122W        W21653   2.446   7.333   3.811
60123W        W21654  20.547  16.576   4.821
60124W        W21655   7.824  21.230  13.828
60125W        W21656   2.304  18.128   1.908
60126W        W21657  15.237  20.157  11.955
60127W        W21658  41.446  32.076   0.935
60128W        W21659  16.813  20.219  11.595
60129W        W21660  25.047   8.684  10.923
60130W        W21661  20.561  43.474   4.178
60131W        W21662  40.484   3.382   5.244
60132W        W21663  11.677  11.374  11.490
60133W        W21664   0.485  36.490  13.525
60134W        W21665  29.175  34.539   0.799
60135W        W21666   6.808  13.273   1.845
60136W        W21667   8.367  29.478  12.975
60137W        W21668  27.552  18.245  13.507
60138W        W21669   6.251  40.549  14.865
60139W        W21670  25.126  12.278   0.484
60140W        W21671   3.247   6.240   5.088
60141W        W21672  12.685  23.544   4.757
60142W        W21673  27.161  23.596  11.964
60143W        W21674  25.073  41.475   1.762
60144W        W21675  10.734  18.148   5.255
60145W        W21676  17.593  20.107  11.944
60146W        W21677  35.379  28.024   1.935
60147W        W21678  23.112  26.642   4.746
60148W        W21679   4.279  28.586  13.443
60149W        W21680  21.087   9.804   1.351
60150W        W21681   0.365   8.666   1.888
60151W        W21682  30.959   1.833   1.371
60152W        W21683  34.454  41.538  11.077
60153W        W21684  42.327  23.143   2.752
60154W        W21685  16.217  23.694  12.455
60155W        W21686  14.142   1.811   4.617
60156W        W21687  27.486  35.983   0.906
60157W        W21688  30.977  36.085  11.954
60158W        W21689   6.271   9.686  14.384
60159W        W21690   9.296  16.252   3.744
60160W        W21691   0.828   1.732  14.429
60161W        W21692  16.616  21.211  10.524
60162W        W21693   8.303  38.524   2.206
60163W        W21694  12.810  19.656  14.291
60164W        W21695  33.918  13.675  10.103
60165W        W21696  33.882  34.482   2.193
60166W        W21697   3.749   7.211  10.588
60167W        W21698  24.152  37.080  12.844
60168W        W21699  14.158  43.972  13.004
60169W        W21700  36.911  21.602   2.218
60170W        W21701  36.526  22.724  13.978
60171W        W21702  12.629  26.003   2.782
60172W        W21703  39.381   2.889   4.628
60173W        W21704  16.652  19.184   3.766
60174W        W21705  27.999   1.779   3.719
60175W        W21706  34.539  35.517  13.388
60176W        W21707   0.417  40.973  13.906
60177W        W21708  17.776  15.148  12.504
60178W        W21709   5.767   4.280   3.847
60179W        W21710   4.256  17.739  13.462
60180W        W21711  25.547  33.050   3.662
60181W        W21712  39.918  22.614  12.934
60182W        W21713  29.614  35.953  14.030
60183W        W21714   8.714  23.991   4.332
60184W        W21715  23.191   3.324   2.827
60185W        W21716  43.884  24.683   3.690
60186W        W21717  35.541  36.529   0.348
60187W        W21718  21.234  44.759   0.939
60188W        W21719  30.139   0.467   3.175
60189W        W21720  43.890  42.383   1.295
60190W        W21721   9.808  35.490   1.263
60191W        W21722  28.075  11.667  14.922
60192W        W21723  27.051   6.228   1.445
60193W        W21724  44.987  39.559  14.814
60194W        W21725  25.200   6.251  13.437
60195W        W21726  18.118  43.472   4.711
60196W        W21727  21.529   6.811  14.015
60197W        W21728  40.437  32.465  13.347
60198W        W21729  40.940  10.859   3.769
60199W        W21730  35.463  41.375  11.570
60200W        W21731  25.636   9.687  11.475
60201W        W21732  38.374  43.392  11.116
60202W        W21733  13.112  33.035   2.812
60203W        W21734  11.670  17.175  12.564
60204W        W21735  27.978  10.198   2.339
60205W        W21736  14.617  11.297  13.834
60206W        W21737   5.727  44.985   0.788
60207W        W21738  37.917  32.970   3.271
60208W        W21739  12.685   7.307  14.954
60209W        W21740  36.874  31.491  12.506
60210W        W21741  11.844  12.164   2.716
60211W        W21742  43.460  21.197  14.940
60212W        W21743   4.813  37.081   3.147
60213W        W21744  40.331  41.322  12.437
60214W        W21745  39.063   4.896   4.207
60215W        W21746  19.053   6.802  13.797
60216W        W21747   0.322  12.807  12.344
60217W        W21748  30.949   0.330   4.321
60218W        W21749  27.667  41.448   1.795
60219W        W21750  15.254   8.763   4.782
60220W        W21751  41.538  23.493  13.500
60221W        W21752  28.985  26.093  13.363
60222W        W21753   7.289  42.482   0.936
60223W        W21754   8.861  23.189   1.771
60224W        W21755  31.071   4.236   2.867
60225W        W21756  17.231   1.369  12.387
60226W        W21757  43.325  12.767   3.354
60227W        W21758  14.118  37.887   3.214
60228W        W21759  26.633  24.519  11.006
60229W        W21760  20.223   4.405   3.286
60230W        W21761  36.363  43.936  10.431
60231W        W21762  14.332  25.523   3.659
60232W        W21763   0.850   4.823  13.989
60233W        W21764  25.216  14.330   0.324
60234W        W21765  34.553  33.610   0.766
60235W        W21766   6.186  26.530   3.812
60236W        W21767  14.696  33.067  13.534
60237W        W21768   0.840  42.948  13.412
60238W        W21769   1.933  12.233   2.263
60239W        W21770   9.190   2.441   3.161
60240W        W21771  30.056  42.841   5.138
60241W        W21772  12.759  31.629   1.389
60242W        W21773  30.138  43.347  12.545
60243W        W21774  24.582   1.897  10.908
60244W        W21775  43.305  42.387   2.791
60245W        W21776  42.377  31.038  14.438
60246W        W21777  38.828   9.171  11.429
60247W        W21778   2.443   8.750   1.327
60248W        W21779  33.940  13.179   4.689
60249W        W21780  22.110  19.741   1.862
60250W        W21781  11.157  39.967   1.297
60251W        W21782  10.709   2.844   1.431
60252W        W21783  44.494  27.536  14.406
60253W        W21784  42.387  11.867  12.013
60254W        W21785  16.567  39.897  10.529
60255W        W21786  14.725   6.859  11.549
60256W        W21787  40.970   0.964   4.732
60257W        W21788  38.506  42.509  10.495
60258W        W21789  30.130  10.759  10.448
60259W        W21790  34.602  28.676  14.425
60260W        W21791  11.822  22.248   4.250
60261W        W21792  16.629   9.383   0.789
60262W        W21793  39.330  37.024  12.047
60263W        W21794  16.678  18.768  10.598
60264W        W21795   8.221  19.733   0.776
60265W        W21796   6.272  32.092   2.900
60266W        W21797  38.454  13.822  13.336
60267W        W21798  39.930  39.927  14.886
60268W        W21799   3.373  16.081  14.949
60269W        W21800  14.801   9.664  10.955
60270W        W21801  21.558  13.789  13.967
60271W        W21802  40.822  28.461   3.348
60272W        W21803   9.346  20.094  11.598
60273W        W21804  29.998  25.030   2.737
60274W        W21805  13.691  15.086  13.865
60275W        W21806  37.484  14.332  14.916
60276W        W21807  42.479  38.060   1.314
60277W        W21808  31.588   3.922  13.523
60278W        W21809  13.790  27.556  13.380
60279W        W21810  18.690  19.769  13.812
60280W        W21811  39.455  37.876  14.324
60281W        W21812  19.717   6.794  10.425
60282W        W21813  13.665   8.771  13.407
60283W        W21814   8.275  39.859  12.054
60284W        W21815  22.562  33.404  12.901
60285W        W21816  26.148  29.447  11.571
60286W        W21817   6.796  17.724  12.853
60287W        W21818  41.029  11.740   0.255
60288W        W21819  36.556   1.388  14.952
60289W        W21820  14.312  39.965   0.250
60290W        W21821  19.648  11.848   4.301
60291W        W21822  33.563  27.684  10.030
60292W        W21823  31.515  24.194  10.420
60293W        W21824  34.018  39.543   0.403
60294W        W21825   6.839  39.474   2.725
60295W        W21826  20.050   5.797  14.370
60296W        W21827  40.843  40.410  13.396
60297W        W21828  31.084  26.553   1.861
60298W        W21829   8.183  21.163   0.957
60299W        W21830  21.051   2.316   3.275
60300W        W21831  41.913  33.599  13.523
60301W        W21832  15.145  13.153  10.543
60302W        W21833  39.899  24.702   1.750
60303W        W21834  42.452  25.986   1.765
60304W        W21835  33.527   9.679  13.031
60305W        W21836  30.466   4.855   0.359
60306W        W21837  11.308  26.592  11.942
60307W        W21838   8.854  31.409   0.308
60308W        W21839  18.769  27.608   2.363
60309W        W21840  28.630   0.870  14.942
60310W        W21841  36.897  42.347   0.403
60311W        W21842  25.496  36.899  11.893
60312W        W21843  43.842  33.473  14.802
60313W        W21844  29.951  21.562   3.816
60314W        W21845  44.306  34.432  13.516
60315W        W21846  12.793  30.165   0.317
60316W        W21847  12.347  10.253  11.096
60317W        W21848  26.582  10.800  11.472
60318W        W21849   5.899  22.580  12.560
60319W        W21850  10.312  14.692  14.385
60320W        W21851  20.639  13.823   1.227
60321W        W21852  27.664  31.544   1.877
60322W        W21853  33.953  25.547  14.408
60323W        W21854  36.931  17.633   0.839
60324W        W21855   4.429  19.276  14.297
60325W        W21856  17.589  41.367  11.463
60326W        W21857  40.323  18.672  14.405
60327W        W21858  28.549  33.587   9.973
60328W        W21859   2.809  37.927  12.922
60329W        W21860  38.548   2.765   1.377
60330W        W21861   9.377  13.249  13.961
60331W        W21862  15.243  35.969  13.844
60332W        W21863   1.246  24.121   9.623
60333W        W21864  19.061  15.091   2.791
60334W        W21865  27.629  37.855  10.900
60335W        W21866  17.641  38.487   0.280
60336W        W21867  24.225   8.267   1.275
60337W        W21868  28.959  24.485   4.145
60338W        W21869  22.735  38.986   0.408
60339W        W21870  24.150  41.430   3.857
60340W        W21871  40.527   3.732   3.658
60341W        W21872  16.749  38.007  14.934
60342W        W21873  16.569   8.807   1.355
60343W        W21874  23.628  35.026  11.992
60344W        W21875   3.933  23.616   4.167
60345W        W21876  10.315  24.566   1.363
60346W        W21877  22.999  42.288   4.837
60347W        W21878  36.499  40.853  14.018
60348W        W21879  41.998  33.526   0.795
60349W        W21880  14.331  36.037   2.753
60350W        W21881  14.820   4.423   2.751
60351W        W21882  16.696   1.255   0.924
60352W        W21883  42.519  10.867  13.494
60353W        W21884  14.211  37.454  12.827
60354W        W21885  37.035  24.489   4.829
60355W        W21886  29.618  18.617  14.964
60356W        W21887  13.120   3.902  13.356
60357W        W21888  18.659  12.264   1.234
60358W        W21889   0.402   8.336  14.817
60359W        W21890  10.157  39.374   2.748
60360W        W21891  40.505   8.349   0.845
60361W        W21892  39.468  13.278  10.121
60362W        W21893  38.964  23.732   5.270
60363W        W21894  14.713  26.462   0.814
60364W        W21895  12.826  23.059  11.894
60365W        W21896   0.397   4.391  10.525
60366W        W21897  31.969  32.963  10.901
60367W        W21898  24.643  27.613   1.447
60368W        W21899  20.522  20.633   0.820
60369W        W21900   4.249  22.642   0.830
60370W        W21901  30.127  14.302  13.469
60371W        W21902  16.789  37.938   1.285
60372W        W21903  11.721  32.588  11.389
60373W        W21904  38.473  43.929  11.584
60374W        W21905  17.159  43.915  12.460
60375W        W21906  16.692  15.696  13.386
60376W        W21907  15.701   3.950  13.046
60377W        W21908  35.058   3.724   3.351
60378W        W21909  42.338  10.195   2.218
60379W        W21910  29.532  25.606   1.397
60380W        W21911  25.962  27.676  14.497
60381W        W21912  24.548   4.418   3.869
60382W        W21913  11.240  39.465  14.032
60383W        W21914  37.438  25.550   0.853
60384W        W21915   9.732  41.415  10.498
60385W        W21916  27.559   6.289   1.830
60386W        W21917  22.140  41.950   0.343
60387W        W21918  26.181   9.882   3.865
60388W        W21919  10.784  29.158  14.282
60389W        W21920  22.553  18.241   3.820
60390W        W21921  36.947  13.144  14.432
60391W        W21922  27.546  43.929   3.742
60392W        W21923   4.295  21.735  14.838
60393W        W21924  15.631  14.266   4.738
60394W        W21925  16.172   0.271   3.800
60395W        W21926  23.520  14.729  14.781
60396W        W21927  11.336  21.593  14.497
60397W        W21928  32.531   0.912   1.412
60398W        W21929  13.323   5.401   3.375
60399W        W21930  39.012  12.806  14.368
60400W        W21931   9.308  14.244  12.094
60401W        W21932  25.549   8.664  11.968
60402W        W21933  28.636   0.863  13.964
60403W        W21934  14.727  30.452  11.042
60404W        W21935  38.986   4.252  14.484
60405W        W21936  27.956  34.470  13.321
60406W        W21937  31.058  11.345  13.934
60407W        W21938  41.915   7.417  11.558
60408W        W21939  19.053  29.574  13.031
60409W        W21940  21.056  20.749   3.769
60410W        W21941  33.478  30.512   1.719
60411W        W21942  22.657  20.583   4.344
60412W        W21943   0.298   9.697   4.325
60413W        W21944  13.707  14.604   3.369
60414W        W21945  42.296  36.547  14.882
60415W        W21946  19.073   8.312  11.972
60416W        W21947  32.072  12.634  10.559
60417W        W21948  37.871  10.688   2.265
60418W        W21949  19.695  41.513  10.908
60419W        W21950  14.130  13.619   0.367
60420W        W21951  44.984  17.757   2.394
60421W        W21952  21.056   9.876  14.840
60422W        W21953  18.662   8.212   3.180
60423W        W21954   1.847  32.968  13.007
60424W        W21955  28.146  20.661   1.356
60425W        W21956  32.393  42.850  12.034
60426W        W21957   5.910  10.689   2.861
60427W        W21958   9.290  39.971   3.374
60428W        W21959  42.003  40.316  13.515
60429W        W21960   6.367  22.615   2.750
60430W        W21961  12.816  20.692  12.094
60431W        W21962  22.670  11.712  10.944
60432W        W21963   1.835  11.820  11.947
60433W        W21964  15.794  36.874  12.475
60434W        W21965  30.507   3.721   3.213
60435W        W21966  10.319   7.182  11.923
60436W        W21967  24.064  13.143   3.741
60437W        W21968  43.879  40.880  11.521
60438W        W21969  17.298  20.110  12.549
60439W        W21970  42.858   9.681   4.676
60440W        W21971  44.939   0.274  11.518
60441W        W21972   3.452  13.105   3.252
60442W        W21973  16.140  14.096   4.699
60443W        W21974   1.952   4.779  11.583
60444W        W21975  40.338  43.383  13.357
60445W        W21976  41.495  21.227   0.793
60446W        W21977  34.499  24.166  12.941
60447W        W21978  20.733   7.410  10.557
60448W        W21979  37.419   5.828   4.664
60449W        W21980  37.516  35.994  12.895
60450W        W21981  36.877  43.411  10.593
60451W        W21982   7.182  32.953  14.949
60452W        W21983  35.447  12.714   0.749
60453W        W21984   4.711  30.072   3.147
60454W        W21985  44.319  38.398   3.187
60455W        W21986  26.004  13.611  12.391
60456W        W21987  18.255  32.419   0.365
60457W        W21988  18.742  37.475  11.533
60458W        W21989  27.507   2.789  14.395
60459W        W21990  36.963  44.803  12.510
60460W        W21991  14.827   1.439  10.605
60461W        W21992   2.742  18.104   2.263
60462W        W21993  40.839  40.409  10.543
60463W        W21994  25.587  33.079  11.417
60464W        W21995  11.154  21.656   2.383
60465W        W21996   1.290  39.526  14.343
60466W        W21997  39.441   2.907   3.700
60467W        W21998  37.962   4.375   0.793
60468W        W21999  19.053  15.290  14.374
60469W        W22000  33.097  22.020  12.572
60470W        W22001   7.884  26.595  10.564
60471W        W22002  42.912  35.015   0.749
60472W        W22003  43.787  34.465  13.494
60473W        W22004  10.661  35.471   0.829
60474W        W22005  25.641  23.010   0.428
60475W        W22006  14.097  10.682   1.257
60476W        W22007  31.597  43.458  13.925
60477W        W22008  10.225   2.767  10.930
60478W        W22009  23.512  24.217   1.881
60479W        W22010  39.547  42.782   2.398
60480W        W22011  20.765  25.665   9.444
60481W        W22012  19.124   8.368   1.333
60482W        W22013  12.177  15.131   4.141
60483W        W22014  37.944  14.666   2.709
60484W        W22015   8.405  26.010   3.234
60485W        W22016   1.866  40.921  13.340
60486W        W22017  13.814  32.559   1.373
60487W        W22018  34.454   7.800  12.920
60488W        W22019  22.605  26.476   2.190
60489W        W22020   6.188   3.917  13.908
60490W        W22021  37.859  39.864  10.968
60491W        W22022  26.140   9.796  10.099
60492W        W22023  41.304  28.110   3.856
60493W        W22024  13.351  31.627   0.885
60494W        W22025  24.598   0.850   1.834
60495W        W22026  25.497   7.732  12.037
60496W        W22027  14.231  23.505  13.993
60497W        W22028  13.721  11.199  13.479
60498W        W22029  11.629  32.106  12.081
60499W        W22030  44.430  27.460   1.215
60500W        W22031  20.159   4.938   2.294
60501W        W22032  13.108   1.313   2.382
60502W        W22033  38.427  25.497   1.311
60503W        W22034  18.250  26.472   3.706
60504W        W22035  14.288  40.475   0.267
60505W        W22036   4.825  44.322  14.941
60506W        W22037  35.499  35.891   5.578
60507W        W22038  14.143   2.426  14.369
60508W        W22039  11.740  27.652  13.794
60509W        W22040  12.693  16.076   1.264
60510W        W22041  25.525  35.550   4.143
60511W        W22042  31.125  27.011  14.456
60512W        W22043  31.477  44.889  14.834
60513W        W22044  22.120   9.666  10.534
60514W        W22045   1.870  13.125  12.836
60515W        W22046  31.504  23.589  12.026
60516W        W22047  40.479   5.295  14.983
60517W        W22048  18.639  39.551  10.631
60518W        W22049  18.240  11.740  10.485
60519W        W22050   8.342  28.130   4.297
60520W        W22051   6.318   3.324   4.724
60521W        W22052  30.916  10.824  12.016
60522W        W22053  35.454  19.562   0.384
60523W        W22054  41.027  24.164   0.346
60524W        W22055  32.054   2.893   0.286
60525W        W22056  21.176  36.541  11.521
60526W        W22057  30.141   0.910   4.243
60527W        W22058   9.239  13.301  10.491
60528W        W22059  37.359   8.257  14.802
60529W        W22060   0.311   9.860  12.935
60530W        W22061  27.978  38.528  14.280
60531W        W22062   5.240  40.842  12.897
60532W        W22063  36.391   3.270  13.885
60533W        W22064  20.209  13.795   4.148
60534W        W22065  27.611  29.428   5.119
60535W        W22066  42.782  39.848   4.223
60536W        W22067  34.069  18.092  14.472
60537W        W22068  27.454   4.302   0.822
60538W        W22069  25.048  35.596   4.628
60539W        W22070  16.101   9.697   0.244
60540W        W22071  42.913  30.080   3.367
60541W        W22072  17.645  24.662   5.291
60542W        W22073  18.583   2.397   1.397
60543W        W22074  16.611  24.722  12.082
60544W        W22075   3.777  38.429  12.564
60545W        W22076  16.232  23.119  14.869
60546W        W22077  10.785   3.858  11.918
60547W        W22078  23.551  35.087   2.687
60548W        W22079  10.861  39.880  13.481
60549W        W22080  32.637  43.978  14.380
60550W        W22081  39.995  16.777  13.038
60551W        W22082  37.540   3.414   0.781
60552W        W22083  10.732  21.217  14.900
60553W        W22084  38.055  21.735  11.896
60554W        W22085  19.226  25.511  11.898
60555W        W22086  21.742  20.698   3.202
60556W        W22087  37.020  26.962   1.321
60557W        W22088  43.018  35.465   1.753
60558W        W22089  17.641  26.088   1.213
60559W        W22090  41.332  18.572   0.364
60560W        W22091  27.691   4.238  13.535
60561W        W22092  26.050  31.412   1.226
60562W        W22093   7.762  16.177   3.677
60563W        W22094  36.459  16.742   0.373
60564W        W22095  44.358  35.870  10.616
60565W        W22096  11.167  23.646   1.907
60566W        W22097  30.919  26.467  13.055
60567W        W22098  17.586  40.422  13.425
60568W        W22099  21.198   7.692   4.155
60569W        W22100  27.508  13.711  12.005
60570W        W22101  25.576  24.502  10.963
60571W        W22102  14.285  40.905  11.080
60572W        W22103  40.428  28.949   3.342
60573W        W22104  35.374  11.254   5.230
60574W        W22105   1.425  44.854  11.489
60575W        W22106  14.653  10.262   0.961
60576W        W22107  31.959  14.776   3.202
60577W        W22108  15.092  20.126   4.307
60578W        W22109  33.050   9.746   0.278
60579W        W22110  36.902   2.253   3.655
60580W        W22111   2.458  41.442   3.827
60581W        W22112  24.667  26.682  14.000
60582W        W22113  43.297  37.490  11.036
60583W        W22114  19.117  28.525   3.186
60584W        W22115  44.987  44.493   1.295
60585W        W22116  38.001  20.676   4.598
60586W        W22117  25.684  28.681  14.909
60587W        W22118  18.231  29.599  14.464
60588W        W22119  41.868  14.215   2.755
60589W        W22120  17.800  15.755  12.514
60590W        W22121  34.030  39.496  13.052
60591W        W22122  18.140   4.838   1.696
60592W        W22123  40.358   3.782   2.389
60593W        W22124  12.683   1.849   4.346
60594W        W22125  11.814   0.949  10.090
60595W        W22126  41.930  34.594   2.785
60596W        W22127  33.540  19.637   3.263
60597W        W22128  14.654  41.321  12.083
60598W        W22129  12.155  28.151   0.837
60599W        W22130  24.699   2.819   1.770
60600W        W22131  40.363   0.777  11.602
60601W        W22132   7.703  11.290  12.834
60602W        W22133  42.804  39.389  14.936
60603W        W22134  20.229  21.102  13.020
60604W        W22135  40.343  22.515   0.431
60605W        W22136  37.519  38.056   3.655
60606W        W22137  30.003  22.526  13.507
60607W        W22138  31.439   4.353   2.777
60608W        W22139   0.819  35.452   3.857
60609W        W22140  26.620  39.553   2.704
60610W        W22141  18.643  39.816  12.046
60611W        W22142  26.207  29.146  12.072
60612W        W22143   0.254  14.610  12.570
60613W        W22144  28.072  30.951   3.654
60614W        W22145  13.818   3.359   2.728
60615W        W22146  12.854   2.240   1.413
60616W        W22147  25.698  11.217  13.827
60617W        W22148  34.090  42.303  13.863
60618W        W22149   7.763  35.007  10.083
60619W        W22150  42.800   6.232  10.537
60620W        W22151  25.602  32.965   3.198
60621W        W22152  26.560  41.403   0.403
60622W        W22153   8.317  42.895  10.630
60623W        W22154  41.978  20.529   4.829
60624W        W22155  11.147  28.660  13.528
60625W        W22156   0.767   7.826  12.559
60626W        W22157  12.653  26.973   1.214
60627W        W22158   7.214  26.101   4.794
60628W        W22159  20.730  28.070   1.880
60629W        W22160  15.252  11.226   4.693
60630W        W22161  25.629   4.847  14.013
60631W        W22162  24.496  37.026  14.766
60632W        W22163  37.569   0.904   3.162
60633W        W22164   4.912  31.945   1.854
60634W        W22165  15.208  16.748  10.509
60635W        W22166  34.433   2.402   4.735
60636W        W22167  35.971   1.426   1.822
60637W        W22168   8.223  27.169  12.372
60638W        W22169  33.410  12.835   3.806
60639W        W22170  24.223   9.308   1.862
60640W        W22171  29.026  32.084  10.600
60641W        W22172  26.029  12.719   1.294
60642W        W22173  13.218  17.270  11.380
60643W        W22174   2.278  10.668   0.726
60644W        W22175  37.565   7.389  11.392
60645W        W22176   7.362  43.411   1.419
60646W        W22177  24.653  35.385   3.301
60647W        W22178  28.671  44.010   1.305
60648W        W22179  10.153  12.805   1.434
60649W        W22180  37.403  44.797   1.745
60650W        W22181  38.011  42.973   3.823
60651W        W22182  10.650   7.288  12.340
60652W        W22183  20.612   4.426  11.599
60653W        W22184  33.516   6.842   2.670
60654W        W22185  42.879   9.787  12.021
60655W        W22186  10.177  40.811   2.332
60656W        W22187  24.160  18.063  12.080
60657W        W22188  21.730   4.887  10.969
60658W        W22189  12.250  33.490   1.722
60659W        W22190  34.996  18.134   2.355
60660W        W22191  16.201  17.704  10.477
60661W        W22192  17.248   6.316  11.093
60662W        W22193  37.407  24.226   3.779
60663W        W22194  34.946  28.974  14.329
60664W        W22195  28.024  35.987  13.817
60665W        W22196  43.397   9.818   0.788
60666W        W22197  13.605  27.470   4.171
60667W        W22198   8.832  41.429  14.000
60668W        W22199  24.545  18.213  14.920
60669W        W22200  15.643   6.306  14.833
60670W        W22201   9.869   4.351  13.455
60671W        W22202  10.817  17.668  11.605
60672W        W22203  17.263  33.051  14.010
60673W        W22204  14.216  18.744  12.413
60674W        W22205   9.385  30.646   3.228
60675W        W22206  43.866  26.490  12.873
60676W        W22207  22.549  18.086   0.942
60677W        W22208  36.368   7.840   1.330
60678W        W22209   5.411  38.833  14.936
60679W        W22210  22.596   5.339   1.818
60680W        W22211  24.618  32.017  13.857
60681W        W22212  28.056  22.593  13.466
60682W        W22213  25.505  39.846  11.078
60683W        W22214  40.368   9.184   3.706
60684W        W22215   2.383  39.521   3.666
60685W        W22216  35.865  43.510  10.455
60686W        W22217  40.329  16.297   3.844
60687W        W22218  44.872  29.955   0.794
60688W        W22219  44.009  44.931  14.969
60689W        W22220  21.530  13.168   0.798
60690W        W22221  42.313  35.954  14.384
60691W        W22222  15.749   3.318  11.925
60692W        W22223  28.974  37.482  12.843
60693W        W22224  18.663   3.936  11.526
60694W        W22225  11.822  10.820   4.838
60695W        W22226   3.847   9.236   4.706
60696W        W22227  21.036  34.030  12.407
60697W        W22228  15.198  22.168   5.713
60698W        W22229   9.371  44.846   2.323
60699W        W22230  18.217  39.532  10.421
60700W        W22231  22.706  32.919  13.040
60701W        W22232  21.178  43.321  10.553
60702W        W22233  12.332  36.941   3.154
60703W        W22234  20.524  40.465   2.294
60704W        W22235  44.386  40.844  12.936
60705W        W22236  44.009  27.525   0.939
60706W        W22237  38.444  39.013  11.585
60707W        W22238   3.252  17.100   4.274
60708W        W22239  31.484  19.127   1.737
60709W        W22240  35.362  20.739  10.443
60710W        W22241  22.667  38.515   0.349
60711W        W22242  41.829  41.422  12.060
60712W        W22243  39.959  28.606  12.378
60713W        W22244   8.721  36.006  13.980
60714W        W22245   8.887  14.808  13.865
60715W        W22246  32.597   1.254   3.178
60716W        W22247  35.950  35.946   0.945
60717W        W22248  31.055  24.694   4.286
60718W        W22249  31.471  35.038   0.942
60719W        W22250   5.888  12.193   2.709
60720W        W22251  10.674  44.281   4.208
60721W        W22252  35.863  35.394   2.708
60722W        W22253   2.245  31.986  11.574
60723W        W22254  28.940   5.275   2.403
60724W        W22255   4.342  20.172  13.437
60725W        W22256  40.413   2.928   3.229
60726W        W22257   0.343  13.321  13.488
60727W        W22258  30.650  21.126  10.896
60728W        W22259  15.106  44.385   4.350
60729W        W22260  27.038  30.584   2.194
60730W        W22261  13.824  39.869   0.881
60731W        W22262  29.073  26.170  12.489
60732W        W22263  21.620  23.515   0.328
60733W        W22264   4.833  14.156   4.688
60734W        W22265  11.688  41.323  14.873
60735W        W22266  13.223  32.050   4.699
60736W        W22267  35.543   1.915   2.890
60737W        W22268  12.813  30.137   3.634
60738W        W22269   4.713  29.098   0.776
60739W        W22270   1.454   0.357   2.727
60740W        W22271   7.792   6.682  13.051
60741W        W22272  43.804  35.480   4.680
60742W        W22273  33.403   4.867   4.746
60743W        W22274   3.261   8.402  12.514
60744W        W22275  35.005   9.258  10.425
60745W        W22276  21.742  39.919  11.506
60746W        W22277  42.416   8.749   3.161
60747W        W22278  21.611   3.366   3.174
60748W        W22279  12.209   1.420   0.957
60749W        W22280  41.027  21.640   3.305
60750W        W22281  26.611  22.655   2.712
60751W        W22282  16.604  27.059   1.707
60752W        W22283  30.954   8.394   3.637
60753W        W22284  37.872  44.393  12.485
60754W        W22285  38.959  27.134  14.513
60755W        W22286  12.189  37.506   0.269
60756W        W22287   5.201  22.654  13.518
60757W        W22288  16.296  34.463   1.738
60758W        W22289  25.486  16.224   2.282
60759W        W22290  32.969  24.020   2.225
60760W        W22291  34.531  21.546   1.785
60761W        W22292  41.508  32.635   2.871
60762W        W22293  21.253  30.523   4.236
60763W        W22294  41.972  22.051   1.821
60764W        W22295  19.132  36.505   3.367
60765W        W22296  26.102  12.234  12.895
60766W        W22297   0.900  39.512  13.515
60767W        W22298  41.386  41.012   0.330
60768W        W22299  13.819   3.421  10.618
60769W        W22300  28.470  42.360  14.001
60770W        W22301  20.084   1.842   3.869
60771W        W22302  38.355  41.327  12.543
60772W        W22303  20.744  20.668  10.896
60773W        W22304   0.767  37.911   1.866
60774W        W22305  18.126   0.302  13.811
60775W        W22306  32.583  25.135   4.217
60776W        W22307  32.137  38.013   1.839
60777W        W22308  20.652  31.925  11.389
60778W        W22309  21.512   5.408   0.926
60779W        W22310  34.994  19.191   0.962
60780W        W22311  43.313  19.582   0.897
60781W        W22312  30.091   3.325  11.878
60782W        W22313   4.828  44.978   4.821
60783W        W22314  24.202  32.487   0.412
60784W        W22315  26.636  13.678  10.609
60785W        W22316  27.516   3.435  12.910
60786W        W22317  21.192  19.176   2.830
60787W        W22318  25.656  39.975  14.375
60788W        W22319  17.269   0.434  10.567
60789W        W22320  23.545  38.405  12.528
60790W        W22321  10.778  18.091  12.445
60791W        W22322  11.831  22.603  13.917
60792W        W22323  37.883  25.648   2.761
60793W        W22324  38.387  14.754   2.878
60794W        W22325  36.920  16.160  11.956
60795W        W22326  27.524  23.688   1.883
60796W        W22327  30.658   9.759  10.627
60797W        W22328  35.408   5.404  12.561
60798W        W22329  21.540   1.304  14.474
60799W        W22330  28.494   4.392   2.285
60800W        W22331   9.241  35.568   1.335
60801W        W22332  33.921   0.848   0.948
60802W        W22333  36.579  23.562   1.436
60803W        W22334  18.293  12.192  12.491
60804W        W22335  12.759  19.552  13.961
60805W        W22336  10.213   5.371   1.793
60806W        W22337   1.479  17.292   3.685
60807W        W22338  31.011   2.385   0.895
60808W        W22339  13.715  35.486  13.414
60809W        W22340  33.083   2.812  12.943
60810W        W22341   7.876  36.877  10.405
60811W        W22342  25.483  17.730  14.853
60812W        W22343  37.390   4.312  10.511
60813W        W22344   8.798   7.268   0.476
60814W        W22345   0.947  30.624   4.251
60815W        W22346  30.109  15.609   1.333
60816W        W22347  11.813   1.865  12.552
60817W        W22348  41.331  29.650  14.983
60818W        W22349  19.680  28.044  13.491
60819W        W22350  24.074  17.262  11.056
60820W        W22351   8.183  34.077  14.380
60821W        W22352  21.681  15.084   4.159
60822W        W22353  16.758  41.814  12.492
60823W        W22354  36.944  10.690  12.350
60824W        W22355   3.949  31.992  12.395
60825W        W22356  18.791  30.441   0.277
60826W        W22357  41.849  13.275  12.030
60827W        W22358  14.787  16.668   4.208
60828W        W22359  34.042  42.016   2.313
60829W        W22360  40.323   7.175   2.178
60830W        W22361   8.705   0.855  12.559
60831W        W22362  33.883  41.857   4.145
60832W        W22363  28.027  37.534   2.901
60833W        W22364  29.652  11.283   5.191
60834W        W22365   1.424  42.321  13.820
60835W        W22366   9.839  36.070  12.347
60836W        W22367  43.995  39.470   1.342
60837W        W22368  35.036  29.019  12.518
60838W        W22369  10.830  13.321   3.316
60839W        W22370  20.751   4.942  13.792
60840W        W22371  38.556  29.109   0.352
60841W        W22372  27.522  13.614  13.534
60842W        W22373  23.112   8.324   1.362
60843W        W22374   3.335  43.843  14.828
60844W        W22375  24.129  21.229   2.851
60845W        W22376  28.508  32.450   0.871
60846W        W22377  13.346  19.140  12.485
60847W        W22378  44.404  35.492  11.118
60848W        W22379  34.444  44.840  14.448
60849W        W22380  43.987  15.259   4.168
60850W        W22381  21.188  11.317  14.479
60851W        W22382   1.968   3.446  12.879
60852W        W22383  24.683  11.829  13.952
60853W        W22384  25.580  10.712  13.460
60854W        W22385   3.868  43.493   3.217
60855W        W22386   7.727   1.928  10.145
60856W        W22387  42.877  20.261  11.045
60857W        W22388  20.274   5.426   2.781
60858W        W22389   2.465  21.655  13.960
60859W        W22390   2.277  12.656  11.427
60860W        W22391   5.765  25.090   2.672
60861W        W22392  26.655  25.184   0.936
60862W        W22393  39.462  23.170  14.955
60863W        W22394   1.968  32.592   3.209
60864W        W22395   6.290   5.870   1.824
60865W        W22396  39.060   7.353   4.119
60866W        W22397   0.442  32.393   3.814
60867W        W22398   1.775  10.329  14.357
60868W        W22399  15.817  32.937  13.508
60869W        W22400  32.472  28.625  12.572
60870W        W22401  11.777  38.533   1.279
60871W        W22402  13.323  26.169  11.024
60872W        W22403   3.809  13.671  11.951
60873W        W22404   7.731  14.605   3.801
60874W        W22405  27.991  40.995  11.382
60875W        W22406   6.315  28.498   2.391
60876W        W22407  21.075  30.605  10.102
60877W        W22408  28.580  32.961  12.420
60878W        W22409   8.726   2.407  13.850
60879W        W22410  12.208  23.140  14.494
60880W        W22411  26.125   9.644  11.071
60881W        W22412  21.749  39.361   3.756
60882W        W22413  43.860  22.615   4.290
60883W        W22414   1.426   9.877   0.952
60884W        W22415   5.792  12.787  12.925
60885W        W22416  22.712  33.951   0.345
60886W        W22417  30.984   4.825  13.416
60887W        W22418  16.734  35.912  14.346
60888W        W22419  31.461  18.075   2.686
60889W        W22420   6.714  14.703   4.630
60890W        W22421  42.890  27.122  11.561
60891W        W22422   0.945  37.395   4.635
60892W        W22423  30.427   6.699  11.439
60893W        W22424  44.386   4.411  13.350
60894W        W22425  22.114  34.920  12.394
60895W        W22426   9.376   8.879  13.043
60896W        W22427  11.841  22.028   2.407
60897W        W22428  18.770  23.061   5.123
60898W        W22429  17.777  10.238   1.845
60899W        W22430  16.214   1.337  13.343
60900W        W22431   5.797  13.789  11.374
60901W        W22432  12.245  42.298   2.704
60902W        W22433  13.171  23.684  11.035
60903W        W22434  35.931   3.918  10.635
60904W        W22435  15.186  16.117  14.319
60905W        W22436  40.303   0.458  14.894
60906W        W22437  15.088  30.092   2.283
60907W        W22438  25.962  44.306  11.462
60908W        W22439  33.043  21.134   4.687
60909W        W22440  17.199  13.321   0.785
60910W        W22441  27.101  18.588   4.748
60911W        W22442  43.348  23.002   0.469
60912W        W22443  34.038  14.737  14.763
60913W        W22444  26.656  15.645  12.411
60914W        W22445  25.595   0.335   3.146
60915W        W22446  13.317  26.047   2.787
60916W        W22447   1.290  33.000   4.352
60917W        W22448  11.265  28.069   2.342
60918W        W22449   8.358   3.243  12.458
60919W        W22450  23.130   4.830  10.501
60920W        W22451  11.646  44.897   0.252
60921W        W22452  40.982  24.578  10.915
60922W        W22453  12.728  15.301   4.215
60923W        W22454  21.137   9.296   3.314
60924W        W22455  34.429  39.875  14.026
60925W        W22456   2.301   6.727   4.805
60926W        W22457  20.556  38.397  14.018
60927W        W22458  15.644   6.371   1.362
60928W        W22459  17.671  44.291  14.340
60929W        W22460  29.084  18.101  13.441
60930W        W22461  33.899   8.223  13.049
60931W        W22462  19.063  25.517   0.355
60932W        W22463  26.675  10.266  13.478
60933W        W22464  24.094  38.346   9.444
60934W        W22465  40.969  36.440  13.846
60935W        W22466   7.771  41.510  10.084
60936W        W22467  21.036  44.346   3.271
60937W        W22468   0.336  34.427  14.029
60938W        W22469  12.208  41.831   0.292
60939W        W22470  29.439  14.674  11.986
60940W        W22471   2.906  21.678  10.639
60941W        W22472  24.162  36.878   0.932
60942W        W22473   3.357   1.974   1.249
60943W        W22474  43.502  37.478  12.996
60944W        W22475  21.671  12.655   3.256
60945W        W22476  15.299  40.889   0.269
60946W        W22477  35.927  26.536  14.004
60947W        W22478  14.644  22.601  13.429
60948W        W22479  29.143  36.055   2.189
60949W        W22480   4.443  40.469  14.972
60950W        W22481  36.464  41.025  11.482
60951W        W22482  44.349   6.762   1.393
60952W        W22483  31.013  37.044   1.267
60953W        W22484  27.663  29.936   1.917
60954W        W22485  20.179  19.632   4.309
60955W        W22486  25.127  40.417  12.948
60956W        W22487  19.258  34.549  13.806
60957W        W22488  34.990   8.689  12.397
60958W        W22489  42.305  17.704   1.851
60959W        W22490  39.465  32.930   4.607
60960W        W22491  12.747  31.642   0.313
60961W        W22492  31.588   2.348  10.926
60962W        W22493  21.674  37.566   5.242
60963W        W22494   9.789   8.231   0.808
60964W        W22495  36.901  32.081   4.630
60965W        W22496  17.639  42.416   1.892
60966W        W22497  28.115  24.113   1.785
60967W        W22498  35.084  32.941  13.873
60968W        W22499  12.217   8.710   2.377
60969W        W22500   5.331  27.514  10.591
60970W        W22501  31.935   0.835   0.943
60971W        W22502  42.437  26.502  12.425
60972W        W22503  10.689  26.604   2.200
60973W        W22504  22.687  11.274   2.838
60974W        W22505  14.129   4.400   4.808
60975W        W22506   3.356  32.575  10.961
60976W        W22507  15.716  19.235  10.561
60977W        W22508   2.931  15.693  14.859
60978W        W22509  21.550   2.802  13.541
60979W        W22510  15.099   0.388   1.918
60980W        W22511  36.391  14.214   2.815
60981W        W22512  37.476   1.961  12.560
60982W        W22513  29.464  42.022   0.436
60983W        W22514  19.161  40.895   0.277
60984W        W22515   5.889  35.423  14.425
60985W        W22516  18.183  26.112  14.939
60986W        W22517  40.945   5.828  11.894
60987W        W22518  35.433  32.517  10.462
60988W        W22519  28.989  44.838   3.194
60989W        W22520   8.835  37.366   4.644
60990W        W22521   9.176  25.199  14.013
60991W        W22522   6.801  21.221  14.405
60992W        W22523  26.017  29.442   5.212
60993W        W22524  20.601   3.383   1.445
60994W        W22525  37.924  33.064   4.646
60995W        W22526   5.841  44.298  12.873
60996W        W22527   6.890  36.522   4.598
60997W        W22528  12.339  24.996   2.696
60998W        W22529  29.106  16.152   4.288
60999W        W22530  42.483   5.306  14.440
61000W        W22531  31.456  21.244   2.845
61001W        W22532   0.918  19.167   3.342
61002W        W22533  29.022  29.110  12.399
61003W        W22534  21.645  44.283   2.230
61004W        W22535  42.991  29.931  13.042
61005W        W22536  25.025   1.841  11.412
61006W        W22537  15.679  17.674   0.848
61007W        W22538  32.948   2.852   1.384
61008W        W22539   2.841  12.258  13.501
61009W        W22540  22.014   3.414  13.032
61010W        W22541  13.297  21.558   2.726
61011W        W22542  16.685  29.997   0.952
61012W        W22543  40.965   7.330   4.340
61013W        W22544  20.219  17.167  13.413
61014W        W22545  23.169   3.278  12.344
61015W        W22546  33.485  22.146   2.836
61016W        W22547  41.460  40.945  11.380
61017W        W22548   4.448  13.826  13.040
61018W        W22549  12.158  22.070   1.233
61019W        W22550  19.726  13.304  12.042
61020W        W22551   5.396  15.683   0.748
61021W        W22552   8.161  32.039   0.329
61022W        W22553   2.903   3.319  10.935
61023W        W22554  36.017  19.083  14.842
61024W        W22555  39.486  18.732   1.910
61025W        W22556  11.636  32.090   3.317
61026W        W22557  26.628   1.317  12.409
61027W        W22558  42.944  22.231  14.456
61028W        W22559  33.996  40.403   3.807
61029W        W22560  21.619  28.447   1.756
61030W        W22561   8.209  12.242  11.995
61031W        W22562  40.029  35.882  10.527
61032W        W22563  13.738  44.852  11.476
61033W        W22564   3.882   0.858   1.792
61034W        W22565  32.985  24.634   3.146
61035W        W22566   7.711  32.405   2.839
61036W        W22567  17.739  14.626  13.017
61037W        W22568  23.101  40.335   0.381
61038W        W22569  15.779  21.757   3.178
61039W        W22570  19.188  44.834  11.067
61040W        W22571   3.777   7.838  12.393
61041W        W22572  42.813  26.205  12.823
61042W        W22573  23.047  11.682   0.355
61043W        W22574  10.337  14.251   3.232
61044W        W22575  27.945  31.122   3.263
61045W        W22576  44.468  30.428  12.942
61046W        W22577  19.758   6.383   3.741
61047W        W22578   2.373  37.495   3.716
61048W        W22579  34.600   7.818   0.771
61049W        W22580  11.149  10.643  11.565
61050W        W22581  35.487  38.973   2.373
61051W        W22582  24.060  43.914  11.985
61052W        W22583  21.708  32.489  12.371
61053W        W22584  25.180  14.243   2.197
61054W        W22585  39.824  14.100   0.346
61055W        W22586  30.525  32.430   5.175
61056W        W22587   6.305  35.946  10.980
61057W        W22588  15.774  28.586   4.605
61058W        W22589  25.567  43.949   4.677
61059W        W22590  12.273   5.826   4.273
61060W        W22591   4.407   6.377   4.684
61061W        W22592  14.709   7.356   0.463
61062W        W22593  35.040  32.088  10.637
61063W        W22594   8.173  29.080  14.822
61064W        W22595   0.262  38.324  11.863
61065W        W22596  30.068  18.162   4.287
61066W        W22597  36.081   3.259   3.168
61067W        W22598   4.335  23.545   1.797
61068W        W22599  28.168  43.403   3.656
61069W        W22600   9.798  20.030  11.573
61070W        W22601  23.053  15.684   3.764
61071W        W22602  18.720  14.763  13.034
61072W        W22603   7.848   0.369   9.925
61073W        W22604  33.407  44.275  11.013
61074W        W22605  15.198  40.335   4.771
61075W        W22606  24.103  40.999   0.859
61076W        W22607  26.666  41.002   1.432
61077W        W22608  19.176  43.980  11.962
61078W        W22609  43.506  40.303  14.453
61079W        W22610  30.510  37.946   4.602
61080W        W22611   2.350  26.174  10.980
61081W        W22612  32.514  11.308   3.664
61082W        W22613  44.803  23.192   3.271
61083W        W22614   2.911  19.681  13.885
61084W        W22615  23.553   8.859  14.841
61085W        W22616  25.494  39.818   0.795
61086W        W22617   0.892   7.328   3.253
61087W        W22618  12.725  33.954  11.900
61088W        W22619   0.489   4.814   3.207
61089W        W22620  13.738  41.912   0.276
61090W        W22621  43.795  17.688  12.985
61091W        W22622  32.991  10.649   3.804
61092W        W22623  20.105  40.003   0.245
61093W        W22624  41.338   0.290   3.730
61094W        W22625  18.774   9.210  14.985
61095W        W22626  15.648  21.730   3.771
61096W        W22627   6.267  11.748   1.869
61097W        W22628   0.433   4.371   2.822
61098W        W22629  22.747  42.302   4.730
61099W        W22630   7.320  39.995  13.978
61100W        W22631  37.934   4.411   4.814
61101W        W22632   7.241  13.824  10.948
61102W        W22633  29.656   5.698   2.382
61103W        W22634   9.676  27.964   3.378
61104W        W22635  34.502  23.158  14.356
61105W        W22636  35.039  14.760   5.157
61106W        W22637  30.148  16.662   4.745
61107W        W22638  32.417  10.677  12.892
61108W        W22639  36.911  15.660   5.274
61109W        W22640  16.582  44.859   2.268
61110W        W22641  32.392  24.617   1.913
61111W        W22642  21.545   8.373  13.006
61112W        W22643  41.945  24.123  13.834
61113W        W22644  41.034  13.696  13.021
61114W        W22645   3.772   5.349  12.352
61115W        W22646  24.120  43.505   3.663
61116W        W22647  36.029  32.069  11.580
61117W        W22648  19.718  37.891   3.665
61118W        W22649  32.102  22.221  13.489
61119W        W22650  20.688  27.130  14.505
61120W        W22651  25.145  34.940  13.946
61121W        W22652  13.761  42.331   0.818
61122W        W22653  15.219  20.708  10.958
61123W        W22654  36.471  24.540   2.278
61124W        W22655  15.741  17.558   2.213
61125W        W22656  14.769  14.118   2.731
61126W        W22657   6.736   1.871  13.325
61127W        W22658  23.561  36.886  12.082
61128W        W22659   8.831  39.339  10.911
61129W        W22660  41.997  21.043  12.985
61130W        W22661  24.718  10.367  13.400
61131W        W22662  10.228   9.346   3.758
61132W        W22663  38.371  21.068   3.692
61133W        W22664   6.254  34.531  13.822
61134W        W22665  40.384  14.807  13.794
61135W        W22666  29.556  22.131  10.626
61136W        W22667   0.340  24.190   3.685
61137W        W22668  10.787  13.217  13.482
61138W        W22669  34.933  32.422   0.897
61139W        W22670  17.569   1.347  10.497
61140W        W22671  12.686  39.011   1.259
61141W        W22672  35.943   7.302   3.196
61142W        W22673  41.305   6.203   1.724
61143W        W22674  19.551  32.011  11.905
61144W        W22675  41.303  11.154   1.363
61145W        W22676  27.114  15.706   2.233
61146W        W22677  23.541  31.601   2.373
61147W        W22678  17.801  26.558   1.792
61148W        W22679   8.383  31.616  10.414
61149W        W22680  42.385  13.811  11.032
61150W        W22681  11.157  14.127  11.963
61151W        W22682   7.795  14.819   2.322
61152W        W22683  26.016  13.634   3.286
61153W        W22684  32.574  42.937  13.413
61154W        W22685  30.020  44.278   3.639
61155W        W22686   5.377   1.326   0.801
61156W        W22687   1.766  27.567   3.741
61157W        W22688   8.718  36.075  12.855
61158W        W22689  17.069  35.068   0.305
61159W        W22690  23.022   1.899   2.715
61160W        W22691  18.654  40.801  10.933
61161W        W22692   8.739  40.323  10.481
61162W        W22693  30.163  23.573   3.780
61163W        W22694   4.268  20.090   0.927
61164W        W22695  42.912  15.658  13.343
61165W        W22696  18.142  16.234  14.345
61166W        W22697  23.993  11.842  12.463
61167W        W22698  43.012  12.220   0.436
61168W        W22699  18.241   3.246  13.309
61169W        W22700  30.085  37.037  13.483
61170W        W22701   3.874  16.102  10.434
61171W        W22702  19.139   7.301   4.196
61172W        W22703  37.513  17.156   0.898
61173W        W22704   2.917  15.138   1.296
61174W        W22705  42.801  42.998  14.941
61175W        W22706   3.304  26.611  13.986
61176W        W22707  30.102  26.520  10.643
61177W        W22708  33.558  11.719  12.361
61178W        W22709  37.416   8.232  10.586
61179W        W22710  42.879  22.674   3.707
61180W        W22711  42.337  21.264  13.339
61181W        W22712   2.729   2.773  11.105
61182W        W22713  32.506  39.327  12.913
61183W        W22714   7.243  41.811   2.823
61184W        W22715  13.288   6.262  11.002
61185W        W22716   9.669  17.732   0.731
61186W        W22717  19.233  44.960  13.956
61187W        W22718   8.706  40.407   4.727
61188W        W22719  14.676  37.907  12.508
61189W        W22720  44.279  44.824  12.500
61190W        W22721  13.718  18.142  10.609
61191W        W22722  31.048  15.799  11.441
61192W        W22723   6.885  25.699   0.805
61193W        W22724  21.061  36.979   1.417
61194W        W22725  13.657   8.237   1.395
61195W        W22726   5.917  10.216  11.523
61196W        W22727  24.628   7.273  11.882
61197W        W22728  26.962  26.027  14.981
61198W        W22729  39.520  37.496  11.095
61199W        W22730  12.772  15.819  12.011
61200W        W22731   6.182  25.011   3.842
61201W        W22732  32.577  35.969   3.830
61202W        W22733  33.119  14.283  11.024
61203W        W22734  25.059  36.552  10.548
61204W        W22735   2.840   4.302   4.827
61205W        W22736  36.939  39.053   2.809
61206W        W22737  17.687  38.060   3.635
61207W        W22738  16.777  40.304  14.952
61208W        W22739  30.447   8.667   3.782
61209W        W22740  21.180  29.487   1.276
61210W        W22741  17.651  23.526  14.837
61211W        W22742  30.650   9.874  11.441
61212W        W22743   4.806  30.990   3.211
61213W        W22744  25.043  15.656   4.347
61214W        W22745  27.152  15.630   1.720
61215W        W22746  19.224  10.233  10.465
61216W        W22747   1.260  14.750  11.113
61217W        W22748   0.319   0.348   0.451
61218W        W22749  34.991  42.000   1.814
61219W        W22750  18.766  43.982  12.436
61220W        W22751  41.942   6.794   1.296
61221W        W22752  35.056  36.390  11.957
61222W        W22753  44.994  28.664  14.296
61223W        W22754  37.442   0.846  14.976
61224W        W22755  15.662   5.781  12.394
61225W        W22756  34.444  24.486  13.412
61226W        W22757  32.138  25.561   2.213
61227W        W22758   6.391  44.878   2.880
61228W        W22759   9.294  25.602  12.891
61229W        W22760  12.224  24.095   0.416
61230W        W22761  18.171  11.767   0.260
61231W        W22762   6.391  36.434   4.146
61232W        W22763   0.473  34.449   1.331
61233W        W22764   8.189  10.188   2.298
61234W        W22765  28.534  26.958   1.242
61235W        W22766   4.721  16.298  11.531
61236W        W22767  40.869  11.700  14.962
61237W        W22768  18.074  36.554  14.867
61238W        W22769   7.783  40.915  11.034
61239W        W22770  28.441  21.262   0.764
61240W        W22771  29.497  10.710   9.951
61241W        W22772  30.119  42.463  10.929
61242W        W22773  23.189  29.586   5.593
61243W        W22774   2.337  14.206   2.687
61244W        W22775   7.681   2.747  14.473
61245W        W22776   2.354  43.425   2.837
61246W        W22777  44.404  33.523   4.681
61247W        W22778  43.973  43.774  12.988
61248W        W22779  14.662  22.635   4.206
61249W        W22780  18.208   3.456  12.846
61250W        W22781  34.027  39.952  12.580
61251W        W22782  24.045  29.562  13.063
61252W        W22783  40.913  10.722  14.418
61253W        W22784  27.588  34.968  11.602
61254W        W22785  11.836   2.776  10.572
61255W        W22786  29.659  36.856  10.896
61256W        W22787  24.980  19.780   3.822
61257W        W22788   5.793  34.988  10.929
61258W        W22789  39.525   4.405  12.343
61259W        W22790  21.640  27.028  11.971
61260W        W22791  29.569   9.301  11.450
61261W        W22792  26.137  44.500  10.455
61262W        W22793  30.122  29.495  12.551
61263W        W22794  21.042   4.924  10.435
61264W        W22795  44.999  27.055  13.327
61265W        W22796  18.703   5.413   1.262
61266W        W22797  34.943  14.714   5.722
61267W        W22798  38.330  26.507  10.952
61268W        W22799  24.718  17.141   1.819
61269W        W22800   0.365  35.928   3.204
61270W        W22801  17.298  31.955  10.944
61271W        W22802  22.043  24.037   1.701
61272W        W22803  29.528  37.905   3.152
61273W        W22804  10.870  11.813  13.508
61274W        W22805  11.280  31.035   3.148
61275W        W22806  17.567   6.722  11.032
61276W        W22807   2.419  23.617   2.697
61277W        W22808  37.904  42.339   3.687
61278W        W22809  12.747  39.065  14.962
61279W        W22810  32.607   4.405  12.532
61280W        W22811  33.390  41.024  11.933
61281W        W22812  11.747  21.054   1.243
61282W        W22813  26.494  37.357  13.956
61283W        W22814  34.533  32.460   1.763
61284W        W22815  19.112  39.822   1.306
61285W        W22816  29.454   3.893  14.935
61286W        W22817  22.574  41.006   0.895
61287W        W22818  37.347  28.042   0.780
61288W        W22819  40.861  11.693   2.806
61289W        W22820   1.476  31.975  10.430
61290W        W22821  19.568  26.146  14.467
61291W        W22822  38.472  16.805   1.815
61292W        W22823  44.298   2.800   1.210
61293W        W22824  40.011   4.801  11.855
61294W        W22825  11.258  38.834  10.587
61295W        W22826  42.490  18.599   0.426
61296W        W22827  11.808   4.835   4.811
61297W        W22828  38.859   8.290  10.485
61298W        W22829   2.264  37.483   0.276
61299W        W22830  27.530   2.893   1.285
61300W        W22831   6.325  32.098  12.518
61301W        W22832  16.197  38.826  11.578
61302W        W22833  31.631  21.691  13.399
61303W        W22834  35.461   6.297   1.374
61304W        W22835  25.623  10.341   3.293
61305W        W22836  22.725  19.168   3.156
61306W        W22837  13.760  31.645   0.925
61307W        W22838  35.908   9.748  13.451
61308W        W22839  34.951   3.761  13.823
61309W        W22840  23.546  37.529  12.088
61310W        W22841   8.728   3.345  12.515
61311W        W22842  21.197   2.943  13.836
61312W        W22843  36.435  43.803   0.826
61313W        W22844  26.547   6.859   2.365
61314W        W22845   5.341   8.321  10.571
61315W        W22846  44.415  38.872   1.418
61316W        W22847  34.544  35.068  14.298
61317W        W22848   4.822  13.652   0.739
61318W        W22849  41.823  14.225  14.404
61319W        W22850  25.647   0.313  14.951
61320W        W22851  13.714  11.816   4.129
61321W        W22852  21.636  19.689   3.811
61322W        W22853   0.945  29.970   0.376
61323W        W22854   8.734   4.418  12.359
61324W        W22855   4.260  10.770   2.209
61325W        W22856  42.941  13.305  14.387
61326W        W22857   7.320  40.022  14.970
61327W        W22858  43.902  13.846   1.221
61328W        W22859  35.457  32.998  13.467
61329W        W22860  28.010  36.881   1.288
61330W        W22861  11.697   2.726   9.933
61331W        W22862   4.277  40.376   2.854
61332W        W22863   9.844   8.263  11.517
61333W        W22864  23.502  25.154   0.448
61334W        W22865  34.401  15.249   2.283
61335W        W22866  37.052  14.610  12.507
61336W        W22867  20.171  10.156   2.325
61337W        W22868  28.453  44.475  14.791
61338W        W22869  10.720  41.966  13.056
61339W        W22870  30.583  24.585   3.364
61340W        W22871  29.649  34.462   1.787
61341W        W22872  25.016   9.829  10.009
61342W        W22873  20.553  20.192   4.664
61343W        W22874  36.386   7.696  11.866
61344W        W22875  13.789   3.877  12.344
61345W        W22876  10.724   9.884  12.871
61346W        W22877  16.243  22.167  14.408
61347W        W22878   2.799  40.926   2.200
61348W        W22879  28.568  22.601  14.408
61349W        W22880  43.299   6.867   4.772
61350W        W22881  43.866  37.858   3.791
61351W        W22882  32.402  30.517  13.856
61352W        W22883   0.275  10.825  11.396
61353W        W22884  11.322   0.401  12.873
61354W        W22885  17.788  18.586  12.479
61355W        W22886  30.438  11.243   0.951
61356W        W22887  29.584  15.634  12.566
61357W        W22888  28.117  26.044   3.334
61358W        W22889  21.017  35.091   3.669
61359W        W22890  35.105  13.776   1.908
61360W        W22891   2.758  40.853   3.833
61361W        W22892  40.501   6.340   3.153
61362W        W22893  20.102   0.431   1.861
61363W        W22894  19.250   6.858  14.860
61364W        W22895   6.192   8.370  11.540
61365W        W22896   0.864  18.214   5.086
61366W        W22897   2.846  37.434   2.226
61367W        W22898  13.679  19.724   3.248
61368W        W22899   6.689   9.302   2.888
61369W        W22900  44.402  35.503  10.544
61370W        W22901  37.447  16.794   4.742
61371W        W22902  35.909  12.760  13.899
61372W        W22903  26.676  43.857   0.350
61373W        W22904  34.437  24.069   1.347
61374W        W22905  19.180   1.298   3.695
61375W        W22906  36.028  28.611   1.900
61376W        W22907  28.969  16.227  12.920
61377W        W22908  21.101  39.927  14.780
61378W        W22909   0.884  34.465   2.847
61379W        W22910  29.424  19.240  12.032
61380W        W22911  13.729  18.618   1.387
61381W        W22912  11.272  33.604  12.868
61382W        W22913  13.670   7.307   4.218
61383W        W22914   0.338  24.099  13.329
61384W        W22915  43.420  30.158  13.873
61385W        W22916  16.113  17.588  13.421
61386W        W22917  16.300  14.296  14.792
61387W        W22918  41.013  21.569   4.784
61388W        W22919   4.217  13.693  14.329
61389W        W22920  30.626  30.142   0.808
61390W        W22921   1.269  35.604  11.088
61391W        W22922  12.707  11.714   1.303
61392W        W22923  13.769  43.016   3.208
61393W        W22924  42.857  30.572   1.396
61394W        W22925  40.544   0.855   0.764
61395W        W22926   8.746  22.075  10.500
61396W        W22927  34.514  17.193   4.751
61397W        W22928  39.835  20.188   4.834
61398W        W22929  10.211  22.528   3.225
61399W        W22930  18.187   0.314  11.390
61400W        W22931   6.869  27.943   3.746
61401W        W22932  35.102  13.779   4.324
61402W        W22933  21.130   7.794  13.448
61403W        W22934  12.235   1.360   4.227
61404W        W22935  40.328  17.134   1.695
61405W        W22936   1.936  29.080  14.443
61406W        W22937  36.593  11.818  12.378
61407W        W22938  21.223   0.775  10.610
61408W        W22939  21.709  28.604  14.312
61409W        W22940  18.689  25.976  14.764
61410W        W22941   4.333  27.958  11.965
61411W        W22942  37.379  14.796   3.675
61412W        W22943  39.986  12.234   0.422
61413W        W22944  21.220  33.883   0.309
61414W        W22945   3.936   0.841   2.276
61415W        W22946  24.230  42.029   2.179
61416W        W22947  36.859  24.582   4.299
61417W        W22948  34.566  11.348   4.646
61418W        W22949  33.600   1.387   2.217
61419W        W22950   4.925  16.596  14.919
61420W        W22951  16.131  21.163   1.817
61421W        W22952  42.012  11.816   0.943
61422W        W22953  43.940  11.218  10.980
61423W        W22954  23.491  15.801  11.115
61424W        W22955  25.509  26.052  14.858
61425W        W22956   5.725  17.283   3.719
61426W        W22957  19.153   5.803  11.050
61427W        W22958  10.323  22.671   5.100
61428W        W22959  14.121   0.889  10.573
61429W        W22960  37.490   5.305   4.754
61430W        W22961  33.115  38.566  14.844
61431W        W22962   8.812  37.014  14.971
61432W        W22963  18.152  11.665   3.762
61433W        W22964  17.236  35.370   0.936
61434W        W22965   6.375  34.974  10.983
61435W        W22966   2.290  21.609  12.825
61436W        W22967  33.051  25.174   4.255
61437W        W22968  26.993  28.558  14.385
61438W        W22969  15.115   3.896  12.001
61439W        W22970   4.313  21.026   0.463
61440W        W22971  26.600   1.881  13.012
61441W        W22972  38.442  30.595   0.472
61442W        W22973  40.846  11.622  11.956
61443W        W22974  27.992  12.610   3.633
61444W        W22975  20.159  38.426  14.294
61445W        W22976  22.069   3.334   2.387
61446W        W22977   7.786  21.724   0.371
61447W        W22978  33.492   9.855  11.012
61448W        W22979   7.257   2.867  14.766
61449W        W22980  14.240  37.457   1.307
61450W        W22981  25.509  32.931  13.916
61451W        W22982   6.852  43.957  14.835
61452W        W22983   0.899  24.031  13.481
61453W        W22984  39.438  11.177  13.900
61454W        W22985  21.590  12.702  11.403
61455W        W22986  36.403  18.713  13.477
61456W        W22987  35.542  30.072  10.597
61457W        W22988  40.422  14.686   2.679
61458W        W22989  19.265   7.262   3.803
61459W        W22990  12.811  26.046  12.015
61460W        W22991  18.713  16.588  10.488
61461W        W22992  44.913  28.577  13.814
61462W        W22993   1.793  34.391   1.412
61463W        W22994  42.437  43.873   2.357
61464W        W22995   5.694   7.273   0.351
61465W        W22996  36.067  30.577  12.842
61466W        W22997  32.948  37.470   4.648
61467W        W22998  10.197  41.002   2.790
61468W        W22999  31.928  32.461   4.233
61469W        W23000   8.863  33.572   2.344
61470W        W23001  14.771  20.606  13.007
61471W        W23002  32.588  19.103   3.662
61472W        W23003  33.078   5.858   3.226
61473W        W23004  31.523  43.016  12.473
61474W        W23005  21.029  35.456  11.596
61475W        W23006   8.870  22.043   1.834
61476W        W23007   0.377  31.585  13.452
61477W        W23008  29.591   5.792   2.707
61478W        W23009   3.226   9.170   3.799
61479W        W23010  16.693  22.029   5.255
61480W        W23011   4.891  22.228   1.300
61481W        W23012  39.001  32.053   0.361
61482W        W23013  25.060  40.492  14.426
61483W        W23014  35.884  44.831   3.789
61484W        W23015   7.842  31.634   3.207
61485W        W23016  13.608  43.884   1.290
61486W        W23017   5.211  44.393  11.869
61487W        W23018  40.319  36.395  11.029
61488W        W23019  34.403  22.509  11.574
61489W        W23020  29.082  11.357  12.093
61490W        W23021  33.560  30.934  13.932
61491W        W23022  26.059  28.462  14.453
61492W        W23023   9.798  37.966  11.511
61493W        W23024  11.255  36.872   3.692
61494W        W23025  34.605  12.298  12.567
61495W        W23026  21.228   7.277   3.862
61496W        W23027  10.204  12.156  13.433
61497W        W23028  19.264  12.323  12.930
61498W        W23029  27.630   6.840   4.726
61499W        W23030  10.350  37.864  11.001
61500W        W23031  21.159  13.707   2.197
61501W        W23032  28.975  21.111  10.520
61502W        W23033  36.582  27.648  12.545
61503W        W23034  37.905  27.525   0.374
61504W        W23035   9.717  42.816  14.975
61505W        W23036  37.996  33.082  10.488
61506W        W23037  11.778  22.520  11.574
61507W        W23038  20.079   0.881  12.458
61508W        W23039  29.532  15.294   0.731
61509W        W23040   5.295  37.850   2.897
61510W        W23041  40.804  40.803   1.364
61511W        W23042  25.981   8.718  11.551
61512W        W23043  33.954  25.059   2.868
61513W        W23044   1.840   2.364   2.801
61514W        W23045  30.051  30.657   2.183
61515W        W23046  30.017  18.289  13.482
61516W        W23047  10.823  35.944   0.927
61517W        W23048   2.257  19.070  11.978
61518W        W23049  34.429  41.311  10.104
61519W        W23050  23.055  33.999   2.349
61520W        W23051  41.436  16.774   0.756
61521W        W23052  29.582  11.358   0.458
61522W        W23053  31.917  38.463   2.796
61523W        W23054  29.478  32.017  10.430
61524W        W23055  29.588  44.934   2.415
61525W        W23056  26.538   1.805  10.961
61526W        W23057  19.103  28.061  13.966
61527W        W23058  33.084   5.846  13.040
61528W        W23059  25.630  44.262  13.007
61529W        W23060  13.669   8.778  14.830
61530W        W23061  15.212  41.885  10.473
61531W        W23062  11.201  38.511  14.827
61532W        W23063  31.550  12.185  13.318
61533W        W23064  30.543  38.890   2.784
61534W        W23065  15.723  38.037  11.540
61535W        W23066  16.096  10.656  10.493
61536W        W23067  22.006  22.606  13.461
61537W        W23068  14.163  30.498   1.293
61538W        W23069  32.618  42.435   3.853
61539W        W23070  29.925  32.084  14.489
61540W        W23071  19.244  18.119  13.039
61541W        W23072  29.066  23.659  13.368
61542W        W23073   6.351  20.766  13.873
61543W        W23074  33.952  27.506  12.407
61544W        W23075  14.319  27.458  11.083
61545W        W23076   2.356  39.455  11.970
61546W        W23077  18.228  15.719   4.343
61547W        W23078  17.795  27.197   4.226
61548W        W23079  23.582   5.749   4.160
61549W        W23080  34.601  26.490  14.010
61550W        W23081  44.884  30.106   1.890
61551W        W23082  36.906   2.729  14.317
61552W        W23083  33.391  24.141  14.363
61553W        W23084  12.673  32.043  11.469
61554W        W23085   0.262  19.700   4.276
61555W        W23086  14.785  23.518  10.077
61556W        W23087  39.970   7.824   4.817
61557W        W23088  20.054  12.221  13.339
61558W        W23089  19.542  23.594  14.406
61559W        W23090  23.610   5.880   2.219
61560W        W23091   1.848  10.737  13.349
61561W        W23092   9.827  10.748  10.984
61562W        W23093  40.937  40.400  12.424
61563W        W23094  12.195   9.862  14.831
61564W        W23095  18.592  14.107  10.132
61565W        W23096  37.368  32.634   0.865
61566W        W23097  20.640  32.036   1.368
61567W        W23098  28.140  23.144   2.895
61568W        W23099  43.423  40.470  12.986
61569W        W23100  23.656  38.379   9.978
61570W        W23101  42.821  26.627   3.637
61571W        W23102  42.853  29.076  11.985
61572W        W23103   1.965   7.207  12.974
61573W        W23104  32.504  21.143  12.931
61574W        W23105  35.479   0.317   4.143
61575W        W23106  24.161   1.778   4.142
61576W        W23107   5.224  23.219  12.074
61577W        W23108  12.144  35.959  13.358
61578W        W23109  12.224  32.077   5.790
61579W        W23110   8.661  43.504   3.240
61580W        W23111  38.495  10.733  11.022
61581W        W23112   5.720  18.233   1.421
61582W        W23113  37.835  44.842  10.636
61583W        W23114  12.624  16.227   3.688
61584W        W23115  30.443   5.396  12.841
61585W        W23116   4.234  31.984   4.126
61586W        W23117  31.037  22.726  14.289
61587W        W23118  32.979  25.121  11.572
61588W        W23119   2.728  13.630  10.424
61589W        W23120  12.215  28.576   4.682
61590W        W23121  29.160  22.640  14.321
61591W        W23122  22.156  32.064   2.766
61592W        W23123  12.839  37.899   0.836
61593W        W23124  27.671  40.984  10.441
61594W        W23125  34.969  28.997   1.776
61595W        W23126   2.778  44.481  12.566
61596W        W23127   3.296   6.285   3.652
61597W        W23128  23.536  16.793   4.316
61598W        W23129  10.769  40.508  14.863
61599W        W23130   5.720   1.426   4.222
61600W        W23131   2.232  29.070  12.024
61601W        W23132  35.070  33.932  11.584
61602W        W23133  25.075   8.787   3.826
61603W        W23134  10.808  30.021   2.366
61604W        W23135  41.404  28.460  14.816
61605W        W23136   4.207  27.496  14.003
61606W        W23137   6.769  42.451  10.585
61607W        W23138  23.053   0.891  14.457
61608W        W23139   8.249  44.278  12.379
61609W        W23140   4.279  22.603   3.384
61610W        W23141  36.521  12.806   3.292
61611W        W23142  44.319  30.029   3.367
61612W        W23143  18.258  12.181   3.171
61613W        W23144   1.871  31.071   5.255
61614W        W23145  14.803   5.773   1.232
61615W        W23146  17.207  39.837  11.898
61616W        W23147  24.088  32.618  12.007
61617W        W23148  31.917  22.034   3.376
61618W        W23149  27.073   3.263   1.262
61619W        W23150  30.152   0.854   1.891
61620W        W23151  44.766  34.048  12.843
61621W        W23152  33.625   8.289   3.373
61622W        W23153  42.931  36.097   4.821
61623W        W23154  44.895   8.765  12.961
61624W        W23155  42.009  30.074  13.941
61625W        W23156   0.975  27.016  12.959
61626W        W23157  16.207  25.002  12.581
61627W        W23158  39.933  32.480  14.436
61628W        W23159  24.557   5.307   1.332
61629W        W23160  27.044   0.817  10.465
61630W        W23161  17.682   7.816   4.353
61631W        W23162  32.011  38.035   4.811
61632W        W23163  13.330  21.658  14.395
61633W        W23164  13.288  26.536   0.932
61634W        W23165  33.947  18.700   3.641
61635W        W23166  40.858  31.599  12.074
61636W        W23167  19.625  37.442  13.488
61637W        W23168  36.538  10.141   2.769
61638W        W23169  28.507  16.791   4.218
61639W        W23170  17.177  11.664  12.417
61640W        W23171  22.585  37.357   4.254
61641W        W23172  26.686  36.068   0.476
61642W        W23173  35.975  41.918   2.690
61643W        W23174   1.431  18.144  14.431
61644W        W23175  39.492  35.103  10.534
61645W        W23176   9.312   9.313   3.829
61646W        W23177   8.758  27.458  14.275
61647W        W23178  28.104  37.397   2.186
61648W        W23179  24.174  10.286   3.808
61649W        W23180  19.749  34.528   1.254
61650W        W23181  33.488  27.568   1.903
61651W        W23182  41.904  12.127  11.439
61652W        W23183  26.115  26.666   3.162
61653W        W23184   4.425  26.959   4.140
61654W        W23185  25.505  16.660  14.925
61655W        W23186  15.746  43.497  14.488
61656W        W23187  16.310   8.369  10.903
61657W        W23188  35.375  21.642   0.255
61658W        W23189   6.834   6.340  12.083
61659W        W23190  29.627  34.537   1.365
61660W        W23191  38.846  29.076  10.139
61661W        W23192  40.499  38.534   4.658
61662W        W23193  33.932   3.919  13.816
61663W        W23194   4.874  39.960   3.715
61664W        W23195   3.773  36.916   4.821
61665W        W23196  26.573  29.508   0.785
61666W        W23197  16.273  17.068   3.779
61667W        W23198  44.857  40.860   3.302
61668W        W23199  29.617  42.404  10.984
61669W        W23200  42.379  12.228  12.518
61670W        W23201  19.765   1.837  14.815
61671W        W23202   6.209  28.047   2.385
61672W        W23203  25.499  29.544   3.656
61673W        W23204   1.896   5.312  11.381
61674W        W23205   5.811  22.594   3.170
61675W        W23206   0.286   9.206   2.817
61676W        W23207   1.859   4.752  12.905
61677W        W23208  21.670   9.870  12.568
61678W        W23209  26.624  22.737  14.456
61679W        W23210   1.866  36.358  14.285
61680W        W23211  13.683  29.545  12.940
61681W        W23212   3.435  38.346   1.380
61682W        W23213  41.408  17.608  14.974
61683W        W23214  18.559   5.239  10.522
61684W        W23215  20.048  20.136   1.231
61685W        W23216  30.514  14.692  13.063
61686W        W23217   8.736  39.430  13.409
61687W        W23218  30.493   4.720   2.795
61688W        W23219   4.273  26.120   2.804
61689W        W23220  31.611  37.993   3.233
61690W        W23221  12.804  24.193   2.814
61691W        W23222  44.358   5.818  13.801
61692W        W23223  41.436  44.785  13.895
61693W        W23224  17.207  20.037   0.841
61694W        W23225   6.193   5.734  11.502
61695W        W23226  44.778  34.471   0.887
61696W        W23227  38.861  17.713  13.334
61697W        W23228  21.628  27.574   1.780
61698W        W23229  17.684   0.882   1.780
61699W        W23230  40.342  13.845   0.866
61700W        W23231  23.662   5.380   2.200
61701W        W23232  35.913   2.899  14.923
61702W        W23233  41.457   0.376   3.203
61703W        W23234  10.215   8.714   0.928
61704W        W23235  12.660  13.184  12.849
61705W        W23236  12.850  31.126   0.848
61706W        W23237  30.148  39.445   1.707
61707W        W23238  15.798  17.753  12.392
61708W        W23239  13.243  33.449  13.908
61709W        W23240  21.145  18.703   4.779
61710W        W23241  31.149   5.797   2.847
61711W        W23242  30.514  17.770  12.059
61712W        W23243  17.201  22.746  13.930
61713W        W23244  21.589  19.645  13.794
61714W        W23245  30.588  41.973   1.776
61715W        W23246  11.267  18.209  10.404
61716W        W23247  42.868   2.804   0.913
61717W        W23248  40.368  40.343  11.070
61718W        W23249  14.772  15.710   1.224
61719W        W23250  38.001  31.586   0.249
61720W        W23251   5.823  11.201   3.198
61721W        W23252   0.380  39.912  13.839
61722W        W23253  19.578  32.940   2.365
61723W        W23254  39.922   2.738  12.946
61724W        W23255  28.450  22.066   0.447
61725W        W23256  36.090  34.484   1.738
61726W        W23257   3.777  13.206   1.884
61727W        W23258  36.425   0.463   3.385
61728W        W23259  16.227  35.020   1.907
61729W        W23260  22.194   4.879   1.881
61730W        W23261   2.760  23.039   5.683
61731W        W23262   4.234   1.419  10.943
61732W        W23263   6.350  40.941  11.469
61733W        W23264  44.487  38.557  10.112
61734W        W23265  15.637  19.761   0.966
61735W        W23266  29.594   9.255  12.072
61736W        W23267  11.234  14.335   1.885
61737W        W23268  25.137   2.329   3.640
61738W        W23269  33.059   8.901   3.690
61739W        W23270  23.612  42.465   1.244
61740W        W23271   9.818  22.559  13.464
61741W        W23272  11.358  14.146  12.441
61742W        W23273  31.982  31.621  10.524
61743W        W23274  31.625  18.084   2.219
61744W        W23275  20.575   2.362   2.756
61745W        W23276   9.302  35.546   0.284
61746W        W23277  37.361   7.791  14.308
61747W        W23278  44.299  29.158   0.470
61748W        W23279  13.840  44.806   0.923
61749W        W23280  11.638   1.785   3.793
61750W        W23281  36.059  35.500   3.357
61751W        W23282   3.812  14.687  13.794
61752W        W23283  42.953  19.054   3.846
61753W        W23284   0.841  13.708  12.920
61754W        W23285  14.641  39.993   2.299
61755W        W23286  12.671  37.559  12.032
61756W        W23287   1.278   5.268  13.805
61757W        W23288  22.042  30.043  10.463
61758W        W23289  31.116  25.554   0.278
61759W        W23290  29.623  26.547   0.780
61760W        W23291  38.401  31.443   3.185
61761W        W23292  13.708  25.674  13.540
61762W        W23293  12.780  30.055  10.505
61763W        W23294  30.610  15.158  11.597
61764W        W23295  33.961   3.337   1.913
61765W        W23296   3.243  15.157   0.430
61766W        W23297  36.972   9.837  12.020
61767W        W23298  32.543  16.134  13.959
61768W        W23299  20.033  42.891   2.796
61769W        W23300   5.814  23.632  11.996
61770W        W23301  30.458  16.649   2.859
61771W        W23302  31.147  37.466  12.068
61772W        W23303  12.354  19.667  10.924
61773W        W23304   6.829  26.049   3.650
61774W        W23305  29.594  35.474   1.229
61775W        W23306   1.734  27.607   2.668
61776W        W23307  17.610  31.006  14.809
61777W        W23308  13.309  16.734   4.629
61778W        W23309  10.332  21.656  12.560
61779W        W23310  22.172  36.401   0.730
61780W        W23311   2.960  39.819   1.268
61781W        W23312  23.205   0.769   4.687
61782W        W23313  37.899  29.959   2.276
61783W        W23314  42.368  39.903   1.912
61784W        W23315  18.070  30.019   1.789
61785W        W23316  11.232  39.050  11.882
61786W        W23317  34.041   2.744   1.923
61787W        W23318  25.700  16.598   3.839
61788W        W23319  16.093  14.250   3.849
61789W        W23320  33.066  44.396   3.825
61790W        W23321  17.279  34.008  12.829
61791W        W23322  25.627  10.294  13.523
61792W        W23323  44.322  42.414   3.377
61793W        W23324  38.504   9.879  11.481
61794W        W23325  13.748  16.732   1.424
61795W        W23326  41.323   1.359   1.305
61796W        W23327  17.232  21.148   3.721
61797W        W23328  40.324  43.836  12.442
61798W        W23329  43.972  13.701   3.701
61799W        W23330   0.850  43.358  12.844
61800W        W23331   2.851  16.223   0.924
61801W        W23332  21.742  23.091  13.989
61802W        W23333  23.558   1.825  10.938
61803W        W23334  19.135  34.009  12.370
61804W        W23335  17.087   7.404   1.886
61805W        W23336   0.866  33.887   0.368
61806W        W23337  41.344  30.481  13.485
61807W        W23338   4.319  26.002   0.921
61808W        W23339   1.439  21.668  11.400
61809W        W23340  40.526  29.021  10.593
61810W        W23341   5.835  39.339  10.893
61811W        W23342  20.671  36.018   4.725
61812W        W23343  11.707   3.950  12.056
61813W        W23344  15.276   6.811  13.911
61814W        W23345  35.495  25.591  10.634
61815W        W23346  40.313   7.729  13.445
61816W        W23347  39.974   4.941  12.570
61817W        W23348  39.061  37.845  10.157
61818W        W23349  33.552  37.565  11.074
61819W        W23350  30.000  14.189   1.246
61820W        W23351  17.257  18.625   0.788
61821W        W23352  19.149  40.974  12.897
61822W        W23353  40.328  20.131  14.428
61823W        W23354  27.068  17.094   3.641
61824W        W23355  28.183  33.444   4.289
61825W        W23356  18.745   7.813  12.886
61826W        W23357  42.435  36.350  14.447
61827W        W23358  40.429  18.601  12.903
61828W        W23359  38.876  40.419  14.386
61829W        W23360  18.096  44.379   2.792
61830W        W23361  22.662  15.101   3.664
61831W        W23362  36.455  40.452  14.894
61832W        W23363  33.898  33.084   4.729
61833W        W23364   4.789   3.442   1.334
61834W        W23365  25.564  25.486   0.899
61835W        W23366  21.048  44.298  11.379
61836W        W23367  25.155  37.879   1.281
61837W        W23368  22.246  35.031   1.781
61838W        W23369  26.053  12.187  10.566
61839W        W23370  36.051  10.853  13.795
61840W        W23371   0.849   7.814   1.314
61841W        W23372  41.406  26.605   0.305
61842W        W23373  32.085  34.398   1.789
61843W        W23374  41.379  35.403   4.632
61844W        W23375  11.344  25.468  12.524
61845W        W23376  38.824  43.398   2.309
61846W        W23377  13.198   5.278  13.032
61847W        W23378  17.085  18.654   5.275
61848W        W23379  21.255  31.075  11.970
61849W        W23380  28.452  41.843   1.923
61850W        W23381  44.798  18.202   1.348
61851W        W23382  40.520  36.954  11.535
61852W        W23383  13.838   0.416   0.903
61853W        W23384  23.026   0.882   1.870
61854W        W23385  27.014  27.084   3.838
61855W        W23386   6.183   0.349  14.902
61856W        W23387  22.686  16.632   2.883
61857W        W23388   7.292  35.109   4.815
61858W        W23389   1.907  21.637  14.816
61859W        W23390  26.564  23.235  10.931
61860W        W23391  32.019  11.657   0.848
61861W        W23392  40.435  17.280  10.946
61862W        W23393  17.741  36.065  13.879
61863W        W23394  24.982  17.781   3.795
61864W        W23395  26.131  39.025   0.372
61865W        W23396  12.680  40.938   0.763
61866W        W23397  37.538  11.771  10.406
61867W        W23398  19.071  10.686  13.923
61868W        W23399  21.093  33.463   4.299
61869W        W23400  32.100  11.150  13.334
61870W        W23401  44.417  12.258  13.941
61871W        W23402  44.288  34.032   2.843
61872W        W23403  24.664   5.827  13.962
61873W        W23404  14.794  13.346   0.787
61874W        W23405   6.400   8.822   5.264
61875W        W23406   0.436  35.059  13.377
61876W        W23407  38.066   0.274  13.032
61877W        W23408   3.220   8.685   0.753
61878W        W23409  11.163  18.162  12.511
61879W        W23410  33.581  13.837   9.546
61880W        W23411  20.712  25.048   4.748
61881W        W23412  27.023  16.681   3.271
61882W        W23413  23.628  27.594   0.455
61883W        W23414  13.131  29.533  11.902
61884W        W23415  13.808  34.519   3.700
61885W        W23416  35.603   7.896   2.821
61886W        W23417  14.650  21.624   4.837
61887W        W23418  31.603   9.813   1.395
61888W        W23419  34.459  21.207  13.387
61889W        W23420  27.034   1.273  11.487
61890W        W23421  43.837   8.227  11.936
61891W        W23422  39.322  25.119  14.815
61892W        W23423  44.850  16.762  13.469
61893W        W23424   6.220  14.802   1.815
61894W        W23425  13.750  11.859  13.848
61895W        W23426  27.178   4.833   3.870
61896W        W23427  41.874  20.662  12.860
61897W        W23428  32.433   4.920   2.860
61898W        W23429  25.537   5.880   4.740
61899W        W23430  36.082   3.762  12.008
61900W        W23431  21.686  25.672   1.448
61901W        W23432  14.706  40.421  13.890
61902W        W23433  14.816  12.196  11.993
61903W        W23434  18.601   4.887   9.931
61904W        W23435  24.587   2.815   3.286
61905W        W23436  32.036  42.978  12.901
61906W        W23437  33.530  38.465   1.350
61907W        W23438  20.631  13.628  11.453
61908W        W23439  40.968  19.616   0.424
61909W        W23440   9.645  23.720   4.597
61910W        W23441  33.068   0.783   1.409
61911W        W23442  12.723  32.399   3.365
61912W        W23443  28.503   7.887   1.231
61913W        W23444  24.160  28.507   3.719
61914W        W23445  23.677  44.346  14.859
61915W        W23446   7.264  28.964   4.680
61916W        W23447  16.296  39.362   4.347
61917W        W23448  39.833  11.745   4.826
61918W        W23449  10.143  26.583   4.728
61919W        W23450  23.636  14.623  12.983
61920W        W23451  29.623  12.180  11.424
61921W        W23452  34.881  22.184   4.284
61922W        W23453   3.264   6.830  14.386
61923W        W23454  27.677  31.979  12.062
61924W        W23455  39.505  14.634   1.742
61925W        W23456  32.125  34.975   4.188
61926W        W23457  16.135  32.120  13.879
61927W        W23458  36.983  32.634   4.743
61928W        W23459   9.280  35.494  14.405
61929W        W23460  20.681  28.172   3.680
61930W        W23461  15.176  39.970   4.816
61931W        W23462   4.382  30.634   3.844
61932W        W23463   2.246   9.350   1.799
61933W        W23464  12.284  27.553  12.449
61934W        W23465  42.482  32.916   0.266
61935W        W23466   7.293  29.125  11.473
61936W        W23467   7.286  43.354  14.928
61937W        W23468  21.189   4.227  11.004
61938W        W23469  34.108  27.485  12.064
61939W        W23470   9.348  32.114  14.947
61940W        W23471  16.812  40.840   3.295
61941W        W23472  28.058  38.327   0.942
61942W        W23473   7.377  36.869  13.365
61943W        W23474  38.552   4.224  14.888
61944W        W23475  43.407  36.959   1.848
61945W        W23476   3.824  18.169  12.506
61946W        W23477  14.695  32.605   3.353
61947W        W23478  35.048  18.107   5.658
61948W        W23479  15.774  13.303  14.486
61949W        W23480  22.558  22.509  12.524
61950W        W23481  33.549   4.369   0.435
61951W        W23482  16.236  41.414   1.340
61952W        W23483  36.503  33.618   3.249
61953W        W23484  38.456   2.401   0.817
61954W        W23485  26.689  35.541  11.521
61955W        W23486  22.129   1.842   2.378
61956W        W23487  38.910  44.940  12.481
61957W        W23488  25.038  31.930   0.443
61958W        W23489  41.789  29.546  11.497
61959W        W23490  20.151  25.076   4.328
61960W        W23491  20.057  25.490  12.087
61961W        W23492  15.783   5.376   3.683
61962W        W23493  32.964  23.012  14.318
61963W        W23494  43.374  31.480  11.862
61964W        W23495   7.177  30.471  11.403
61965W        W23496  37.496  30.457  10.561
61966W        W23497  41.302  10.699  11.090
61967W        W23498  33.498  27.663   0.764
61968W        W23499  29.496  23.986  12.008
61969W        W23500  14.633  23.020   4.624
61970W        W23501  27.541  42.821   1.763
61971W        W23502  41.009  26.606   2.859
61972W        W23503  42.964   3.721  12.521
61973W        W23504  31.459  42.523  10.982
61974W        W23505  14.833  32.434   4.274
61975W        W23506  21.570  34.507  10.997
61976W        W23507  14.130  22.098   4.790
61977W        W23508  29.647  28.026  12.359
61978W        W23509  21.514  16.644   4.821
61979W        W23510  42.880  27.179  13.964
61980W        W23511  11.629  20.059  13.449
61981W        W23512  18.641  20.639  11.493
61982W        W23513  44.790  29.449   3.382
61983W        W23514  30.013   6.732   1.777
61984W        W23515  32.463   1.914  14.001
61985W        W23516   7.298  27.655   0.419
61986W        W23517  44.427  27.107   1.286
61987W        W23518  44.882  42.918  12.367
61988W        W23519   1.266  28.001  12.900
61989W        W23520  20.635  14.695  11.879
61990W        W23521  40.986  22.160   4.304
61991W        W23522  40.450  30.144  10.922
61992W        W23523   1.334  20.093  13.058
61993W        W23524   2.267  38.853   5.170
61994W        W23525  43.819  42.780  10.978
61995W        W23526   0.816  20.636   4.166
61996W        W23527  21.117  36.423  14.930
61997W        W23528   9.848  41.951   1.716
61998W        W23529  34.971   9.284   3.865
61999W        W23530  43.966  39.385  11.405
62000W        W23531  43.292   0.416  10.551
62001W        W23532  23.714  40.537  14.315
62002W        W23533   3.899  41.326  12.474
62003W        W23534  11.811  39.920  12.420
62004W        W23535  28.496  10.763  13.392
62005W        W23536   0.473  29.441  10.455
62006W        W23537  32.467  20.590  10.465
62007W        W23538  33.963  37.869  11.948
62008W        W23539  20.532  29.159  13.331
62009W        W23540  23.125  20.197  13.360
62010W        W23541   0.951  27.574   3.832
62011W        W23542   3.377  43.883  12.902
62012W        W23543  15.639   4.892   4.319
62013W        W23544  31.515  28.980  13.426
62014W        W23545  31.568  23.151  14.826
62015W        W23546  37.570  44.283   4.319
62016W        W23547  19.623   6.336   4.262
62017W        W23548   4.850   4.742   2.752
62018W        W23549   0.973  42.305  10.935
62019W        W23550  33.015   9.742  12.484
62020W        W23551  39.436  27.661   3.831
62021W        W23552  37.474  40.485   4.731
62022W        W23553  24.517   4.260   0.865
62023W        W23554  32.908  10.330  11.372
62024W        W23555  12.332  11.673   0.356
62025W        W23556  43.765  26.143   0.279
62026W        W23557  22.006   0.275  14.371
62027W        W23558  39.050  16.794  10.502
62028W        W23559  35.098  38.484  12.522
62029W        W23560  30.984  23.509   3.357
62030W        W23561   4.428  31.607   2.684
62031W        W23562  30.091  41.909  13.444
62032W        W23563   1.951   1.788  13.526
62033W        W23564  40.999  38.992   3.865
62034W        W23565  12.643   8.276  12.037
62035W        W23566  15.604  26.084  14.326
62036W        W23567  39.914   3.898  11.932
62037W        W23568   6.761  21.168   1.821
62038W        W23569  32.957  22.207   0.328
62039W        W23570  26.095  40.916   2.263
62040W        W23571  33.599  23.641   0.265
62041W        W23572  19.184   9.859   0.423
62042W        W23573   1.279  28.499  13.431
62043W        W23574  38.990  39.349   5.180
62044W        W23575  43.441  14.668   0.257
62045W        W23576  27.955  28.179  13.360
62046W        W23577   5.750  31.060   2.872
62047W        W23578  44.762  16.228  10.431
62048W        W23579  37.032  20.744  13.460
62049W        W23580  12.362  42.880   1.745
62050W        W23581  39.814   1.246  14.502
62051W        W23582   7.354  11.261  10.510
62052W        W23583   0.383   5.359   1.426
62053W        W23584  44.909  21.099   1.252
62054W        W23585  31.951  12.136  14.496
62055W        W23586  10.235   0.761   4.687
62056W        W23587  19.239   3.453   1.266
62057W        W23588  25.491  12.781   0.760
62058W        W23589   9.315  13.270   0.899
62059W        W23590   7.354  13.766  14.439
62060W        W23591  27.614  36.970  12.472
62061W        W23592  40.543  20.225  10.638
62062W        W23593   4.906  26.624   3.286
62063W        W23594  24.648   9.280   3.839
62064W        W23595   1.739  27.143   2.721
62065W        W23596  38.383  17.775   2.812
62066W        W23597  41.532  10.703  14.281
62067W        W23598   2.329   8.259   3.269
62068W        W23599   3.270  10.730   4.647
62069W        W23600  10.375   9.261  13.943
62070W        W23601  37.918  29.551   4.760
62071W        W23602  10.240  31.127  10.113
62072W        W23603   4.294  37.480  14.491
62073W        W23604  18.704  34.489  12.915
62074W        W23605  44.370  19.745  14.435
62075W        W23606   2.730  42.873  14.353
62076W        W23607   4.724  42.991   3.801
62077W        W23608  38.844  26.661  14.298
62078W        W23609   6.743  35.058  13.825
62079W        W23610  31.448  12.338   3.192
62080W        W23611   3.936   7.856   4.193
62081W        W23612  34.574  18.652   9.560
62082W        W23613  32.909  26.510   0.263
62083W        W23614  18.740  42.432  14.365
62084W        W23615  20.545   3.775   3.181
62085W        W23616  44.470  24.640   3.366
62086W        W23617  32.921  11.654  13.792
62087W        W23618  27.615   9.772  14.797
62088W        W23619  17.245   2.845   3.789
62089W        W23620   2.382  44.776   0.324
62090W        W23621  43.504  36.551   2.328
62091W        W23622  32.414  34.537   2.894
62092W        W23623   0.954  29.559   4.203
62093W        W23624   3.729  28.158   5.796
62094W        W23625  10.839  10.330  14.813
62095W        W23626  26.631  43.331  10.627
62096W        W23627   0.368  38.892  11.948
62097W        W23628   7.327   5.368  12.949
62098W        W23629  28.570   6.908   3.661
62099W        W23630  35.498  13.205   1.292
62100W        W23631  10.222  42.012   2.699
62101W        W23632  12.161   3.270  13.937
62102W        W23633  25.613  39.376  13.422
62103W        W23634  40.963  26.580  10.644
62104W        W23635  26.507   9.823  14.969
62105W        W23636  31.495  23.174  12.020
62106W        W23637  22.717  23.635  14.810
62107W        W23638  18.101  36.952   2.198
62108W        W23639  16.189  11.742   2.183
62109W        W23640  20.121  10.806  10.446
62110W        W23641   6.253   7.830  12.933
62111W        W23642   8.840  27.096  13.924
62112W        W23643   2.377  36.348  13.053
62113W        W23644  15.158  35.385   2.253
62114W        W23645  16.769  17.556  14.896
62115W        W23646  16.602  42.461   2.751
62116W        W23647  39.318  40.987  12.532
62117W        W23648   7.837  14.822   4.699
62118W        W23649  38.390  19.691  12.035
62119W        W23650   2.821  44.334  10.531
62120W        W23651  38.370  32.069   0.741
62121W        W23652  18.726  16.202   1.915
62122W        W23653   3.273  10.191  14.487
62123W        W23654   3.862  16.204  11.054
62124W        W23655  38.833  21.588   4.760
62125W        W23656  16.080  38.535   2.282
62126W        W23657  28.545  31.050   2.753
62127W        W23658  29.956  24.024  14.487
62128W        W23659  12.285   3.745   0.759
62129W        W23660  34.490  15.226   3.173
62130W        W23661  38.505  18.627   2.340
62131W        W23662  20.618  20.752  12.067
62132W        W23663   0.799  39.852   1.848
62133W        W23664  20.271  23.197   0.783
62134W        W23665   4.850  35.551  13.046
62135W        W23666  31.511  11.211   2.751
62136W        W23667   7.755  36.573   0.426
62137W        W23668  33.961  41.448  12.474
62138W        W23669  27.528  10.263  13.037
62139W        W23670  41.807   7.353   3.721
62140W        W23671  42.498  31.456  14.017
62141W        W23672   1.757  18.112  10.492
62142W        W23673   6.909  15.224  13.410
62143W        W23674  16.623   9.737   3.778
62144W        W23675  16.580  16.696   1.395
62145W        W23676  13.248  33.508  10.617
62146W        W23677   9.670   0.318   1.344
62147W        W23678  16.644  17.191  12.052
62148W        W23679  28.494  39.510  10.545
62149W        W23680  35.015   1.796   3.687
62150W        W23681  18.122  10.838  12.945
62151W        W23682  33.380  32.599  11.388
62152W        W23683  41.006  26.123  10.553
62153W        W23684  27.152  15.736  11.068
62154W        W23685  10.266  13.809   0.289
62155W        W23686  20.172  33.000   1.857
62156W        W23687   2.876  42.418  11.065
62157W        W23688  42.330  38.967  12.438
62158W        W23689  31.457  27.152  12.397
62159W        W23690  38.474  40.858  11.963
62160W        W23691  34.478   4.241   4.748
62161W        W23692  27.987  44.294  12.944
62162W        W23693  19.612   2.860   3.753
62163W        W23694   4.721  22.579   4.823
62164W        W23695  26.206  35.028  14.011
62165W        W23696  38.379  31.554  10.951
62166W        W23697  32.891   0.791  12.456
62167W        W23698  11.806  34.942  12.540
62168W        W23699   2.854   7.233  13.801
62169W        W23700  10.877  43.427  12.846
62170W        W23701   0.827  29.556   1.712
62171W        W23702  36.486   5.749   3.244
62172W        W23703   6.244  14.162   5.133
62173W        W23704  40.971  25.101   1.374
62174W        W23705  34.425  19.254   1.840
62175W        W23706  38.927  31.980   2.725
62176W        W23707  40.900  32.993   1.321
62177W        W23708  14.204  29.064   1.863
62178W        W23709   6.677  17.770   1.786
62179W        W23710  31.521   4.887   1.312
62180W        W23711  33.914   1.287   1.746
62181W        W23712  16.677   6.269  14.509
62182W        W23713  22.021  37.475   1.367
62183W        W23714  19.678  28.601   0.427
62184W        W23715  40.840  20.536   0.752
62185W        W23716   7.198  40.507  12.898
62186W        W23717  31.135  26.165  14.469
62187W        W23718  24.557  40.476   3.639
62188W        W23719   7.721  38.987   3.653
62189W        W23720   1.772   9.755  10.521
62190W        W23721   1.360  17.287  11.578
62191W        W23722  11.199   6.766   4.722
62192W        W23723  22.111  32.635   2.864
62193W        W23724   0.266   6.416   2.810
62194W        W23725  17.703   2.783  14.973
62195W        W23726  32.084  42.863   0.369
62196W        W23727  12.273  21.578  12.438
62197W        W23728  42.430   2.244  11.084
62198W        W23729  11.140   3.277   3.296
62199W        W23730  44.371  31.917   0.760
62200W        W23731   9.756  11.328  14.895
62201W        W23732  36.497  31.491   1.743
62202W        W23733  41.894  20.596  11.480
62203W        W23734  25.186   2.450   1.751
62204W        W23735  28.635   6.907  11.858
62205W        W23736   5.743  13.615  11.075
62206W        W23737  29.129  37.501   4.116
62207W        W23738  19.205  30.651  14.917
62208W        W23739  34.445   5.845   4.686
62209W        W23740  25.137  29.919  11.950
62210W        W23741   4.719  25.166   2.704
62211W        W23742  27.449  14.632  12.461
62212W        W23743   7.286  15.659   2.720
62213W        W23744   0.786  37.860   3.242
62214W        W23745  22.070  41.306   4.252
62215W        W23746  13.287   5.345   4.277
62216W        W23747  11.347  22.661   3.861
62217W        W23748  39.918  18.646  10.454
62218W        W23749  40.544  44.805   0.259
62219W        W23750  20.082  30.936   2.332
62220W        W23751  23.726  25.008  10.604
62221W        W23752  23.735  31.406   1.834
62222W        W23753  37.534  41.016   4.336
62223W        W23754  18.148   4.433  10.961
62224W        W23755  33.580  10.375   3.719
62225W        W23756  19.746   2.327   5.275
62226W        W23757  19.108  28.098  12.934
62227W        W23758   6.791   9.698  10.972
62228W        W23759   6.274   5.786   0.305
62229W        W23760  31.077  21.554   4.608
62230W        W23761   5.320  22.219   5.082
62231W        W23762   0.790   7.721  10.443
62232W        W23763  23.132  22.649  12.530
62233W        W23764  20.030  10.192   0.321
62234W        W23765  27.989  22.235  11.941
62235W        W23766  27.953  22.237  12.494
62236W        W23767   3.332  30.123  14.956
62237W        W23768   1.388  12.845  12.904
62238W        W23769  35.959   8.780   4.116
62239W        W23770  33.459   4.234   2.286
62240W        W23771   5.223  37.485   0.325
62241W        W23772   7.778  10.850  11.442
62242W        W23773  13.634  35.032  10.037
62243W        W23774   1.245  26.128  12.898
62244W        W23775  37.405   1.352   2.402
62245W        W23776  30.921   6.378  11.525
62246W        W23777  12.710  34.412  13.474
62247W        W23778  35.498   5.869  11.467
62248W        W23779  19.076  44.829   1.849
62249W        W23780  30.965  42.444  12.874
62250W        W23781   8.346  12.676   4.203
62251W        W23782  27.505  12.643  11.433
62252W        W23783   0.381  34.472  11.499
62253W        W23784   5.826   7.259  12.955
62254W        W23785  32.591  23.730  11.520
62255W        W23786  29.482  31.050   3.727
62256W        W23787   7.718   6.339   2.846
62257W        W23788  19.777  16.218   1.927
62258W        W23789  12.346   7.400   4.340
62259W        W23790  38.409  24.195   0.846
62260W        W23791  44.482  28.109   9.967
62261W        W23792  26.505  33.625   0.429
62262W        W23793  35.873  35.961   3.773
62263W        W23794  22.602  44.504   4.221
62264W        W23795   3.891  29.974   3.171
62265W        W23796  37.420  39.512   1.908
62266W        W23797  43.484  37.358   2.839
62267W        W23798  11.782   8.840   4.766
62268W        W23799   9.670   9.234  11.993
62269W        W23800  24.168  27.100  13.993
62270W        W23801  33.402  15.590  12.829
62271W        W23802  27.502   9.880   1.432
62272W        W23803  36.935  42.880  10.413
62273W        W23804  44.448  11.714   1.246
62274W        W23805  39.945  14.768  13.940
62275W        W23806  40.815   0.414   2.798
62276W        W23807   5.347  16.216  12.471
62277W        W23808  29.003  11.180   4.133
62278W        W23809  32.934  29.508  13.035
62279W        W23810  39.549  44.960  10.410
62280W        W23811  20.091   2.412  12.947
62281W        W23812  39.465  14.145  14.375
62282W        W23813  38.444  32.568  10.524
62283W        W23814  17.697  13.219  14.010
62284W        W23815   7.718   9.241  12.988
62285W        W23816  19.060  12.838   0.746
62286W        W23817  24.598   9.775  12.560
62287W        W23818   3.415   0.951   1.408
62288W        W23819  25.714   6.768  14.944
62289W        W23820  28.966  23.628   1.770
62290W        W23821  19.685  37.938  14.997
62291W        W23822  13.612  27.691   4.823
62292W        W23823  25.181  26.099  12.041
62293W        W23824  36.514  11.323   0.431
62294W        W23825  10.379  40.411  14.495
62295W        W23826  19.709  14.818   4.292
62296W        W23827  34.510  33.070   1.831
62297W        W23828  44.422  26.165  10.970
62298W        W23829   6.255  30.559  14.988
62299W        W23830  15.723   2.743  11.001
62300W        W23831  12.293   0.374   1.239
62301W        W23832  32.613  11.686   9.939
62302W        W23833   8.704  32.112  13.899
62303W        W23834  31.568  27.996   4.630
62304W        W23835  32.570  26.582   2.394
62305W        W23836  27.494  33.029  12.084
62306W        W23837   4.706   2.861   3.722
62307W        W23838   5.795  40.540   3.369
62308W        W23839   9.267   5.258   3.673
62309W        W23840  44.950   4.393   4.140
62310W        W23841  44.442  38.442  12.974
62311W        W23842  17.625  37.068   1.269
62312W        W23843  41.514  34.455   0.965
62313W        W23844  37.917  35.503  14.767
62314W        W23845  23.718   3.725   3.168
62315W        W23846  41.879   7.350  11.073
62316W        W23847   2.438   5.793  10.948
62317W        W23848  26.154   2.806  12.084
62318W        W23849  37.411   1.834  10.513
62319W        W23850  35.363  40.954   3.270
62320W        W23851  44.298  29.552   2.804
62321W        W23852  17.161  22.089   2.186
62322W        W23853  38.370  13.622   4.671
62323W        W23854   3.456  18.699   0.447
62324W        W23855  18.172   4.740   4.126
62325W        W23856  42.011  19.690  13.395
62326W        W23857  10.200  21.641   2.825
62327W        W23858  17.701  26.167   0.258
62328W        W23859  18.242   2.456  11.415
62329W        W23860  22.551  42.958  14.890
62330W        W23861  18.118   0.799  14.829
62331W        W23862  43.297  36.913   4.260
62332W        W23863  33.413  11.158   1.256
62333W        W23864  17.693   7.253   4.351
62334W        W23865  21.052  20.596   2.266
62335W        W23866  39.860  23.542  11.442
62336W        W23867  39.975  25.078  14.292
62337W        W23868  14.191  18.760   0.861
62338W        W23869  36.909  40.529   3.183
62339W        W23870  33.019  19.541   3.299
62340W        W23871  11.758   7.234   4.167
62341W        W23872  19.051   9.224  14.833
62342W        W23873  34.372  17.750   1.826
62343W        W23874  36.555  33.089  13.434
62344W        W23875  14.596  44.504   1.402
62345W        W23876  30.590  34.458   2.407
62346W        W23877  12.326  34.536   4.314
62347W        W23878  25.189  35.407  14.466
62348W        W23879  37.389  19.574   3.630
62349W        W23880  42.467  14.129   0.467
62350W        W23881  23.612  36.445  14.761
62351W        W23882   7.677  26.603   0.881
62352W        W23883  26.545  26.149  12.398
62353W        W23884  20.561  18.646   2.811
62354W        W23885  14.665  15.775  14.335
62355W        W23886  19.214   6.320   3.179
62356W        W23887  25.525  23.532  11.073
62357W        W23888   2.415  21.533   3.292
62358W        W23889  25.963  10.738  11.904
62359W        W23890   1.380  33.590   1.352
62360W        W23891  11.652  20.252   0.759
62361W        W23892  20.735  32.054   3.167
62362W        W23893  10.255  16.776   1.917
62363W        W23894  18.640  31.024  12.465
62364W        W23895  34.457  17.741   9.941
62365W        W23896   4.758   9.663   2.736
62366W        W23897  32.012  30.153  12.861
62367W        W23898  24.179  23.093  12.976
62368W        W23899  20.655  16.267  14.784
62369W        W23900  13.148  25.545  14.279
62370W        W23901  42.969  13.680   2.366
62371W        W23902  14.744   3.767  12.443
62372W        W23903  20.623   0.371   1.716
62373W        W23904  29.605   2.817  13.018
62374W        W23905  40.479   2.784  12.857
62375W        W23906   4.273  43.016  14.899
62376W        W23907  24.992   8.249   1.782
62377W        W23908   7.280   0.299  13.054
62378W        W23909  11.659  37.888  12.380
62379W        W23910  17.694  37.384   2.217
62380W        W23911   6.710  29.961  10.516
62381W        W23912  11.702  27.020   4.208
62382W        W23913  40.814   4.837   1.354
62383W        W23914  42.290  43.835  10.962
62384W        W23915   7.842   0.783  12.420
62385W        W23916   9.687  40.969  10.433
62386W        W23917  12.835  12.237   1.390
62387W        W23918  22.724  12.644   2.671
62388W        W23919  42.475   4.757  12.888
62389W        W23920   0.880  17.757   2.785
62390W        W23921  39.020   2.275  12.890
62391W        W23922  40.316  43.360  12.876
62392W        W23923  17.140  20.620   4.159
62393W        W23924  24.679  12.192   4.799
62394W        W23925  42.497   7.784  11.061
62395W        W23926  30.944  35.082   2.325
62396W        W23927  34.472  32.011  14.932
62397W        W23928   4.434  37.925  13.366
62398W        W23929  28.950  20.041   4.151
62399W        W23930   4.863   2.958   1.901
62400W        W23931  13.643  21.661   4.774
62401W        W23932  16.111  28.150   1.768
62402W        W23933  31.146   5.689  12.405
62403W        W23934  42.424  27.605  11.407
62404W        W23935   2.363  33.084   4.182
62405W        W23936   8.755   8.835  14.865
62406W        W23937  27.643  27.515  14.385
62407W        W23938   8.164  31.022  13.851
62408W        W23939  29.476  10.718   9.642
62409W        W23940   9.333  15.669   0.734
62410W        W23941   9.719   9.331   1.403
62411W        W23942  21.563  16.573   3.634
62412W        W23943  42.787  26.954  13.347
62413W        W23944  22.178  21.537   3.345
62414W        W23945  44.453  33.380   3.349
62415W        W23946  42.488  35.603   4.243
62416W        W23947  19.646  23.664   4.198
62417W        W23948   3.745  22.047  11.860
62418W        W23949  15.749  43.928   2.779
62419W        W23950   4.352  31.449  13.041
62420W        W23951  32.142  18.771   1.805
62421W        W23952  14.262  38.956   3.174
62422W        W23953  20.620  40.810  12.875
62423W        W23954  37.993  17.578   1.409
62424W        W23955  43.413   4.915   3.632
62425W        W23956  39.365  25.597   2.828
62426W        W23957  24.226  20.260   0.264
62427W        W23958   7.305   4.855   9.984
62428W        W23959   0.784  11.238   4.132
62429W        W23960  40.940   0.295   3.269
62430W        W23961  35.437   2.287   2.375
62431W        W23962   1.742  39.376   0.804
62432W        W23963  44.881   3.830   1.343
62433W        W23964   5.824  22.008   4.218
62434W        W23965   2.301  11.762   3.316
62435W        W23966  20.609  10.347  12.913
62436W        W23967  26.077  16.679   4.639
62437W        W23968   1.481  41.496   2.210
62438W        W23969  36.072   8.800  12.050
62439W        W23970  26.546  11.298   5.273
62440W        W23971   7.693  16.568   1.397
62441W        W23972   1.834  20.154  10.985
62442W        W23973  35.991   4.901   4.128
62443W        W23974  28.098  32.412   1.814
62444W        W23975  35.486  29.106  14.948
62445W        W23976  30.590  44.805  10.541
62446W        W23977  20.035  31.408   0.754
62447W        W23978   9.740  24.644   1.448
62448W        W23979  25.668  28.658  10.442
62449W        W23980  31.595   9.393   4.226
62450W        W23981  32.400  20.724   3.793
62451W        W23982  33.539   9.226  11.080
62452W        W23983  34.053  11.823   1.357
62453W        W23984  35.589  39.912  11.064
62454W        W23985  44.295   1.327   4.813
62455W        W23986  42.974  30.001  10.916
62456W        W23987  11.726  34.059  13.017
62457W        W23988  15.753  13.226   1.846
62458W        W23989   9.268  32.478   1.808
62459W        W23990  38.353   7.358  14.956
62460W        W23991   8.879  16.086  11.039
62461W        W23992  21.549  24.039   3.153
62462W        W23993  38.011   2.796   2.270
62463W        W23994   7.266   3.345   0.846
62464W        W23995  35.472  28.026   1.210
62465W        W23996  24.506   9.810   3.282
62466W        W23997  42.369   2.320  11.496
62467W        W23998  42.423   9.746   1.793
62468W        W23999  43.906  28.075  14.960
62469W        W24000  12.351  41.828  12.976
62470W        W24001  36.350  35.432  10.920
62471W        W24002   2.920  38.004   1.223
62472W        W24003  38.443   8.399   2.777
62473W        W24004  19.071  16.220  13.329
62474W        W24005  22.636   5.897   0.786
62475W        W24006  22.208  34.525  14.881
62476W        W24007  43.816  25.529  13.907
62477W        W24008  36.451  42.914  12.865
62478W        W24009  28.088  30.494  10.027
62479W        W24010  32.404   6.298   1.312
62480W        W24011  42.526  44.290  11.385
62481W        W24012  22.075  24.552   2.661
62482W        W24013  41.828  42.352   1.862
62483W        W24014  18.227  40.468   2.347
62484W        W24015  39.824   6.729   3.698
62485W        W24016  12.613  26.082  14.490
62486W        W24017   4.356   5.276   2.386
62487W        W24018   0.928  32.453   1.705
62488W        W24019  32.430   3.714   2.730
62489W        W24020  10.734   3.710  11.408
62490W        W24021  15.118  22.995  11.389
62491W        W24022  24.653  35.893   2.727
62492W        W24023  14.782  13.297  13.818
62493W        W24024  24.519  29.554   4.732
62494W        W24025   9.810  23.027  13.423
62495W        W24026  29.146  34.973  13.445
62496W        W24027   1.821  44.910   2.693
62497W        W24028  26.676  16.080  14.894
62498W        W24029  32.103  27.162   1.250
62499W        W24030  18.574  40.363   0.411
62500W        W24031  14.340   7.832  13.321
62501W        W24032  11.656  38.350  13.357
62502W        W24033  28.543  37.448  12.862
62503W        W24034   3.381  44.895  10.639
62504W        W24035   8.675  14.618  13.020
62505W        W24036   9.179  13.258  12.914
62506W        W24037   3.422  31.959   0.433
62507W        W24038  28.475  36.079  11.920
62508W        W24039  15.635  30.073   0.812
62509W        W24040  43.481  30.154   2.806
62510W        W24041  21.025  32.466  14.948
62511W        W24042  43.478  27.980   1.352
62512W        W24043  35.019  16.701  14.321
62513W        W24044  31.596  28.103   1.232
62514W        W24045  42.404  24.068   3.226
62515W        W24046  38.876  20.074  14.812
62516W        W24047  44.369  27.595  11.583
62517W        W24048   4.824   8.746   4.174
62518W        W24049   1.765  30.935  12.549
62519W        W24050   9.258  13.792  11.002
62520W        W24051  34.105  18.092   3.207
62521W        W24052  21.160  10.305  14.281
62522W        W24053  10.809   6.895   2.300
62523W        W24054  27.168  42.011  11.577
62524W        W24055  39.529  41.819  11.956
62525W        W24056  37.386  27.131  12.055
62526W        W24057   8.279   8.725   2.419
62527W        W24058  15.223  38.850  13.848
62528W        W24059  31.091  44.408  13.391
62529W        W24060  44.291  16.246   4.725
62530W        W24061  12.162  41.322  12.424
62531W        W24062  38.365  13.705   1.868
62532W        W24063  35.952   9.836  10.074
62533W        W24064  16.623  11.308  12.405
62534W        W24065   2.830  32.138   1.446
62535W        W24066  26.126  44.854   1.385
62536W        W24067  18.704  26.163   1.408
62537W        W24068  16.806   7.260   2.224
62538W        W24069  21.692   7.173   4.348
62539W        W24070   6.261   9.374  10.920
62540W        W24071  20.080   4.285  12.826
62541W        W24072  26.070  43.435   2.403
62542W        W24073  32.440  36.571   1.380
62543W        W24074  10.655   6.264  10.536
62544W        W24075   8.832  20.739  11.901
62545W        W24076  14.102  25.195   3.828
62546W        W24077  24.047  28.585  11.499
62547W        W24078  32.069  23.031   3.212
62548W        W24079  40.960  10.304  11.439
62549W        W24080   8.330   0.863   9.595
62550W        W24081  16.140   8.810  11.566
62551W        W24082  19.588  31.451   3.151
62552W        W24083  43.327  19.737  12.341
62553W        W24084  24.061  17.265   4.634
62554W        W24085   6.291  35.459   4.133
62555W        W24086  31.450  24.485   4.263
62556W        W24087   7.238  27.971  11.500
62557W        W24088  24.990  11.789   3.767
62558W        W24089  42.907  14.151  13.806
62559W        W24090  22.549  38.823   2.834
62560W        W24091  17.780   2.250   0.298
62561W        W24092  35.081  23.160   1.216
62562W        W24093  34.589  25.592   0.775
62563W        W24094  14.254   8.295  13.935
62564W        W24095  13.717   1.898  14.344
62565W        W24096  26.552  44.895  13.943
62566W        W24097  35.082  32.618   3.778
62567W        W24098  25.603  21.576   3.797
62568W        W24099  26.067  18.074  11.924
62569W        W24100   1.379  42.366   0.249
62570W        W24101   6.263  28.480  14.986
62571W        W24102  29.512   8.356   3.704
62572W        W24103  37.885   5.789  12.578
62573W        W24104  16.096  41.412   0.381
62574W        W24105   9.857  12.782   3.801
62575W        W24106   6.886  42.921   2.745
62576W        W24107   5.197  35.920   5.114
62577W        W24108  37.455   1.966   3.260
62578W        W24109  12.315  43.984   4.133
62579W        W24110   4.846  25.583  14.510
62580W        W24111  28.503  34.388  11.124
62581W        W24112  18.750  24.622   2.896
62582W        W24113  34.380   5.395   1.313
62583W        W24114  23.682  17.618  10.584
62584W        W24115  29.003   9.659   2.321
62585W        W24116   3.740  26.988   9.636
62586W        W24117  23.071  36.893   0.773
62587W        W24118   2.277   9.849   3.313
62588W        W24119  22.009  39.986   3.679
62589W        W24120  35.601   3.248  14.765
62590W        W24121  25.573  43.480  14.018
62591W        W24122  29.918  41.349  10.404
62592W        W24123   6.402  29.987   3.797
62593W        W24124   6.768  26.144  10.957
62594W        W24125   2.416  35.418   0.296
62595W        W24126   1.250  15.628  11.516
62596W        W24127  36.490  11.832   3.717
62597W        W24128  34.583  37.411   3.734
62598W        W24129  20.719  33.613   2.688
62599W        W24130  10.851   8.703   1.319
62600W        W24131  42.818  39.913  10.465
62601W        W24132   3.720  39.865  11.897
62602W        W24133  14.737  13.151   3.243
62603W        W24134  24.649  14.679   2.262
62604W        W24135  15.741  23.073   1.889
62605W        W24136   3.421  42.421  12.005
62606W        W24137  17.224  30.657   3.353
62607W        W24138  35.569  29.605   0.263
62608W        W24139   5.367  41.992  12.930
62609W        W24140  22.049   1.259   0.801
62610W        W24141  30.019  29.612   2.194
62611W        W24142  25.547  31.925   0.265
62612W        W24143  38.018  24.128   2.735
62613W        W24144  21.601   3.234   3.831
62614W        W24145  18.574  44.317  11.010
62615W        W24146  18.767   0.273  13.476
62616W        W24147  29.617  34.512  14.489
62617W        W24148  30.143  10.248   5.112
62618W        W24149  14.633   0.901  12.487
62619W        W24150   0.784  17.681  11.065
62620W        W24151   7.405   1.914   3.801
62621W        W24152   9.809   9.300   2.874
62622W        W24153   6.833  21.142   0.364
62623W        W24154   8.289   8.763  13.453
62624W        W24155  30.447  12.169  13.514
62625W        W24156  35.358   4.443  13.513
62626W        W24157  29.460  33.452   2.295
62627W        W24158   8.251   0.257  13.862
62628W        W24159  41.464  12.241   9.945
62629W        W24160  41.403  12.774  10.498
62630W        W24161  44.263  44.988  11.572
62631W        W24162  10.239   3.817  12.420
62632W        W24163   5.782  37.407   3.294
62633W        W24164  32.555   4.256  10.486
62634W        W24165   6.757  10.263   4.114
62635W        W24166   2.290  41.475   2.821
62636W        W24167  30.927   0.819  11.582
62637W        W24168  34.081  17.134   0.777
62638W        W24169  11.127  25.605   1.225
62639W        W24170  44.453  21.072   0.946
62640W        W24171   9.845  21.027   1.732
62641W        W24172  15.319  14.235   0.415
62642W        W24173   9.832   3.762  11.436
62643W        W24174   0.349  17.740   3.232
62644W        W24175   8.284   7.251  11.903
62645W        W24176   8.817  22.610   0.764
62646W        W24177  42.373  37.977   3.383
62647W        W24178   3.906  18.599   1.833
62648W        W24179  21.131  29.470  10.506
62649W        W24180  18.774  43.456   3.320
62650W        W24181  32.032  17.261   4.282
62651W        W24182   8.259   3.932   1.373
62652W        W24183  17.169  24.166  14.844
62653W        W24184  29.003  22.102   0.322
62654W        W24185   4.307  33.048  13.930
62655W        W24186  38.851   1.359   4.820
62656W        W24187   9.242  44.486   1.918
62657W        W24188  21.019   1.470  13.403
62658W        W24189  27.622  13.178   4.352
62659W        W24190  44.998   0.321   5.264
62660W        W24191   5.874  42.868  10.608
62661W        W24192  25.155   6.896   4.119
62662W        W24193   5.359  17.280  11.589
62663W        W24194  16.107   5.741  10.450
62664W        W24195  19.735  37.397   4.732
62665W        W24196   9.804   4.916   2.760
62666W        W24197  16.283  17.560  13.974
62667W        W24198  28.038   8.870   0.284
62668W        W24199  20.536  31.105   4.352
62669W        W24200  35.864  28.528   3.800
62670W        W24201  20.720  34.111   3.856
62671W        W24202  44.275  43.870   1.899
62672W        W24203  33.556  36.361  12.360
62673W        W24204  35.923   9.288   2.277
62674W        W24205  12.181   5.349   0.802
62675W        W24206   2.769  39.936   0.841
62676W        W24207  35.558  19.739  10.501
62677W        W24208  40.959  26.007   0.943
62678W        W24209  21.252  19.273   3.802
62679W        W24210  11.674  42.878  13.951
62680W        W24211  43.008  25.128  10.426
62681W        W24212  43.345   6.872   3.806
62682W        W24213  16.146  10.233   0.345
62683W        W24214   7.374  13.698  13.980
62684W        W24215  36.083  25.699   1.287
62685W        W24216  40.853  24.633  12.560
62686W        W24217   0.258  37.356  13.913
62687W        W24218  27.672  21.595   3.276
62688W        W24219  25.544   9.743   4.296
62689W        W24220  42.330  33.542   4.279
62690W        W24221  29.926   1.294   0.446
62691W        W24222   6.311  20.109  12.057
62692W        W24223  42.504  35.014   1.774
62693W        W24224  22.548  18.683  12.842
62694W        W24225  30.610  18.569   3.228
62695W        W24226  26.529  30.952   2.771
62696W        W24227  35.024  36.944  13.044
62697W        W24228  22.023  36.535   4.342
62698W        W24229   7.254   8.799   1.786
62699W        W24230  32.583  31.634  14.377
62700W        W24231  24.198  18.151  13.467
62701W        W24232  43.284  27.066  14.473
62702W        W24233  12.745  43.002  10.514
62703W        W24234   6.301  22.178  13.473
62704W        W24235  25.131  34.428  14.277
62705W        W24236   1.270  25.215   0.790
62706W        W24237  16.645  28.559   1.285
62707W        W24238   4.874  43.330   1.378
62708W        W24239   5.289  13.707   4.639
62709W        W24240  25.677  22.076  12.951
62710W        W24241   4.353  23.496   1.285
62711W        W24242  25.009  22.595  13.854
62712W        W24243   3.809  40.342   1.365
62713W        W24244  27.179  38.830   1.916
62714W        W24245   7.172  42.413  11.387
62715W        W24246  39.999  21.637   2.809
62716W        W24247  43.453  27.613   1.898
62717W        W24248  27.536  29.618   2.331
62718W        W24249  41.919  20.568   4.286
62719W        W24250  18.734  15.219  14.928
62720W        W24251  36.473  24.596   2.684
62721W        W24252   2.860   9.155  10.626
62722W        W24253  13.798  38.822  11.376
62723W        W24254  40.042  28.038   4.316
62724W        W24255   3.328   6.301  12.974
62725W        W24256  44.469  16.700   2.191
62726W        W24257  25.599   0.449  13.886
62727W        W24258  28.132  13.278   3.685
62728W        W24259   2.852  18.094  13.989
62729W        W24260   4.706  17.183  10.090
62730W        W24261   1.337  28.120   4.179
62731W        W24262   1.769  41.505  13.926
62732W        W24263  42.400  30.453  11.044
62733W        W24264  19.236  42.937  10.903
62734W        W24265  21.752  24.975   1.218
62735W        W24266  12.165  17.757  14.453
62736W        W24267   5.770  15.606   4.806
62737W        W24268   9.840  26.554   2.259
62738W        W24269  40.324  14.162   9.931
62739W        W24270  12.718  38.019   3.740
62740W        W24271  33.458   0.829   0.416
62741W        W24272  44.454   8.350  13.987
62742W        W24273  25.607  14.182  13.032
62743W        W24274  42.342   5.795  12.399
62744W        W24275  28.178  16.802  14.485
62745W        W24276   1.246  42.014   1.776
62746W        W24277  11.297  11.202  10.560
62747W        W24278  36.372  44.313  13.839
62748W        W24279  11.738  15.315   3.365
62749W        W24280   1.386   1.949  12.379
62750W        W24281  20.072  44.333  14.444
62751W        W24282   4.911   4.945  12.858
62752W        W24283  38.550  38.435  14.892
62753W        W24284  24.615  28.007   3.288
62754W        W24285  17.251  30.008  14.875
62755W        W24286  37.025  43.902   1.896
62756W        W24287   5.298  40.920   2.697
62757W        W24288  23.575  10.140  10.503
62758W        W24289   5.688  34.103  10.988
62759W        W24290  24.599   8.225  12.000
62760W        W24291  28.661  28.506   3.158
62761W        W24292  38.824  10.802  14.902
62762W        W24293  23.105  38.830   0.952
62763W        W24294  11.639  24.705  12.458
62764W        W24295  20.263  24.674  13.344
62765W        W24296  27.550  35.884   3.162
62766W        W24297   1.416  12.240   4.275
62767W        W24298  21.193  35.420  13.798
62768W        W24299  41.017  42.469   1.777
62769W        W24300  36.468  27.527  11.466
62770W        W24301  33.539  25.174   5.283
62771W        W24302  15.307  29.663  11.541
62772W        W24303  18.082  11.839   2.779
62773W        W24304  44.480   6.881   1.896
62774W        W24305  11.658  34.949   3.700
62775W        W24306  17.605   3.222  14.877
62776W        W24307   0.415  33.597  12.935
62777W        W24308   4.773   4.300   3.162
62778W        W24309   5.324   9.750  14.436
62779W        W24310  23.528   3.899   0.959
62780W        W24311  22.032  10.249   0.403
62781W        W24312  37.419  41.854   4.651
62782W        W24313  15.227  21.625   4.156
62783W        W24314  14.661   4.388   1.869
62784W        W24315  39.462   7.176   2.756
62785W        W24316  26.010  28.581   1.783
62786W        W24317  18.605  38.418  13.832
62787W        W24318  36.933  26.489  11.482
62788W        W24319  11.656  31.917  12.475
62789W        W24320   6.291  38.844   3.734
62790W        W24321  29.982   1.334   1.279
62791W        W24322  29.047  41.992   0.860
62792W        W24323  12.131  23.094   2.890
62793W        W24324  22.056  41.461   1.272
62794W        W24325  33.990   1.396   2.700
62795W        W24326  14.694   8.858   3.782
62796W        W24327  21.098  25.570  10.556
62797W        W24328  30.916   3.244  10.529
62798W        W24329   4.706  44.861  14.883
62799W        W24330  28.167  16.223   3.742
62800W        W24331  27.188  21.077  14.763
62801W        W24332  39.428   4.254  10.925
62802W        W24333  37.855  36.856   2.394
62803W        W24334  19.062   0.281   3.807
62804W        W24335  12.294  13.741  14.026
62805W        W24336  20.083  11.203   1.817
62806W        W24337   2.314  26.087   2.260
62807W        W24338  15.238  10.342   3.186
62808W        W24339  21.086  32.405  14.357
62809W        W24340  37.006  18.700   2.712
62810W        W24341  26.971  12.129  14.820
62811W        W24342  34.515  25.215   0.465
62812W        W24343  14.790   6.748   1.432
62813W        W24344  36.902   0.780   2.419
62814W        W24345  29.440  40.397  14.932
62815W        W24346   0.844   2.246   1.899
62816W        W24347  33.409  32.531  14.324
62817W        W24348  14.219  39.458  11.054
62818W        W24349  26.124  42.334  11.431
62819W        W24350  13.260  41.409   1.278
62820W        W24351  27.483  24.663  14.961
62821W        W24352  33.985  32.116  11.941
62822W        W24353  14.261  27.021  12.545
62823W        W24354  16.256  33.567  10.940
62824W        W24355   7.840  43.886   1.294
62825W        W24356  25.129  17.182  10.906
62826W        W24357  39.408  18.230  11.452
62827W        W24358  39.383   8.848  11.928
62828W        W24359  38.888  39.034  14.946
62829W        W24360  31.956   8.193  14.987
62830W        W24361  26.067  33.052   4.230
62831W        W24362   2.437  22.676   2.704
62832W        W24363   2.450  21.114   0.959
62833W        W24364  13.624  25.594  11.380
62834W        W24365  22.055  16.218  11.459
62835W        W24366  10.336   7.831  11.077
62836W        W24367  44.372  19.603  11.965
62837W        W24368  16.661  41.495   1.843
62838W        W24369  30.546  24.045   3.364
62839W        W24370  35.948  24.986  10.593
62840W        W24371  14.246  24.170  12.517
62841W        W24372  31.039  18.589   2.287
62842W        W24373  39.501   6.357   1.929
62843W        W24374   0.400  32.587   4.612
62844W        W24375  25.007  34.598  10.448
62845W        W24376  23.086   4.260  13.419
62846W        W24377  18.282  32.507  10.611
62847W        W24378   9.666  38.395   3.189
62848W        W24379   5.287  15.691  12.441
62849W        W24380  22.171  13.756  12.427
62850W        W24381  38.493  25.980  12.963
62851W        W24382  37.415  13.790  14.473
62852W        W24383  44.007   0.494  14.487
62853W        W24384  37.884  26.101  12.551
62854W        W24385   0.790   5.369  12.825
62855W        W24386  33.878   8.257   0.248
62856W        W24387  10.206   9.783   0.901
62857W        W24388   2.470   5.391   4.820
62858W        W24389  39.997  16.789   0.407
62859W        W24390  26.542  28.017  12.525
62860W        W24391   9.870  36.878   2.295
62861W        W24392  10.637   4.205   9.925
62862W        W24393   6.227  23.065  12.065
62863W        W24394  30.144  32.909  12.383
62864W        W24395  19.719  30.076  14.967
62865W        W24396   7.281  30.920  14.406
62866W        W24397  34.424  35.581  14.923
62867W        W24398   3.846  24.150   2.883
62868W        W24399  11.335  16.102  13.037
62869W        W24400   8.189   0.803   0.472
62870W        W24401   4.362  12.630  11.916
62871W        W24402  25.217  11.195  14.982
62872W        W24403   8.826  40.985   3.214
62873W        W24404  38.827  15.212  11.508
62874W        W24405  21.117  21.733  11.919
62875W        W24406  39.969  33.465   0.350
62876W        W24407  22.633  20.748  14.307
62877W        W24408  39.369   0.867  12.343
62878W        W24409  23.582  10.218   3.733
62879W        W24410  16.243  15.763  10.105
62880W        W24411  15.255  20.030   0.459
62881W        W24412   1.931  37.978  12.571
62882W        W24413  24.625  19.727  10.466
62883W        W24414  33.468  18.599   1.831
62884W        W24415  25.073   4.206   2.895
62885W        W24416  38.479  11.851   0.867
62886W        W24417  38.857  16.727  11.476
62887W        W24418  42.286  17.260   0.815
62888W        W24419  25.503  38.850   0.780
62889W        W24420  13.313  24.023   0.958
62890W        W24421  29.632  32.062   4.602
62891W        W24422  25.139  44.299  12.825
62892W        W24423  11.679   4.823   1.220
62893W        W24424   9.735  33.998   4.648
62894W        W24425  11.216  32.045   9.942
62895W        W24426   9.753  12.336   2.897
62896W        W24427  11.333  42.010   4.215
62897W        W24428  20.032  18.196   2.841
62898W        W24429  26.500  18.064  14.955
62899W        W24430  31.647  38.417  11.513
62900W        W24431  23.067  37.838  14.910
62901W        W24432  15.802   5.287   3.254
62902W        W24433  28.445  42.381  10.987
62903W        W24434  40.334  40.028  10.896
62904W        W24435  36.015  23.707   0.749
62905W        W24436   4.380  23.691  10.117
62906W        W24437  39.024  26.702  12.431
62907W        W24438  15.642   1.912   2.302
62908W        W24439  44.910  26.477   0.375
62909W        W24440   0.298  24.644  14.915
62910W        W24441   3.915  11.832   1.860
62911W        W24442  12.810  38.409  12.965
62912W        W24443  28.499   8.853  13.321
62913W        W24444  34.940  24.657   0.878
62914W        W24445  25.987   9.751  13.812
62915W        W24446  28.454  37.915  10.602
62916W        W24447  43.006  18.783   4.336
62917W        W24448  13.319  32.046   2.258
62918W        W24449  37.964  26.559   3.228
62919W        W24450  12.812   6.734  12.352
62920W        W24451  35.399  17.676   4.750
62921W        W24452  29.667  12.298  11.928
62922W        W24453  28.992  42.400   0.853
62923W        W24454  28.063   0.864   3.179
62924W        W24455  37.361   8.899  13.989
62925W        W24456  16.178  31.032  14.953
62926W        W24457  41.895   4.919   9.933
62927W        W24458  28.112  16.641  12.365
62928W        W24459  29.101  33.389  13.804
62929W        W24460  33.932  11.274   0.374
62930W        W24461  34.037  10.716  12.561
62931W        W24462  37.070   3.389  11.891
62932W        W24463  42.897  43.905   3.150
62933W        W24464  23.553  23.568   2.769
62934W        W24465  27.464  14.725  13.409
62935W        W24466  38.509  16.784  12.090
62936W        W24467  40.822  36.965  11.921
62937W        W24468  17.768  25.970   3.292
62938W        W24469  32.484  10.866  14.011
62939W        W24470   2.777  37.977  11.389
62940W        W24471  26.511  27.550  12.396
62941W        W24472  24.675  33.940   0.871
62942W        W24473  20.548  39.966  13.014
62943W        W24474  27.537   5.772   4.747
62944W        W24475  38.565  20.734   2.287
62945W        W24476   1.287  10.835   0.953
62946W        W24477  28.057  27.981   0.443
62947W        W24478  31.490  33.945  11.471
62948W        W24479   3.358  30.614  10.431
62949W        W24480  22.594  28.056  11.440
62950W        W24481  18.135  24.598  10.896
62951W        W24482  33.480  24.701  14.953
62952W        W24483  36.947   0.922  14.338
62953W        W24484  29.577  26.642  11.376
62954W        W24485   2.272   3.339  11.042
62955W        W24486  14.656  40.436  11.898
62956W        W24487   1.789  37.839  10.599
62957W        W24488  42.370  14.325   2.759
62958W        W24489  30.969   7.685   3.270
62959W        W24490  23.656   1.818   0.274
62960W        W24491  19.584  20.255  11.052
62961W        W24492   0.769  19.558   0.261
62962W        W24493  37.473  26.501   1.862
62963W        W24494   2.798   0.397  11.441
62964W        W24495   0.904   5.737   0.959
62965W        W24496  33.925  32.438   3.704
62966W        W24497   0.364   2.377  12.826
62967W        W24498  37.436   4.414  11.127
62968W        W24499   0.358  28.455   3.224
62969W        W24500  32.475  21.083  11.483
62970W        W24501   4.824   2.828   3.229
62971W        W24502  20.600  19.261   2.783
62972W        W24503  12.692  39.032   4.212
62973W        W24504  21.022  28.469   1.300
62974W        W24505  12.637  11.288  14.811
62975W        W24506  29.941  13.844  14.968
62976W        W24507  15.214  22.234   4.223
62977W        W24508  36.425  35.883  14.865
62978W        W24509  20.073  18.604   9.945
62979W        W24510  24.653  31.022   0.831
62980W        W24511  44.760  14.246   1.747
62981W        W24512  41.819  24.224   1.231
62982W        W24513  23.675   5.435   1.895
62983W        W24514  21.624  21.044  12.446
62984W        W24515  42.283  21.019  14.826
62985W        W24516  32.947  39.553   0.728
62986W        W24517  31.522  11.265  12.037
62987W        W24518  36.088   0.823  11.470
62988W        W24519  27.514   4.403   1.411
62989W        W24520  24.211  30.937  14.300
62990W        W24521  21.742  10.224   4.781
62991W        W24522   0.770  28.937   1.427
62992W        W24523  16.305  21.677   0.957
62993W        W24524   6.817   7.884  11.912
62994W        W24525  40.463   5.389  11.462
62995W        W24526  16.691  38.561   4.704
62996W        W24527  38.956  32.914   0.374
62997W        W24528  23.495   8.860   2.668
62998W        W24529  39.972  20.149  11.596
62999W        W24530   7.264  42.426  10.907
63000W        W24531  20.202  16.283  12.376
63001W        W24532   4.418  33.618   3.867
63002W        W24533   6.820  43.418  11.465
63003W        W24534  37.521  33.526   5.314
63004W        W24535  16.648   5.786  12.453
63005W        W24536  30.143  25.530   3.841
63006W        W24537  39.384  38.452   2.309
63007W        W24538  19.760  39.891  11.401
63008W        W24539  33.605   3.281  12.838
63009W        W24540   9.715  22.501  12.004
63010W        W24541   5.336   9.666   3.718
63011W        W24542  19.729   4.409  11.457
63012W        W24543  44.474  15.270   3.304
63013W        W24544  16.627   7.268   3.700
63014W        W24545   5.411  41.370  12.420
63015W        W24546  41.838  28.179  13.401
63016W        W24547  31.581   7.259  11.054
63017W        W24548  32.036  23.010  12.509
63018W        W24549  11.310  13.610  10.476
63019W        W24550  29.614   7.309  14.398
63020W        W24551  17.720  43.993  13.541
63021W        W24552  11.669  28.184   3.711
63022W        W24553  37.070  40.020  12.464
63023W        W24554  28.005   0.802  12.368
63024W        W24555   6.299  42.496  12.019
63025W        W24556  44.369  43.291   3.335
63026W        W24557  32.115  15.818   2.198
63027W        W24558  38.513  16.297   4.688
63028W        W24559  23.590  35.600   2.269
63029W        W24560   3.925  34.493  14.293
63030W        W24561  33.586  44.840   2.841
63031W        W24562  24.215  12.253  11.984
63032W        W24563  40.311  23.706   5.243
63033W        W24564   1.948  34.518   2.698
63034W        W24565   3.905  22.009   4.179
63035W        W24566  28.436  43.957   2.266
63036W        W24567  41.383  20.195   4.640
63037W        W24568  17.228  36.914   2.776
63038W        W24569   5.861  24.070  12.925
63039W        W24570  36.355  44.803   1.294
63040W        W24571  44.965   7.735  12.541
63041W        W24572   5.780  27.638  14.405
63042W        W24573  29.624  20.615   1.353
63043W        W24574  22.743   0.869   4.275
63044W        W24575   6.333   6.188   4.791
63045W        W24576  11.745   5.263  14.990
63046W        W24577  24.662  37.005  10.956
63047W        W24578  31.461  37.056   3.673
63048W        W24579  27.633  42.514  13.373
63049W        W24580   6.852  14.706  13.333
63050W        W24581  36.467  11.186  12.455
63051W        W24582  14.673  18.221   4.229
63052W        W24583  30.086  38.373  14.325
63053W        W24584  21.680  38.989   3.768
63054W        W24585   3.233  32.949   4.623
63055W        W24586  37.398  11.738  14.963
63056W        W24587  26.692  44.265   4.258
63057W        W24588  35.519  26.668   0.780
63058W        W24589   9.702  20.041   4.128
63059W        W24590  32.926  17.722  10.978
63060W        W24591  19.722  39.964   0.471
63061W        W24592   5.367  17.695   2.293
63062W        W24593  13.244  38.541  13.903
63063W        W24594  33.409  22.101  12.841
63064W        W24595  10.790  10.734  10.438
63065W        W24596  41.810  18.613  11.112
63066W        W24597  42.495  30.456   4.316
63067W        W24598  13.726   7.835   4.760
63068W        W24599  19.566  14.649  11.463
63069W        W24600  12.136  39.453   1.261
63070W        W24601  28.964  41.378   0.324
63071W        W24602  35.391  41.824   2.811
63072W        W24603  15.186   1.455  12.462
63073W        W24604   2.847   2.458  11.527
63074W        W24605   8.705   3.382   1.373
63075W        W24606  15.685  16.213  12.991
63076W        W24607  26.519   9.325   1.281
63077W        W24608  14.698  40.525   0.259
63078W        W24609   2.874  41.854  11.544
63079W        W24610  27.053  22.555  13.376
63080W        W24611  42.779  23.167  12.887
63081W        W24612  28.460  22.022  12.836
63082W        W24613  39.516  23.515   1.932
63083W        W24614  34.005  30.416   0.735
63084W        W24615  26.150  35.864  11.943
63085W        W24616  17.254  41.832  13.976
63086W        W24617   4.291  43.836   3.777
63087W        W24618  27.007  12.776  12.570
63088W        W24619   7.812   0.313   4.696
63089W        W24620  36.944  25.072   0.775
63090W        W24621  19.140   0.400   0.805
63091W        W24622  22.657   9.680  10.155
63092W        W24623  37.075  13.737   4.672
63093W        W24624  29.493   3.390   2.263
63094W        W24625  23.190  32.392  14.844
63095W        W24626   1.245  37.909  13.441
63096W        W24627  31.565   5.433   0.246
63097W        W24628  35.058  33.113  13.337
63098W        W24629  38.443  30.071  14.807
63099W        W24630   6.822  15.620  11.986
63100W        W24631  39.448  43.362  12.009
63101W        W24632  31.527  13.762  10.474
63102W        W24633  31.441  18.666  14.492
63103W        W24634  20.524  28.179   4.167
63104W        W24635  44.316   2.442   1.832
63105W        W24636  38.046  29.148   2.207
63106W        W24637  19.103  36.908   2.405
63107W        W24638  41.528  44.300   1.230
63108W        W24639  28.636  27.604   1.899
63109W        W24640   5.402   3.332  12.062
63110W        W24641  38.492   7.720   5.241
63111W        W24642   7.722  39.432  13.862
63112W        W24643  18.199  22.662  12.431
63113W        W24644  41.460  10.379   0.375
63114W        W24645   7.887  34.544   1.434
63115W        W24646  16.130  20.161  14.432
63116W        W24647  14.310   3.438  12.547
63117W        W24648  41.530  38.415  12.980
63118W        W24649  35.460  44.341   3.159
63119W        W24650  39.462  22.581   3.311
63120W        W24651  15.646  12.167  10.568
63121W        W24652  42.327  18.126   0.925
63122W        W24653  37.533  44.957   1.269
63123W        W24654  43.932  11.258   4.203
63124W        W24655  21.641   0.850  10.448
63125W        W24656   1.920  12.837   3.768
63126W        W24657   7.729   0.418   4.141
63127W        W24658   9.681  33.126  10.418
63128W        W24659  35.429   3.919   1.333
63129W        W24660  39.992  33.509   3.713
63130W        W24661  40.999  44.860   4.693
63131W        W24662  22.078  32.895   3.798
63132W        W24663  23.038  39.399  12.433
63133W        W24664  34.108   0.981   3.731
63134W        W24665  40.814  18.733  12.417
63135W        W24666  38.906  13.725   5.603
63136W        W24667  10.245   6.739   4.193
63137W        W24668  17.707  18.195  14.488
63138W        W24669  37.070  22.189   0.900
63139W        W24670   6.781   8.659  12.579
63140W        W24671  39.522  12.821  11.957
63141W        W24672  25.992  39.407   3.740
63142W        W24673  21.202   2.820   3.199
63143W        W24674  27.619   0.825  12.900
63144W        W24675  34.035  23.595  12.002
63145W        W24676  11.263  29.547  11.476
63146W        W24677  22.017  42.985   0.801
63147W        W24678  14.777   7.313   2.896
63148W        W24679  43.010  22.149   2.821
63149W        W24680  15.155   6.917   1.307
63150W        W24681  23.148  27.571  12.451
63151W        W24682  41.502  21.126  11.100
63152W        W24683   2.915  39.522  10.518
63153W        W24684  34.423  14.224  10.572
63154W        W24685  11.326  41.846  11.383
63155W        W24686  35.974  20.650   0.270
63156W        W24687  34.083  39.330  13.833
63157W        W24688  12.676   1.436  11.105
63158W        W24689  24.498  36.551   1.805
63159W        W24690  29.048  14.317   0.352
63160W        W24691   4.700  12.746  10.081
63161W        W24692  26.031  42.407  10.639
63162W        W24693  30.982  16.669   4.162
63163W        W24694  38.958  29.109  12.904
63164W        W24695  26.106  18.164   1.903
63165W        W24696  12.242   1.877   2.775
63166W        W24697  41.495  22.106   0.304
63167W        W24698   5.382  32.472   2.234
63168W        W24699  12.361   9.343  10.641
63169W        W24700  30.489  36.066   0.787
63170W        W24701   3.215   6.402  10.552
63171W        W24702   6.830   5.358  10.623
63172W        W24703  15.652   3.357  11.384
63173W        W24704   7.265  31.133  10.469
63174W        W24705  24.545  40.845   3.341
63175W        W24706  11.339  17.215   1.735
63176W        W24707  18.285   5.204   2.744
63177W        W24708  21.667   9.200  13.030
63178W        W24709  25.038  44.985  11.517
63179W        W24710  40.898   6.785  12.466
63180W        W24711   7.836   7.838  12.424
63181W        W24712   9.376  26.098  11.569
63182W        W24713  39.327  12.651   2.887
63183W        W24714  22.067  40.381   5.233
63184W        W24715   1.336  38.966  10.993
63185W        W24716  21.229  35.905   2.866
63186W        W24717  41.883  10.293  12.539
63187W        W24718  41.801   6.197  13.360
63188W        W24719  14.660  42.302   4.253
63189W        W24720  19.281  22.099  12.838
63190W        W24721  35.433  22.695   0.380
63191W        W24722   9.761  17.695  14.844
63192W        W24723  38.523  12.232  13.514
63193W        W24724  18.290  16.223  14.835
63194W        W24725  37.080  16.292   4.752
63195W        W24726  22.577  34.102   4.197
63196W        W24727  37.574  25.075   4.130
63197W        W24728  29.667  24.616   0.769
63198W        W24729  39.919  31.505  11.034
63199W        W24730  26.698   7.193   3.178
63200W        W24731  11.345  40.931  12.078
63201W        W24732  30.049  26.612  12.018
63202W        W24733  33.042  27.640  14.408
63203W        W24734  21.097  32.079   0.913
63204W        W24735  41.482  22.539  11.376
63205W        W24736  13.240  37.073  10.624
63206W        W24737   4.209  24.554  14.330
63207W        W24738   3.242   4.393   4.764
63208W        W24739  28.648  38.467   3.703
63209W        W24740  44.790   2.400  10.417
63210W        W24741  23.190  40.324   1.734
63211W        W24742  17.196  11.703   5.192
63212W        W24743   8.792   3.835  14.845
63213W        W24744  12.219  24.098  14.857
63214W        W24745  25.010   7.859  14.416
63215W        W24746  14.601  39.358   1.912
63216W        W24747  27.460   8.678  13.028
63217W        W24748   9.657  30.086  14.405
63218W        W24749  22.243   5.841   3.659
63219W        W24750   0.908   1.240  11.043
63220W        W24751  33.096  28.653   0.327
63221W        W24752  30.947  28.159   0.409
63222W        W24753  21.151  26.957   1.713
63223W        W24754  24.054  21.729  14.460
63224W        W24755  22.728  29.618  13.440
63225W        W24756  29.489   2.765  13.805
63226W        W24757  30.556  20.054  14.024
63227W        W24758   3.317  33.417  11.427
63228W        W24759  11.366   5.864  14.486
63229W        W24760  14.133  33.573  13.856
63230W        W24761  19.202  12.355   4.689
63231W        W24762   5.804  17.289  13.910
63232W        W24763  27.173  28.929  13.813
63233W        W24764  41.037  16.096  13.445
63234W        W24765  13.204  22.036  12.065
63235W        W24766  33.919  19.666   2.800
63236W        W24767  35.529   5.912   2.337
63237W        W24768  23.225  17.098   1.278
63238W        W24769   4.863  37.552   3.802
63239W        W24770  29.043  36.021   0.257
63240W        W24771   9.304  27.625   4.613
63241W        W24772  14.694  40.526  10.131
63242W        W24773  35.398  15.095   1.779
63243W        W24774   7.794  39.808   4.680
63244W        W24775  41.353  20.198  14.853
63245W        W24776  34.463  35.366   9.536
63246W        W24777  39.911  37.347  12.442
63247W        W24778   6.373  29.526   2.799
63248W        W24779  35.988  43.376   2.744
63249W        W24780  42.887   8.677  12.572
63250W        W24781  43.315   8.354   2.242
63251W        W24782   6.346   2.295  14.388
63252W        W24783  13.131  35.454  10.605
63253W        W24784  36.019  36.525   5.127
63254W        W24785  12.854  33.419   4.784
63255W        W24786  28.974  34.557  13.870
63256W        W24787  34.889  26.150  12.981
63257W        W24788  38.384  19.153  12.054
63258W        W24789  42.921  14.790  14.950
63259W        W24790   7.675   2.961  11.039
63260W        W24791  25.164  29.431   2.271
63261W        W24792   7.910  24.166  13.348
63262W        W24793  39.006  14.789  14.826
63263W        W24794  19.192  29.040   1.838
63264W        W24795  15.096  28.585  11.393
63265W        W24796  32.993  11.734   0.862
63266W        W24797  20.664  29.513   4.732
63267W        W24798  23.694  35.487   4.254
63268W        W24799  26.134   8.828  10.537
63269W        W24800   4.889  19.155   4.825
63270W        W24801  21.193  28.453  14.950
63271W        W24802  43.015  16.171  11.079
63272W        W24803  14.708   4.384  10.456
63273W        W24804  16.694  15.236   2.810
63274W        W24805   6.882   1.739   0.309
63275W        W24806   9.284  32.401   2.869
63276W        W24807  23.501   5.263  11.427
63277W        W24808   3.788  25.491  13.915
63278W        W24809  44.505  24.720   0.342
63279W        W24810  42.824  42.887  12.065
63280W        W24811  27.017  21.127   1.218
63281W        W24812  39.982  15.177  14.413
63282W        W24813   4.211  13.675  10.943
63283W        W24814  17.188  44.441   2.198
63284W        W24815  13.306  20.558   4.737
63285W        W24816  11.856  15.729   1.861
63286W        W24817  20.538  27.137   3.281
63287W        W24818   0.922   6.832  14.300
63288W        W24819   7.882  30.485   2.335
63289W        W24820   4.434  36.861   2.805
63290W        W24821  12.256  39.940   3.700
63291W        W24822  16.083  22.608  13.404
63292W        W24823  30.454  14.313  10.424
63293W        W24824  21.534  18.063  11.901
63294W        W24825   9.157  36.540   2.357
63295W        W24826  39.055  33.616   0.288
63296W        W24827  12.289  22.119  14.776
63297W        W24828  43.925  28.666  14.330
63298W        W24829   8.339  40.969   2.328
63299W        W24830   1.371   4.700   4.234
63300W        W24831  19.229   9.860   4.220
63301W        W24832  41.534  21.557  14.878
63302W        W24833   8.321  33.444   2.213
63303W        W24834  34.107  19.271   3.814
63304W        W24835  12.331  38.365  14.304
63305W        W24836   7.907  19.593  11.899
63306W        W24837  31.016  33.587  11.964
63307W        W24838  14.205  34.468   2.409
63308W        W24839   6.892  42.292   3.250
63309W        W24840  10.869  28.572  10.583
63310W        W24841  31.458  39.809  11.492
63311W        W24842  24.042  42.882  14.938
63312W        W24843  28.460   2.903   4.764
63313W        W24844   9.339  31.057   2.386
63314W        W24845  39.043  30.564   4.256
63315W        W24846  35.011  37.565  11.474
63316W        W24847  35.908  23.701  14.916
63317W        W24848  13.697  23.599   4.705
63318W        W24849  18.143   8.238   0.915
63319W        W24850  30.911  13.175  14.925
63320W        W24851   5.373  44.785  14.781
63321W        W24852   1.268  18.773  11.602
63322W        W24853  24.629  33.886  14.827
63323W        W24854  36.544   1.826  11.857
63324W        W24855  31.498  30.018   4.738
63325W        W24856  30.058  23.086   1.895
63326W        W24857  16.290   6.756  10.535
63327W        W24858  18.784  16.092  13.859
63328W        W24859  20.721  16.140   1.226
63329W        W24860  12.287  32.932   4.709
63330W        W24861   9.792  27.990   1.831
63331W        W24862  15.726   6.873   4.754
63332W        W24863  20.672   1.859   3.347
63333W        W24864  25.537   6.716  12.882
63334W        W24865  22.599  21.019  13.544
63335W        W24866  26.509  13.212   1.251
63336W        W24867  42.908  39.542  12.904
63337W        W24868  23.694  20.238   1.358
63338W        W24869  30.142  26.462  13.045
63339W        W24870  28.115   4.365  10.413
63340W        W24871  21.254  34.922  10.418
63341W        W24872  10.725   2.873   0.442
63342W        W24873  10.165  39.542   0.821
63343W        W24874  23.088  17.627   2.846
63344W        W24875  36.983  23.093  11.580
63345W        W24876   9.283  25.004  13.032
63346W        W24877  40.846   6.304  12.902
63347W        W24878  39.827  31.125  10.998
63348W        W24879   5.208  33.010  12.350
63349W        W24880  19.105  38.430   5.307
63350W        W24881  41.457  20.728   1.826
63351W        W24882  41.983  22.672   0.315
63352W        W24883  14.756  22.678   0.766
63353W        W24884   8.699   6.417   4.695
63354W        W24885  26.958  12.212   1.785
63355W        W24886   5.417  21.540   2.332
63356W        W24887  24.598  30.953   2.781
63357W        W24888  26.634  43.415  12.523
63358W        W24889  23.581  22.038  12.963
63359W        W24890   2.343  26.633   3.379
63360W        W24891   1.812   8.870  14.371
63361W        W24892  40.797  27.070  10.983
63362W        W24893   7.680  25.075   2.387
63363W        W24894  11.765  26.136  13.054
63364W        W24895  29.033  17.655   1.800
63365W        W24896  33.070  35.063   2.695
63366W        W24897   4.837  31.920   0.336
63367W        W24898  12.738  28.132  12.824
63368W        W24899   1.392  44.315   4.335
63369W        W24900  19.679  21.158  14.387
63370W        W24901  20.092   5.795   3.287
63371W        W24902  23.987  23.030  14.424
63372W        W24903  23.653  26.603  12.946
63373W        W24904  44.986   9.814  13.999
63374W        W24905   5.828   7.247  11.952
63375W        W24906  11.151   2.820  12.580
63376W        W24907   9.726  22.105  14.476
63377W        W24908   5.893  22.626  13.965
63378W        W24909  13.290   7.260  11.919
63379W        W24910  14.141  22.018  11.993
63380W        W24911  25.550  38.426   1.930
63381W        W24912  33.603   6.367   1.255
63382W        W24913  24.576  39.314   2.348
63383W        W24914  40.390  41.425   9.962
63384W        W24915  39.046   8.748   1.770
63385W        W24916  26.619  15.288   4.352
63386W        W24917  19.145   0.383  12.009
63387W        W24918  31.909  34.071  11.467
63388W        W24919  23.986  19.125   1.812
63389W        W24920  18.635  39.885  12.361
63390W        W24921  12.186   2.912   4.660
63391W        W24922  25.204   0.410   1.890
63392W        W24923  11.176  20.575  13.050
63393W        W24924  23.502  35.415  10.558
63394W        W24925  31.428  30.653   3.764
63395W        W24926  14.604  38.952  11.912
63396W        W24927  10.819  42.372   1.935
63397W        W24928  25.216   2.446   0.961
63398W        W24929  31.060  37.384   2.678
63399W        W24930   4.876   2.755  14.941
63400W        W24931   3.435  35.860  14.000
63401W        W24932  20.218  30.613  11.502
63402W        W24933   5.804   8.891   3.176
63403W        W24934  31.988   4.728  12.075
63404W        W24935  15.672  12.674  12.062
63405W        W24936  15.587  35.572  10.446
63406W        W24937  10.877   5.405   5.132
63407W        W24938  41.347  30.625  14.395
63408W        W24939  37.935   1.483   4.116
63409W        W24940  43.290  16.624  11.908
63410W        W24941  16.587  31.518   4.631
63411W        W24942  13.765   1.758   3.177
63412W        W24943  37.509   5.403  14.960
63413W        W24944  24.072  17.728   2.781
63414W        W24945   1.362  41.444   3.799
63415W        W24946  43.320   9.343  12.574
63416W        W24947   2.847  33.050  14.979
63417W        W24948   9.259   3.806   0.729
63418W        W24949  15.616   4.253  12.824
63419W        W24950  16.628  36.560   3.821
63420W        W24951   1.384   0.299  13.332
63421W        W24952  35.877  43.377   2.192
63422W        W24953  33.403   1.348  12.561
63423W        W24954   6.758  27.940   1.379
63424W        W24955  37.943  14.246  11.099
63425W        W24956  26.518  30.527   2.664
63426W        W24957   1.440  27.120  13.357
63427W        W24958   2.729   2.343   0.776
63428W        W24959  10.178  22.604  10.142
63429W        W24960  25.641  10.694  12.358
63430W        W24961   3.910  27.198   1.385
63431W        W24962   5.767  26.181  14.845
63432W        W24963  11.367  11.312   0.889
63433W        W24964  19.586  28.565  11.067
63434W        W24965  27.448  22.548  14.777
63435W        W24966  24.590  14.169  14.928
63436W        W24967  14.172  14.094   0.854
63437W        W24968  44.901  21.247  11.071
63438W        W24969  28.168  33.391   1.239
63439W        W24970   9.379   5.717  11.509
63440W        W24971  26.675   4.210  14.949
63441W        W24972  43.871  44.879   0.452
63442W        W24973  23.001  14.678  12.498
63443W        W24974   5.808  10.834   3.275
63444W        W24975  35.042   1.752   2.352
63445W        W24976   8.858   3.925  12.057
63446W        W24977  17.130   5.773  12.418
63447W        W24978  10.309  44.940  11.435
63448W        W24979  43.804  22.656  10.640
63449W        W24980  29.431  26.043  12.987
63450W        W24981  12.650  27.621   0.310
63451W        W24982   6.850  26.087  12.900
63452W        W24983  17.141   6.289   1.420
63453W        W24984  35.546  23.601   4.743
63454W        W24985   7.197  35.581  11.462
63455W        W24986  16.203   6.790  11.387
63456W        W24987  11.170  17.620  10.465
63457W        W24988  40.878  30.587   0.836
63458W        W24989  44.312   2.866   4.782
63459W        W24990  36.512   5.931   1.791
63460W        W24991  17.071  32.561  13.318
63461W        W24992  37.443   2.878   1.903
63462W        W24993  22.023  24.616   3.369
63463W        W24994  43.895  39.833   4.153
63464W        W24995  40.447  14.160   0.899
63465W        W24996  22.574  44.440   1.773
63466W        W24997  32.604  37.017  12.012
63467W        W24998  40.932  30.478  14.410
63468W        W24999  13.223  18.636  12.933
63469W        W25000  33.473  23.584  12.842
63470W        W25001  42.303  12.356   4.812
63471W        W25002  28.122  26.958   0.257
63472W        W25003  21.715  35.976   2.708
63473W        W25004   4.793  44.452   3.227
63474W        W25005  42.438   8.294   2.880
63475W        W25006   5.825  10.170   0.395
63476W        W25007  38.836  36.024   3.692
63477W        W25008  20.534  35.533   3.329
63478W        W25009  40.540  44.452  10.940
63479W        W25010  33.924  10.157  11.525
63480W        W25011   0.746  37.357  13.914
63481W        W25012   0.404  18.553  13.406
63482W        W25013  13.328  16.205   2.737
63483W        W25014  42.906  15.765   3.282
63484W        W25015   9.217   8.899  12.082
63485W        W25016  36.036  30.486  14.962
63486W        W25017   8.845  28.028   0.332
63487W        W25018  21.145  24.599   1.444
63488W        W25019  14.786  15.723  14.827
63489W        W25020   3.316  16.223   0.912
63490W        W25021  29.118  43.002  11.952
63491W        W25022  32.391  19.743   2.245
63492W        W25023  35.360  19.682  11.570
63493W        W25024   8.246  44.289   2.372
63494W        W25025  16.571  19.599  11.559
63495W        W25026  32.093  12.247  13.411
63496W        W25027   5.755  27.104  13.975
63497W        W25028  18.747  18.074   3.338
63498W        W25029  29.501   9.334   0.384
63499W        W25030   5.710  15.616   4.186
63500W        W25031  10.185  41.468  12.004
63501W        W25032  25.994  20.698  12.349
63502W        W25033   7.302  12.301   1.869
63503W        W25034  27.189  15.316   3.206
63504W        W25035   0.437  14.292  11.098
63505W        W25036  31.126  40.022   0.481
63506W        W25037  36.541  31.014  12.494
63507W        W25038  21.743   5.294   1.426
63508W        W25039  11.698  22.035  10.620
63509W        W25040  44.845  13.234  11.106
63510W        W25041  37.370  17.231  14.999
63511W        W25042   8.336  15.630  12.048
63512W        W25043  18.278  42.969   3.682
63513W        W25044  33.396  11.359  14.344
63514W        W25045  44.845  30.604   1.811
63515W        W25046  31.030  21.591  10.536
63516W        W25047  28.959  28.550  10.478
63517W        W25048   7.374  16.756  12.472
63518W        W25049   4.779  11.342  10.157
63519W        W25050  23.173  38.962   2.810
63520W        W25051  22.067  23.995   2.202
63521W        W25052  10.147  29.589   3.766
63522W        W25053   2.739  22.569   5.776
63523W        W25054   2.842   0.902   3.827
63524W        W25055  23.528   9.240   1.308
63525W        W25056  27.628  43.299  14.412
63526W        W25057   3.888   4.352  10.493
63527W        W25058   0.389  42.017  12.829
63528W        W25059  41.513  43.318  11.377
63529W        W25060  24.994  32.519  12.514
63530W        W25061  11.352   4.379  12.512
63531W        W25062  38.340   0.378   3.825
63532W        W25063  36.544   6.193   1.255
63533W        W25064  11.696  13.247   0.362
63534W        W25065  40.486   3.392  14.996
63535W        W25066  18.098  44.933  11.397
63536W        W25067  18.077  21.754   9.967
63537W        W25068  25.538  27.113  12.859
63538W        W25069  36.424   5.751   9.943
63539W        W25070  36.097  34.896   2.310
63540W        W25071  20.575  43.900   4.189
63541W        W25072  11.798  31.920  14.476
63542W        W25073  37.469   7.871   3.149
63543W        W25074  23.042   6.808   0.315
63544W        W25075  24.541   6.204  12.546
63545W        W25076  23.613  26.066   4.802
63546W        W25077  18.594  10.261   3.696
63547W        W25078  30.493   2.467   0.334
63548W        W25079  33.984  14.724   2.316
63549W        W25080  41.960  37.504   5.172
63550W        W25081   3.721  21.157   3.634
63551W        W25082  17.729  27.558  10.469
63552W        W25083  39.881  40.044   0.381
63553W        W25084  37.994   1.785  13.511
63554W        W25085   2.458  26.503  11.034
63555W        W25086  44.761   1.896  13.365
63556W        W25087  32.891  18.055  11.586
63557W        W25088  40.537   6.728   1.935
63558W        W25089  44.449   5.723   4.209
63559W        W25090  42.777  41.475   1.747
63560W        W25091  23.990   5.810  13.938
63561W        W25092  27.136  11.779   1.928
63562W        W25093   8.375  34.010   1.799
63563W        W25094  12.656  28.492   2.776
63564W        W25095  14.704  21.096   0.335
63565W        W25096  33.006  33.900   4.792
63566W        W25097  41.293  29.658  11.473
63567W        W25098  29.994  10.712   0.332
63568W        W25099  27.469  34.422  11.960
63569W        W25100  31.473   4.870  10.909
63570W        W25101  35.026   7.279  11.913
63571W        W25102   2.402   4.793  14.413
63572W        W25103   5.819  29.504  13.981
63573W        W25104  14.647  23.134  14.444
63574W        W25105  14.802   6.784   2.884
63575W        W25106  15.126  38.364  12.969
63576W        W25107   6.919  34.007   2.815
63577W        W25108  25.123  20.192  11.047
63578W        W25109  24.686  19.753   0.960
63579W        W25110  23.027   0.268   1.426
63580W        W25111  28.491  37.346  10.502
63581W        W25112  27.669  12.666  11.113
63582W        W25113  11.233  29.060  13.873
63583W        W25114  43.901   1.366  14.330
63584W        W25115  21.644   7.412   5.322
63585W        W25116  19.223  27.943  14.846
63586W        W25117  13.310  19.273   1.355
63587W        W25118  32.042  21.019  11.943
63588W        W25119  16.173  23.511   2.756
63589W        W25120  19.705   8.178  11.390
63590W        W25121  32.548  11.805   1.429
63591W        W25122  23.589  27.004   4.235
63592W        W25123  24.129  22.093  14.457
63593W        W25124  34.426   5.796   0.283
63594W        W25125  33.575  23.524  11.026
63595W        W25126   5.227  43.289  12.076
63596W        W25127  42.411  40.527   0.906
63597W        W25128   5.908  41.002   2.832
63598W        W25129  18.102  21.073  14.945
63599W        W25130  30.605  22.693  12.567
63600W        W25131  29.030  35.864   2.729
63601W        W25132  32.127  22.247   3.659
63602W        W25133  16.212  43.281   3.281
63603W        W25134  13.128  30.968  13.896
63604W        W25135  42.401  39.900   0.255
63605W        W25136  44.429  18.604   1.921
63606W        W25137   3.430   9.186  10.510
63607W        W25138  23.691  12.199   4.268
63608W        W25139  21.605  16.669  13.427
63609W        W25140  11.223   0.967   1.706
63610W        W25141   5.434   4.263   3.316
63611W        W25142  33.585  26.542   3.635
63612W        W25143  27.098  25.566  14.857
63613W        W25144  26.646  33.008   4.228
63614W        W25145  18.280  18.294  11.062
63615W        W25146  39.895  34.063   0.437
63616W        W25147  32.624  24.206  14.380
63617W        W25148  33.618  34.925  10.577
63618W        W25149  18.184   6.743   2.382
63619W        W25150  20.631  41.786  11.609
63620W        W25151  30.569  41.802   4.639
63621W        W25152  16.099  19.746  11.449
63622W        W25153  10.339  28.620  11.489
63623W        W25154  43.942  11.638   0.470
63624W        W25155  23.161  38.487  11.939
63625W        W25156   2.902  20.129  11.458
63626W        W25157  12.251  31.909  14.839
63627W        W25158  16.595  44.845   3.153
63628W        W25159  12.160  36.996   1.442
63629W        W25160  20.053  26.684  14.902
63630W        W25161   6.407  39.415  11.079
63631W        W25162  13.106  21.736   4.284
63632W        W25163  25.028  39.335   3.675
63633W        W25164  20.116   4.806  14.440
63634W        W25165   7.187   9.871  11.517
63635W        W25166  34.894   9.881  10.904
63636W        W25167  40.974  16.600   2.738
63637W        W25168  25.186  32.422  13.044
63638W        W25169  30.017  21.669  10.408
63639W        W25170  19.254  15.270  14.938
63640W        W25171  13.606  12.674   4.248
63641W        W25172   7.406  38.405  14.835
63642W        W25173  43.808   7.882   2.311
63643W        W25174  20.620  18.768  13.924
63644W        W25175  26.072  21.581  13.801
63645W        W25176  44.765  10.650  13.382
63646W        W25177  40.990  28.493   4.191
63647W        W25178  37.478   7.358  10.027
63648W        W25179   1.837  18.271   2.189
63649W        W25180  37.084  14.638   3.684
63650W        W25181  28.996  37.358   4.791
63651W        W25182  35.368  16.569  14.795
63652W        W25183  36.070  29.555   2.724
63653W        W25184  39.913  19.225  10.954
63654W        W25185  25.092  40.525   4.834
63655W        W25186   3.333  22.095   0.338
63656W        W25187   0.443  14.647  14.009
63657W        W25188  16.646  34.906  10.639
63658W        W25189  43.388  27.198  11.610
63659W        W25190  32.437  17.684  13.995
63660W        W25191  14.623  12.178  13.447
63661W        W25192  35.415  40.545  13.324
63662W        W25193  32.104  30.048   3.779
63663W        W25194   9.763   3.414   4.825
63664W        W25195  11.726  36.870  12.898
63665W        W25196  29.158  37.381  10.959
63666W        W25197  21.592  35.027  10.626
63667W        W25198  17.185  12.316   4.240
63668W        W25199   3.441  30.635   3.185
63669W        W25200  20.101   8.746   2.783
63670W        W25201  36.868  36.402  13.435
63671W        W25202   5.263  32.426   2.780
63672W        W25203  35.005  20.737   2.693
63673W        W25204  26.591  13.268   1.745
63674W        W25205  27.665  35.364   0.758
63675W        W25206  31.002  35.861   3.232
63676W        W25207  32.135  33.094   1.220
63677W        W25208   2.900  27.966  11.973
63678W        W25209  13.633  33.516  13.965
63679W        W25210  41.429   3.434   2.778
63680W        W25211  37.515  41.920  11.870
63681W        W25212  25.547  13.726  11.577
63682W        W25213  24.617  41.489   0.326
63683W        W25214  10.819  30.449   2.668
63684W        W25215  20.113  42.331  11.559
63685W        W25216   4.367  43.901   2.701
63686W        W25217  37.079  11.340  11.961
63687W        W25218   3.877  36.552   1.838
63688W        W25219  37.383  11.810  12.087
63689W        W25220  34.500  16.676   1.264
63690W        W25221  20.553  36.423  12.479
63691W        W25222   9.369   4.417  10.567
63692W        W25223  13.732  31.126   0.463
63693W        W25224  13.833  44.934  12.955
63694W        W25225   8.209  33.051   1.908
63695W        W25226   5.701  15.254  14.853
63696W        W25227  43.485  12.764  12.370
63697W        W25228  31.060  15.823  12.367
63698W        W25229   6.368  27.088  12.020
63699W        W25230  44.461   8.207   2.399
63700W        W25231  26.520  18.296  13.009
63701W        W25232  19.595  18.060  13.450
63702W        W25233  22.699  32.111  12.442
63703W        W25234   3.446  23.038   5.108
63704W        W25235  35.594   1.334  13.377
63705W        W25236   1.753  12.708  14.497
63706W        W25237  37.083  27.971   3.767
63707W        W25238  10.361  41.411  10.585
63708W        W25239  13.247   1.875   9.974
63709W        W25240  12.314   4.889   3.772
63710W        W25241  10.358  12.146  14.967
63711W        W25242  36.386  39.421   2.361
63712W        W25243  36.945  44.769   1.319
63713W        W25244  21.158  16.699   2.831
63714W        W25245   4.878  24.139   1.349
63715W        W25246  39.319  35.057  14.366
63716W        W25247  15.805  20.216   0.359
63717W        W25248   9.781  16.189   2.826
63718W        W25249  27.530  17.665  14.868
63719W        W25250  33.523  27.538  12.985
63720W        W25251   6.785  25.205   3.345
63721W        W25252  37.856   7.911  10.515
63722W        W25253   7.780  29.074   3.255
63723W        W25254  31.639  18.594  13.480
63724W        W25255  26.580  23.631  14.817
63725W        W25256   4.321   3.849  14.802
63726W        W25257  18.143  34.035  14.443
63727W        W25258  20.195  31.634   4.667
63728W        W25259  22.246   3.369  12.066
63729W        W25260  40.909  20.557   4.784
63730W        W25261  13.659  31.973  14.284
63731W        W25262  25.068  35.002   2.295
63732W        W25263   3.382   4.933  12.083
63733W        W25264  15.692  18.601  13.458
63734W        W25265  35.037  17.245  11.478
63735W        W25266  35.584   3.405  12.942
63736W        W25267  29.484  28.545  11.052
63737W        W25268  31.901  17.160   2.666
63738W        W25269  28.020  14.323   4.338
63739W        W25270  15.097  20.133   3.188
63740W        W25271   8.742  43.887   4.798
63741W        W25272  37.852  18.081  11.533
63742W        W25273  23.685  44.420   3.152
63743W        W25274  42.295  10.861   2.757
63744W        W25275  38.369   7.293  10.421
63745W        W25276   9.259  27.039  13.947
63746W        W25277   4.770  26.559   1.331
63747W        W25278  43.863  34.598   4.338
63748W        W25279  19.114   6.378  14.511
63749W        W25280  12.720  42.838   5.184
63750W        W25281   4.861   8.370  13.023
63751W        W25282   4.942  22.008  11.931
63752W        W25283  18.610   8.724   0.905
63753W        W25284  24.016  29.020   2.753
63754W        W25285  15.773   8.237  10.490
63755W        W25286  43.407  19.553   3.330
63756W        W25287  28.937  13.749  10.925
63757W        W25288  41.340  42.902   1.214
63758W        W25289   9.850  34.468  13.499
63759W        W25290  36.581  25.575   1.313
63760W        W25291  33.899   5.216   4.350
63761W        W25292  14.662  39.969   1.793
63762W        W25293  33.572   6.402   0.763
63763W        W25294  36.907  38.005  14.300
63764W        W25295  24.152  41.033  12.923
63765W        W25296  12.777  14.741  13.983
63766W        W25297  17.267  34.067  13.893
63767W        W25298   2.307   5.782  14.416
63768W        W25299  41.305   4.928  12.481
63769W        W25300   9.225  29.011  11.546
63770W        W25301   2.245  22.650  12.013
63771W        W25302  14.285  37.493  13.956
63772W        W25303   2.785  23.655  11.998
63773W        W25304  10.863  32.910   3.366
63774W        W25305  11.184  42.028  13.917
63775W        W25306  16.225  24.129  13.374
63776W        W25307  40.882   9.710   0.765
63777W        W25308  19.643  29.545  11.539
63778W        W25309  42.833  38.055  13.543
63779W        W25310  23.014   7.713   1.842
63780W        W25311  30.988  16.689   0.385
63781W        W25312  39.942  25.500   0.311
63782W        W25313  20.741  16.775   3.306
63783W        W25314   5.904  32.429  11.551
63784W        W25315  36.471  24.981  11.097
63785W        W25316   5.915  10.678  11.596
63786W        W25317  41.026  30.448  10.560
63787W        W25318  34.511   3.267  14.796
63788W        W25319  28.118  12.312  10.562
63789W        W25320  23.131  31.514  11.387
63790W        W25321   2.875  41.457   1.698
63791W        W25322  27.651  42.804  11.082
63792W        W25323  35.100  43.407   3.264
63793W        W25324  12.649  38.005   1.340
63794W        W25325  26.497  21.043  11.892
63795W        W25326  34.385  23.673   0.408
63796W        W25327  35.864  12.788  10.568
63797W        W25328  33.056  35.459  10.979
63798W        W25329   6.301  24.106  10.631
63799W        W25330  39.034  42.011   5.266
63800W        W25331  35.494  32.125  10.468
63801W        W25332  44.294  34.907  11.489
63802W        W25333  21.586   9.311   2.888
63803W        W25334   3.219  35.853  12.530
63804W        W25335  29.601  23.615  13.546
63805W        W25336   3.293  14.131   3.264
63806W        W25337  20.747  21.663   2.761
63807W        W25338  29.456  17.686   4.719
63808W        W25339  15.594  38.955  11.415
63809W        W25340  15.710  22.072  10.461
63810W        W25341  38.882   5.929   1.310
63811W        W25342  30.015  18.588  12.486
63812W        W25343  33.437  11.261  12.835
63813W        W25344  17.280  18.781   0.477
63814W        W25345  10.293  42.438  12.982
63815W        W25346  11.853   9.331  11.088
63816W        W25347  14.123  31.460   1.781
63817W        W25348  16.696  15.187   0.424
63818W        W25349  15.311  41.340  13.424
63819W        W25350  21.612  36.883  11.417
63820W        W25351  18.261  29.128   2.336
63821W        W25352   2.368   1.363  14.863
63822W        W25353   4.725   4.402   9.979
63823W        W25354  25.979  16.084   1.351
63824W        W25355  40.031  40.463   1.873
63825W        W25356   5.808   6.680  13.397
63826W        W25357  21.072  31.428  10.606
63827W        W25358  22.537  21.626  14.007
63828W        W25359  40.990  17.620   1.358
63829W        W25360  31.058  25.047  12.565
63830W        W25361  24.494  31.969  12.431
63831W        W25362  33.121  18.127   0.787
63832W        W25363  14.732  31.969   0.345
63833W        W25364  41.947   8.309   3.671
63834W        W25365  41.396  27.139   1.831
63835W        W25366  35.084  21.687  14.305
63836W        W25367  28.587   8.215  11.993
63837W        W25368   8.240  15.625   0.478
63838W        W25369   9.198   8.822  13.380
63839W        W25370  19.757  36.443  10.479
63840W        W25371   7.904  21.213  10.135
63841W        W25372   7.677   7.667   1.928
63842W        W25373  14.666  29.638   2.777
63843W        W25374  32.477  16.111   3.861
63844W        W25375  25.073  12.621  12.995
63845W        W25376  15.134  26.983   4.803
63846W        W25377  38.956   3.802  12.488
63847W        W25378  10.318  14.749   1.868
63848W        W25379   3.227  10.689   0.810
63849W        W25380  34.569  37.036  14.760
63850W        W25381  19.104   9.879   2.900
63851W        W25382  29.654  23.618   5.305
63852W        W25383  26.055  18.740   1.267
63853W        W25384  41.292  40.407   4.342
63854W        W25385   0.309   2.786   0.820
63855W        W25386  31.478  37.853  10.590
63856W        W25387  37.900  10.220   3.779
63857W        W25388   5.900   6.732   2.371
63858W        W25389   1.353  11.152   2.238
63859W        W25390  33.430  31.911   3.637
63860W        W25391  40.930  13.817  10.892
63861W        W25392  32.549  42.472  13.345
63862W        W25393   3.840  11.363   1.425
63863W        W25394   5.344   5.765  14.478
63864W        W25395  32.404   3.784  12.874
63865W        W25396   1.753  20.185  14.481
63866W        W25397  36.941  18.735  13.365
63867W        W25398  31.482  15.676   9.631
63868W        W25399   4.845  36.854  14.852
63869W        W25400  44.969  23.172  12.041
63870W        W25401  32.588   6.400  14.489
63871W        W25402  14.233  36.476  14.365
63872W        W25403  44.496  38.532  10.407
63873W        W25404  14.835  35.545   4.118
63874W        W25405  44.331  11.655   2.417
63875W        W25406  42.786  20.074   3.187
63876W        W25407  28.942  28.531  12.545
63877W        W25408  32.117  19.239  14.503
63878W        W25409  24.702  14.334  13.018
63879W        W25410   8.755  42.285  13.801
63880W        W25411  43.438  20.191  11.406
63881W        W25412  24.165  25.057   0.393
63882W        W25413  33.421  29.532   2.224
63883W        W25414  21.565  39.532  10.641
63884W        W25415   3.845  36.047   2.330
63885W        W25416  41.012  25.713   1.251
63886W        W25417  40.895  18.208   4.158
63887W        W25418  25.601  18.133  12.005
63888W        W25419  31.042  15.161   0.788
63889W        W25420  41.355  24.133   2.252
63890W        W25421   3.796   6.683  14.823
63891W        W25422   3.727  21.556   1.828
63892W        W25423  24.153   3.399   1.755
63893W        W25424  14.118  30.062   4.660
63894W        W25425   8.671  13.307  14.375
63895W        W25426  31.100   2.836   4.224
63896W        W25427  28.142   0.491  14.778
63897W        W25428  25.588  29.086  14.312
63898W        W25429  18.660  32.124   2.872
63899W        W25430   0.904   6.836  11.967
63900W        W25431  24.167   5.891   1.774
63901W        W25432  40.800  19.154   1.429
63902W        W25433  19.663  22.133   3.754
63903W        W25434  32.401  10.262   1.930
63904W        W25435   4.232  44.761   4.241
63905W        W25436  16.603  14.212   3.320
63906W        W25437  40.453  38.560  13.036
63907W        W25438  43.905  40.928   1.879
63908W        W25439  44.353  40.036   4.761
63909W        W25440   1.340  22.597  13.410
63910W        W25441  31.513  34.546   3.161
63911W        W25442  38.919   7.895   2.787
63912W        W25443  21.206   3.799  10.601
63913W        W25444  28.037  11.144   3.191
63914W        W25445  37.501  20.554  14.760
63915W        W25446  10.752  19.603   5.194
63916W        W25447  10.690  42.843   4.728
63917W        W25448  41.794   8.224   4.162
63918W        W25449  16.264   3.360  13.960
63919W        W25450  33.940  38.045  13.477
63920W        W25451  24.008  30.420   1.897
63921W        W25452  43.387  18.734  10.442
63922W        W25453  14.659  37.476  11.486
63923W        W25454   6.751   3.259  11.917
63924W        W25455   3.836  17.170  10.027
63925W        W25456  41.903  40.493  14.795
63926W        W25457   4.204  19.209  13.360
63927W        W25458  35.361   3.348  11.457
63928W        W25459   7.336  28.580   0.429
63929W        W25460  26.952  34.896  10.404
63930W        W25461  13.638  20.035  14.497
63931W        W25462  17.281  31.981   2.226
63932W        W25463  41.515  39.822  14.988
63933W        W25464  44.909  40.962   3.726
63934W        W25465  44.879  34.535   3.762
63935W        W25466   0.492  37.866  12.452
63936W        W25467  10.783  21.114   0.450
63937W        W25468  32.542  32.139  11.944
63938W        W25469  39.512  27.620  12.889
63939W        W25470  13.159   0.814   2.723
63940W        W25471  17.100  10.156  10.099
63941W        W25472   8.804  14.280  13.431
63942W        W25473   3.752  36.029   2.738
63943W        W25474  42.305  14.193  10.534
63944W        W25475  18.772  41.988  10.491
63945W        W25476   9.747  19.154   1.380
63946W        W25477   1.910  40.494  14.459
63947W        W25478  17.156  11.334   1.329
63948W        W25479  21.073  13.640  10.476
63949W        W25480   7.815  41.879  13.863
63950W        W25481  34.965  10.233  12.365
63951W        W25482  38.564  39.358  12.428
63952W        W25483  39.476  19.063   2.239
63953W        W25484   4.402  24.095  11.567
63954W        W25485   9.338  19.606   1.293
63955W        W25486   7.366  12.620  13.502
63956W        W25487   8.772  44.424  10.488
63957W        W25488  14.232  39.553  12.399
63958W        W25489   4.264  22.206   2.797
63959W        W25490  33.430  42.847  13.046
63960W        W25491  29.666  19.073  14.329
63961W        W25492  28.635  14.726  11.105
63962W        W25493  18.755  33.472   2.415
63963W        W25494  42.942   9.352   2.373
63964W        W25495   4.795   7.317   2.850
63965W        W25496  19.214  43.400  12.896
63966W        W25497  10.726   1.364  11.557
63967W        W25498  15.278  19.768   1.812
63968W        W25499  18.573  27.663   4.282
63969W        W25500  29.514  17.138  11.055
63970W        W25501  34.558  18.581   3.368
63971W        W25502  26.108  30.006  13.801
63972W        W25503  17.251  24.674  14.841
63973W        W25504  12.233  31.401   1.440
63974W        W25505   7.829  26.661  13.873
63975W        W25506  11.341  33.886  12.577
63976W        W25507  10.711  19.181  12.883
63977W        W25508  30.985  21.649  13.862
63978W        W25509  21.192   4.372   2.898
63979W        W25510  32.910  43.277   0.356
63980W        W25511  15.298   3.252   4.289
63981W        W25512   7.327   2.769  11.023
63982W        W25513  17.721  20.108  13.836
63983W        W25514  28.509  36.864   3.775
63984W        W25515  29.639   6.771  11.111
63985W        W25516   5.811  24.105  11.954
63986W        W25517  26.123   2.890  12.968
63987W        W25518  25.050   3.458  14.904
63988W        W25519  17.274  41.822   4.309
63989W        W25520  24.496  10.321  11.492
63990W        W25521   8.369  30.147  14.975
63991W        W25522   2.857  37.080  10.580
63992W        W25523  14.263  32.936  14.477
63993W        W25524  38.880  32.028   4.668
63994W        W25525  10.856  34.495   1.380
63995W        W25526   6.195  17.129   4.780
63996W        W25527   0.284  27.519  13.535
63997W        W25528   8.396  26.067   1.265
63998W        W25529  29.027   6.337   3.315
63999W        W25530  24.977   5.707   4.336
64000W        W25531  13.147  29.425   4.278
64001W        W25532  16.149   3.293   1.843
64002W        W25533  33.085  13.685  11.101
64003W        W25534  39.875  16.582  11.925
64004W        W25535  35.491  12.816   0.380
64005W        W25536  38.050   7.746  10.930
64006W        W25537  14.283   2.372  11.881
64007W        W25538  36.560  27.547  10.413
64008W        W25539   3.411  44.282  13.957
64009W        W25540  27.942  18.181  10.611
64010W        W25541  15.772  43.867   0.318
64011W        W25542  42.886   9.380  14.431
64012W        W25543   9.376  32.069   2.810
64013W        W25544   4.902  29.992  13.351
64014W        W25545  36.383  30.575   1.884
64015W        W25546   9.194   8.238  14.299
64016W        W25547  33.526  40.458  10.990
64017W        W25548  39.402  29.928  10.927
64018W        W25549  27.963  11.714  14.325
64019W        W25550  40.837  18.611  11.980
64020W        W25551   0.745  36.476   0.320
64021W        W25552  26.465  37.011  12.466
64022W        W25553  12.297   6.917   4.658
64023W        W25554  41.015  44.820  13.390
64024W        W25555  16.674   5.332   1.841
64025W        W25556  35.415  41.410  14.363
64026W        W25557  33.096   0.911  14.371
64027W        W25558  34.511  27.587  14.303
64028W        W25559  31.141   9.243   5.645
64029W        W25560   0.307   5.381  11.030
64030W        W25561  31.568  42.386  10.505
64031W        W25562  26.969   4.709   3.157
64032W        W25563  39.947  21.040  13.327
64033W        W25564  31.558  22.553  12.455
64034W        W25565  43.386  22.202   2.845
64035W        W25566  28.513  32.573   2.281
64036W        W25567   0.436  27.963  11.434
64037W        W25568  34.969   9.372  11.429
64038W        W25569  15.660  19.769  14.921
64039W        W25570  25.542   3.254  11.946
64040W        W25571  12.268  23.611  11.511
64041W        W25572  42.466  40.012  10.998
64042W        W25573  39.878  32.094  13.820
64043W        W25574  10.711  26.571  12.866
64044W        W25575  44.375  37.540   2.752
64045W        W25576   0.414  37.570  10.637
64046W        W25577   9.731   7.879   2.234
64047W        W25578  38.457  32.011  13.893
64048W        W25579  39.939   3.372   4.612
64049W        W25580  17.652  44.271  11.561
64050W        W25581  21.035  19.081   0.853
64051W        W25582  21.596  22.154   1.724
64052W        W25583  20.132  40.407   1.799
64053W        W25584   6.692  23.218  14.912
64054W        W25585  39.040  21.542  14.834
64055W        W25586  16.709   9.838   2.283
64056W        W25587   9.167  33.960   3.815
64057W        W25588   8.719  17.149  11.891
64058W        W25589   0.796   1.360   4.160
64059W        W25590  13.271  11.160   4.657
64060W        W25591   3.773   8.814   0.387
64061W        W25592  28.018  41.337  10.440
64062W        W25593  24.630  12.294  14.785
64063W        W25594  20.595  30.633  13.045
64064W        W25595  36.421  40.004   4.184
64065W        W25596  10.657  23.010   3.199
64066W        W25597   0.842   6.766  13.374
64067W        W25598  37.494  19.613   4.329
64068W        W25599  11.127  19.566   0.960
64069W        W25600  10.249  15.178  11.413
64070W        W25601  14.592  13.611   2.319
64071W        W25602  28.620   0.889  11.561
64072W        W25603  44.503  14.216  12.549
64073W        W25604  29.617  32.997  11.599
64074W        W25605  32.412  38.406   0.436
64075W        W25606  31.487  35.859  13.508
64076W        W25607  35.402  24.187  12.883
64077W        W25608  12.182  39.436  10.492
64078W        W25609  21.023  12.650  12.460
64079W        W25610   3.860  31.904  12.079
64080W        W25611  32.044   7.198   2.757
64081W        W25612   4.789  19.068   2.338
64082W        W25613   7.414  27.489  11.465
64083W        W25614   3.394   8.275  14.802
64084W        W25615  18.547  11.302  12.073
64085W        W25616  28.610   9.882   1.302
64086W        W25617   9.285  13.734   2.766
64087W        W25618  44.870  35.023   1.864
64088W        W25619  12.216  24.011   4.650
64089W        W25620  42.913  20.763   3.660
64090W        W25621  20.700  19.169  13.965
64091W        W25622  24.589   2.436  14.983
64092W        W25623  27.584   2.754   2.856
64093W        W25624   1.963  38.428  14.293
64094W        W25625  36.863  44.314   0.749
64095W        W25626  30.983  38.513  14.387
64096W        W25627  24.551  15.578   2.825
64097W        W25628  43.844  40.016   1.218
64098W        W25629  41.851  24.672   1.255
64099W        W25630  33.938  25.125   4.813
64100W        W25631   8.286  23.712   3.215
64101W        W25632  29.485  36.440   4.751
64102W        W25633  24.092  36.480  12.507
64103W        W25634  29.174  40.975  11.395
64104W        W25635   4.372   6.207  11.963
64105W        W25636  40.894   2.387   4.183
64106W        W25637   7.728  14.678  11.589
64107W        W25638  44.358   3.829   2.313
64108W        W25639  28.967   3.425  11.390
64109W        W25640  25.164  35.936  13.495
64110W        W25641  44.315  38.433  14.363
64111W        W25642   0.918  41.447   2.315
64112W        W25643  40.365  38.917   2.390
64113W        W25644   5.784   3.332  14.401
64114W        W25645   2.326   1.380  10.572
64115W        W25646  43.897  35.897  10.930
64116W        W25647  18.072   2.450  12.951
64117W        W25648  22.619  40.984  12.860
64118W        W25649  31.920  40.530  14.413
64119W        W25650  20.554  30.070   3.703
64120W        W25651  22.192  12.170  14.508
64121W        W25652   1.305  12.829   1.808
64122W        W25653  17.676  31.502   4.143
64123W        W25654  24.645   8.236   0.895
64124W        W25655  20.556  44.858  11.471
64125W        W25656   7.288  29.031  12.954
64126W        W25657  24.206   0.375  10.902
64127W        W25658   8.837  13.786  12.532
64128W        W25659  19.661  44.258   4.723
64129W        W25660  31.402  44.760  14.506
64130W        W25661  33.474  39.444   2.216
64131W        W25662  25.653   4.905  11.392
64132W        W25663   7.313  18.191   4.170
64133W        W25664   7.861  15.692  14.346
64134W        W25665  37.444   9.829   0.900
64135W        W25666   6.255  38.570   3.776
64136W        W25667  44.492   3.396  10.423
64137W        W25668  23.598   7.906  14.341
64138W        W25669  21.184  34.454   0.289
64139W        W25670   0.837  18.569   3.860
64140W        W25671  32.903  41.933   3.658
64141W        W25672  27.954  43.344   2.835
64142W        W25673  26.548  25.711   3.644
64143W        W25674  34.105  42.478   0.390
64144W        W25675  30.957  21.091  14.456
64145W        W25676  31.431  17.162  12.415
64146W        W25677  34.409  32.637   4.196
64147W        W25678  16.081  13.105   2.753
64148W        W25679  33.060   4.412  10.954
64149W        W25680  17.742   6.268  11.424
64150W        W25681   3.369   3.327   3.636
64151W        W25682  15.184  27.514  12.525
64152W        W25683  36.513  21.670  12.444
64153W        W25684  14.193   4.756  14.776
64154W        W25685  39.509  35.005  12.824
64155W        W25686   2.775  27.575   4.604
64156W        W25687   3.311  29.515   4.670
64157W        W25688   7.352  39.383   4.621
64158W        W25689  37.528  31.018   3.267
64159W        W25690  21.698   5.203  10.554
64160W        W25691  37.435  25.072  11.957
64161W        W25692  31.108   0.870  13.923
64162W        W25693   3.394  38.962  12.408
64163W        W25694  41.465  12.758   4.723
64164W        W25695  37.431  32.129  13.040
64165W        W25696   5.428   8.217  14.279
64166W        W25697  20.635  11.169  14.498
64167W        W25698  13.208   1.822  13.012
64168W        W25699  13.795  30.652  11.995
64169W        W25700   5.870   8.377   0.359
64170W        W25701  30.050  20.134  13.953
64171W        W25702  15.168  33.913   4.836
64172W        W25703   0.913  14.745  11.375
64173W        W25704  28.062   9.708  14.822
64174W        W25705  23.535  16.780  14.878
64175W        W25706  22.153  41.369  11.517
64176W        W25707  24.641  29.433   2.815
64177W        W25708   7.912  38.551   4.331
64178W        W25709   3.917  14.724   3.803
64179W        W25710  27.666  20.065   1.775
64180W        W25711  20.648  11.228   1.818
64181W        W25712  22.062   4.339  11.000
64182W        W25713  17.618   3.272  11.063
64183W        W25714  28.438   3.858  13.392
64184W        W25715  23.686  43.913   3.704
64185W        W25716  41.302  36.953  12.926
64186W        W25717  28.636  21.047   3.163
64187W        W25718  41.407  33.909  10.953
64188W        W25719   8.662  41.970  12.474
64189W        W25720  31.043  34.865  14.855
64190W        W25721  14.208  27.012   3.858
64191W        W25722  27.160  28.459   2.298
64192W        W25723  13.251  33.060  13.523
64193W        W25724  28.161  42.335  12.050
64194W        W25725   4.418  13.173   1.820
64195W        W25726  29.607  33.061  14.514
64196W        W25727  43.915  32.106   4.228
64197W        W25728  30.633   1.472   4.738
64198W        W25729  21.583  11.278   1.752
64199W        W25730   5.809  18.565   3.832
64200W        W25731  18.217  30.020   3.316
64201W        W25732  42.510  22.156   1.211
64202W        W25733  27.472  43.902   4.215
64203W        W25734  18.668  23.660  13.336
64204W        W25735  24.037   7.269  11.856
64205W        W25736  16.787  16.693   4.314
64206W        W25737  40.411  41.904   3.311
64207W        W25738  12.333   6.835   3.359
64208W        W25739  31.450  36.023   1.718
64209W        W25740  36.418   2.801  13.859
64210W        W25741  24.724  27.471   1.703
64211W        W25742  44.782  24.042  11.592
64212W        W25743   3.952  25.017   3.847
64213W        W25744  41.350  18.083  14.885
64214W        W25745   1.405   8.726   0.733
64215W        W25746  44.341  11.372   4.818
64216W        W25747  35.477   9.245   5.298
64217W        W25748  43.820   6.808   0.924
64218W        W25749  34.091  20.550   4.803
64219W        W25750  18.679  39.452   3.255
64220W        W25751  15.813  32.114  14.343
64221W        W25752  11.314  32.085  13.817
64222W        W25753  11.683   3.921   1.241
64223W        W25754  44.790  37.497  13.393
64224W        W25755   9.825  44.883  10.520
64225W        W25756  24.683  40.968  11.014
64226W        W25757  41.898  18.132  14.472
64227W        W25758  33.111  14.332   0.464
64228W        W25759  20.050  24.516  14.763
64229W        W25760  43.890  17.208   3.636
64230W        W25761  17.631   0.381   0.458
64231W        W25762  38.882  33.456  13.898
64232W        W25763   4.930   3.300   5.242
64233W        W25764  16.122  17.229   3.220
64234W        W25765   8.288  11.316  11.985
64235W        W25766  36.573  19.178   1.401
64236W        W25767  28.992  28.145  10.472
64237W        W25768  22.660  21.631  11.503
64238W        W25769  27.069  24.714   1.262
64239W        W25770   5.276  13.774   0.919
64240W        W25771  10.340   1.265   1.439
64241W        W25772  11.224  41.028  11.394
64242W        W25773   4.793  26.589   3.673
64243W        W25774  35.557  43.850  13.317
64244W        W25775  24.592  30.939   4.833
64245W        W25776  44.373  37.350   5.256
64246W        W25777  28.518  30.546   4.294
64247W        W25778  26.131   9.803  14.817
64248W        W25779  24.172  32.627   3.824
64249W        W25780  21.236  40.338  14.516
64250W        W25781   1.760   7.854   3.252
64251W        W25782  13.748   0.979  14.992
64252W        W25783   1.427  10.294   1.253
64253W        W25784  25.146  33.550  10.487
64254W        W25785  10.875   6.921  13.901
64255W        W25786  15.684  18.640   1.839
64256W        W25787  37.447  17.088   3.238
64257W        W25788  10.319  40.033   5.095
64258W        W25789  37.854  15.589  14.359
64259W        W25790   0.794   9.297  12.545
64260W        W25791   9.233  28.605  11.894
64261W        W25792  10.224   4.302  13.487
64262W        W25793  32.141  31.103  13.384
64263W        W25794  31.416  15.328   4.142
64264W        W25795  21.086   8.701  10.096
64265W        W25796  18.780   3.809  14.941
64266W        W25797   5.322  41.493   0.957
64267W        W25798  11.147  21.129   1.902
64268W        W25799   0.929  30.002   0.735
64269W        W25800  18.202  44.811  11.039
64270W        W25801  35.056  24.231   0.823
64271W        W25802   1.788  41.801   4.350
64272W        W25803   3.386  15.084  10.515
64273W        W25804  15.757  40.491  13.389
64274W        W25805  19.101  40.453   1.257
64275W        W25806  38.063  18.600  11.377
64276W        W25807  12.199  31.554   2.193
64277W        W25808   0.867  40.462  14.329
64278W        W25809  36.013  22.704  13.900
64279W        W25810  20.633   1.904   4.763
64280W        W25811  25.538  38.843  13.367
64281W        W25812  13.135   1.894  14.307
64282W        W25813  17.102  34.974   3.253
64283W        W25814  13.281  40.471  14.341
64284W        W25815   1.887  41.295   2.863
64285W        W25816  38.539   0.439  14.481
64286W        W25817  36.879  16.266  10.615
64287W        W25818  33.011  13.111   3.295
64288W        W25819  27.675  43.402  10.548
64289W        W25820   2.760   6.254   1.267
64290W        W25821  43.967  42.309  14.441
64291W        W25822  33.955   4.839   1.371
64292W        W25823  25.117   8.830  11.466
64293W        W25824  18.655  20.718   2.782
64294W        W25825  37.480  34.865  11.612
64295W        W25826  12.171   4.851   5.319
64296W        W25827  19.174   8.300  10.589
64297W        W25828  42.949  13.806  10.602
64298W        W25829  44.355   3.879  11.913
64299W        W25830   1.903  22.038  14.351
64300W        W25831  29.597   0.444   4.695
64301W        W25832  42.788  21.222   3.350
64302W        W25833  41.461  26.668  13.526
64303W        W25834  15.258  30.946  13.905
64304W        W25835   0.820  16.691  11.884
64305W        W25836  26.462  28.993  13.817
64306W        W25837  11.258  39.913  13.881
64307W        W25838  35.868  27.092   1.873
64308W        W25839  28.185  10.815  11.044
64309W        W25840   1.391   3.851   0.261
64310W        W25841  38.441  28.482   3.658
64311W        W25842   6.206  36.046  14.821
64312W        W25843  26.574  27.656   2.336
64313W        W25844   3.772  32.408   4.641
64314W        W25845  36.485  28.552   1.233
64315W        W25846  34.477  27.477   3.386
64316W        W25847  25.149  35.908  13.864
64317W        W25848  44.435   9.773   1.415
64318W        W25849   0.824  32.614   4.343
64319W        W25850  18.150   5.291   4.644
64320W        W25851   4.333  11.249   2.696
64321W        W25852  22.015  41.402   5.309
64322W        W25853  38.426   7.708  13.895
64323W        W25854   5.421   6.858  10.423
64324W        W25855  30.492  23.725   4.257
64325W        W25856  23.521   8.238  12.073
64326W        W25857  33.407  35.441  11.123
64327W        W25858  44.481  11.301   2.856
64328W        W25859  11.697  38.383  12.043
64329W        W25860  16.771  32.636   9.658
64330W        W25861  40.942  32.008  13.387
64331W        W25862  31.910   3.423   0.373
64332W        W25863  16.208  23.151   2.295
64333W        W25864   5.797  27.549  10.439
64334W        W25865  30.037   2.261   3.630
64335W        W25866  37.937  23.119  14.970
64336W        W25867   7.213  29.104  12.370
64337W        W25868  33.444  27.135  10.487
64338W        W25869  22.249   8.257   2.840
64339W        W25870  12.840  16.250  14.375
64340W        W25871  36.081  18.241  14.981
64341W        W25872  20.698  22.586   2.821
64342W        W25873   6.813  16.189   3.739
64343W        W25874  12.771  18.770   4.835
64344W        W25875  32.003  24.191   2.179
64345W        W25876  29.070  33.106   1.869
64346W        W25877  12.806  29.037  12.049
64347W        W25878  13.667  27.536   0.884
64348W        W25879  31.133   1.774   4.278
64349W        W25880  27.672  15.084  12.872
64350W        W25881  19.577  27.048   1.260
64351W        W25882  31.635   2.946   0.727
64352W        W25883  29.099  24.001  11.058
64353W        W25884  39.818  39.521  14.973
64354W        W25885  21.576   7.341  10.641
64355W        W25886  30.985  20.146  14.854
64356W        W25887  19.779  19.647  11.468
64357W        W25888  20.658  13.216  14.371
64358W        W25889   6.269  36.436   2.242
64359W        W25890  10.678  28.173  13.819
64360W        W25891  27.948  17.118   0.259
64361W        W25892  11.130  24.096  10.514
64362W        W25893   5.917  31.596  13.835
64363W        W25894   0.421  17.629  14.443
64364W        W25895  18.652  30.423  10.410
64365W        W25896   1.946  10.646   4.824
64366W        W25897  31.505  39.551  12.520
64367W        W25898   7.837  15.240   2.736
64368W        W25899   7.862  14.122   2.853
64369W        W25900  36.484  20.274   2.755
64370W        W25901  40.529  40.049  12.016
64371W        W25902  41.351  15.594  11.571
64372W        W25903  18.790  11.750  12.572
64373W        W25904  12.730  15.098   2.217
64374W        W25905  16.685   7.845  13.957
64375W        W25906  29.476  12.677  13.366
64376W        W25907  40.513  26.058   4.296
64377W        W25908  33.563  29.632  12.021
64378W        W25909  39.490  39.046   4.816
64379W        W25910  43.327  44.966   3.368
64380W        W25911   7.761  10.285   0.420
64381W        W25912  25.142  32.481   0.939
64382W        W25913  16.763  39.869  12.401
64383W        W25914  40.905  14.340   2.725
64384W        W25915  39.478   2.725  13.797
64385W        W25916  13.271  27.055  14.827
64386W        W25917   9.356   6.203  13.402
64387W        W25918   5.894  29.175   0.787
64388W        W25919   8.882  29.603  13.061
64389W        W25920  27.036  22.567  14.980
64390W        W25921  12.727  43.438   4.140
64391W        W25922  12.245   3.268   4.695
64392W        W25923   4.813  26.996   0.737
64393W        W25924  32.550   4.887  12.875
64394W        W25925  25.052  17.585  12.907
64395W        W25926  21.654   7.734  11.556
64396W        W25927  13.212  40.362   0.952
64397W        W25928  36.884  43.912  11.080
64398W        W25929   8.741  22.176  13.494
64399W        W25930  13.145  11.744  11.407
64400W        W25931  31.099   3.373  12.378
64401W        W25932   1.406  12.682   3.327
64402W        W25933   2.853   4.243  11.931
64403W        W25934  36.069  30.548   1.918
64404W        W25935   9.706  32.558   3.172
64405W        W25936  25.564  22.663  13.379
64406W        W25937   2.390  12.807   2.288
64407W        W25938  20.748   6.707  13.824
64408W        W25939   1.462   9.739   2.192
64409W        W25940  11.237  23.209  11.982
64410W        W25941  12.738  27.470  13.475
64411W        W25942  11.285  36.857   1.864
64412W        W25943  19.274  28.995   0.757
64413W        W25944  41.922  14.132  11.088
64414W        W25945  18.142  12.814  14.023
64415W        W25946  27.005   6.247  13.881
64416W        W25947  43.887  30.475   4.269
64417W        W25948   3.419   8.680  10.561
64418W        W25949  19.072   8.389  13.906
64419W        W25950  29.001   9.317   4.165
64420W        W25951  10.203  32.424   0.294
64421W        W25952  11.744   8.724   0.352
64422W        W25953  18.217  34.551   0.431
64423W        W25954  33.998  21.053   3.233
64424W        W25955  17.725  22.626   0.364
64425W        W25956  20.144  25.124  11.399
64426W        W25957  20.225   8.704  14.417
64427W        W25958  33.380   8.703   2.185
64428W        W25959  42.884  38.333  11.566
64429W        W25960  15.170   4.700  14.878
64430W        W25961  22.678  41.803  11.444
64431W        W25962   0.753  34.558  11.123
64432W        W25963   8.704  44.900  14.361
64433W        W25964  35.911   0.358  12.919
64434W        W25965  23.672  35.104   3.259
64435W        W25966  14.725  38.827  13.355
64436W        W25967  43.291  12.691  13.456
64437W        W25968  24.697  34.989  12.541
64438W        W25969   3.945  28.946   1.908
64439W        W25970  24.573  22.129   0.395
64440W        W25971  14.670  19.098   0.772
64441W        W25972  38.967   2.748   4.275
64442W        W25973  19.578  11.226  14.907
64443W        W25974  20.680  33.942   1.235
64444W        W25975  41.381  28.181   4.662
64445W        W25976  22.103  40.897  13.924
64446W        W25977   4.788  29.119  11.431
64447W        W25978  11.310   6.372  11.515
64448W        W25979  12.781   1.835  13.343
64449W        W25980  12.317   9.860  13.963
64450W        W25981   2.830   1.884  12.525
64451W        W25982  19.574  35.048   0.770
64452W        W25983  39.039  14.692   0.367
64453W        W25984  33.097  14.783   0.255
64454W        W25985   4.921  16.660  12.442
64455W        W25986  41.953  33.446  10.098
64456W        W25987  25.098  31.010  13.862
64457W        W25988  44.783   5.295  14.492
64458W        W25989  29.463  43.935  12.356
64459W        W25990  32.961  21.072  12.491
64460W        W25991   0.336  13.137  12.348
64461W        W25992   4.309   4.841  12.077
64462W        W25993  25.648  44.892   4.831
64463W        W25994   5.926  18.136  14.311
64464W        W25995   4.359   0.863   2.305
64465W        W25996  24.080   2.771   3.322
64466W        W25997  20.044  29.524   9.973
64467W        W25998   3.946  17.202   2.858
64468W        W25999  28.435  30.460   3.327
64469W        W26000  15.093  42.799   0.918
64470W        W26001   4.245  13.132  14.902
64471W        W26002  36.860  33.096  11.422
64472W        W26003   5.385  44.891   2.379
64473W        W26004  36.494  28.538   2.755
64474W        W26005  23.174  25.664  11.090
64475W        W26006  38.944  19.078   1.722
64476W        W26007  34.885  40.017  13.867
64477W        W26008   2.264  17.277   1.734
64478W        W26009   1.829  30.155   3.275
64479W        W26010  36.086  25.091   0.319
64480W        W26011  17.578   8.752  14.334
64481W        W26012  37.062  39.999   0.364
64482W        W26013  15.686   1.350   2.203
64483W        W26014   1.940  13.283   0.480
64484W        W26015  10.374  43.315   1.915
64485W        W26016  10.216   4.271  14.409
64486W        W26017  18.749  11.662  14.456
64487W        W26018  32.570  38.998  10.925
64488W        W26019  28.126   5.381  14.994
64489W        W26020  23.106  22.135  13.492
64490W        W26021  25.712   4.339   4.324
64491W        W26022  18.743  14.215  13.308
64492W        W26023  38.049   6.279  14.477
64493W        W26024  36.475  36.415   2.210
64494W        W26025  25.668  31.598  14.362
64495W        W26026  23.580  23.701   3.777
64496W        W26027  43.444   4.925   2.746
64497W        W26028  40.325   7.817  10.589
64498W        W26029  43.398  26.568  10.117
64499W        W26030  37.473  24.600  13.395
64500W        W26031   1.259  22.035   4.823
64501W        W26032  36.093  35.900  12.462
64502W        W26033  22.186  36.520   4.764
64503W        W26034  17.180  26.066  12.965
64504W        W26035   6.886  14.198   2.383
64505W        W26036  33.923  33.390  14.318
64506W        W26037  39.979  30.566   4.806
64507W        W26038   0.927   7.327  11.441
64508W        W26039  25.003  24.077   1.934
64509W        W26040  12.811  26.106  14.999
64510W        W26041  19.247   9.155   3.180
64511W        W26042  18.264  17.729   0.765
64512W        W26043  10.804  14.200  12.907
64513W        W26044   1.802  13.680   3.844
64514W        W26045   4.433  37.002   4.678
64515W        W26046  18.781  35.951   0.465
64516W        W26047   7.309   9.752   3.385
64517W        W26048  44.389   9.885   4.130
64518W        W26049  10.177   4.370  12.884
64519W        W26050   6.880  36.558  13.934
64520W        W26051  16.674  42.964  12.413
64521W        W26052  41.888   2.386   3.254
64522W        W26053   7.810  41.500   3.230
64523W        W26054  23.240  24.135   2.869
64524W        W26055  26.954  17.776  14.891
64525W        W26056  37.872  22.183   1.226
64526W        W26057  29.026   7.735  13.804
64527W        W26058  35.047  31.147   0.380
64528W        W26059   5.339  39.511  14.984
64529W        W26060   3.775  16.658  14.795
64530W        W26061  41.884  39.369   4.328
64531W        W26062  41.376  35.369   0.766
64532W        W26063  22.165  13.195   2.821
64533W        W26064  29.522   1.378  14.001
64534W        W26065  41.411  10.178   3.767
64535W        W26066   5.409   1.767   1.708
64536W        W26067  18.645  36.979   0.960
64537W        W26068  21.223  40.492   4.670
64538W        W26069  30.929  31.481  14.319
64539W        W26070  42.779  33.076   1.301
64540W        W26071   5.696  13.744  12.468
64541W        W26072  33.889  27.485  13.927
64542W        W26073   3.430   7.274   4.174
64543W        W26074  13.262   0.262  11.373
64544W        W26075  38.552  29.090   0.760
64545W        W26076  33.064  15.266  14.428
64546W        W26077   3.277  29.919  11.910
64547W        W26078   3.847  29.983   4.294
64548W        W26079  21.661  37.887   1.299
64549W        W26080  39.975  14.096  11.115
64550W        W26081   4.715  17.701   1.368
64551W        W26082  12.293  20.762  10.588
64552W        W26083  33.057  16.246   1.342
64553W        W26084  29.660  15.095  14.781
64554W        W26085  30.529  18.780  10.542
64555W        W26086  41.312  21.017   4.304
64556W        W26087  37.908  38.074  14.791
64557W        W26088  33.425   8.727   1.244
64558W        W26089   6.762  27.150   2.231
64559W        W26090  42.369   2.420   2.741
64560W        W26091  21.718  16.080  14.996
64561W        W26092  41.479  22.106  12.935
64562W        W26093   4.222  21.031   1.374
64563W        W26094  39.853  34.588  11.977
64564W        W26095  16.693   4.935   1.722
64565W        W26096   7.302  30.987  14.898
64566W        W26097  26.528   5.906  11.431
64567W        W26098   3.859  34.377   4.768
64568W        W26099  13.180  32.995  10.933
64569W        W26100  38.349  42.927  10.620
64570W        W26101   0.461   8.268   2.880
64571W        W26102  12.234  36.417  13.868
64572W        W26103  23.122  10.370  13.865
64573W        W26104  25.176  42.955   4.635
64574W        W26105  29.067  40.021   4.232
64575W        W26106   0.867  38.458   2.813
64576W        W26107  21.102  27.958   1.308
64577W        W26108  36.545  13.842   3.344
64578W        W26109   9.376  14.168  11.511
64579W        W26110  17.702  17.761   0.885
64580W        W26111  37.448  41.434   3.647
64581W        W26112  36.542  33.124  10.599
64582W        W26113   4.850   2.438  11.374
64583W        W26114   7.671  11.365  10.603
64584W        W26115  22.228  30.594   3.826
64585W        W26116  21.178   8.278  11.864
64586W        W26117  38.492  37.972   3.305
64587W        W26118   0.445  38.391   4.205
64588W        W26119  13.211  11.864   4.613
64589W        W26120  28.630   8.163   3.709
64590W        W26121  31.479  19.773   4.217
64591W        W26122  20.571  37.858  12.508
64592W        W26123  35.941  16.742   3.790
64593W        W26124  12.706  40.474   2.298
64594W        W26125  31.025   3.944  11.527
64595W        W26126  33.087  28.965   0.850
64596W        W26127   0.884  34.561   0.259
64597W        W26128  36.585  29.475  13.427
64598W        W26129  22.178   8.665  14.849
64599W        W26130   7.342   6.269   0.955
64600W        W26131  10.247  15.122   4.686
64601W        W26132  42.896  33.933  12.058
64602W        W26133  15.304  35.095   1.801
64603W        W26134   2.728  37.888   4.703
64604W        W26135  23.589  24.111   2.711
64605W        W26136  23.672   0.876  14.315
64606W        W26137  41.339   0.797   3.190
64607W        W26138  21.224  37.890   1.342
64608W        W26139   0.960   1.861   1.242
64609W        W26140  40.474  38.976   0.318
64610W        W26141   1.295  14.736  13.024
64611W        W26142  30.459  21.716  13.049
64612W        W26143  42.394  37.577   2.377
64613W        W26144  16.792  42.398   0.477
64614W        W26145  18.645  44.384   4.817
64615W        W26146  36.846  31.501   2.372
64616W        W26147  24.572   3.918   3.791
64617W        W26148   0.368  16.212  12.494
64618W        W26149   7.708  30.964   4.301
64619W        W26150  20.696  29.093   0.456
64620W        W26151  42.473  33.382   0.294
64621W        W26152  31.950  33.072  12.856
64622W        W26153  29.005  26.463   1.372
64623W        W26154  11.297  22.021   3.196
64624W        W26155   3.327  43.468   4.344
64625W        W26156  37.998  22.641   9.922
64626W        W26157   8.204  15.756  12.869
64627W        W26158  10.749   6.356  13.527
64628W        W26159   3.331   0.319  12.396
64629W        W26160   9.357  22.586   4.667
64630W        W26161  22.113  39.387   3.337
64631W        W26162  10.264   9.847   1.380
64632W        W26163  28.065   7.174   0.341
64633W        W26164  37.403  36.906   2.259
64634W        W26165  26.528   3.269   4.286
64635W        W26166  44.974  21.077  14.351
64636W        W26167   2.789  24.509   1.271
64637W        W26168  37.082   0.281   1.895
64638W        W26169  32.461  20.534  13.494
64639W        W26170  22.038  44.802   0.749
64640W        W26171  27.972  28.072   5.166
64641W        W26172  23.528  27.966   1.870
64642W        W26173  17.582  29.118  14.445
64643W        W26174  16.100  36.402  12.350
64644W        W26175  14.780  10.762   4.340
64645W        W26176   6.262  37.980   0.350
64646W        W26177  24.051  19.067  10.482
64647W        W26178  37.434  30.596   2.391
64648W        W26179  31.508  41.962  11.605
64649W        W26180   4.796  23.527   0.931
64650W        W26181  20.738  12.729  11.457
64651W        W26182   3.856  17.199  14.350
64652W        W26183  12.710   0.467   0.955
64653W        W26184  42.957  12.801   1.368
64654W        W26185  41.510   0.436   4.801
64655W        W26186   0.342   7.265   1.745
64656W        W26187   1.735  35.076   2.322
64657W        W26188  12.141   0.936  12.079
64658W        W26189   8.296  18.639  13.548
64659W        W26190  40.478  40.467  13.993
64660W        W26191  10.673  22.220   3.298
64661W        W26192  21.076  18.675  10.990
64662W        W26193  34.410  14.689  14.487
64663W        W26194  13.659  27.585  14.812
64664W        W26195  44.894  41.323  12.358
64665W        W26196   3.944  15.691   2.360
64666W        W26197   5.227  10.208   3.663
64667W        W26198   6.287  24.568  10.546
64668W        W26199  32.089  16.096  11.564
64669W        W26200  34.578   7.741   3.632
64670W        W26201  24.164  32.464  14.838
64671W        W26202  11.865  27.614   0.790
64672W        W26203  30.086  24.544  12.378
64673W        W26204  10.307  43.489  10.887
64674W        W26205  40.488  13.233  14.356
64675W        W26206  30.056   1.842  13.932
64676W        W26207   8.867   9.178   3.697
64677W        W26208  19.582  23.545   5.209
64678W        W26209   6.185  28.042   0.420
64679W        W26210  44.313  26.612  10.909
64680W        W26211  35.604  37.060   4.822
64681W        W26212  15.612   0.418  13.891
64682W        W26213  42.342   7.701   3.361
64683W        W26214  19.180   3.896  14.870
64684W        W26215  34.572  29.458   3.783
64685W        W26216   8.354  14.328   3.214
64686W        W26217  29.634  14.337   4.808
64687W        W26218  10.823  26.020  11.862
64688W        W26219  17.198   9.316   4.703
64689W        W26220  39.472   5.431   4.746
64690W        W26221  26.527  19.703  10.074
64691W        W26222  39.896  37.849   0.884
64692W        W26223  43.791  29.546   2.857
64693W        W26224  24.627  35.062   2.327
64694W        W26225   4.758  30.637   5.276
64695W        W26226  32.018  18.139   0.459
64696W        W26227  29.518  15.693  13.916
64697W        W26228   3.842  39.472   3.328
64698W        W26229  19.072  38.928  10.933
64699W        W26230  17.243  39.910   2.779
64700W        W26231  29.019  10.744  11.975
64701W        W26232   8.687  12.309   1.268
64702W        W26233  19.098  10.851  10.891
64703W        W26234  29.998  35.492  14.514
64704W        W26235  14.314  28.146  10.635
64705W        W26236   8.758   3.267  14.372
64706W        W26237  21.251  33.069   0.482
64707W        W26238  17.777  32.529  10.499
64708W        W26239  25.062  32.564   4.115
64709W        W26240  36.889   4.856   3.377
64710W        W26241   3.853  15.092   3.788
64711W        W26242   8.358   6.803  11.028
64712W        W26243  27.643   1.389  11.951
64713W        W26244  23.706  37.851  12.067
64714W        W26245  35.047  10.203  12.874
64715W        W26246   1.790  16.171  13.904
64716W        W26247  11.772  33.875   0.288
64717W        W26248   5.255  25.499  12.977
64718W        W26249  27.074  15.250   4.824
64719W        W26250  35.008   1.841  11.449
64720W        W26251  21.556  34.530  14.487
64721W        W26252  24.707  26.207   1.929
64722W        W26253  44.459  42.031  10.887
64723W        W26254  15.226  36.935  13.054
64724W        W26255  39.315  34.598  13.527
64725W        W26256   6.799  42.029   4.339
64726W        W26257  39.479  42.794   5.135
64727W        W26258  36.916  34.037   2.283
64728W        W26259  39.984  21.104  14.972
64729W        W26260   1.357  31.074   2.213
64730W        W26261  39.447  26.465  11.910
64731W        W26262  40.919  28.167  13.857
64732W        W26263   8.209  33.576  14.410
64733W        W26264  30.155  19.148  14.411
64734W        W26265   0.267  36.996   2.225
64735W        W26266  13.665  22.077   3.788
64736W        W26267  17.668  18.271  10.437
64737W        W26268  21.182  29.035   0.788
64738W        W26269  14.793  35.939  14.513
64739W        W26270   3.295  17.735   3.294
64740W        W26271   2.383  15.801   4.800
64741W        W26272   9.238   4.701   1.857
64742W        W26273  15.142  14.209   1.449
64743W        W26274  28.137  27.151  12.526
64744W        W26275  10.689  19.623   1.384
64745W        W26276  25.058   4.844  14.307
64746W        W26277   5.199   5.400  14.984
64747W        W26278  31.563  21.217   4.756
64748W        W26279   0.362  40.929  13.361
64749W        W26280  36.443   5.713  13.446
64750W        W26281   9.708  39.543  10.545
64751W        W26282  10.352  22.702  12.972
64752W        W26283   6.739   4.385  11.449
64753W        W26284   7.376  15.210   1.909
64754W        W26285   7.211  32.909  10.409
64755W        W26286  24.179  38.400  11.567
64756W        W26287  15.287   9.283  10.618
64757W        W26288  26.175  24.134   3.361
64758W        W26289  40.384   6.802  13.971
64759W        W26290  43.782   5.271  14.766
64760W        W26291  40.436  36.048   2.781
64761W        W26292  36.485  36.541   2.796
64762W        W26293  32.636  20.553   2.290
64763W        W26294  30.061   6.363  10.490
64764W        W26295  34.915  41.419  14.863
64765W        W26296   7.415  12.759  11.508
64766W        W26297  37.537  22.548   1.753
64767W        W26298  25.711  35.866   4.184
64768W        W26299  18.760  24.722   3.286
64769W        W26300  26.632  15.744   0.937
64770W        W26301   0.351  17.137   4.705
64771W        W26302  31.567   9.844  13.803
64772W        W26303  20.127  13.253  13.343
64773W        W26304   6.760  19.185  12.082
64774W        W26305   3.913  37.846  12.549
64775W        W26306  16.801  41.976  14.920
64776W        W26307   4.235  11.660   3.796
64777W        W26308   2.907  17.119   4.202
64778W        W26309  44.823  18.615  13.435
64779W        W26310  24.478   5.240  10.623
64780W        W26311  29.543  23.575   0.373
64781W        W26312   5.256   4.226  10.428
64782W        W26313  23.089  27.543  14.325
64783W        W26314  32.572  10.362  11.886
64784W        W26315  31.146  10.172   1.864
64785W        W26316  38.532  38.002   2.400
64786W        W26317  33.606   1.463   3.652
64787W        W26318  16.664   8.257   4.705
64788W        W26319  31.613  28.004   1.820
64789W        W26320  12.135   8.705  14.349
64790W        W26321  38.502  24.665  11.391
64791W        W26322  16.147  24.663   3.335
64792W        W26323  16.239  42.797  13.436
64793W        W26324  13.176  30.658  14.968
64794W        W26325   6.403  10.748   2.367
64795W        W26326   6.737  15.684   5.220
64796W        W26327   9.291   8.824  14.311
64797W        W26328   0.406  20.595  11.010
64798W        W26329  33.900  25.097   0.407
64799W        W26330  25.065  43.283   4.175
64800W        W26331   6.824  22.187  11.928
64801W        W26332   7.206   8.223   1.353
64802W        W26333  37.363   1.786   2.249
64803W        W26334  18.174  40.364  10.017
64804W        W26335  16.116   5.412   2.337
64805W        W26336  37.896  22.225  10.441
64806W        W26337   3.299  33.580   2.879
64807W        W26338  35.424  35.072   0.269
64808W        W26339  31.633  28.669  12.072
64809W        W26340  16.110  30.102  10.097
64810W        W26341   9.801  19.687  12.034
64811W        W26342  22.514  30.035   2.672
64812W        W26343  40.027  12.256  11.471
64813W        W26344  14.241  30.606  14.334
64814W        W26345  16.595  21.695  12.073
64815W        W26346  30.510  41.481  10.571
64816W        W26347  32.951   7.292   2.889
64817W        W26348   4.714   3.782  12.503
64818W        W26349  35.427  24.060   3.738
64819W        W26350  35.882  34.957  14.491
64820W        W26351   3.788   2.950  12.412
64821W        W26352  14.825  35.904  11.527
64822W        W26353   1.938   2.943   3.780
64823W        W26354   0.826  42.349   4.118
64824W        W26355  10.186  31.559   4.654
64825W        W26356  43.516  28.057   4.652
64826W        W26357   0.299   7.721   2.785
64827W        W26358  35.871  34.056   4.704
64828W        W26359  26.572  39.504  11.495
64829W        W26360  42.881   0.978   0.877
64830W        W26361  15.172  11.650  14.009
64831W        W26362  20.607  22.711  14.761
64832W        W26363   1.435  43.325   2.248
64833W        W26364   2.897  33.078   0.298
64834W        W26365  32.110  13.702  11.883
64835W        W26366   5.243  39.007   0.951
64836W        W26367   4.428  12.166  12.905
64837W        W26368  13.263  41.440   0.823
64838W        W26369  29.944  14.804   4.161
64839W        W26370  39.477  41.474   4.115
64840W        W26371   4.383  36.059  13.052
64841W        W26372  35.551  26.202   2.750
64842W        W26373  27.559  20.128  13.528
64843W        W26374   7.332   0.777   5.172
64844W        W26375  11.291  36.463   4.600
64845W        W26376  43.337   9.822   3.816
64846W        W26377  15.297  33.492  13.328
64847W        W26378  22.116  18.647  13.435
64848W        W26379  17.254   9.782   4.191
64849W        W26380   1.854  25.651   1.817
64850W        W26381  37.340  13.698   9.991
64851W        W26382  32.584   1.853  12.022
64852W        W26383  19.119  10.287   1.449
64853W        W26384   6.329  32.395   2.220
64854W        W26385  28.456  34.589   4.237
64855W        W26386  40.894  38.850   0.818
64856W        W26387  24.978  14.717  12.837
64857W        W26388  25.599  44.006  10.946
64858W        W26389  25.212  25.045  12.416
64859W        W26390  20.150   0.272  12.407
64860W        W26391  21.731   9.694  14.354
64861W        W26392  26.183  22.035  13.332
64862W        W26393  44.331   9.250  11.859
64863W        W26394  41.910  11.848   4.644
64864W        W26395  44.396   3.758   4.235
64865W        W26396  43.972  35.390   1.235
64866W        W26397  33.438  27.671  13.337
64867W        W26398  44.810  11.640  14.971
64868W        W26399  37.359   3.387  14.388
64869W        W26400  27.104  29.951   0.932
64870W        W26401   4.415  17.688   3.696
64871W        W26402  12.645  33.035   4.749
64872W        W26403   2.915  14.706   0.361
64873W        W26404  32.031   0.982  10.474
64874W        W26405  25.159  22.117  13.983
64875W        W26406  24.067  42.319   2.882
64876W        W26407  28.634  10.320   2.234
64877W        W26408  24.118  33.538  12.549
64878W        W26409  22.072  17.608   0.301
64879W        W26410  19.730   5.769   3.645
64880W        W26411   1.832   8.682  11.459
64881W        W26412  29.040  19.672   4.783
64882W        W26413  34.871   4.282   1.697
64883W        W26414  20.674  21.637   4.175
64884W        W26415  15.213  16.570   1.899
64885W        W26416  15.810   5.378   1.438
64886W        W26417   5.294  16.286  14.772
64887W        W26418  11.720  42.785  14.835
64888W        W26419  41.888  12.848   4.268
64889W        W26420  38.991  32.114  12.521
64890W        W26421  11.286  21.186   1.351
64891W        W26422   0.333  30.470   2.861
64892W        W26423  19.140  28.030   3.197
64893W        W26424  12.617  23.566   0.364
64894W        W26425  36.390  41.492  11.906
64895W        W26426  10.756  34.985  12.489
64896W        W26427  14.144  31.123   0.294
64897W        W26428   6.235  35.445   0.792
64898W        W26429  21.130   6.314  11.943
64899W        W26430  20.718  18.674  11.911
64900W        W26431  21.071  28.613  11.066
64901W        W26432  30.581  31.528   4.216
64902W        W26433  41.949  30.454   0.779
64903W        W26434  23.087   4.812   1.298
64904W        W26435  41.317  16.257   3.683
64905W        W26436  14.100   6.837   0.259
64906W        W26437  18.548  34.371  14.352
64907W        W26438  13.178   8.699   3.219
64908W        W26439  12.253  26.193   3.375
64909W        W26440  17.207  16.795  13.803
64910W        W26441  32.491  34.003   1.238
64911W        W26442  14.778   9.777  13.982
64912W        W26443  23.017  24.076   2.416
64913W        W26444  25.491  27.033  13.411
64914W        W26445  21.250   1.275   3.328
64915W        W26446  32.123   9.216   1.718
64916W        W26447  20.044  43.808   1.216
64917W        W26448  25.065  36.050   1.391
64918W        W26449  25.031  38.969   3.675
64919W        W26450   4.769  24.028  10.574
64920W        W26451  37.546  16.205   1.706
64921W        W26452  24.149  36.520   3.772
64922W        W26453   7.665  44.420  13.509
64923W        W26454   1.260  13.840  14.480
64924W        W26455  40.822   6.736  10.527
64925W        W26456  44.761   8.337   0.790
64926W        W26457  23.180  33.434   3.378
64927W        W26458  17.197  16.638   0.300
64928W        W26459  33.493  28.459  13.967
64929W        W26460  43.299  20.760  13.384
64930W        W26461  32.132   3.800   0.732
64931W        W26462  26.593  17.619   2.299
64932W        W26463  21.621  18.725  12.544
64933W        W26464  13.733  22.212  11.955
64934W        W26465  28.652  14.747   1.215
64935W        W26466   4.764   1.394  12.939
64936W        W26467  39.820  42.500  10.444
64937W        W26468  21.696  21.057  13.483
64938W        W26469  20.175  22.179  13.977
64939W        W26470  20.162   5.353   0.903
64940W        W26471   9.706  38.967  12.838
64941W        W26472  27.498  43.865   2.902
64942W        W26473  20.765  20.656  12.967
64943W        W26474  22.597  35.043   4.815
64944W        W26475  34.038  15.772   2.816
64945W        W26476  42.902  29.045  13.809
64946W        W26477  13.152  26.137   0.892
64947W        W26478  27.453   5.358   3.868
64948W        W26479  14.302  33.885  11.611
64949W        W26480  42.959  38.427   3.357
64950W        W26481  22.606  13.194   9.961
64951W        W26482  40.895  44.337  14.464
64952W        W26483  34.870   4.788   0.380
64953W        W26484  26.996  14.731  10.424
64954W        W26485  30.650  28.990  14.824
64955W        W26486  22.060  17.639   1.824
64956W        W26487  44.362  37.565  12.890
64957W        W26488  12.133   6.756   2.888
64958W        W26489   8.873  17.259  10.601
64959W        W26490  36.000   6.269   4.199
64960W        W26491   5.282  36.063   3.789
64961W        W26492  37.005  44.825   4.653
64962W        W26493  36.346  31.555   2.304
64963W        W26494   3.368  31.097   4.230
64964W        W26495   1.809  35.870  11.960
64965W        W26496  25.008  12.344   4.340
64966W        W26497  39.829   9.174   0.443
64967W        W26498  20.083   0.875   0.938
64968W        W26499   8.737  17.748   3.208
64969W        W26500  28.992  14.739  10.498
64970W        W26501  10.731  31.919  11.946
64971W        W26502  15.207  35.561   2.696
64972W        W26503  11.776  36.087  12.900
64973W        W26504  21.018  43.931  14.997
64974W        W26505  23.573  28.625  11.376
64975W        W26506  35.006  42.956   0.293
64976W        W26507  29.157   6.750  10.935
64977W        W26508   9.812  21.678   1.819
64978W        W26509   8.861   2.251   2.293
64979W        W26510  31.997  20.676   5.311
64980W        W26511  21.624   4.887  12.876
64981W        W26512  32.134  30.531   1.258
64982W        W26513  23.513  22.159   4.216
64983W        W26514  38.878  39.013  12.353
64984W        W26515  21.153   1.355   1.744
64985W        W26516  42.792  41.873   0.868
64986W        W26517  13.838  25.020   2.416
64987W        W26518  40.345   9.392  13.941
64988W        W26519  25.144  41.519   0.406
64989W        W26520  39.321  43.976  14.361
64990W        W26521   0.326  11.746   0.448
64991W        W26522  10.247  38.443   3.680
64992W        W26523  28.602  10.680  11.377
64993W        W26524  29.513  38.435   2.184
64994W        W26525  44.336   2.297   4.349
64995W        W26526  44.753   4.399  14.028
64996W        W26527   8.161  15.324  14.973
64997W        W26528  27.454  40.816   2.298
64998W        W26529  42.784  20.042   3.858
64999W        W26530  12.630  15.637  14.975
65000W        W26531  44.832  20.108   4.198
65001W        W26532  16.615  10.383  12.071
65002W        W26533  40.337  36.875  14.464
65003W        W26534  27.468  40.483  14.957
65004W        W26535  11.799  32.603  14.885
65005W        W26536  17.251  19.093  13.020
65006W        W26537   6.775  13.828  11.394
65007W        W26538  15.089  36.905   2.413
65008W        W26539   2.354  33.417   2.841
65009W        W26540   5.298  28.588  12.982
65010W        W26541  22.086  36.068  13.969
65011W        W26542  24.013  27.557  14.337
65012W        W26543  29.059  23.986  13.845
65013W        W26544   0.850   0.931   2.345
65014W        W26545  41.940  26.175   0.887
65015W        W26546  37.078  20.046  10.635
65016W        W26547  13.259   1.294  10.562
65017W        W26548  21.159  37.395   2.245
65018W        W26549   1.843   9.270   2.901
65019W        W26550  13.270  12.286  14.349
65020W        W26551   4.777  14.755  14.762
65021W        W26552  38.491  19.551  10.618
65022W        W26553  15.588  23.505   3.202
65023W        W26554   4.384  44.398  12.569
65024W        W26555  32.600  28.123  12.036
65025W        W26556  37.512  28.543  14.977
65026W        W26557  30.160  34.891  10.529
65027W        W26558  26.056   1.816   2.279
65028W        W26559  32.923  13.790  11.584
65029W        W26560  37.347  12.814  10.561
65030W        W26561   6.313   1.288  12.538
65031W        W26562  15.216  28.948   1.249
65032W        W26563  28.186  28.610  13.367
65033W        W26564  32.006   2.827  11.876
65034W        W26565   3.820  18.133   3.252
65035W        W26566  22.709  17.095  10.106
65036W        W26567  35.941  10.173  12.925
65037W        W26568  35.107  35.895   4.211
65038W        W26569  40.461  32.897  14.288
65039W        W26570  34.596  40.926  11.415
65040W        W26571  31.496  35.966  11.505
65041W        W26572   9.326  35.051  13.865
65042W        W26573  25.083  22.691  12.068
65043W        W26574  10.662  19.240   1.410
65044W        W26575   1.316  20.757  12.483
65045W        W26576  17.110  20.074  12.021
65046W        W26577   1.902   0.295   1.304
65047W        W26578  10.174   6.289  13.802
65048W        W26579   7.321  21.579  12.482
65049W        W26580   6.217  12.167   1.723
65050W        W26581  40.811   7.221   1.357
65051W        W26582  23.689  33.939   2.410
65052W        W26583   8.185  30.585   4.641
65053W        W26584  24.062  40.490  12.523
65054W        W26585  41.810  25.051   1.275
65055W        W26586   1.438   9.361   0.432
65056W        W26587  17.138  36.457  13.868
65057W        W26588  35.556  26.063   2.379
65058W        W26589   6.695  39.946   4.732
65059W        W26590   4.782  25.610  10.506
65060W        W26591  36.573  16.659   9.588
65061W        W26592   5.801  18.739   2.819
65062W        W26593  40.955   5.414   2.769
65063W        W26594  33.108   5.894  14.419
65064W        W26595  24.671  18.250  12.346
65065W        W26596  21.245  39.370  14.379
65066W        W26597   0.293   4.879  11.608
65067W        W26598   1.451  26.118   3.863
65068W        W26599  10.138   8.744  13.860
65069W        W26600  25.156   0.865   3.329
65070W        W26601  22.136   1.740   2.815
65071W        W26602  27.032  24.199   3.244
65072W        W26603   9.711   6.700   3.181
65073W        W26604  39.545  25.096   1.722
65074W        W26605  27.515  29.524   1.396
65075W        W26606  41.505  37.837  11.585
65076W        W26607   8.189  20.578   3.174
65077W        W26608  25.099  10.657  11.920
65078W        W26609   8.811   2.825   5.149
65079W        W26610  30.492  27.526   4.235
65080W        W26611  28.187  44.288   2.341
65081W        W26612  15.321  31.503  11.577
65082W        W26613  14.736  30.119   4.223
65083W        W26614  11.669   4.289  14.806
65084W        W26615  20.122   9.715  13.533
65085W        W26616  36.876   0.393  12.526
65086W        W26617  15.275  33.553  12.439
65087W        W26618   9.644  11.370  12.962
65088W        W26619  25.046  33.621   3.334
65089W        W26620  23.157  16.253   4.232
65090W        W26621  43.499  10.157  11.983
65091W        W26622  28.493   9.205  13.918
65092W        W26623  21.099  13.285   1.811
65093W        W26624  29.424  40.020  13.936
65094W        W26625  12.706  27.511   3.380
65095W        W26626   6.906  41.840  11.960
65096W        W26627   4.297   7.878   4.160
65097W        W26628   6.678  42.017  14.449
65098W        W26629  39.527   8.782  12.503
65099W        W26630  12.761  24.582   0.290
65100W        W26631  29.489  44.494  10.444
65101W        W26632   8.837  22.212   2.854
65102W        W26633   1.335  24.053  13.497
65103W        W26634  41.361   9.783   0.932
65104W        W26635  43.867  25.668   4.153
65105W        W26636  24.680  23.602  14.287
65106W        W26637  24.193  34.522   0.754
65107W        W26638  24.551   3.827  11.523
65108W        W26639   3.871  38.397   0.270
65109W        W26640  14.202   8.686   1.432
65110W        W26641  33.049   8.866   2.351
65111W        W26642  23.620   3.782  11.589
65112W        W26643  31.151   0.302  12.019
65113W        W26644  17.669   1.770  11.542
65114W        W26645  25.543   7.370  10.639
65115W        W26646   9.360  40.952   4.644
65116W        W26647   9.172  27.167  14.796
65117W        W26648  12.188  37.003  10.438
65118W        W26649  35.051  27.461  14.018
65119W        W26650   4.753  24.121  14.867
65120W        W26651  28.540   4.301  12.340
65121W        W26652  44.396  22.158  10.929
65122W        W26653  31.152  23.490   4.598
65123W        W26654   1.268  35.358  13.041
65124W        W26655  36.364  11.312   0.870
65125W        W26656  37.511  11.735  12.835
65126W        W26657  18.791  41.983   3.277
65127W        W26658  43.410  23.600  14.932
65128W        W26659  19.166  43.406  12.557
65129W        W26660  32.600   0.482   0.902
65130W        W26661  22.192  37.435  14.941
65131W        W26662   5.434  18.207   4.700
65132W        W26663  11.756  26.026   0.395
65133W        W26664  17.150  41.522  13.803
65134W        W26665   1.348   4.900  10.521
65135W        W26666  16.779  27.602  13.954
65136W        W26667  31.514  30.054   2.296
65137W        W26668   5.382  29.546  12.493
65138W        W26669  29.064  36.506  12.918
65139W        W26670  44.289  32.134  11.579
65140W        W26671  35.892  22.709   0.462
65141W        W26672  22.599  32.415   3.713
65142W        W26673  32.403  20.075   4.627
65143W        W26674  33.952  28.583   2.363
65144W        W26675   6.819  21.528  12.053
65145W        W26676   7.704  22.220   0.956
65146W        W26677  44.483  24.648  12.489
65147W        W26678   4.902  18.216   1.283
65148W        W26679  10.808   9.888   3.346
65149W        W26680   2.857  41.489  10.582
65150W        W26681  15.324  38.526  12.020
65151W        W26682  27.687  19.556  12.951
65152W        W26683  39.935  20.082  13.821
65153W        W26684  44.898   3.855   4.228
65154W        W26685  13.323   1.476   5.100
65155W        W26686  41.988  44.438   1.354
65156W        W26687  32.990  19.736   0.380
65157W        W26688  33.921  14.123  13.312
65158W        W26689  37.066  42.852   4.322
65159W        W26690  44.927  25.571   1.435
65160W        W26691  26.038  12.133   4.820
65161W        W26692  40.414  18.221  11.870
65162W        W26693  33.381  10.341   1.385
65163W        W26694   4.255  21.020   0.882
65164W        W26695  31.923   8.285   9.530
65165W        W26696  17.718  23.636  12.913
65166W        W26697  37.483  33.460  10.071
65167W        W26698  28.634  31.995  13.952
65168W        W26699  22.245  29.574  10.454
65169W        W26700   3.941  39.899   2.382
65170W        W26701  28.984  17.128  12.468
65171W        W26702  25.494  18.152   4.262
65172W        W26703  25.516  43.771   0.371
65173W        W26704   6.688  29.081   3.191
65174W        W26705  10.185   5.238  14.363
65175W        W26706  14.689  25.613  13.482
65176W        W26707  30.036   8.333  13.941
65177W        W26708  30.645  18.787   4.653
65178W        W26709  34.903   1.973   2.847
65179W        W26710  31.403  36.515   3.734
65180W        W26711   9.767  24.211   4.796
65181W        W26712  19.201  44.910   4.281
65182W        W26713  35.395   9.742   5.587
65183W        W26714   2.282  11.773  12.453
65184W        W26715  44.987  25.699   4.147
65185W        W26716  34.554  20.090  12.936
65186W        W26717  43.308  39.828  11.975
65187W        W26718  17.090   5.228  14.912
65188W        W26719   5.735  26.513  12.880
65189W        W26720  32.444  39.357   3.233
65190W        W26721  11.714   8.778   5.163
65191W        W26722   8.219  29.488  11.886
65192W        W26723  40.435   4.345   1.294
65193W        W26724  15.244  16.597  11.519
65194W        W26725  43.463   1.294   1.386
65195W        W26726  30.107  40.986  12.863
65196W        W26727   9.742  37.843  10.607
65197W        W26728  25.703  26.667   4.633
65198W        W26729  36.474  42.784   2.710
65199W        W26730  17.790  11.829   0.274
65200W        W26731  41.435  33.555   0.940
65201W        W26732  28.946  38.846  11.998
65202W        W26733   2.268  29.961  13.995
65203W        W26734  41.884   1.394   4.612
65204W        W26735   5.687   0.316   3.848
65205W        W26736  23.179  13.130   0.328
65206W        W26737  31.897  35.008  10.954
65207W        W26738  44.907  27.156  14.481
65208W        W26739  42.816  22.056  10.907
65209W        W26740  33.017  14.591  11.125
65210W        W26741   0.839   1.412  13.499
65211W        W26742  12.333  18.145   4.814
65212W        W26743  25.127  19.731  12.069
65213W        W26744  16.678  39.544  14.960
65214W        W26745  22.669  14.643  12.027
65215W        W26746  13.135  11.170   4.251
65216W        W26747  19.177  34.032   4.779
65217W        W26748  28.546  33.545   0.960
65218W        W26749  28.533  36.925  11.552
65219W        W26750  36.013  41.474   4.646
65220W        W26751   7.400   5.824   1.864
65221W        W26752   7.330   5.420  10.532
65222W        W26753   5.362   0.981  10.471
65223W        W26754  17.145   6.310  11.996
65224W        W26755  13.288   2.896   2.323
65225W        W26756  32.968  39.930  12.478
65226W        W26757  35.968  40.487  13.891
65227W        W26758  42.419   2.472   4.640
65228W        W26759  15.175   3.763  11.533
65229W        W26760  39.332   5.367   2.767
65230W        W26761  30.434  18.756   2.903
65231W        W26762  29.992  30.075   4.725
65232W        W26763  40.334   3.282  11.529
65233W        W26764   2.781  39.053   4.326
65234W        W26765  14.806  38.916  14.932
65235W        W26766  23.554  27.110  13.324
65236W        W26767  26.639   1.741   4.348
65237W        W26768  31.011  36.429  11.924
65238W        W26769  41.337  23.201   3.746
65239W        W26770  43.296   9.748   2.737
65240W        W26771  17.704   5.881  14.909
65241W        W26772  16.093  32.093  12.824
65242W        W26773  27.668  36.081  14.395
65243W        W26774  42.805   7.376   1.227
65244W        W26775  27.142  21.641  11.478
65245W        W26776  26.504  17.593   1.310
65246W        W26777   8.878  25.188   1.251
65247W        W26778  18.637  33.878  12.453
65248W        W26779  26.987  22.713   4.246
65249W        W26780  19.245  38.381   3.213
65250W        W26781  14.650   4.858  14.987
65251W        W26782  25.985  24.577   3.293
65252W        W26783  21.133  39.883  10.414
65253W        W26784  30.507  30.998   4.757
65254W        W26785   0.794   4.437  14.943
65255W        W26786   3.280  36.051   4.716
65256W        W26787  43.907  28.988  13.317
65257W        W26788  32.577  27.190   0.254
65258W        W26789  21.105  20.215   3.379
65259W        W26790  27.524  23.995   3.194
65260W        W26791  11.721  32.603   1.741
65261W        W26792   8.357  10.877  11.532
65262W        W26793   2.954  34.102   3.348
65263W        W26794  33.561   8.722   9.950
65264W        W26795   3.781  19.061   0.776
65265W        W26796   8.893  13.806  14.423
65266W        W26797  20.270  28.169  12.405
65267W        W26798  13.132   6.228  11.590
65268W        W26799  37.833  22.189  14.435
65269W        W26800  33.622  17.121  12.065
65270W        W26801  37.473  10.175  13.519
65271W        W26802   7.381  13.705   2.812
65272W        W26803  42.311  42.445  13.929
65273W        W26804  11.689  28.931  13.355
65274W        W26805  31.620   4.371   4.835
65275W        W26806   6.860   9.878   2.286
65276W        W26807  27.068   0.285  12.372
65277W        W26808  23.050  10.158   3.366
65278W        W26809  33.476   1.854   1.867
65279W        W26810  43.483  12.645  10.112
65280W        W26811  30.484  43.840  11.541
65281W        W26812  29.028  12.154   4.679
65282W        W26813  21.233  15.167   2.903
65283W        W26814  28.144  26.954   2.708
65284W        W26815  20.675  12.167   4.836
65285W        W26816  40.012   1.742  11.047
65286W        W26817   8.827  21.651  14.446
65287W        W26818  38.436  17.583  13.444
65288W        W26819  14.768  21.530   3.676
65289W        W26820   2.753  18.296   1.848
65290W        W26821  39.940  27.032  11.437
65291W        W26822   7.258  13.284  12.440
65292W        W26823  21.039  15.644  11.579
65293W        W26824   3.451  24.708  12.565
65294W        W26825  16.083  19.723  12.521
65295W        W26826  21.592  44.910  13.987
65296W        W26827  27.011  21.197  12.580
65297W        W26828  41.344  34.038   0.295
65298W        W26829  15.093  44.468   2.872
65299W        W26830  23.517   7.211  12.907
65300W        W26831  39.916   7.807   4.175
65301W        W26832  42.418  33.510  11.443
65302W        W26833  19.121  41.493   4.234
65303W        W26834   1.328  17.121  12.360
65304W        W26835  24.227  38.001   4.735
65305W        W26836  20.758  43.273  13.846
65306W        W26837  30.978  19.751  12.960
65307W        W26838  35.375   6.189   0.867
65308W        W26839  24.495  15.196  13.032
65309W        W26840  11.794  23.583  14.872
65310W        W26841   0.339  26.655  14.427
65311W        W26842  21.634  35.563  12.411
65312W        W26843   7.873  23.028  13.915
65313W        W26844  13.846  23.232  10.560
65314W        W26845  21.075   8.169   0.284
65315W        W26846  25.063  38.495  11.966
65316W        W26847  34.007  39.972  14.975
65317W        W26848  27.161  18.711   0.901
65318W        W26849  25.680  23.569   2.278
65319W        W26850  23.509  11.816   1.856
65320W        W26851  26.972   2.772   3.220
65321W        W26852  27.078   0.788   1.927
65322W        W26853  31.606   3.307  13.462
65323W        W26854  23.612  40.936   4.346
65324W        W26855   7.230   0.869   1.753
65325W        W26856  32.535  23.562  10.559
65326W        W26857   0.400  38.016   2.809
65327W        W26858  19.130  14.228  12.093
65328W        W26859  32.894  13.269   4.674
65329W        W26860  24.116  20.719  12.095
65330W        W26861   3.348  27.029  11.897
65331W        W26862  42.442  26.543   2.778
65332W        W26863  36.901  30.147   1.434
65333W        W26864  22.562   9.254  13.042
65334W        W26865  19.140  30.144  12.382
65335W        W26866  14.730  43.008  12.343
65336W        W26867  33.094  43.272  12.016
65337W        W26868  38.416   9.329   0.433
65338W        W26869  38.878  39.333   1.349
65339W        W26870  32.079  29.996   0.730
65340W        W26871  19.615  43.830  11.112
65341W        W26872  31.410  42.782   4.206
65342W        W26873   1.376  28.006   5.119
65343W        W26874  28.962  10.773   5.661
65344W        W26875  27.975  22.122  14.804
65345W        W26876  39.939  25.076  13.992
65346W        W26877  30.490   8.662  13.456
65347W        W26878  36.349   9.363   2.835
65348W        W26879  18.587  25.020   0.455
65349W        W26880  38.897   9.820  12.936
65350W        W26881   0.944  31.522  14.810
65351W        W26882   9.330  12.798   4.155
65352W        W26883  27.076   9.655  14.444
65353W        W26884  10.224   7.397   1.755
65354W        W26885  26.976  29.596   3.277
65355W        W26886  40.837   1.974  10.593
65356W        W26887  40.953   0.781  12.000
65357W        W26888  34.415  16.574   0.898
65358W        W26889   8.228  16.772   0.340
65359W        W26890  23.595  13.679  10.936
65360W        W26891  11.273  33.510   4.600
65361W        W26892  30.465   5.785  10.441
65362W        W26893   7.273  17.593  10.925
65363W        W26894  38.358   7.905   0.374
65364W        W26895  11.625  10.204   4.187
65365W        W26896  11.683  42.860   4.336
65366W        W26897   2.762  21.556  12.996
65367W        W26898  43.274  37.551   5.206
65368W        W26899  37.958  31.007  13.481
65369W        W26900  38.970  18.157   1.443
65370W        W26901  23.984  25.612  12.491
65371W        W26902  11.771   9.863  11.444
65372W        W26903  17.124  21.748  14.973
65373W        W26904  16.596   6.802  11.384
65374W        W26905  15.758   9.759  13.454
65375W        W26906  12.672  12.678   1.435
65376W        W26907   6.799  28.681  14.381
65377W        W26908  31.587   2.312   2.841
65378W        W26909  24.722  44.758  11.557
65379W        W26910  36.451  35.855  10.939
65380W        W26911  22.069  18.255   1.302
65381W        W26912  20.698  44.300   0.345
65382W        W26913  24.029   1.390  10.493
65383W        W26914  25.100  42.294  12.518
65384W        W26915  41.029   7.372   3.712
65385W        W26916  37.378  39.838  14.923
65386W        W26917  14.258  34.993   0.933
65387W        W26918  35.887  37.561   3.164
65388W        W26919  24.120   0.763  11.380
65389W        W26920  28.492   6.393   4.284
65390W        W26921   6.234  15.584  10.889
65391W        W26922  16.210   8.317  13.309
65392W        W26923  34.116  32.991  14.930
65393W        W26924   1.239  12.302  12.956
65394W        W26925  12.182   4.326   4.739
65395W        W26926  23.659  15.590  14.358
65396W        W26927  20.656  11.256  11.064
65397W        W26928  38.338  32.548   3.769
65398W        W26929  15.731  22.205  12.490
65399W        W26930  36.369  28.551  13.005
65400W        W26931  28.968   9.298  12.037
65401W        W26932   5.862  11.194  12.384
65402W        W26933   0.848  29.500  12.543
65403W        W26934  21.232  22.126   1.420
65404W        W26935  21.630   0.367  13.860
65405W        W26936  10.732  40.945  14.765
65406W        W26937  25.214  19.705   2.318
65407W        W26938   2.399  20.742  10.599
65408W        W26939  18.165  43.855   3.314
65409W        W26940  33.035  26.985  11.565
65410W        W26941  28.120  18.766  11.097
65411W        W26942  41.404  24.111  14.780
65412W        W26943  40.341  23.100   4.771
65413W        W26944  21.742  23.078   0.243
65414W        W26945  20.721   0.976  11.034
65415W        W26946   7.385  31.078   4.831
65416W        W26947  43.424  35.467  13.460
65417W        W26948  22.031  35.455   2.348
65418W        W26949  18.142  12.263   0.242
65419W        W26950  10.786   6.687   0.904
65420W        W26951  27.101  25.036   0.957
65421W        W26952  44.339  42.397  14.983
65422W        W26953  31.943  19.589  12.081
65423W        W26954   0.847  37.832   4.823
65424W        W26955  15.787  11.169   1.352
65425W        W26956   9.764  29.035  11.486
65426W        W26957  23.083   1.405   4.166
65427W        W26958  27.680   8.768  12.060
65428W        W26959  34.118  22.186  10.637
65429W        W26960  22.557  43.821   1.796
65430W        W26961   3.343  32.051  14.816
65431W        W26962  27.565  29.128   0.281
65432W        W26963  35.048  44.821  11.044
65433W        W26964  33.457  19.720  12.919
65434W        W26965  42.435  27.940  10.601
65435W        W26966  36.441  18.649   2.211
65436W        W26967   6.271  25.172  12.381
65437W        W26968  21.185  15.124  11.594
65438W        W26969  18.255  21.698   9.569
65439W        W26970  34.420  18.605   3.666
65440W        W26971  13.640   9.644  12.023
65441W        W26972  16.647  31.930   3.148
65442W        W26973  43.787   5.336   1.329
65443W        W26974   2.265   1.240  13.882
65444W        W26975  22.648  17.712   1.444
65445W        W26976  19.188  19.204   4.693
65446W        W26977   8.846  30.479   2.899
65447W        W26978  16.657  29.073   2.728
65448W        W26979  11.696   7.887  11.453
65449W        W26980  42.864  21.666  11.546
65450W        W26981  17.206  24.012  12.080
65451W        W26982   6.224  34.931  12.346
65452W        W26983   2.781  31.037   0.265
65453W        W26984   1.380  10.362   3.761
65454W        W26985  23.572  15.113   2.840
65455W        W26986  29.564  19.638  11.598
65456W        W26987  14.155   3.812   4.702
65457W        W26988  18.709   5.836  11.030
65458W        W26989  19.755  13.744  13.401
65459W        W26990  24.203  35.086  12.017
65460W        W26991   6.298  23.650   3.853
65461W        W26992  38.342   5.767  12.955
65462W        W26993  17.703  38.325  10.558
65463W        W26994  35.591   5.428   0.753
65464W        W26995  19.194  37.545   2.403
65465W        W26996  10.800   9.185   0.257
65466W        W26997   6.873   9.674   3.697
65467W        W26998   9.759   8.677  11.121
65468W        W26999  30.972  31.646  10.576
65469W        W27000  20.601  35.883   1.881
65470W        W27001  28.483  31.107  12.538
65471W        W27002  36.004   0.435  10.918
65472W        W27003  27.086  19.277  14.505
65473W        W27004   2.722   8.723   4.646
65474W        W27005  27.014  26.686  11.438
65475W        W27006  10.350  28.041  13.050
65476W        W27007  35.468  17.780  13.398
65477W        W27008   9.242  39.331   2.307
65478W        W27009   0.892  18.130   2.211
65479W        W27010  31.105  30.471   2.881
65480W        W27011  14.175  27.946  12.441
65481W        W27012  30.155  39.333  12.975
65482W        W27013  15.083  35.055   2.207
65483W        W27014  43.000  10.719  13.827
65484W        W27015  12.201  23.576  12.960
65485W        W27016  33.046  36.063   2.675
65486W        W27017  34.385  28.973   1.215
65487W        W27018  26.659   3.765  12.055
65488W        W27019  42.495  43.428   3.217
65489W        W27020  36.590  22.638  12.870
65490W        W27021  16.293  41.532   3.723
65491W        W27022  26.181  23.176  12.039
65492W        W27023   6.426  18.066  13.527
65493W        W27024  21.615  44.834  14.328
65494W        W27025  14.827   0.974   0.861
65495W        W27026   1.377  10.805  12.061
65496W        W27027  33.904  21.056  14.999
65497W        W27028  38.010  24.218  14.474
65498W        W27029  36.877  39.041  13.886
65499W        W27030  40.022  24.700  12.526
65500W        W27031  18.611  16.663   1.249
65501W        W27032   3.940  15.666  11.561
65502W        W27033  32.972  38.993   4.260
65503W        W27034  23.215   0.838   0.261
65504W        W27035  22.652  42.887   0.389
65505W        W27036   7.212  28.645   4.646
65506W        W27037  28.586  32.893  11.907
65507W        W27038  17.714  29.072   1.318
65508W        W27039  19.144   3.931  10.431
65509W        W27040   7.265   5.349  14.362
65510W        W27041  14.664  44.883  12.902
65511W        W27042  20.209  44.289  10.472
65512W        W27043  34.525   6.801  13.955
65513W        W27044  32.567   5.350   0.425
65514W        W27045  29.101   0.288   4.827
65515W        W27046  35.050  12.652   2.801
65516W        W27047   9.670   1.247  14.982
65517W        W27048   7.726  10.233   3.747
65518W        W27049  37.874  17.102   3.239
65519W        W27050   0.871  35.508  12.880
65520W        W27051   1.290  31.153  12.480
65521W        W27052  36.880  41.448   1.793
65522W        W27053  21.219  41.877  12.351
65523W        W27054   2.956   9.817   2.683
65524W        W27055  42.411  22.056  12.872
65525W        W27056  21.751  21.042  11.392
65526W        W27057  20.172  39.344  11.559
65527W        W27058  29.166  20.577   0.477
65528W        W27059   8.277  35.521  12.406
65529W        W27060  27.149  34.584  10.995
65530W        W27061   9.311  24.515  12.925
65531W        W27062   9.285  19.216  10.543
65532W        W27063  25.686  13.824   1.322
65533W        W27064  33.935  43.818   0.915
65534W        W27065  38.866   4.935   0.338
65535W        W27066  11.842  40.338   1.902
65536W        W27067  31.597   5.725  14.987
65537W        W27068  32.497  27.094   2.339
65538W        W27069  24.637  34.534   0.384
65539W        W27070  28.464  15.748   0.446
65540W        W27071  38.860   6.321   3.259
65541W        W27072  24.578   7.270  11.608
65542W        W27073  39.904   0.388   2.417
65543W        W27074  31.466   2.369   3.273
65544W        W27075  40.537  16.269  14.798
65545W        W27076  15.775   5.865  13.423
65546W        W27077  13.205   6.693  13.519
65547W        W27078  37.999   0.461   3.629
65548W        W27079  20.553  21.671  12.837
65549W        W27080  33.928  43.351  11.463
65550W        W27081  43.807   7.709  13.346
65551W        W27082  15.266  21.018  11.456
65552W        W27083  37.087  14.173  11.459
65553W        W27084  16.082  29.963  11.474
65554W        W27085  29.121  31.965  14.458
65555W        W27086  18.651   8.734   1.813
65556W        W27087  22.054   8.706  11.608
65557W        W27088  11.128   4.390   0.384
65558W        W27089  35.937   6.912   2.364
65559W        W27090  33.435  25.191  13.798
65560W        W27091  25.515   2.750   4.694
65561W        W27092  33.540  16.716  11.925
65562W        W27093  39.535  18.704  10.518
65563W        W27094   7.200  37.856  12.921
65564W        W27095  17.759  21.206   4.679
65565W        W27096  28.484  18.780  10.953
65566W        W27097   4.897  34.892  12.349
65567W        W27098  34.900  44.471   3.284
65568W        W27099   8.196  43.411  14.951
65569W        W27100  31.900  42.993   2.236
65570W        W27101  26.974  19.109  11.393
65571W        W27102  31.551  16.769  12.538
65572W        W27103  13.259  27.159   0.869
65573W        W27104  44.421  35.055  10.922
65574W        W27105   2.785  15.679   2.406
65575W        W27106   4.893   3.764   3.373
65576W        W27107  12.252  35.535  12.430
65577W        W27108  36.069  40.008  11.536
65578W        W27109   6.769  19.762  14.981
65579W        W27110   5.730  11.364  14.758
65580W        W27111   0.303  42.941  14.829
65581W        W27112  39.894  14.617  13.491
65582W        W27113  17.166  11.685   0.346
65583W        W27114  41.939  12.156  10.410
65584W        W27115   4.245  33.494   2.836
65585W        W27116  13.240  17.108   3.151
65586W        W27117  17.698  42.471  10.618
65587W        W27118  31.946  43.510   2.186
65588W        W27119  19.268  20.260  10.544
65589W        W27120  12.317  41.485   0.908
65590W        W27121  20.038  10.869   0.806
65591W        W27122   0.392  15.780  12.052
65592W        W27123  39.991  13.244  14.948
65593W        W27124  23.215  13.190  10.994
65594W        W27125   9.887   0.888   4.836
65595W        W27126  27.527   6.424   4.833
65596W        W27127  14.790  15.639   0.757
65597W        W27128   8.286  13.835   3.850
65598W        W27129  33.591  33.458   0.281
65599W        W27130  27.133   2.350  12.580
65600W        W27131  21.549  20.741  12.438
65601W        W27132  20.528   2.732   3.327
65602W        W27133  20.579  27.552   2.721
65603W        W27134  37.345  10.301  13.919
65604W        W27135  18.660  32.623  13.515
65605W        W27136  40.455  42.482   1.430
65606W        W27137   2.354  13.671  10.620
65607W        W27138  13.667  39.438  13.839
65608W        W27139  32.890  44.457  13.381
65609W        W27140   3.435  25.551   1.885
65610W        W27141   3.769  34.924   2.818
65611W        W27142  19.089  16.315   0.790
65612W        W27143   9.808  43.940  14.784
65613W        W27144  32.548  24.076  11.963
65614W        W27145  15.113   4.224   1.702
65615W        W27146   9.353   0.928   1.370
65616W        W27147  36.082  14.684  12.966
65617W        W27148  17.082   4.944   0.902
65618W        W27149  24.680  17.239  10.490
65619W        W27150  19.771  27.562  10.590
65620W        W27151  34.101  39.971  11.072
65621W        W27152  37.075  12.344   0.798
65622W        W27153  26.470  26.142  10.488
65623W        W27154  22.149  41.971   4.347
65624W        W27155  37.509  38.474   3.823
65625W        W27156   6.717   5.778  11.928
65626W        W27157  43.391  43.330   2.844
65627W        W27158  26.115   1.950  13.979
65628W        W27159  37.953  41.410  13.927
65629W        W27160   3.270  40.893   4.821
65630W        W27161   6.850   2.449   0.287
65631W        W27162  35.098   2.472  10.442
65632W        W27163  40.371  31.482   2.191
65633W        W27164  32.618  32.954   0.932
65634W        W27165   8.881  41.478  13.474
65635W        W27166  26.537  21.078   0.911
65636W        W27167   9.671  12.708   0.813
65637W        W27168  41.831  18.148   2.682
65638W        W27169   2.324  25.136  12.373
65639W        W27170  32.958  28.450  11.436
65640W        W27171  26.514  15.712   1.326
65641W        W27172  11.655   3.908   2.713
65642W        W27173  20.079  18.290  13.027
65643W        W27174   2.372  16.171  14.029
65644W        W27175  40.895  34.531   0.855
65645W        W27176   7.779   1.763   3.303
65646W        W27177  24.063  14.182  13.323
65647W        W27178   1.827  17.239   4.772
65648W        W27179  38.042  18.163  13.419
65649W        W27180  20.683  29.637  11.554
65650W        W27181  27.548  14.796   2.306
65651W        W27182   0.959  26.473  14.799
65652W        W27183  35.887  39.512   1.440
65653W        W27184  21.578   7.890   3.242
65654W        W27185  39.958  15.580  12.498
65655W        W27186   4.262  38.565   2.352
65656W        W27187  16.635  26.056   3.252
65657W        W27188  13.143  27.549  12.496
65658W        W27189  33.916  36.847   2.714
65659W        W27190  23.145  36.080   4.206
65660W        W27191  29.119   4.745  14.284
65661W        W27192  20.230  35.074   2.769
65662W        W27193  38.962  19.072  11.550
65663W        W27194   7.757  18.616   3.155
65664W        W27195  21.095   4.934   4.788
65665W        W27196  38.882  42.429  13.975
65666W        W27197  10.361   1.375  11.866
65667W        W27198  19.228   5.401   4.597
65668W        W27199  22.624   6.763   4.265
65669W        W27200  16.224  13.273  13.900
65670W        W27201  44.763  36.989  12.084
65671W        W27202  17.776  43.962  11.987
65672W        W27203   9.645   3.409   1.354
65673W        W27204  34.063  38.430  14.893
65674W        W27205   7.883  33.980  11.005
65675W        W27206   0.951  23.992  12.066
65676W        W27207  19.552  29.063   4.207
65677W        W27208  35.401  30.147  12.823
65678W        W27209  10.371  14.806   4.178
65679W        W27210  17.624  44.796  13.020
65680W        W27211  29.153   9.391   5.100
65681W        W27212  26.681   2.326   3.786
65682W        W27213  12.694  40.825   4.805
65683W        W27214   6.285  26.554  13.420
65684W        W27215  44.965  10.732  10.579
65685W        W27216  44.975   8.345  10.576
65686W        W27217  15.727   6.206   5.296
65687W        W27218  15.589   9.272   1.212
65688W        W27219  29.133  16.232   2.775
65689W        W27220   2.312  10.231   1.219
65690W        W27221  19.131  38.366   1.224
65691W        W27222  27.177  38.837   2.883
65692W        W27223  35.002  20.579  14.373
65693W        W27224   4.369  24.114   3.230
65694W        W27225  28.634  40.899  14.843
65695W        W27226  39.527  24.555   0.253
65696W        W27227   0.763  31.150  13.418
65697W        W27228  40.857  24.572   3.640
65698W        W27229  34.942   0.292  12.047
65699W        W27230  14.785  43.019   0.319
65700W        W27231  38.326   4.737   2.728
65701W        W27232  30.130  22.172   4.290
65702W        W27233   6.219  21.126   0.404
65703W        W27234  32.085  25.010   3.841
65704W        W27235  12.265  39.467   3.378
65705W        W27236  44.960  27.040  10.889
65706W        W27237  10.167   7.829   4.626
65707W        W27238  20.523   3.301   3.664
65708W        W27239  28.984  29.643  14.996
65709W        W27240  36.431  25.514   2.200
65710W        W27241  11.182  33.433  11.401
65711W        W27242  10.648  40.405  10.464
65712W        W27243  16.238  16.632  11.971
65713W        W27244  33.920  25.096   1.912
65714W        W27245   8.856  23.179  13.547
65715W        W27246  19.549   7.692   5.199
65716W        W27247  25.155   8.195   9.975
65717W        W27248  34.951  21.682  14.889
65718W        W27249   9.264  13.282  14.974
65719W        W27250  23.070  24.489   4.122
65720W        W27251  42.520   8.798   4.741
65721W        W27252  37.517  15.225  12.458
65722W        W27253   0.807  28.655  13.428
65723W        W27254  40.439  33.528  11.596
65724W        W27255   2.384   4.275   1.716
65725W        W27256  18.233  29.086  12.380
65726W        W27257  34.374  36.563  13.045
65727W        W27258  25.702   0.449  12.397
65728W        W27259  36.880  14.712  12.888
65729W        W27260  19.763  15.092   4.707
65730W        W27261  17.276   4.335   2.779
65731W        W27262  24.662   4.205   0.265
65732W        W27263  31.507  37.895   9.923
65733W        W27264   2.347   2.456  12.930
65734W        W27265   9.777  43.905  13.979
65735W        W27266  44.394   8.230   3.151
65736W        W27267  26.626  36.509   2.258
65737W        W27268   1.903  15.174  14.315
65738W        W27269   7.858  29.559  14.007
65739W        W27270  35.952   2.940   1.270
65740W        W27271  42.983  42.913   3.325
65741W        W27272   1.942  37.980  14.874
65742W        W27273  27.978  20.601   3.173
65743W        W27274  18.079  44.314  13.859
65744W        W27275  33.514  17.746  14.939
65745W        W27276  19.626   8.816  10.476
65746W        W27277  38.341  43.298  11.954
65747W        W27278  42.945  23.219  11.414
65748W        W27279  41.409  15.144  13.483
65749W        W27280   1.817   5.830  11.022
65750W        W27281  17.785  16.751   1.294
65751W        W27282   6.304  31.483   4.652
65752W        W27283  10.764   3.442  11.878
65753W        W27284  28.619  36.577   0.481
65754W        W27285  43.899   3.879  10.627
65755W        W27286  25.972  21.746   2.340
65756W        W27287  43.406   9.863  11.047
65757W        W27288  44.901  12.173   1.446
65758W        W27289  39.042   9.678   2.197
65759W        W27290  17.707   2.887   2.833
65760W        W27291  36.557   4.787  11.989
65761W        W27292   5.863   4.335  11.606
65762W        W27293  13.284  22.048  14.800
65763W        W27294  28.567   3.902   0.937
65764W        W27295  12.735  22.586   4.344
65765W        W27296  40.826  16.311   1.892
65766W        W27297  19.155  29.617   0.383
65767W        W27298  31.948  27.098  13.514
65768W        W27299  44.901  15.125   0.733
65769W        W27300  13.237   6.777   4.224
65770W        W27301   0.264   0.418   1.773
65771W        W27302   0.417  14.776   3.827
65772W        W27303  14.819  40.905  12.830
65773W        W27304  34.988  41.384   1.362
65774W        W27305  22.250  35.451   1.822
65775W        W27306   2.864  13.155   1.241
65776W        W27307  44.265   4.216  14.878
65777W        W27308  24.541  41.879   4.609
65778W        W27309  21.158  19.559  11.395
65779W        W27310  12.323  12.130   2.693
65780W        W27311  19.257   4.796   1.922
65781W        W27312  32.056  40.531  10.156
65782W        W27313  10.795   6.896  11.541
65783W        W27314  41.003  13.118   4.632
65784W        W27315  37.420  40.864   0.354
65785W        W27316  21.239   7.834   1.875
65786W        W27317   8.662  30.049   1.837
65787W        W27318  39.955   1.933   4.650
65788W        W27319  34.420  34.403  14.451
65789W        W27320  27.065   4.264  11.442
65790W        W27321   4.852  37.951  13.966
65791W        W27322  44.786   5.801   4.816
65792W        W27323  41.480  38.388  12.033
65793W        W27324  40.512  20.215  12.385
65794W        W27325  17.308   7.241  10.530
65795W        W27326  32.055   4.298   1.890
65796W        W27327  43.479   8.319  13.986
65797W        W27328  13.632  20.241  13.858
65798W        W27329  18.772  40.480   2.191
65799W        W27330  29.099  11.178  11.452
65800W        W27331  22.507  42.832  12.362
65801W        W27332  30.062  32.600  12.867
65802W        W27333  29.077  10.147   0.898
65803W        W27334   7.258  42.986   1.419
65804W        W27335  23.502  11.280   2.188
65805W        W27336  13.152  16.692  13.369
65806W        W27337  13.704   1.260   4.769
65807W        W27338  30.142  34.942  12.529
65808W        W27339   4.815  41.404   1.866
65809W        W27340   5.695  12.161   2.264
65810W        W27341   9.149   3.311   2.732
65811W        W27342  11.187   5.920  12.547
65812W        W27343  23.114  32.909  13.530
65813W        W27344   4.711  41.382   0.276
65814W        W27345  33.082  35.041   1.238
65815W        W27346  23.622  14.757   1.359
65816W        W27347  12.359   2.293   3.710
65817W        W27348  39.859  34.429   4.166
65818W        W27349  40.460  11.134  13.532
65819W        W27350  19.694  36.373  13.924
65820W        W27351   5.439  10.818   2.365
65821W        W27352  25.579  34.925   4.190
65822W        W27353   8.804  20.256  12.887
65823W        W27354  39.522  21.158  11.903
65824W        W27355  31.538  20.198  10.520
65825W        W27356  30.087  34.538   4.125
65826W        W27357  36.034  41.517   3.829
65827W        W27358  11.708  17.597  11.051
65828W        W27359  18.578   7.232  14.776
65829W        W27360  17.129  19.239  11.424
65830W        W27361  36.932  14.732  14.299
65831W        W27362  22.234  32.122  14.767
65832W        W27363   6.246  25.610  12.445
65833W        W27364  29.521  21.047   4.724
65834W        W27365  41.352  31.948  12.350
65835W        W27366  13.278  18.577  13.406
65836W        W27367  13.664  21.255  10.574
65837W        W27368  37.460  28.980  14.023
65838W        W27369  33.526  44.497   5.128
65839W        W27370  34.957   2.882  13.348
65840W        W27371  14.157  14.190   1.780
65841W        W27372  43.783  19.753  11.483
65842W        W27373  20.203  13.238  14.439
65843W        W27374  18.548  12.340   3.649
65844W        W27375   5.895  17.183   2.275
65845W        W27376  29.437   4.897   2.327
65846W        W27377  12.317  29.454  12.381
65847W        W27378  27.986  42.977   1.342
65848W        W27379   5.386  44.956  13.006
65849W        W27380  16.094  43.295   3.867
65850W        W27381  12.193  35.075  13.494
65851W        W27382  14.202  15.756  14.488
65852W        W27383  25.713  24.523   3.338
65853W        W27384  14.167  11.781  11.944
65854W        W27385  34.894   9.340  14.432
65855W        W27386  11.731  42.399  13.459
65856W        W27387   9.735  42.347  11.471
65857W        W27388  18.077  40.406  14.471
65858W        W27389  21.018   4.704   2.838
65859W        W27390  41.350  17.073  10.461
65860W        W27391  10.378  14.289   0.885
65861W        W27392  23.100  21.630   3.719
65862W        W27393   7.774  11.680  11.867
65863W        W27394  12.794  24.539  13.440
65864W        W27395  42.948  21.027   3.712
65865W        W27396  29.446   4.441  11.510
65866W        W27397  21.123  27.061  13.328
65867W        W27398  38.545   8.333   5.804
65868W        W27399  34.109  41.935   4.826
65869W        W27400  26.560  17.113  14.812
65870W        W27401   4.847   0.355   0.319
65871W        W27402   4.719  12.669  11.464
65872W        W27403   0.314  33.127  11.911
65873W        W27404  40.396  44.452  12.060
65874W        W27405  39.926  25.167   5.161
65875W        W27406  27.477  18.664  12.379
65876W        W27407  20.725  23.122  10.972
65877W        W27408   8.885  39.463   3.251
65878W        W27409   0.469  31.123  13.530
65879W        W27410  40.444  20.738   1.236
65880W        W27411   5.733  34.456  14.806
65881W        W27412   8.838  30.569   2.360
65882W        W27413  14.314   9.272  14.830
65883W        W27414  19.763   7.204  11.376
65884W        W27415   1.452  26.965   0.933
65885W        W27416   0.919  32.410   3.372
65886W        W27417   3.307  42.809  12.515
65887W        W27418  38.363  11.727  10.905
65888W        W27419  21.163  18.080   2.359
65889W        W27420  18.253  29.994  13.901
65890W        W27421  41.338  10.717  11.464
65891W        W27422  37.988   9.858  13.021
65892W        W27423  26.521   5.363   0.334
65893W        W27424  34.374  13.344   1.338
65894W        W27425  14.212   4.245   2.732
65895W        W27426  17.595  16.580   0.964
65896W        W27427  40.477   7.774   1.446
65897W        W27428  25.999   4.731  14.468
65898W        W27429  17.765  25.467   4.607
65899W        W27430  26.038  32.044   2.670
65900W        W27431  33.434  39.054   3.786
65901W        W27432  32.118  10.357   4.241
65902W        W27433  22.023  26.209  13.372
65903W        W27434  20.535  44.759  10.515
65904W        W27435  16.719  15.584  14.381
65905W        W27436   8.404   2.266   5.607
65906W        W27437  38.869  26.042   3.671
65907W        W27438  25.618   0.257   2.767
65908W        W27439  17.611  23.019   3.806
65909W        W27440  21.736  43.386   1.903
65910W        W27441   3.373  13.161   2.903
65911W        W27442  39.350  28.491   2.226
65912W        W27443   0.267  18.676   1.405
65913W        W27444   5.840  30.123   3.762
65914W        W27445   9.371   0.380   5.704
65915W        W27446   0.845   1.266  14.969
65916W        W27447  20.654  34.486   4.171
65917W        W27448   5.307  26.969   4.184
65918W        W27449  12.186  42.428   0.771
65919W        W27450   4.429  26.190   3.770
65920W        W27451  41.850   9.198   3.696
65921W        W27452  17.270  31.536  12.346
65922W        W27453  30.498  19.197  14.926
65923W        W27454   9.394  14.760   0.243
65924W        W27455  36.917  12.244  11.923
65925W        W27456   7.807  20.197   4.165
65926W        W27457  41.831   4.777   0.802
65927W        W27458  32.986  20.053   1.866
65928W        W27459  29.574  17.607   1.222
65929W        W27460  24.490  28.958  11.110
65930W        W27461   5.250   6.230   1.733
65931W        W27462  15.745   6.850   9.938
65932W        W27463  21.114  22.727   0.899
65933W        W27464   6.347   3.758  12.037
65934W        W27465  13.786  41.296   2.692
65935W        W27466  43.331  24.100   1.734
65936W        W27467   9.811  36.026  14.995
65937W        W27468  21.094  32.390   1.397
65938W        W27469   9.277   0.404  14.399
65939W        W27470  44.835  33.530  13.983
65940W        W27471  43.424   9.757  14.487
65941W        W27472  12.205   0.890   2.260
65942W        W27473  41.916   2.737   3.359
65943W        W27474   9.368  18.681   4.834
65944W        W27475  41.795  29.113  13.329
65945W        W27476  10.791  35.375   1.752
65946W        W27477  39.506   1.451  12.937
65947W        W27478  17.220  32.525   3.660
65948W        W27479   9.178  17.647  13.915
65949W        W27480  29.489  35.449  13.408
65950W        W27481  11.854  42.019   2.273
65951W        W27482   0.899  21.714   4.241
65952W        W27483  22.192  11.285  10.564
65953W        W27484  22.105   5.719  14.798
65954W        W27485  35.991   3.907   0.880
65955W        W27486  42.960  39.954  14.806
65956W        W27487   2.744  23.566  11.074
65957W        W27488  32.635  28.994  14.793
65958W        W27489  19.557   7.700  11.906
65959W        W27490  22.510  35.099   2.362
65960W        W27491  38.510  34.581   2.191
65961W        W27492  42.334  39.476  10.489
65962W        W27493  22.611  19.199  11.069
65963W        W27494  38.898  16.093  12.852
65964W        W27495  10.341  16.596   3.681
65965W        W27496   0.333  39.522  10.897
65966W        W27497  19.648  12.684  13.954
65967W        W27498  21.256  35.383   2.760
65968W        W27499   3.318  41.993   3.644
65969W        W27500  36.451  35.080   5.310
65970W        W27501   4.895  16.717  13.355
65971W        W27502  23.640  24.004  12.889
65972W        W27503  25.994  21.563   4.292
65973W        W27504  35.985   5.896   1.221
65974W        W27505  37.062  15.642   0.367
65975W        W27506  17.775  24.111   5.235
65976W        W27507  23.561  10.806   4.315
65977W        W27508  12.116  15.086  12.019
65978W        W27509  38.377   7.352   3.150
65979W        W27510  42.802  31.484   1.445
65980W        W27511  30.134  39.870   4.298
65981W        W27512  34.928   5.797   0.264
65982W        W27513   4.780  36.436  11.009
65983W        W27514   3.810  19.736  12.392
65984W        W27515   0.840  43.804   3.258
65985W        W27516  11.201  30.420  12.418
65986W        W27517  17.671  23.677   0.427
65987W        W27518  33.559   0.744  12.373
65988W        W27519   3.239   7.908   3.785
65989W        W27520  35.002  10.864  13.958
65990W        W27521   8.681   3.811   1.698
65991W        W27522  42.942  28.128   0.942
65992W        W27523  43.913  32.571  14.791
65993W        W27524  37.987  30.064   1.835
65994W        W27525  44.003  22.144  13.379
65995W        W27526  32.565  11.370  13.363
65996W        W27527  35.948  29.982  11.034
65997W        W27528  42.429  10.360  14.917
65998W        W27529  22.097   6.298  11.997
65999W        W27530  18.772  18.749   2.310
66000W        W27531  26.127  20.243   0.264
66001W        W27532  39.955  42.346   3.175
66002W        W27533  33.120  27.630   1.342
66003W        W27534  40.878  23.018  12.350
66004W        W27535  18.668  18.085  12.891
66005W        W27536  23.071  18.659   0.822
66006W        W27537  22.094  27.988   1.846
66007W        W27538  33.018  23.494  13.901
66008W        W27539  41.330  38.463   4.185
66009W        W27540  25.641  15.623  12.552
66010W        W27541   8.162  25.509   3.327
66011W        W27542  43.512  31.107   4.168
66012W        W27543  27.099  38.025   2.706
66013W        W27544  36.567  24.189   1.441
66014W        W27545  41.360   4.763   0.392
66015W        W27546  15.257  36.905  11.067
66016W        W27547  43.456  26.659  10.583
66017W        W27548  41.978  22.506  14.984
66018W        W27549  35.369   3.260  11.868
66019W        W27550  19.254  26.562   3.743
66020W        W27551  32.110  30.938  12.475
66021W        W27552  37.067  41.928  14.881
66022W        W27553  38.000  13.692   2.700
66023W        W27554  16.252   9.288  14.996
66024W        W27555  44.409   3.875   1.873
66025W        W27556  40.394  14.142  12.006
66026W        W27557   3.445   7.251   1.790
66027W        W27558  36.046  16.275   0.338
66028W        W27559  44.454   2.901  13.970
66029W        W27560  36.996  26.651  11.997
66030W        W27561  28.171  23.697   1.699
66031W        W27562  13.824  25.099   3.190
66032W        W27563  34.035  12.697   9.992
66033W        W27564  33.599  21.742   2.227
66034W        W27565  37.487  15.708  13.829
66035W        W27566  31.998  29.084  10.409
66036W        W27567  20.601  28.575   2.206
66037W        W27568  37.030  32.000  11.071
66038W        W27569  23.178  18.206   1.283
66039W        W27570   9.173  25.139  11.533
66040W        W27571  18.196   8.741   0.274
66041W        W27572  31.940  16.673   1.884
66042W        W27573   5.700  38.022   0.364
66043W        W27574  44.812  39.553  11.865
66044W        W27575   5.255  24.986   0.875
66045W        W27576  28.179  30.024  11.037
66046W        W27577  32.450   0.462   2.717
66047W        W27578  26.976   2.448  14.935
66048W        W27579   8.763  26.057   3.681
66049W        W27580  41.307  36.968   4.286
66050W        W27581  43.466  22.036  11.588
66051W        W27582   7.352   6.729   4.168
66052W        W27583  21.165   0.431   9.965
66053W        W27584  41.508  14.598  12.912
66054W        W27585   4.721  41.525  14.996
66055W        W27586  31.031  38.409   4.734
66056W        W27587  19.713  29.941  13.999
66057W        W27588   6.727  28.935   2.403
66058W        W27589   6.724   0.401   0.346
66059W        W27590   4.263  38.522  13.026
66060W        W27591  17.680  31.563   2.785
66061W        W27592  37.992  11.823  12.478
66062W        W27593  25.494  28.002  11.509
66063W        W27594  44.391   2.285  13.891
66064W        W27595  36.359  16.273   5.101
66065W        W27596  29.958  10.227   2.256
66066W        W27597   6.413  28.488   2.862
66067W        W27598  13.238  43.393   0.788
66068W        W27599  32.920   1.289  13.441
66069W        W27600  44.009  29.592  10.954
66070W        W27601  42.291  17.800   2.269
66071W        W27602  32.469  12.336  13.044
66072W        W27603  18.251  31.023  10.474
66073W        W27604  25.121  39.981   1.724
66074W        W27605  16.213  13.732   4.209
66075W        W27606  29.466  12.145  13.900
66076W        W27607  35.982  20.224   0.425
66077W        W27608  24.528  30.094   1.310
66078W        W27609  42.448  13.617  13.456
66079W        W27610  22.624   8.357  14.491
66080W        W27611   3.950  21.696   3.288
66081W        W27612  18.181  28.938  14.370
66082W        W27613  36.957  36.858   3.785
66083W        W27614  34.900  38.368  13.827
66084W        W27615  41.936  28.041  12.955
66085W        W27616  30.001  19.736  11.099
66086W        W27617   9.791  44.877   9.994
66087W        W27618  35.564  26.165  11.007
66088W        W27619  11.735  25.668  14.934
66089W        W27620   0.482   3.273   0.385
66090W        W27621  25.163  43.277   3.803
66091W        W27622  29.513  41.925  13.413
66092W        W27623  41.043  43.832  11.049
66093W        W27624  23.059  21.097  13.506
66094W        W27625  39.931  17.168  10.521
66095W        W27626  15.174  13.349   0.378
66096W        W27627  31.050  10.352  10.944
66097W        W27628  35.952  42.991   2.885
66098W        W27629  24.179  16.170  14.009
66099W        W27630   9.174  42.900  14.980
66100W        W27631  20.668  32.895  13.369
66101W        W27632  22.070  15.186   3.739
66102W        W27633  37.902  38.916   1.323
66103W        W27634  26.461  43.814   1.393
66104W        W27635  35.488  41.379   2.367
66105W        W27636   4.236   5.362  12.886
66106W        W27637  33.000  22.103   1.921
66107W        W27638  41.012  34.395  12.087
66108W        W27639  44.898   4.722  11.582
66109W        W27640  11.288  22.179  10.464
66110W        W27641  29.629  16.318  10.551
66111W        W27642  19.598  32.475  14.275
66112W        W27643  17.097   8.251   0.478
66113W        W27644  34.982  12.173   0.805
66114W        W27645  26.666  21.597   4.218
66115W        W27646  30.989  28.579  13.334
66116W        W27647  38.462  40.933   1.784
66117W        W27648  18.188  18.053  12.465
66118W        W27649  14.099  43.842  11.075
66119W        W27650   5.828  37.915  12.356
66120W        W27651  29.070  16.593   2.289
66121W        W27652  13.343  28.681   3.221
66122W        W27653   2.266  44.489  11.585
66123W        W27654  43.848  33.386  11.975
66124W        W27655  22.562  28.553  13.879
66125W        W27656  14.746  34.416   1.803
66126W        W27657  14.630  29.075  12.342
66127W        W27658  41.905   6.678   0.316
66128W        W27659  10.819  17.281  11.523
66129W        W27660  32.520  44.489   4.239
66130W        W27661  20.103  28.181  12.026
66131W        W27662   3.956   5.833   1.353
66132W        W27663   1.460  44.452  10.485
66133W        W27664   4.382  43.509  11.939
66134W        W27665  28.144  15.725   3.221
66135W        W27666   5.764  10.697  14.501
66136W        W27667  12.128   3.768   4.210
66137W        W27668  32.102  43.282  14.384
66138W        W27669   7.847   4.409  14.353
66139W        W27670  26.182  18.731  11.975
66140W        W27671  18.183  10.199   0.822
66141W        W27672  24.710  16.253   1.433
66142W        W27673  38.966  42.385   0.843
66143W        W27674  16.678  30.429   4.268
66144W        W27675  20.073  41.815  14.020
66145W        W27676  38.954   0.359   3.747
66146W        W27677  23.570   4.813   3.679
66147W        W27678  40.823  44.399   0.743
66148W        W27679  13.625  41.006  14.458
66149W        W27680  17.619   9.656  11.982
66150W        W27681  27.124  13.803  14.317
66151W        W27682  10.243  13.675   0.947
66152W        W27683   1.915  32.041   3.642
66153W        W27684  14.216  32.635  11.864
66154W        W27685  37.915  35.898  12.882
66155W        W27686  40.848  17.691   1.881
66156W        W27687  25.172  34.083   1.365
66157W        W27688  13.730  43.294   1.789
66158W        W27689  30.415  41.803  12.981
66159W        W27690  14.286  30.089  13.037
66160W        W27691  38.002  25.672   1.372
66161W        W27692  40.996   9.819  12.474
66162W        W27693  27.628  26.181   1.450
66163W        W27694  40.976  28.963  13.972
66164W        W27695  23.028  40.401  12.504
66165W        W27696  32.100  32.986  11.409
66166W        W27697  32.008  12.164   3.345
66167W        W27698  30.516  25.145  11.121
66168W        W27699  42.377  13.757   2.401
66169W        W27700   8.345  29.975   1.274
66170W        W27701  30.152  42.329  12.410
66171W        W27702  43.004  19.779  13.925
66172W        W27703  23.615  29.971  13.456
66173W        W27704  43.864  10.724  10.440
66174W        W27705  39.355  25.130  10.901
66175W        W27706  16.294  24.037   0.923
66176W        W27707  32.489  33.044  12.434
66177W        W27708   2.900  32.427   1.385
66178W        W27709  41.987  31.930  11.013
66179W        W27710  21.189  25.526   1.809
66180W        W27711  35.901  13.665  11.416
66181W        W27712   5.909  26.475   0.948
66182W        W27713  17.240  10.335   4.286
66183W        W27714  35.601  10.185   4.240
66184W        W27715  29.986  10.318  13.851
66185W        W27716  23.526  28.446  10.414
66186W        W27717  21.085  30.425  11.990
66187W        W27718  17.211  36.874  13.991
66188W        W27719  24.718  13.336   3.280
66189W        W27720  39.449  20.658  12.880
66190W        W27721  20.530  37.840   1.923
66191W        W27722   8.722  12.705   2.686
66192W        W27723  19.636  14.127   3.814
66193W        W27724  28.576  35.378   3.831
66194W        W27725  21.753  24.067  14.504
66195W        W27726  39.028   3.436  11.080
66196W        W27727   5.362   4.356  14.897
66197W        W27728   4.829  18.289  11.968
66198W        W27729   7.752  19.637  14.344
66199W        W27730  27.036  42.316   4.691
66200W        W27731  42.885  31.541   4.820
66201W        W27732  28.975  26.015   3.239
66202W        W27733  10.261  20.139  12.859
66203W        W27734  23.645  19.099   4.244
66204W        W27735   1.755   4.858   2.258
66205W        W27736  19.107  10.228  13.337
66206W        W27737  32.493  10.705   1.758
66207W        W27738  36.497  32.919   4.162
66208W        W27739  24.087  10.304   2.369
66209W        W27740   3.866  23.623   3.721
66210W        W27741   2.366  23.511   9.961
66211W        W27742   1.903   3.812   1.227
66212W        W27743   9.787  42.409  12.499
66213W        W27744  40.968  32.059   2.279
66214W        W27745  12.647  10.798   4.354
66215W        W27746  40.333  40.936  10.455
66216W        W27747  14.141  18.075   1.799
66217W        W27748   2.755  40.828  13.545
66218W        W27749  35.437   6.304  12.571
66219W        W27750  21.665  20.093  12.876
66220W        W27751  38.867  30.569  12.060
66221W        W27752  23.550  40.825  12.833
66222W        W27753  23.087  43.308   0.788
66223W        W27754  34.375   0.416   0.433
66224W        W27755   4.722   4.385   1.375
66225W        W27756   7.788  25.644  10.452
66226W        W27757  16.657   4.315  13.352
66227W        W27758   1.283  35.875  13.857
66228W        W27759   6.800  26.549   1.765
66229W        W27760  25.032  10.674   1.701
66230W        W27761  10.856  21.688   2.783
66231W        W27762  14.788  38.048   4.609
66232W        W27763  37.079  15.204   1.812
66233W        W27764  13.802   6.796   1.887
66234W        W27765  21.204  31.519   3.363
66235W        W27766   9.220  11.266   0.301
66236W        W27767  18.111  33.047   0.885
66237W        W27768  30.591  33.511  14.840
66238W        W27769  43.388   4.865  12.042
66239W        W27770  22.544  38.974  11.871
66240W        W27771  28.449   2.921  13.532
66241W        W27772   1.768  28.047   2.815
66242W        W27773  18.736  15.286   0.294
66243W        W27774   9.763  21.196   0.444
66244W        W27775  29.473  41.463   3.777
66245W        W27776  42.487  23.640  10.496
66246W        W27777   2.722  38.010  10.561
66247W        W27778   6.821  18.123   4.823
66248W        W27779  44.806  25.523   1.812
66249W        W27780   1.906  23.617   0.791
66250W        W27781   0.845  20.533  13.803
66251W        W27782  40.419   2.898  14.805
66252W        W27783   3.427   5.271   2.773
66253W        W27784  15.194   3.284  11.969
66254W        W27785  13.248  23.098  12.413
66255W        W27786  12.737  12.634   3.706
66256W        W27787  31.561  41.015  12.576
66257W        W27788   0.803   6.347  11.435
66258W        W27789   3.380  34.993   1.358
66259W        W27790  13.676  17.074   0.911
66260W        W27791  39.968  12.142  12.097
66261W        W27792  20.548   4.226   1.280
66262W        W27793   9.774  10.725  10.500
66263W        W27794   7.326  10.703   0.842
66264W        W27795  20.615  21.585  14.434
66265W        W27796  15.778  34.577   0.349
66266W        W27797  17.288  37.047  14.975
66267W        W27798   6.257  10.797  14.992
66268W        W27799   4.927  24.719  13.406
66269W        W27800  43.351  18.186   0.266
66270W        W27801  21.061  17.110  10.478
66271W        W27802  31.035  37.936  12.350
66272W        W27803  23.509  30.494   2.219
66273W        W27804  12.298  14.284   1.334
66274W        W27805   7.205   7.323   4.173
66275W        W27806  22.718  26.541  13.999
66276W        W27807  39.047  21.218   4.225
66277W        W27808  14.254  13.787  12.483
66278W        W27809  14.314  15.668   5.150
66279W        W27810  32.563  29.553  13.062
66280W        W27811  19.768  42.862   4.177
66281W        W27812  28.015  35.531  13.468
66282W        W27813  18.789  42.908   5.163
66283W        W27814   9.303  44.761   1.423
66284W        W27815  42.982   2.435   4.729
66285W        W27816  19.180  38.009  10.962
66286W        W27817  23.643  14.138   3.152
66287W        W27818  18.273  18.052  13.359
66288W        W27819  31.977  28.621  14.882
66289W        W27820   6.795   0.788   2.194
66290W        W27821  27.002  23.628   3.833
66291W        W27822  42.032  38.379   1.230
66292W        W27823  24.009   2.854   2.415
66293W        W27824  15.282  36.948  12.515
66294W        W27825  11.685  15.103  11.890
66295W        W27826   3.782  14.310   2.217
66296W        W27827  43.388  39.879  11.580
66297W        W27828   9.168  44.895  14.302
66298W        W27829  39.508   8.712   0.845
66299W        W27830   6.735  44.761  11.926
66300W        W27831  35.572  17.785  12.988
66301W        W27832   9.350  41.978  11.389
66302W        W27833  39.914  12.809  13.358
66303W        W27834   3.283  13.640  14.314
66304W        W27835  42.011  24.630   2.341
66305W        W27836  34.394  33.439  14.769
66306W        W27837  10.369  17.759  13.322
66307W        W27838   4.374  42.029   1.249
66308W        W27839  11.342  14.693   1.436
66309W        W27840  41.822  17.643  10.498
66310W        W27841   6.324  12.317  13.420
66311W        W27842  20.664  43.379  14.943
66312W        W27843  26.122  19.105  12.077
66313W        W27844  32.954  17.721  14.317
66314W        W27845  37.440  15.771   4.790
66315W        W27846   0.803  38.993  11.081
66316W        W27847  17.125   4.378  13.337
66317W        W27848  43.365  31.967  13.014
66318W        W27849  19.277  28.492   2.842
66319W        W27850  28.171  11.690  12.084
66320W        W27851  17.779  26.030  11.981
66321W        W27852   9.839   6.796   4.271
66322W        W27853   7.815  15.691  14.778
66323W        W27854  39.905  36.894   0.813
66324W        W27855  25.616  38.063  13.033
66325W        W27856  19.589  35.975  12.525
66326W        W27857  17.594  16.279  13.477
66327W        W27858  29.984  16.769   0.766
66328W        W27859  37.388  44.755  11.082
66329W        W27860  12.311   0.767  12.416
66330W        W27861   5.863  26.484  10.575
66331W        W27862  32.458  28.048  14.369
66332W        W27863  41.017  19.559  14.768
66333W        W27864   1.934  34.471  11.984
66334W        W27865  42.347  12.653  13.863
66335W        W27866   6.892  21.086  12.890
66336W        W27867  21.684   0.466  12.466
66337W        W27868   0.258  33.117  12.454
66338W        W27869  23.646  42.816   5.168
66339W        W27870  24.092  29.163   1.905
66340W        W27871   9.645  32.520   9.475
66341W        W27872  11.133   8.713   3.285
66342W        W27873  41.327  40.390  14.292
66343W        W27874  44.897  21.616  10.520
66344W        W27875   2.784  15.094   3.359
66345W        W27876  25.622   8.396  14.299
66346W        W27877  24.573  25.499  11.536
66347W        W27878  10.380  23.498  12.954
66348W        W27879  29.567  15.258  11.987
66349W        W27880  40.523  37.491  10.156
66350W        W27881  30.588  12.709  14.990
66351W        W27882  40.411  12.680   2.787
66352W        W27883  11.849  37.524  10.556
66353W        W27884  36.843  23.684  13.042
66354W        W27885  26.673   2.229   3.157
66355W        W27886  43.940  24.044  14.416
66356W        W27887  35.961  23.512   1.695
66357W        W27888  38.984  14.313  13.062
66358W        W27889  33.890  22.021   0.754
66359W        W27890  35.905  14.644   4.242
66360W        W27891  25.486  17.246  13.953
66361W        W27892   4.330  34.574   3.236
66362W        W27893  43.021   5.850  12.029
66363W        W27894  13.169  29.973   1.364
66364W        W27895   9.657  15.273  10.559
66365W        W27896  32.469  10.868  14.301
66366W        W27897   4.938  32.462   0.305
66367W        W27898  25.115  22.684  10.496
66368W        W27899  11.355  38.874  13.411
66369W        W27900  13.803  19.686  10.550
66370W        W27901  19.772   9.275   3.760
66371W        W27902  23.068  22.065   3.170
66372W        W27903  31.627  22.667  12.096
66373W        W27904  15.582  11.238  13.973
66374W        W27905  23.690   3.944  12.027
66375W        W27906   6.718  43.309  12.388
66376W        W27907  24.024  11.850  14.800
66377W        W27908   3.842  38.932   2.852
66378W        W27909  41.004  27.471   0.731
66379W        W27910  29.657   5.816   3.218
66380W        W27911  15.247  18.598  11.972
66381W        W27912   9.677  44.808   0.931
66382W        W27913  24.596  44.358   4.764
66383W        W27914  30.552  40.546  11.376
66384W        W27915  31.558  12.655  10.967
66385W        W27916  35.074  26.609  12.450
66386W        W27917   2.830  20.628   4.771
66387W        W27918   3.395  21.143   2.676
66388W        W27919  15.271  44.261   2.362
66389W        W27920  34.928  18.205   4.350
66390W        W27921  39.377  26.564  13.833
66391W        W27922  39.330   9.204   0.435
66392W        W27923  32.575  38.552   1.260
66393W        W27924  19.770  28.154  14.508
66394W        W27925  44.372  33.545  14.439
66395W        W27926  39.921  43.982   4.254
66396W        W27927   4.327  27.000  14.455
66397W        W27928  40.339  15.148   0.962
66398W        W27929  10.156   4.219  10.468
66399W        W27930   9.246  26.520   5.283
66400W        W27931  25.545  38.932   2.865
66401W        W27932  11.215   5.360   3.266
66402W        W27933  20.536  16.582   4.227
66403W        W27934  23.102   4.329  12.428
66404W        W27935  33.909   9.335   2.715
66405W        W27936   7.408  41.482   0.267
66406W        W27937  44.764  21.755   1.713
66407W        W27938  32.019  29.091   0.302
66408W        W27939  25.973  22.189  11.856
66409W        W27940  28.990  30.423   1.751
66410W        W27941   1.455   9.756   1.391
66411W        W27942  29.025   7.814   4.666
66412W        W27943  23.206  22.999  12.556
66413W        W27944  31.536  31.533  13.792
66414W        W27945  11.126  40.399  14.813
66415W        W27946  22.509   7.813   4.758
66416W        W27947  26.468  44.258  12.998
66417W        W27948  11.779  11.275  13.061
66418W        W27949  21.024  27.954   1.893
66419W        W27950  37.912  11.250   2.288
66420W        W27951  24.086  26.656  14.775
66421W        W27952  27.608  42.941   3.848
66422W        W27953  39.065  40.819   1.780
66423W        W27954  17.097  17.297  12.058
66424W        W27955   5.813   1.957  11.881
66425W        W27956  21.559  36.078   1.727
66426W        W27957  37.480  28.029  13.984
66427W        W27958   2.408  43.466   0.328
66428W        W27959   5.295  22.190  10.014
66429W        W27960  17.800  10.865   1.275
66430W        W27961  38.387  32.061   1.220
66431W        W27962  43.509  36.466  11.050
66432W        W27963   3.934   8.776   5.111
66433W        W27964  36.899   6.702  13.970
66434W        W27965  39.412   1.387  11.949
66435W        W27966  15.766  31.900  13.398
66436W        W27967  38.970  26.991  10.959
66437W        W27968  26.510  14.813  12.921
66438W        W27969   0.831  29.969  12.953
66439W        W27970   2.336   9.756  14.289
66440W        W27971  32.625  26.124  11.438
66441W        W27972  37.542   5.217  11.582
66442W        W27973  40.322   5.736  11.040
66443W        W27974  16.657  10.844  13.458
66444W        W27975   4.286  32.018  12.856
66445W        W27976  21.255  27.522  14.280
66446W        W27977  16.176  44.797  11.868
66447W        W27978  38.528  28.144  11.592
66448W        W27979  41.361  44.967  12.025
66449W        W27980  20.748  44.291   3.246
66450W        W27981  27.635  44.340  14.504
66451W        W27982  30.570  33.588  14.312
66452W        W27983   0.789  21.711  12.873
66453W        W27984  41.487  12.284   9.613
66454W        W27985  34.069  38.435   3.353
66455W        W27986  13.340  11.749   2.665
66456W        W27987  20.648   2.862  14.892
66457W        W27988  40.044  33.404   1.216
66458W        W27989  32.069  29.129   1.250
66459W        W27990   2.242   8.367  11.859
66460W        W27991  36.362   6.292  12.463
66461W        W27992  38.874  10.652   1.292
66462W        W27993   4.408  30.625   0.478
66463W        W27994  34.410   8.787   1.226
66464W        W27995  42.449  18.765   3.370
66465W        W27996  30.521  25.585  13.507
66466W        W27997  16.124  26.207   1.442
66467W        W27998  13.121   9.172   0.347
66468W        W27999   8.165  10.753   1.404
66469W        W28000  27.035   5.226  14.289
66470W        W28001  15.189  35.901   0.834
66471W        W28002  27.450  32.999  12.903
66472W        W28003  11.867  33.034   4.257
66473W        W28004  44.938   0.341  14.856
66474W        W28005   7.672  22.006  12.921
66475W        W28006  44.763   2.373  14.852
66476W        W28007  27.598  30.500   2.349
66477W        W28008  15.793  32.089   2.264
66478W        W28009  27.112  28.576  12.538
66479W        W28010  21.695  16.705   4.261
66480W        W28011  33.882   9.676  14.018
66481W        W28012  38.911  40.939   1.314
66482W        W28013  15.757   0.987  11.886
66483W        W28014  16.644   9.304  12.353
66484W        W28015   2.797  27.687   3.210
66485W        W28016  26.136  20.133   3.741
66486W        W28017  30.497   3.395  12.457
66487W        W28018  14.668   6.258   4.681
66488W        W28019  43.354   2.821   2.864
66489W        W28020  36.992  34.007   2.692
66490W        W28021  29.172  33.455  10.536
66491W        W28022  20.720  21.124   2.214
66492W        W28023   9.734  28.000   4.694
66493W        W28024   7.707  16.601  14.983
66494W        W28025  36.853  17.746  12.360
66495W        W28026   2.843  11.267  11.054
66496W        W28027  44.487  27.120  13.977
66497W        W28028  23.179  20.270  12.030
66498W        W28029  37.429   9.297   0.779
66499W        W28030  18.108  14.299  11.086
66500W        W28031  38.393  34.412  14.908
66501W        W28032   6.390  18.263   1.292
66502W        W28033  33.967  27.528   2.684
66503W        W28034  28.141  35.562  13.933
66504W        W28035  32.605  37.510  14.878
66505W        W28036   1.273   0.747  12.454
66506W        W28037  13.679  11.195  10.472
66507W        W28038  27.572  29.045   1.247
66508W        W28039  24.077  23.616  14.453
66509W        W28040  25.078  24.188  13.343
66510W        W28041  29.954   2.830  11.993
66511W        W28042  42.955  20.052  11.899
66512W        W28043  11.841  37.027  13.415
66513W        W28044  40.316   1.406  14.791
66514W        W28045  33.112  10.177   0.841
66515W        W28046   9.368  44.956   3.380
66516W        W28047  33.943   3.391  11.000
66517W        W28048  30.608  42.944  12.520
66518W        W28049  25.554  20.094  11.487
66519W        W28050   8.212  18.627  13.939
66520W        W28051   5.747  36.054  13.886
66521W        W28052  31.936  37.903   0.838
66522W        W28053  21.219   5.832   1.288
66523W        W28054  19.096  29.954   2.674
66524W        W28055  16.190   3.265   2.752
66525W        W28056  13.248  27.681   0.397
66526W        W28057  42.903   2.409   0.482
66527W        W28058  25.115  21.154  10.982
66528W        W28059  39.327  39.461   3.277
66529W        W28060  14.119  23.493   1.390
66530W        W28061  11.131  17.296   1.416
66531W        W28062  38.062  20.677  14.390
66532W        W28063  20.063   0.869   1.313
66533W        W28064   9.702   6.199  11.588
66534W        W28065  33.563   2.907  11.090
66535W        W28066  44.958  33.497   2.727
66536W        W28067  22.024  28.037   1.300
66537W        W28068  13.305  33.420   1.882
66538W        W28069   2.286  36.053   0.856
66539W        W28070  32.463   2.365   4.605
66540W        W28071  24.599  19.104  14.314
66541W        W28072  22.615  29.054  13.943
66542W        W28073  35.535  43.805   1.327
66543W        W28074   6.846  13.110   2.854
66544W        W28075   1.476   4.818   2.306
66545W        W28076  18.654  24.688   3.715
66546W        W28077  24.629  31.622  11.966
66547W        W28078   1.381  19.630   4.244
66548W        W28079  12.187  23.677   2.860
66549W        W28080  35.459  33.396   1.227
66550W        W28081  24.605  16.130   2.179
66551W        W28082  14.640   4.249   2.407
66552W        W28083  14.303  44.780   0.946
66553W        W28084   0.359  19.067   1.767
66554W        W28085  24.639   5.215   0.931
66555W        W28086  43.865  35.397  10.892
66556W        W28087   4.877  15.707   5.190
66557W        W28088  28.563  39.022  14.335
66558W        W28089  36.401  43.858   3.701
66559W        W28090  37.842   5.915   1.848
66560W        W28091  25.508  44.371   2.687
66561W        W28092  29.134  30.911   4.343
66562W        W28093  33.964  22.627   1.736
66563W        W28094  35.049  18.121   1.862
66564W        W28095  32.628  20.612   4.210
66565W        W28096   5.240   6.710  14.379
66566W        W28097   3.226  44.304   3.825
66567W        W28098  33.547  39.514   1.355
66568W        W28099  18.657  39.873  11.117
66569W        W28100   2.446  42.829  10.621
66570W        W28101  15.654   0.260  14.764
66571W        W28102   2.321  23.216   1.328
66572W        W28103  17.747  33.931  13.336
66573W        W28104  14.702   8.353  10.536
66574W        W28105  44.970   9.796  14.774
66575W        W28106  44.299  30.534  12.040
66576W        W28107  26.524   0.388  10.509
66577W        W28108  14.165  37.573  14.881
66578W        W28109  20.712  40.961  11.940
66579W        W28110   1.937   6.858   2.855
66580W        W28111  19.126  41.988  10.142
66581W        W28112  34.945  32.490   0.454
66582W        W28113  28.076  37.059   3.722
66583W        W28114  17.659  28.641  13.972
66584W        W28115  15.751  34.377   3.848
66585W        W28116  23.588  18.270   2.207
66586W        W28117  35.024  35.543  11.950
66587W        W28118  11.865  16.169   1.833
66588W        W28119  19.653  39.335   2.713
66589W        W28120  10.671  22.074   3.748
66590W        W28121  17.739  13.799  10.952
66591W        W28122   6.224  24.229  12.843
66592W        W28123  44.474   8.829  12.396
66593W        W28124  31.527  17.286   2.382
66594W        W28125  36.359  36.455  14.814
66595W        W28126  18.591   4.823   5.283
66596W        W28127  43.338  33.075   2.661
66597W        W28128  15.158  30.460   5.274
66598W        W28129  40.862  25.046   4.119
66599W        W28130  44.344  43.020  13.000
66600W        W28131  14.824  30.930  13.973
66601W        W28132  11.819  40.827   1.839
66602W        W28133   3.776  36.464   3.212
66603W        W28134  13.709  11.675  12.486
66604W        W28135  24.697  18.264   2.874
66605W        W28136   5.810  14.797   4.133
66606W        W28137   8.356  11.248  13.432
66607W        W28138   9.800  19.098   2.203
66608W        W28139  22.587  25.053   1.769
66609W        W28140  16.606   8.193  13.350
66610W        W28141   9.763  11.701  10.915
66611W        W28142  42.827  32.109   9.999
66612W        W28143   0.450  29.598   1.749
66613W        W28144  29.473  25.194  12.876
66614W        W28145   0.455  44.380  10.505
66615W        W28146  24.027  32.553   1.919
66616W        W28147  18.239  38.341  10.474
66617W        W28148   5.384   9.257  13.010
66618W        W28149  44.982  27.463  10.503
66619W        W28150  11.751  20.179   4.289
66620W        W28151  10.182  40.017  12.503
66621W        W28152  12.123  40.355   2.284
66622W        W28153  12.837  34.048  10.155
66623W        W28154   6.766  15.616  14.947
66624W        W28155  43.947  33.435  14.503
66625W        W28156  44.850  19.244  12.513
66626W        W28157  32.397  23.011   3.630
66627W        W28158  23.167  28.581   2.363
66628W        W28159   9.213  11.136  13.446
66629W        W28160  31.641  16.619  11.030
66630W        W28161  41.024  20.563  10.929
66631W        W28162  26.654  23.206  14.379
66632W        W28163  21.558   6.679   3.355
66633W        W28164  11.689   6.257   4.208
66634W        W28165  25.677  13.268  14.764
66635W        W28166   7.733   4.428  11.542
66636W        W28167  44.915  42.885  13.805
66637W        W28168  34.988   6.717  13.936
66638W        W28169   8.217  16.586  13.493
66639W        W28170   2.723  30.104  11.371
66640W        W28171   1.872  20.768   0.307
66641W        W28172  36.992  16.078   2.813
66642W        W28173   4.405  32.521  14.858
66643W        W28174  38.564  24.147   1.757
66644W        W28175   5.861  18.202  12.888
66645W        W28176  24.093  24.188   3.316
66646W        W28177  21.547  21.581   4.704
66647W        W28178  19.732  31.645   2.781
66648W        W28179  22.229  24.974  11.580
66649W        W28180  42.935  44.454   5.213
66650W        W28181   9.270  24.138   3.211
66651W        W28182  19.643  19.068   2.274
66652W        W28183  11.214  36.923  10.541
66653W        W28184   8.829  37.969   4.317
66654W        W28185   0.875  39.833   3.192
66655W        W28186   7.202   7.328   1.268
66656W        W28187  31.102  12.701  12.470
66657W        W28188  24.573   0.853   1.272
66658W        W28189  43.905  13.838   0.451
66659W        W28190  18.544  19.563   9.949
66660W        W28191   5.916   3.935  11.065
66661W        W28192  21.522  22.721  11.513
66662W        W28193   6.863  34.082   4.599
66663W        W28194  12.342  20.222  11.582
66664W        W28195   2.295   3.833   1.904
66665W        W28196  19.688  16.690  14.276
66666W        W28197  43.778  10.873   0.477
66667W        W28198  25.060  18.576  13.852
66668W        W28199  23.683  20.110   2.728
66669W        W28200   3.304  14.794  12.840
66670W        W28201  37.415  33.618  10.411
66671W        W28202   2.315  42.992  11.110
66672W        W28203   4.868  12.675  13.406
66673W        W28204  11.685  14.141   3.743
66674W        W28205  37.052  18.759   1.871
66675W        W28206   8.250   3.889  10.549
66676W        W28207  33.956  19.070  12.854
66677W        W28208  11.276  16.207  13.404
66678W        W28209  16.093  39.837  13.816
66679W        W28210   4.866  31.588  14.293
66680W        W28211   8.232   6.386  10.641
66681W        W28212   7.245  18.657  12.490
66682W        W28213  29.937  29.553  14.981
66683W        W28214  18.216  39.019   0.412
66684W        W28215  17.634  39.491   1.734
66685W        W28216   6.272  10.828  11.459
66686W        W28217   6.395  32.627   0.454
66687W        W28218  32.476   2.353  10.548
66688W        W28219  13.773  26.966  14.368
66689W        W28220  37.908  10.676   3.320
66690W        W28221  40.428  24.721  12.417
66691W        W28222  28.942  23.542  13.881
66692W        W28223  36.000  40.503  10.473
66693W        W28224  38.346  17.609  10.984
66694W        W28225  13.638   0.770  13.357
66695W        W28226  30.091  11.861   5.169
66696W        W28227   7.825  43.804  11.539
66697W        W28228   7.378   9.270   0.345
66698W        W28229   1.842   8.331   3.844
66699W        W28230   1.467  14.173  14.284
66700W        W28231  20.188  18.644  11.536
66701W        W28232  26.171  44.270  11.053
66702W        W28233  32.423  25.542  10.904
66703W        W28234   6.287  19.643  12.854
66704W        W28235  14.759   2.349  10.547
66705W        W28236  30.046  33.563  12.480
66706W        W28237  34.971  38.026   4.817
66707W        W28238  27.673  10.660  11.963
66708W        W28239  10.149   2.917  14.937
66709W        W28240  43.442  17.638  14.971
66710W        W28241   5.735  28.140  14.511
66711W        W28242  24.103  15.127   2.302
66712W        W28243  33.506  31.979  11.870
66713W        W28244  13.625  14.335  14.344
66714W        W28245   8.869  22.212  11.880
66715W        W28246  15.088  24.043   2.721
66716W        W28247   7.910  23.594   4.200
66717W        W28248   9.218  33.410   1.850
66718W        W28249  18.702  20.254  14.771
66719W        W28250   6.724   8.812  13.486
66720W        W28251  24.579  37.018  10.080
66721W        W28252  13.708   6.354  11.030
66722W        W28253  30.651  13.117  14.426
66723W        W28254   9.150  33.913   2.861
66724W        W28255  23.136   3.322   2.389
66725W        W28256  30.498  20.649  12.405
66726W        W28257  41.391  14.266  11.066
66727W        W28258  17.109  23.591  12.991
66728W        W28259  23.007   0.880   2.388
66729W        W28260  29.583   7.899  13.866
66730W        W28261  30.946  38.947   3.871
66731W        W28262  30.653  13.726   3.668
66732W        W28263   1.875  12.641   1.785
66733W        W28264  21.045   6.691   1.329
66734W        W28265  14.199   5.396   1.317
66735W        W28266   8.893  36.036   4.772
66736W        W28267   9.826   4.239   5.704
66737W        W28268  27.957  31.998  14.888
66738W        W28269  36.892   4.422   3.685
66739W        W28270  39.018  14.339   1.317
66740W        W28271  43.404   7.761   3.363
66741W        W28272  16.144  14.717  11.122
66742W        W28273  35.038   4.401  11.993
66743W        W28274  35.490   9.750   9.516
66744W        W28275  19.182   9.170   1.213
66745W        W28276  17.150  44.864  13.827
66746W        W28277  41.536  15.223   4.213
66747W        W28278   3.431  13.319  12.464
66748W        W28279  36.455   6.732   0.809
66749W        W28280  30.452  42.025   2.809
66750W        W28281  34.924  18.169   2.837
66751W        W28282  27.138   4.293   3.726
66752W        W28283   0.487   0.985  11.042
66753W        W28284  41.874  10.145  10.003
66754W        W28285  11.685  23.623  11.097
66755W        W28286  37.380   2.297   2.292
66756W        W28287  10.700  37.034   2.317
66757W        W28288  22.215  39.377  12.479
66758W        W28289   4.234   9.211  11.028
66759W        W28290  14.131  34.582  10.144
66760W        W28291  17.108   0.359   9.971
66761W        W28292  19.157  36.963   4.284
66762W        W28293  13.748  13.737  11.583
66763W        W28294  20.644   0.320  11.485
66764W        W28295  15.698   2.360   3.363
66765W        W28296  37.883  33.384  14.403
66766W        W28297  27.946   9.343   3.264
66767W        W28298  33.614  25.179   3.216
66768W        W28299  17.114  38.914   5.116
66769W        W28300  11.714  39.495   4.318
66770W        W28301  38.518  29.494   1.797
66771W        W28302   8.164  12.753   4.679
66772W        W28303   1.939  28.588   3.336
66773W        W28304  28.557  39.922   2.185
66774W        W28305  39.466   6.724   4.354
66775W        W28306   9.733  31.984   1.852
66776W        W28307  21.564  13.249   3.795
66777W        W28308  35.091  14.227   0.327
66778W        W28309  43.376  12.115   2.322
66779W        W28310  33.110  37.392  12.012
66780W        W28311  34.926   5.741   4.616
66781W        W28312   2.915  16.243   1.934
66782W        W28313  39.928  18.552  11.564
66783W        W28314  10.682  13.766  11.049
66784W        W28315  42.003  11.820  11.084
66785W        W28316  16.774   9.368   2.397
66786W        W28317  26.614  31.549  14.328
66787W        W28318   3.320  21.039  10.039
66788W        W28319  27.988  13.233  14.968
66789W        W28320  17.237  25.663  11.046
66790W        W28321  14.235  22.056   3.252
66791W        W28322  11.152  16.102  10.575
66792W        W28323  44.839   5.772  14.450
66793W        W28324   1.760  10.773  11.914
66794W        W28325  35.000  25.696  11.053
66795W        W28326  42.808  31.509  12.001
66796W        W28327  12.626  44.009   2.417
66797W        W28328  42.941  29.479  12.089
66798W        W28329  23.537   5.816  10.432
66799W        W28330  25.064   7.245   1.823
66800W        W28331  30.021  29.085  14.845
66801W        W28332  15.592  14.819  10.619
66802W        W28333  32.956  17.584  13.342
66803W        W28334  21.540  30.907   0.274
66804W        W28335  36.052  26.168   4.130
66805W        W28336  16.570  26.080  14.382
66806W        W28337  17.236   7.682   3.771
66807W        W28338   7.753  28.013   3.838
66808W        W28339  17.157  22.997   5.574
66809W        W28340  13.338   0.341  13.336
66810W        W28341  22.218  17.286   3.762
66811W        W28342  38.843  44.286  10.009
66812W        W28343  17.659  14.696  11.888
66813W        W28344  28.516  25.544   4.654
66814W        W28345  10.341  42.830  11.507
66815W        W28346  26.687   2.371  12.032
66816W        W28347  11.328  17.600  13.003
66817W        W28348  44.913   9.174   4.124
66818W        W28349  39.481  38.357   3.320
66819W        W28350  14.709  16.109  10.453
66820W        W28351  28.558  39.450  12.979
66821W        W28352  15.163  22.678  13.310
66822W        W28353  25.551  22.195   2.410
66823W        W28354  16.573  36.981   1.222
66824W        W28355  17.179   3.827   3.789
66825W        W28356  37.872  25.587  12.013
66826W        W28357  11.331  29.603  14.784
66827W        W28358  26.163  20.152   4.746
66828W        W28359  44.955   4.281  14.845
66829W        W28360  30.551  30.978  11.913
66830W        W28361  22.089  29.625   2.687
66831W        W28362  16.660  42.363   2.312
66832W        W28363   2.321  18.097   1.303
66833W        W28364  34.498  23.171  12.883
66834W        W28365  29.024  24.133   4.347
66835W        W28366  23.649  30.564  11.985
66836W        W28367  24.171  35.087   9.926
66837W        W28368  31.944  27.159   0.420
66838W        W28369  14.692  20.762   4.168
66839W        W28370  19.683  12.119   0.428
66840W        W28371  37.060   6.754   1.834
66841W        W28372  29.458  13.158  12.481
66842W        W28373  27.062  10.138  13.317
66843W        W28374  34.608  25.052   4.330
66844W        W28375  37.356  17.099  13.006
66845W        W28376  43.860   2.755   0.376
66846W        W28377   3.448  13.122   1.730
66847W        W28378  23.100  12.696   0.386
66848W        W28379  37.550  25.024  13.363
66849W        W28380  26.486  27.167   3.153
66850W        W28381  21.095  29.532  11.070
66851W        W28382  42.946  19.721  11.089
66852W        W28383  40.395  42.450   4.319
66853W        W28384  36.587  31.914  10.945
66854W        W28385   6.700  14.242  11.038
66855W        W28386  42.829  26.633   0.478
66856W        W28387  18.153  39.880   3.205
66857W        W28388   3.906   7.391  11.445
66858W        W28389  23.536  19.060   2.856
66859W        W28390  13.221  36.416  10.914
66860W        W28391  22.223  23.636   1.322
66861W        W28392  29.656  43.343   3.646
66862W        W28393   8.334  41.341   0.302
66863W        W28394   7.325  27.600  12.974
66864W        W28395  39.885  11.315  13.995
66865W        W28396  13.762  12.265   3.384
66866W        W28397  44.894  18.677   3.648
66867W        W28398  34.436   9.796  12.015
66868W        W28399  14.813   3.951  14.486
66869W        W28400   1.472   6.231   0.244
66870W        W28401  15.695  44.964   0.931
66871W        W28402  19.591  33.465   4.651
66872W        W28403  11.157  16.717   1.812
66873W        W28404  32.605  44.347   3.182
66874W        W28405  10.645  39.920  14.442
66875W        W28406  14.610  16.653  12.064
66876W        W28407  38.983  24.127   2.742
66877W        W28408  17.731  40.876  12.015
66878W        W28409  17.782   2.246   1.450
66879W        W28410  18.090   0.325   4.663
66880W        W28411   4.398  42.421  14.826
66881W        W28412  32.056  14.626   2.851
66882W        W28413   5.893  44.925   0.275
66883W        W28414  28.062  30.434   4.300
66884W        W28415   3.765  37.087  14.434
66885W        W28416   1.239  34.943   2.191
66886W        W28417  25.123  21.713   1.349
66887W        W28418  28.548   4.278   1.755
66888W        W28419  37.947  12.351   2.850
66889W        W28420   6.305  11.721   4.613
66890W        W28421  10.801   6.761  13.323
66891W        W28422   5.831  21.027  13.833
66892W        W28423  21.063  20.124   5.213
66893W        W28424   0.896  38.336  11.857
66894W        W28425  34.903  12.329  13.483
66895W        W28426  23.527  36.892   1.812
66896W        W28427   0.348  32.028   2.770
66897W        W28428  18.769  29.471  13.401
66898W        W28429  15.303  28.539  10.407
66899W        W28430   8.786  42.958   5.099
66900W        W28431   9.668  43.271   1.271
66901W        W28432  22.621   5.780   3.745
66902W        W28433  25.679   1.264   0.427
66903W        W28434  21.544   5.736   3.803
66904W        W28435  14.315  36.369  12.088
66905W        W28436   4.420   9.739  13.472
66906W        W28437  27.087   8.705   9.493
66907W        W28438  33.901  16.577   1.875
66908W        W28439  42.893  29.107   2.331
66909W        W28440  30.498  34.929   3.149
66910W        W28441  19.208   3.397   2.242
66911W        W28442  22.587  22.658   4.769
66912W        W28443  25.962  29.031   3.710
66913W        W28444  39.497  39.554   3.748
66914W        W28445  39.353  27.503  14.949
66915W        W28446   7.348   1.380  11.596
66916W        W28447  25.673  32.473  12.069
66917W        W28448   1.850   5.739   1.792
66918W        W28449  35.470  39.523   1.742
66919W        W28450   0.950  22.024   2.713
66920W        W28451  37.350  37.498   0.760
66921W        W28452  16.753  29.973   1.751
66922W        W28453  33.885  40.487  11.570
66923W        W28454  12.812  17.238   1.753
66924W        W28455  11.241   1.275   0.781
66925W        W28456   6.861  27.615  11.544
66926W        W28457  16.590  23.034   1.902
66927W        W28458   7.692  39.429  14.795
66928W        W28459  39.381   4.360   1.902
66929W        W28460  36.066  44.264  13.440
66930W        W28461  37.514  43.848   0.334
66931W        W28462  13.686  40.943   3.278
66932W        W28463  34.417   7.209  12.575
66933W        W28464  19.714   8.703   2.830
66934W        W28465  42.883  11.190   3.166
66935W        W28466  31.067   9.803   2.194
66936W        W28467  10.146  28.012  14.404
66937W        W28468  42.827  38.992   4.286
66938W        W28469   4.242  20.246   1.757
66939W        W28470  23.614  29.468   1.218
66940W        W28471  24.114  26.638   4.680
66941W        W28472   4.425   2.430  13.943
66942W        W28473   5.431  30.138   2.673
66943W        W28474  24.062   4.382   2.315
66944W        W28475   5.380  30.065  13.323
66945W        W28476  18.614  18.683  12.510
66946W        W28477  32.114   7.260   0.409
66947W        W28478  25.964  35.563  10.505
66948W        W28479  28.602  25.137   3.209
66949W        W28480   0.329  44.948   3.387
66950W        W28481  42.824  43.953  13.927
66951W        W28482  36.391  34.485   4.762
66952W        W28483  13.350   8.732   4.696
66953W        W28484  26.975   0.769   1.425
66954W        W28485   6.248  16.213  12.853
66955W        W28486  12.257  12.626   3.253
66956W        W28487  32.885  27.681   3.173
66957W        W28488  20.580  11.259  14.931
66958W        W28489   7.356  15.600   3.651
66959W        W28490   8.776  41.452   4.343
66960W        W28491  29.959   6.247  13.307
66961W        W28492  35.592  11.792   4.821
66962W        W28493   7.330  17.247   3.339
66963W        W28494  17.701   1.448   0.915
66964W        W28495  19.555  26.081   2.800
66965W        W28496  19.544  21.047   3.814
66966W        W28497  40.850  37.932   4.279
66967W        W28498   5.344   2.898   3.363
66968W        W28499  10.682   5.316  10.025
66969W        W28500  11.755   5.313  14.403
66970W        W28501  18.561   7.741   3.318
66971W        W28502  34.501  14.620  12.930
66972W        W28503   7.687  40.520  11.411
66973W        W28504  43.465  37.534  13.955
66974W        W28505  40.978  38.363  12.552
66975W        W28506  26.530   5.797  14.501
66976W        W28507  19.095  21.030  13.810
66977W        W28508  18.245  11.777  12.999
66978W        W28509   8.866  39.050  13.954
66979W        W28510  29.468  32.554  12.400
66980W        W28511  24.153  19.623   2.396
66981W        W28512  30.134   7.217   2.874
66982W        W28513  10.722   9.155   4.681
66983W        W28514  19.543  33.533   0.329
66984W        W28515  36.548  24.223   2.696
66985W        W28516  34.478   9.174   4.323
66986W        W28517   5.765  37.569  14.326
66987W        W28518  31.631  27.068  14.929
66988W        W28519  30.605  17.210  10.990
66989W        W28520  14.234  42.884  10.917
66990W        W28521   2.821  10.698  11.116
66991W        W28522   0.367  14.670   0.454
66992W        W28523  12.169   8.403  11.598
66993W        W28524  13.632  35.461   1.417
66994W        W28525  38.416   7.394   1.274
66995W        W28526   6.682   9.756  10.431
66996W        W28527  29.621  19.095   4.601
66997W        W28528   2.917  39.413   0.885
66998W        W28529  21.680  32.990  14.318
66999W        W28530  19.166  13.737  13.937
67000W        W28531  41.809  21.733  11.448
67001W        W28532   5.319   2.241   4.697
67002W        W28533  13.288   7.833   3.229
67003W        W28534  43.366  39.971  10.432
67004W        W28535  27.196  43.982  13.909
67005W        W28536   1.856  11.266   0.918
67006W        W28537   5.307   9.731   1.885
67007W        W28538   2.771  10.256  11.409
67008W        W28539  21.032  29.624   4.113
67009W        W28540  11.372  24.657   2.185
67010W        W28541  23.000  38.382  13.998
67011W        W28542  12.856  40.875   2.887
67012W        W28543  16.094   0.951   3.235
67013W        W28544  13.826  33.879  11.551
67014W        W28545   2.291  16.148   0.367
67015W        W28546  41.993   6.920  13.503
67016W        W28547  29.093  13.286   1.421
67017W        W28548   8.163  16.301  10.420
67018W        W28549  34.392  12.778  13.307
67019W        W28550  29.998  40.390  11.509
67020W        W28551   3.722  27.577  11.002
67021W        W28552  43.307  32.570  10.539
67022W        W28553  40.012  15.258   3.346
67023W        W28554  32.590  21.535   1.708
67024W        W28555  18.246  38.421  12.861
67025W        W28556  17.067  27.000   0.268
67026W        W28557  32.495  41.309  14.428
67027W        W28558  38.372   0.950  12.572
67028W        W28559   9.839   6.732  13.483
67029W        W28560  40.026   0.427   0.857
67030W        W28561   1.358  11.366   2.717
67031W        W28562  17.691  16.696  14.905
67032W        W28563   2.265  18.094   0.933
67033W        W28564  31.092  41.041  13.061
67034W        W28565  40.018  29.634  14.359
67035W        W28566  33.587  19.286  14.421
67036W        W28567   4.390  22.103  13.053
67037W        W28568  42.000  20.688   0.898
67038W        W28569  27.043  44.924   0.345
67039W        W28570  30.464  10.670   1.390
67040W        W28571  27.618   7.325  11.096
67041W        W28572  28.141  18.127   1.694
67042W        W28573  32.455  10.758   4.213
67043W        W28574  19.265  31.058   0.822
67044W        W28575  40.471  26.459  11.434
67045W        W28576   9.280  21.522  13.815
67046W        W28577   4.880  35.412  13.396
67047W        W28578  29.605  39.334  14.869
67048W        W28579  18.289  42.902  10.998
67049W        W28580  27.021  20.195   4.657
67050W        W28581  41.514  25.212  12.038
67051W        W28582  18.052  36.896   0.729
67052W        W28583  42.808  27.538  10.606
67053W        W28584   8.357   9.190   1.350
67054W        W28585  17.673   4.859   3.149
67055W        W28586  36.013  13.638  14.844
67056W        W28587  42.522  17.580  11.864
67057W        W28588  19.767  27.585   4.255
67058W        W28589   1.367  40.052  11.391
67059W        W28590  15.111  30.449  12.407
67060W        W28591  35.046  32.086   1.833
67061W        W28592  26.507  43.353   1.440
67062W        W28593  13.128  13.136  12.938
67063W        W28594  36.584   8.304  13.971
67064W        W28595  19.267   2.419  14.310
67065W        W28596  31.525   7.219  11.982
67066W        W28597  41.349  24.644  10.615
67067W        W28598  17.301  32.411   4.149
67068W        W28599   2.761  39.329   4.693
67069W        W28600  41.014   5.253   3.208
67070W        W28601  28.672  26.158  11.015
67071W        W28602  28.679   8.358  12.393
67072W        W28603  24.072  16.689  12.048
67073W        W28604  41.515  20.186  14.498
67074W        W28605   1.899  39.440  11.608
67075W        W28606   7.803  10.725   4.722
67076W        W28607  27.534  30.964   5.158
67077W        W28608  13.290  39.926  12.076
67078W        W28609  14.328  20.644  11.933
67079W        W28610   0.916  11.692   3.301
67080W        W28611  10.191  35.873   4.301
67081W        W28612  29.118  28.141  14.480
67082W        W28613  23.008  43.421  13.934
67083W        W28614  40.041   9.670  11.991
67084W        W28615  11.365  29.167  14.788
67085W        W28616  35.076  44.487  12.891
67086W        W28617  19.228  16.319  12.498
67087W        W28618  38.466   5.912   1.303
67088W        W28619  35.072  20.708   1.449
67089W        W28620  21.739  22.731  12.993
67090W        W28621  25.610  39.937  12.351
67091W        W28622  35.007   6.831  10.407
67092W        W28623  29.953  38.542   1.900
67093W        W28624   2.953  42.988   1.233
67094W        W28625   3.366   5.888  10.907
67095W        W28626   4.246  29.531   2.396
67096W        W28627  42.506  16.694  14.473
67097W        W28628  27.121  10.797   3.243
67098W        W28629  44.985   9.201   3.292
67099W        W28630  23.095  22.013   4.236
67100W        W28631   9.804  36.859   2.675
67101W        W28632  35.102  10.156  10.992
67102W        W28633  44.857  35.433   3.846
67103W        W28634  17.801  17.065   0.764
67104W        W28635  35.018   6.317  11.386
67105W        W28636  29.117  12.152  14.930
67106W        W28637  41.500   0.416  12.085
67107W        W28638  44.403  21.163  11.877
67108W        W28639  38.490  33.906   1.863
67109W        W28640  22.655  18.580  14.891
67110W        W28641  29.526  28.669   2.893
67111W        W28642  32.501   6.345  13.854
67112W        W28643   8.247  23.037  14.967
67113W        W28644  38.884  40.885   2.879
67114W        W28645   2.349  32.042  14.022
67115W        W28646  16.112   3.301  11.094
67116W        W28647  43.347  38.481   0.758
67117W        W28648   5.259  22.644   1.817
67118W        W28649   1.287  16.712   2.764
67119W        W28650  27.114  27.032   3.368
67120W        W28651  40.836  34.997   2.201
67121W        W28652  35.055  22.687   3.247
67122W        W28653   6.729  13.220   4.314
67123W        W28654   1.286  16.627  12.097
67124W        W28655  40.367  30.460  10.037
67125W        W28656   3.355   5.857   0.245
67126W        W28657  31.114  20.172  14.298
67127W        W28658  26.165  24.605   1.341
67128W        W28659  19.095  27.061   1.369
67129W        W28660  35.381  28.461  14.806
67130W        W28661  38.504  18.081   2.289
67131W        W28662   5.245  37.957   1.326
67132W        W28663  32.472  38.021   1.290
67133W        W28664  27.032  26.966   0.388
67134W        W28665  25.215  17.140  14.766
67135W        W28666  10.671  23.213   4.772
67136W        W28667  23.124  11.624  10.578
67137W        W28668   5.315  13.312   3.787
67138W        W28669  21.089  17.229  12.865
67139W        W28670  14.667  28.660   4.738
67140W        W28671  15.630  43.888  13.492
67141W        W28672   3.227  24.575  11.469
67142W        W28673  16.227  22.182   3.372
67143W        W28674  28.504  25.528  13.389
67144W        W28675   8.217  17.728  14.323
67145W        W28676  27.047  38.522   3.289
67146W        W28677  25.612  44.380   1.263
67147W        W28678  43.434  33.973  13.816
67148W        W28679  44.768  35.489   2.866
67149W        W28680   2.318  43.770  11.450
67150W        W28681  25.166   8.351   4.834
67151W        W28682  14.753  35.554  13.423
67152W        W28683  33.447  13.694   0.813
67153W        W28684   0.970   6.223  14.772
67154W        W28685  26.165  22.693   2.396
67155W        W28686  15.099  38.041   2.806
67156W        W28687  11.140   1.373  11.428
67157W        W28688  35.546  14.297   2.717
67158W        W28689  31.534  41.362  11.601
67159W        W28690   1.368  33.941  10.580
67160W        W28691  13.757  39.922   3.178
67161W        W28692   8.852  44.904   1.357
67162W        W28693  25.143   2.928  14.347
67163W        W28694  36.940  33.010   2.803
67164W        W28695   3.859  36.098  12.008
67165W        W28696   4.387  10.816  11.448
67166W        W28697  36.067  39.837   5.229
67167W        W28698  34.977  16.127   2.773
67168W        W28699  14.705  42.352   3.326
67169W        W28700  39.400  12.331   4.160
67170W        W28701  34.098  21.728  12.831
67171W        W28702  17.630  19.584   2.680
67172W        W28703  43.287  44.421  12.342
67173W        W28704  23.178  31.618   4.737
67174W        W28705   2.333  10.812  10.952
67175W        W28706   3.797  12.755   3.319
67176W        W28707   9.824   6.762  12.416
67177W        W28708  15.779   3.741  13.510
67178W        W28709  40.827  32.407  13.945
67179W        W28710  18.196  44.853  10.562
67180W        W28711  11.194   8.274  14.817
67181W        W28712  10.703   0.919  12.341
67182W        W28713  32.909  20.737   3.331
67183W        W28714  10.676   0.791   3.355
67184W        W28715  11.366  15.607   3.631
67185W        W28716  43.421  22.010  10.542
67186W        W28717   6.191  41.880   2.885
67187W        W28718   9.379  27.513   2.403
67188W        W28719  43.768  16.686   3.255
67189W        W28720  21.738   5.320   2.821
67190W        W28721   4.211   7.874  14.786
67191W        W28722  35.864  31.915   2.694
67192W        W28723   5.715  40.883   4.248
67193W        W28724  35.062   4.279   3.386
67194W        W28725  10.670  32.038   3.647
67195W        W28726  43.803   3.802  12.489
67196W        W28727  16.687  33.964  10.640
67197W        W28728  20.163  16.268   0.293
67198W        W28729  40.886   1.371  12.975
67199W        W28730   7.714  37.068  14.009
67200W        W28731  29.072  38.421   1.889
67201W        W28732  43.912  21.607  12.419
67202W        W28733  13.213   9.778   0.921
67203W        W28734   1.379   0.416   0.854
67204W        W28735  39.951  14.794  14.930
67205W        W28736  41.424  27.504  12.449
67206W        W28737  13.351  13.167  14.426
67207W        W28738  20.591  32.023   4.818
67208W        W28739  15.715  26.641  10.618
67209W        W28740  25.642  19.628  12.021
67210W        W28741   6.793  23.173   1.783
67211W        W28742  38.909  25.090  12.458
67212W        W28743  35.423  36.406   2.889
67213W        W28744   8.165  28.119   3.822
67214W        W28745  40.407   5.206   0.377
67215W        W28746   8.214  20.544  12.398
67216W        W28747  30.020  33.012   0.784
67217W        W28748  21.020   0.808   1.700
67218W        W28749  17.785  13.161   3.668
67219W        W28750   0.351   3.353   1.345
67220W        W28751  12.767  37.917  10.414
67221W        W28752  13.146   5.888  11.483
67222W        W28753  33.922  32.974  13.399
67223W        W28754  19.129  40.923  13.523
67224W        W28755   5.285  38.487  12.070
67225W        W28756   9.256  12.268   1.759
67226W        W28757  19.554  14.191   0.441
67227W        W28758   8.366   8.783   1.314
67228W        W28759  29.514  22.727  12.913
67229W        W28760  25.684  41.915  13.830
67230W        W28761  28.045   3.721   3.259
67231W        W28762  37.864  39.413  10.903
67232W        W28763   1.432  12.694   2.282
67233W        W28764  31.016  43.403   2.190
67234W        W28765  12.222  25.682   1.332
67235W        W28766  40.350  35.995   4.673
67236W        W28767   7.831  44.779   2.874
67237W        W28768  42.784   9.830   2.346
67238W        W28769  36.978  12.742  11.559
67239W        W28770  31.982  15.091  12.964
67240W        W28771  10.770  25.514  13.876
67241W        W28772  33.088  35.535  11.514
67242W        W28773  11.726  36.506   2.341
67243W        W28774  22.062   1.917  11.010
67244W        W28775  42.417   0.308   3.687
67245W        W28776  26.654   3.938  10.929
67246W        W28777   6.372   1.837  13.962
67247W        W28778  37.049  40.834   2.810
67248W        W28779  44.786  39.968  10.608
67249W        W28780  33.124  32.585   3.340
67250W        W28781  35.542  15.598   3.154
67251W        W28782  25.058  36.979   2.786
67252W        W28783   0.921  30.532  14.793
67253W        W28784  19.625  23.564  10.615
67254W        W28785   8.196  15.737  14.787
67255W        W28786   5.393  26.966   5.310
67256W        W28787  17.748  31.636   1.935
67257W        W28788  40.341  38.006   0.794
67258W        W28789  15.621  27.505  11.858
67259W        W28790  42.780  18.602   1.225
67260W        W28791  40.038  41.495  11.476
67261W        W28792  21.664  13.827  10.487
67262W        W28793   0.465  44.006  11.556
67263W        W28794  30.968  28.017  11.539
67264W        W28795  24.660  41.026   2.286
67265W        W28796  13.117  38.900   1.926
67266W        W28797  17.263  13.136   0.414
67267W        W28798  13.739  15.312   2.668
67268W        W28799  43.919  16.751   1.705
67269W        W28800  29.994  28.551   1.317
67270W        W28801  18.239  37.020  12.433
67271W        W28802  23.170  22.638  12.883
67272W        W28803  30.536   9.759  14.899
67273W        W28804  24.154   6.880   2.891
67274W        W28805   3.252  42.874   2.854
67275W        W28806  16.691  13.636  12.935
67276W        W28807  34.042  29.654   2.878
67277W        W28808   0.345  22.660  13.381
67278W        W28809  14.648  15.665   2.687
67279W        W28810  36.447  26.202  11.496
67280W        W28811  41.906  28.591   2.325
67281W        W28812   5.899  11.635   4.746
67282W        W28813  18.179   8.729   0.826
67283W        W28814  35.065  29.476  13.989
67284W        W28815   9.192  16.293   4.685
67285W        W28816  27.047  29.670  13.838
67286W        W28817  25.591  19.723   0.270
67287W        W28818  35.989   4.380   4.246
67288W        W28819  20.769  24.027  13.990
67289W        W28820  28.094  33.594  11.489
67290W        W28821  17.788  30.430  13.878
67291W        W28822  37.927  24.698  12.897
67292W        W28823   3.734  20.621   2.834
67293W        W28824   0.357  34.959  10.638
67294W        W28825  12.216  40.433  14.297
67295W        W28826   9.819   2.250  14.473
67296W        W28827   7.863  16.649   4.348
67297W        W28828   8.676  13.748  13.405
67298W        W28829  27.473  23.240  10.434
67299W        W28830   4.224  34.552  11.562
67300W        W28831  21.261  26.556   4.696
67301W        W28832  14.795  31.029   2.876
67302W        W28833  23.530  37.894  13.024
67303W        W28834  11.694   2.412   0.941
67304W        W28835  12.116  20.526  12.022
67305W        W28836  17.701  17.618   0.261
67306W        W28837   6.338  43.916   4.180
67307W        W28838  40.508  23.185  12.524
67308W        W28839  28.517  31.646   0.901
67309W        W28840  31.943  41.967   0.267
67310W        W28841   9.664  33.020   4.213
67311W        W28842   1.897   7.672  14.811
67312W        W28843   0.751  17.786  13.927
67313W        W28844  32.015  42.360  13.000
67314W        W28845  21.583  10.791   2.356
67315W        W28846  13.271  27.100  11.551
67316W        W28847  11.719  22.563   2.734
67317W        W28848  33.577  34.373  14.320
67318W        W28849  13.761  31.459   0.305
67319W        W28850  18.583  35.600   2.319
67320W        W28851   1.882  10.147  10.963
67321W        W28852  11.803  39.432   1.271
67322W        W28853  28.134  35.939   0.865
67323W        W28854   0.453  28.594   0.943
67324W        W28855  29.943   5.711   0.931
67325W        W28856  19.082  31.943   4.164
67326W        W28857  34.476  18.204  13.512
67327W        W28858  30.527  21.164   1.808
67328W        W28859  18.175   5.785  10.618
67329W        W28860  35.956  38.372   3.208
67330W        W28861   8.724  18.157   2.846
67331W        W28862  23.526  24.064   3.281
67332W        W28863   8.698  38.067   0.269
67333W        W28864  36.565  26.620  10.950
67334W        W28865  15.258  13.674  10.538
67335W        W28866  15.653  14.625  12.081
67336W        W28867  15.231  23.665   3.777
67337W        W28868  22.087  34.030  12.392
67338W        W28869  25.520  34.416   3.848
67339W        W28870  12.765  17.194  12.370
67340W        W28871  23.492  44.496  12.452
67341W        W28872   0.480   4.438  13.347
67342W        W28873   2.723  18.160  11.552
67343W        W28874  26.506  17.299   0.803
67344W        W28875  23.124  10.806   2.847
67345W        W28876  12.646  29.949   5.788
67346W        W28877   9.297   4.784  12.908
67347W        W28878  37.488   0.974   2.687
67348W        W28879  29.515   0.289  10.980
67349W        W28880  25.528  40.847   0.845
67350W        W28881  24.060  22.010  14.789
67351W        W28882  38.960   7.835   0.803
67352W        W28883  13.601  44.494  14.783
67353W        W28884   0.402  44.300   4.313
67354W        W28885  28.513  13.723  13.484
67355W        W28886  13.233  29.550   2.855
67356W        W28887  40.904  35.547   2.835
67357W        W28888  35.518  35.385  13.056
67358W        W28889  26.602  25.650   4.734
67359W        W28890  11.286  10.216   4.827
67360W        W28891   7.196  12.135  11.459
67361W        W28892  20.636  11.741  14.933
67362W        W28893  33.927  28.031  10.509
67363W        W28894  24.042   6.725  10.552
67364W        W28895  35.867  14.138  13.545
67365W        W28896  11.650   7.790  11.083
67366W        W28897  39.482   7.196   2.189
67367W        W28898  37.848  40.468  10.618
67368W        W28899  22.192  10.302  13.517
67369W        W28900  40.481  42.339  12.017
67370W        W28901  25.505   4.789   2.190
67371W        W28902  33.909   9.759   2.326
67372W        W28903  24.479  26.016   2.353
67373W        W28904  14.825  44.936   1.932
67374W        W28905  10.806  36.086   3.350
67375W        W28906  11.626  33.036  14.790
67376W        W28907  17.760   8.845   1.289
67377W        W28908   8.386  31.992  11.983
67378W        W28909  10.227  30.450  14.352
67379W        W28910  41.795   9.645   3.723
67380W        W28911  33.038  23.221   3.862
67381W        W28912  33.570  26.067  13.024
67382W        W28913  23.214  15.301   2.193
67383W        W28914  34.102  36.479   4.163
67384W        W28915  37.459  41.475  12.575
67385W        W28916   1.425  12.210   4.779
67386W        W28917   6.190  14.764   4.232
67387W        W28918   2.783  30.991  12.530
67388W        W28919   4.312  33.419   4.721
67389W        W28920  12.644   8.257   3.841
67390W        W28921  18.660  11.624  13.860
67391W        W28922  24.174  43.991  12.973
67392W        W28923   2.255  24.069   2.837
67393W        W28924  11.223   3.818  10.959
67394W        W28925  29.439   5.891  12.962
67395W        W28926  28.051  19.716  11.091
67396W        W28927   8.774  25.079  14.274
67397W        W28928   1.854  40.923   2.900
67398W        W28929  32.490  18.682   4.654
67399W        W28930  19.704  39.478  11.899
67400W        W28931  15.722  24.587   2.850
67401W        W28932  17.181   5.878  14.967
67402W        W28933  21.707   1.872   0.410
67403W        W28934  21.575  44.865   1.248
67404W        W28935  18.240  21.165  11.464
67405W        W28936  39.961  24.190   4.201
67406W        W28937   3.724  25.169   0.431
67407W        W28938  32.469  16.586   0.474
67408W        W28939   8.296  27.099   0.370
67409W        W28940   2.897  23.720   9.662
67410W        W28941  36.354  36.045  13.970
67411W        W28942  19.676  38.396   3.862
67412W        W28943  38.984  39.032   5.225
67413W        W28944  27.194  38.878  12.493
67414W        W28945   0.321  40.337   0.964
67415W        W28946  12.146  15.615   4.744
67416W        W28947  36.581   9.889   0.928
67417W        W28948  20.629   9.712   2.414
67418W        W28949   1.938  19.254  11.897
67419W        W28950   5.732  20.698  11.047
67420W        W28951  14.208  32.928  11.075
67421W        W28952  40.359  28.144  13.472
67422W        W28953  16.196  29.518   3.830
67423W        W28954  23.208  16.711  12.513
67424W        W28955  41.444  13.111   2.402
67425W        W28956   9.771   5.906   3.281
67426W        W28957  36.009  43.835  11.415
67427W        W28958  41.812  21.199   3.354
67428W        W28959  33.000  29.451   1.769
67429W        W28960  21.754  32.898  13.958
67430W        W28961  43.386   9.227  12.921
67431W        W28962   0.867  40.965  11.900
67432W        W28963  33.081  29.618  14.893
67433W        W28964  29.145  27.170   0.308
67434W        W28965  33.877  31.050  13.309
67435W        W28966  29.503  38.559  14.896
67436W        W28967  16.151   0.417  11.017
67437W        W28968  20.616  33.486  13.944
67438W        W28969   8.894  37.939  13.949
67439W        W28970  30.072  42.834  10.987
67440W        W28971  11.354  26.504  11.092
67441W        W28972  43.476  17.121  13.847
67442W        W28973  20.198  10.751   0.371
67443W        W28974  15.093   6.901  11.458
67444W        W28975  14.113  44.474  13.512
67445W        W28976  13.686   4.336   2.368
67446W        W28977   3.725  35.523  11.571
67447W        W28978  28.101  42.849   2.310
67448W        W28979  30.433  24.565  13.847
67449W        W28980  16.678  29.967   3.750
67450W        W28981   7.200  24.210  11.590
67451W        W28982  43.467  35.024   1.349
67452W        W28983   0.352  20.712   1.240
67453W        W28984  10.783   7.810  10.962
67454W        W28985  32.619  41.348   0.734
67455W        W28986  40.405  43.894  11.048
67456W        W28987  33.888  32.574  13.909
67457W        W28988  21.023   8.833   0.958
67458W        W28989  31.983  20.766   2.826
67459W        W28990  38.828  42.447   4.747
67460W        W28991  15.171  10.640  12.916
67461W        W28992  13.308   2.788  13.818
67462W        W28993   5.285  29.615   2.708
67463W        W28994  22.049  43.300   2.762
67464W        W28995  43.850  35.382   1.705
67465W        W28996   4.808  34.923   1.397
67466W        W28997  33.477  34.510  10.439
67467W        W28998  29.065  33.910  11.894
67468W        W28999  21.154  32.024   5.111
67469W        W29000  12.279  34.379   1.837
67470W        W29001  39.891  36.544   0.816
67471W        W29002  21.165  26.509  11.601
67472W        W29003   8.841  23.997  11.071
67473W        W29004  38.958  22.703  13.453
67474W        W29005  33.033  42.950  12.984
67475W        W29006   4.426  12.856   3.375
67476W        W29007  30.659   3.313   3.264
67477W        W29008  34.013  17.307  11.952
67478W        W29009  19.048  35.585  13.309
67479W        W29010   5.211   6.301  14.953
67480W        W29011   9.859  31.103   3.183
67481W        W29012  37.496   5.206   3.635
67482W        W29013  12.822  18.163   4.623
67483W        W29014  40.392   3.341  14.351
67484W        W29015  13.792   7.811   2.328
67485W        W29016  34.873   7.193   0.803
67486W        W29017  14.723  19.686   4.349
67487W        W29018  17.172  33.381  14.508
67488W        W29019   8.730   7.314  13.018
67489W        W29020  31.951  41.301   2.276
67490W        W29021   2.452  12.200  14.883
67491W        W29022  12.173  38.889  13.873
67492W        W29023  11.173  12.228   2.371
67493W        W29024  30.108  26.578   1.363
67494W        W29025  31.940   4.354  12.005
67495W        W29026  28.681   3.882   1.397
67496W        W29027  18.770  22.680  14.960
67497W        W29028  28.129  30.546  11.583
67498W        W29029  22.191   6.198   4.628
67499W        W29030  10.674  40.016  10.568
67500W        W29031  24.047  34.565  10.535
67501W        W29032  44.292  30.014  12.048
67502W        W29033   2.336  15.288  10.554
67503W        W29034  23.524  34.084  10.611
67504W        W29035  15.124  21.176   9.965
67505W        W29036  33.045   7.801  14.472
67506W        W29037   8.335   0.270   1.406
67507W        W29038  23.687  20.634  12.567
67508W        W29039  32.425  31.995  12.891
67509W        W29040  24.119  41.963  12.919
67510W        W29041  31.538   8.871  10.617
67511W        W29042  27.980  23.523   4.165
67512W        W29043   3.351  42.968  14.870
67513W        W29044  41.828  10.660  10.645
67514W        W29045  21.112  41.021   1.332
67515W        W29046  33.106  34.566  11.964
67516W        W29047  25.143   7.382   3.825
67517W        W29048   3.394  24.068  14.947
67518W        W29049  38.427  29.112   2.713
67519W        W29050  38.978   5.218  11.486
67520W        W29051  11.195  40.358   4.642
67521W        W29052  25.516   8.343  12.004
67522W        W29053   9.157  36.513   4.770
67523W        W29054  23.016   3.458  11.953
67524W        W29055  27.543  19.776   5.251
67525W        W29056  12.211  40.871  12.962
67526W        W29057   9.750   8.825  12.994
67527W        W29058  16.129  10.217  13.401
67528W        W29059  42.007  38.984   3.636
67529W        W29060   9.811   5.252   0.776
67530W        W29061  11.732  13.105  13.946
67531W        W29062  25.996  18.162   2.685
67532W        W29063  19.215  11.864   1.705
67533W        W29064  44.397  22.503   4.171
67534W        W29065  39.416   5.317  11.891
67535W        W29066   2.260  22.070   9.468
67536W        W29067  21.558   3.359   0.279
67537W        W29068   8.810   6.313  14.282
67538W        W29069  17.612   3.922   1.291
67539W        W29070  24.636   5.791   3.840
67540W        W29071   2.817  34.067   1.866
67541W        W29072   0.278  23.610  10.977
67542W        W29073  21.200  40.492  10.907
67543W        W29074  25.473  12.827  10.507
67544W        W29075  12.754  21.115  10.612
67545W        W29076  12.851  32.427   2.871
67546W        W29077  37.346  41.797   2.386
67547W        W29078  24.180  13.282  11.080
67548W        W29079  43.286  36.862   0.765
67549W        W29080  25.218   1.953  14.964
67550W        W29081  18.596  42.395   1.713
67551W        W29082   4.340  11.834   3.232
67552W        W29083  16.807  34.111   4.655
67553W        W29084  20.185  34.559  13.426
67554W        W29085  29.980  40.503   1.222
67555W        W29086   5.205  20.639  12.910
67556W        W29087  10.792   6.183   0.473
67557W        W29088  41.906  33.503  11.527
67558W        W29089  22.671  14.144  10.620
67559W        W29090   9.361  12.835   5.268
67560W        W29091  19.274  11.658   4.606
67561W        W29092  39.516  43.021  12.411
67562W        W29093  10.760  26.561  14.458
67563W        W29094  15.267  30.157   2.828
67564W        W29095   5.241  18.164   3.224
67565W        W29096   7.324  18.159  13.858
67566W        W29097  43.352   7.894  12.943
67567W        W29098  12.167  12.147  10.448
67568W        W29099   5.439  17.204  11.123
67569W        W29100  21.230  31.462  13.517
67570W        W29101   0.980  18.649  12.001
67571W        W29102  17.788  32.070  11.420
67572W        W29103  31.985  17.176   4.790
67573W        W29104  42.981  13.633  14.972
67574W        W29105  10.259  35.408   2.335
67575W        W29106  22.722   1.396  10.645
67576W        W29107  12.632  32.538  13.541
67577W        W29108   8.191  19.184   3.359
67578W        W29109  32.115   9.819   3.368
67579W        W29110  24.018   7.687  13.902
67580W        W29111  12.171  42.913   1.385
67581W        W29112  21.719  14.155  13.352
67582W        W29113   4.399   7.673   2.240
67583W        W29114   8.406  24.485  12.397
67584W        W29115   3.450  39.383   1.754
67585W        W29116  27.506  18.560   2.251
67586W        W29117  37.344  25.691  12.083
67587W        W29118  10.349  44.875  12.370
67588W        W29119  34.019   2.282  12.055
67589W        W29120   1.363   7.255   2.794
67590W        W29121  34.391  13.612   0.888
67591W        W29122  31.437  34.937   4.343
67592W        W29123  24.998  38.820  10.415
67593W        W29124   2.414  12.705  10.606
67594W        W29125  22.143  21.565  14.849
67595W        W29126   2.229  31.148   4.160
67596W        W29127  10.345   5.212  11.500
67597W        W29128  13.165  37.042  13.325
67598W        W29129  19.173   1.876  13.345
67599W        W29130  18.194  21.634  10.581
67600W        W29131  16.592   4.860  11.579
67601W        W29132  36.038  25.500  13.310
67602W        W29133  27.663   2.789   1.770
67603W        W29134  23.585  39.037  13.859
67604W        W29135   8.162   8.404  10.463
67605W        W29136  36.985  19.648  14.856
67606W        W29137  35.565   4.359  10.442
67607W        W29138  13.652  33.585   3.364
67608W        W29139  15.141   1.890  14.886
67609W        W29140  16.737  20.100  13.443
67610W        W29141   5.236  15.702  12.906
67611W        W29142  42.988  21.217  13.031
67612W        W29143   2.781   0.468   1.318
67613W        W29144  43.860   1.398  12.001
67614W        W29145  34.587   1.321  12.045
67615W        W29146   8.721  27.095  11.566
67616W        W29147  20.274  19.232  13.984
67617W        W29148  31.429  44.334  14.969
67618W        W29149  36.010  27.519  10.462
67619W        W29150   1.295  20.655   1.381
67620W        W29151  42.513  35.050   2.860
67621W        W29152   0.872  25.596  14.421
67622W        W29153   0.395   8.817   4.754
67623W        W29154  40.317   2.408  10.534
67624W        W29155  35.948  18.291   0.809
67625W        W29156   3.350  16.301  11.414
67626W        W29157  24.977  16.800  11.489
67627W        W29158  31.567  28.934   1.814
67628W        W29159  28.598  12.337  13.927
67629W        W29160  38.551   1.740   3.783
67630W        W29161  31.617   4.740   2.707
67631W        W29162  34.534   8.221   0.773
67632W        W29163  17.083  17.661  13.531
67633W        W29164  21.746   6.197   0.338
67634W        W29165  29.510  35.521  12.359
67635W        W29166  26.556  12.226   4.609
67636W        W29167   5.753  15.323   2.291
67637W        W29168  40.905   1.878  13.391
67638W        W29169  30.536   1.894   1.740
67639W        W29170  27.029   8.870   3.382
67640W        W29171  32.025  13.659  10.484
67641W        W29172  37.879   6.383   3.686
67642W        W29173  10.855  20.700   1.712
67643W        W29174  36.069  17.150   4.624
67644W        W29175   7.792  14.593  14.297
67645W        W29176  13.819   5.847   2.899
67646W        W29177  28.543  36.854   0.295
67647W        W29178  15.689  35.478   4.644
67648W        W29179  25.571  25.634   4.344
67649W        W29180  32.398  40.470   9.998
67650W        W29181  15.209  43.286   0.870
67651W        W29182   4.789  19.712  14.870
67652W        W29183  34.467  32.425   3.644
67653W        W29184  16.236  34.893  13.958
67654W        W29185  23.012  35.071  13.348
67655W        W29186  30.101   0.411  10.643
67656W        W29187  18.226  28.170  10.144
67657W        W29188  15.708  31.565  10.639
67658W        W29189   7.415  34.507   0.953
67659W        W29190   3.278  11.195   0.265
67660W        W29191  33.986  20.724   4.328
67661W        W29192  13.148   6.326   1.397
67662W        W29193  33.906  30.431   1.803
67663W        W29194  22.024   7.279  13.830
67664W        W29195  10.324  19.235  14.874
67665W        W29196  33.381  11.197   1.866
67666W        W29197  21.671   0.384   0.254
67667W        W29198   8.897  34.037   0.954
67668W        W29199  21.696  31.512   9.635
67669W        W29200  12.162  13.819  11.529
67670W        W29201   0.935  22.726   9.631
67671W        W29202  15.659  19.144   4.144
67672W        W29203   3.802   9.210   2.792
67673W        W29204  15.304  13.115   1.843
67674W        W29205  31.629  20.034  12.379
67675W        W29206  13.156  15.824   0.380
67676W        W29207  39.396  28.468  11.998
67677W        W29208  34.977   9.807   1.813
67678W        W29209  35.898  30.933   4.184
67679W        W29210  16.190  14.805   1.244
67680W        W29211  17.672  21.055   2.260
67681W        W29212  41.342  15.589   0.810
67682W        W29213  38.942  22.715  14.504
67683W        W29214   3.941   3.293  10.582
67684W        W29215   3.427  11.773  12.524
67685W        W29216  24.226  16.728   1.360
67686W        W29217  26.647   9.239  10.429
67687W        W29218  20.725  27.164  12.949
67688W        W29219  27.510  33.408   2.894
67689W        W29220  19.089  41.445  10.137
67690W        W29221  13.792   7.258  12.449
67691W        W29222   4.769   0.431   3.302
67692W        W29223   3.898  19.111   2.362
67693W        W29224  14.678  25.532  10.499
67694W        W29225  30.912  41.502  12.064
67695W        W29226  24.056  34.463   4.235
67696W        W29227   1.412  18.679   3.708
67697W        W29228  18.579  13.835  13.433
67698W        W29229   7.749  39.977  10.952
67699W        W29230  43.822  38.923   4.291
67700W        W29231  11.238  18.189  10.987
67701W        W29232  26.076  41.454  11.869
67702W        W29233  16.599  44.347   2.682
67703W        W29234  30.041  18.105  11.120
67704W        W29235  24.607  24.670   3.795
67705W        W29236  34.547  42.525   0.381
67706W        W29237  26.512  17.171   1.703
67707W        W29238  28.166  14.302  14.004
67708W        W29239  28.973   1.884  11.399
67709W        W29240  10.677  44.476   2.899
67710W        W29241  40.496  22.131  13.049
67711W        W29242   4.843   2.962  13.792
67712W        W29243  37.548   9.260   1.373
67713W        W29244  10.318  32.993   5.320
67714W        W29245  30.937  20.529  14.007
67715W        W29246  23.637  36.412   0.829
67716W        W29247  30.156  30.913  13.922
67717W        W29248  25.108  10.149   3.236
67718W        W29249  13.717  35.054   5.112
67719W        W29250   9.768   5.334   3.241
67720W        W29251  29.987  34.101  13.452
67721W        W29252  10.227  15.261   2.407
67722W        W29253   6.272  24.197   3.291
67723W        W29254   7.380  44.433  13.350
67724W        W29255  20.147  44.966   2.345
67725W        W29256  13.239   7.836   0.794
67726W        W29257   2.927  35.515  10.577
67727W        W29258  31.979  18.264   1.437
67728W        W29259  31.411   5.897  12.932
67729W        W29260   7.338   8.750   4.630
67730W        W29261   3.265  33.879  13.012
67731W        W29262  18.216  31.072  11.896
67732W        W29263   6.367   7.187  12.458
67733W        W29264  31.403   3.254  14.970
67734W        W29265  18.065   8.171   3.862
67735W        W29266  29.128  37.525  12.356
67736W        W29267   2.271  33.061   2.703
67737W        W29268  33.005  30.058   1.224
67738W        W29269  30.054  15.695  13.467
67739W        W29270  42.013  25.625  14.304
67740W        W29271  43.386  35.860  13.473
67741W        W29272   4.929   0.847  13.873
67742W        W29273   6.245  20.171  11.448
67743W        W29274  13.775   5.907  12.087
67744W        W29275  23.073  27.021  10.463
67745W        W29276  40.352  23.234  10.523
67746W        W29277  41.383  18.607  10.410
67747W        W29278  42.371  22.087  13.852
67748W        W29279  35.999  27.549  14.909
67749W        W29280   1.397  37.977   4.814
67750W        W29281  26.147  24.699  10.456
67751W        W29282   3.217  21.586   1.888
67752W        W29283  27.457  40.868  12.554
67753W        W29284  44.909  31.001  13.388
67754W        W29285  18.269   1.816  14.942
67755W        W29286   8.182   8.839   4.222
67756W        W29287  12.717  17.112  11.402
67757W        W29288  11.657  10.287  13.381
67758W        W29289  17.565  29.100  12.362
67759W        W29290   2.727  34.930   4.306
67760W        W29291  23.148  17.754  12.023
67761W        W29292   0.825  33.042   1.285
67762W        W29293   4.922   9.196  12.558
67763W        W29294  44.000  22.539   4.613
67764W        W29295  32.500   7.297  12.480
67765W        W29296   4.371   2.342   0.852
67766W        W29297  19.587  15.750   0.862
67767W        W29298  19.103   9.846  11.990
67768W        W29299  12.814   6.853  12.835
67769W        W29300  10.318  33.488   4.827
67770W        W29301  30.031  29.155  11.591
67771W        W29302  29.490  29.497   3.756
67772W        W29303  10.838  43.937   4.664
67773W        W29304  42.973  21.061   2.791
67774W        W29305  10.842  32.397   3.220
67775W        W29306   7.347   8.340  11.392
67776W        W29307  36.903   9.674  11.593
67777W        W29308   1.448   5.295  12.954
67778W        W29309  28.142  35.968  13.372
67779W        W29310  16.206  16.586   2.189
67780W        W29311  11.228  35.544   3.747
67781W        W29312  30.958   1.275   3.175
67782W        W29313   4.353  36.081   0.955
67783W        W29314   9.677  35.077   0.827
67784W        W29315   6.382  23.602   2.286
67785W        W29316  24.660  29.616   3.368
67786W        W29317  15.138  36.994   0.280
67787W        W29318  31.625   6.182  12.026
67788W        W29319  13.177   4.734  12.475
67789W        W29320   1.924  35.064  13.041
67790W        W29321  41.365  11.754  10.003
67791W        W29322   2.941   3.870   3.701
67792W        W29323  20.746   5.330  10.904
67793W        W29324  37.070   7.674  14.819
67794W        W29325  14.321  33.382   0.848
67795W        W29326  32.427  37.524   4.152
67796W        W29327   7.905  41.432   2.277
67797W        W29328  30.961   4.323  13.859
67798W        W29329   0.252   1.875  13.412
67799W        W29330  17.291  29.129   1.884
67800W        W29331   7.849  40.534  14.497
67801W        W29332  11.322  14.176   3.730
67802W        W29333  27.088  27.669   1.933
67803W        W29334  21.228  30.497  13.059
67804W        W29335   7.724  32.009   4.321
67805W        W29336  29.502   7.704   4.676
67806W        W29337  22.651   8.701  12.031
67807W        W29338  31.988  40.423  13.040
67808W        W29339   1.386  35.443  14.421
67809W        W29340  12.764  15.631  14.483
67810W        W29341  24.552  40.396   0.768
67811W        W29342   4.370  11.624   2.870
67812W        W29343   7.714  17.246   1.217
67813W        W29344  31.091  30.108   0.859
67814W        W29345   1.944  12.684  14.764
67815W        W29346  44.780  28.476  12.550
67816W        W29347  12.773   4.855   1.810
67817W        W29348  30.424  36.407   0.808
67818W        W29349  13.256  30.631   3.715
67819W        W29350   8.868  40.311  12.860
67820W        W29351  42.000  38.498   3.863
67821W        W29352  27.098  14.295  12.997
67822W        W29353  32.458   9.850   0.406
67823W        W29354  43.888   5.250  12.932
67824W        W29355  44.321   1.977   4.822
67825W        W29356  36.408  43.895   1.433
67826W        W29357  15.792  21.649   1.910
67827W        W29358  38.495  23.725  10.921
67828W        W29359  34.424  26.677   0.938
67829W        W29360  34.007  14.800  10.941
67830W        W29361   2.437  12.742  14.814
67831W        W29362  28.163  29.145  14.347
67832W        W29363  23.577  21.228  13.004
67833W        W29364  25.208  29.087   5.220
67834W        W29365   1.264  29.960  12.391
67835W        W29366  27.475  31.541  11.569
67836W        W29367  44.405  41.312  10.618
67837W        W29368  35.941  17.073   3.352
67838W        W29369  17.273  23.690   1.900
67839W        W29370  25.566  37.061  13.048
67840W        W29371  11.258   6.406  13.848
67841W        W29372  44.259   9.184   2.700
67842W        W29373  23.022   7.173   2.209
67843W        W29374  26.459   9.824   5.109
67844W        W29375   8.807  37.905   2.352
67845W        W29376  12.661  33.473  10.972
67846W        W29377  13.791  18.286  12.361
67847W        W29378  43.916   2.822   1.335
67848W        W29379  25.996  19.688  14.292
67849W        W29380   0.252  40.023   4.179
67850W        W29381  29.996  19.648  12.367
67851W        W29382  25.536  21.602   1.928
67852W        W29383  40.806  44.884  12.460
67853W        W29384  43.979   8.239  12.830
67854W        W29385  42.405   7.318   1.249
67855W        W29386  23.520  41.907  13.987
67856W        W29387  42.457  32.085  11.021
67857W        W29388  37.965  22.203   3.824
67858W        W29389  24.039  42.360   1.415
67859W        W29390  34.405  36.365   9.616
67860W        W29391  28.562   4.768  13.915
67861W        W29392  42.965  16.111   0.264
67862W        W29393  43.334  32.582  11.469
67863W        W29394   3.284   0.247  14.913
67864W        W29395  22.746  27.645   0.344
67865W        W29396  39.040  21.719   2.706
67866W        W29397   5.830  11.200  14.292
67867W        W29398  24.642  25.201  14.294
67868W        W29399   2.838  32.491   0.246
67869W        W29400   4.879   6.692   2.248
67870W        W29401   4.422  16.593  11.971
67871W        W29402  25.077  35.953   2.735
67872W        W29403   5.420  30.046   1.899
67873W        W29404  28.066  31.430   0.800
67874W        W29405   2.797  15.177   2.788
67875W        W29406   3.448   3.951   0.932
67876W        W29407  18.578  27.967  12.459
67877W        W29408   0.485  24.508  10.989
67878W        W29409  22.623  10.374  13.450
67879W        W29410  28.493  44.500   2.830
67880W        W29411  19.618  27.633  13.311
67881W        W29412  18.554  10.155   1.749
67882W        W29413  17.629  37.066   2.403
67883W        W29414  24.612  42.976  13.384
67884W        W29415   8.684  14.174  14.851
67885W        W29416   3.739   4.221  11.555
67886W        W29417  12.269  14.749  10.426
67887W        W29418   9.358  22.233  11.539
67888W        W29419  28.047  22.550  11.090
67889W        W29420  16.086  23.684   9.613
67890W        W29421  23.110  38.461  10.459
67891W        W29422  34.051  40.957   0.254
67892W        W29423  35.857  41.851  13.311
67893W        W29424  29.636  25.119  11.573
67894W        W29425  11.139   6.211  11.038
67895W        W29426   5.287  19.686   2.767
67896W        W29427  33.088  29.995  10.423
67897W        W29428   6.733  27.647   4.283
67898W        W29429  30.590  22.562   4.661
67899W        W29430  39.396   5.309  13.861
67900W        W29431  42.784  17.270  11.992
67901W        W29432  39.937   8.320  12.350
67902W        W29433  41.538  34.446  12.033
67903W        W29434   8.732  15.316  13.544
67904W        W29435  24.642  39.373   4.646
67905W        W29436  20.653  41.980  12.484
67906W        W29437  18.185  31.506   3.667
67907W        W29438   8.327  25.608   3.824
67908W        W29439  12.795  16.227  12.454
67909W        W29440  17.099   7.309   2.685
67910W        W29441  16.234  41.517  10.626
67911W        W29442  31.624  15.802  12.981
67912W        W29443  30.489   3.229   0.811
67913W        W29444  31.993  27.551  13.472
67914W        W29445   3.942   8.338   3.200
67915W        W29446   6.334  15.264  14.474
67916W        W29447  38.344  43.948  10.905
67917W        W29448  40.472  18.548  13.847
67918W        W29449   5.769  15.815  14.007
67919W        W29450  23.240  12.179   3.245
67920W        W29451   6.424  20.150   1.396
67921W        W29452   3.248  34.445  14.971
67922W        W29453  40.034  17.604   4.224
67923W        W29454   9.267  41.953  14.341
67924W        W29455  24.196  43.949   0.443
67925W        W29456  22.236  44.480  14.349
67926W        W29457  11.775  28.613  12.479
67927W        W29458  37.965  24.208   1.858
67928W        W29459  25.064  12.713  13.378
67929W        W29460  32.618  20.577   2.819
67930W        W29461  43.802  42.287   4.322
67931W        W29462  33.008   4.797   4.836
67932W        W29463  43.269  20.137  12.872
67933W        W29464  43.900   3.756   2.692
67934W        W29465  19.122  10.707  11.482
67935W        W29466  34.542   2.940   2.841
67936W        W29467  33.952  15.166   0.946
67937W        W29468   7.863  36.878   1.728
67938W        W29469  15.104  10.263  10.512
67939W        W29470  39.515   4.211  14.312
67940W        W29471   3.293   0.781   3.226
67941W        W29472   3.901   8.365  10.906
67942W        W29473   1.331   6.853  11.484
67943W        W29474  38.364  15.315  11.011
67944W        W29475  19.643  27.098   1.923
67945W        W29476  22.594  24.203  13.817
67946W        W29477  38.915  36.868   0.250
67947W        W29478  13.275  25.685  11.951
67948W        W29479  35.967  40.937   2.209
67949W        W29480  43.467  39.949   4.738
67950W        W29481  26.041  27.652  11.507
67951W        W29482  11.225  35.594  12.927
67952W        W29483  16.624  10.823  11.005
67953W        W29484  40.305  37.533  11.463
67954W        W29485  25.984  10.675  13.446
67955W        W29486  34.995   9.673  14.324
67956W        W29487   6.758  14.589   3.866
67957W        W29488  25.104  33.083  12.873
67958W        W29489  21.210  21.234  12.010
67959W        W29490  32.504  19.745  12.911
67960W        W29491  43.861  29.001   0.388
67961W        W29492  28.034  25.526  14.005
67962W        W29493  31.581   0.418   1.862
67963W        W29494   1.423  33.929  13.523
67964W        W29495  43.342   2.772  12.854
67965W        W29496  41.881  28.173  11.524
67966W        W29497  12.132  22.055   0.802
67967W        W29498  11.224  23.614  12.515
67968W        W29499  12.282  25.131  10.957
67969W        W29500  44.440   7.817   0.436
67970W        W29501   6.355  24.554   1.787
67971W        W29502  21.145  32.626  12.502
67972W        W29503  37.982  17.065  13.522
67973W        W29504  23.620   4.927  14.792
67974W        W29505  14.101  32.619   4.817
67975W        W29506  35.001  33.091  11.934
67976W        W29507  31.497  30.572  13.827
67977W        W29508  30.538  26.208   3.150
67978W        W29509  38.402  39.877   1.380
67979W        W29510  29.432  29.483   4.147
67980W        W29511  29.460  24.690  13.360
67981W        W29512   9.662  32.002   0.771
67982W        W29513   9.647  35.545   1.878
67983W        W29514  16.258  35.944  11.861
67984W        W29515  22.633  18.100  14.840
67985W        W29516   8.783  26.070  13.852
67986W        W29517  22.635  26.105   0.422
67987W        W29518  11.679  20.701  12.519
67988W        W29519  18.790   1.746   3.684
67989W        W29520  28.085   0.279  10.479
67990W        W29521  15.244   8.296  14.870
67991W        W29522  20.170   3.755  11.492
67992W        W29523  38.394  17.101  14.813
67993W        W29524  23.074  36.926   3.200
67994W        W29525   6.396  12.612   3.232
67995W        W29526  33.463  14.634   4.161
67996W        W29527  17.783   9.823   1.768
67997W        W29528  12.128  27.012  12.518
67998W        W29529   9.263  43.489   3.173
67999W        W29530  18.729   3.350   9.992
68000W        W29531  26.507   4.227  11.393
68001W        W29532  27.103  12.126   0.804
68002W        W29533  31.927  34.977   4.786
68003W        W29534  41.902  14.812  14.831
68004W        W29535  36.946  26.951  12.483
68005W        W29536   4.264  14.116  12.938
68006W        W29537  27.146  19.564   2.897
68007W        W29538  23.082   8.689  11.884
68008W        W29539  12.843  34.915   1.333
68009W        W29540   8.334  27.636  13.791
68010W        W29541  10.777  30.112   4.163
68011W        W29542   9.268  21.725   4.710
68012W        W29543  22.513  32.125  10.888
68013W        W29544  40.825  43.385  12.028
68014W        W29545   3.808  32.066   3.820
68015W        W29546   5.347  35.933  14.882
68016W        W29547  36.951   1.884   3.684
68017W        W29548  17.079  43.304   3.384
68018W        W29549  17.189  38.362   0.444
68019W        W29550  21.593  26.586   5.109
68020W        W29551  40.457  42.022   2.202
68021W        W29552  14.737  16.655  11.039
68022W        W29553   6.382   3.742  12.371
68023W        W29554  24.638  34.383  10.505
68024W        W29555  28.645  43.377  13.945
68025W        W29556  29.542  10.371   5.195
68026W        W29557  35.929  42.959   1.751
68027W        W29558   5.740  30.000   0.418
68028W        W29559  12.694   9.692   2.816
68029W        W29560  34.087   3.446   4.834
68030W        W29561  34.898   7.275   0.324
68031W        W29562  14.620  27.553   2.807
68032W        W29563   4.414   6.868  11.871
68033W        W29564  28.001   9.703   0.919
68034W        W29565  14.660  12.615   4.776
68035W        W29566   7.766  10.822  12.932
68036W        W29567  22.623  30.022  11.878
68037W        W29568   7.899  12.296  13.930
68038W        W29569  25.618  29.029   3.705
68039W        W29570  14.604   5.264  14.464
68040W        W29571   8.828  27.572  14.768
68041W        W29572  10.316   3.368  11.506
68042W        W29573  42.888   1.419  12.974
68043W        W29574  31.504  40.989  13.871
68044W        W29575  20.756   6.208  12.493
68045W        W29576   7.768  42.451   1.415
68046W        W29577  44.968  21.113  13.519
68047W        W29578  22.538  41.911   1.218
68048W        W29579   5.801   9.851   3.232
68049W        W29580   5.910   0.295   4.733
68050W        W29581  28.136  13.699   2.756
68051W        W29582  28.522  12.321  13.538
68052W        W29583   5.881   2.919  12.974
68053W        W29584  34.577  11.130  13.396
68054W        W29585   9.833   4.226   3.712
68055W        W29586  40.492   2.965  10.992
68056W        W29587   2.885  18.548   3.339
68057W        W29588  31.407  28.937  10.569
68058W        W29589  32.951  14.221   1.426
68059W        W29590  24.709  11.185   1.272
68060W        W29591  25.625  41.515   3.739
68061W        W29592  29.667   4.841   3.163
68062W        W29593  28.517  18.635  13.507
68063W        W29594  31.008   5.325   3.285
68064W        W29595  12.302  22.244   0.466
68065W        W29596   7.755   6.395   0.417
68066W        W29597   8.208  35.912  12.916
68067W        W29598  23.511  29.997   1.246
68068W        W29599  31.548  44.282  14.301
68069W        W29600  40.388  28.467   1.314
68070W        W29601   2.296   9.747   3.772
68071W        W29602  20.646   8.173  11.928
68072W        W29603  23.054  43.826  11.871
68073W        W29604  20.704  30.629   4.162
68074W        W29605  44.836  32.402  11.510
68075W        W29606  34.895   5.212   2.283
68076W        W29607  24.069  24.679   0.932
68077W        W29608  42.524  20.563   3.233
68078W        W29609   3.955  17.676  12.542
68079W        W29610  18.727  21.048   2.379
68080W        W29611   1.770  11.238   4.192
68081W        W29612  16.684  33.514   4.282
68082W        W29613  27.464  22.094   2.292
68083W        W29614  14.737  38.942   4.836
68084W        W29615  33.008  28.110  11.593
68085W        W29616   1.454  37.044  14.002
68086W        W29617  44.009  13.692  11.542
68087W        W29618  26.047  26.618   2.329
68088W        W29619   8.713   6.871  13.335
68089W        W29620   9.317  11.669   2.845
68090W        W29621   6.819  37.886  10.501
68091W        W29622  14.778  44.856  10.546
68092W        W29623  32.993  44.443  12.067
68093W        W29624  15.600  31.946  12.837
68094W        W29625  27.084  29.589   2.262
68095W        W29626  38.457  39.833   0.940
68096W        W29627  24.201  40.373  14.769
68097W        W29628   0.448   8.773   0.310
68098W        W29629  14.139  11.833  10.602
68099W        W29630  35.454  14.175  10.903
68100W        W29631  33.610  10.674   5.097
68101W        W29632   2.469  22.692   9.632
68102W        W29633  31.637  39.367   4.311
68103W        W29634  15.648  10.819   0.250
68104W        W29635  43.982  18.117  10.997
68105W        W29636  34.926  18.582  10.968
68106W        W29637  35.378  41.320   1.770
68107W        W29638  16.131   4.378  11.975
68108W        W29639  10.246   9.314  10.548
68109W        W29640  38.393  27.196   0.393
68110W        W29641  43.482  30.934   4.620
68111W        W29642  43.396  21.155   2.852
68112W        W29643   5.879   6.249   4.751
68113W        W29644   8.212  23.618  10.476
68114W        W29645   7.817  34.549   2.183
68115W        W29646  17.126  23.177   4.334
68116W        W29647  24.008  15.764   0.915
68117W        W29648   5.324  29.127   4.221
68118W        W29649  25.139  44.823   0.479
68119W        W29650  40.980  25.000  13.793
68120W        W29651  10.218   6.188   3.202
68121W        W29652   2.430  24.684  13.847
68122W        W29653  41.465  24.061   0.372
68123W        W29654  40.024  40.982  14.938
68124W        W29655  31.964  18.632   2.745
68125W        W29656  26.990  22.544  12.019
68126W        W29657   4.758   8.263   0.831
68127W        W29658   9.653  36.448  11.893
68128W        W29659  39.374  19.188  12.940
68129W        W29660  10.753  19.117  11.070
68130W        W29661  31.507  29.130   2.215
68131W        W29662  28.599   4.329  10.543
68132W        W29663   2.834  40.362   2.863
68133W        W29664   7.907  12.311   0.385
68134W        W29665  11.144  42.520   4.117
68135W        W29666  14.739  33.081   2.739
68136W        W29667  15.285   5.360   0.406
68137W        W29668   5.818  29.020   4.685
68138W        W29669  35.073   0.856   1.298
68139W        W29670   5.331  41.884   2.290
68140W        W29671  21.258  30.509   1.281
68141W        W29672   8.211   5.922  10.455
68142W        W29673  35.945  40.877  14.880
68143W        W29674  16.702  39.939  14.831
68144W        W29675  43.813  32.022  11.867
68145W        W29676   0.278  23.587   2.682
68146W        W29677  27.521  10.339   1.218
68147W        W29678   3.455  37.359   4.741
68148W        W29679   8.863   7.703  13.392
68149W        W29680  39.517  17.087  10.910
68150W        W29681  15.313   9.879  12.833
68151W        W29682  31.023  36.987  12.896
68152W        W29683  25.577  18.263   0.406
68153W        W29684  33.956   4.392  14.837
68154W        W29685  39.843  20.194  12.387
68155W        W29686  19.131  14.301   2.769
68156W        W29687  36.478  30.637  11.385
68157W        W29688   9.787  26.984  10.500
68158W        W29689  26.497  16.695   4.331
68159W        W29690   3.853   2.890   2.215
68160W        W29691  34.956  40.822   4.649
68161W        W29692  18.626  41.975   2.306
68162W        W29693  20.119   7.393   3.780
68163W        W29694   5.688  10.301  10.949
68164W        W29695  37.981  29.453   1.919
68165W        W29696   4.813  11.809   0.911
68166W        W29697  42.513  31.410   0.477
68167W        W29698  43.448  22.038  11.921
68168W        W29699   2.398  33.948   4.265
68169W        W29700  23.544  16.293   3.734
68170W        W29701   3.221  26.057   5.617
68171W        W29702  12.266  16.185   2.727
68172W        W29703  35.516  20.104  14.964
68173W        W29704   7.339  44.441  12.907
68174W        W29705  10.200  30.128  13.839
68175W        W29706  42.472  25.520   4.256
68176W        W29707  16.140  29.945  10.922
68177W        W29708  27.095  11.276   3.310
68178W        W29709   1.862   2.864  14.789
68179W        W29710  10.680  31.120   3.232
68180W        W29711  10.274  27.993  14.949
68181W        W29712  28.971  35.595  14.328
68182W        W29713  27.684  44.956  10.483
68183W        W29714  16.594  28.128   1.820
68184W        W29715   4.781   9.828  10.092
68185W        W29716  19.178  43.886  13.465
68186W        W29717   9.220   7.842   1.390
68187W        W29718  29.622  36.902   1.250
68188W        W29719  28.585   5.361   4.747
68189W        W29720  25.989   6.270   4.217
68190W        W29721  35.876  31.647  14.303
68191W        W29722  33.571  26.643  11.458
68192W        W29723  25.088  26.537   1.212
68193W        W29724  17.765  16.078  10.594
68194W        W29725  18.245  14.161  12.415
68195W        W29726  14.243  15.134   3.183
68196W        W29727   7.854  27.085   0.453
68197W        W29728  21.758  24.143  13.384
68198W        W29729  41.302  30.958   3.728
68199W        W29730  32.531  10.863   4.649
68200W        W29731  30.150  28.028   0.482
68201W        W29732  43.292  24.033  14.278
68202W        W29733  35.452  23.559   1.235
68203W        W29734  19.171  34.520  14.381
68204W        W29735  31.950   8.163  12.883
68205W        W29736  21.213   8.292  12.952
68206W        W29737  21.117  25.481  12.051
68207W        W29738  43.448   1.295   2.867
68208W        W29739  18.110  33.437   4.245
68209W        W29740  43.434  36.907   2.392
68210W        W29741  18.114  43.964   1.234
68211W        W29742  35.925   1.353  13.005
68212W        W29743  17.607  23.634   3.209
68213W        W29744  35.913  18.740  12.534
68214W        W29745   7.239  35.561   4.171
68215W        W29746  37.509  20.127   3.817
68216W        W29747  28.460   9.866   0.873
68217W        W29748  22.208  28.636   5.144
68218W        W29749   9.271  30.595  13.415
68219W        W29750  16.657  42.799   0.296
68220W        W29751  44.836   2.266   3.671
68221W        W29752  36.033  38.504  14.335
68222W        W29753  15.100  35.076   4.131
68223W        W29754  40.040  35.468  13.866
68224W        W29755  28.644  21.540  12.026
68225W        W29756  14.305  41.354   1.713
68226W        W29757  32.600  26.165  11.870
68227W        W29758  10.280  39.061   4.812
68228W        W29759  20.238  19.089   3.709
68229W        W29760  20.671  35.576  12.046
68230W        W29761  34.017  42.464   4.134
68231W        W29762  25.675  23.200   2.883
68232W        W29763  42.794  33.068  12.463
68233W        W29764   2.921  42.939  10.643
68234W        W29765  33.570  41.419   2.682
68235W        W29766  40.845  31.421  14.031
68236W        W29767  12.776  39.875  12.893
68237W        W29768  29.495  19.713   4.599
68238W        W29769  34.871  42.870  14.328
68239W        W29770  10.261   2.807   1.870
68240W        W29771  32.086  18.233  14.483
68241W        W29772  39.458  20.175   4.268
68242W        W29773  27.996   4.885  14.454
68243W        W29774  28.544   9.734   3.182
68244W        W29775   7.288  22.734   4.836
68245W        W29776  40.875  11.803  12.468
68246W        W29777   0.263   9.819  12.367
68247W        W29778  28.119  21.627  11.518
68248W        W29779  10.256  43.932  10.544
68249W        W29780  16.764  14.593   1.231
68250W        W29781  22.575  41.798  10.042
68251W        W29782  24.511  14.139   2.691
68252W        W29783  27.096  34.480  12.994
68253W        W29784   3.252   6.728  14.853
68254W        W29785   8.396  15.654   1.757
68255W        W29786   2.410  17.212  12.048
68256W        W29787   2.329  17.086   0.922
68257W        W29788  22.147   2.308  10.899
68258W        W29789  20.162  15.675  12.908
68259W        W29790   3.832   9.383  11.909
68260W        W29791  10.639  15.813  12.396
68261W        W29792  43.866   7.197   4.166
68262W        W29793   4.717  40.016   4.800
68263W        W29794   8.238   7.728  13.911
68264W        W29795  33.970   7.367   4.729
68265W        W29796  35.074   0.463   3.762
68266W        W29797  38.467  31.575  10.576
68267W        W29798  27.004   4.830  10.020
68268W        W29799  20.074   8.395   4.656
68269W        W29800   6.922   3.251  14.802
68270W        W29801  12.332   4.808  13.833
68271W        W29802  27.104  25.006  12.573
68272W        W29803  33.108  44.287  14.839
68273W        W29804   2.453   7.338   2.687
68274W        W29805  23.177  26.653  13.491
68275W        W29806  26.042   0.949   0.333
68276W        W29807  30.132  43.502  13.947
68277W        W29808  34.905   2.388   2.868
68278W        W29809  41.327   7.896  14.514
68279W        W29810  39.548  33.457  13.404
68280W        W29811  29.501  14.114  12.453
68281W        W29812  40.469  43.302   2.256
68282W        W29813  38.960  37.981   2.830
68283W        W29814  24.030  23.587   3.315
68284W        W29815  23.992   6.270   0.244
68285W        W29816   6.349  38.552   0.438
68286W        W29817  28.512  32.026  13.475
68287W        W29818  32.985  36.930   1.345
68288W        W29819  41.856   0.484  12.451
68289W        W29820  39.889  22.571  10.488
68290W        W29821  29.449  36.353  14.484
68291W        W29822  20.653  10.687   4.805
68292W        W29823   0.988  14.247   0.751
68293W        W29824  33.388  19.090   4.113
68294W        W29825   5.877  23.662  11.048
68295W        W29826  13.255  13.122   2.797
68296W        W29827  16.698  36.071  12.380
68297W        W29828  34.867   5.826  12.407
68298W        W29829  38.559  38.447  10.423
68299W        W29830  19.039   8.763   1.799
68300W        W29831  38.935  40.507  13.533
68301W        W29832   2.308  14.287  14.461
68302W        W29833  13.689  39.356   4.115
68303W        W29834  29.152   5.352  14.900
68304W        W29835   5.754  42.004  10.944
68305W        W29836  23.994   4.281   1.796
68306W        W29837  44.349   8.299   1.795
68307W        W29838  30.009  11.678  13.870
68308W        W29839  33.565  15.190   4.699
68309W        W29840  15.702  27.533   5.320
68310W        W29841  29.661   1.932   3.146
68311W        W29842  24.220  23.652   0.737
68312W        W29843  15.739  31.546  13.540
68313W        W29844   3.874  13.228   3.261
68314W        W29845  26.997   4.746  11.057
68315W        W29846  19.189  16.181   1.735
68316W        W29847  17.071  38.508   3.279
68317W        W29848  40.529  25.169  10.073
68318W        W29849  27.473  27.118   0.810
68319W        W29850  32.967  41.474   3.849
68320W        W29851  13.114  44.796   1.393
68321W        W29852   1.294   0.839  14.459
68322W        W29853  26.644  43.980   4.678
68323W        W29854  19.196   7.741   4.248
68324W        W29855   0.307  44.855   4.742
68325W        W29856  33.460  16.308  12.571
68326W        W29857  41.479  24.065  12.952
68327W        W29858   7.203  21.097   3.299
68328W        W29859  18.217  14.322  14.976
68329W        W29860  33.101  42.335  14.902
68330W        W29861  38.530  29.022   4.257
68331W        W29862  35.953  40.336   0.834
68332W        W29863  34.085  23.730  12.430
68333W        W29864   3.295  44.789   0.441
68334W        W29865   3.330  10.686   3.772
68335W        W29866  21.059  26.602  13.445
68336W        W29867   0.845  18.106  10.991
68337W        W29868  28.012  23.567  13.505
68338W        W29869   1.955  27.446   0.943
68339W        W29870   2.242  37.425   1.719
68340W        W29871   7.374  26.015  11.043
68341W        W29872   6.889   4.421  13.425
68342W        W29873  11.278   6.895  13.941
68343W        W29874  33.384  12.813  13.862
68344W        W29875  12.764   5.796   1.754
68345W        W29876  25.549  13.125   2.708
68346W        W29877  35.915  15.682   1.750
68347W        W29878  26.146   3.888  10.573
68348W        W29879  24.641  36.993  11.405
68349W        W29880  24.157  29.444  14.985
68350W        W29881  11.173  33.033  13.999
68351W        W29882  30.103  34.969  13.543
68352W        W29883  20.606  38.415  11.400
68353W        W29884  41.368  42.796   4.659
68354W        W29885   6.677  41.968   2.402
68355W        W29886   7.762  35.969  11.475
68356W        W29887  44.829  41.860   2.184
68357W        W29888   9.371  14.131   5.238
68358W        W29889  28.065   2.333  11.549
68359W        W29890  37.347  14.150   3.307
68360W        W29891  12.660   6.868   3.778
68361W        W29892  19.172   1.755  13.000
68362W        W29893  31.071  33.121   0.377
68363W        W29894  25.545  30.004   2.739
68364W        W29895  30.584  39.057   2.304
68365W        W29896  22.584  17.726   4.324
68366W        W29897  17.625   5.417  13.397
68367W        W29898  13.329  36.977   2.411
68368W        W29899  32.495  22.042  13.388
68369W        W29900   4.796  32.593   2.325
68370W        W29901   5.231   7.865   2.419
68371W        W29902  24.188  20.635  12.869
68372W        W29903  41.362   4.866  14.884
68373W        W29904  14.185  16.248  13.326
68374W        W29905  19.135   5.350   0.946
68375W        W29906  11.257  38.030  13.357
68376W        W29907  36.091  22.646   1.273
68377W        W29908  21.139  29.476  14.960
68378W        W29909  20.559  21.198  12.393
68379W        W29910   2.877  44.884   3.651
68380W        W29911   5.854  22.646  11.882
68381W        W29912  11.866  37.871  10.407
68382W        W29913  41.947  39.515  14.764
68383W        W29914  29.668  12.288   5.180
68384W        W29915  34.073   6.271   9.954
68385W        W29916  37.946  39.977  12.989
68386W        W29917  23.074  40.970   0.313
68387W        W29918  26.973  34.555   2.855
68388W        W29919  16.672   6.297  12.411
68389W        W29920   3.938  20.639   3.232
68390W        W29921  25.701   5.835   0.923
68391W        W29922   6.691  16.678  13.369
68392W        W29923  18.207  27.113   0.830
68393W        W29924   7.360  16.662  11.440
68394W        W29925  42.914   5.218   1.771
68395W        W29926  22.687  38.489   0.889
68396W        W29927   4.398  42.850  13.930
68397W        W29928  44.492  43.827  12.986
68398W        W29929  26.598  25.143  10.023
68399W        W29930  17.305  44.926  10.526
68400W        W29931  37.532  40.479  13.422
68401W        W29932  39.910  25.609   1.705
68402W        W29933  43.366  29.946  14.423
68403W        W29934   4.422  36.885  13.922
68404W        W29935  13.686  26.570  11.958
68405W        W29936  20.624  24.998  13.955
68406W        W29937  23.682  13.224   0.858
68407W        W29938  41.301  34.099   2.753
68408W        W29939  32.993   7.383  14.965
68409W        W29940  31.078  27.636  11.390
68410W        W29941  28.114  37.873   0.476
68411W        W29942  36.986  22.089   3.383
68412W        W29943  38.888  33.412  10.528
68413W        W29944  37.440   6.332  13.538
68414W        W29945  36.564   3.399   0.455
68415W        W29946  36.064  30.528   2.368
68416W        W29947  39.941  19.572  13.847
68417W        W29948   2.235  23.095  10.418
68418W        W29949  29.050  15.784   0.765
68419W        W29950  14.241  33.071   3.687
68420W        W29951  17.647  33.087   4.810
68421W        W29952  31.900  25.189  11.106
68422W        W29953   3.832  18.102   2.196
68423W        W29954  35.518  26.555   1.252
68424W        W29955   2.755  38.979  11.568
68425W        W29956  31.632   5.706  13.466
68426W        W29957  36.477  40.481   1.713
68427W        W29958  13.154  12.850   0.429
68428W        W29959  29.548  29.541   1.808
68429W        W29960  35.991   1.941   4.598
68430W        W29961  18.260  42.926   4.727
68431W        W29962  40.050  17.084  14.946
68432W        W29963  17.719  42.862  14.496
68433W        W29964  44.369  19.207  12.355
68434W        W29965  29.461   5.816   5.228
68435W        W29966  20.718  24.079  13.536
68436W        W29967   1.241  41.322   4.179
68437W        W29968  23.708  40.937   1.317
68438W        W29969  37.924  18.071   0.939
68439W        W29970   9.384   2.756   2.774
68440W        W29971   2.442   5.389   0.347
68441W        W29972   1.265  37.061   3.318
68442W        W29973   6.687   5.202   0.363
68443W        W29974  35.936  40.514   0.377
68444W        W29975   0.319  25.062   0.391
68445W        W29976  30.100  15.800  12.959
68446W        W29977  18.112   1.743   4.204
68447W        W29978  32.395   4.848   4.749
68448W        W29979  36.536   6.791  13.441
68449W        W29980  26.109   8.778   0.730
68450W        W29981  16.747  12.169  10.593
68451W        W29982  18.556   2.461   0.785
68452W        W29983  10.820  25.052  14.305
68453W        W29984   7.812  16.094  14.813
68454W        W29985  20.742   1.956  14.829
68455W        W29986  27.019   4.261  13.964
68456W        W29987   2.965  37.336  13.028
68457W        W29988  43.483   6.304  11.094
68458W        W29989  29.607  10.204   4.116
68459W        W29990   0.773  12.356   4.608
68460W        W29991  12.647  29.658  14.848
68461W        W29992  44.488   7.705   2.378
68462W        W29993  15.268  26.628   3.709
68463W        W29994  42.336  41.938  11.451
68464W        W29995  11.289  43.793  12.054
68465W        W29996   6.407  30.627   0.915
68466W        W29997  42.999  44.294   3.774
68467W        W29998  10.800  26.157   0.410
68468W        W29999  39.363  39.866  12.884
68469W        W30000  15.195   0.841  12.086
68470W        W30001   8.765   8.257   4.333
68471W        W30002  22.519  34.495  14.021
68472W        W30003  15.302  36.563   2.853
68473W        W30004  36.070   9.374   4.193
68474W        W30005  16.089  34.022   1.822
68475W        W30006  14.832  40.474  11.383
68476W        W30007  32.500  44.300  13.018
68477W        W30008  28.079  40.934  10.406
68478W        W30009  13.188  27.076   2.807
68479W        W30010   7.773   0.427  12.431
68480W        W30011  27.156   3.870   3.748
68481W        W30012  32.996  32.906  14.777
68482W        W30013   1.783   8.784  10.911
68483W        W30014  26.699  34.544  14.297
68484W        W30015  33.386   3.398   4.127
68485W        W30016  34.003  20.119  13.347
68486W        W30017  42.892  22.721  14.367
68487W        W30018  24.107   5.785  13.034
68488W        W30019   0.278  19.137   1.386
68489W        W30020  32.921  41.839   4.746
68490W        W30021  19.649  43.838  14.878
68491W        W30022  16.770   8.239  10.529
68492W        W30023  39.948  25.185  10.468
68493W        W30024   0.394  41.897   2.813
68494W        W30025   8.269  14.270   0.379
68495W        W30026  10.223  37.042  11.913
68496W        W30027  14.702  33.602  14.435
68497W        W30028  33.421  34.025  12.029
68498W        W30029  11.147   3.262   0.470
68499W        W30030  17.702  41.422  13.841
68500W        W30031  26.981  13.137  14.798
68501W        W30032  24.095  41.446   0.382
68502W        W30033  44.438  37.494   3.156
68503W        W30034  40.354  22.724   1.885
68504W        W30035  21.161  44.835   2.354
68505W        W30036   1.330  24.017   1.801
68506W        W30037  36.914   3.234  13.411
68507W        W30038  40.538  10.259  11.432
68508W        W30039  13.332   4.230  12.041
68509W        W30040   8.900  19.191  11.858
68510W        W30041  41.521   9.348   5.710
68511W        W30042  13.296  14.183  10.584
68512W        W30043  18.088  37.903   0.453
68513W        W30044  17.679  43.390   1.313
68514W        W30045  30.502  32.465   1.292
68515W        W30046  33.610   6.870  12.922
68516W        W30047  14.796  33.915  14.481
68517W        W30048   4.726  22.234   4.803
68518W        W30049  12.830  30.434   3.368
68519W        W30050  13.797  32.912   1.815
68520W        W30051  11.637  17.577  14.376
68521W        W30052  29.551   5.757   0.818
68522W        W30053   8.295  13.327  14.367
68523W        W30054  11.720  18.268   2.691
68524W        W30055  33.939  34.964   3.167
68525W        W30056   6.344  16.079   1.225
68526W        W30057  22.076  39.461   2.267
68527W        W30058  19.727   7.821  10.576
68528W        W30059  26.561  40.893   3.221
68529W        W30060   4.836  28.623   0.259
68530W        W30061  13.748  12.712  13.496
68531W        W30062  30.611  11.707   2.186
68532W        W30063  32.582   6.696  12.893
68533W        W30064   0.454  42.863   1.260
68534W        W30065  43.451  28.988   5.280
68535W        W30066   7.391  30.478   4.265
68536W        W30067  36.356  33.923  12.503
68537W        W30068  43.813  16.082   2.412
68538W        W30069  32.916   8.828  12.015
68539W        W30070  33.449  19.257  11.883
68540W        W30071  16.110  39.016   0.311
68541W        W30072  39.889   2.306  12.481
68542W        W30073  41.787  39.022  12.500
68543W        W30074  26.187   0.759  12.036
68544W        W30075  38.967   2.432  14.469
68545W        W30076  39.912  34.444  13.987
68546W        W30077   6.735  28.605   0.908
68547W        W30078  25.579  15.763   5.159
68548W        W30079  11.326  30.545   9.646
68549W        W30080  23.676  20.272  10.971
68550W        W30081   0.806  16.803   0.854
68551W        W30082   2.743   4.389  13.534
68552W        W30083  24.120   9.838   3.359
68553W        W30084  12.661  39.456   3.236
68554W        W30085  43.832  20.622  13.862
68555W        W30086  38.549   8.665   0.261
68556W        W30087   8.830   2.316   9.599
68557W        W30088  10.157  26.050   4.269
68558W        W30089   6.322  10.671   0.907
68559W        W30090  38.551  36.954  13.525
68560W        W30091   8.808  24.092   0.386
68561W        W30092  32.139  27.506   2.756
68562W        W30093  14.633  18.563   3.751
68563W        W30094  41.299  19.725  12.893
68564W        W30095  10.821   8.358  13.806
68565W        W30096  35.388   8.761   4.643
68566W        W30097  36.485  14.782   3.696
68567W        W30098  44.487  25.632   2.287
68568W        W30099  25.643  14.611  10.911
68569W        W30100   4.816  39.921  14.909
68570W        W30101  22.683  14.179  10.988
68571W        W30102  28.069  25.994   3.775
68572W        W30103   9.224  20.664   3.651
68573W        W30104  15.737  11.200   2.271
68574W        W30105   9.864   4.297  14.411
68575W        W30106  10.637  44.826   4.792
68576W        W30107  37.522   8.310   9.569
68577W        W30108  31.984  11.624   4.793
68578W        W30109  26.562  15.740  13.054
68579W        W30110   8.314   7.392   3.786
68580W        W30111  42.370  10.366  13.425
68581W        W30112  20.719  40.531  10.908
68582W        W30113  43.783  31.960   0.457
68583W        W30114  26.979  32.607  14.826
68584W        W30115  12.223  41.958  11.066
68585W        W30116  39.912   3.896  14.843
68586W        W30117  16.643  14.715  12.039
68587W        W30118   9.185  31.431  13.046
68588W        W30119  36.464  17.755  10.476
68589W        W30120  22.683   1.414   2.329
68590W        W30121  40.028  41.292   4.834
68591W        W30122  27.112  36.591   3.227
68592W        W30123   2.781   9.838  12.478
68593W        W30124  12.615  10.709   1.263
68594W        W30125  27.006   3.860  13.882
68595W        W30126  35.538  30.657  13.465
68596W        W30127  11.765  15.729  12.869
68597W        W30128  14.811  39.360  13.511
68598W        W30129  39.436  27.482   4.248
68599W        W30130  23.529  35.502  11.404
68600W        W30131  27.595  26.965  13.368
68601W        W30132  29.064  13.702   2.879
68602W        W30133  42.459  28.093   0.441
68603W        W30134   0.427  21.524  13.959
68604W        W30135  42.463  20.656  12.841
68605W        W30136  40.887  39.476  13.958
68606W        W30137  13.689  34.047   3.809
68607W        W30138  18.738  13.228  12.544
68608W        W30139  27.978   0.876  14.420
68609W        W30140   1.435   0.410   2.384
68610W        W30141  12.800  30.465   0.413
68611W        W30142  18.245  30.651   2.315
68612W        W30143   4.937  31.583   3.220
68613W        W30144  24.215  33.976   0.796
68614W        W30145  15.166  37.021  12.010
68615W        W30146  29.529  25.097   3.659
68616W        W30147  40.838  34.995  10.413
68617W        W30148  42.422  34.918  12.881
68618W        W30149  37.457  24.049   2.301
68619W        W30150   3.263  11.829   2.879
68620W        W30151   0.940  18.661   3.227
68621W        W30152  14.821  35.973  12.988
68622W        W30153  43.383  44.428  13.503
68623W        W30154  27.571  26.566   5.262
68624W        W30155  11.128  35.098  13.947
68625W        W30156  22.506  25.574  11.875
68626W        W30157   4.379  35.867  13.890
68627W        W30158  11.282  20.655  13.890
68628W        W30159  41.886   5.780   2.667
68629W        W30160  34.958  39.970  11.097
68630W        W30161   1.268  23.081   0.967
68631W        W30162  21.263  17.704   4.786
68632W        W30163  39.551   0.325   1.236
68633W        W30164  42.513   1.440  14.491
68634W        W30165  38.899  26.180   1.889
68635W        W30166   1.418  30.469  13.364
68636W        W30167  15.596  22.165   3.704
68637W        W30168  26.113   2.775  13.876
68638W        W30169  24.618  22.710  13.378
68639W        W30170  25.522  27.510   2.335
68640W        W30171  34.529  28.009  12.951
68641W        W30172  14.670  44.431   2.696
68642W        W30173  12.360  27.953  11.925
68643W        W30174   9.763  12.648   3.295
68644W        W30175  34.426  26.583   1.796
68645W        W30176   5.217  33.558   1.409
68646W        W30177   8.163   7.687  14.781
68647W        W30178  24.979  26.090  12.861
68648W        W30179  11.801  10.184  14.339
68649W        W30180   6.422  24.547   0.337
68650W        W30181  41.910  11.643  12.395
68651W        W30182  11.357  33.994  11.109
68652W        W30183  32.539  24.606   2.680
68653W        W30184  14.795   6.302   3.648
68654W        W30185  26.990  38.449  11.014
68655W        W30186  43.940  27.143  11.408
68656W        W30187  29.034   8.247   2.680
68657W        W30188   8.665  32.524  12.492
68658W        W30189  41.388  27.509  11.522
68659W        W30190  19.732   3.350   3.268
68660W        W30191   2.815  42.800   2.719
68661W        W30192   0.481  27.501  11.058
68662W        W30193  11.133   1.877  14.945
68663W        W30194   5.750   9.678  14.931
68664W        W30195   1.422  23.191   1.704
68665W        W30196   8.669  35.049  13.976
68666W        W30197  38.989  43.281   1.892
68667W        W30198  41.366  43.498   1.890
68668W        W30199   5.358  28.181   3.676
68669W        W30200  33.069   6.295   4.838
68670W        W30201  10.707  28.952   2.780
68671W        W30202  23.162  13.732   2.834
68672W        W30203  31.027  16.744   5.301
68673W        W30204  25.148  30.642  12.999
68674W        W30205   2.242  33.498   4.661
68675W        W30206  20.641  32.016  14.286
68676W        W30207   7.319  16.160  11.532
68677W        W30208  16.615  22.533   3.835
68678W        W30209  29.924   7.811  11.054
68679W        W30210  21.646  34.929   2.415
68680W        W30211  23.658   6.278   3.846
68681W        W30212  33.543   1.839  13.900
68682W        W30213  42.507  13.763  11.584
68683W        W30214   9.388  25.605   1.907
68684W        W30215   0.343  20.225  11.868
68685W        W30216   0.969  18.612  14.993
68686W        W30217   4.353  29.978   1.888
68687W        W30218  16.124  30.588  12.037
68688W        W30219  43.889  19.634  12.543
68689W        W30220   6.791  15.154  12.823
68690W        W30221  37.963  24.123   2.381
68691W        W30222   6.692  24.999   1.771
68692W        W30223  28.155  12.193   4.134
68693W        W30224  24.658  37.950  11.115
68694W        W30225   6.239  21.729   0.905
68695W        W30226  32.620  20.084  11.885
68696W        W30227  24.040  23.584   0.370
68697W        W30228  14.659  38.499  12.033
68698W        W30229  12.194  14.266  11.498
68699W        W30230  31.954  21.079  11.127
68700W        W30231  37.956  19.231  14.481
68701W        W30232  10.142  11.631  12.526
68702W        W30233   5.226  37.411   0.765
68703W        W30234  14.144  42.889   4.352
68704W        W30235   6.315  42.377   3.282
68705W        W30236  43.380  11.145  11.086
68706W        W30237  42.932  12.141  13.475
68707W        W30238  12.227  11.165  12.470
68708W        W30239  14.267   4.419   4.116
68709W        W30240   6.182   1.350   2.319
68710W        W30241  30.415  29.139  13.038
68711W        W30242  23.677  40.332   0.817
68712W        W30243   0.270  42.414  11.885
68713W        W30244   2.934   5.747  11.429
68714W        W30245  18.639   8.249  14.479
68715W        W30246  28.523  14.270   3.204
68716W        W30247  34.473  22.172  14.501
68717W        W30248  35.011  14.155  11.590
68718W        W30249  14.163  21.550  11.420
68719W        W30250   5.312  38.940   4.279
68720W        W30251  12.188  29.558   2.313
68721W        W30252  20.573  22.054   4.605
68722W        W30253  18.787  28.651   1.804
68723W        W30254   6.200   0.949   1.298
68724W        W30255  31.601  24.225  14.491
68725W        W30256  25.194   9.709  13.515
68726W        W30257   0.976  11.759   2.856
68727W        W30258  11.866  15.215   3.636
68728W        W30259  13.292   6.220  13.908
68729W        W30260  36.403  28.963  10.590
68730W        W30261  20.139  42.790  13.976
68731W        W30262  36.477  38.075  12.567
68732W        W30263  15.591  43.312  13.900
68733W        W30264  25.518  10.692   2.273
68734W        W30265  40.350  21.522   2.291
68735W        W30266  31.930   0.884  14.293
68736W        W30267  28.142  14.601   4.644
68737W        W30268  24.103  36.475   3.235
68738W        W30269  33.492  18.136   3.160
68739W        W30270  32.494  38.943  11.940
68740W        W30271  31.477  23.705   3.236
68741W        W30272  20.768  17.769   2.693
68742W        W30273  29.645  24.606  12.947
68743W        W30274  33.880  19.274  10.994
68744W        W30275   0.445   1.823   4.322
68745W        W30276   2.313  38.334  12.551
68746W        W30277  42.913  29.510  11.579
68747W        W30278  23.658  28.557  13.487
68748W        W30279  11.262  16.661  14.939
68749W        W30280  20.551  39.972  14.933
68750W        W30281  36.488  43.995  11.057
68751W        W30282  18.263  12.645  10.964
68752W        W30283   3.317  29.063   1.287
68753W        W30284   2.310  23.003   3.303
68754W        W30285  27.189   1.426  14.414
68755W        W30286  33.075   6.247   0.747
68756W        W30287  12.790  10.718  12.907
68757W        W30288   1.397  19.210   3.687
68758W        W30289  12.751  35.988  13.891
68759W        W30290   3.881  10.189  14.818
68760W        W30291   5.899  29.488   3.154
68761W        W30292  23.211   6.395   1.367
68762W        W30293   5.391  28.583   0.455
68763W        W30294  27.110  33.532  10.441
68764W        W30295  35.387  17.713   1.804
68765W        W30296  35.941  28.944  14.814
68766W        W30297  27.014  34.993  13.994
68767W        W30298  12.644  41.831  13.967
68768W        W30299  44.871   8.248   2.246
68769W        W30300  27.943   4.439   1.326
68770W        W30301   7.366  36.458   0.367
68771W        W30302   6.412  33.622   3.191
68772W        W30303   4.776  37.058   2.361
68773W        W30304  18.713  29.993  11.556
68774W        W30305  36.060  44.293  13.922
68775W        W30306  11.715  32.031   3.728
68776W        W30307  22.607  37.988  13.522
68777W        W30308   7.881  39.887   3.687
68778W        W30309   9.171  39.409  12.079
68779W        W30310  33.411  15.113  14.994
68780W        W30311  18.757  43.316   4.208
68781W        W30312  30.109  19.195  10.986
68782W        W30313  28.025  16.623  12.053
68783W        W30314  17.699  17.285  11.092
68784W        W30315  14.242  15.685   2.306
68785W        W30316   2.292  44.853  14.328
68786W        W30317  15.600   4.330   0.890
68787W        W30318   1.918  31.055  14.994
68788W        W30319  19.279  31.405   1.216
68789W        W30320   4.895  22.126   0.905
68790W        W30321  24.049  43.800   4.235
68791W        W30322   3.905  18.721   3.308
68792W        W30323   9.646   3.827  14.514
68793W        W30324  36.435  30.045  14.403
68794W        W30325   6.379  40.486  12.050
68795W        W30326  18.238  38.540   0.745
68796W        W30327  16.660  13.662   4.341
68797W        W30328   8.839  16.704  13.339
68798W        W30329   0.431  16.586  13.964
68799W        W30330   3.902  23.067   0.431
68800W        W30331   5.338   0.438   2.274
68801W        W30332  37.876  19.686   4.734
68802W        W30333  25.981  32.466   2.881
68803W        W30334  40.521  30.927  13.420
68804W        W30335  18.157  32.088  13.823
68805W        W30336   4.406  20.054   0.302
68806W        W30337   9.204  15.195   4.267
68807W        W30338  36.872  29.066   2.361
68808W        W30339  35.889  29.998   2.405
68809W        W30340  13.348   7.673  12.953
68810W        W30341  31.022  31.060  12.837
68811W        W30342  13.743  10.806  13.470
68812W        W30343  14.671  23.516   2.818
68813W        W30344  31.406  11.182   0.870
68814W        W30345  37.357  44.388  13.906
68815W        W30346  39.528   2.373  12.498
68816W        W30347  39.929  35.438   0.398
68817W        W30348  16.666  13.675  13.455
68818W        W30349  38.523  36.893   5.253
68819W        W30350  12.781   0.748   3.658
68820W        W30351   2.752  24.688   0.837
68821W        W30352  28.127  12.647   2.754
68822W        W30353  36.539  12.283  12.362
68823W        W30354  29.025  35.426   1.442
68824W        W30355  33.463  34.009  13.497
68825W        W30356  21.027  18.172  13.319
68826W        W30357  37.087  42.943   2.337
68827W        W30358   5.730  43.785  11.953
68828W        W30359  26.625  22.183   1.768
68829W        W30360  30.062  17.079   4.748
68830W        W30361   3.433  11.844  10.934
68831W        W30362  17.589  43.939  13.987
68832W        W30363  36.391  10.830  13.874
68833W        W30364  40.308   7.758  14.333
68834W        W30365   8.875  31.040  12.852
68835W        W30366  24.519  24.724  14.012
68836W        W30367  24.991  17.238   3.171
68837W        W30368  17.117  17.193   1.907
68838W        W30369   6.370  15.088  13.440
68839W        W30370  32.594  29.643  10.477
68840W        W30371  26.677  39.927  13.987
68841W        W30372   8.267   0.473   2.358
68842W        W30373  22.631  14.718   1.873
68843W        W30374  30.466  41.434   2.361
68844W        W30375  16.773  30.553  10.992
68845W        W30376  32.122   4.350  14.490
68846W        W30377  29.595  26.185   3.296
68847W        W30378  13.167  37.997  10.957
68848W        W30379  10.168  23.545   0.411
68849W        W30380  26.954  29.000   1.248
68850W        W30381  39.900  25.106   2.289
68851W        W30382   5.741  31.980   4.714
68852W        W30383  18.197  44.327   1.415
68853W        W30384  35.027  33.535  13.970
68854W        W30385  23.632  33.608  12.047
68855W        W30386  28.023  12.626  13.857
68856W        W30387  11.172   1.483   3.668
68857W        W30388  20.208  17.789  12.560
68858W        W30389  26.681  12.243   4.155
68859W        W30390  39.921  14.612   0.339
68860W        W30391  24.541   4.237   4.353
68861W        W30392  13.686  43.391   3.368
68862W        W30393   3.921  14.618   4.270
68863W        W30394  41.902  20.237  11.091
68864W        W30395  40.369  21.262   4.319
68865W        W30396   8.794  36.440  10.458
68866W        W30397  33.498  18.550   2.373
68867W        W30398  23.667  20.195   4.681
68868W        W30399  36.385  32.481  13.364
68869W        W30400  25.579  29.024  13.045
68870W        W30401   6.852  38.957   2.238
68871W        W30402  12.212  37.043   2.349
68872W        W30403  13.212  10.234   2.670
68873W        W30404  38.064   2.296   0.921
68874W        W30405  27.992  29.104   2.778
68875W        W30406  33.122   6.368   0.292
68876W        W30407  34.879  21.228  10.899
68877W        W30408  21.540  31.539  11.018
68878W        W30409  27.145  20.744  11.937
68879W        W30410  23.004   9.788   4.238
68880W        W30411   4.770  15.209   2.265
68881W        W30412  12.352  35.431  14.396
68882W        W30413  21.085  27.960  11.992
68883W        W30414  31.632  14.324   4.123
68884W        W30415  19.675  25.093  11.432
68885W        W30416  40.363  30.576   5.153
68886W        W30417  25.522  44.007  14.873
68887W        W30418  24.532  37.030   2.402
68888W        W30419  34.019  33.889  10.965
68889W        W30420  23.580  36.485  11.895
68890W        W30421  38.402   9.786  11.856
68891W        W30422  21.239  10.331   1.868
68892W        W30423  18.147  40.839  11.120
68893W        W30424   4.819  23.228  12.565
68894W        W30425  41.450  33.549   1.826
68895W        W30426  43.790  22.596  13.844
68896W        W30427  14.291  41.472  11.587
68897W        W30428  42.489  44.844   3.340
68898W        W30429   1.796  25.640  13.512
68899W        W30430  34.942  14.171  12.509
68900W        W30431   3.873  15.260  14.983
68901W        W30432  13.297  30.587  12.934
68902W        W30433  36.352  29.139   3.824
68903W        W30434  21.134  21.113  11.048
68904W        W30435  37.505  18.680   5.194
68905W        W30436  34.867  27.972   4.713
68906W        W30437  42.991   6.918   2.829
68907W        W30438  28.642   8.202  14.314
68908W        W30439  10.829   5.393   0.284
68909W        W30440  17.172  29.640  11.953
68910W        W30441  39.962  36.051   0.476
68911W        W30442  21.122  36.082  13.394
68912W        W30443   1.828   6.854   3.290
68913W        W30444   1.340   0.286  11.885
68914W        W30445  12.356  36.477   2.831
68915W        W30446  35.030  32.432  12.465
68916W        W30447   4.342   4.805   2.768
68917W        W30448  34.018  42.363  12.922
68918W        W30449  19.682  20.615  13.433
68919W        W30450   5.891  34.529  14.374
68920W        W30451  18.173  30.907   2.901
68921W        W30452  14.253  39.482   0.886
68922W        W30453  12.347  36.559   0.915
68923W        W30454  19.621   6.220   0.359
68924W        W30455  19.249  32.552  14.311
68925W        W30456  17.575  28.115   0.371
68926W        W30457  22.686  11.760  12.566
68927W        W30458  39.963   9.285   2.875
68928W        W30459  10.816  28.997   3.278
68929W        W30460  11.139  32.980  10.442
68930W        W30461  43.997  16.580   2.226
68931W        W30462  33.116  20.600   0.379
68932W        W30463  10.198  33.525  14.915
68933W        W30464   2.281  39.490  11.117
68934W        W30465   4.287  41.898   2.273
68935W        W30466   4.331   6.871  13.407
68936W        W30467  18.581  28.512   3.199
68937W        W30468   4.237  30.434  11.076
68938W        W30469  34.099  18.659  14.497
68939W        W30470  14.245  26.601   0.921
68940W        W30471  24.504  43.278   3.372
68941W        W30472  42.954  21.139  13.853
68942W        W30473  22.042  20.675   3.710
68943W        W30474   4.814   4.828  11.567
68944W        W30475  30.047  26.524   3.651
68945W        W30476   3.332  21.661  12.521
68946W        W30477  16.789  17.146  12.975
68947W        W30478  44.921   7.809   2.338
68948W        W30479  16.705  42.820   5.153
68949W        W30480  42.802  41.401   4.334
68950W        W30481   7.294  41.464  13.491
68951W        W30482  18.686   2.778  12.499
68952W        W30483  10.328  12.654   4.312
68953W        W30484  14.249   9.733   2.801
68954W        W30485  36.383  38.327   9.574
68955W        W30486   9.890  32.545  12.418
68956W        W30487  23.629  15.307   2.321
68957W        W30488  38.569  11.842   3.778
68958W        W30489  35.402  22.546  12.569
68959W        W30490  15.597  34.077   2.364
68960W        W30491   6.380  41.985   1.919
68961W        W30492  20.654  34.970  12.904
68962W        W30493  27.002  12.821  10.527
68963W        W30494  14.161  11.801   3.151
68964W        W30495   1.796   4.744   4.622
68965W        W30496  34.071  43.422   3.260
68966W        W30497  44.893  14.691  13.929
68967W        W30498  13.733   2.920  10.964
68968W        W30499   1.451  39.891  11.058
68969W        W30500   7.894  29.067  11.910
68970W        W30501   7.216  27.986  14.011
68971W        W30502  42.893  22.581  13.429
68972W        W30503  40.499   6.267  12.014
68973W        W30504  37.030  41.830  13.814
68974W        W30505  35.949  19.078  12.489
68975W        W30506  21.147   1.752  11.563
68976W        W30507  18.609  36.410   2.407
68977W        W30508  20.142  15.290   2.215
68978W        W30509   4.419   9.373   3.374
68979W        W30510  18.651   3.867   4.184
68980W        W30511   7.318   9.345   0.964
68981W        W30512  26.635   8.366  12.352
68982W        W30513   9.645  17.133   3.238
68983W        W30514  28.481   0.476  13.530
68984W        W30515   6.868  44.001   4.233
68985W        W30516  36.538  36.377  12.986
68986W        W30517  40.335   5.861  12.889
68987W        W30518  14.680  32.575   3.767
68988W        W30519  11.627  19.089  14.989
68989W        W30520  18.078   1.316  14.849
68990W        W30521  28.039   0.266   2.703
68991W        W30522  18.191  35.525   1.284
68992W        W30523   2.817  25.208   2.282
68993W        W30524  17.780   3.425   4.793
68994W        W30525  20.097  16.574   4.324
68995W        W30526  22.102  34.599  13.308
68996W        W30527  24.089  16.233  14.462
68997W        W30528  28.963  29.606   3.727
68998W        W30529  28.641  21.668   0.345
68999W        W30530   9.757  35.507  11.454
69000W        W30531  10.766  32.961  13.473
69001W        W30532  20.177  17.783   3.793
69002W        W30533  13.188  30.976   4.692
69003W        W30534  30.162  23.618   4.795
69004W        W30535   3.738  23.018   0.883
69005W        W30536   1.258   2.471  12.419
69006W        W30537   9.189  35.954  10.562
69007W        W30538  42.833  40.474   0.281
69008W        W30539   3.362  38.901  13.394
69009W        W30540  38.529  13.340   1.927
69010W        W30541  11.291  41.935  11.968
69011W        W30542  11.867  41.463  13.471
69012W        W30543  17.077  34.981  10.625
69013W        W30544   1.265  27.609   0.435
69014W        W30545  22.183  39.040   1.299
69015W        W30546  33.046   3.807   3.735
69016W        W30547   7.677  15.230  14.426
69017W        W30548  16.784   8.345  11.099
69018W        W30549  42.936   0.358  14.946
69019W        W30550  23.009  38.869  14.763
69020W        W30551  40.455  42.789   3.363
69021W        W30552  16.704  39.464   1.919
69022W        W30553   8.781  38.396   0.913
69023W        W30554  13.345  31.130  10.443
69024W        W30555   7.181  28.017  13.061
69025W        W30556  39.438  23.030  13.314
69026W        W30557  13.207  33.110   4.173
69027W        W30558  12.708  17.270  14.029
69028W        W30559  27.162  30.480   2.837
69029W        W30560  18.613  38.509  10.978
69030W        W30561  40.464  34.429   1.871
69031W        W30562  19.749  12.239  12.359
69032W        W30563  29.956  36.873  13.879
69033W        W30564  32.105  14.703   1.912
69034W        W30565  16.200  38.973   9.928
69035W        W30566  36.988  26.642   3.307
69036W        W30567   7.194  35.938   4.759
69037W        W30568  11.201   6.865   2.888
69038W        W30569  34.378   1.481  14.304
69039W        W30570   9.356  37.557  12.541
69040W        W30571  28.461  27.153   0.282
69041W        W30572  26.116   5.732  12.930
69042W        W30573  37.021  14.684   4.345
69043W        W30574  30.647  31.589  10.629
69044W        W30575   8.355  10.813   1.784
69045W        W30576   7.686  40.943   3.305
69046W        W30577  33.603  23.167   3.292
69047W        W30578  15.770  43.006  12.424
69048W        W30579  20.184  28.098   3.323
69049W        W30580  40.888  27.587   4.263
69050W        W30581  20.120   9.656   2.220
69051W        W30582  13.243  25.035   0.247
69052W        W30583  37.435  28.983  12.900
69053W        W30584  41.361  43.355  10.524
69054W        W30585  13.322  13.334  12.544
69055W        W30586  28.493  31.543   3.192
69056W        W30587  36.050  22.741  11.997
69057W        W30588  16.687  37.879  10.592
69058W        W30589  17.234  31.591  14.467
69059W        W30590  39.038  26.632  14.821
69060W        W30591   8.706   6.708   3.341
69061W        W30592  10.815   3.766   5.565
69062W        W30593   1.415  40.324  10.569
69063W        W30594  20.703  35.592   2.402
69064W        W30595   4.787  30.587  11.999
69065W        W30596  34.972  18.211  12.450
69066W        W30597  19.041  41.339  13.440
69067W        W30598  16.254  32.128   1.721
69068W        W30599  36.060  42.924   0.920
69069W        W30600  35.560  29.605  13.040
69070W        W30601  40.000  27.940   1.239
69071W        W30602  20.199  36.868  10.627
69072W        W30603  12.766  14.320   2.881
69073W        W30604  28.633   9.870   0.471
69074W        W30605  43.967   5.829  12.889
69075W        W30606  38.902   9.262   3.838
69076W        W30607  19.108  36.406   1.345
69077W        W30608  21.649  38.855  12.051
69078W        W30609  18.783  10.689   4.163
69079W        W30610  39.949  27.183   4.285
69080W        W30611  23.572  32.560  13.956
69081W        W30612  32.965  37.951   0.834
69082W        W30613  23.163  33.404   0.795
69083W        W30614   3.825  25.159   1.251
69084W        W30615  16.205   8.782   3.196
69085W        W30616  42.425  27.650  13.912
69086W        W30617  26.492  11.682   2.731
69087W        W30618  29.139  35.513   2.704
69088W        W30619   7.786  10.275  13.049
69089W        W30620  32.003   9.277  10.977
69090W        W30621  34.371  10.746   2.356
69091W        W30622  34.430  19.688  10.443
69092W        W30623  27.606  29.134   1.930
69093W        W30624   9.830  37.337  12.532
69094W        W30625  18.076  24.586   9.980
69095W        W30626  39.884  37.377  11.425
69096W        W30627  12.362  37.392  14.772
69097W        W30628  22.616  11.176  11.525
69098W        W30629   3.280  44.004  13.329
69099W        W30630  34.887  31.012  14.999
69100W        W30631  12.267  27.117  10.560
69101W        W30632  34.603  10.740   0.884
69102W        W30633   1.336   5.733   1.803
69103W        W30634   6.258  19.064   4.260
69104W        W30635  38.953  34.952   1.901
69105W        W30636  23.099  40.448  14.776
69106W        W30637  40.350  34.995   2.362
69107W        W30638  13.694  43.514   2.772
69108W        W30639   3.441  33.440   2.227
69109W        W30640   1.921  32.440   4.268
69110W        W30641  17.110   1.480  14.920
69111W        W30642   2.247  16.082  12.888
69112W        W30643  18.787  27.452   0.275
69113W        W30644   8.370  39.545   1.307
69114W        W30645  31.613  35.555   0.852
69115W        W30646  29.092  42.943  12.949
69116W        W30647  19.547   2.432  11.061
69117W        W30648  27.488  15.301   2.692
69118W        W30649  30.947  41.994   4.299
69119W        W30650  32.519  33.932  12.061
69120W        W30651  25.010  10.317   0.788
69121W        W30652  25.050  22.691   2.378
69122W        W30653  44.323  16.196  11.604
69123W        W30654  38.350  31.902   5.225
69124W        W30655  44.959  43.801  11.468
69125W        W30656   1.827  23.028  14.000
69126W        W30657  38.912  29.002   2.728
69127W        W30658  22.172  34.612  12.851
69128W        W30659   5.378  23.638  14.286
69129W        W30660   5.246  29.461  14.418
69130W        W30661  17.207  32.057   5.223
69131W        W30662  10.686  16.209   3.281
69132W        W30663   7.301  44.866   1.251
69133W        W30664  44.770  15.771  14.775
69134W        W30665   7.864  35.038  11.454
69135W        W30666  23.716  29.642  14.458
69136W        W30667   7.405  21.519  13.449
69137W        W30668   6.892   1.450   5.621
69138W        W30669  39.848  13.250  14.368
69139W        W30670  44.809  39.878   3.760
69140W        W30671   6.396  44.448   2.192
69141W        W30672   9.847  43.312   3.255
69142W        W30673  18.261   0.331   4.259
69143W        W30674  40.437  38.037   2.708
69144W        W30675  35.002  15.757  12.365
69145W        W30676   9.788   3.951   4.832
69146W        W30677  10.638   3.762  10.509
69147W        W30678   3.306  37.085  10.512
69148W        W30679  34.897  42.000   9.987
69149W        W30680  27.180  13.207   1.309
69150W        W30681  37.356  35.013   2.312
69151W        W30682   9.649  30.556  13.421
69152W        W30683  33.524  10.273  13.485
69153W        W30684  16.109  44.363   0.458
69154W        W30685  19.256  16.569   2.852
69155W        W30686  41.522  11.859   5.268
69156W        W30687  31.531   6.346   2.343
69157W        W30688   4.246   6.207  12.828
69158W        W30689  10.747  22.724   2.186
69159W        W30690  20.030  22.036   4.349
69160W        W30691  40.974  29.423   4.834
69161W        W30692  17.776  22.032  14.421
69162W        W30693  44.849   5.746  11.593
69163W        W30694  41.971  42.787  12.095
69164W        W30695   8.390  25.015   0.750
69165W        W30696  35.917  20.737   3.173
69166W        W30697  13.201  34.583  14.871
69167W        W30698  38.326  14.280   2.214
69168W        W30699  17.744  38.893   2.819
69169W        W30700   5.201   0.327  14.510
69170W        W30701  43.800  39.386  12.840
69171W        W30702  16.788   8.885  14.807
69172W        W30703  22.196   5.756   2.676
69173W        W30704  12.771  15.290   2.787
69174W        W30705  29.496  41.316   4.119
69175W        W30706   3.769  17.304  12.907
69176W        W30707  28.125  24.006   0.870
69177W        W30708   0.262  43.337   3.268
69178W        W30709  26.952  43.351   1.731
69179W        W30710  23.200  25.052   1.222
69180W        W30711   1.358   4.312   0.858
69181W        W30712  13.243   6.385   3.307
69182W        W30713   6.797  31.567   2.390
69183W        W30714   0.419  34.607  14.498
69184W        W30715   1.738  32.018  11.089
69185W        W30716  26.133  38.493  14.812
69186W        W30717  17.300   7.383  12.541
69187W        W30718  40.901  29.514   0.375
69188W        W30719   7.702  18.129  13.451
69189W        W30720  32.982  41.926  11.059
69190W        W30721  43.814  12.159   4.118
69191W        W30722  44.369  31.518  14.384
69192W        W30723  30.989  27.974   0.806
69193W        W30724  22.669  27.011  13.797
69194W        W30725  27.520  10.360  14.876
69195W        W30726  34.381   6.408  10.889
69196W        W30727  22.511  14.192  10.081
69197W        W30728  28.464  41.373  14.322
69198W        W30729  25.660  32.521   0.914
69199W        W30730  21.056   6.854   0.768
69200W        W30731  19.162  19.261  14.354
69201W        W30732   7.725  18.243  13.053
69202W        W30733   2.902   0.831  11.860
69203W        W30734  13.776  41.451  13.860
69204W        W30735  40.036  42.296   2.387
69205W        W30736  20.059  44.262  11.856
69206W        W30737  23.560  43.295  12.833
69207W        W30738  44.360  26.487  11.541
69208W        W30739  23.135  39.500   2.370
69209W        W30740   3.322  19.552   3.248
69210W        W30741  33.949  14.267   2.273
69211W        W30742  35.539  28.466  11.456
69212W        W30743   0.761  11.630  13.981
69213W        W30744   9.354  26.989   2.255
69214W        W30745  25.566  35.010  13.851
69215W        W30746   8.290  18.224   0.388
69216W        W30747  34.040  27.581   0.880
69217W        W30748  44.470  11.637  14.971
69218W        W30749  41.926  29.549   0.914
69219W        W30750  23.050  11.866  13.821
69220W        W30751  24.601   9.730   1.771
69221W        W30752   4.319  28.492  12.518
69222W        W30753  14.168   8.255  11.856
69223W        W30754  31.515  29.043   1.359
69224W        W30755  16.786  22.621   0.931
69225W        W30756  20.215   2.737  14.925
69226W        W30757  40.360  14.290   2.231
69227W        W30758   5.846  31.905  14.286
69228W        W30759  10.863  16.686   4.291
69229W        W30760  22.208   0.366  12.971
69230W        W30761  38.464  20.133   0.939
69231W        W30762  18.266  19.252  12.503
69232W        W30763  43.792  25.579  12.977
69233W        W30764  38.964   3.283   2.746
69234W        W30765  32.602  40.052   3.723
69235W        W30766  10.673  42.364   3.343
69236W        W30767  29.989  20.679   1.924
69237W        W30768  34.875  30.951  12.857
69238W        W30769  37.532  25.992  14.791
69239W        W30770   1.748  35.535   2.243
69240W        W30771   4.416   7.224   4.651
69241W        W30772  23.549  17.185   2.204
69242W        W30773  40.028  15.671   0.766
69243W        W30774   2.378   3.369  13.348
69244W        W30775  34.869  13.839   0.946
69245W        W30776   3.769  33.552  13.994
69246W        W30777  42.880  34.575  13.474
69247W        W30778  36.953  37.965  12.896
69248W        W30779  33.431  21.082   3.213
69249W        W30780   2.857   6.839   4.679
69250W        W30781   1.844  38.868   1.914
69251W        W30782  25.063  35.943   2.390
69252W        W30783  15.719  44.274   2.229
69253W        W30784  30.653  17.709   4.692
69254W        W30785  41.835   4.253   3.234
69255W        W30786   2.925  25.625   4.811
69256W        W30787  38.824   1.742   3.173
69257W        W30788   5.729  28.551   2.277
69258W        W30789  30.039  43.324   4.822
69259W        W30790  25.967   5.930  14.936
69260W        W30791  20.764   8.283   4.267
69261W        W30792  42.783  42.366  13.020
69262W        W30793  11.856  36.909   1.861
69263W        W30794  33.933  42.864  10.915
69264W        W30795  34.552  13.675  11.110
69265W        W30796  24.031  38.867   1.930
69266W        W30797  29.477  29.157  12.526
69267W        W30798  15.205  32.545  13.435
69268W        W30799  27.965  39.883  10.514
69269W        W30800  33.401  36.365  11.994
69270W        W30801  30.479  42.866   1.843
69271W        W30802  38.841  21.690   3.753
69272W        W30803  35.108  43.336   4.755
69273W        W30804  15.721  38.977  11.106
69274W        W30805  36.097  17.566  14.994
69275W        W30806  44.414  26.113   0.775
69276W        W30807  29.955  34.454   3.870
69277W        W30808  18.675  21.576  10.620
69278W        W30809  36.584  21.196   4.181
69279W        W30810  43.324  26.477   2.756
69280W        W30811  32.456  44.302  13.490
69281W        W30812  34.524  20.546   2.857
69282W        W30813  31.001  39.943  11.976
69283W        W30814  37.832  18.759   3.185
69284W        W30815  13.759  37.050  10.540
69285W        W30816  26.043  16.634   3.326
69286W        W30817   3.333  23.658  13.873
69287W        W30818  11.822   4.708   0.325
69288W        W30819  41.042  26.500   0.353
69289W        W30820  34.523  11.294  12.575
69290W        W30821   6.273  18.071  14.322
69291W        W30822  40.801  38.010   3.384
69292W        W30823  41.297  30.128  11.028
69293W        W30824  18.083  38.947   5.295
69294W        W30825  20.691  13.273  13.445
69295W        W30826  41.923  27.990   1.317
69296W        W30827   2.378  14.695   0.265
69297W        W30828  34.010  12.225  11.573
69298W        W30829  35.023  44.764  11.438
69299W        W30830   8.830   7.734   4.223
69300W        W30831  12.631  40.904  14.512
69301W        W30832   3.449  16.612   2.193
69302W        W30833  36.092  29.577   1.860
69303W        W30834   0.481  37.832   3.712
69304W        W30835   7.815  16.587  10.554
69305W        W30836  15.181   6.733  10.422
69306W        W30837   3.796  40.942  14.022
69307W        W30838  24.197  21.597   0.734
69308W        W30839  43.489  34.494  12.999
69309W        W30840  30.091  21.173   0.301
69310W        W30841  14.263  41.443   4.699
69311W        W30842  11.284  37.540  13.062
69312W        W30843   1.759  34.599   4.215
69313W        W30844  21.067  37.861   2.404
69314W        W30845  33.623  35.586   2.902
69315W        W30846   1.237  24.174  13.985
69316W        W30847  43.958   7.767   3.198
69317W        W30848  15.586   7.188  14.420
69318W        W30849  23.066   6.852  11.858
69319W        W30850  10.736  34.557  13.534
69320W        W30851  33.385  23.699   2.292
69321W        W30852  28.498  32.037   2.393
69322W        W30853  15.664  40.440  14.468
69323W        W30854  11.336  32.465  12.969
69324W        W30855  44.994  15.147  10.936
69325W        W30856   2.947  25.536  11.453
69326W        W30857  24.008   0.977   3.810
69327W        W30858  14.323  37.009   4.339
69328W        W30859  31.582   3.395  11.594
69329W        W30860  16.248  42.498  11.070
69330W        W30861  27.657  19.718  14.917
69331W        W30862  19.754   2.784  13.500
69332W        W30863   1.275  25.496  13.935
69333W        W30864  43.428  12.750  11.019
69334W        W30865  24.633  42.930   1.229
69335W        W30866  13.289  29.660   0.963
69336W        W30867  38.009  41.460   0.756
69337W        W30868  42.805  29.483   3.229
69338W        W30869  18.603  21.558   2.810
69339W        W30870  27.120   2.317  10.625
69340W        W30871  42.779   2.761  14.990
69341W        W30872  35.508  12.793   3.306
69342W        W30873  27.179  17.064  11.551
69343W        W30874  41.874   7.270   4.652
69344W        W30875   4.316  27.487  11.869
69345W        W30876   6.199  18.581  12.879
69346W        W30877  26.983   3.719  13.048
69347W        W30878  12.732  21.675  13.967
69348W        W30879  21.741   3.872   4.616
69349W        W30880  42.471  16.741  13.416
69350W        W30881  33.539  18.131  10.071
69351W        W30882   7.372  20.651   0.825
69352W        W30883  33.583  18.767   1.230
69353W        W30884  15.268  27.685   0.454
69354W        W30885  22.577   6.843  11.880
69355W        W30886  23.010   1.804  13.896
69356W        W30887  31.932  39.554  13.043
69357W        W30888   6.280  39.396  14.918
69358W        W30889  31.102  29.609  12.021
69359W        W30890  19.713  11.741   4.663
69360W        W30891  14.822  23.664   5.284
69361W        W30892  26.164  13.709  14.849
69362W        W30893   5.331  35.467  12.046
69363W        W30894  33.061  43.865  11.045
69364W        W30895  19.663  12.775   0.396
69365W        W30896   6.251  26.968  11.115
69366W        W30897  27.003  34.914  11.573
69367W        W30898   4.450   2.861  14.958
69368W        W30899   8.202  44.336   3.732
69369W        W30900  21.730   7.784   0.848
69370W        W30901   4.219  14.750  13.861
69371W        W30902   2.428   0.443  12.923
69372W        W30903  14.800  40.316   1.234
69373W        W30904   1.369   1.256   1.753
69374W        W30905  42.521   5.284  11.490
69375W        W30906  24.535  33.129   2.719
69376W        W30907  36.981  37.964   2.737
69377W        W30908  23.696  31.917  12.826
69378W        W30909  14.750  23.620  14.933
69379W        W30910   1.345  23.670  11.123
69380W        W30911   8.280   2.793  12.481
69381W        W30912  11.782  33.575  13.339
69382W        W30913  10.158  37.417   4.317
69383W        W30914  27.544   4.206  14.413
69384W        W30915  28.182  41.310   1.282
69385W        W30916   6.787  15.097   4.204
69386W        W30917  37.049   8.870   1.450
69387W        W30918  38.446  20.749  10.490
69388W        W30919  26.035  34.997   0.293
69389W        W30920  26.059  43.444  12.392
69390W        W30921  18.572  22.682   0.248
69391W        W30922  31.606  13.165  13.007
69392W        W30923  41.373   2.834   0.353
69393W        W30924   6.678  11.783   1.416
69394W        W30925  12.256  34.528  11.611
69395W        W30926  31.539  44.851   1.881
69396W        W30927  21.757  17.195  14.334
69397W        W30928  17.734  33.500  14.350
69398W        W30929  11.696   2.955   0.354
69399W        W30930  30.418   3.840   5.155
69400W        W30931  14.592   3.380   1.226
69401W        W30932  13.625  23.230  14.883
69402W        W30933  21.050  10.778  12.542
69403W        W30934  17.791  25.076   0.433
69404W        W30935  39.855   2.862  11.405
69405W        W30936  44.442  33.096  13.497
69406W        W30937  29.564   7.371  12.882
69407W        W30938   5.707  18.270   3.333
69408W        W30939  37.026  12.710   0.408
69409W        W30940  19.057  14.264   1.743
69410W        W30941   2.949   6.729   4.167
69411W        W30942   0.952  43.377   0.758
69412W        W30943  37.425  33.938   2.230
69413W        W30944  38.073  17.210   0.349
69414W        W30945   2.245  35.091   2.405
69415W        W30946  13.802  25.676   4.121
69416W        W30947  38.939  12.828  12.017
69417W        W30948  36.424  34.873   3.704
69418W        W30949  27.964   8.663   0.852
69419W        W30950   4.747   1.353  13.379
69420W        W30951  40.546  30.017  14.967
69421W        W30952  28.536   7.744   4.727
69422W        W30953  36.861  44.479  14.801
69423W        W30954   1.784  30.133   1.237
69424W        W30955  34.951  13.172   2.723
69425W        W30956  13.164   8.213  13.895
69426W        W30957  43.885   3.363   2.733
69427W        W30958  18.081  35.880   4.315
69428W        W30959   4.262   5.932  10.422
69429W        W30960  26.066  19.216  12.830
69430W        W30961  23.730   2.947  12.502
69431W        W30962  34.915   5.408  13.339
69432W        W30963  26.638  18.638  11.072
69433W        W30964  29.634  16.599   3.788
69434W        W30965  38.865  24.068  12.044
69435W        W30966  23.197  24.653  13.445
69436W        W30967  33.535   1.261  13.944
69437W        W30968  41.301  12.301  11.499
69438W        W30969   0.949  39.879   2.897
69439W        W30970   8.776  27.990   2.377
69440W        W30971  32.557   3.869   3.371
69441W        W30972  19.770  19.141  11.947
69442W        W30973  41.934   7.855   4.752
69443W        W30974  42.377  13.771   2.705
69444W        W30975  19.091  32.044  12.995
69445W        W30976   2.908  23.192  12.525
69446W        W30977  27.579   1.254  11.592
69447W        W30978  35.493   9.366   1.803
69448W        W30979  18.711  18.133  10.947
69449W        W30980  44.759  35.411   0.403
69450W        W30981  37.546  21.525   4.766
69451W        W30982  26.168  13.703  13.035
69452W        W30983  16.567   7.748  12.382
69453W        W30984  13.309  15.208  10.640
69454W        W30985  17.185   0.251   4.255
69455W        W30986   2.396   6.247  11.095
69456W        W30987  27.593  25.097   4.206
69457W        W30988  31.915  25.991   0.285
69458W        W30989   0.870   2.757   3.823
69459W        W30990  38.862  27.527   1.302
69460W        W30991  44.999  19.631  12.083
69461W        W30992   6.792  39.540   4.767
69462W        W30993  22.234  20.138   4.294
69463W        W30994  35.975  15.293  12.457
69464W        W30995  18.778  28.621   2.663
69465W        W30996  39.063  22.051   3.858
69466W        W30997  40.535   7.279   3.708
69467W        W30998  29.442   3.804   0.768
69468W        W30999  14.284  30.555  11.592
69469W        W31000  14.203   9.195  13.893
69470W        W31001  13.225  44.304  11.464
69471W        W31002  24.642  17.724   4.116
69472W        W31003   4.391   7.856   2.726
69473W        W31004  19.069   3.883   3.179
69474W        W31005  23.507   6.807   1.889
69475W        W31006  19.772   9.253   0.947
69476W        W31007   7.671  38.829   0.865
69477W        W31008   1.460  42.786  11.568
69478W        W31009  30.082  29.592  13.406
69479W        W31010  34.924  36.880   3.353
69480W        W31011  16.702  42.281   4.200
69481W        W31012  15.143  17.086  13.360
69482W        W31013   4.255  36.461   0.356
69483W        W31014   0.823  37.374  12.350
69484W        W31015   3.287  25.602   0.792
69485W        W31016  40.334  31.606   1.718
69486W        W31017  11.258  34.544  14.020
69487W        W31018  17.232   7.792   2.769
69488W        W31019  15.244   2.341   1.443
69489W        W31020  37.581  32.970   0.289
69490W        W31021  26.056   9.149   1.714
69491W        W31022  28.558  44.402  11.127
69492W        W31023  36.592  36.888  12.034
69493W        W31024  41.993  22.655  11.421
69494W        W31025   8.739   9.231   4.209
69495W        W31026  19.248  28.525   3.727
69496W        W31027  36.014  29.436  14.822
69497W        W31028   8.342  12.220  13.898
69498W        W31029   6.909  20.093  12.363
69499W        W31030   3.252  29.023   3.343
69500W        W31031  15.664  23.517   0.277
69501W        W31032  33.036  33.933  10.942
69502W        W31033   3.855  22.627  12.453
69503W        W31034  30.443  31.033  14.411
69504W        W31035  21.688  15.217  14.991
69505W        W31036  32.400  36.421  12.032
69506W        W31037   9.384  23.568  10.408
69507W        W31038  17.706  40.959  10.521
69508W        W31039  42.335  29.022  11.059
69509W        W31040  17.667  44.910   0.751
69510W        W31041  25.110   7.895  12.987
69511W        W31042  34.444  23.229  10.444
69512W        W31043  31.957  26.063   5.316
69513W        W31044  41.858  23.571  14.372
69514W        W31045  13.145   5.224  11.115
69515W        W31046  37.407  12.186   4.804
69516W        W31047  19.546   3.717  14.882
69517W        W31048  12.251  34.966  14.836
69518W        W31049  35.893  31.591   4.622
69519W        W31050  26.995  21.587  12.373
69520W        W31051  20.760  23.595   4.258
69521W        W31052  25.543  17.158   9.972
69522W        W31053  27.602  17.623   0.749
69523W        W31054  43.813  19.045   4.826
69524W        W31055  12.706   9.887   3.207
69525W        W31056  21.717  18.264  12.488
69526W        W31057  15.734  20.247  14.789
69527W        W31058  10.799  26.200  11.376
69528W        W31059  13.275  10.687  14.378
69529W        W31060  14.100  25.015   2.300
69530W        W31061  40.826  35.368  11.066
69531W        W31062  29.110  27.541  11.111
69532W        W31063  33.448   5.789   2.319
69533W        W31064   6.200  39.487   3.332
69534W        W31065  41.975  36.967   1.359
69535W        W31066  39.972  31.896   0.959
69536W        W31067  15.653   8.290  14.424
69537W        W31068   9.362   5.312   3.248
69538W        W31069  12.835  41.417   0.438
69539W        W31070  31.505   3.883   2.772
69540W        W31071   1.821   2.322  14.874
69541W        W31072   9.646  26.469  11.507
69542W        W31073  27.990  44.465  12.429
69543W        W31074  19.709  36.502  14.354
69544W        W31075  22.170   6.833  12.016
69545W        W31076   0.329   5.303  13.455
69546W        W31077  12.160  33.405   3.224
69547W        W31078  38.497  22.631   1.799
69548W        W31079  14.607  33.587   1.302
69549W        W31080   8.264   7.297   0.355
69550W        W31081  44.887  36.465  11.087
69551W        W31082  37.986   3.825  11.084
69552W        W31083  39.910  12.263  14.366
69553W        W31084  30.937  34.601   3.703
69554W        W31085  32.931   6.390  11.510
69555W        W31086  21.649  10.720   4.330
69556W        W31087  21.730   5.765  14.897
69557W        W31088   9.678   8.714  14.858
69558W        W31089  23.651  38.968  14.790
69559W        W31090  18.272  31.004   1.250
69560W        W31091  30.539  14.804  13.880
69561W        W31092  21.729  16.683  14.960
69562W        W31093  19.248  21.124  10.503
69563W        W31094  33.926  37.395   1.928
69564W        W31095  38.943  27.196  14.981
69565W        W31096   5.906  44.410   3.354
69566W        W31097   8.164   1.944   3.829
69567W        W31098  23.611  18.170   4.802
69568W        W31099   5.830  43.796  10.456
69569W        W31100  33.963  42.282   3.358
69570W        W31101  38.059  40.533  12.440
69571W        W31102   5.361  11.859  10.920
69572W        W31103  10.868  12.732  14.794
69573W        W31104   6.800  19.545   0.758
69574W        W31105  23.632  12.158   2.383
69575W        W31106  16.187  36.093   2.299
69576W        W31107  38.332  13.729  11.115
69577W        W31108  43.769  41.436  13.492
69578W        W31109  26.575   3.806   4.608
69579W        W31110  20.725  12.731  12.541
69580W        W31111  11.792  13.690  10.481
69581W        W31112   0.402  10.840  11.035
69582W        W31113  36.454  11.153  10.464
69583W        W31114  11.286   9.162  11.465
69584W        W31115   6.835  39.855  11.483
69585W        W31116   1.908   9.325  10.445
69586W        W31117  10.200  10.771   1.794
69587W        W31118  11.719  36.863  11.527
69588W        W31119  40.936   3.785  12.096
69589W        W31120  21.656  28.154  13.448
69590W        W31121  34.520   2.456  13.408
69591W        W31122  13.822   6.275  12.038
69592W        W31123  36.033   7.416  13.033
69593W        W31124  13.238  15.219  13.405
69594W        W31125  20.047  23.709  13.422
69595W        W31126  36.887   6.378   0.934
69596W        W31127  14.126  40.451   3.806
69597W        W31128   0.328  26.692   2.362
69598W        W31129  15.164  21.700  13.838
69599W        W31130   0.287  20.621  12.943
69600W        W31131   4.737   7.713   1.824
69601W        W31132  21.047  15.114  14.370
69602W        W31133  39.460  13.662   4.817
69603W        W31134  35.021  35.091  10.486
69604W        W31135  13.626  18.558   4.785
69605W        W31136  44.325  25.037  10.125
69606W        W31137  31.566  16.787   2.754
69607W        W31138  31.078   6.790   1.919
69608W        W31139  40.037  24.014  14.388
69609W        W31140  27.086  23.615  10.535
69610W        W31141  17.589  41.319   1.867
69611W        W31142  37.059  17.667  14.499
69612W        W31143  42.495   2.788  10.551
69613W        W31144  12.796  13.699  10.449
69614W        W31145   7.857  40.442  12.453
69615W        W31146  18.545  12.126  11.455
69616W        W31147  25.182  18.223   2.223
69617W        W31148  16.124   3.864   2.794
69618W        W31149  26.675  41.430  14.303
69619W        W31150   8.272  37.956  12.562
69620W        W31151  43.902  21.521   0.440
69621W        W31152  39.935  32.456   1.333
69622W        W31153  11.352  38.463   1.216
69623W        W31154  24.152  27.453   4.338
69624W        W31155  38.073  28.152  10.040
69625W        W31156   1.937   7.357  11.411
69626W        W31157  35.601  33.994   1.914
69627W        W31158   3.424  37.412   2.671
69628W        W31159   3.805  29.953   2.699
69629W        W31160   9.743  21.245   4.221
69630W        W31161   3.296  35.504   3.321
69631W        W31162  31.646  18.615  10.151
69632W        W31163   0.813   1.742  13.465
69633W        W31164  25.187  43.980  14.997
69634W        W31165   9.393  35.446  14.953
69635W        W31166  41.517  18.204  13.484
69636W        W31167   9.333  26.629   4.270
69637W        W31168  13.221  34.396  10.950
69638W        W31169   0.961  29.083  13.369
69639W        W31170  15.158  44.899  11.014
69640W        W31171  23.515  26.583   4.630
69641W        W31172  27.589  43.844   3.325
69642W        W31173  37.023  27.619   2.872
69643W        W31174  12.852  11.728   4.135
69644W        W31175   0.881  41.931  12.072
69645W        W31176  22.174  24.579  10.611
69646W        W31177  26.990   8.767  13.897
69647W        W31178  25.548  23.001   0.938
69648W        W31179  10.854  21.517   1.697
69649W        W31180  34.945  16.748  14.815
69650W        W31181  35.970  13.193   2.725
69651W        W31182  23.037   6.193  12.826
69652W        W31183  33.415  24.011   1.927
69653W        W31184  26.205  29.447   4.813
69654W        W31185  19.635  12.294  13.314
69655W        W31186  34.605  24.202  12.474
69656W        W31187  21.133  32.074   4.694
69657W        W31188  43.432   5.286   3.821
69658W        W31189  18.092  35.001   4.209
69659W        W31190   7.347  18.681  12.914
69660W        W31191  17.575  44.347  13.038
69661W        W31192  42.436   4.825  14.861
69662W        W31193  40.966  36.475  11.517
69663W        W31194  24.082  40.417  14.478
69664W        W31195   0.295  42.871   0.817
69665W        W31196  22.684  12.309   0.368
69666W        W31197  32.959  22.538   2.377
69667W        W31198  43.489  40.993   2.251
69668W        W31199  20.034  32.074  12.460
69669W        W31200  29.118  26.543   9.980
69670W        W31201  15.722  44.315   4.216
69671W        W31202  23.524  12.327  12.900
69672W        W31203  28.083  34.597  10.562
69673W        W31204  29.560  27.060   0.264
69674W        W31205  40.530  33.052  12.496
69675W        W31206  12.732  41.370   2.181
69676W        W31207  25.652  17.657  13.371
69677W        W31208  21.749  33.119  12.462
69678W        W31209  36.966  24.219   1.860
69679W        W31210  29.596  35.496   4.747
69680W        W31211  44.010   0.270   3.380
69681W        W31212  28.564  41.303   2.293
69682W        W31213  16.612  11.815  12.549
69683W        W31214  12.359  12.281  13.807
69684W        W31215  30.074  36.504   1.331
69685W        W31216   8.196   0.413   4.814
69686W        W31217  20.101   8.344  13.932
69687W        W31218  17.188  39.332   0.942
69688W        W31219  36.450  43.830  13.451
69689W        W31220  10.700  11.689  11.481
69690W        W31221  44.956  23.689   1.773
69691W        W31222  25.557  10.822  10.954
69692W        W31223   0.835  14.695  14.849
69693W        W31224  21.232  30.492  10.512
69694W        W31225  33.572   2.735  12.513
69695W        W31226  26.624  14.729  13.827
69696W        W31227  40.434  24.093   1.751
69697W        W31228  19.076  43.375  13.548
69698W        W31229  23.497   2.843  11.121
69699W        W31230  15.644   1.972   0.396
69700W        W31231   4.784  16.129  12.038
69701W        W31232  35.903  16.631   5.178
69702W        W31233  24.128  41.530  11.915
69703W        W31234  38.015  15.102  11.564
69704W        W31235   3.342  34.438   2.262
69705W        W31236  38.556   7.853  13.004
69706W        W31237  30.475   7.260   0.920
69707W        W31238  38.035   6.805  14.761
69708W        W31239   2.914  32.006   1.897
69709W        W31240  13.124  15.609  12.526
69710W        W31241   1.474  14.760  12.433
69711W        W31242  21.710  23.018   3.324
69712W        W31243  29.473   0.928  10.610
69713W        W31244  32.009  31.947   3.170
69714W        W31245  17.219  14.831   3.783
69715W        W31246  21.214  31.562  14.323
69716W        W31247  18.737  40.995   3.364
69717W        W31248   5.330  15.686  13.355
69718W        W31249  15.271   2.319  13.863
69719W        W31250   4.427   0.834   1.211
69720W        W31251  13.162   1.413   1.799
69721W        W31252   6.182   9.293  12.006
69722W        W31253  32.050  19.765   0.456
69723W        W31254  17.125  28.538  10.093
69724W        W31255  19.188  34.974  11.371
69725W        W31256  10.812   9.290   2.414
69726W        W31257  21.036  39.885   4.644
69727W        W31258  26.022  37.502   3.368
69728W        W31259  20.087  20.560  10.498
69729W        W31260  10.851   0.962  14.462
69730W        W31261  20.087   7.894   0.246
69731W        W31262  25.596  38.914  11.086
69732W        W31263  22.674  32.443   1.705
69733W        W31264  33.459  37.342   1.744
69734W        W31265  34.958  38.522   0.410
69735W        W31266  32.053  39.835  14.495
69736W        W31267  14.298  30.525   0.244
69737W        W31268  24.484   3.411  13.502
69738W        W31269  29.053  16.787  12.935
69739W        W31270  20.180  12.286   3.233
69740W        W31271  15.083   5.922   1.752
69741W        W31272  31.958  38.555  11.964
69742W        W31273  20.669  41.490   2.271
69743W        W31274  30.544  25.663   3.187
69744W        W31275  25.494  38.555  12.840
69745W        W31276   8.809  41.498   2.793
69746W        W31277   7.326  22.054  14.506
69747W        W31278  33.412  13.313  14.311
69748W        W31279  38.339  25.012  14.813
69749W        W31280  10.372  21.215  12.855
69750W        W31281  42.422  42.914   0.763
69751W        W31282   6.803  29.588  10.464
69752W        W31283  38.966  16.306  11.033
69753W        W31284  26.629  33.537   9.978
69754W        W31285  21.146  40.846   0.862
69755W        W31286  31.481   2.403   2.327
69756W        W31287  27.510   8.194  14.866
69757W        W31288  39.860  15.273  10.451
69758W        W31289   9.763   9.392   0.300
69759W        W31290  44.348  10.773  12.831
69760W        W31291  37.987   9.233  14.461
69761W        W31292  26.650  24.702   4.796
69762W        W31293   5.244   8.309   4.694
69763W        W31294   6.354   6.858  13.445
69764W        W31295  17.766   5.419   3.738
69765W        W31296   6.788  16.742  12.494
69766W        W31297  40.505   8.783   4.751
69767W        W31298  18.230  38.994  11.026
69768W        W31299  10.313  17.135  10.974
69769W        W31300  27.113   8.338  14.891
69770W        W31301  33.425  20.704  12.396
69771W        W31302  16.616   9.808  12.513
69772W        W31303   8.320  28.039  14.812
69773W        W31304  42.820  34.383  14.318
69774W        W31305  41.298  31.901   2.266
69775W        W31306  37.522   7.698   4.744
69776W        W31307   3.217  28.435  10.972
69777W        W31308  44.277  37.360   4.144
69778W        W31309  34.528  31.539   0.322
69779W        W31310  16.261  42.025   4.712
69780W        W31311  42.818  25.576  12.361
69781W        W31312  19.183  37.940  12.963
69782W        W31313   8.167  26.150   3.761
69783W        W31314  16.608  16.116  12.401
69784W        W31315  37.553  30.121   2.257
69785W        W31316  16.597  12.142  11.915
69786W        W31317  11.322  29.618   3.264
69787W        W31318  30.028   7.223  14.765
69788W        W31319  27.489  18.079  11.486
69789W        W31320  16.804   6.812  12.443
69790W        W31321  33.546  33.971   3.762
69791W        W31322  27.463   2.384  11.478
69792W        W31323   0.258  14.717   4.317
69793W        W31324  36.085  25.156  13.415
69794W        W31325  28.528  16.256   3.364
69795W        W31326   8.315  21.098   1.434
69796W        W31327   0.460   0.986  12.988
69797W        W31328   6.289  33.103   0.917
69798W        W31329  24.659  19.606   2.724
69799W        W31330  11.248  33.525  13.330
69800W        W31331  39.809  37.572  11.859
69801W        W31332  43.321   0.941   0.357
69802W        W31333  34.429  44.470   3.232
69803W        W31334   9.803  31.090   3.747
69804W        W31335  40.331  10.680   0.342
69805W        W31336   6.915  19.735  13.877
69806W        W31337  23.215  31.495   0.817
69807W        W31338   2.791   7.288  12.093
69808W        W31339  40.991  11.633  14.020
69809W        W31340  44.962  38.837  10.540
69810W        W31341   9.853   2.377  12.518
69811W        W31342  28.470   9.883  14.281
69812W        W31343  40.907  37.922   0.436
69813W        W31344   2.918  39.001   4.695
69814W        W31345  44.778  18.143  14.920
69815W        W31346   5.208   3.877   3.712
69816W        W31347  35.478  13.141   2.234
69817W        W31348  20.762  27.662   2.409
69818W        W31349  38.988  16.579   1.325
69819W        W31350  28.178  37.913   1.268
69820W        W31351  14.306  25.605   0.929
69821W        W31352  41.801  34.886  11.071
69822W        W31353  24.710  17.140  13.059
69823W        W31354  24.532  33.389   2.187
69824W        W31355  24.199  27.090  12.473
69825W        W31356   7.337  25.187   1.800
69826W        W31357  27.644  17.144   4.787
69827W        W31358  14.148  24.575   2.837
69828W        W31359   4.816  23.171   3.652
69829W        W31360   9.235   1.263   2.873
69830W        W31361   8.840  17.142  11.403
69831W        W31362  13.199  25.045  14.944
69832W        W31363  21.559   2.958  12.868
69833W        W31364   9.385  23.012  10.604
69834W        W31365   9.819  30.517   1.830
69835W        W31366  29.051  32.045   3.632
69836W        W31367  20.272  22.727   4.116
69837W        W31368   3.336  36.406  11.991
69838W        W31369  14.134  39.551   2.363
69839W        W31370  38.933  42.980  14.775
69840W        W31371   8.683  28.929   2.252
69841W        W31372  44.755  33.458  14.406
69842W        W31373  17.201   8.833   4.703
69843W        W31374  23.554  43.361  11.947
69844W        W31375   5.695   8.807  13.389
69845W        W31376  40.443  19.640   3.651
69846W        W31377  18.122  33.553   0.280
69847W        W31378   6.312   7.851   3.210
69848W        W31379  28.157   2.243  13.833
69849W        W31380  23.200  39.857  12.036
69850W        W31381  26.686  42.002  10.968
69851W        W31382   2.417  26.044  13.796
69852W        W31383  15.127  37.968   3.307
69853W        W31384  34.060  26.170   2.303
69854W        W31385  36.381   7.837   1.786
69855W        W31386  24.490  11.818   2.235
69856W        W31387   3.816  31.139  10.532
69857W        W31388  14.603  33.487  11.896
69858W        W31389  17.113   9.771  13.845
69859W        W31390   6.762  14.767   0.962
69860W        W31391  31.979   2.812  14.365
69861W        W31392  28.173  38.987  11.551
69862W        W31393  17.666  33.403  12.845
69863W        W31394  27.960  33.559  11.954
69864W        W31395  34.586  38.344  14.832
69865W        W31396  28.027  14.261  12.971
69866W        W31397  42.290   5.231  12.853
69867W        W31398   7.899   7.890  10.897
69868W        W31399  20.039  22.008  14.972
69869W        W31400  25.668   9.318   3.690
69870W        W31401  22.730   3.920   0.368
69871W        W31402  39.512  41.407  14.999
69872W        W31403   1.901  26.526   0.963
69873W        W31404   3.839   8.286   4.753
69874W        W31405  15.296  34.422  14.373
69875W        W31406   4.858  36.523   1.246
69876W        W31407  26.148   0.866   3.350
69877W        W31408  38.886  29.923  12.348
69878W        W31409  28.983  35.075  12.000
69879W        W31410  41.927  24.516  14.912
69880W        W31411  41.501  32.966  13.341
69881W        W31412  28.596   1.242   2.765
69882W        W31413   4.390   2.820  10.450
69883W        W31414  15.653   5.737  10.570
69884W        W31415  26.604  40.458  13.873
69885W        W31416   4.268  23.517   5.288
69886W        W31417   9.288  34.602   3.762
69887W        W31418   9.338  15.249  12.066
69888W        W31419  36.478   9.765   4.128
69889W        W31420   1.820  22.141   3.860
69890W        W31421  19.076  36.397  10.433
69891W        W31422  18.577   2.873  14.860
69892W        W31423  36.886  27.189   4.624
69893W        W31424  10.839  16.585  10.480
69894W        W31425  12.264   5.846   2.350
69895W        W31426  25.550   4.388  13.539
69896W        W31427   0.439   0.282   3.789
69897W        W31428  18.630  29.997   0.251
69898W        W31429  14.202  28.018   1.734
69899W        W31430  21.246   4.904   1.359
69900W        W31431  37.581  37.520  12.413
69901W        W31432  16.291  15.238  12.476
69902W        W31433  33.430  19.156  14.769
69903W        W31434  19.634  12.327   4.809
69904W        W31435  23.036  39.822  11.112
69905W        W31436  25.160  25.514   4.123
69906W        W31437  20.692   7.254   2.707
69907W        W31438  29.550  43.855   1.771
69908W        W31439  11.804  42.834   0.324
69909W        W31440  23.196  13.716   0.913
69910W        W31441  16.153  21.652  12.921
69911W        W31442   2.241  17.205  12.834
69912W        W31443  15.087  21.157   0.271
69913W        W31444  35.872   9.311  13.955
69914W        W31445  29.944  15.139   3.733
69915W        W31446  35.475   8.715   3.201
69916W        W31447  43.303  38.935   1.857
69917W        W31448   4.702  42.519   3.659
69918W        W31449  12.692  21.106   4.141
69919W        W31450  24.673   9.213  13.025
69920W        W31451  23.030  13.190   2.186
69921W        W31452  25.515  19.041  11.497
69922W        W31453  44.850  42.872   3.248
69923W        W31454   5.253  16.740   2.692
69924W        W31455  33.473   6.901  11.549
69925W        W31456  23.214  25.175   0.250
69926W        W31457  36.984  25.632  11.387
69927W        W31458  40.437  16.307   0.251
69928W        W31459   9.188   3.944   1.346
69929W        W31460  33.003  35.982  12.936
69930W        W31461   2.260  21.575  14.296
69931W        W31462  12.143  22.041  12.432
69932W        W31463  32.975  42.988   0.967
69933W        W31464  33.017   1.823  11.974
69934W        W31465   8.863  23.629  10.513
69935W        W31466  12.267  10.204  12.395
69936W        W31467  14.242  43.841  13.950
69937W        W31468  29.139  26.520   1.770
69938W        W31469  40.030  29.455  13.945
69939W        W31470   4.813  42.923  11.904
69940W        W31471  31.417   0.847  13.316
69941W        W31472  16.098   8.325   2.245
69942W        W31473  29.475  29.506  14.381
69943W        W31474  34.464   1.323   0.463
69944W        W31475  27.125  40.020   4.731
69945W        W31476   8.276  42.808  11.414
69946W        W31477  29.128   9.801   5.620
69947W        W31478   4.342  39.518   4.191
69948W        W31479  35.477   8.354   4.349
69949W        W31480  10.723   5.269   3.349
69950W        W31481  24.501  43.895  13.800
69951W        W31482  19.112  39.397   1.869
69952W        W31483  14.655  39.820  11.954
69953W        W31484  42.834  37.487   4.801
69954W        W31485  37.854  43.285   2.233
69955W        W31486  18.766  27.577  12.065
69956W        W31487  12.842  19.171  12.859
69957W        W31488  31.519  41.994   3.716
69958W        W31489  44.444  23.702  12.488
69959W        W31490   8.268   4.807  14.833
69960W        W31491  41.312  14.102   0.299
69961W        W31492  32.430  22.223  11.944
69962W        W31493   4.788  14.639  13.885
69963W        W31494   1.949  15.187  11.016
69964W        W31495  26.479   3.221   1.335
69965W        W31496  27.558  15.294  11.114
69966W        W31497  11.662  13.105   4.298
69967W        W31498  22.057  33.115   2.222
69968W        W31499  36.570   0.480  11.129
69969W        W31500  37.336  42.857  12.027
69970W        W31501   3.306  14.105   2.722
69971W        W31502  17.082  13.699   0.426
69972W        W31503   6.357  11.149  13.937
69973W        W31504  12.198  37.969   0.750
69974W        W31505  42.917  10.376  12.890
69975W        W31506   3.244  12.121   1.767
69976W        W31507  44.408   5.216  10.952
69977W        W31508  31.077  21.645   0.843
69978W        W31509  12.129  44.928   2.274
69979W        W31510  31.119   2.434   4.779
69980W        W31511  22.032  27.046   1.414
69981W        W31512  21.053  41.478  13.492
69982W        W31513  10.846  24.142  10.915
69983W        W31514  38.449  15.767  13.031
69984W        W31515   9.881   2.815  11.863
69985W        W31516  38.953  43.363   4.669
69986W        W31517  19.120  34.975   3.823
69987W        W31518   2.765  32.460  14.468
69988W        W31519  29.446  19.706  14.356
69989W        W31520  42.521  18.288  11.029
69990W        W31521  24.993   7.240  10.917
69991W        W31522  35.381  37.863   0.354
69992W        W31523  15.600  20.086   1.696
69993W        W31524  25.130   0.793  14.435
69994W        W31525  14.233  25.070  13.967
69995W        W31526  38.509  37.957  14.859
69996W        W31527   8.838  44.919   0.439
69997W        W31528  37.550  15.819   3.713
69998W        W31529  38.990  30.141  14.009
69999W        W31530   2.923  43.391  12.005
70000W        W31531  29.973  39.808   0.463
70001W        W31532  19.717  12.242   1.447
70002W        W31533   1.960  31.145   4.727
70003W        W31534  37.365  34.396  14.978
70004W        W31535  30.938   1.399   4.818
70005W        W31536  31.896   2.471  14.363
70006W        W31537   8.192   4.417   1.744
70007W        W31538  28.668  16.802   0.418
70008W        W31539   0.358   4.269  10.899
70009W        W31540  44.950  24.101   1.704
70010W        W31541  16.155   0.355   2.754
70011W        W31542  28.569   7.180   5.720
70012W        W31543  24.513  28.617   1.309
70013W        W31544   1.864   6.240  14.409
70014W        W31545  35.409  12.689  10.602
70015W        W31546  22.626  24.719  11.072
70016W        W31547  30.656  24.718  13.058
70017W        W31548  33.899  25.598   3.369
70018W        W31549  29.104  35.594  14.897
70019W        W31550  12.738  14.675  10.456
70020W        W31551  19.725   4.342   0.429
70021W        W31552  37.912  17.280  14.994
70022W        W31553  23.619  38.490  13.871
70023W        W31554  26.178  19.156  12.532
70024W        W31555  20.084   2.367  10.455
70025W        W31556  31.058  17.269  12.460
70026W        W31557  34.933  33.402  10.143
70027W        W31558  22.613   0.383   9.994
70028W        W31559   7.192  27.121  11.569
70029W        W31560  13.341  39.945   2.294
70030W        W31561  31.599   8.184   4.178
70031W        W31562  22.622  26.635   3.299
70032W        W31563  17.187  26.603   5.207
70033W        W31564  12.301  19.250   2.769
70034W        W31565  21.670  34.098  12.885
70035W        W31566  30.538  16.272   4.672
70036W        W31567  15.246  39.986   4.161
70037W        W31568   3.749  16.652  13.377
70038W        W31569  28.680  20.211  10.920
70039W        W31570  41.294  28.182   0.845
70040W        W31571  10.205  39.430  13.920
70041W        W31572  30.987  16.139  12.478
70042W        W31573   7.320   1.295  12.998
70043W        W31574  38.846  44.465   0.918
70044W        W31575  10.222   7.777   2.268
70045W        W31576   7.897  12.706   0.761
70046W        W31577  44.503  39.904   9.928
70047W        W31578  27.946  11.760   5.153
70048W        W31579   3.262  41.409   3.812
70049W        W31580   8.730  21.679   3.715
70050W        W31581   5.723  34.104   0.751
70051W        W31582  14.704  43.898  11.965
70052W        W31583   3.907  34.067  14.928
70053W        W31584  34.043  13.246  10.001
70054W        W31585  11.646   8.218  12.343
70055W        W31586  32.068  15.685  14.382
70056W        W31587  18.199   6.350   1.907
70057W        W31588  18.266  16.638   0.948
70058W        W31589   1.820  39.356   2.417
70059W        W31590   3.280  39.856   0.315
70060W        W31591  42.896  38.423  13.498
70061W        W31592  12.357  16.247  14.899
70062W        W31593  33.073  32.407   1.723
70063W        W31594  14.137  10.213  12.398
70064W        W31595  29.608  27.053   3.381
70065W        W31596   9.303  39.871   1.872
70066W        W31597   5.909  24.530  11.431
70067W        W31598  31.465  37.344  12.460
70068W        W31599  10.162  43.902  13.920
70069W        W31600  21.024  11.156  11.610
70070W        W31601  15.801  17.723  11.440
70071W        W31602  39.478  27.973   3.276
70072W        W31603  11.722  11.796  13.413
70073W        W31604  38.820  31.451  11.951
70074W        W31605  38.481  13.737  12.032
70075W        W31606  40.425  19.056   3.671
70076W        W31607   7.869  10.710  10.922
70077W        W31608  29.569  17.563  11.954
70078W        W31609  20.113  30.420   1.704
70079W        W31610   8.226  33.955  13.463
70080W        W31611   0.332  38.888  12.363
70081W        W31612   4.882  22.513  11.943
70082W        W31613  41.457  20.616   4.802
70083W        W31614  28.536  40.324   2.367
70084W        W31615  28.146  19.725   1.774
70085W        W31616  15.302  39.980   3.150
70086W        W31617  36.463  15.200  12.974
70087W        W31618  11.130  42.504   0.330
70088W        W31619  20.143  36.503   3.309
70089W        W31620  25.547   7.826  11.559
70090W        W31621  44.863  37.577  14.457
70091W        W31622  33.612  10.198   1.810
70092W        W31623  24.133  44.446  11.570
70093W        W31624  29.440  27.594  10.987
70094W        W31625  39.507  41.358  14.393
70095W        W31626   1.925  41.347  12.547
70096W        W31627  35.871  37.980  13.985
70097W        W31628  19.752  30.160  13.030
70098W        W31629   5.262  23.138   4.609
70099W        W31630  29.558  30.437  11.516
70100W        W31631   6.869  20.664  12.024
70101W        W31632  37.010  18.549   4.141
70102W        W31633   7.187  35.555  10.643
70103W        W31634  40.542   8.780   0.905
70104W        W31635   4.709  10.185  11.376
70105W        W31636  44.300  27.454   0.417
70106W        W31637  19.767  42.410  12.085
70107W        W31638  43.843   8.243   0.356
70108W        W31639  12.323   8.248   2.749
70109W        W31640  35.936   3.835   3.354
70110W        W31641  34.047  26.180  11.081
70111W        W31642  38.392   3.836  14.382
70112W        W31643  11.641  40.319  14.825
70113W        W31644  21.651  40.977   3.307
70114W        W31645  36.535   5.405   0.940
70115W        W31646  44.473  29.498   0.392
70116W        W31647   4.276   8.857  13.547
70117W        W31648   5.360  22.148   0.270
70118W        W31649  10.640   8.241   2.189
70119W        W31650  20.650   4.342   4.739
70120W        W31651   8.895  37.922   2.767
70121W        W31652  30.932   4.344   1.264
70122W        W31653  23.723  10.773  12.401
70123W        W31654  17.187  40.327   0.320
70124W        W31655  40.374   7.789  12.929
70125W        W31656   4.224  15.237   0.760
70126W        W31657   7.253  42.418   3.366
70127W        W31658   2.347  10.139   0.776
70128W        W31659   8.284  21.585  11.048
70129W        W31660   7.767   2.839   0.466
70130W        W31661  11.157  44.465  13.983
70131W        W31662  41.391  37.034   4.830
70132W        W31663  40.990  42.966   4.671
70133W        W31664   6.182  21.736  14.821
70134W        W31665  25.588  14.310   0.824
70135W        W31666  17.576  34.575   0.403
70136W        W31667   8.396  25.982  10.570
70137W        W31668  39.461  43.300   3.382
70138W        W31669   3.787  38.451   2.351
70139W        W31670  24.212  17.210   2.310
70140W        W31671   3.917   9.238  13.841
70141W        W31672  22.657  12.826   0.738
70142W        W31673  43.844  23.188   4.351
70143W        W31674  27.009  33.592  13.383
70144W        W31675   2.925  40.975  12.944
70145W        W31676  11.204  43.926  14.451
70146W        W31677  18.064   5.896  12.387
70147W        W31678  17.173  30.540   5.172
70148W        W31679  20.184  31.973  14.509
70149W        W31680  18.280  14.258   3.642
70150W        W31681  16.648  24.509  12.343
70151W        W31682   9.732  16.760   3.739
70152W        W31683   3.792  26.609   5.288
70153W        W31684  12.694  32.608  10.143
70154W        W31685  29.612  15.327  10.940
70155W        W31686  10.208   0.970  11.127
70156W        W31687  27.505  43.850  11.495
70157W        W31688  33.499  23.225  11.384
70158W        W31689  26.551   1.339   0.867
70159W        W31690  21.566   3.794  13.445
70160W        W31691  23.008  33.874   1.228
70161W        W31692  41.982  11.632  13.313
70162W        W31693   6.394  12.247  14.874
70163W        W31694  38.364  15.610  12.415
70164W        W31695  25.501  32.889  13.038
70165W        W31696  13.216  11.635   2.212
70166W        W31697   1.777  39.336   1.908
70167W        W31698  18.268   9.685   4.758
70168W        W31699  35.385   6.190   4.134
70169W        W31700  29.069  22.068  14.317
70170W        W31701  19.154  35.428  13.892
70171W        W31702  26.017   8.377   2.398
70172W        W31703   4.830   1.771   4.833
70173W        W31704  21.221   3.335  14.771
70174W        W31705  18.667   4.281   2.363
70175W        W31706  17.788  15.233   2.358
70176W        W31707   0.879  22.020  13.799
70177W        W31708  12.265  10.158  11.998
70178W        W31709  26.069  24.061  11.054
70179W        W31710  44.396   0.802  13.518
70180W        W31711   6.234  23.665  10.972
70181W        W31712  43.985  25.020   0.873
70182W        W31713  26.966   1.357  13.370
70183W        W31714   8.171  27.590  10.447
70184W        W31715  30.564   5.897  14.305
70185W        W31716  14.760  36.090   4.203
70186W        W31717  31.493   8.798  12.535
70187W        W31718  16.192  40.943   4.247
70188W        W31719   9.378  42.967   2.203
70189W        W31720   7.846  39.433  12.493
70190W        W31721   5.289  42.897   1.327
70191W        W31722  38.376  28.593  11.010
70192W        W31723  26.680  10.317   3.376
70193W        W31724  36.528  30.424  14.378
70194W        W31725  42.995   5.823   1.841
70195W        W31726   7.399   5.774   3.668
70196W        W31727  13.346  16.757  12.507
70197W        W31728  11.320  16.197   2.216
70198W        W31729  44.354   2.766  14.807
70199W        W31730  27.609   4.930   3.815
70200W        W31731  40.896  29.114   3.664
70201W        W31732  20.187  44.477   2.731
70202W        W31733  34.611  17.589  14.965
70203W        W31734   4.323  31.550  13.406
70204W        W31735   8.299  21.170   3.198
70205W        W31736  28.518  26.007   4.201
70206W        W31737   3.318  26.040  12.959
70207W        W31738  32.417  42.440   2.323
70208W        W31739  32.137  15.115  11.535
70209W        W31740  32.943  12.167   0.953
70210W        W31741  35.534  38.452   0.410
70211W        W31742  15.714  18.685   4.328
70212W        W31743  11.725  40.478   3.162
70213W        W31744  36.023  28.675  11.530
70214W        W31745   4.854  32.426   3.656
70215W        W31746  40.899   0.472  14.875
70216W        W31747  42.434   9.858  13.851
70217W        W31748   3.902  41.435  10.566
70218W        W31749  11.235  25.993  13.937
70219W        W31750  43.381  31.510   1.296
70220W        W31751  26.495  36.516   4.250
70221W        W31752  41.522  33.047  12.366
70222W        W31753   8.251  32.911   1.217
70223W        W31754  12.137   0.300   0.400
70224W        W31755   1.364   1.464  11.420
70225W        W31756   5.703  18.758   1.320
70226W        W31757   9.696   8.692   1.313
70227W        W31758   2.766  34.403   3.244
70228W        W31759  27.588  29.534  11.062
70229W        W31760   5.880  41.496   3.279
70230W        W31761  19.247  38.939   4.292
70231W        W31762   4.929  35.900  11.085
70232W        W31763  15.803  12.312   1.881
70233W        W31764   3.840  20.108   4.302
70234W        W31765   5.344   4.272   4.146
70235W        W31766  25.679  38.368  13.816
70236W        W31767   0.262   8.176  13.402
70237W        W31768  16.293  17.742   3.814
70238W        W31769  12.311  43.291   2.230
70239W        W31770   1.405  18.122   0.276
70240W        W31771  41.514  11.177   0.410
70241W        W31772   1.819  32.492  12.375
70242W        W31773  39.545  26.045  13.313
70243W        W31774  25.547  31.648   0.787
70244W        W31775  25.080  23.560   4.758
70245W        W31776  28.678  25.106   4.796
70246W        W31777  42.798   4.280   1.417
70247W        W31778   3.931  33.977   0.915
70248W        W31779  17.789  32.570  11.893
70249W        W31780  31.570  37.497  12.913
70250W        W31781  40.391   7.298  10.523
70251W        W31782  24.693   6.410   0.824
70252W        W31783  44.907  32.524   4.837
70253W        W31784  22.689  31.120  13.365
70254W        W31785  37.998  30.552  12.847
70255W        W31786  10.374  40.396  12.358
70256W        W31787   1.947   2.882  14.439
70257W        W31788   8.265  24.040   1.885
70258W        W31789  24.123  26.618   3.696
70259W        W31790  16.275  29.074  12.096
70260W        W31791  42.825   2.908   4.731
70261W        W31792  44.292  43.307  12.368
70262W        W31793   8.745   2.459  11.440
70263W        W31794  20.703   2.389  14.912
70264W        W31795   2.273  31.084  14.431
70265W        W31796  11.274  23.644   3.787
70266W        W31797  41.877  12.747  14.922
70267W        W31798  17.114   1.363  12.087
70268W        W31799  37.845  11.282  11.078
70269W        W31800  41.342  42.817   2.750
70270W        W31801  12.845   8.190  11.433
70271W        W31802  30.988  38.354   0.264
70272W        W31803  11.669   1.759  14.347
70273W        W31804  25.703  26.047   2.687
70274W        W31805   5.394  28.482   1.763
70275W        W31806  27.566  28.628   0.436
70276W        W31807  21.043  22.503   5.317
70277W        W31808  13.117   7.198  13.962
70278W        W31809  15.627  40.872  11.002
70279W        W31810  24.491   3.363   0.458
70280W        W31811  35.387   7.906  11.480
70281W        W31812  39.836  30.547  11.079
70282W        W31813   5.295  44.454   3.378
70283W        W31814  31.082  26.480   4.133
70284W        W31815   2.876  31.617  12.370
70285W        W31816   3.723  43.506  11.060
70286W        W31817  19.632   1.427  12.518
70287W        W31818  42.863  15.096   4.720
70288W        W31819  34.099  25.597   2.223
70289W        W31820  34.551  39.028   3.223
70290W        W31821  42.966  29.586  13.442
70291W        W31822  33.432  17.756  13.365
70292W        W31823  26.952  40.806  10.902
70293W        W31824  19.648  26.158  10.526
70294W        W31825  39.927  26.547  12.381
70295W        W31826  33.978  43.003   3.152
70296W        W31827  24.490  35.994   1.405
70297W        W31828  36.854  26.576  14.877
70298W        W31829  32.559  30.592   0.480
70299W        W31830   9.774  10.851   0.475
70300W        W31831  18.193  42.509   3.662
70301W        W31832  15.179  23.173  10.583
70302W        W31833  13.616  28.016   0.848
70303W        W31834  23.603  12.819  12.511
70304W        W31835  24.683  23.998   3.716
70305W        W31836   8.216  35.441   1.770
70306W        W31837  41.840   3.360   2.372
70307W        W31838   1.448  38.917   1.721
70308W        W31839  34.905  33.972   3.857
70309W        W31840  22.231  33.904   4.830
70310W        W31841  41.424  35.956  10.426
70311W        W31842  40.052   0.328  10.448
70312W        W31843  31.544   0.894  12.364
70313W        W31844  20.619  33.921  11.916
70314W        W31845  39.365  37.540   1.864
70315W        W31846  29.158  11.723  11.572
70316W        W31847   9.709   2.287   1.286
70317W        W31848   9.335  18.195  10.469
70318W        W31849   1.268   4.799  13.936
70319W        W31850  13.736  37.477   5.296
70320W        W31851  13.135  17.279   1.272
70321W        W31852  11.134   2.411  13.509
70322W        W31853  39.821  22.025   3.194
70323W        W31854  33.507  39.510  13.954
70324W        W31855  17.306  24.651   3.839
70325W        W31856   3.867   0.258  12.928
70326W        W31857  40.959  30.028   3.740
70327W        W31858  40.033   2.871   0.298
70328W        W31859  43.290  30.456   4.206
70329W        W31860  19.108  43.015   2.413
70330W        W31861  24.149   0.287   2.376
70331W        W31862   1.765   0.930  14.848
70332W        W31863  26.627   7.698   1.710
70333W        W31864   6.747   5.368   0.865
70334W        W31865  11.194   1.950  14.475
70335W        W31866   0.364  12.217   4.273
70336W        W31867  43.968   0.303  12.827
70337W        W31868  26.994   7.387  12.033
70338W        W31869  12.736   4.332   3.815
70339W        W31870  15.200  14.764   3.770
70340W        W31871  11.761  20.072  11.061
70341W        W31872  16.687  28.094   0.333
70342W        W31873   7.353  16.776   1.405
70343W        W31874   8.389  10.859  13.524
70344W        W31875   4.267  40.360   4.838
70345W        W31876  30.534  26.629   0.383
70346W        W31877  44.278  12.155   2.183
70347W        W31878  44.815  36.440   4.665
70348W        W31879  38.520   2.367   4.675
70349W        W31880  38.039   5.209   3.196
70350W        W31881  43.271  18.731  14.275
70351W        W31882   7.359   2.428   4.154
70352W        W31883   1.290  16.208  14.887
70353W        W31884  14.235  41.027  13.318
70354W        W31885   0.295  11.185  12.557
70355W        W31886  35.962   9.661   3.639
70356W        W31887  28.679   4.303   2.886
70357W        W31888  26.063  35.589   3.179
70358W        W31889  21.561  28.053   1.248
70359W        W31890   4.855  35.404  10.500
70360W        W31891   6.715  44.834   4.117
70361W        W31892  28.094  21.552   1.721
70362W        W31893   6.740  35.946  11.604
70363W        W31894  36.488  13.205   1.257
70364W        W31895   1.843  29.547   0.427
70365W        W31896  28.989  40.930  12.974
70366W        W31897  25.566  38.516   2.270
70367W        W31898  36.563  42.511   4.763
70368W        W31899  30.097  17.599   0.351
70369W        W31900   0.830  39.474   1.818
70370W        W31901  40.514   8.703  14.815
70371W        W31902  15.316  23.709  12.400
70372W        W31903  39.424   8.183  11.016
70373W        W31904  19.276  25.598  14.895
70374W        W31905   1.952   3.283  13.886
70375W        W31906  17.231  22.694   3.269
70376W        W31907  21.707  18.590   4.713
70377W        W31908   7.802  35.936  14.789
70378W        W31909   8.665  30.542   4.746
70379W        W31910  25.644   5.337  13.981
70380W        W31911  10.777   5.693  13.541
70381W        W31912  38.014   5.754  11.047
70382W        W31913  34.098  36.043  14.947
70383W        W31914  30.425  21.070  12.035
70384W        W31915  40.458   9.386  14.440
70385W        W31916  17.169  21.554   1.747
70386W        W31917  29.036  15.719  11.501
70387W        W31918  16.315  17.111  13.977
70388W        W31919  39.043  21.044   0.737
70389W        W31920  20.751  22.096  12.386
70390W        W31921  16.080   8.661   2.739
70391W        W31922   5.816  28.099   3.220
70392W        W31923  26.609  25.133  14.794
70393W        W31924  37.463  27.522   3.808
70394W        W31925  32.625  18.279   1.430
70395W        W31926  42.010  25.081   0.255
70396W        W31927  36.388  35.870   4.793
70397W        W31928  39.543  33.080  14.431
70398W        W31929  22.103   1.370   1.915
70399W        W31930  21.604  41.860   2.901
70400W        W31931  33.037  44.916  12.572
70401W        W31932  41.355  14.265   4.604
70402W        W31933  13.106  38.948   2.664
70403W        W31934  37.475  17.599  12.484
70404W        W31935  11.345  31.000  11.526
70405W        W31936  13.320  12.308  13.990
70406W        W31937  17.600  24.211  11.978
70407W        W31938   5.834  22.200  13.903
70408W        W31939   4.788   7.769   1.230
70409W        W31940  11.858  42.909   3.869
70410W        W31941  11.812   2.400   1.361
70411W        W31942   9.753  30.655   5.141
70412W        W31943  15.756  17.731   9.984
70413W        W31944  27.011   7.286   0.445
70414W        W31945  23.624  41.039  13.935
70415W        W31946  17.571  15.648   3.670
70416W        W31947  11.775  27.171  12.083
70417W        W31948  19.240  18.059  12.032
70418W        W31949  21.562   6.238  13.822
70419W        W31950  37.909  24.017   0.727
70420W        W31951  25.698  43.003  12.520
70421W        W31952  23.048  30.617   1.313
70422W        W31953  28.157  14.234  13.366
70423W        W31954  10.380  18.142  12.919
70424W        W31955   0.397  35.359   3.215
70425W        W31956  29.097  13.187  10.568
70426W        W31957   8.808  31.403  12.057
70427W        W31958  24.066  22.017  14.032
70428W        W31959  34.881  14.707  11.467
70429W        W31960  23.690  23.539   4.254
70430W        W31961  11.270   0.261   4.635
70431W        W31962  14.208  40.533  11.423
70432W        W31963  29.485  21.665  12.444
70433W        W31964  33.493  27.017  12.007
70434W        W31965  37.481  44.487   3.232
70435W        W31966  29.124   3.221  13.543
70436W        W31967  11.240  31.981   1.357
70437W        W31968   6.739  43.977   0.325
70438W        W31969  16.776  44.993   2.756
70439W        W31970   6.713  21.718  13.397
70440W        W31971   2.232  36.593   4.121
70441W        W31972   5.845  23.235   4.807
70442W        W31973   7.250   2.790   1.315
70443W        W31974  32.941   3.360  13.806
70444W        W31975  35.450  36.982  12.933
70445W        W31976  21.249  18.216  11.466
70446W        W31977  25.191  23.186  11.511
70447W        W31978  42.916  44.807  14.835
70448W        W31979   1.923  27.458  11.541
70449W        W31980  33.993  14.635  12.514
70450W        W31981  38.545  27.599  11.525
70451W        W31982  42.304  34.553   2.360
70452W        W31983  28.454   0.300  11.592
70453W        W31984  29.038   0.323  11.524
70454W        W31985  36.898  44.421  11.046
70455W        W31986  11.184  12.646  14.002
70456W        W31987  24.640  20.194   1.261
70457W        W31988   9.194  15.785  11.091
70458W        W31989  19.137  14.262   4.210
70459W        W31990   0.462   4.711   3.651
70460W        W31991  42.797  15.766   5.181
70461W        W31992  37.384  30.624   1.312
70462W        W31993  22.226  37.052   3.225
70463W        W31994  15.783  29.072  11.093
70464W        W31995  25.125  28.015   1.723
70465W        W31996  42.007   4.918   1.930
70466W        W31997  28.968   8.250  11.978
70467W        W31998  16.700  41.040   2.843
70468W        W31999  18.711  17.221  14.402
70469W        W32000  21.082   2.253   1.385
70470W        W32001  17.136  19.681  14.913
70471W        W32002   9.818   0.320  11.397
70472W        W32003   8.671  42.978   1.317
70473W        W32004  29.168  37.368   1.873
70474W        W32005  26.553  31.420  10.488
70475W        W32006  31.069  27.596   2.310
70476W        W32007  18.626  24.230   0.424
70477W        W32008  24.702  18.633  12.030
70478W        W32009   7.237  24.015   4.827
70479W        W32010  11.150  22.072   3.810
70480W        W32011  30.607  13.642  12.926
70481W        W32012   1.861  27.680   1.749
70482W        W32013  19.099  13.676   2.687
70483W        W32014  33.961  39.843   2.877
70484W        W32015  39.473  30.552   0.926
70485W        W32016  32.473   1.967   0.768
70486W        W32017  41.842  40.997   2.692
70487W        W32018   1.779   6.696  13.440
70488W        W32019  38.445  14.632  12.068
70489W        W32020   9.153  24.147  14.402
70490W        W32021  15.666   8.277   3.822
70491W        W32022  40.409   6.427   1.783
70492W        W32023   6.687  17.173  13.042
70493W        W32024  24.593  29.998   3.831
70494W        W32025   6.293  35.029   1.275
70495W        W32026  17.719  22.082  11.001
70496W        W32027  11.348  27.006   1.245
70497W        W32028  32.089   5.311   1.774
70498W        W32029  33.423  25.167   3.630
70499W        W32030  31.613  44.953   4.818
70500W        W32031  25.585   1.782   2.776
70501W        W32032   1.920   3.841   3.635
70502W        W32033  31.460   6.302   4.252
70503W        W32034  15.605  20.576  12.357
70504W        W32035  28.558   0.484   0.357
70505W        W32036  24.483  44.835  13.501
70506W        W32037   1.292  43.978  14.909
70507W        W32038   6.190  20.522  11.995
70508W        W32039  26.170  15.327  13.818
70509W        W32040  34.609   7.339   0.891
70510W        W32041  15.698  24.503   0.857
70511W        W32042  36.549  21.678   3.708
70512W        W32043  12.173  40.400   1.834
70513W        W32044  33.603  23.714   1.856
70514W        W32045  42.846  23.182   0.953
70515W        W32046  38.893  21.046   0.324
70516W        W32047  29.051  35.073  14.890
70517W        W32048  36.412  36.906   0.401
70518W        W32049  17.621  30.061  11.572
70519W        W32050  11.329   8.355  11.427
70520W        W32051  34.020  14.193   9.939
70521W        W32052  34.432  44.886  13.844
70522W        W32053  20.186  39.885  13.898
70523W        W32054   6.691  17.213   0.790
70524W        W32055  42.352   7.803   1.319
70525W        W32056   3.751  10.288  10.564
70526W        W32057   9.302  31.563   3.660
70527W        W32058  14.833  37.514   2.871
70528W        W32059  17.092  37.889   1.279
70529W        W32060   6.314   3.438  14.463
70530W        W32061   4.324  15.666   1.762
70531W        W32062  33.033  29.094  12.507
70532W        W32063  13.333  36.013   2.405
70533W        W32064  42.860   8.829   1.321
70534W        W32065  38.951   4.421   0.458
70535W        W32066  15.640  21.590  11.543
70536W        W32067   5.420   9.242  11.489
70537W        W32068  37.912   0.987  10.463
70538W        W32069  28.470  12.226   1.282
70539W        W32070   1.330  25.639  10.555
70540W        W32071  15.113  38.941  10.500
70541W        W32072  34.904  37.899   0.964
70542W        W32073  12.322  12.788   2.311
70543W        W32074  34.104  28.590   4.759
70544W        W32075   1.831  32.141  14.328
70545W        W32076  37.839  13.654  10.018
70546W        W32077  37.024   3.278   4.793
70547W        W32078  44.855  18.278  14.391
70548W        W32079  36.524  12.141   0.959
70549W        W32080   3.254  13.705   3.310
70550W        W32081  19.180  42.359  14.989
70551W        W32082  13.256   1.474   0.481
70552W        W32083  33.890   3.396   0.907
70553W        W32084  24.678  17.302   3.692
70554W        W32085  44.378  39.054  14.996
70555W        W32086   3.334  36.048   4.264
70556W        W32087  12.816  39.984   3.861
70557W        W32088   8.295   2.402   1.306
70558W        W32089  28.943  42.305   4.338
70559W        W32090  21.551  12.770   0.297
70560W        W32091  32.557  14.799  13.062
70561W        W32092  21.682   8.714  10.914
70562W        W32093  18.669  17.786  14.879
70563W        W32094   3.788  15.592   4.629
70564W        W32095  13.653  33.595  10.995
70565W        W32096  26.189   9.862   5.726
70566W        W32097  33.524  19.583  10.567
70567W        W32098  41.524   9.219  10.087
70568W        W32099  39.393  17.181   0.453
70569W        W32100  21.122  10.139  14.777
70570W        W32101  32.525  14.787  14.931
70571W        W32102  10.863  20.139   0.284
70572W        W32103  41.303  39.017  11.598
70573W        W32104  36.995  10.240   2.409
70574W        W32105  31.622  26.106  13.501
70575W        W32106  25.560  39.440  14.808
70576W        W32107   7.862  19.149   4.248
70577W        W32108  38.568  42.435   1.922
70578W        W32109  29.590  20.689   4.716
70579W        W32110  20.549  25.963   4.250
70580W        W32111  25.511  39.012  14.313
70581W        W32112   7.383  27.584   3.780
70582W        W32113  23.201  13.137  12.988
70583W        W32114  34.114  12.748   0.423
70584W        W32115  12.707  42.893   1.748
70585W        W32116  18.783  29.516  12.541
70586W        W32117   1.356  16.769  10.528
70587W        W32118  30.621  24.138   1.847
70588W        W32119  39.010  22.057  14.995
70589W        W32120  20.574  42.926   0.343
70590W        W32121   2.919  31.997  12.080
70591W        W32122  32.503  32.034   3.822
70592W        W32123   1.329  32.394   3.329
70593W        W32124  34.028  10.189  14.884
70594W        W32125  22.075   9.238  12.037
70595W        W32126   5.312  42.914   3.727
70596W        W32127  43.984  38.521  14.478
70597W        W32128  36.971  15.123   0.920
70598W        W32129   6.350  34.395   3.816
70599W        W32130  33.466  35.924  13.989
70600W        W32131   0.279  25.971   0.923
70601W        W32132  21.020  43.888  10.605
70602W        W32133  43.831  18.551   3.327
70603W        W32134  22.152  32.607   5.174
70604W        W32135  13.233  12.711  13.949
70605W        W32136  21.755  24.563   2.678
70606W        W32137  13.154  23.081   2.896
70607W        W32138  30.618  24.615  10.594
70608W        W32139  36.353  25.693  14.870
70609W        W32140  13.769  23.138   0.896
70610W        W32141  24.008  12.692   0.940
70611W        W32142  24.494  32.567  12.999
70612W        W32143  38.513   6.851  14.940
70613W        W32144  18.723  26.960   1.719
70614W        W32145  31.906  20.068  11.098
70615W        W32146  32.468  35.973  13.457
70616W        W32147  20.568  33.449  13.349
70617W        W32148  13.173   9.297  10.617
70618W        W32149  41.442   3.334  10.415
70619W        W32150  18.679   8.719   0.411
70620W        W32151  38.941   6.853   2.226
70621W        W32152  26.486  35.979   4.221
70622W        W32153  23.045   5.340   1.393
70623W        W32154  32.612  31.035   1.893
70624W        W32155  17.095  10.798   1.715
70625W        W32156  23.659  11.753  14.009
70626W        W32157   6.712  19.551  10.632
70627W        W32158   7.318  33.062   2.705
70628W        W32159  40.493  14.173  11.447
70629W        W32160  31.554  42.308  12.464
70630W        W32161  32.482  22.052  12.360
70631W        W32162  21.078  36.027  12.480
70632W        W32163  42.396  25.969   3.683
70633W        W32164   5.315  29.538  13.539
70634W        W32165  18.729  34.986   0.809
70635W        W32166   1.432  16.608   1.901
70636W        W32167  28.154  13.644  14.456
70637W        W32168  23.101   5.298   0.444
70638W        W32169  35.094  19.585   2.670
70639W        W32170  30.141  30.089   2.333
70640W        W32171  17.268   3.443   4.625
70641W        W32172  29.149   9.712   1.380
70642W        W32173   5.711   0.342   0.270
70643W        W32174  13.646  10.813   1.414
70644W        W32175  11.729   5.690  11.119
70645W        W32176  19.671  40.844   3.849
70646W        W32177   2.242   1.329   3.789
70647W        W32178  37.864  34.048   4.711
70648W        W32179  11.719  36.971   4.164
70649W        W32180   3.872   2.721   0.381
70650W        W32181  14.215  34.115  13.461
70651W        W32182   5.763  25.215   1.891
70652W        W32183   8.245  41.011  11.596
70653W        W32184  25.167  19.148  12.387
70654W        W32185   0.352  13.707  14.291
70655W        W32186  20.215  29.549   2.669
70656W        W32187  23.017  39.893   1.389
70657W        W32188  35.468  28.959  12.880
70658W        W32189  41.796  31.990  13.812
70659W        W32190  28.979  23.984  13.509
70660W        W32191  23.510   8.250   3.709
70661W        W32192   0.870  24.520   9.648
70662W        W32193  33.119  10.733   4.694
70663W        W32194  26.169  18.295   2.186
70664W        W32195  31.903   0.415  10.978
70665W        W32196  10.692  34.090  13.986
70666W        W32197  29.092  25.583   4.290
70667W        W32198  40.904  12.230  11.403
70668W        W32199  32.569   3.891  13.809
70669W        W32200   7.716  12.802  14.362
70670W        W32201  13.299  24.196   2.895
70671W        W32202  27.533  38.468  13.417
70672W        W32203   3.445  10.139   1.714
70673W        W32204  37.012   6.753   3.337
70674W        W32205  35.457  28.535   0.945
70675W        W32206  43.280   1.383  12.460
70676W        W32207  19.147  18.256   2.221
70677W        W32208  44.915  36.577  12.051
70678W        W32209  17.559  28.673   4.253
70679W        W32210  13.341  35.436   3.172
70680W        W32211  18.739  29.991   0.916
70681W        W32212  37.464  24.655  10.548
70682W        W32213  23.077  17.267  11.895
70683W        W32214  16.241  13.175   4.752
70684W        W32215   5.794   2.324  12.005
70685W        W32216  32.132  41.043  14.846
70686W        W32217  30.470  22.684   2.881
70687W        W32218  21.154  14.658  10.936
70688W        W32219  43.890  31.428   2.284
70689W        W32220  38.562  32.065  14.931
70690W        W32221  12.645  29.546   4.613
70691W        W32222   3.263   1.433  12.026
70692W        W32223  30.510  29.007  11.109
70693W        W32224  19.541   4.287  13.488
70694W        W32225  14.827  17.192   2.184
70695W        W32226  11.840  38.429  13.869
70696W        W32227  43.949  29.926  14.023
70697W        W32228  14.184  11.802   1.417
70698W        W32229  38.958  36.405  14.861
70699W        W32230   7.761  22.666  11.042
70700W        W32231  35.902  12.691   0.786
70701W        W32232  17.750  23.175  12.071
70702W        W32233  23.502  39.977   3.386
70703W        W32234  44.799  11.665   0.454
70704W        W32235  38.988  20.587  10.581
70705W        W32236   4.360  15.107   2.784
70706W        W32237  44.492   3.398   4.255
70707W        W32238  28.576   8.822   3.754
70708W        W32239  43.416  41.422   1.338
70709W        W32240   6.816  19.265  14.364
70710W        W32241  17.713   2.321   1.927
70711W        W32242  43.495  24.025   4.258
70712W        W32243   8.780  14.239   1.355
70713W        W32244  24.596  37.497   1.232
70714W        W32245  20.157  22.541  14.376
70715W        W32246  41.839  34.431  12.483
70716W        W32247   5.738  31.115  13.956
70717W        W32248  16.286  18.555  11.556
70718W        W32249  19.274  27.011   3.212
70719W        W32250  22.209   8.316   4.715
70720W        W32251  19.260  28.636   2.404
70721W        W32252  13.820  21.588  13.370
70722W        W32253   7.403  35.588   2.200
70723W        W32254  18.731  33.404   3.294
70724W        W32255   9.867  25.615  11.478
70725W        W32256   0.483   2.937  14.771
70726W        W32257  21.222  27.968  13.018
70727W        W32258  11.707  27.944   0.813
70728W        W32259  14.229  33.956  14.420
70729W        W32260  13.234  37.562  14.797
70730W        W32261  27.615  43.880   0.885
70731W        W32262  12.133   2.421  12.364
70732W        W32263  21.031   3.437   4.262
70733W        W32264  18.569  42.376   0.941
70734W        W32265  12.856  34.978  10.643
70735W        W32266  36.356  23.634  14.301
70736W        W32267  20.124  26.578   0.344
70737W        W32268  18.747  18.581  10.636
70738W        W32269   2.819   2.356  10.955
70739W        W32270  28.038   8.323  14.013
70740W        W32271  25.102  17.145  13.998
70741W        W32272   0.250  29.999   2.225
70742W        W32273  42.475  32.995  11.989
70743W        W32274  27.982  13.742   0.771
70744W        W32275  36.470  16.715  10.905
70745W        W32276  41.522  24.702  14.807
70746W        W32277   4.448  31.482  11.990
70747W        W32278  30.109  13.636   1.845
70748W        W32279  19.136  11.729  10.596
70749W        W32280   4.253  18.219  10.969
70750W        W32281  10.378  33.429   2.826
70751W        W32282  19.122  10.748  12.020
70752W        W32283  15.613   7.792   1.223
70753W        W32284  26.643   7.356  11.092
70754W        W32285  22.706  17.266  10.915
70755W        W32286   4.265   3.835   4.750
70756W        W32287  25.095  22.610   1.292
70757W        W32288  21.513  37.954  12.938
70758W        W32289   0.950   0.828  12.987
70759W        W32290  21.211  17.071   2.218
70760W        W32291   2.336  13.318  13.383
70761W        W32292  16.107  16.173   1.292
70762W        W32293   7.904  23.075   0.327
70763W        W32294  28.015  18.778   4.312
70764W        W32295  28.438  32.499   0.480
70765W        W32296  41.920  38.972  10.627
70766W        W32297   9.150  10.214   2.856
70767W        W32298  15.136  25.004   1.925
70768W        W32299  17.755  23.063   0.463
70769W        W32300  43.465   6.268   2.688
70770W        W32301  26.624   7.327   2.726
70771W        W32302  20.061  35.973   2.861
70772W        W32303   4.440  38.063  11.922
70773W        W32304  21.117  30.139   4.737
70774W        W32305   0.901  37.415  10.092
70775W        W32306   0.250  26.137   3.785
70776W        W32307  16.707   9.742  14.507
70777W        W32308   2.283   6.370   3.343
70778W        W32309  39.847  38.438  11.422
70779W        W32310  24.222  27.075   3.233
70780W        W32311  15.266  30.614   1.716
70781W        W32312  10.794  40.806   2.258
70782W        W32313  11.804   3.348   4.327
70783W        W32314  15.790  30.038  12.383
70784W        W32315   4.316   2.787  10.934
70785W        W32316  32.996  26.595   3.727
70786W        W32317  34.537  24.631   2.898
70787W        W32318  22.058  33.610   4.804
70788W        W32319   7.860  19.209   4.787
70789W        W32320  30.995  22.235   3.358
70790W        W32321  33.460   0.352   4.162
70791W        W32322  20.563  16.201   4.131
70792W        W32323   2.261   3.884  12.537
70793W        W32324  11.665  20.548   4.707
70794W        W32325  42.388  19.647  11.053
70795W        W32326   8.727  35.362  13.331
70796W        W32327  34.478  28.581   2.683
70797W        W32328  38.498  13.198   0.764
70798W        W32329  27.650  34.056  12.966
70799W        W32330  41.001  42.854   2.252
70800W        W32331  17.146   4.849  14.809
70801W        W32332  26.586  23.516  14.332
70802W        W32333  37.554  20.765   1.923
70803W        W32334  29.574   8.818   2.693
70804W        W32335  20.741  31.437   0.753
70805W        W32336  16.706   0.922   1.741
70806W        W32337  11.330   5.893  13.003
70807W        W32338   2.846  13.846   2.279
70808W        W32339  16.625   2.313  11.380
70809W        W32340  24.125  14.735   2.362
70810W        W32341  38.027  33.935  14.372
70811W        W32342  40.821  10.383   3.309
70812W        W32343  43.331   8.715  13.420
70813W        W32344  13.843  28.004  14.346
70814W        W32345  41.368  23.500  13.990
70815W        W32346  20.051  44.376   2.289
70816W        W32347  37.933  31.049   3.853
70817W        W32348   9.792  30.646  12.915
70818W        W32349  17.222   7.784  14.840
70819W        W32350  27.112  42.839   1.846
70820W        W32351  36.503   6.756  10.500
70821W        W32352  42.937  41.831   1.443
70822W        W32353  42.372   7.232   3.292
70823W        W32354  27.542  43.381   0.921
70824W        W32355  32.559  31.580   2.886
70825W        W32356  44.377  22.590   3.789
70826W        W32357  24.121   6.226   3.186
70827W        W32358  11.167   5.890  11.434
70828W        W32359  32.997  41.314  14.813
70829W        W32360  32.635   5.814   2.247
70830W        W32361  20.208  37.994  14.789
70831W        W32362  24.521  37.349  14.399
70832W        W32363  38.515  34.999   1.271
70833W        W32364  23.691  12.189  13.541
70834W        W32365  19.708  26.090   1.444
70835W        W32366  22.512  34.978  14.003
70836W        W32367   2.286   5.730  11.968
70837W        W32368  16.674  37.510  12.345
70838W        W32369  20.538  28.579   0.279
70839W        W32370  19.192  14.148  12.461
70840W        W32371   2.400  43.921   2.416
70841W        W32372  32.531  24.700  14.299
70842W        W32373  24.996  40.954  10.521
70843W        W32374  33.907  18.715   4.212
70844W        W32375  34.890  15.160   2.833
70845W        W32376  16.108  13.244  11.594
70846W        W32377  24.681   1.252  14.816
70847W        W32378  43.468   5.433  14.490
70848W        W32379  36.465  23.560  13.313
70849W        W32380  39.972  13.327   3.281
70850W        W32381   0.982  43.437  13.900
70851W        W32382  40.469  39.820   3.798
70852W        W32383  26.976  23.167  12.882
70853W        W32384  27.131  18.102   0.938
70854W        W32385  36.478  21.546   0.902
70855W        W32386  13.318  39.340   1.694
70856W        W32387  34.407  18.103   4.277
70857W        W32388  42.365   6.739   2.329
70858W        W32389   6.238  11.838  11.607
70859W        W32390  30.021  32.455  11.985
70860W        W32391  25.132  21.138   2.362
70861W        W32392   4.220  37.060  12.506
70862W        W32393  17.628  17.675  12.096
70863W        W32394  44.971  22.558   1.402
70864W        W32395   5.257  10.848   4.815
70865W        W32396   7.741  38.865   3.218
70866W        W32397   0.431  34.514   0.897
70867W        W32398  22.028   0.858  11.039
70868W        W32399  29.579  30.493   3.689
70869W        W32400   1.833  27.961   2.231
70870W        W32401   2.831  38.952  10.529
70871W        W32402   3.814  28.642  11.053
70872W        W32403  21.094   9.319   0.943
70873W        W32404  17.145  30.413  13.365
70874W        W32405  41.957  39.831   3.827
70875W        W32406  38.445  19.277   4.810
70876W        W32407  37.418  29.108   2.851
70877W        W32408  35.952  15.806   2.888
70878W        W32409  26.609  28.495  11.560
70879W        W32410  42.348  29.964  11.992
70880W        W32411  27.605   5.263  12.825
70881W        W32412   9.378  18.144   2.299
70882W        W32413  35.914   7.813   3.364
70883W        W32414   3.290  17.264  14.873
70884W        W32415  40.913  13.142  10.623
70885W        W32416  43.417  16.644   2.385
70886W        W32417  20.043  10.313  10.966
70887W        W32418  19.689  39.902   0.966
70888W        W32419  25.067  18.737  13.365
70889W        W32420  38.878  44.808   4.686
70890W        W32421  15.290  42.360   1.243
70891W        W32422   9.647  13.343   3.802
70892W        W32423   0.455  31.056   2.746
70893W        W32424  40.468  21.585   1.247
70894W        W32425  34.010  18.702  11.443
70895W        W32426   2.454  29.959  10.637
70896W        W32427   4.920  32.015  10.126
70897W        W32428  43.872  37.569  11.002
70898W        W32429  17.158  40.052  10.476
70899W        W32430  34.540  40.974   3.674
70900W        W32431  31.940  22.654   3.330
70901W        W32432  30.645  28.527   1.390
70902W        W32433  44.308  35.377  14.802
70903W        W32434  29.564   4.350  13.833
70904W        W32435  44.949   1.931  11.994
70905W        W32436  36.452  18.718   3.679
70906W        W32437  18.167  14.107   0.414
70907W        W32438  31.563  37.054  11.540
70908W        W32439   8.365  39.821   2.339
70909W        W32440  38.837  20.615  13.368
70910W        W32441   3.330  37.887   0.952
70911W        W32442   6.767  41.417   0.467
70912W        W32443  32.617  16.137  14.988
70913W        W32444  30.471  27.966   5.161
70914W        W32445  13.180  34.522  13.904
70915W        W32446   5.860  29.953  13.400
70916W        W32447  40.797  26.967   2.878
70917W        W32448  16.164  32.905  13.476
70918W        W32449  38.365  43.491  13.403
70919W        W32450  42.488  40.332   4.631
70920W        W32451  12.740  13.345  10.985
70921W        W32452  32.077   5.774   2.670
70922W        W32453  36.970  13.742   3.183
70923W        W32454  15.108  32.061  12.909
70924W        W32455  18.235  15.157   0.820
70925W        W32456   9.857  25.692   3.754
70926W        W32457   5.908  25.036   4.264
70927W        W32458  30.528   0.765   3.194
70928W        W32459  24.100  41.373   5.154
70929W        W32460  40.817  26.484   4.340
70930W        W32461  29.587  41.911  12.541
70931W        W32462  27.184  10.261   1.448
70932W        W32463  10.692  30.445  14.979
70933W        W32464  12.362  28.438  14.026
70934W        W32465  38.564   2.789   1.731
70935W        W32466  28.105  38.463  13.018
70936W        W32467  40.331   3.457  13.942
70937W        W32468  16.781  43.952   1.424
70938W        W32469  35.459  41.409  11.933
70939W        W32470  31.977  14.806  10.537
70940W        W32471  10.177   5.883   4.314
70941W        W32472  12.832  15.207  10.504
70942W        W32473  16.137   2.385  14.450
70943W        W32474  37.967  37.499   1.308
70944W        W32475   0.858   1.449  14.468
70945W        W32476  35.073  19.679   3.177
70946W        W32477  44.461  19.561   9.964
70947W        W32478  25.574   5.195  14.930
70948W        W32479  34.868  33.618   4.693
70949W        W32480   5.282  26.568  10.630
70950W        W32481  18.596  21.560  12.480
70951W        W32482   0.764  44.799  10.621
70952W        W32483  27.012  37.870  11.442
70953W        W32484  44.277  23.185  13.394
70954W        W32485  36.871   3.851   3.197
70955W        W32486  14.311   7.183   3.217
70956W        W32487  13.731   0.957   4.142
70957W        W32488  15.236  28.667   1.846
70958W        W32489  31.933  25.500  14.513
70959W        W32490  19.712  34.509   0.941
70960W        W32491  36.876  25.541   2.294
70961W        W32492   4.772  44.865  10.501
70962W        W32493   6.844  26.168   3.347
70963W        W32494  11.322  14.796   4.691
70964W        W32495   3.712  12.825   0.473
70965W        W32496  34.410  13.215   2.899
70966W        W32497  40.318  17.222  13.450
70967W        W32498  25.114   2.797  12.030
70968W        W32499  24.716  28.181   1.777
70969W        W32500   4.914  41.504  13.934
70970W        W32501  33.570  36.979   4.711
70971W        W32502  13.675   4.357   3.731
70972W        W32503  11.153  38.865   4.177
70973W        W32504  42.367   6.422  14.997
70974W        W32505  41.911  39.454  12.438
70975W        W32506   6.226  15.671   2.881
70976W        W32507   0.766  10.372  11.442
70977W        W32508  28.488  25.085  10.919
70978W        W32509  20.731  33.501  12.947
70979W        W32510  17.219   6.765   1.857
70980W        W32511  44.500  34.043  11.512
70981W        W32512  17.212  36.446   0.745
70982W        W32513  10.236  10.354  13.338
70983W        W32514  36.484  35.867  10.590
70984W        W32515  21.208  40.036  12.940
70985W        W32516   4.304  22.550  14.789
70986W        W32517  29.471  32.018  12.961
70987W        W32518   8.837  24.649   0.384
70988W        W32519  23.013  21.724   2.254
70989W        W32520  41.372  24.084  11.554
70990W        W32521   3.920  33.973   3.223
70991W        W32522  16.613  12.128   2.399
70992W        W32523  38.891   3.460  14.291
70993W        W32524  12.358  37.848  14.385
70994W        W32525  38.375   9.797   2.667
70995W        W32526  17.761  34.498   3.760
70996W        W32527  41.936  41.467   4.608
70997W        W32528  13.759  16.160  12.917
70998W        W32529  15.712  40.511   0.948
70999W        W32530  35.863   4.387   2.838
71000W        W32531  23.160  14.755  12.889
71001W        W32532  40.493  44.904  12.384
71002W        W32533  39.037  38.434   3.246
71003W        W32534  33.516   4.913   0.247
71004W        W32535  42.301  31.471   1.767
71005W        W32536  30.929  22.583   0.851
71006W        W32537   9.335  24.521   2.744
71007W        W32538  10.752  21.553  12.382
71008W        W32539  22.193  30.057   0.794
71009W        W32540   8.892  29.620   3.725
71010W        W32541   9.676  21.191   4.777
71011W        W32542  15.137  37.946  11.919
71012W        W32543  44.892  43.818   2.746
71013W        W32544  29.030  36.479   0.314
71014W        W32545  32.127  35.928   1.229
71015W        W32546  26.207  14.726   4.188
71016W        W32547  37.461  31.995   0.758
71017W        W32548  20.111  15.279   3.838
71018W        W32549  42.466  12.631   3.197
71019W        W32550   6.741  22.685  12.383
71020W        W32551  20.045   6.817  12.356
71021W        W32552  39.363   3.810  13.911
71022W        W32553   2.942  38.954  13.808
71023W        W32554  27.554   7.217   1.312
71024W        W32555  24.178  43.464  10.906
71025W        W32556  19.655  10.221   0.395
71026W        W32557  29.069   2.779  14.895
71027W        W32558   1.468   2.748   3.232
71028W        W32559  23.724  28.455  11.126
71029W        W32560  29.525  19.619  11.993
71030W        W32561  12.661  12.670  11.049
71031W        W32562  19.545  32.069   1.913
71032W        W32563  30.143  13.216   3.181
71033W        W32564  44.915  38.926  14.412
71034W        W32565   6.762  27.498   3.811
71035W        W32566  37.982   2.877   2.799
71036W        W32567  39.821  31.624  11.979
71037W        W32568   2.963  11.851  14.314
71038W        W32569  15.147  33.898   3.306
71039W        W32570   4.297  10.853  10.633
71040W        W32571   3.953   2.298  10.457
71041W        W32572  43.913  21.088  10.019
71042W        W32573  32.608  10.355   9.676
71043W        W32574   7.745  19.260  12.074
71044W        W32575  15.184   9.823   4.667
71045W        W32576  12.634  34.415  14.516
71046W        W32577  31.024  44.937   0.354
71047W        W32578  33.074  25.602   3.363
71048W        W32579  43.987  30.917  11.374
71049W        W32580  20.227  41.007  13.815
71050W        W32581   0.343   6.194   0.943
71051W        W32582  29.443  14.115   3.655
71052W        W32583  17.223  21.703   1.277
71053W        W32584  16.248  25.497  13.477
71054W        W32585  43.856  16.772  10.588
71055W        W32586  31.952  36.399  10.087
71056W        W32587  17.629  33.561  11.879
71057W        W32588  19.693  23.508   0.262
71058W        W32589  44.770  11.359   2.280
71059W        W32590   9.757   5.384   1.878
71060W        W32591  22.087  36.399   3.674
71061W        W32592   6.738  28.071  13.543
71062W        W32593  11.150  40.895  14.346
71063W        W32594  41.881  29.107   0.406
71064W        W32595  30.512  21.077  14.866
71065W        W32596  26.058  10.175   5.252
71066W        W32597  29.990   4.773  10.421
71067W        W32598  18.256  38.941   3.213
71068W        W32599  24.156  27.950   1.736
71069W        W32600   3.323   3.440  14.029
71070W        W32601  12.728  40.452  12.019
71071W        W32602  35.029   4.803   3.166
71072W        W32603  31.403  34.392   1.412
71073W        W32604  22.208  18.657  10.608
71074W        W32605  30.599  44.353  12.526
71075W        W32606  11.850   3.711   1.826
71076W        W32607  26.569  43.506   3.816
71077W        W32608  32.965  42.934   3.285
71078W        W32609   4.756   7.730  13.973
71079W        W32610  32.058  35.404  10.506
71080W        W32611   6.188  44.819  14.983
71081W        W32612  18.713  16.689  11.379
71082W        W32613   2.944   3.354  10.153
71083W        W32614   8.267  31.061   4.304
71084W        W32615  25.970  10.221  13.938
71085W        W32616  20.654  41.008  13.491
71086W        W32617   9.781   2.233  14.959
71087W        W32618  36.006   1.354   4.168
71088W        W32619  19.619   9.652  12.884
71089W        W32620   2.794  21.081   3.178
71090W        W32621  18.153  11.779  12.547
71091W        W32622  28.056  13.637  12.340
71092W        W32623  42.374  25.085   4.630
71093W        W32624  16.144  31.533  12.544
71094W        W32625  37.424  36.489   3.731
71095W        W32626  25.700  22.156  14.281
71096W        W32627  10.737  41.822  11.579
71097W        W32628  37.563  26.038  11.944
71098W        W32629  27.526  29.135   3.776
71099W        W32630   7.874  25.972   3.752
71100W        W32631  34.582   0.945  12.468
71101W        W32632  43.993   4.787   3.308
71102W        W32633   7.731  44.924   0.816
71103W        W32634   6.283  28.520   3.160
71104W        W32635  36.391   2.354  11.448
71105W        W32636  26.003  23.724   1.255
71106W        W32637  11.778  17.609  13.851
71107W        W32638  17.788  41.792  11.468
71108W        W32639  13.739  37.873   4.124
71109W        W32640   8.872   5.431  13.442
71110W        W32641   0.277   3.241   0.954
71111W        W32642   2.392  11.822   4.216
71112W        W32643  33.085   8.729  13.043
71113W        W32644  42.819  37.455   1.804
71114W        W32645  34.469  28.063  14.766
71115W        W32646  42.881  12.729   3.366
71116W        W32647  17.724  35.360  14.330
71117W        W32648  16.742  35.594  12.537
71118W        W32649  17.188  20.615   1.796
71119W        W32650  38.496  28.091   1.882
71120W        W32651  34.388  28.951   4.184
71121W        W32652  37.855  35.494   1.428
71122W        W32653  43.437  15.582   4.253
71123W        W32654  43.807  38.044  13.854
71124W        W32655  37.917   1.397   2.867
71125W        W32656  29.667  42.357   1.277
71126W        W32657  38.406  38.920   1.242
71127W        W32658  34.885  38.355  10.952
71128W        W32659  28.183  26.672  13.443
71129W        W32660   4.322  39.917  11.502
71130W        W32661  42.885  38.358   1.827
71131W        W32662  41.301  14.336  12.903
71132W        W32663   9.722  28.577   4.189
71133W        W32664  36.425  40.451   1.220
71134W        W32665  26.483  14.714   2.676
71135W        W32666  29.030   7.679  11.545
71136W        W32667  10.662   8.810  11.585
71137W        W32668   6.409  29.145   3.322
71138W        W32669   8.356  22.518  14.436
71139W        W32670  11.346  26.169   3.239
71140W        W32671  16.243  15.252   2.388
71141W        W32672   0.948  34.950   2.226
71142W        W32673  14.229  43.472  11.474
71143W        W32674  11.171  24.483  10.491
71144W        W32675  20.700  19.164  11.875
71145W        W32676   2.785  16.161   0.391
71146W        W32677  28.137  33.022   4.203
71147W        W32678  35.517  22.221   2.340
71148W        W32679  42.349   0.264  10.968
71149W        W32680   3.442  13.835   4.819
71150W        W32681  40.006  37.937  12.488
71151W        W32682   9.823  22.563   4.264
71152W        W32683  22.113  16.297  13.931
71153W        W32684  12.341  10.704  12.438
71154W        W32685  40.941   0.853   2.365
71155W        W32686  33.940   3.302  13.422
71156W        W32687  31.939  23.225   4.810
71157W        W32688  28.943  34.479  12.834
71158W        W32689  16.604  31.006  14.963
71159W        W32690  10.701  36.522  12.569
71160W        W32691  36.845  22.542   3.721
71161W        W32692   1.867  28.999   4.131
71162W        W32693  23.604  42.813   2.281
71163W        W32694  36.356  18.121   2.696
71164W        W32695  22.738  30.514  12.962
71165W        W32696  40.343   5.347  14.283
71166W        W32697  37.540  30.126   2.714
71167W        W32698   1.838  21.019   3.788
71168W        W32699  35.924  14.686   1.299
71169W        W32700  20.625  10.320   0.468
71170W        W32701   5.917  33.030  14.016
71171W        W32702  42.502  34.960  10.515
71172W        W32703  19.773  22.588   1.879
71173W        W32704  29.621   0.760  12.895
71174W        W32705  36.931   1.390  13.896
71175W        W32706   0.280  30.634  11.609
71176W        W32707  23.133  43.962  10.484
71177W        W32708  32.060  11.310  11.051
71178W        W32709  20.089  10.787  13.064
71179W        W32710  27.160   8.361   1.296
71180W        W32711  24.597  26.966   4.303
71181W        W32712   0.291   1.285   1.781
71182W        W32713  36.471   2.407   0.743
71183W        W32714  36.415  42.012   3.327
71184W        W32715  37.984  12.838   0.945
71185W        W32716  31.046   9.380   1.873
71186W        W32717  16.667  35.103  14.514
71187W        W32718   2.247  16.787   2.358
71188W        W32719  40.434  37.384  13.966
71189W        W32720  30.000  18.253  12.555
71190W        W32721  17.307  40.427   3.835
71191W        W32722   0.416  22.558  13.814
71192W        W32723  12.799  10.833   0.899
71193W        W32724  30.030  39.452   2.349
71194W        W32725   2.941  31.138  14.319
71195W        W32726  15.795  28.131  13.384
71196W        W32727   5.405   5.785   4.656
71197W        W32728   1.434  39.988  12.935
71198W        W32729  27.183  20.196  11.904
71199W        W32730  19.146   0.337   2.861
71200W        W32731  26.530  10.382  14.855
71201W        W32732  42.521  16.711   1.919
71202W        W32733  13.766   2.935   4.129
71203W        W32734  21.113   5.904   4.663
71204W        W32735  13.793  19.671  12.417
71205W        W32736  20.690  36.040   3.345
71206W        W32737  23.218  13.203  11.908
71207W        W32738   0.290  15.184  12.086
71208W        W32739   3.407  10.315   2.346
71209W        W32740   2.738  10.806  12.026
71210W        W32741   4.765   1.809  14.440
71211W        W32742  35.371  40.383  12.557
71212W        W32743  42.925   3.372  14.293
71213W        W32744  12.628  24.033   3.241
71214W        W32745  35.546  44.298   2.216
71215W        W32746  23.728  43.305  13.917
71216W        W32747   2.240  36.490   2.326
71217W        W32748   5.413  43.868  14.956
71218W        W32749   4.353   5.281  11.938
71219W        W32750   1.378  41.397  12.422
71220W        W32751  39.422  44.426  10.476
71221W        W32752  17.603  23.502  14.422
71222W        W32753   1.388  44.928  10.418
71223W        W32754  10.764  39.557  12.528
71224W        W32755  27.952  23.593  11.960
71225W        W32756  41.978   1.755  10.073
71226W        W32757  14.620  33.471  11.493
71227W        W32758  41.842  34.402   4.175
71228W        W32759   6.389  36.959   3.209
71229W        W32760  37.920  42.332   4.131
71230W        W32761  38.071  26.202   1.275
71231W        W32762   5.913   8.859   0.856
71232W        W32763  36.987  18.164  10.908
71233W        W32764  14.318  36.356   0.860
71234W        W32765  25.608   0.310   9.987
71235W        W32766   0.966  34.866  10.119
71236W        W32767  18.743  37.989  13.998
71237W        W32768  19.775  39.861  14.420
71238W        W32769  13.278  11.754   3.292
71239W        W32770  25.197  21.716  10.621
71240W        W32771  44.824  27.500  11.054
71241W        W32772  26.517   7.806   4.262
71242W        W32773  26.209  27.691  13.373
71243W        W32774  30.445  16.770  12.891
71244W        W32775  20.590  25.571   2.243
71245W        W32776   8.661  43.768   1.799
71246W        W32777  40.901  41.441   0.378
71247W        W32778   9.875  30.436  11.585
71248W        W32779  42.474   8.373  14.816
71249W        W32780  25.584  16.156  10.504
71250W        W32781  10.683  32.093   0.284
71251W        W32782  26.623  19.773   3.387
71252W        W32783  22.178  27.622   0.427
71253W        W32784  33.883  41.321   4.138
71254W        W32785  26.089  37.350  10.641
71255W        W32786  27.051  33.071   4.266
71256W        W32787  35.451  39.372   4.748
71257W        W32788  39.335  42.851   4.181
71258W        W32789  38.344   1.391   1.913
71259W        W32790  42.007  44.269   1.855
71260W        W32791  24.224   9.384   0.409
71261W        W32792  29.498  12.355   2.340
71262W        W32793  32.597   7.365   2.777
71263W        W32794  44.367  15.185  11.970
71264W        W32795  17.772   3.907  11.928
71265W        W32796  32.537  44.926   2.753
71266W        W32797  33.074  34.436  10.557
71267W        W32798  29.567  14.701   0.445
71268W        W32799  44.263  17.189  12.340
71269W        W32800   2.812  39.059  11.871
71270W        W32801   7.220   4.374  12.977
71271W        W32802  37.012   0.383  10.439
71272W        W32803  40.051  28.528   1.722
71273W        W32804  39.359  30.591  11.107
71274W        W32805  19.757   8.263   2.850
71275W        W32806  13.705  22.604   4.191
71276W        W32807   3.318  11.804  14.348
71277W        W32808  20.174  32.477  12.424
71278W        W32809  18.644  19.104  12.340
71279W        W32810   0.463   1.269   1.293
71280W        W32811  22.730  12.702  10.894
71281W        W32812  32.546  31.006   2.246
71282W        W32813  20.556   9.360  11.416
71283W        W32814  13.665  12.319   1.874
71284W        W32815  17.140  10.355  13.913
71285W        W32816  40.507  41.330   2.830
71286W        W32817  13.822  14.789  12.858
71287W        W32818  17.745   0.441   3.865
71288W        W32819  27.965  21.575  13.371
71289W        W32820   1.463  40.356   3.769
71290W        W32821  40.309  43.482  14.397
71291W        W32822  17.282   2.915  14.980
71292W        W32823  17.147  32.120  11.443
71293W        W32824   6.354  23.009  10.573
71294W        W32825  32.634   0.266  12.389
71295W        W32826  22.709  15.219   4.277
71296W        W32827  30.417  27.123  12.478
71297W        W32828  21.211  20.227   1.927
71298W        W32829  33.978  28.070  14.463
71299W        W32830  30.496  12.798   3.734
71300W        W32831  42.917  11.182  10.611
71301W        W32832   2.894  31.006  12.867
71302W        W32833   4.345   9.158  13.049
71303W        W32834  14.730  36.908  12.027
71304W        W32835   5.349  11.325   1.808
71305W        W32836  44.400  33.420   2.185
71306W        W32837  35.956  24.116  11.902
71307W        W32838  16.078  18.767   1.811
71308W        W32839  26.459  39.542   1.884
71309W        W32840  38.021   0.973  10.980
71310W        W32841  24.554  38.826  11.492
71311W        W32842   2.298  36.487   1.426
71312W        W32843  13.245  17.229  10.005
71313W        W32844  39.539  23.022  11.059
71314W        W32845  28.594  24.564   2.259
71315W        W32846  15.781   4.864  13.396
71316W        W32847  20.150  25.063  13.510
71317W        W32848  13.774   5.197  14.918
71318W        W32849  27.158  38.018   0.819
71319W        W32850  30.029  40.514   2.279
71320W        W32851   3.430  23.024  13.826
71321W        W32852  28.929  22.156  12.983
71322W        W32853  17.199  43.513  11.594
71323W        W32854  38.002  25.496  12.555
71324W        W32855  25.034  31.998  12.095
71325W        W32856  35.429  38.522   4.149
71326W        W32857  10.696  16.074   0.305
71327W        W32858  28.484  41.826   2.771
71328W        W32859  27.093  43.944  12.946
71329W        W32860  38.042  37.955  10.946
71330W        W32861   5.371  33.574  10.433
71331W        W32862  16.315  21.595   3.337
71332W        W32863  13.343  38.504  13.510
71333W        W32864   0.328  13.616   2.706
71334W        W32865  35.943  32.581  14.877
71335W        W32866  27.674   7.761  12.025
71336W        W32867   7.829   8.748   3.716
71337W        W32868  17.566  43.985   1.787
71338W        W32869  10.187   5.711   1.762
71339W        W32870  28.659  12.145   3.178
71340W        W32871  40.309  18.247   1.788
71341W        W32872  28.638  41.520  10.972
71342W        W32873  21.658  28.105  12.550
71343W        W32874  43.412   7.417   0.445
71344W        W32875  20.040  26.646  10.043
71345W        W32876  12.633  37.440  13.028
71346W        W32877  14.606   6.894   4.174
71347W        W32878  20.554   5.807   4.192
71348W        W32879  35.086  12.256   2.394
71349W        W32880  18.664  13.837   2.789
71350W        W32881  11.668  18.605   3.870
71351W        W32882  36.974   2.263   4.293
71352W        W32883   8.371  20.569  11.098
71353W        W32884   3.863  39.368   0.944
71354W        W32885  40.883   4.782   4.309
71355W        W32886  17.592  21.741   0.448
71356W        W32887  32.026  35.501   4.322
71357W        W32888  14.154  39.861   2.742
71358W        W32889   4.277  10.369   0.392
71359W        W32890  12.815   5.782  11.061
71360W        W32891   6.263  30.008  10.585
71361W        W32892  29.045  24.559   3.669
71362W        W32893  17.754   6.408  14.296
71363W        W32894  44.368  33.382  10.554
71364W        W32895  15.143  29.121   0.268
71365W        W32896  12.306  39.047   2.189
71366W        W32897  11.819   3.711  11.473
71367W        W32898  31.083  44.386   2.240
71368W        W32899   5.827  28.453   0.942
71369W        W32900  28.072   7.676   4.287
71370W        W32901  41.041  40.528   1.414
71371W        W32902   3.946  35.410  14.431
71372W        W32903  26.590   4.358   0.260
71373W        W32904   4.304   2.318   2.752
71374W        W32905  40.930  26.983   3.780
71375W        W32906  18.282   7.190   1.770
71376W        W32907   6.829  21.645  13.964
71377W        W32908   9.737   1.766   0.805
71378W        W32909   4.881  39.429  14.903
71379W        W32910  20.532   8.255   3.363
71380W        W32911  13.699   9.166  11.940
71381W        W32912   4.420   4.747   3.658
71382W        W32913  44.398  16.790   4.817
71383W        W32914  37.561   4.274  14.814
71384W        W32915  16.634   5.402  11.550
71385W        W32916  31.953  33.535   1.434
71386W        W32917  37.874  23.624   2.899
71387W        W32918   8.720  22.200   3.778
71388W        W32919  41.302  22.694   1.769
71389W        W32920  30.518  43.352   2.768
71390W        W32921  31.042  21.116   2.795
71391W        W32922   7.862  39.926   0.768
71392W        W32923  40.975  27.978  11.072
71393W        W32924  43.776  29.027   2.861
71394W        W32925  23.607  36.938  11.533
71395W        W32926  13.186   9.206   2.812
71396W        W32927  25.533  11.771   0.797
71397W        W32928  32.419   5.874   3.824
71398W        W32929   2.906  37.044  14.364
71399W        W32930  30.455  25.073   4.735
71400W        W32931  23.035   9.359  14.850
71401W        W32932  11.254  31.512  12.448
71402W        W32933   2.813  11.359  12.461
71403W        W32934   5.825  23.087  12.864
71404W        W32935  39.447  23.035  14.384
71405W        W32936  15.137  41.860   3.733
71406W        W32937  15.132  39.829   3.853
71407W        W32938  39.425  41.983   1.253
71408W        W32939  19.276  29.094   0.311
71409W        W32940  31.563  21.691   0.466
71410W        W32941  26.058  21.713   0.845
71411W        W32942  13.315  22.678   1.253
71412W        W32943  16.114  40.833   0.442
71413W        W32944  22.218  12.756  11.963
71414W        W32945  30.053  17.168   1.752
71415W        W32946  11.220  43.910   3.810
71416W        W32947   7.220  10.766   3.149
71417W        W32948  35.898  30.421   4.313
71418W        W32949   9.786  35.028  12.076
71419W        W32950   6.363  31.493   0.464
71420W        W32951  10.365  13.336  14.770
71421W        W32952  21.026  27.663   4.741
71422W        W32953   6.407  34.610   1.875
71423W        W32954  27.534  28.468  11.960
71424W        W32955  42.428  17.305   4.213
71425W        W32956  14.794  14.613   0.758
71426W        W32957  33.975   9.341   3.771
71427W        W32958  24.175  23.044  12.011
71428W        W32959  16.707  42.302  11.454
71429W        W32960   5.205   4.275  12.920
71430W        W32961   9.798   0.841   2.798
71431W        W32962  13.272  43.285  12.847
71432W        W32963   3.350  24.062   2.214
71433W        W32964  40.910   0.820  11.522
71434W        W32965  11.282  29.049   1.897
71435W        W32966  15.206  20.161   0.897
71436W        W32967   7.902   6.906  13.316
71437W        W32968  36.505  27.594   4.806
71438W        W32969  39.822  36.970  11.911
71439W        W32970  33.985  24.569  10.471
71440W        W32971  38.065   8.853  13.826
71441W        W32972  22.164  37.929   2.393
71442W        W32973   7.305  36.574  14.446
71443W        W32974  14.127  11.219  14.762
71444W        W32975  34.527  39.498  14.434
71445W        W32976  39.054   5.437   4.607
71446W        W32977  35.587  19.218  13.517
71447W        W32978   9.241  38.481   0.948
71448W        W32979  28.014  26.051  11.439
71449W        W32980   3.236   5.286  14.294
71450W        W32981  31.520  24.217  12.951
71451W        W32982  24.637  10.301   1.885
71452W        W32983   4.340  11.199  10.458
71453W        W32984  30.987   8.295   2.198
71454W        W32985  43.927  37.044   2.811
71455W        W32986  40.506  27.455  11.491
71456W        W32987   0.442  26.185  12.494
71457W        W32988  32.610  19.620   5.183
71458W        W32989  17.751   0.313  13.468
71459W        W32990   6.729  22.236   3.166
71460W        W32991  33.587  21.607  12.556
71461W        W32992  14.325  21.209  11.877
71462W        W32993  23.036  33.990  10.953
71463W        W32994  30.509  16.642   9.581
71464W        W32995  26.018   5.301   2.890
71465W        W32996  17.784   7.885  10.473
71466W        W32997  35.989  29.659  11.537
71467W        W32998  41.488  10.677   2.825
71468W        W32999  29.604  39.950   3.662
71469W        W33000   6.338  12.804   4.208
71470W        W33001  15.170  42.329   0.390
71471W        W33002  20.253   5.741  13.033
71472W        W33003  10.268  36.948   0.841
71473W        W33004  29.652  30.148   2.782
71474W        W33005  17.185  25.141  14.925
71475W        W33006   0.381  10.647   2.189
71476W        W33007   8.268   0.434   3.783
71477W        W33008   5.195  12.681  11.904
71478W        W33009  21.732  20.648  12.862
71479W        W33010  21.550  44.266   2.859
71480W        W33011   1.302  35.542  11.580
71481W        W33012   8.710  10.764  12.429
71482W        W33013  18.182   6.331  12.904
71483W        W33014   5.931  26.598  12.365
71484W        W33015   3.845   6.722   0.405
71485W        W33016   8.279   3.429   3.795
71486W        W33017   9.370   7.852   4.113
71487W        W33018  37.031  41.320   3.706
71488W        W33019  30.543  39.462  14.922
71489W        W33020   6.812  26.073   0.458
71490W        W33021  12.317  20.615   1.258
71491W        W33022  16.593  16.251   4.246
71492W        W33023  26.605   1.327   2.666
71493W        W33024  41.036   2.376   0.394
71494W        W33025  35.413  21.031  10.892
71495W        W33026  42.358  16.219  11.520
71496W        W33027  18.060  40.029   2.186
71497W        W33028  18.225  35.012  14.466
71498W        W33029  13.796  26.050   3.801
71499W        W33030   2.965  37.919   3.721
71500W        W33031   5.388  28.023  13.937
71501W        W33032  44.413  30.141   0.403
71502W        W33033  33.615   8.795   0.868
71503W        W33034  14.287  31.526   0.803
71504W        W33035   3.855  35.878   5.170
71505W        W33036   1.781   5.329  13.384
71506W        W33037   0.972  43.291  13.326
71507W        W33038  37.048  10.709  11.500
71508W        W33039  23.512  23.005   3.708
71509W        W33040   6.361  26.965   3.298
71510W        W33041  41.933  24.076  12.359
71511W        W33042  13.816  26.146  10.981
71512W        W33043  17.598   3.836   0.819
71513W        W33044  38.867  16.645  12.413
71514W        W33045  15.240  31.928   0.359
71515W        W33046   7.300  41.844  12.580
71516W        W33047  19.595  23.160   1.888
71517W        W33048   1.449  24.073  12.970
71518W        W33049  17.186  21.539   4.197
71519W        W33050  15.310  19.256  13.509
71520W        W33051  12.299  26.031   4.698
71521W        W33052  32.543  15.754  14.969
71522W        W33053   9.663  32.532  13.490
71523W        W33054  19.071  26.020   0.798
71524W        W33055  42.827  20.141   2.664
71525W        W33056  35.965   0.429  11.582
71526W        W33057  42.927   3.745   1.811
71527W        W33058  38.932   0.841   2.319
71528W        W33059  22.675   9.328   3.806
71529W        W33060  23.074  31.499   1.216
71530W        W33061  26.082  33.402   1.906
71531W        W33062  19.719   3.326  13.458
71532W        W33063  22.031  43.489  12.488
71533W        W33064  41.867  36.872  13.911
71534W        W33065  31.088   2.862   2.317
71535W        W33066  38.564  31.548  13.936
71536W        W33067  15.214  15.255  13.978
71537W        W33068  39.937  23.510  12.431
71538W        W33069  17.762   4.430  11.396
71539W        W33070   4.740  41.851  13.343
71540W        W33071   1.920  32.924   2.269
71541W        W33072  10.790  41.992  10.530
71542W        W33073  36.390   5.853   3.694
71543W        W33074  13.724   3.718  12.022
71544W        W33075   3.884  13.348   2.231
71545W        W33076  31.133   9.231  12.430
71546W        W33077  35.942  24.098   2.860
71547W        W33078  26.100  22.013   2.823
71548W        W33079  28.121  29.146   0.314
71549W        W33080  11.188  38.042  14.441
71550W        W33081  32.062  31.588   4.655
71551W        W33082  37.408   3.848   1.834
71552W        W33083   4.438  21.607  14.476
71553W        W33084   2.919  10.154   2.704
71554W        W33085  44.361   6.338  13.413
71555W        W33086  31.005  37.556   3.210
71556W        W33087  40.892   4.745   2.339
71557W        W33088  16.299   9.841   3.233
71558W        W33089  30.049  38.442   2.792
71559W        W33090  30.030  20.606   0.786
71560W        W33091  23.989  27.611  11.947
71561W        W33092  39.889  44.815   1.738
71562W        W33093  44.434  35.964   4.664
71563W        W33094  21.078  28.654  12.022
71564W        W33095  29.049  32.608  14.327
71565W        W33096   1.738  21.593  13.797
71566W        W33097  30.463  19.686  12.965
71567W        W33098  10.302   0.873   4.238
71568W        W33099  21.245  42.997  13.953
71569W        W33100   9.654  38.009   3.779
71570W        W33101  25.034  39.404   4.286
71571W        W33102   7.248   4.825   2.318
71572W        W33103  19.644   2.394  13.018
71573W        W33104   9.872  39.443   3.693
71574W        W33105   5.361  15.131   3.749
71575W        W33106  16.710  30.034   4.337
71576W        W33107   2.310  20.723   2.413
71577W        W33108  42.416   1.894   3.214
71578W        W33109  14.819  17.744  12.878
71579W        W33110  24.168  38.976  10.410
71580W        W33111  28.479  31.497   4.299
71581W        W33112  21.070  32.928   2.337
71582W        W33113   9.886  15.093   3.671
71583W        W33114  27.986  33.461   2.243
71584W        W33115  15.220  15.655  10.606
71585W        W33116  43.015   5.801  13.533
71586W        W33117   2.844  30.049  12.452
71587W        W33118  39.873   8.212  11.404
71588W        W33119  29.523   7.186  12.396
71589W        W33120  18.742  33.440  12.963
71590W        W33121  20.720  39.860   2.259
71591W        W33122  24.618   3.385   3.201
71592W        W33123  29.632   3.291  14.949
71593W        W33124   4.812  22.248   2.408
71594W        W33125  35.396   4.870   4.341
71595W        W33126  14.662  41.481  11.073
71596W        W33127  17.781  12.284  13.898
71597W        W33128  18.064  42.851  12.915
71598W        W33129  25.161  41.042  12.377
71599W        W33130  44.790  24.056  11.025
71600W        W33131  10.342  29.591   4.749
71601W        W33132  39.410   6.254  13.003
71602W        W33133   4.930  36.463   1.901
71603W        W33134   1.326  37.860  12.404
71604W        W33135  19.767  42.999  11.868
71605W        W33136  15.595  12.336  14.858
71606W        W33137   0.490  38.465  14.338
71607W        W33138  25.076  23.191   2.668
71608W        W33139   3.778   5.277  12.827
71609W        W33140  28.167  28.147  13.884
71610W        W33141  43.883  20.759   2.229
71611W        W33142  42.779  25.150  13.313
71612W        W33143  27.159  30.999   5.798
71613W        W33144  17.773   4.754   4.651
71614W        W33145  18.063  27.524  14.995
71615W        W33146  26.049  29.037   1.306
71616W        W33147  29.165  41.460   0.953
71617W        W33148   9.361  35.597   2.320
71618W        W33149  44.858  36.034  10.540
71619W        W33150   1.481   6.755   0.924
71620W        W33151  17.254   5.248  10.956
71621W        W33152  25.503  27.496   0.811
71622W        W33153  25.492  13.220  13.385
71623W        W33154  41.430  18.234  12.913
71624W        W33155  22.179  34.065  13.034
71625W        W33156  39.057  30.430   3.150
71626W        W33157   9.224   4.829   4.837
71627W        W33158   0.866  11.176   4.599
71628W        W33159  43.807  37.382   4.298
71629W        W33160   4.362  21.101   3.781
71630W        W33161  25.511  37.940   1.810
71631W        W33162  15.163  19.769   0.426
71632W        W33163   8.873  27.195  12.072
71633W        W33164  30.075  18.217  11.859
71634W        W33165   4.331  39.977  13.980
71635W        W33166  19.670   0.793   4.817
71636W        W33167  14.639  38.496   1.784
71637W        W33168  18.189   1.925   0.349
71638W        W33169   3.348  39.445   2.754
71639W        W33170  32.494  33.591   0.409
71640W        W33171  16.126  39.514  12.920
71641W        W33172  31.611  21.078  13.313
71642W        W33173   8.370  34.073  11.611
71643W        W33174  33.524  18.142   2.197
71644W        W33175  27.491  41.806   1.894
71645W        W33176  31.047  10.772   4.713
71646W        W33177  42.918   4.913   0.308
71647W        W33178  37.949  32.082  13.009
71648W        W33179  43.802   9.186   2.835
71649W        W33180  15.632  34.968   1.264
71650W        W33181  16.298   7.362  14.942
71651W        W33182  41.866  30.955   0.244
71652W        W33183  27.493  18.255  14.779
71653W        W33184  29.108  43.460  14.791
71654W        W33185   8.262   6.819   3.657
71655W        W33186  39.059   6.287   0.389
71656W        W33187  31.969  11.824  11.483
71657W        W33188  34.575  17.242  14.944
71658W        W33189   6.280  22.502   4.819
71659W        W33190  20.730  35.899   0.736
71660W        W33191  21.742   1.939  10.974
71661W        W33192   2.967   8.239   3.821
71662W        W33193   6.276  20.257  12.927
71663W        W33194  13.322  17.646  14.012
71664W        W33195   0.794  35.578  11.912
71665W        W33196  11.819  12.821  13.821
71666W        W33197  14.244  26.989  11.885
71667W        W33198  21.553   3.288  14.827
71668W        W33199  42.430  35.556  13.821
71669W        W33200  33.079  37.080  10.618
71670W        W33201  23.666  37.925   0.927
71671W        W33202   9.740  16.789  11.972
71672W        W33203  16.642   5.732   4.611
71673W        W33204  14.643  19.693   3.333
71674W        W33205  14.165  38.464  13.032
71675W        W33206  25.150   1.789  13.981
71676W        W33207  27.170  33.545   3.832
71677W        W33208  26.531  33.948  14.307
71678W        W33209  17.086  22.016  11.552
71679W        W33210   0.378  34.931   1.280
71680W        W33211  31.591   8.350   1.368
71681W        W33212  20.071   1.392   4.790
71682W        W33213  13.729  12.332  14.993
71683W        W33214  28.187   2.439  14.497
71684W        W33215  11.643  31.462  13.482
71685W        W33216  33.473  30.501   2.753
71686W        W33217  31.484  40.046   0.396
71687W        W33218  23.112  34.565   1.811
71688W        W33219  39.518  22.529   3.646
71689W        W33220  13.132  10.820   4.286
71690W        W33221  15.274  26.620   4.145
71691W        W33222  19.736  40.953  13.004
71692W        W33223  29.136  39.327   4.667
71693W        W33224   1.280  19.678  11.873
71694W        W33225  42.001  37.071  14.878
71695W        W33226   4.303  28.553  11.104
71696W        W33227  33.084  19.171   2.347
71697W        W33228  17.624  37.025  13.465
71698W        W33229  39.325  21.739  13.350
71699W        W33230  33.596  28.672   2.848
71700W        W33231   8.786  31.093   5.276
71701W        W33232   8.862   5.693   0.779
71702W        W33233  28.069  10.854   4.129
71703W        W33234  37.550  28.975   1.403
71704W        W33235  29.029   2.229  13.445
71705W        W33236  30.584  36.382   1.361
71706W        W33237   8.298  18.056  13.519
71707W        W33238   1.780   2.921  12.544
71708W        W33239  27.680  25.200  13.494
71709W        W33240   9.835  43.005  13.389
71710W        W33241  13.153   4.442  10.425
71711W        W33242  19.121  32.602   4.599
71712W        W33243  33.596  26.049   1.811
71713W        W33244  33.567  23.218   0.962
71714W        W33245  24.024  44.938   3.711
71715W        W33246   6.364  30.026  13.357
71716W        W33247  14.332  37.930  10.912
71717W        W33248  22.599   5.350   0.773
71718W        W33249  27.000  34.438  13.374
71719W        W33250  33.436  22.155   4.350
71720W        W33251   8.887  34.072   1.408
71721W        W33252  10.873  29.135   3.797
71722W        W33253  40.338  32.551   2.663
71723W        W33254  26.060  38.853  13.347
71724W        W33255  28.060  41.508  12.936
71725W        W33256  34.991  10.724  14.855
71726W        W33257  29.922  39.855   0.945
71727W        W33258  24.698   0.415  14.322
71728W        W33259   0.306   5.223  12.417
71729W        W33260  36.893  39.036   5.319
71730W        W33261   6.363  36.381  13.336
71731W        W33262  30.119  26.535   2.391
71732W        W33263  36.501  19.175   3.813
71733W        W33264  31.612   6.738   0.253
71734W        W33265  33.480  26.612   1.395
71735W        W33266  43.884  32.422  12.474
71736W        W33267  34.879   0.945   3.291
71737W        W33268  27.499  14.326  12.022
71738W        W33269   3.384  27.459  10.956
71739W        W33270  26.981   7.813   2.217
71740W        W33271  24.724  17.236  11.538
71741W        W33272  19.177  18.094   0.339
71742W        W33273   7.752   9.196  13.874
71743W        W33274  18.580  38.389   5.610
71744W        W33275  39.987  18.217   2.826
71745W        W33276  12.173  15.172  13.459
71746W        W33277  16.175   1.308   3.316
71747W        W33278  19.693  39.513   0.302
71748W        W33279  32.025   2.251  12.964
71749W        W33280  15.327  31.984  13.321
71750W        W33281  38.497  19.628  13.009
71751W        W33282  24.977  40.372   1.447
71752W        W33283  26.703   2.384   2.221
71753W        W33284  19.185  39.891  10.051
71754W        W33285   1.777  12.356  11.388
71755W        W33286  39.026  42.370   1.240
71756W        W33287  15.140  39.329   2.409
71757W        W33288  24.681  18.685   3.801
71758W        W33289   3.759  18.577   4.354
71759W        W33290  34.390  38.386   1.279
71760W        W33291  34.117   6.812  14.856
71761W        W33292  38.911  28.001  13.420
71762W        W33293  40.812  25.698  13.308
71763W        W33294   5.371  32.905  12.890
71764W        W33295  31.582  43.976  13.966
71765W        W33296   4.914  11.152  14.771
71766W        W33297   0.278  41.962  13.414
71767W        W33298  17.779  20.762  14.448
71768W        W33299  36.018  24.488  12.392
71769W        W33300  24.607  28.960   5.280
71770W        W33301  15.659  13.845   0.440
71771W        W33302  13.629  44.416   0.455
71772W        W33303  42.310  12.817  12.013
71773W        W33304  28.084  38.943   0.404
71774W        W33305   2.758  12.767  14.785
71775W        W33306  29.997  43.364  14.865
71776W        W33307  18.106  23.655  12.030
71777W        W33308  44.406   5.868   2.390
71778W        W33309  40.797  25.550  12.513
71779W        W33310  15.705  17.564   3.220
71780W        W33311  13.778  16.644   4.345
71781W        W33312   7.880   6.805   3.746
71782W        W33313  22.550   5.284  14.951
71783W        W33314  27.601  27.075   3.813
71784W        W33315  41.905  41.849  14.789
71785W        W33316   3.372   4.731   4.803
71786W        W33317  32.510  36.966   2.901
71787W        W33318   4.776  13.320   3.641
71788W        W33319  28.176  15.088   0.382
71789W        W33320  31.001  12.243  11.446
71790W        W33321  43.291   5.717   0.847
71791W        W33322   2.829  19.730   1.775
71792W        W33323   6.210  40.373   2.299
71793W        W33324  44.798  28.451  14.780
71794W        W33325  14.174  19.205  14.858
71795W        W33326  33.116  16.312  11.531
71796W        W33327  19.189  21.712   1.356
71797W        W33328  29.617  19.207   2.283
71798W        W33329  23.027  44.766   2.841
71799W        W33330   2.903  42.783  13.849
71800W        W33331   5.838   9.247   3.323
71801W        W33332  13.319  18.133   4.672
71802W        W33333   0.310  14.793   3.160
71803W        W33334  28.607  13.665   2.900
71804W        W33335  14.094   6.908   3.849
71805W        W33336  22.064  32.045   1.424
71806W        W33337  32.627  29.107  14.500
71807W        W33338   5.211   9.880   3.156
71808W        W33339   1.465  37.444  12.874
71809W        W33340  15.646   6.249   0.312
71810W        W33341   9.683  18.751  13.430
71811W        W33342  23.507  38.026  14.779
71812W        W33343  42.993  16.780   3.246
71813W        W33344  22.088   9.188  13.514
71814W        W33345  10.754  21.197  10.961
71815W        W33346  28.575   2.890   4.218
71816W        W33347  16.663  14.621  14.373
71817W        W33348  24.725  20.529   4.211
71818W        W33349  16.113  36.424  14.418
71819W        W33350   7.784   5.387  12.503
71820W        W33351  33.998  39.538   4.278
71821W        W33352  24.123  31.592   2.884
71822W        W33353  33.973   8.833  14.419
71823W        W33354  39.560  39.938  11.541
71824W        W33355   8.274  22.521   1.823
71825W        W33356  26.102   9.703  13.390
71826W        W33357   9.382  31.423   2.316
71827W        W33358  25.607  15.246  10.536
71828W        W33359  43.971  33.922   1.926
71829W        W33360  33.454  10.744   4.147
71830W        W33361  37.385  26.630   4.144
71831W        W33362  34.538  24.533   0.414
71832W        W33363  30.593  33.014   1.898
71833W        W33364  26.590  37.903   0.875
71834W        W33365  28.941   0.842  14.982
71835W        W33366  24.588   7.714   1.704
71836W        W33367  44.938  10.637   2.671
71837W        W33368  23.662  13.618   0.389
71838W        W33369  23.735   2.427   2.299
71839W        W33370  23.562  27.467  12.904
71840W        W33371  16.736  40.031  12.908
71841W        W33372  35.486  25.065  13.878
71842W        W33373  41.788   8.858   4.190
71843W        W33374  28.502  41.969  12.089
71844W        W33375  12.754  22.108  11.913
71845W        W33376  21.134  37.934   1.821
71846W        W33377  38.967  32.110  11.864
71847W        W33378  14.143   7.839   1.238
71848W        W33379  30.462  17.172   2.744
71849W        W33380  25.189  15.217  13.873
71850W        W33381  10.354   6.724  12.499
71851W        W33382   9.273  37.559   4.185
71852W        W33383  36.099   2.741   0.257
71853W        W33384  18.137  28.530  10.910
71854W        W33385   9.837  18.642   4.143
71855W        W33386  34.577  33.432   1.713
71856W        W33387  41.403  32.050   4.763
71857W        W33388   5.429  25.169   2.277
71858W        W33389  44.301  31.897   1.826
71859W        W33390   8.880  30.091   2.308
71860W        W33391   1.840  33.547  13.968
71861W        W33392  36.529   9.748   3.831
71862W        W33393  13.634  22.134   0.401
71863W        W33394  16.573  28.146   4.640
71864W        W33395  18.259  37.865   0.910
71865W        W33396  42.482  28.598  12.381
71866W        W33397  43.412  35.434   4.786
71867W        W33398  33.918   2.295  13.525
71868W        W33399  36.508  22.073  13.398
71869W        W33400  24.172  18.180  13.015
71870W        W33401  42.855   0.339  13.026
71871W        W33402  21.673  21.650  14.768
71872W        W33403  41.455  31.569   1.416
71873W        W33404  36.525  42.925  13.457
71874W        W33405  20.175  21.575  11.010
71875W        W33406  27.615   0.383  10.532
71876W        W33407   5.241  11.348  11.608
71877W        W33408   0.456  10.368   1.881
71878W        W33409   0.973  32.578  11.935
71879W        W33410  15.302  36.578  14.893
71880W        W33411  19.053   3.369   3.282
71881W        W33412  28.512  28.169  13.934
71882W        W33413  10.377  28.611  13.544
71883W        W33414  37.873  17.173   9.921
71884W        W33415   4.770   8.196   9.945
71885W        W33416  32.491  32.055  14.353
71886W        W33417  37.475  10.225   3.860
71887W        W33418  25.709  31.558   5.102
71888W        W33419  20.707  28.128  13.950
71889W        W33420  12.785  11.859   4.738
71890W        W33421  16.662   9.851   0.845
71891W        W33422  27.163  10.685  12.432
71892W        W33423  36.078  36.015   4.322
71893W        W33424  23.212  11.785   2.276
71894W        W33425  21.537  29.667   4.213
71895W        W33426  32.440  42.975  12.507
71896W        W33427   1.735   0.762   0.760
71897W        W33428  10.150   7.332  13.863
71898W        W33429  37.908  34.392  11.426
71899W        W33430   7.308  41.008   3.380
71900W        W33431  30.469   3.734  11.516
71901W        W33432  26.953  16.781  12.481
71902W        W33433  25.597  12.202   0.387
71903W        W33434  20.035  26.561   0.785
71904W        W33435  31.952  22.080   2.417
71905W        W33436  28.010  42.524  12.440
71906W        W33437  15.787  14.111   2.749
71907W        W33438  33.568  33.567  11.004
71908W        W33439   2.847  23.181   3.847
71909W        W33440  14.682  18.729  13.061
71910W        W33441   3.220  29.524  10.521
71911W        W33442  42.888  38.002  10.526
71912W        W33443   0.460  13.764  11.899
71913W        W33444  18.291  43.926  10.929
71914W        W33445  38.543  41.325  11.418
71915W        W33446   2.931  20.609   1.864
71916W        W33447  41.822  17.800   4.605
71917W        W33448  10.362  10.277  13.837
71918W        W33449   9.309  26.660  10.918
71919W        W33450  39.051  43.420   3.730
71920W        W33451  28.638  35.080  13.414
71921W        W33452  15.191  18.790  11.007
71922W        W33453  11.633  10.716  12.870
71923W        W33454  44.894  44.411  12.946
71924W        W33455  34.006  27.174  11.947
71925W        W33456  25.572  14.780  13.968
71926W        W33457  36.990  41.974   2.699
71927W        W33458  35.967  14.743  11.899
71928W        W33459  33.408  18.063   0.912
71929W        W33460   1.877  24.193   2.396
71930W        W33461  18.690   7.850  11.468
71931W        W33462  21.076  35.956   3.303
71932W        W33463  22.720   3.420   4.319
71933W        W33464  26.664   9.797   9.652
71934W        W33465  35.860  25.690   2.808
71935W        W33466  27.530  10.210  11.958
71936W        W33467  43.483  36.069  12.523
71937W        W33468  29.599  40.967  11.541
71938W        W33469   3.796  35.595  11.988
71939W        W33470  16.188  27.139   3.309
71940W        W33471  39.010  42.885   4.753
71941W        W33472  28.089  37.055  10.888
71942W        W33473  31.568  16.145   1.397
71943W        W33474   0.374  25.558   0.394
71944W        W33475  16.762  39.453   0.743
71945W        W33476  16.124  38.406  13.806
71946W        W33477   5.804  15.634   5.090
71947W        W33478  33.988   7.199  13.465
71948W        W33479  34.436  30.586   3.178
71949W        W33480   3.392  26.643  10.491
71950W        W33481  12.751   9.327  12.449
71951W        W33482  33.988   2.883   0.442
71952W        W33483  22.514  40.006  12.097
71953W        W33484  38.999   5.250  14.918
71954W        W33485  44.495   1.284  14.450
71955W        W33486  34.895   6.866   1.870
71956W        W33487  32.117   9.273   3.362
71957W        W33488  16.157  36.484  11.531
71958W        W33489   4.794  30.616  10.425
71959W        W33490  18.674   9.692   2.257
71960W        W33491  30.497  21.619  12.565
71961W        W33492  43.829   7.251  14.877
71962W        W33493  13.630  23.640  13.866
71963W        W33494  14.196   7.879   1.918
71964W        W33495  16.198  40.549  11.485
71965W        W33496  31.119   3.836   4.726
71966W        W33497  39.512  15.228  11.478
71967W        W33498   5.323  31.130  12.873
71968W        W33499  44.271  17.658  10.901
71969W        W33500  39.949  20.031  10.644
71970W        W33501  31.957   0.293   3.812
71971W        W33502   3.893   1.379   0.277
71972W        W33503   3.780  11.155   4.239
71973W        W33504  36.068  34.898  13.960
71974W        W33505  33.046   3.320  13.019
71975W        W33506  33.050   5.763  14.902
71976W        W33507  18.262  16.785  10.633
71977W        W33508  17.237  37.901   2.709
71978W        W33509  18.742   3.849   4.767
71979W        W33510  28.584  28.124   3.174
71980W        W33511  29.027  26.591  11.540
71981W        W33512  15.125  17.127   3.709
71982W        W33513  33.126   1.845   0.920
71983W        W33514  31.972  37.077   2.680
71984W        W33515  35.106   4.860  12.554
71985W        W33516  36.984  32.040   1.307
71986W        W33517  14.621  34.995  11.414
71987W        W33518  31.124  35.411   4.330
71988W        W33519  44.755  17.179   0.409
71989W        W33520   6.714  29.533   4.671
71990W        W33521   1.915  35.884  10.979
71991W        W33522  14.758  12.723  14.442
71992W        W33523  35.550  37.985   1.368
71993W        W33524  41.484  30.084   0.809
71994W        W33525  19.256   0.755  11.958
71995W        W33526  35.382   6.253   3.684
71996W        W33527   8.322  24.030  12.357
71997W        W33528  15.292  38.819   0.927
71998W        W33529  27.618   0.484   0.929
71999W        W33530  30.610  28.956  13.802
72000W        W33531   9.746  15.751  14.418
72001W        W33532  29.931  12.637   0.372
72002W        W33533  29.614  18.713   1.811
72003W        W33534  25.511  31.102   3.770
72004W        W33535  36.446  15.091  12.360
72005W        W33536  36.459   4.806  13.457
72006W        W33537  20.067  21.529   2.234
72007W        W33538  43.934  44.445   4.285
72008W        W33539  41.898  22.175  13.392
72009W        W33540  12.309  32.104  11.882
72010W        W33541  22.585  22.121  12.397
72011W        W33542  42.376  43.297   0.760
72012W        W33543   9.198  25.023   3.351
72013W        W33544  33.064  18.050   1.305
72014W        W33545  28.538  28.168   4.254
72015W        W33546   9.731  36.563   1.863
72016W        W33547  34.389  41.499   4.245
72017W        W33548   0.461  31.923   4.219
72018W        W33549  35.431   6.918  14.952
72019W        W33550  24.024  28.641   0.365
72020W        W33551  20.563  23.228   4.755
72021W        W33552  35.866   9.179   9.981
72022W        W33553   2.877  16.737  14.923
72023W        W33554  38.936  26.975   2.807
72024W        W33555   3.869  21.624  11.522
72025W        W33556  13.124  28.994  14.369
72026W        W33557  42.004  10.199   3.338
72027W        W33558  32.972  37.336   4.216
72028W        W33559  14.278  37.011   2.391
72029W        W33560   7.226  24.501  12.868
72030W        W33561  20.558   1.335  13.807
72031W        W33562  42.926  27.968  10.950
72032W        W33563   2.252  32.570  14.414
72033W        W33564  14.795  20.184  12.562
72034W        W33565  13.175   2.862  13.309
72035W        W33566   6.283  31.046   1.885
72036W        W33567  34.508   9.208   2.329
72037W        W33568   9.156  41.450  11.430
72038W        W33569   6.311  40.448   1.789
72039W        W33570  44.327  39.398  13.828
72040W        W33571  19.726  24.984   4.336
72041W        W33572  40.054   1.742  14.322
72042W        W33573   2.346   2.226   1.881
72043W        W33574   2.956  22.080   0.919
72044W        W33575  27.550  37.519  12.384
72045W        W33576  42.506  22.166   0.370
72046W        W33577  15.766   3.955  13.872
72047W        W33578  20.682   4.774  13.037
72048W        W33579  38.987  27.103  10.625
72049W        W33580   1.414   7.830  11.393
72050W        W33581  19.115  16.178   3.745
72051W        W33582  11.286   1.874   2.296
72052W        W33583  13.135  24.095  10.965
72053W        W33584  28.577  22.229   2.289
72054W        W33585   3.217  25.675  11.378
72055W        W33586  12.149   0.356  12.376
72056W        W33587   2.375   9.281  14.883
72057W        W33588  31.068  40.497  11.486
72058W        W33589  34.581  22.020   3.153
72059W        W33590  36.964  18.238  10.509
72060W        W33591  11.638   7.203  11.489
72061W        W33592  42.286  20.664  12.058
72062W        W33593  32.577  23.066   0.400
72063W        W33594  10.160  18.739  13.890
72064W        W33595  43.292   1.412  10.559
72065W        W33596  32.993  30.560  13.403
72066W        W33597   4.427  43.294  12.561
72067W        W33598  35.520  12.836  12.956
72068W        W33599  42.882   3.956  11.557
72069W        W33600  10.737  17.569   3.860
72070W        W33601  19.261  40.939  11.404
72071W        W33602   4.383  33.420  12.860
72072W        W33603  17.754  15.584  14.316
72073W        W33604  36.863  40.469  13.806
72074W        W33605  31.900   6.913  12.542
72075W        W33606  34.082  24.992  14.378
72076W        W33607  26.585  32.046  11.075
72077W        W33608  13.810   9.245  11.418
72078W        W33609  32.037  21.608  13.830
72079W        W33610  36.499  15.727  10.063
72080W        W33611   4.381  33.954  14.372
72081W        W33612  22.239  29.634  11.941
72082W        W33613  22.198  14.600   0.405
72083W        W33614   3.225  13.121  14.004
72084W        W33615  20.527  39.967   3.300
72085W        W33616   6.891  17.154  12.460
72086W        W33617  35.973   7.837  11.423
72087W        W33618  40.855  12.140   4.714
72088W        W33619  40.469  39.527   1.829
72089W        W33620  39.886  24.533   4.297
72090W        W33621  35.535  26.165   4.179
72091W        W33622   0.790  14.269   2.741
72092W        W33623   6.187  44.896   1.349
72093W        W33624  19.103  20.691  13.972
72094W        W33625  19.258   4.449   4.773
72095W        W33626  43.000  15.108  13.043
72096W        W33627   3.935  30.476   2.902
72097W        W33628  17.105  33.007   2.849
72098W        W33629  34.391   8.837  12.045
72099W        W33630  22.139   4.833  10.533
72100W        W33631  43.810  21.670   4.334
72101W        W33632  31.405   9.154   1.710
72102W        W33633  44.988   4.243   4.820
72103W        W33634  28.579  33.125   4.129
72104W        W33635  35.577  14.212  13.464
72105W        W33636   8.701  29.957  13.970
72106W        W33637  16.120   0.253   0.372
72107W        W33638  36.867   9.741  14.372
72108W        W33639  29.107   6.318   4.172
72109W        W33640   8.716  24.589  12.393
72110W        W33641   4.752  40.470  12.545
72111W        W33642   5.204  34.595  11.420
72112W        W33643  20.210   2.918   4.310
72113W        W33644   8.406  17.690   4.136
72114W        W33645  36.459  34.600  13.978
72115W        W33646   0.262  27.469   2.696
72116W        W33647  16.203  28.155   4.802
72117W        W33648  10.849  27.515   4.778
72118W        W33649  27.016  18.120   3.216
72119W        W33650  42.976  13.163  11.484
72120W        W33651  16.087   6.839   3.824
72121W        W33652  10.371  32.887   3.741
72122W        W33653  14.274  32.095  11.958
72123W        W33654  28.946   3.290   2.398
72124W        W33655  29.431  33.059   0.440
72125W        W33656  39.501   8.881   0.275
72126W        W33657  14.251  35.401   3.313
72127W        W33658  14.722   1.846  12.953
72128W        W33659  42.313  20.142   2.400
72129W        W33660  17.128   8.222  12.516
72130W        W33661  14.682  21.241  12.851
72131W        W33662  32.041  32.008   5.144
72132W        W33663  19.752   3.749  12.344
72133W        W33664   9.817  25.071  11.547
72134W        W33665  38.996  14.627  12.490
72135W        W33666  20.162  15.097   4.661
72136W        W33667   8.209  33.975  13.864
72137W        W33668   6.382  41.860   4.186
72138W        W33669  12.358  28.567   9.940
72139W        W33670   8.691  28.649   2.665
72140W        W33671  15.260  22.693   1.877
72141W        W33672  18.677  18.124   4.350
72142W        W33673  19.225   0.284  13.904
72143W        W33674  35.962   1.336  10.944
72144W        W33675  33.483  16.097  11.462
72145W        W33676  31.936  31.622  11.018
72146W        W33677   4.217   2.290   3.690
72147W        W33678  21.676  16.171   2.794
72148W        W33679  26.636  39.040   2.842
72149W        W33680  33.418  17.145  12.843
72150W        W33681  41.488  23.231   0.761
72151W        W33682  27.063  10.266   0.377
72152W        W33683   2.812  27.673  14.010
72153W        W33684   4.309  43.905   1.375
72154W        W33685  25.477   1.835  10.476
72155W        W33686  35.865  32.500   1.412
72156W        W33687  24.494  31.153  13.520
72157W        W33688  42.418  26.584   0.766
72158W        W33689  24.490  34.885   0.907
72159W        W33690  26.065  23.664   4.759
72160W        W33691  42.821  42.902   1.431
72161W        W33692  37.860  14.715   0.749
72162W        W33693   9.776  31.646  14.997
72163W        W33694  24.183  16.240   4.736
72164W        W33695   7.801  36.917  11.523
72165W        W33696  10.146  40.333  14.923
72166W        W33697   7.273  23.236  14.413
72167W        W33698  25.629  25.066  12.971
72168W        W33699  43.310  14.210  13.524
72169W        W33700  14.229  23.140   0.852
72170W        W33701  13.162   0.924   3.827
72171W        W33702   9.833   3.946   9.467
72172W        W33703  15.272   5.899   2.881
72173W        W33704  22.041  40.967  11.523
72174W        W33705  32.572   2.813  11.542
72175W        W33706  39.500  44.800   2.666
72176W        W33707   6.921   4.920  14.417
72177W        W33708  38.407  25.102  14.422
72178W        W33709  28.033  42.014  10.430
72179W        W33710  12.187  11.738  12.993
72180W        W33711  29.111  34.522  14.374
72181W        W33712  22.738  38.001   3.203
72182W        W33713  36.867  16.314  12.972
72183W        W33714  38.840  16.730  13.920
72184W        W33715  21.728  17.628   3.782
72185W        W33716  19.591  28.525  14.871
72186W        W33717  20.559  30.631  11.049
72187W        W33718  28.443   6.921   5.086
72188W        W33719  36.880  18.070   0.429
72189W        W33720  23.561  29.439   5.632
72190W        W33721  16.811  32.472   3.266
72191W        W33722  41.811   1.769   2.253
72192W        W33723  33.913  18.785  12.006
72193W        W33724   4.809  36.361   0.816
72194W        W33725  10.189   5.395   4.287
72195W        W33726  25.063  29.430   1.717
72196W        W33727  34.392  11.721   4.165
72197W        W33728  42.914  16.120  11.883
72198W        W33729   6.353  38.033  14.504
72199W        W33730  41.844  25.600  10.941
72200W        W33731  10.748  12.711  11.441
72201W        W33732   0.380   1.826  11.856
72202W        W33733  27.102  42.943   2.854
72203W        W33734  38.559  16.796  11.476
72204W        W33735   9.362  27.102  13.318
72205W        W33736  22.228  17.782  10.544
72206W        W33737  37.363  37.521  11.403
72207W        W33738  40.943  32.951   0.785
72208W        W33739   0.752   8.718   2.763
72209W        W33740  19.265  15.286   2.207
72210W        W33741  16.579  28.041   2.193
72211W        W33742  44.759   3.810  13.472
72212W        W33743  38.451  19.078  12.956
72213W        W33744  30.062   9.160   3.367
72214W        W33745  26.496  20.722  10.920
72215W        W33746  10.170  28.597   0.806
72216W        W33747   9.328  21.155  11.050
72217W        W33748  32.940  25.507   0.908
72218W        W33749  29.000  23.715   3.756
72219W        W33750   1.348  38.895   1.316
72220W        W33751   5.716  42.393  14.798
72221W        W33752  44.852  44.759   4.299
72222W        W33753  14.224   8.891  11.420
72223W        W33754  43.936  36.920  11.949
72224W        W33755  10.341  23.691  11.446
72225W        W33756  16.672   0.314  14.941
72226W        W33757   7.901  22.615   1.371
72227W        W33758  35.934  13.624   4.780
72228W        W33759  10.201  13.189   0.731
72229W        W33760  41.346  32.637  13.336
72230W        W33761  36.939  14.796  14.891
72231W        W33762  18.055  16.697   3.745
72232W        W33763  23.711   6.890   1.211
72233W        W33764  10.239  25.026  13.429
72234W        W33765  27.126  29.591  14.379
72235W        W33766  17.695  18.050  12.358
72236W        W33767   6.212  26.587   4.257
72237W        W33768  23.028  29.620   1.787
72238W        W33769   2.394  18.270   0.479
72239W        W33770  41.476  37.487  12.545
72240W        W33771   0.772  21.568  10.997
72241W        W33772  29.608  26.970  13.907
72242W        W33773  34.414  24.033  10.991
72243W        W33774  33.447  12.771   9.929
72244W        W33775  20.054  37.944   2.721
72245W        W33776  23.493  39.401   1.810
72246W        W33777  43.005   7.834  12.421
72247W        W33778  20.125   2.743   3.331
72248W        W33779  31.417  42.333   2.291
72249W        W33780  11.281  26.996  13.440
72250W        W33781   6.261  12.739  14.838
72251W        W33782  38.008   0.876   0.919
72252W        W33783   9.741  41.877   3.782
72253W        W33784   6.727  19.591  12.071
72254W        W33785  42.791  29.083   0.276
72255W        W33786   1.858  26.527  12.039
72256W        W33787   0.826  34.925   4.785
72257W        W33788  19.243  14.828  14.823
72258W        W33789   6.708   1.245  13.477
72259W        W33790  32.602   9.774   1.856
72260W        W33791   4.901  28.134   5.292
72261W        W33792  44.761  28.504   3.332
72262W        W33793  29.952   5.759  14.918
72263W        W33794   1.871  33.551  11.484
72264W        W33795  21.050  14.340  14.438
72265W        W33796  11.625   1.942  14.758
72266W        W33797  42.862  32.504  13.938
72267W        W33798   9.291  28.144  11.471
72268W        W33799  38.431  43.978   3.799
72269W        W33800  27.098  41.520   0.870
72270W        W33801  10.808  39.560   3.355
72271W        W33802  44.493   1.896   3.331
72272W        W33803  25.110  26.083   1.737
72273W        W33804  19.188   5.227  10.578
72274W        W33805  29.500   4.718  14.945
72275W        W33806  37.985  42.827   5.222
72276W        W33807   1.428  33.602   0.936
72277W        W33808  29.451  24.188   2.791
72278W        W33809  44.765  25.212   2.717
72279W        W33810  16.739   3.719   1.796
72280W        W33811  23.592  31.088   0.873
72281W        W33812  28.515   6.685   0.899
72282W        W33813  24.521  26.203  12.532
72283W        W33814  19.076   5.765   2.763
72284W        W33815   3.335  34.595  11.498
72285W        W33816  40.911  13.765  12.433
72286W        W33817  20.577  39.375  12.421
72287W        W33818  23.226   9.383   1.447
72288W        W33819  17.092  11.360   3.773
72289W        W33820  38.935  19.704  13.414
72290W        W33821  26.015  31.984  11.892
72291W        W33822   1.836  29.925  13.363
72292W        W33823  36.918   3.792  11.915
72293W        W33824  35.093  11.866  10.123
72294W        W33825  17.304   9.741  12.943
72295W        W33826   5.242   2.729  12.028
72296W        W33827   0.943  28.081   1.284
72297W        W33828  27.452  20.743  12.014
72298W        W33829  11.776   8.403   0.808
72299W        W33830  12.317   1.909  12.971
72300W        W33831  24.543  13.746  10.910
72301W        W33832  17.602  14.809  11.038
72302W        W33833  12.833  34.571   0.315
72303W        W33834  17.646  21.233   1.892
72304W        W33835   4.356  42.840  11.043
72305W        W33836  29.064  40.816   0.363
72306W        W33837  30.127  39.821  11.511
72307W        W33838  27.613  27.455   2.850
72308W        W33839  32.501  35.394   1.388
72309W        W33840   0.937   3.747  11.991
72310W        W33841   6.746   2.310   4.644
72311W        W33842  32.627  18.207   3.172
72312W        W33843  39.392  21.529  11.483
72313W        W33844   9.662  25.993  13.805
72314W        W33845   2.336  44.927  11.915
72315W        W33846  23.218  31.410  14.925
72316W        W33847  24.087   0.265   1.311
72317W        W33848  44.496   8.820  10.895
72318W        W33849  36.459  33.524   2.191
72319W        W33850  38.969  18.611  14.946
72320W        W33851   4.364   6.690   0.730
72321W        W33852  26.616  42.398  10.416
72322W        W33853  34.036  14.731   3.702
72323W        W33854  41.857  15.681   2.335
72324W        W33855  29.980   4.758  12.560
72325W        W33856   9.213  38.480   3.790
72326W        W33857  12.157  28.020   4.688
72327W        W33858  40.962  34.065   4.350
72328W        W33859  44.416  38.519  11.473
72329W        W33860   6.405  44.370   3.859
72330W        W33861   2.790  11.681  13.516
72331W        W33862  20.123  27.564   0.472
72332W        W33863   4.382  18.573   4.684
72333W        W33864  34.605  26.018  11.393
72334W        W33865  14.269  16.775  12.055
72335W        W33866  40.948   5.368   4.118
72336W        W33867   2.940  10.313   0.456
72337W        W33868  35.108  21.022   2.723
72338W        W33869  23.014   9.763   2.689
72339W        W33870   0.971  21.617   0.371
72340W        W33871   0.326  37.081  12.035
72341W        W33872   7.888  35.568  12.518
72342W        W33873  14.298  37.352   2.245
72343W        W33874  39.007  31.533  10.442
72344W        W33875  11.262  23.065   2.277
72345W        W33876  15.132  27.096   0.800
72346W        W33877  34.447  30.486  12.538
72347W        W33878  30.419  15.237  12.524
72348W        W33879  25.051  20.073   0.390
72349W        W33880  40.969  23.604   0.282
72350W        W33881  28.045   5.875  11.927
72351W        W33882  28.151   0.892  10.634
72352W        W33883  18.553  34.468  11.571
72353W        W33884  35.494  40.978  10.965
72354W        W33885  18.142  32.630   3.633
72355W        W33886  34.937  19.194  12.978
72356W        W33887   9.386   1.904   1.375
72357W        W33888  12.120   8.323   3.354
72358W        W33889   2.836  23.632   2.750
72359W        W33890   6.188  23.212  13.432
72360W        W33891  14.812   1.247   0.422
72361W        W33892  12.172  10.820   0.754
72362W        W33893  42.882  33.920   0.825
72363W        W33894   9.750  30.065   2.310
72364W        W33895   8.877  25.624   3.816
72365W        W33896   3.311  40.054   3.741
72366W        W33897   9.193  27.165   0.849
72367W        W33898  13.172  30.460   4.160
72368W        W33899  42.824  34.478   2.872
72369W        W33900  42.335  41.787   0.862
72370W        W33901  36.425  11.252  11.603
72371W        W33902   8.776   6.363   4.309
72372W        W33903  14.796   0.482  14.936
72373W        W33904  30.574  36.873   0.423
72374W        W33905  31.099   1.808   5.278
72375W        W33906  44.307   1.454   0.895
72376W        W33907  15.593  27.024   1.798
72377W        W33908  26.063   2.929   0.946
72378W        W33909  40.340  35.940   5.217
72379W        W33910  42.947  15.322  11.075
72380W        W33911  44.336  37.843   4.818
72381W        W33912   4.215  18.192   2.395
72382W        W33913  15.774   2.464   1.278
72383W        W33914  44.366   4.420   1.303
72384W        W33915  21.048  31.091   3.821
72385W        W33916   2.374  38.839  11.598
72386W        W33917  27.189   8.285   3.385
72387W        W33918  44.780  15.199  13.953
72388W        W33919  16.705  27.551  12.073
72389W        W33920   3.841  16.279  11.450
72390W        W33921   0.337  24.083  11.053
72391W        W33922   9.812  15.144  12.541
72392W        W33923  21.514  15.749  10.611
72393W        W33924  24.702  37.975   4.245
72394W        W33925  26.551  33.000  11.972
72395W        W33926  29.047   3.818   4.175
72396W        W33927  17.689  25.967  11.499
72397W        W33928  18.273  11.247  14.378
72398W        W33929  25.073  40.040   2.407
72399W        W33930  11.256  33.048   1.342
72400W        W33931  16.628   8.751  11.401
72401W        W33932  16.612  44.859  11.544
72402W        W33933  19.156  20.143   0.419
72403W        W33934  37.991   7.684   0.856
72404W        W33935  23.187  19.217  13.930
72405W        W33936   2.864   2.806   3.832
72406W        W33937  34.441  16.708  13.393
72407W        W33938  30.015  33.450  11.041
72408W        W33939   1.476  34.511  10.510
72409W        W33940  40.449  31.953  11.098
72410W        W33941  38.913  12.190  12.452
72411W        W33942  34.984   0.772  12.484
72412W        W33943  22.629  24.163   5.115
72413W        W33944  22.548  10.163  10.538
72414W        W33945  25.204  20.212   3.218
72415W        W33946  16.711  10.360  13.926
72416W        W33947  18.626  18.113  13.370
72417W        W33948  28.519   1.385  13.049
72418W        W33949  19.116  27.683   0.962
72419W        W33950   8.380  41.493  12.843
72420W        W33951  33.963   7.872  10.561
72421W        W33952   4.359  34.103  10.952
72422W        W33953  31.151  23.711   3.651
72423W        W33954   0.889   1.783   0.481
72424W        W33955  16.130  25.543  14.414
72425W        W33956  40.890  35.008   2.821
72426W        W33957  18.144  23.080   4.288
72427W        W33958  42.502  18.666  12.992
72428W        W33959  18.781  34.548  12.530
72429W        W33960  20.626   4.357  14.447
72430W        W33961  25.619  25.552   3.272
72431W        W33962  39.387  17.798   1.422
72432W        W33963   0.919   7.735  13.851
72433W        W33964  20.584  34.897   2.299
72434W        W33965  39.476  21.049   4.774
72435W        W33966   7.750  41.872  11.487
72436W        W33967   1.902  21.721  10.932
72437W        W33968  19.199  35.412  10.978
72438W        W33969   1.476  20.249   3.801
72439W        W33970  10.177  29.047   4.341
72440W        W33971  14.645  44.955  14.345
72441W        W33972  23.506  20.048  12.937
72442W        W33973  25.097   2.272   1.229
72443W        W33974  23.687   3.747   1.694
72444W        W33975  18.143  38.479   1.257
72445W        W33976   6.382   6.228   3.359
72446W        W33977  42.382  27.554  11.043
72447W        W33978  17.663   6.324   1.695
72448W        W33979  41.465  19.660  13.998
72449W        W33980  15.773  41.398   1.245
72450W        W33981  10.322   0.858   2.695
72451W        W33982  14.780   5.322   4.681
72452W        W33983  44.944  26.460   1.864
72453W        W33984   0.417  23.003   1.271
72454W        W33985  29.958   2.255  11.884
72455W        W33986  11.336  13.165   2.712
72456W        W33987  26.125   0.933   2.234
72457W        W33988  29.546   7.774  10.489
72458W        W33989  33.954  38.833  13.966
72459W        W33990  15.195  39.850  13.352
72460W        W33991  20.068  34.563  12.845
72461W        W33992  33.008  11.710   2.363
72462W        W33993   6.287  15.765   5.212
72463W        W33994  15.733   4.263   0.310
72464W        W33995  25.122   4.414   2.233
72465W        W33996   2.444  25.617  11.896
72466W        W33997  42.946  14.315   4.710
72467W        W33998   9.349  34.569  12.977
72468W        W33999  16.804   1.432   4.836
72469W        W34000  34.445  39.409   1.716
72470W        W34001  37.539  44.272   1.263
72471W        W34002  26.616  30.147   0.360
72472W        W34003  37.830  34.085   2.407
72473W        W34004  14.335  31.919   0.780
72474W        W34005  28.037  39.510  14.430
72475W        W34006   1.319  27.113   0.433
72476W        W34007  37.868   7.292  13.898
72477W        W34008  36.937  43.975   1.283
72478W        W34009  39.972  38.063  11.485
72479W        W34010   6.365  35.365   1.851
72480W        W34011  22.158  23.107   2.820
72481W        W34012  41.018  26.146   4.131
72482W        W34013   2.438  28.562  12.483
72483W        W34014  15.649  44.877  12.392
72484W        W34015  22.185  39.496  13.425
72485W        W34016  33.006  24.061  11.958
72486W        W34017  40.830  22.012  11.970
72487W        W34018  14.696  13.764   3.762
72488W        W34019  14.243  11.298   2.299
72489W        W34020  31.144  18.259   4.203
72490W        W34021  33.489   4.300   3.203
72491W        W34022   6.213  15.609  11.965
72492W        W34023  37.462  32.020   1.752
72493W        W34024  41.883  39.447  13.827
72494W        W34025   0.782  36.975  11.039
72495W        W34026   0.768  13.670   4.179
72496W        W34027  41.533  16.697   3.736
72497W        W34028  37.026  11.820  10.560
72498W        W34029  44.874  32.588   2.410
72499W        W34030  35.499  43.278   3.853
72500W        W34031  38.510   0.947   0.423
72501W        W34032  31.952  12.255   0.402
72502W        W34033  15.736  16.114  13.840
72503W        W34034  34.555  22.504  13.026
72504W        W34035  30.430  43.972   3.631
72505W        W34036  12.630  12.633  10.621
72506W        W34037   1.833   6.841   4.188
72507W        W34038  37.387  34.876  12.042
72508W        W34039  13.684  24.584  11.870
72509W        W34040   4.311  23.106   2.337
72510W        W34041  29.961  38.493   1.233
72511W        W34042  21.096  38.387  14.490
72512W        W34043  27.679  11.351  13.003
72513W        W34044  34.975  41.512  13.336
72514W        W34045  11.629  22.531  12.985
72515W        W34046  40.984  33.617   4.811
72516W        W34047  14.282  39.969   3.764
72517W        W34048  35.025  25.481   0.911
72518W        W34049  35.594  37.961  14.430
72519W        W34050  10.700   0.788  10.916
72520W        W34051  35.425  21.255   4.264
72521W        W34052  21.087  23.501  10.935
72522W        W34053   0.909   3.834   4.755
72523W        W34054  39.386  21.536   1.794
72524W        W34055  38.517   8.800   2.820
72525W        W34056  23.121  11.762  14.820
72526W        W34057   9.294   1.243   1.316
72527W        W34058  19.088  19.709   5.228
72528W        W34059  18.713   0.296   1.815
72529W        W34060  38.340  18.083  12.554
72530W        W34061  26.617  25.634   1.916
72531W        W34062  40.937   8.827  11.588
72532W        W34063  43.390  25.122   3.774
72533W        W34064   6.729  24.210   2.838
72534W        W34065  16.242  15.266   1.451
72535W        W34066  36.531  24.643  14.282
72536W        W34067  29.129   8.237  13.510
72537W        W34068  39.056  21.607   4.317
72538W        W34069  39.358   4.417  13.984
72539W        W34070   2.837  31.070   4.604
72540W        W34071   7.697  43.457   2.360
72541W        W34072  42.775  17.187   5.309
72542W        W34073  44.493  20.066   1.741
72543W        W34074  23.569  38.460  11.891
72544W        W34075  19.702  31.149   1.929
72545W        W34076  42.296   8.174  11.119
72546W        W34077   8.872  19.134  10.473
72547W        W34078  34.992  30.517  14.452
72548W        W34079  16.671   3.233   0.736
72549W        W34080  39.987  31.150   0.452
72550W        W34081  24.662  38.037  13.841
72551W        W34082  18.201   1.832  11.110
72552W        W34083   9.176  11.754   1.887
72553W        W34084  17.625  31.094   4.333
72554W        W34085  29.980  31.573  10.988
72555W        W34086   2.962  17.675  11.084
72556W        W34087  31.932  10.744  14.434
72557W        W34088  43.416  26.057  11.061
72558W        W34089   8.681  32.946   3.687
72559W        W34090  15.250  24.631  12.898
72560W        W34091  19.677   5.750  10.607
72561W        W34092  33.379  39.416  11.569
72562W        W34093  12.322   1.441  10.095
72563W        W34094  26.029  43.016  14.430
72564W        W34095   4.890  35.960   2.875
72565W        W34096  20.683  16.689  11.409
72566W        W34097   4.870  19.258   3.378
72567W        W34098  35.041   5.430  11.916
72568W        W34099   3.780  10.818  13.055
72569W        W34100  33.401  42.332   2.672
72570W        W34101  37.001  37.559  12.009
72571W        W34102  18.094  44.925   4.350
72572W        W34103  11.868  21.736  12.067
72573W        W34104   1.748   5.690  12.924
72574W        W34105  36.882   9.267   5.777
72575W        W34106  34.472  26.601  12.918
72576W        W34107  36.951   3.716   4.229
72577W        W34108  26.596  31.939  12.436
72578W        W34109   1.307  38.569   0.769
72579W        W34110   4.845  42.507  14.479
72580W        W34111  15.221  23.639  11.482
72581W        W34112  10.793   0.912  12.892
72582W        W34113  33.381  37.071   9.606
72583W        W34114  44.495  12.170   1.331
72584W        W34115   5.338  31.141   1.297
72585W        W34116  29.638  42.918   9.978
72586W        W34117  22.514  33.426  11.408
72587W        W34118  34.897   8.237   0.284
72588W        W34119  40.048   6.829   2.249
72589W        W34120  30.631  19.269  11.611
72590W        W34121  10.209   0.837  13.059
72591W        W34122   2.901  28.593   5.297
72592W        W34123  29.454   5.233   1.228
72593W        W34124  35.489  33.394  11.034
72594W        W34125  19.665  24.532   0.351
72595W        W34126  35.876   5.286  11.992
72596W        W34127  17.222  17.269   4.131
72597W        W34128   2.792  42.842  12.066
72598W        W34129   2.353  35.867  10.516
72599W        W34130  41.988   5.809  12.876
72600W        W34131  32.565  38.925  13.986
72601W        W34132  40.833  34.882  11.441
72602W        W34133   1.400  43.281  10.580
72603W        W34134   1.946   7.780   4.732
72604W        W34135  41.393  42.915  12.438
72605W        W34136  38.059  44.474   0.469
72606W        W34137  32.633  38.054   0.458
72607W        W34138  23.710  11.653  13.472
72608W        W34139  29.149  26.024   2.361
72609W        W34140  37.552  36.428   4.754
72610W        W34141   8.215  24.557  13.534
72611W        W34142   6.270   9.308  14.797
72612W        W34143  26.626  18.782  14.875
72613W        W34144   7.224   6.685   2.356
72614W        W34145  43.454  22.666  14.778
72615W        W34146  42.481  43.385   2.323
72616W        W34147  37.403  33.886  14.907
72617W        W34148  44.786   2.794  12.500
72618W        W34149  35.497  42.345  13.445
72619W        W34150  15.814  11.643  13.384
72620W        W34151  26.544  34.081   4.797
72621W        W34152  40.323  38.545  11.527
72622W        W34153  36.349  18.227  14.461
72623W        W34154  20.252   9.796  14.882
72624W        W34155  16.709  11.748   1.904
72625W        W34156  30.577  35.855  14.421
72626W        W34157  22.519  39.010  14.411
72627W        W34158  17.790  22.244   1.704
72628W        W34159  12.809  16.714   1.381
72629W        W34160  40.892   1.314   4.281
72630W        W34161  19.064  21.108   2.877
72631W        W34162  14.806   0.879   1.752
72632W        W34163  38.023   3.269  13.972
72633W        W34164   1.453  40.998  14.938
72634W        W34165   5.390  44.894  12.459
72635W        W34166  40.315  15.641   3.351
72636W        W34167  20.170  41.431   0.829
72637W        W34168   4.309  23.142  12.904
72638W        W34169  32.564  43.940  14.997
72639W        W34170  33.385   4.864  14.319
72640W        W34171  20.687  24.228  12.986
72641W        W34172  10.223  30.634  13.487
72642W        W34173  29.428  25.629   4.179
72643W        W34174  10.319  30.451   4.734
72644W        W34175  12.711  32.961   2.799
72645W        W34176   6.906  40.887   3.193
72646W        W34177  18.631  20.195   1.249
72647W        W34178   0.299  37.921  14.515
72648W        W34179  27.621  21.582   1.807
72649W        W34180  12.853  41.395  11.565
72650W        W34181  23.034  42.884  10.096
72651W        W34182  30.111  32.982  10.448
72652W        W34183   4.929  31.458  11.427
72653W        W34184  39.825   6.231   1.886
72654W        W34185  23.613   0.822  10.433
72655W        W34186  12.153  14.198  13.064
72656W        W34187  28.121  19.603   1.213
72657W        W34188  31.550  16.144  12.344
72658W        W34189  12.318  33.622  14.859
72659W        W34190   8.197  43.439   3.772
72660W        W34191  42.850   6.290   5.178
72661W        W34192  32.394  43.275   4.813
72662W        W34193  24.168  32.972   1.439
72663W        W34194  44.829  15.161   3.169
72664W        W34195   6.375   4.346   1.301
72665W        W34196  21.703  41.525  10.000
72666W        W34197  43.506  14.193  13.830
72667W        W34198  26.513  28.969  12.494
72668W        W34199  32.092  29.669   3.733
72669W        W34200  11.211  42.951  13.473
72670W        W34201   7.325   1.969   0.361
72671W        W34202  20.588  15.733  11.975
72672W        W34203  35.952   5.757   1.722
72673W        W34204  44.842  15.666   2.802
72674W        W34205  25.114  41.354   4.694
72675W        W34206  30.635  33.003   0.743
72676W        W34207  33.984  11.157  10.599
72677W        W34208   7.272  15.303   0.948
72678W        W34209   1.344  31.965   4.185
72679W        W34210   0.874  21.554   1.913
72680W        W34211  35.509  23.549   4.173
72681W        W34212  37.076  18.711   0.483
72682W        W34213  37.473  31.004   1.331
72683W        W34214  15.681  24.614  11.440
72684W        W34215  30.137  20.615   2.789
72685W        W34216   0.334  33.129   2.414
72686W        W34217  27.645  33.537  14.298
72687W        W34218  17.600  36.034   3.259
72688W        W34219  33.983  12.658  11.396
72689W        W34220  32.503   8.867  11.550
72690W        W34221   3.349  29.099   4.642
72691W        W34222  23.237  21.722  13.880
72692W        W34223  24.189  21.039  13.983
72693W        W34224  28.612  32.624  12.062
72694W        W34225  11.300  36.404   4.202
72695W        W34226   3.450  27.014   4.798
72696W        W34227  22.518  43.779  13.015
72697W        W34228  22.173   0.909  12.460
72698W        W34229  23.093  29.023  14.425
72699W        W34230  10.715  42.890   2.376
72700W        W34231  13.816  37.871   1.924
72701W        W34232  12.830  15.725  13.970
72702W        W34233  25.575   2.865  11.914
72703W        W34234  17.173   5.205  14.397
72704W        W34235  42.845   0.794  12.948
72705W        W34236  14.304  35.029   1.247
72706W        W34237  10.170  36.916  13.945
72707W        W34238  18.661  40.976   0.373
72708W        W34239  40.474  19.748  14.274
72709W        W34240  39.889  33.496   4.208
72710W        W34241   2.855   5.416   4.220
72711W        W34242  37.052  40.846  11.611
72712W        W34243   1.301  21.753  14.428
72713W        W34244  35.897  26.471  13.514
72714W        W34245   0.476  39.511  14.871
72715W        W34246  18.562  20.119  11.870
72716W        W34247  21.719  38.514   4.195
72717W        W34248  36.395  32.529   2.260
72718W        W34249  42.428  33.909  13.453
72719W        W34250  22.088  20.110  11.887
72720W        W34251   9.831   6.387  10.503
72721W        W34252  41.528  23.096   4.822
72722W        W34253  34.056  28.557   3.361
72723W        W34254   7.349  24.167  13.539
72724W        W34255  35.972  26.125  13.495
72725W        W34256  43.488  33.615  12.928
72726W        W34257  29.037  29.667  11.582
72727W        W34258  11.130   6.300   2.346
72728W        W34259  20.760  22.651  10.988
72729W        W34260  21.147  11.229  13.883
72730W        W34261  19.052  15.695   3.830
72731W        W34262  12.772  33.595   3.164
72732W        W34263  11.626   9.765   0.739
72733W        W34264   8.756  37.336  14.356
72734W        W34265  40.892  43.509   3.760
72735W        W34266  14.177  11.292  12.897
72736W        W34267  41.950  13.108  14.814
72737W        W34268  17.712  21.745   5.145
72738W        W34269  16.666  14.268   3.811
72739W        W34270  27.669  22.156  10.932
72740W        W34271  27.099  41.348   3.747
72741W        W34272  16.319  25.699   1.740
72742W        W34273  21.186  27.192  12.935
72743W        W34274   7.327   3.254  11.466
72744W        W34275  30.077   3.217   9.934
72745W        W34276   9.762  36.503  12.466
72746W        W34277   2.367   5.809  13.945
72747W        W34278  21.078   8.162   0.850
72748W        W34279  32.466  19.641  12.345
72749W        W34280  23.152  13.270   1.347
72750W        W34281  11.131  22.530  14.763
72751W        W34282   2.286   3.270  10.031
72752W        W34283  15.588  20.527   1.821
72753W        W34284   5.400  40.028  14.805
72754W        W34285  10.749  25.003  12.078
72755W        W34286   7.877  21.593   4.701
72756W        W34287  21.137  43.846  14.448
72757W        W34288  11.823  16.605   3.221
72758W        W34289  21.064  34.085   2.751
72759W        W34290  32.555  12.687   2.782
72760W        W34291  10.268  26.702   4.273
72761W        W34292  10.354  21.204   3.685
72762W        W34293  42.486  10.871  13.850
72763W        W34294   8.335   0.411   0.767
72764W        W34295  31.969  32.576   2.831
72765W        W34296   8.689  19.659  14.469
72766W        W34297  29.992  33.562  13.884
72767W        W34298  21.229  24.976  12.458
72768W        W34299  28.600   3.351   2.685
72769W        W34300  23.186   2.289   2.257
72770W        W34301   0.359   1.274  12.846
72771W        W34302   5.289  20.598  10.407
72772W        W34303  14.292  21.582   1.747
72773W        W34304   0.283  36.931   0.386
72774W        W34305   1.774  34.874  14.514
72775W        W34306  13.823   3.800   3.814
72776W        W34307   8.742  26.606   3.844
72777W        W34308  20.138  20.570   3.178
72778W        W34309  11.692  10.141   4.769
72779W        W34310  43.890  26.969  12.951
72780W        W34311  33.934   8.232   4.172
72781W        W34312  44.817   2.825  13.009
72782W        W34313   3.847  38.533  11.033
72783W        W34314  29.571  18.224   5.210
72784W        W34315  30.500  25.062   3.293
72785W        W34316  40.947  11.650   1.211
72786W        W34317  37.066  27.518  12.350
72787W        W34318   4.904  40.938  14.968
72788W        W34319  24.977  22.030   4.207
72789W        W34320  22.600  44.460   2.689
72790W        W34321  20.686  35.960  13.403
72791W        W34322  30.659  16.594  14.460
72792W        W34323  21.562  40.911  10.406
72793W        W34324  23.623  39.344   5.247
72794W        W34325  28.491  40.400  10.462
72795W        W34326   1.771  36.545   2.272
72796W        W34327  24.092  41.383  14.832
72797W        W34328  10.739  19.041   2.343
72798W        W34329  18.787   0.827  10.997
72799W        W34330  33.624  17.623  12.872
72800W        W34331  25.678   6.725   2.776
72801W        W34332  25.528   6.851  11.500
72802W        W34333  29.932  15.303   4.270
72803W        W34334  11.788  26.087  14.348
72804W        W34335  18.684  41.953  12.513
72805W        W34336  42.504   9.291   4.284
72806W        W34337  41.536  29.064  10.626
72807W        W34338  38.045  29.140  13.412
72808W        W34339  27.638  43.300  13.889
72809W        W34340  44.006  36.979  10.559
72810W        W34341  17.232   2.820  10.527
72811W        W34342   5.256  23.683  13.352
72812W        W34343   0.746   2.871  13.903
72813W        W34344  43.829  26.559  13.521
72814W        W34345  13.796  30.559   1.427
72815W        W34346  17.608  14.627   1.922
72816W        W34347   7.383  13.179   2.228
72817W        W34348   4.369  44.457  11.449
72818W        W34349  15.090  36.502  13.505
72819W        W34350  33.088   7.237   3.162
72820W        W34351  20.111  43.382  10.613
72821W        W34352   5.429  44.881  11.516
72822W        W34353  23.521   8.853  14.427
72823W        W34354  36.954  36.007  12.827
72824W        W34355  15.586  41.451  10.422
72825W        W34356  41.923  14.704  12.507
72826W        W34357   1.959  10.669  12.396
72827W        W34358  21.519  38.010  10.615
72828W        W34359  14.264   5.413   1.708
72829W        W34360   8.221   4.725   3.814
72830W        W34361  21.596  43.771  10.603
72831W        W34362  39.823   9.250   9.922
72832W        W34363  20.246  19.131   4.245
72833W        W34364  15.203  29.932  14.910
72834W        W34365  39.922  14.746   2.362
72835W        W34366  41.392  43.437  11.106
72836W        W34367  18.743  17.156  10.062
72837W        W34368  30.614  14.239  11.100
72838W        W34369  43.893   2.414  10.996
72839W        W34370   9.310  36.850   4.346
72840W        W34371  42.319  25.553  12.899
72841W        W34372  24.714  35.517  14.476
72842W        W34373   9.224  41.901   2.867
72843W        W34374  27.014  21.177   3.675
72844W        W34375  28.143  32.464  12.016
72845W        W34376  30.621  11.284  13.860
72846W        W34377  29.563  17.776  11.464
72847W        W34378  20.077  31.448  13.829
72848W        W34379  33.974   0.279   3.372
72849W        W34380  36.489  11.822   4.742
72850W        W34381  24.191   8.209   0.882
72851W        W34382  44.489  18.705   3.691
72852W        W34383  19.572  33.619   2.698
72853W        W34384  41.423   2.269  12.911
72854W        W34385  24.979  31.149   2.350
72855W        W34386  23.643   6.845   2.834
72856W        W34387  34.507  40.498   4.680
72857W        W34388   8.744   0.774  11.112
72858W        W34389  38.384  34.570   1.874
72859W        W34390  18.257  40.894  14.496
72860W        W34391  35.909  13.215   3.266
72861W        W34392  38.034  24.690  10.616
72862W        W34393   1.259  28.620   2.274
72863W        W34394  38.374  30.469  14.002
72864W        W34395  12.164  15.747   2.245
72865W        W34396  14.740  39.336   2.278
72866W        W34397  15.234  22.038   0.742
72867W        W34398  39.371  42.510   2.772
72868W        W34399  33.999  11.144  14.448
72869W        W34400  22.660   0.492   1.378
72870W        W34401  32.079  27.537  14.414
72871W        W34402  42.917   5.394  11.961
72872W        W34403  18.052   4.919  12.374
72873W        W34404  35.389  16.715   9.999
72874W        W34405  29.172   7.192   0.243
72875W        W34406  16.181   1.963   4.132
72876W        W34407  11.733   0.346   4.239
72877W        W34408  10.215  35.367  11.918
72878W        W34409  40.916  22.642   2.777
72879W        W34410  30.423  36.892  12.561
72880W        W34411  31.626   3.311   0.248
72881W        W34412  22.560  39.871   3.245
72882W        W34413  26.485   2.306   4.731
72883W        W34414   6.271  24.010   3.799
72884W        W34415  14.749  23.696   4.826
72885W        W34416  43.974   8.726  12.540
72886W        W34417   0.327  34.513  10.577
72887W        W34418  10.236  14.116  12.556
72888W        W34419  12.179  38.494  11.889
72889W        W34420   5.387   8.809  12.434
72890W        W34421   4.219  40.526   0.404
72891W        W34422   1.305  33.417  14.281
72892W        W34423  24.148  17.731  13.502
72893W        W34424  35.924  41.459  13.421
72894W        W34425   4.230  41.887   1.758
72895W        W34426   0.744  29.563   1.379
72896W        W34427   3.428  41.524  12.415
72897W        W34428   5.303  30.544   0.947
72898W        W34429  14.815  15.604   0.444
72899W        W34430   6.422  33.572   0.843
72900W        W34431  21.186  30.164  10.615
72901W        W34432  30.435  28.660   3.847
72902W        W34433   4.308  28.446  10.617
72903W        W34434   1.299   9.733  12.833
72904W        W34435  23.211  25.078   4.333
72905W        W34436  20.527   0.823   0.304
72906W        W34437   5.415  20.647   1.763
72907W        W34438  41.959  30.498   2.680
72908W        W34439  11.314   4.858  10.607
72909W        W34440  30.503  38.932   0.868
72910W        W34441   2.417  13.642  10.950
72911W        W34442  11.809  39.035   9.960
72912W        W34443  22.045  27.470  10.642
72913W        W34444  29.140  21.195   0.944
72914W        W34445  23.615  23.108  13.882
72915W        W34446  23.721  13.763  12.351
72916W        W34447  15.801  40.494   2.305
72917W        W34448  23.003  28.521  11.558
72918W        W34449  20.565   5.414  12.826
72919W        W34450   8.290  21.632  14.276
72920W        W34451  30.075   3.895   1.718
72921W        W34452  36.500  11.792   2.243
72922W        W34453  25.584   8.834  10.605
72923W        W34454   4.295  23.107  13.504
72924W        W34455  42.520  11.197   3.824
72925W        W34456  40.976  26.204  13.356
72926W        W34457  20.064  18.057   5.287
72927W        W34458  37.347  24.713   1.857
72928W        W34459  18.293   9.373   3.768
72929W        W34460  16.136  28.153  12.896
72930W        W34461  36.938  10.867  13.462
72931W        W34462   1.813  22.558  12.886
72932W        W34463  40.821  31.901  14.416
72933W        W34464  28.451  16.605   1.721
72934W        W34465   3.265  44.446  10.542
72935W        W34466  35.971  31.422  13.026
72936W        W34467  10.644  21.551  14.495
72937W        W34468   5.911  31.095   1.415
72938W        W34469   8.283  19.218  12.037
72939W        W34470  28.673  25.698   3.349
72940W        W34471  18.556  15.741   3.314
72941W        W34472  33.928   9.674  14.996
72942W        W34473   2.849  41.362   3.758
72943W        W34474  31.976  44.332   0.252
72944W        W34475  34.603  34.567   4.743
72945W        W34476  24.700  23.026   1.839
72946W        W34477  34.453   5.875   3.170
72947W        W34478  19.605  15.823  11.503
72948W        W34479   9.678  43.456   4.808
72949W        W34480  14.824  10.746   3.221
72950W        W34481  19.109  22.713   4.739
72951W        W34482  29.108   5.259   0.405
72952W        W34483  10.331  26.952   2.819
72953W        W34484  35.086  25.664   3.650
72954W        W34485  34.561  15.639   1.771
72955W        W34486  35.385  29.488   2.348
72956W        W34487  42.913  22.724  14.009
72957W        W34488  27.998  22.743  11.451
72958W        W34489  29.992  20.214  11.886
72959W        W34490  11.128   7.841   4.780
72960W        W34491  20.716  33.959  10.480
72961W        W34492  28.602  10.646  11.013
72962W        W34493  21.725  28.499   4.346
72963W        W34494  27.980  16.803   1.878
72964W        W34495  17.776   6.182  14.886
72965W        W34496  21.563  15.731  11.433
72966W        W34497  25.701  11.362   4.798
72967W        W34498  22.229  36.503  14.375
72968W        W34499  15.758   2.238  13.408
72969W        W34500  15.261  10.361  14.856
72970W        W34501  19.061  37.961   3.708
72971W        W34502  32.435  17.728   3.783
72972W        W34503   0.743  36.968  14.812
72973W        W34504  15.778  24.698  11.923
72974W        W34505  13.603  30.477  13.461
72975W        W34506  38.345  42.029   0.967
72976W        W34507  23.124  18.677  14.315
72977W        W34508   3.947  11.854   1.301
72978W        W34509  17.248  30.613  11.473
72979W        W34510  31.039  25.216   1.295
72980W        W34511  17.300  44.994   1.289
72981W        W34512  33.017  23.011   1.446
72982W        W34513   6.897  33.548  10.405
72983W        W34514  42.937  18.573   3.651
72984W        W34515  18.608  20.208  13.381
72985W        W34516  39.994  19.641  10.998
72986W        W34517  27.115   2.844  13.474
72987W        W34518  10.251  36.585  10.958
72988W        W34519  42.965   5.696   4.744
72989W        W34520  31.048  19.237   0.380
72990W        W34521  39.321  38.852   1.858
72991W        W34522  20.221  29.454  14.488
72992W        W34523  25.514   9.872   3.713
72993W        W34524  32.516  12.244  10.458
72994W        W34525  38.951  43.015  13.913
72995W        W34526   9.735  27.456   2.818
72996W        W34527   3.926  35.386   0.843
72997W        W34528  11.777  16.742  12.453
72998W        W34529  11.806   9.834   3.813
72999W        W34530  40.951   7.721  10.630
73000W        W34531   7.342   1.481   9.469
73001W        W34532  34.559  18.244   0.319
73002W        W34533  26.687  30.641  12.852
73003W        W34534  19.079   5.827   3.359
73004W        W34535  26.193   5.728  13.952
73005W        W34536  20.105   7.321   4.668
73006W        W34537  12.308  39.363  12.957
73007W        W34538   2.410  26.086   4.614
73008W        W34539  42.943  32.910  14.812
73009W        W34540  37.947  21.639  14.781
73010W        W34541   4.801  41.962   1.393
73011W        W34542   7.720  15.142   0.421
73012W        W34543  42.900  16.226  14.511
73013W        W34544   0.884   7.804  14.914
73014W        W34545  38.003  37.474   4.288
73015W        W34546  25.192  29.588  13.394
73016W        W34547  17.692  13.650   3.218
73017W        W34548  19.763  34.407  10.616
73018W        W34549  14.668  37.869   0.744
73019W        W34550  44.445  36.359   2.763
73020W        W34551  16.252  20.708  11.408
73021W        W34552  27.583   6.346  14.391
73022W        W34553  35.084  10.340   2.870
73023W        W34554  30.015  44.915  12.570
73024W        W34555  33.436  36.882   0.939
73025W        W34556  41.857  35.917  10.978
73026W        W34557  43.397   5.205  12.041
73027W        W34558  25.692  20.115  12.890
73028W        W34559  38.429  22.105  13.826
73029W        W34560  34.386  39.537   2.885
73030W        W34561  11.765  41.305   2.366
73031W        W34562   1.317  23.500   2.856
73032W        W34563  41.491  17.605   4.294
73033W        W34564   8.253  41.834  11.903
73034W        W34565  12.179  11.693   4.783
73035W        W34566   2.729  12.684  10.994
73036W        W34567  28.499  39.833  11.451
73037W        W34568  27.634  44.351  13.836
73038W        W34569  31.976  42.883   3.196
73039W        W34570  18.791   9.310  13.822
73040W        W34571   6.369  25.090   0.403
73041W        W34572   6.380   0.301  10.420
73042W        W34573   0.419  32.927   0.370
73043W        W34574   5.749  19.063   2.725
73044W        W34575  27.570  38.982  12.833
73045W        W34576  34.014  16.143  11.994
73046W        W34577  29.144  37.847   2.303
73047W        W34578  37.404  14.304   2.869
73048W        W34579  30.914   9.749  13.040
73049W        W34580  29.110  30.031   4.663
73050W        W34581   4.204   6.922  11.075
73051W        W34582  37.545  26.674   3.190
73052W        W34583  33.962  31.005   2.285
73053W        W34584   9.359  21.189   2.390
73054W        W34585  43.469  43.481  13.917
73055W        W34586   2.293  11.196   3.297
73056W        W34587  17.199  12.820  12.506
73057W        W34588   0.773  37.958  14.427
73058W        W34589  20.668  22.609  14.330
73059W        W34590  29.435  24.128   3.244
73060W        W34591   8.262  38.528  13.340
73061W        W34592  29.528   1.916   4.146
73062W        W34593  36.936   3.333  13.813
73063W        W34594  16.668   6.900   3.303
73064W        W34595  13.752  43.911  11.986
73065W        W34596  27.582  19.081   0.928
73066W        W34597  20.690  42.396  13.481
73067W        W34598  12.652  40.894  10.475
73068W        W34599  20.643  27.476  11.977
73069W        W34600  39.919  43.975  14.507
73070W        W34601   4.841  19.658   2.889
73071W        W34602   8.796   8.697  10.590
73072W        W34603  13.830  26.536  14.927
73073W        W34604  20.672  37.853  12.007
73074W        W34605  12.650  39.351  12.858
73075W        W34606  31.058  16.189   3.147
73076W        W34607  37.475  28.103   4.836
73077W        W34608  37.082   9.697  14.030
73078W        W34609  38.992  21.652   9.999
73079W        W34610  21.113  22.142  14.341
73080W        W34611  24.203  41.527  13.016
73081W        W34612   8.234  30.971   0.927
73082W        W34613  37.896   6.699   3.339
73083W        W34614   4.771  28.098   1.761
73084W        W34615  14.608   7.172   3.335
73085W        W34616  41.534  31.604  10.995
73086W        W34617  16.662  30.475  12.037
73087W        W34618   7.804  37.971   3.772
73088W        W34619  11.145  36.375  12.833
73089W        W34620  23.659   7.791   4.226
73090W        W34621   2.891  44.755  12.889
73091W        W34622  18.221  27.130  14.390
73092W        W34623   6.195  19.077  11.061
73093W        W34624  18.739  37.504   1.369
73094W        W34625   2.867  24.081   4.687
73095W        W34626  16.163  38.367  10.891
73096W        W34627  31.947  34.464  10.045
73097W        W34628  15.788  12.122  13.934
73098W        W34629   4.213  23.182   0.968
73099W        W34630  41.528  40.321   1.878
73100W        W34631   4.875  23.689   1.770
73101W        W34632  11.279  26.646   4.173
73102W        W34633   1.887   4.817  14.860
73103W        W34634  20.537  17.787  13.439
73104W        W34635  38.431  17.158   3.196
73105W        W34636  18.721  41.292  11.550
73106W        W34637  10.348   0.494   4.133
73107W        W34638  16.121  15.225  13.352
73108W        W34639  10.141  32.619  11.437
73109W        W34640  28.086  25.534  11.570
73110W        W34641  20.207  37.398  13.884
73111W        W34642  44.905  19.746   3.774
73112W        W34643  30.951  30.068  10.630
73113W        W34644  16.792   3.885   4.191
73114W        W34645  17.595  27.059   5.272
73115W        W34646  28.459   3.871  13.853
73116W        W34647   8.729  16.093  14.907
73117W        W34648  14.280   6.302  14.028
73118W        W34649  19.150  25.634   3.827
73119W        W34650  25.114  41.942   4.230
73120W        W34651  40.319  34.436   0.390
73121W        W34652  39.400  42.900  13.024
73122W        W34653  19.575  41.028   1.824
73123W        W34654  19.673  33.486  14.902
73124W        W34655   7.376  22.243   0.818
73125W        W34656   6.344   5.712   2.188
73126W        W34657  38.366  17.691   4.751
73127W        W34658  22.013  22.248   1.235
73128W        W34659  12.851  35.017  14.398
73129W        W34660   3.233   6.833   1.430
73130W        W34661   5.235   0.839   3.232
73131W        W34662  20.113  37.928   4.735
73132W        W34663   0.299   6.895  13.448
73133W        W34664   2.831  34.475  14.928
73134W        W34665   3.907  35.410   1.855
73135W        W34666  19.283  10.240   4.651
73136W        W34667  11.217   3.323   4.202
73137W        W34668  17.155  36.355   4.717
73138W        W34669  28.512  43.952  12.471
73139W        W34670  12.237  44.423  12.959
73140W        W34671  22.687  35.361   9.986
73141W        W34672   1.746   5.782  14.503
73142W        W34673  37.466   3.341  14.846
73143W        W34674   6.407  21.117  13.354
73144W        W34675  38.532  16.641   3.226
73145W        W34676   6.787  36.485  14.452
73146W        W34677  19.644  32.627   1.282
73147W        W34678  38.952  38.944  12.999
73148W        W34679  26.688  44.844  10.469
73149W        W34680  31.010  42.430   3.679
73150W        W34681  19.603  32.040  11.042
73151W        W34682  35.951  12.855  13.480
73152W        W34683   1.245  43.406  13.022
73153W        W34684  33.015   5.905   3.768
73154W        W34685  36.850  38.821   4.223
73155W        W34686  10.803   5.412   4.636
73156W        W34687  28.481   5.921   2.755
73157W        W34688  22.651  26.466  11.092
73158W        W34689   1.845  41.962   1.823
73159W        W34690  26.168  33.099  12.552
73160W        W34691  44.294   3.380   9.970
73161W        W34692  23.202  32.552  11.869
73162W        W34693  39.839  39.013  14.765
73163W        W34694  37.574  36.992  14.915
73164W        W34695  24.040   5.908   0.833
73165W        W34696  43.802  44.933  12.015
73166W        W34697  17.590  44.760  13.348
73167W        W34698  27.156  35.909  13.340
73168W        W34699  15.149  22.078   9.994
73169W        W34700  38.049  28.179   4.293
73170W        W34701  25.173  30.978  13.009
73171W        W34702  38.551  12.165   4.218
73172W        W34703  28.076  29.636   4.153
73173W        W34704  39.937  36.504  12.927
73174W        W34705  20.221  38.878   3.383
73175W        W34706  13.197  22.083  12.512
73176W        W34707  10.862  17.226   2.402
73177W        W34708  41.498  27.650   1.424
73178W        W34709   4.250  35.491  11.039
73179W        W34710  38.328  37.452   0.450
73180W        W34711   5.928  20.044   1.292
73181W        W34712  20.263  12.170   4.722
73182W        W34713  42.025  43.364  14.787
73183W        W34714  24.589   0.302   1.416
73184W        W34715  23.999  12.287   3.664
73185W        W34716  22.728  18.137  11.529
73186W        W34717  16.609   5.904  12.827
73187W        W34718  38.458  18.784  13.329
73188W        W34719  19.671  28.613   2.734
73189W        W34720  35.459  11.232  13.383
73190W        W34721  31.416  21.573  10.629
73191W        W34722   7.753   8.352   2.212
73192W        W34723  36.939  43.454   1.844
73193W        W34724  32.530  10.224   4.153
73194W        W34725  38.851  37.558  12.349
73195W        W34726   6.892  13.161   4.703
73196W        W34727  21.263  23.651  13.376
73197W        W34728  33.041  22.073  11.463
73198W        W34729  15.630  11.279  12.050
73199W        W34730  14.664  35.416   1.283
73200W        W34731  25.644  17.712   1.406
73201W        W34732  21.586  13.241  13.045
73202W        W34733  42.502   1.743  14.766
73203W        W34734  20.201  33.959  10.605
73204W        W34735   2.268  15.812   1.754
73205W        W34736  41.490  37.581   1.366
73206W        W34737   4.890  23.735  11.497
73207W        W34738  17.088  27.505  13.842
73208W        W34739  35.048  17.555   4.316
73209W        W34740   9.787  14.287  12.043
73210W        W34741  16.237  22.635   0.857
73211W        W34742  29.598  38.415  11.433
73212W        W34743  18.650  18.700  13.350
73213W        W34744  44.768  44.345   2.805
73214W        W34745  40.306  36.562  11.374
73215W        W34746  26.075  43.459   4.799
73216W        W34747   4.372   2.912  11.868
73217W        W34748  11.709  13.227   2.291
73218W        W34749  38.430  28.121  14.994
73219W        W34750  38.522   2.369   2.728
73220W        W34751  38.547  29.951   0.886
73221W        W34752  29.098  28.522  12.963
73222W        W34753  38.871  38.368  11.560
73223W        W34754   9.799  13.635   3.636
73224W        W34755  43.835  33.070  13.062
73225W        W34756  16.767  43.822  14.907
73226W        W34757  35.371  15.230  14.402
73227W        W34758   2.920  24.120  13.318
73228W        W34759  18.770  34.957   1.331
73229W        W34760   4.701  26.591   2.178
73230W        W34761  42.296  40.855  12.085
73231W        W34762  10.878  34.559  11.976
73232W        W34763  12.145  29.958   3.373
73233W        W34764  39.010  12.348  11.501
73234W        W34765   5.791  29.164   0.317
73235W        W34766  19.134  29.168  10.530
73236W        W34767  35.551  43.282  14.286
73237W        W34768  21.600  24.998  13.527
73238W        W34769   9.790  39.030   4.597
73239W        W34770  36.918  23.668   3.312
73240W        W34771  25.182  26.140   4.309
73241W        W34772  40.029  31.636  10.484
73242W        W34773  21.020  28.594   2.865
73243W        W34774  44.280  21.045  13.027
73244W        W34775  37.863  20.145  11.516
73245W        W34776   6.222   3.752   1.311
73246W        W34777  16.795  21.617   2.749
73247W        W34778  44.892  31.024   4.761
73248W        W34779  24.534  30.910  11.510
73249W        W34780  27.688  16.275  14.409
73250W        W34781  34.961  41.528   2.317
73251W        W34782  29.527  10.210  12.406
73252W        W34783  14.802  38.952  10.952
73253W        W34784   2.881  12.654  14.373
73254W        W34785   4.923  40.325  14.007
73255W        W34786   5.687  28.647  11.957
73256W        W34787   1.383  32.485  12.377
73257W        W34788  14.119  32.928  13.418
73258W        W34789  27.688  43.839  10.604
73259W        W34790   6.305  32.048   2.213
73260W        W34791   5.325  29.111  14.490
73261W        W34792  17.236  26.482   0.960
73262W        W34793  29.460  14.835   2.196
73263W        W34794  32.958  42.421   0.343
73264W        W34795  40.391  34.039   2.232
73265W        W34796   4.711  35.566  11.856
73266W        W34797   5.851  36.461   2.789
73267W        W34798  26.670  11.215  13.996
73268W        W34799  32.001  40.022   3.853
73269W        W34800  23.163  12.725   1.813
73270W        W34801  22.243  44.962   1.869
73271W        W34802  39.062  25.627   1.252
73272W        W34803  11.305  26.105  10.968
73273W        W34804   4.424   5.931   1.896
73274W        W34805  13.776   5.767   3.751
73275W        W34806  11.809  26.196   0.914
73276W        W34807  39.055  24.978   3.344
73277W        W34808  21.674  29.060   1.236
73278W        W34809   9.816   2.279  11.083
73279W        W34810  19.633  35.565  12.480
73280W        W34811  33.411   5.883  12.580
73281W        W34812  11.793  37.452  13.930
73282W        W34813  24.544  34.117  10.634
73283W        W34814  36.087  19.654  11.499
73284W        W34815  44.830   0.932  14.430
73285W        W34816  23.240  16.686  10.979
73286W        W34817  35.995  21.532  11.577
73287W        W34818  41.021  44.340   2.234
73288W        W34819  17.155  21.513  13.911
73289W        W34820  38.873  17.091  12.443
73290W        W34821   0.402   3.850  11.490
73291W        W34822   1.337  44.956  12.834
73292W        W34823  17.067   1.410   2.876
73293W        W34824  14.152  32.086   1.229
73294W        W34825   9.303  24.077  12.833
73295W        W34826  32.045   0.346  14.999
73296W        W34827   0.491   4.859  14.861
73297W        W34828  38.058  40.303   3.699
73298W        W34829  34.409   2.752   0.840
73299W        W34830   4.939  18.117  14.829
73300W        W34831  35.534  33.878  10.564
73301W        W34832   9.177  30.527   2.182
73302W        W34833   9.652  16.277   2.342
73303W        W34834  27.090  27.193   0.731
73304W        W34835  22.102  25.998   3.694
73305W        W34836   7.229  21.638  11.022
73306W        W34837  43.469  33.556  14.917
73307W        W34838  28.602  30.977   4.192
73308W        W34839  33.409   8.380   2.341
73309W        W34840  25.533  41.499  13.526
73310W        W34841  30.941  14.831   4.300
73311W        W34842   3.935  24.566   3.704
73312W        W34843  37.945  39.832   2.353
73313W        W34844  42.931   4.895   1.813
73314W        W34845  27.668  22.041   0.360
73315W        W34846  12.348  36.573   4.274
73316W        W34847  29.597  20.750  10.949
73317W        W34848  37.558   1.734  13.372
73318W        W34849  14.686  41.024   0.770
73319W        W34850  13.699  33.579   1.396
73320W        W34851  27.587   7.410   0.323
73321W        W34852  22.098   7.403  12.067
73322W        W34853  13.685  39.844   4.737
73323W        W34854  28.583  14.153  11.902
73324W        W34855  41.386   1.919  11.930
73325W        W34856  29.086  18.552   2.379
73326W        W34857  21.085  30.990   1.396
73327W        W34858  11.315  38.445  11.411
73328W        W34859  38.874  27.463  14.480
73329W        W34860  21.672  40.954   1.832
73330W        W34861  40.007  20.220   3.230
73331W        W34862   5.911  28.123   1.280
73332W        W34863  25.613   1.325  12.864
73333W        W34864  36.932   6.718  13.546
73334W        W34865  37.503  31.045  14.505
73335W        W34866  42.778  29.110  14.489
73336W        W34867   4.323  35.076  11.399
73337W        W34868  43.404   1.942   0.893
73338W        W34869  27.554  40.967   4.191
73339W        W34870   9.161  25.103  13.418
73340W        W34871  20.651  18.119   4.652
73341W        W34872  21.156  27.672  13.517
73342W        W34873  25.141  44.883  12.901
73343W        W34874  30.154  24.099  13.345
73344W        W34875   0.928  43.808   0.478
73345W        W34876  19.167   2.451   1.220
73346W        W34877  13.800  22.688   0.352
73347W        W34878  44.288  11.169   0.741
73348W        W34879  30.063  10.208  13.367
73349W        W34880  10.683   8.893   0.340
73350W        W34881  33.038  28.673  14.860
73351W        W34882  27.665  31.476   0.850
73352W        W34883   1.732  41.961   2.821
73353W        W34884  34.611   0.832   2.843
73354W        W34885   0.937  43.858  11.123
73355W        W34886   1.910  31.593   4.784
73356W        W34887  37.949  16.795  11.485
73357W        W34888  31.956  37.051  13.909
73358W        W34889  26.632  42.862  12.405
73359W        W34890   1.424   2.959   4.249
73360W        W34891  32.576   1.865   1.278
73361W        W34892  34.977   1.958  10.142
73362W        W34893   0.483   8.206   0.303
73363W        W34894  15.691  27.994   1.224
73364W        W34895  41.321  18.652   3.856
73365W        W34896  18.614  30.417   2.828
73366W        W34897  38.457  36.403  10.993
73367W        W34898  29.665  13.728   2.828
73368W        W34899   6.732  37.858   3.662
73369W        W34900  15.179  32.520  12.573
73370W        W34901  44.261   5.889   1.760
73371W        W34902   6.695  41.432   1.805
73372W        W34903  19.248  12.766   3.745
73373W        W34904  32.031  32.056   1.808
73374W        W34905   0.810  23.186  14.481
73375W        W34906  31.608  17.731   3.793
73376W        W34907  18.203  36.554   0.361
73377W        W34908  30.973  24.221  11.072
73378W        W34909   5.265   7.702   1.721
73379W        W34910  30.440  44.311  14.980
73380W        W34911  38.004  34.077  12.989
73381W        W34912   4.883  33.493  14.387
73382W        W34913  37.405  22.579  12.439
73383W        W34914  35.015  20.196   3.308
73384W        W34915  43.999   6.695   2.288
73385W        W34916   1.866  16.737  10.978
73386W        W34917   9.754  15.117   1.403
73387W        W34918  17.130  22.139   2.724
73388W        W34919  14.595  34.572  13.453
73389W        W34920   1.441  32.143  10.888
73390W        W34921   0.312  40.898   1.696
73391W        W34922  33.593  19.070  13.960
73392W        W34923  26.059  34.100   0.931
73393W        W34924  22.060  33.919  11.991
73394W        W34925  36.988  31.618  14.342
73395W        W34926  42.439  12.824  14.353
73396W        W34927  23.993  27.962   2.711
73397W        W34928  27.082   8.389  11.863
73398W        W34929  43.485  32.926   3.289
73399W        W34930   0.796  40.471  12.491
73400W        W34931  16.228  19.638  13.341
73401W        W34932  35.570  13.203  11.421
73402W        W34933  12.253   2.311   9.600
73403W        W34934  37.846   2.357  14.921
73404W        W34935   1.820  42.009   0.805
73405W        W34936   8.395  37.572   3.175
73406W        W34937  21.599  43.316  12.984
73407W        W34938   7.902  24.201   0.756
73408W        W34939  43.412  13.177  11.890
73409W        W34940  41.803  27.598   4.135
73410W        W34941  28.006  22.216   0.251
73411W        W34942   7.719  40.340   2.709
73412W        W34943  34.871   1.806   4.159
73413W        W34944  11.731  34.928  14.484
73414W        W34945  29.656  17.282   0.455
73415W        W34946  23.100   2.795   2.865
73416W        W34947  40.528  16.190   2.364
73417W        W34948  27.633  34.451   0.290
73418W        W34949  17.645  25.204   4.160
73419W        W34950  10.147  34.542  10.064
73420W        W34951  39.847  28.995   0.294
73421W        W34952  22.223   3.246  10.922
73422W        W34953   6.724  33.093  13.475
73423W        W34954   1.245  16.568   4.808
73424W        W34955  26.053  39.348   4.789
73425W        W34956   0.333   5.896   1.914
73426W        W34957  42.961  32.088  12.000
73427W        W34958  44.430   3.357  14.901
73428W        W34959  37.462  42.848   4.634
73429W        W34960  39.432  26.024   2.278
73430W        W34961  32.966  27.507  13.876
73431W        W34962  31.128  16.620   2.224
73432W        W34963  13.126  36.872   2.708
73433W        W34964  35.070   7.219  14.978
73434W        W34965  21.203  35.043   2.876
73435W        W34966  17.137   1.877   0.729
73436W        W34967  11.705  42.455  14.494
73437W        W34968  15.171  21.031   2.888
73438W        W34969  27.086   2.295   1.923
73439W        W34970  10.802   2.250  14.354
73440W        W34971  33.429  20.133   2.326
73441W        W34972   2.339  23.532  13.910
73442W        W34973   4.740   2.453  13.461
73443W        W34974  39.359  30.938   4.653
73444W        W34975  27.632  25.561   4.147
73445W        W34976   9.752  42.853   0.936
73446W        W34977  10.698   4.392  10.938
73447W        W34978  28.581   9.731   2.689
73448W        W34979  43.017  11.848   3.321
73449W        W34980   3.884   6.230  10.984
73450W        W34981  27.035  18.076  13.023
73451W        W34982  18.250  25.202   3.643
73452W        W34983  43.381  14.590  14.782
73453W        W34984  38.038  19.617  11.977
73454W        W34985  40.938  21.237  10.419
73455W        W34986  12.788  26.039   1.293
73456W        W34987   4.780   0.368   1.890
73457W        W34988  23.537  24.076   2.277
73458W        W34989  24.021  18.251   1.856
73459W        W34990   6.837   8.831  13.923
73460W        W34991  39.407  32.887   2.418
73461W        W34992   9.186  30.480  13.937
73462W        W34993  32.942  40.302   2.878
73463W        W34994  21.722  32.920   1.872
73464W        W34995  42.836  40.866  10.586
73465W        W34996  22.054  22.520  11.546
73466W        W34997  41.804   1.934  10.497
73467W        W34998  15.148  21.257   1.919
73468W        W34999  38.504   1.248   4.793
73469W        W35000  29.454   2.944  11.954
73470W        W35001  40.517  10.849  14.787
73471W        W35002  20.573  32.401  13.854
73472W        W35003  32.492  23.072   2.883
73473W        W35004  30.584  19.629   1.824
73474W        W35005   8.286  12.230   4.299
73475W        W35006  19.613  33.086   3.786
73476W        W35007  22.716   1.865  11.875
73477W        W35008   0.748   5.855  11.071
73478W        W35009  14.600  35.010   0.434
73479W        W35010   1.421   8.261  12.418
73480W        W35011  11.713  39.508   1.839
73481W        W35012  37.509  27.470  13.348
73482W        W35013   7.898  39.551  10.477
73483W        W35014   0.460   4.245  14.868
73484W        W35015  21.700  40.436   4.212
73485W        W35016  34.099  40.865  12.531
73486W        W35017   6.762   7.283  11.489
73487W        W35018  41.911  41.430  10.147
73488W        W35019  34.913  39.551  13.877
73489W        W35020  29.066   4.256  10.937
73490W        W35021   1.266  19.259  14.843
73491W        W35022  25.644   1.805  12.874
73492W        W35023  20.585  17.253   4.598
73493W        W35024  18.277   2.892  12.364
73494W        W35025  42.341   6.699  14.985
73495W        W35026  29.444  31.132   1.898
73496W        W35027  39.555  24.178  14.500
73497W        W35028  35.603  12.836   3.845
73498W        W35029  38.067   6.262   3.160
73499W        W35030  30.989  18.193   1.303
73500W        W35031  42.884   6.809  14.765
73501W        W35032  29.592  43.007  11.023
73502W        W35033  33.086  32.524  11.093
73503W        W35034   6.783  37.039  12.513
73504W        W35035  36.542   9.227  13.342
73505W        W35036  42.029  34.553  14.946
73506W        W35037   7.883  22.705   3.747
73507W        W35038  19.093  25.529   1.730
73508W        W35039  28.517  34.935   1.704
73509W        W35040  43.867  22.110  12.938
73510W        W35041   9.824  39.958  14.802
73511W        W35042   5.226  25.545  13.315
73512W        W35043   6.187  37.016   3.870
73513W        W35044  19.052  33.017  13.340
73514W        W35045  12.752  12.179   3.731
73515W        W35046  19.162  32.559   0.477
73516W        W35047  21.672   1.826  10.544
73517W        W35048  19.081  13.738   0.880
73518W        W35049  21.720  42.489   3.866
73519W        W35050  26.679  14.733   1.391
73520W        W35051  23.628  43.987   3.189
73521W        W35052  11.138  10.644   1.860
73522W        W35053   9.866  37.856  11.124
73523W        W35054   8.207  13.761  11.475
73524W        W35055   5.358  39.423   1.752
73525W        W35056  12.281   5.274   1.259
73526W        W35057  12.194  20.756  14.311
73527W        W35058   6.356  32.914  12.930
73528W        W35059  23.113   5.420   1.702
73529W        W35060  16.770  19.593  12.360
73530W        W35061   0.311  16.156   2.731
73531W        W35062  11.795  16.078   3.308
73532W        W35063   6.812  34.103  14.321
73533W        W35064  12.273  43.495  13.366
73534W        W35065  33.605  23.067   4.215
73535W        W35066  18.556  16.679   1.783
73536W        W35067   7.183  15.628   0.877
73537W        W35068  43.492  30.597   1.739
73538W        W35069  23.079  26.642  14.031
73539W        W35070  19.188  16.711  12.460
73540W        W35071  35.442   3.369   3.698
73541W        W35072   9.191  34.494  13.321
73542W        W35073   3.380  16.645   4.282
73543W        W35074  21.654  12.196   3.212
73544W        W35075   4.742  10.820   9.921
73545W        W35076  39.455  43.892   1.308
73546W        W35077  13.171  14.116   1.259
73547W        W35078  22.637  20.657  10.641
73548W        W35079  21.655  27.516  14.978
73549W        W35080  15.697  10.728   2.762
73550W        W35081   2.376  15.783  14.992
73551W        W35082  43.018   4.344  13.045
73552W        W35083  30.041   6.868   3.700
73553W        W35084  33.474   1.939   0.927
73554W        W35085  11.370  32.915   4.750
73555W        W35086  22.210  33.422  10.954
73556W        W35087  38.485  19.264  11.564
73557W        W35088  41.466  24.506   4.136
73558W        W35089   7.859  43.006  14.298
73559W        W35090  33.063  13.240  13.472
73560W        W35091  23.630   6.305  13.038
73561W        W35092  16.786  28.109  14.343
73562W        W35093  36.359  28.021  11.475
73563W        W35094  26.647   7.398   1.303
73564W        W35095  18.672  12.326   3.212
73565W        W35096  13.204  40.372  13.478
73566W        W35097  26.535   9.812  11.453
73567W        W35098  26.678  36.978  11.612
73568W        W35099  31.403  35.050   4.740
73569W        W35100  16.658   9.823  12.033
73570W        W35101  15.645   2.361   1.794
73571W        W35102   5.718  41.905  10.604
73572W        W35103  12.625  20.762   3.792
73573W        W35104  30.915   1.433  12.062
73574W        W35105  38.839  25.649   4.165
73575W        W35106  42.377  27.044  11.091
73576W        W35107  36.563  16.185   2.201
73577W        W35108   4.293  13.205  11.593
73578W        W35109  23.133  19.221   1.792
73579W        W35110  36.372   2.390   1.418
73580W        W35111  27.133   5.342   4.288
73581W        W35112  24.135  43.285   1.437
73582W        W35113  27.467  25.491  14.365
73583W        W35114  17.176   2.930   0.958
73584W        W35115  10.260  32.592   2.343
73585W        W35116  35.414  42.784  14.902
73586W        W35117  22.525  31.461   3.825
73587W        W35118  26.619  34.467   2.705
73588W        W35119  33.563  29.025   1.928
73589W        W35120  20.667  35.392  14.283
73590W        W35121  20.241  23.001  14.788
73591W        W35122   3.903  22.714  12.847
73592W        W35123   3.461  31.425   3.336
73593W        W35124  16.307  10.336   0.762
73594W        W35125  37.868  31.546   4.261
73595W        W35126   1.277  10.720   1.878
73596W        W35127  12.213  20.609  13.045
73597W        W35128  26.576   0.795   0.265
73598W        W35129  12.163  15.329   3.166
73599W        W35130  24.191   7.876  12.413
73600W        W35131  33.625  12.306   0.289
73601W        W35132  24.044   8.394  11.020
73602W        W35133   1.774  19.661   2.902
73603W        W35134   2.326  14.822   4.149
73604W        W35135   3.893  21.077  11.420
73605W        W35136  36.562  40.442   4.138
73606W        W35137  42.322  16.610  12.548
73607W        W35138  25.200  23.597  12.894
73608W        W35139  34.867  33.013  10.956
73609W        W35140  21.137   1.359   4.113
73610W        W35141  10.770  37.997  11.434
73611W        W35142  31.472  44.266  11.897
73612W        W35143  11.665  22.721  10.433
73613W        W35144  31.958   0.833   1.752
73614W        W35145   9.156  15.788   4.833
73615W        W35146  20.690  26.202  12.543
73616W        W35147  29.577  18.727  13.847
73617W        W35148  33.625  41.415   2.397
73618W        W35149   2.906  28.612   1.213
73619W        W35150   7.218  16.572  10.905
73620W        W35151  27.462  30.620  10.609
73621W        W35152  36.495   9.673  12.023
73622W        W35153  26.143  37.422  13.963
73623W        W35154  42.808  37.062  11.054
73624W        W35155  16.156   2.909  13.880
73625W        W35156  40.372  20.239   2.804
73626W        W35157  29.932  27.948  14.961
73627W        W35158  21.205  15.587  13.415
73628W        W35159  38.378  37.340  13.363
73629W        W35160  19.625  22.645   3.835
73630W        W35161  24.654  29.549  10.926
73631W        W35162   3.892   7.898   0.747
73632W        W35163  11.305  32.513  14.971
73633W        W35164  36.381  29.136  11.546
73634W        W35165  26.671  13.348   4.219
73635W        W35166  37.550  11.868  13.527
73636W        W35167   4.271  17.238   0.308
73637W        W35168   3.413  41.967  10.937
73638W        W35169  12.772  36.076  10.906
73639W        W35170  42.289  41.966   4.730
73640W        W35171  15.699  37.352   0.306
73641W        W35172   4.833  39.961  13.902
73642W        W35173  37.985   5.382  10.553
73643W        W35174  17.228  41.472  11.989
73644W        W35175  21.551   7.843  13.511
73645W        W35176  36.013  42.792  12.919
73646W        W35177  13.799  43.892   4.177
73647W        W35178  25.077  12.358   1.267
73648W        W35179  27.080  40.377   1.730
73649W        W35180  33.404  42.300  13.443
73650W        W35181  36.474  15.229   5.714
73651W        W35182  25.568  33.413  11.863
73652W        W35183  14.288  28.623   3.157
73653W        W35184  26.648   2.889  11.113
73654W        W35185  39.899   3.404   0.813
73655W        W35186  10.381  42.474   1.376
73656W        W35187  11.669   9.336   2.248
73657W        W35188  39.966   0.823  14.905
73658W        W35189  25.607  38.515   4.165
73659W        W35190  27.470  35.023   3.730
73660W        W35191   5.375  15.147  14.829
73661W        W35192   3.455  40.017  14.758
73662W        W35193  29.069  44.313   4.190
73663W        W35194  22.180  14.314  11.539
73664W        W35195  43.486  17.600  14.299
73665W        W35196  23.101  24.508  10.960
73666W        W35197  18.181  44.285   2.352
73667W        W35198  43.415  16.253   0.953
73668W        W35199   4.250  38.903  10.971
73669W        W35200  35.557  24.100   3.306
73670W        W35201  40.334  39.347  13.838
73671W        W35202  18.752  44.273  11.525
73672W        W35203  38.025  40.535   4.663
73673W        W35204  28.100  40.882  12.983
73674W        W35205  19.730  39.897   4.602
73675W        W35206   3.347  21.056   1.826
73676W        W35207  13.259  10.773  12.033
73677W        W35208   8.387  17.778  12.369
73678W        W35209  36.863  32.996  10.522
73679W        W35210  32.109  33.073  13.986
73680W        W35211  22.642  13.723  11.860
73681W        W35212  13.781   1.329  14.781
73682W        W35213  37.499   0.268   0.870
73683W        W35214   0.476  12.759  12.093
73684W        W35215  23.996   9.682   0.771
73685W        W35216  27.624  12.639  10.602
73686W        W35217  42.983   6.689  12.097
73687W        W35218  28.517   3.283   1.696
73688W        W35219   5.785  28.665   4.795
73689W        W35220  23.205  15.182   1.241
73690W        W35221  11.822  32.044  11.519
73691W        W35222  18.673  27.625   4.642
73692W        W35223  20.141  20.764  11.975
73693W        W35224   0.250  42.464  11.045
73694W        W35225   7.784  40.330   1.407
73695W        W35226  26.195   9.206  10.476
73696W        W35227  21.118  33.065  12.396
73697W        W35228  30.958  21.109  14.981
73698W        W35229   4.739   1.839  10.145
73699W        W35230  26.061  25.196   0.926
73700W        W35231   6.773  39.451   1.841
73701W        W35232  44.931  34.070  10.408
73702W        W35233  23.671  25.010  14.785
73703W        W35234  19.716   4.778  11.525
73704W        W35235  15.098  39.886  13.941
73705W        W35236   4.360  22.115  13.387
73706W        W35237  40.547  32.065  14.462
73707W        W35238  39.337  29.996   3.152
73708W        W35239  12.286  33.567  12.373
73709W        W35240  24.663  28.932   2.847
73710W        W35241  37.068   7.858  11.434
73711W        W35242  12.637  35.517   3.279
73712W        W35243  10.720  31.624   2.802
73713W        W35244  20.637  16.576  12.363
73714W        W35245   5.740  26.147  11.487
73715W        W35246  33.952  34.606  13.360
73716W        W35247  12.158  22.641  12.087
73717W        W35248  15.700  10.679  11.965
73718W        W35249  23.548   9.753  14.297
73719W        W35250   1.877  16.075   0.961
73720W        W35251   0.884  30.658   0.810
73721W        W35252  35.513  19.262  12.538
73722W        W35253   2.244  24.589   3.166
73723W        W35254  32.928   3.273  14.988
73724W        W35255  37.468  12.150   3.731
73725W        W35256  14.828  17.741   3.777
73726W        W35257  33.884  17.699  13.873
73727W        W35258  25.651  17.761  11.408
73728W        W35259  37.051  16.207  12.499
73729W        W35260  38.992  31.967  11.426
73730W        W35261  11.800  43.883  13.876
73731W        W35262  40.912   2.890  12.340
73732W        W35263  36.879   7.190  12.884
73733W        W35264  42.471   1.336   3.753
73734W        W35265   7.788  36.417  11.880
73735W        W35266  10.197  16.300   4.273
73736W        W35267  44.477  22.010   2.342
73737W        W35268  13.148  11.308   3.330
73738W        W35269  39.366   3.399   2.662
73739W        W35270   1.366  44.818  10.899
73740W        W35271  31.553  31.112  12.508
73741W        W35272   0.903   1.256  12.910
73742W        W35273  35.884  26.588   3.851
73743W        W35274  42.524  44.947  10.923
73744W        W35275   3.359  39.037  12.003
73745W        W35276  40.042  35.060  13.451
73746W        W35277  28.083  10.245   2.684
73747W        W35278  14.717  41.337   1.935
73748W        W35279  42.028  35.035  13.345
73749W        W35280   8.660  21.537  11.077
73750W        W35281   7.375   6.776   1.704
73751W        W35282  44.846  29.596  11.082
73752W        W35283   4.926  29.652   2.325
73753W        W35284  26.974  44.999   4.209
73754W        W35285  44.793   7.356   1.225
73755W        W35286  24.644  33.405  12.995
73756W        W35287  24.553  39.525  12.564
73757W        W35288  10.825  12.714  13.383
73758W        W35289  38.527  30.455   1.433
73759W        W35290  32.981  30.099   3.827
73760W        W35291  17.142  12.234  12.876
73761W        W35292  44.870  34.887  10.526
73762W        W35293  25.506   4.222  14.404
73763W        W35294  31.518  31.519  12.512
73764W        W35295  21.066  14.317   1.310
73765W        W35296   3.329  15.251  11.448
73766W        W35297  13.780  43.449  12.443
73767W        W35298  19.737  30.045   1.752
73768W        W35299   4.753  28.441   4.720
73769W        W35300   9.820  39.842  11.050
73770W        W35301  10.248  27.020   2.240
73771W        W35302  25.017   4.893  12.079
73772W        W35303   3.806  21.530   4.805
73773W        W35304  12.823   6.913  14.966
73774W        W35305  25.009  30.640  12.055
73775W        W35306  11.169   6.699  10.942
73776W        W35307  39.024   8.285  11.939
73777W        W35308  29.500  38.377   0.363
73778W        W35309  35.466   8.885   3.783
73779W        W35310  20.727  35.483  11.538
73780W        W35311  33.565  37.000  12.541
73781W        W35312  31.532   4.217  10.621
73782W        W35313  23.536  12.765  11.080
73783W        W35314  44.271  15.600  13.859
73784W        W35315  28.131  36.984   1.736
73785W        W35316  32.905  21.640   4.326
73786W        W35317  41.531  35.996   2.848
73787W        W35318   5.322  28.184   1.840
73788W        W35319   1.344   5.842   3.371
73789W        W35320  43.840   4.711  12.439
73790W        W35321  14.258  43.507  13.457
73791W        W35322  19.556  23.611  11.955
73792W        W35323  29.972  28.130  12.014
73793W        W35324  40.376  19.157   2.815
73794W        W35325  13.111  21.045  11.971
73795W        W35326  43.007   7.383  12.404
73796W        W35327  41.344   3.892   0.318
73797W        W35328  29.936  14.326  10.972
73798W        W35329  23.608  36.882   2.208
73799W        W35330  38.326   1.909   0.771
73800W        W35331  34.574  15.110   0.345
73801W        W35332  20.261  32.926   0.280
73802W        W35333  17.165   4.741   2.415
73803W        W35334  43.914  41.394   1.865
73804W        W35335   5.410  43.354  14.505
73805W        W35336   6.327  11.826  13.822
73806W        W35337  28.437  40.486   0.785
73807W        W35338  32.974  40.512   4.614
73808W        W35339  39.927  18.294   4.317
73809W        W35340   6.921   1.742   3.785
73810W        W35341  33.902  13.722   1.230
73811W        W35342   8.780  38.472  10.966
73812W        W35343  39.036   8.818  11.126
73813W        W35344  37.423   3.453  12.014
73814W        W35345  15.729  16.599   3.804
73815W        W35346  39.023  12.304   4.157
73816W        W35347  24.103   7.683  10.642
73817W        W35348   8.244  43.810   4.198
73818W        W35349  44.402  21.174  11.388
73819W        W35350   8.696  11.862   2.877
73820W        W35351  32.928  36.438  13.412
73821W        W35352  39.383  27.143  10.592
73822W        W35353  41.472   5.769  11.077
73823W        W35354  25.207   7.844   3.261
73824W        W35355  12.797  21.534  11.941
73825W        W35356  33.390   3.316   0.280
73826W        W35357  44.415  31.530   3.854
73827W        W35358  15.132  28.072  11.074
73828W        W35359  16.728  40.397   3.223
73829W        W35360   2.863  23.199   2.281
73830W        W35361  36.013  43.777  13.449
73831W        W35362   1.272  43.497   4.265
73832W        W35363  30.434  19.238  11.104
73833W        W35364  18.238  37.530  11.554
73834W        W35365   7.853  20.140   2.234
73835W        W35366  40.893  29.440  14.430
73836W        W35367   0.376  25.138   3.169
73837W        W35368  12.196  13.835  12.530
73838W        W35369  37.935  16.734   1.267
73839W        W35370   9.342  41.294   1.756
73840W        W35371  38.014  42.444  13.856
73841W        W35372  29.968  13.842  11.499
73842W        W35373  43.794  15.788  11.904
73843W        W35374   5.731  17.747  13.798
73844W        W35375   7.912  38.983  10.547
73845W        W35376  10.677   1.427  12.988
73846W        W35377  38.953  34.606  10.912
73847W        W35378  29.506  30.990  14.344
73848W        W35379   4.259  15.688   2.377
73849W        W35380  40.519  19.042   0.420
73850W        W35381  38.431   8.217   1.313
73851W        W35382  25.610  38.556   0.883
73852W        W35383  29.447  16.597  14.470
73853W        W35384  29.921  17.635   1.696
73854W        W35385  11.781  23.226   0.876
73855W        W35386  41.890  13.623  12.438
73856W        W35387  17.711  44.924  12.434
73857W        W35388   8.725  37.527  11.975
73858W        W35389  26.468  36.433   0.478
73859W        W35390  35.449  10.720  14.511
73860W        W35391  29.027   1.911  11.892
73861W        W35392  35.420  28.931   2.247
73862W        W35393  34.471  31.489  13.923
73863W        W35394  11.177  24.527   3.865
73864W        W35395  14.615  30.994   2.238
73865W        W35396  22.227  30.144  12.087
73866W        W35397  38.327  15.138  14.435
73867W        W35398   7.806  25.060   0.728
73868W        W35399  42.282   8.241  14.478
73869W        W35400   5.319  38.005  14.370
73870W        W35401  24.530  17.157  11.008
73871W        W35402  11.630   7.173   3.870
73872W        W35403  34.867  27.556   4.741
73873W        W35404  40.351  37.841  13.877
73874W        W35405  33.621  25.122   1.732
73875W        W35406  44.916   2.227  14.005
73876W        W35407  20.100  36.580  13.900
73877W        W35408   1.342  33.116  12.443
73878W        W35409  27.576  24.063   4.180
73879W        W35410   3.291  33.936   4.167
73880W        W35411  26.994  14.737   1.717
73881W        W35412  18.662  42.883   3.310
73882W        W35413  38.888  14.180   4.749
73883W        W35414  16.175  15.695   2.692
73884W        W35415  13.845  26.662   1.321
73885W        W35416  29.038  22.535   0.455
73886W        W35417  13.770  41.467   1.389
73887W        W35418  13.791  29.601  13.518
73888W        W35419  17.161  39.397  11.547
73889W        W35420   6.881  18.092  13.945
73890W        W35421   4.783  14.308  13.805
73891W        W35422   7.854  27.952  11.971
73892W        W35423  30.149  15.204   1.331
73893W        W35424   9.197   5.210  14.943
73894W        W35425  25.043  44.951  11.052
73895W        W35426  19.641   6.348   1.751
73896W        W35427  16.104  11.646  11.389
73897W        W35428  24.651  24.188   3.153
73898W        W35429  40.401  39.558  10.615
73899W        W35430  20.523  11.721   3.239
73900W        W35431   3.455   0.760   4.183
73901W        W35432   9.316  21.250  10.541
73902W        W35433   4.388  12.330   4.262
73903W        W35434  16.726  37.446  13.798
73904W        W35435  43.334   3.731  11.496
73905W        W35436  26.534  34.580  14.016
73906W        W35437  15.807  27.996  11.066
73907W        W35438  41.419  25.147   0.444
73908W        W35439  41.960   2.239   2.245
73909W        W35440  40.358  13.190  12.833
73910W        W35441  40.041  28.020   2.855
73911W        W35442  33.420  20.117  14.795
73912W        W35443   4.806  44.450   4.710
73913W        W35444  37.387   8.839   4.600
73914W        W35445   8.263  31.464  12.875
73915W        W35446   1.882  30.531   4.140
73916W        W35447   1.367  31.605  12.401
73917W        W35448  16.171  14.784   1.848
73918W        W35449   9.852   2.947   4.786
73919W        W35450  25.104   5.704  12.959
73920W        W35451   1.368  13.137  11.857
73921W        W35452  12.686  40.505  11.044
73922W        W35453  11.317   1.782  13.404
73923W        W35454  39.916  37.579  10.911
73924W        W35455   7.747   8.867  11.065
73925W        W35456  42.526  25.016  14.408
73926W        W35457  39.422  22.627  12.540
73927W        W35458   2.406  25.671   2.856
73928W        W35459  32.458  41.892   1.717
73929W        W35460  25.668   2.735   3.361
73930W        W35461   7.227   2.919  12.854
73931W        W35462  39.507  23.592  11.888
73932W        W35463   2.759  44.918   0.757
73933W        W35464  13.607  24.499   0.461
73934W        W35465  40.800  18.269   3.335
73935W        W35466   1.806  17.116  12.834
73936W        W35467  16.194  37.982   1.334
73937W        W35468  39.360  29.992   3.784
73938W        W35469  16.573  42.850   4.136
73939W        W35470  19.252  24.650   1.821
73940W        W35471  13.172  37.013  11.470
73941W        W35472  41.892  19.181   3.356
73942W        W35473  30.165  11.729   0.454
73943W        W35474   2.870  21.239  10.428
73944W        W35475  41.383   3.897  14.959
73945W        W35476  10.364  13.713  14.495
73946W        W35477  13.243  36.040   2.746
73947W        W35478  21.169   4.720  14.978
73948W        W35479  23.523  38.047  11.124
73949W        W35480  10.378   0.273  13.392
73950W        W35481  21.713  43.389   2.337
73951W        W35482  33.416  36.038  11.960
73952W        W35483  11.194  29.453   4.206
73953W        W35484  43.823  44.760  11.511
73954W        W35485  40.549  23.713  12.015
73955W        W35486   2.809  30.615  12.065
73956W        W35487  39.328  12.342   3.737
73957W        W35488  39.899  11.299  12.394
73958W        W35489  23.169   8.237  13.841
73959W        W35490   2.883   6.712   1.214
73960W        W35491  21.203  44.433  14.485
73961W        W35492  44.365   7.247  12.439
73962W        W35493   0.963  22.183   0.306
73963W        W35494   7.178  24.613   4.780
73964W        W35495  23.107  40.053  11.409
73965W        W35496  11.281  33.446   1.916
73966W        W35497  38.394  41.299   0.930
73967W        W35498   2.442  16.708  13.331
73968W        W35499  17.778  29.529  13.377
73969W        W35500  25.121  17.146  11.574
73970W        W35501  37.994  24.621  11.014
73971W        W35502   6.363  25.037  13.035
73972W        W35503  44.452   0.394   2.802
73973W        W35504  12.256   4.278   1.765
73974W        W35505  25.530  13.193  10.987
73975W        W35506  43.796  16.237   2.849
73976W        W35507  35.426  12.747  11.398
73977W        W35508  19.137  29.058   4.703
73978W        W35509   0.334  11.263   0.399
73979W        W35510  21.128   0.779  11.991
73980W        W35511   3.402   4.860  11.499
73981W        W35512  38.398  39.917  11.046
73982W        W35513  11.344  39.062  13.847
73983W        W35514   3.366   5.230   2.279
73984W        W35515  39.417   9.774  14.501
73985W        W35516  10.336  33.605   3.692
73986W        W35517  33.498  26.587   5.196
73987W        W35518  34.604  11.178   1.694
73988W        W35519  33.408  17.109  12.558
73989W        W35520  42.478  19.608   0.968
73990W        W35521  33.523  40.828  12.885
73991W        W35522  21.734  35.441   1.878
73992W        W35523  29.025  34.552   3.355
73993W        W35524  41.400  15.687   1.775
73994W        W35525  20.039   7.345   3.279
73995W        W35526  38.393  41.468   4.706
73996W        W35527  20.725  40.332  14.791
73997W        W35528  37.961   1.739   1.411
73998W        W35529   9.301  23.019   1.236
73999W        W35530   1.278  17.559  14.930
74000W        W35531  37.022  34.065   0.266
74001W        W35532  33.409  11.760  13.810
74002W        W35533  32.960  21.046   1.234
74003W        W35534  30.997  16.590  11.089
74004W        W35535   4.256  31.597   0.957
74005W        W35536  24.576  37.844   0.781
74006W        W35537  20.136   4.369   4.122
74007W        W35538  19.556   9.647  13.462
74008W        W35539  28.493  24.570  11.104
74009W        W35540  13.748   9.295   0.870
74010W        W35541  27.577   2.267   3.853
74011W        W35542  43.389  32.920   0.784
74012W        W35543  23.593   7.295  10.983
74013W        W35544  32.102   9.888   1.897
74014W        W35545  11.737  16.073  11.427
74015W        W35546   1.895  23.722   1.726
74016W        W35547  44.489  28.939  10.153
74017W        W35548  28.669  43.280   1.303
74018W        W35549  21.080  16.630   3.721
74019W        W35550  37.888  19.099   3.848
74020W        W35551  26.996  41.013  14.766
74021W        W35552  38.901  43.318   4.274
74022W        W35553  15.188   5.250   0.744
74023W        W35554  12.132  28.060   1.777
74024W        W35555  41.319  17.714   4.686
74025W        W35556  22.073   2.944  11.511
74026W        W35557  25.010   9.747   1.402
74027W        W35558  31.928   1.446   2.373
74028W        W35559  18.746   4.898  13.958
74029W        W35560  36.399  12.836  10.987
74030W        W35561  25.602  20.734   2.876
74031W        W35562  37.559   3.932  14.827
74032W        W35563  42.932  22.690   1.744
74033W        W35564   2.461  26.671  11.946
74034W        W35565  14.209  44.782   2.786
74035W        W35566  26.174   1.737   0.783
74036W        W35567   2.949  16.749   2.846
74037W        W35568   5.819  31.066   4.639
74038W        W35569  12.116  28.105  10.576
74039W        W35570  36.496  13.260  10.927
74040W        W35571   3.435   7.770  11.454
74041W        W35572  42.311  43.307   1.420
74042W        W35573   5.212  30.527  14.867
74043W        W35574   3.421  38.922   3.733
74044W        W35575   6.397  16.773  10.135
74045W        W35576   8.192  40.525  13.823
74046W        W35577  25.975  28.653   0.358
74047W        W35578   2.841   0.287  10.618
74048W        W35579   2.944  13.822  12.836
74049W        W35580  31.420  43.902   3.868
74050W        W35581  36.078  36.496  14.903
74051W        W35582   9.189  11.364   1.883
74052W        W35583  20.223  16.275  10.475
74053W        W35584   8.355  26.032  13.342
74054W        W35585  25.088   2.760   4.633
74055W        W35586  41.299   2.844  14.514
74056W        W35587  41.837  22.245   3.824
74057W        W35588   2.861   3.295   4.260
74058W        W35589  36.089  36.042  12.040
74059W        W35590  38.839   0.865   3.243
74060W        W35591  20.535  12.799   1.249
74061W        W35592  11.685   8.890  10.052
74062W        W35593  23.994   5.770  11.015
74063W        W35594  20.737  24.000   3.697
74064W        W35595  22.627  20.029   0.250
74065W        W35596  36.930  27.633  10.941
74066W        W35597  11.860   4.217   3.714
74067W        W35598  40.844   2.726  11.552
74068W        W35599  28.473  10.664   4.625
74069W        W35600  22.201   3.426   4.663
74070W        W35601  14.153  37.066   0.838
74071W        W35602   8.312  23.191   0.359
74072W        W35603  32.924   5.380  10.583
74073W        W35604  25.087  12.707   0.737
74074W        W35605  23.030  20.636   1.791
74075W        W35606   1.764  11.662  11.431
74076W        W35607  27.124   8.248   0.378
74077W        W35608   4.348  42.454  12.915
74078W        W35609   9.237  33.428  13.453
74079W        W35610  33.392  17.142   5.742
74080W        W35611  10.273  31.020  10.945
74081W        W35612  39.057   9.659   1.376
74082W        W35613  23.075  30.974   0.886
74083W        W35614  41.042  24.122  13.860
74084W        W35615  12.698   6.342  14.465
74085W        W35616  34.576  14.784   3.284
74086W        W35617  17.087   6.910  12.386
74087W        W35618  28.169   7.346   2.886
74088W        W35619   9.194  14.332   1.709
74089W        W35620  36.438  19.283   0.347
74090W        W35621  14.734  16.083  11.952
74091W        W35622  32.023  39.554   4.181
74092W        W35623  30.480  40.325   4.227
74093W        W35624  34.027  29.001   3.685
74094W        W35625  37.037  19.203   0.736
74095W        W35626  38.396   3.853   4.834
74096W        W35627   9.740  13.741  13.375
74097W        W35628   5.760  16.701   1.752
74098W        W35629   4.274  11.199  12.436
74099W        W35630  25.074  32.560  13.347
74100W        W35631   4.722  18.567   1.799
74101W        W35632  11.302   0.377   3.217
74102W        W35633  17.196  41.450   4.350
74103W        W35634  12.272   3.842  11.576
74104W        W35635  43.852  21.097  13.059
74105W        W35636  39.382  38.517  13.467
74106W        W35637  32.951   0.301  13.357
74107W        W35638  18.726   8.889   9.927
74108W        W35639  14.130  40.454  13.499
74109W        W35640  44.887  24.572  10.561
74110W        W35641  34.954   1.376  10.940
74111W        W35642  15.224  25.204   0.850
74112W        W35643  21.155  30.480   4.680
74113W        W35644  21.606   1.900  13.063
74114W        W35645  27.105   4.219   2.696
74115W        W35646  13.307  27.498  14.408
74116W        W35647  27.586  24.536  11.001
74117W        W35648  13.127  24.188  11.487
74118W        W35649  42.325  16.233   1.245
74119W        W35650  31.125  12.117  14.432
74120W        W35651  32.025  13.814   4.275
74121W        W35652  36.987  42.382   3.782
74122W        W35653   3.736  16.112   1.377
74123W        W35654  38.874  30.161  10.994
74124W        W35655   6.348   7.186   1.755
74125W        W35656   5.356   2.801   4.141
74126W        W35657  31.483   2.452  13.024
74127W        W35658  39.504  10.709   2.770
74128W        W35659  23.532  21.732  11.531
74129W        W35660  41.828  19.675   0.950
74130W        W35661   8.856  19.257  14.025
74131W        W35662  31.559  20.582   3.735
74132W        W35663   1.450  17.738   1.795
74133W        W35664  20.643   2.266   0.338
74134W        W35665  21.584  39.923  14.835
74135W        W35666   9.330   0.405   0.260
74136W        W35667  23.028  26.490   3.161
74137W        W35668  40.410  23.577   4.306
74138W        W35669  36.513  21.178   1.412
74139W        W35670  30.474   2.426   2.293
74140W        W35671  44.781  14.184   4.605
74141W        W35672  19.108  13.274  13.060
74142W        W35673  23.612  11.832   4.289
74143W        W35674  36.522  30.638  14.028
74144W        W35675  12.309   3.360   3.776
74145W        W35676  33.081  42.904  12.557
74146W        W35677  38.854   2.331  12.573
74147W        W35678  18.558  35.530  12.880
74148W        W35679  22.199  30.608   0.833
74149W        W35680  17.194  37.483   1.247
74150W        W35681  24.713   7.291  12.977
74151W        W35682   3.367  42.993   3.665
74152W        W35683  44.364  26.147   2.787
74153W        W35684  25.539  13.263   4.597
74154W        W35685  30.098  27.679  11.985
74155W        W35686  15.257   7.220   1.260
74156W        W35687  25.140   1.887   4.183
74157W        W35688  10.163  23.160   2.800
74158W        W35689  22.163  10.744   1.318
74159W        W35690  32.537   3.443   1.353
74160W        W35691  10.641  36.896   3.156
74161W        W35692   8.656  34.472  13.523
74162W        W35693  13.204  31.422   1.761
74163W        W35694  17.276  38.543   0.964
74164W        W35695  12.246   2.379  12.076
74165W        W35696  13.164  29.960   4.343
74166W        W35697  23.042  19.596   4.148
74167W        W35698  24.997  21.017   2.820
74168W        W35699  33.127   1.944   3.181
74169W        W35700   2.417  14.224   3.266
74170W        W35701  17.701   6.274   4.748
74171W        W35702  29.087   8.347  10.586
74172W        W35703  14.822  32.532  13.947
74173W        W35704  26.660   7.338   2.190
74174W        W35705  34.380  25.078   4.719
74175W        W35706   0.347  24.646   4.802
74176W        W35707  24.228  33.027   4.164
74177W        W35708   0.326  24.213   5.212
74178W        W35709  14.596  28.642  13.309
74179W        W35710  38.990  12.144  14.917
74180W        W35711   6.801  22.740   4.136
74181W        W35712  33.467  31.124   2.861
74182W        W35713  30.143   7.747  12.994
74183W        W35714  40.929  24.646   2.767
74184W        W35715  37.366  11.268   3.685
74185W        W35716  44.505  44.889   4.234
74186W        W35717   4.866   4.836  10.540
74187W        W35718   8.821  14.806  12.056
74188W        W35719  37.370   5.433  14.029
74189W        W35720  41.035  22.112  10.456
74190W        W35721  16.699  32.078  12.017
74191W        W35722  39.398  18.135   3.212
74192W        W35723  35.441   3.788   4.680
74193W        W35724  41.352  12.614  14.293
74194W        W35725  43.875   2.872  12.455
74195W        W35726  24.566   3.793  12.398
74196W        W35727  44.844  40.355   1.821
74197W        W35728  19.660   5.291   3.175
74198W        W35729  19.653   4.870   4.694
74199W        W35730   9.264  33.919  11.532
74200W        W35731  17.654  12.297  14.851
74201W        W35732   6.235  24.995  13.347
74202W        W35733   0.485  10.330  10.626
74203W        W35734  13.799  23.140  13.833
74204W        W35735  14.649  28.537  14.455
74205W        W35736   3.336   0.901   3.809
74206W        W35737  43.007  22.105  11.943
74207W        W35738  23.159   7.336   2.722
74208W        W35739   9.364  32.887  12.947
74209W        W35740  39.490  34.546   3.189
74210W        W35741   9.244   0.393   2.403
74211W        W35742  43.837   1.902   1.449
74212W        W35743  19.123  33.476   3.656
74213W        W35744  14.180  28.576   2.281
74214W        W35745  21.099  22.035   3.641
74215W        W35746  10.694  17.188  11.062
74216W        W35747  31.483  15.242   1.762
74217W        W35748  32.903  40.028   4.755
74218W        W35749  44.797  37.354  14.807
74219W        W35750  24.004  32.058  11.004
74220W        W35751  20.594  11.273  14.006
74221W        W35752  43.366  33.019   3.697
74222W        W35753  40.911   5.886  13.039
74223W        W35754  35.911  37.983   0.480
74224W        W35755  36.561  26.547   2.312
74225W        W35756  13.196   2.277  14.011
74226W        W35757  20.170  40.465   4.685
74227W        W35758  40.951  43.782  10.437
74228W        W35759  33.996  22.007  13.957
74229W        W35760   8.684  27.162   1.303
74230W        W35761  16.789  12.686   2.374
74231W        W35762  36.416   1.872  14.942
74232W        W35763  23.541   9.186   2.335
74233W        W35764  23.619  39.511   9.456
74234W        W35765  11.369   6.752   3.649
74235W        W35766   4.807  15.164  13.323
74236W        W35767  42.877   7.795  10.911
74237W        W35768  10.208  21.067  13.513
74238W        W35769   4.838   1.800  12.551
74239W        W35770  41.460  16.174  14.426
74240W        W35771   1.851  44.422   0.882
74241W        W35772   8.752  24.165  11.458
74242W        W35773   3.858   5.308   2.717
74243W        W35774  29.123  42.001  13.347
74244W        W35775  36.987  39.063   2.275
74245W        W35776  41.395   7.763  11.536
74246W        W35777  19.727  27.126   0.809
74247W        W35778   9.267   8.885   2.193
74248W        W35779  19.194  11.666  13.315
74249W        W35780  34.075  12.715   4.338
74250W        W35781   9.811  27.589   2.241
74251W        W35782  32.635  36.533   3.276
74252W        W35783  33.383   2.753  13.985
74253W        W35784  37.849  28.622   2.809
74254W        W35785  33.041  44.837   0.285
74255W        W35786  39.330  26.995   1.859
74256W        W35787   5.797  32.479  12.077
74257W        W35788  32.922  20.269  13.542
74258W        W35789  43.441  22.624  13.994
74259W        W35790  36.987  22.114   2.689
74260W        W35791  26.985  31.132   1.278
74261W        W35792  24.599  30.572   4.310
74262W        W35793  24.163  24.711  12.417
74263W        W35794   8.301  15.619  11.400
74264W        W35795  11.341   3.951   4.606
74265W        W35796  26.597  43.283  13.832
74266W        W35797  34.983  21.245   4.185
74267W        W35798  35.584  44.808  13.338
74268W        W35799   8.271   4.289   3.754
74269W        W35800  39.341  28.152   3.660
74270W        W35801  34.378  30.939   1.770
74271W        W35802  38.007  43.356   0.474
74272W        W35803  40.528   9.876   0.912
74273W        W35804  44.947   8.187  11.578
74274W        W35805   1.277   2.259  11.864
74275W        W35806  34.090  26.133  11.453
74276W        W35807  31.621  25.659   2.736
74277W        W35808  10.204  29.454   1.799
74278W        W35809  12.617  38.381   2.320
74279W        W35810  23.223  44.288  10.405
74280W        W35811   5.814   6.355  12.524
74281W        W35812  40.984  12.651  13.373
74282W        W35813  19.099  37.081  14.504
74283W        W35814  23.609  10.231   0.328
74284W        W35815  43.943   7.228  10.508
74285W        W35816  19.667  15.096   3.293
74286W        W35817  15.092  24.589  13.448
74287W        W35818  29.632  18.752   1.425
74288W        W35819  22.210  33.419   1.695
74289W        W35820  14.788  10.853   2.759
74290W        W35821  42.506  23.008   3.307
74291W        W35822   7.686  19.613   4.317
74292W        W35823  41.858  11.706  14.029
74293W        W35824  34.044  43.396  10.600
74294W        W35825  18.099  34.433   2.298
74295W        W35826   8.724   8.789  10.903
74296W        W35827  23.490  21.672  12.023
74297W        W35828  37.025  39.363   3.179
74298W        W35829  38.522  18.563   3.380
74299W        W35830  28.475  16.130  14.297
74300W        W35831  21.590   8.696  12.998
74301W        W35832  38.821   1.780  14.907
74302W        W35833  33.884  28.098   0.262
74303W        W35834  26.977  33.042  13.886
74304W        W35835   3.406  42.313   0.353
74305W        W35836  43.480  22.507   0.775
74306W        W35837  36.593  21.238   3.801
74307W        W35838  16.764  36.856   4.169
74308W        W35839   6.268  23.079  12.383
74309W        W35840  38.501  13.640   2.674
74310W        W35841  22.030   5.907  10.941
74311W        W35842  34.436  14.288   2.237
74312W        W35843   1.912   7.805  10.472
74313W        W35844  11.162  24.607  11.428
74314W        W35845  44.402  41.898  10.604
74315W        W35846   1.862  16.290   2.786
74316W        W35847  31.046  12.355  11.926
74317W        W35848  32.557  21.744   0.799
74318W        W35849  20.127  15.617  11.529
74319W        W35850  18.158  24.649   1.778
74320W        W35851   5.232   2.962   2.876
74321W        W35852  16.285   2.423   2.406
74322W        W35853  34.594  31.564  10.532
74323W        W35854  14.820   8.379   4.710
74324W        W35855  36.352  24.659   0.377
74325W        W35856   8.228   8.348   1.835
74326W        W35857   2.826   9.351   1.815
74327W        W35858  18.237  24.497  14.363
74328W        W35859  27.120   8.255  10.473
74329W        W35860  44.276  40.887   0.447
74330W        W35861  31.600   3.868  11.604
74331W        W35862   1.350  30.937   2.744
74332W        W35863  19.570  29.006   2.349
74333W        W35864  44.986  24.138  13.810
74334W        W35865  11.655   1.483  12.044
74335W        W35866  14.205  21.742   2.337
74336W        W35867  22.014  29.050   1.733
74337W        W35868   0.855  26.589   0.326
74338W        W35869  32.432  35.943  14.358
74339W        W35870  24.658  10.646  14.459
74340W        W35871  21.074  32.513   9.982
74341W        W35872   9.241   7.195   1.424
74342W        W35873  44.273  18.229   4.654
74343W        W35874  14.159  22.513   2.305
74344W        W35875  21.711  37.391  10.907
74345W        W35876  35.055   5.335  11.480
74346W        W35877   0.955   9.668   0.864
74347W        W35878  43.907  43.806   3.766
74348W        W35879  32.958  13.260   3.756
74349W        W35880   3.402   9.155   5.175
74350W        W35881   2.468  43.494  11.473
74351W        W35882   3.812  31.940   3.278
74352W        W35883   3.793  18.570  13.975
74353W        W35884  20.599  38.018   0.415
74354W        W35885  40.352   4.740  14.879
74355W        W35886   4.232  24.546  12.914
74356W        W35887  25.126  43.379   4.741
74357W        W35888  43.361   1.307   3.838
74358W        W35889   7.706  20.164  12.977
74359W        W35890  33.412   8.238   2.836
74360W        W35891  11.353  10.244   2.318
74361W        W35892  11.202  21.513  11.962
74362W        W35893  37.869   9.740  14.411
74363W        W35894   9.355   5.890  13.320
74364W        W35895  28.558  44.917  14.333
74365W        W35896  43.781  35.598   3.309
74366W        W35897  26.098  10.225   2.317
74367W        W35898  29.553  12.193  11.082
74368W        W35899  32.938  31.967   2.702
74369W        W35900  26.099   6.369   1.380
74370W        W35901   0.895  17.261   0.877
74371W        W35902  33.931  39.871   3.642
74372W        W35903  20.568  43.011  12.085
74373W        W35904  25.062  38.860   4.768
74374W        W35905  17.265  15.311  12.916
74375W        W35906  40.478  44.983  13.417
74376W        W35907  20.106  39.455  12.885
74377W        W35908  18.233   6.825  13.842
74378W        W35909  41.033  25.217  12.453
74379W        W35910  17.751  11.283   3.213
74380W        W35911   1.837  19.230   0.348
74381W        W35912  44.895  37.365  14.028
74382W        W35913  14.318   0.814  12.557
74383W        W35914  36.963  36.932   4.652
74384W        W35915  14.650  36.076  12.035
74385W        W35916  22.011  22.172  11.879
74386W        W35917  19.652  15.640  10.525
74387W        W35918  26.203   4.343   3.146
74388W        W35919  10.708  18.620   2.785
74389W        W35920  35.401  37.011   1.814
74390W        W35921  32.141  21.660  11.940
74391W        W35922  18.106   4.254  11.988
74392W        W35923   0.890  36.544   0.856
74393W        W35924  39.918   6.835  12.040
74394W        W35925   8.348  23.616   2.289
74395W        W35926  43.916  33.582  10.586
74396W        W35927  40.543  34.452  12.078
74397W        W35928  27.052  12.677   1.838
74398W        W35929  30.952  27.617   1.341
74399W        W35930  13.673  12.121   2.401
74400W        W35931  31.481  26.006   1.339
74401W        W35932  32.633  32.929   1.288
74402W        W35933   7.670   7.317   1.708
74403W        W35934   3.316  36.491   1.734
74404W        W35935  37.430   4.406   0.760
74405W        W35936  25.476  24.143  13.450
74406W        W35937  43.421  14.702   0.834
74407W        W35938   7.776  22.711   5.222
74408W        W35939  37.469  27.067  13.997
74409W        W35940  14.332  18.748  11.421
74410W        W35941  38.437  22.210  11.474
74411W        W35942  14.794  28.954  12.096
74412W        W35943   5.215  34.448   5.088
74413W        W35944  21.246  22.725  13.412
74414W        W35945  31.537  30.116   4.315
74415W        W35946  30.645  42.902   3.233
74416W        W35947  12.287  42.475   1.234
74417W        W35948  31.569  23.681   2.308
74418W        W35949  19.282  19.618  12.078
74419W        W35950   6.923   6.326  12.352
74420W        W35951  42.872   4.212  10.418
74421W        W35952  19.281  15.809   4.312
74422W        W35953  20.678  42.320  12.512
74423W        W35954  12.349  20.098   2.742
74424W        W35955  10.371  43.018   0.453
74425W        W35956  15.681  42.405  14.487
74426W        W35957  12.150  13.304   1.724
74427W        W35958  10.200   4.728  13.898
74428W        W35959   5.414   5.205   4.810
74429W        W35960  38.351  31.595   2.327
74430W        W35961   9.765  36.532   2.673
74431W        W35962  26.648  32.621   2.854
74432W        W35963  24.538  24.207  11.539
74433W        W35964  26.088  25.665  14.989
74434W        W35965  17.299  12.190  14.864
74435W        W35966  19.108  28.611  11.593
74436W        W35967   6.332  26.137   4.350
74437W        W35968  31.048  17.088  14.361
74438W        W35969  42.383   0.385  12.467
74439W        W35970  35.049  39.814   3.262
74440W        W35971  38.419  34.421  13.407
74441W        W35972  17.798   2.727  14.322
74442W        W35973  29.072   1.772  12.879
74443W        W35974  41.403  36.968  10.536
74444W        W35975   6.864  14.232  14.992
74445W        W35976  27.105  10.641   2.891
74446W        W35977  41.948   0.370   2.211
74447W        W35978   7.251  17.254   0.856
74448W        W35979  28.181  17.776  12.954
74449W        W35980  25.152  43.349   0.886
74450W        W35981  15.270   4.263   2.852
74451W        W35982  10.189  11.142   1.263
74452W        W35983   7.341  25.098  12.031
74453W        W35984  20.105   4.226  11.518
74454W        W35985   7.239  40.948   0.839
74455W        W35986   6.400  32.409   3.200
74456W        W35987  36.847  26.562   3.707
74457W        W35988   7.674   4.832   4.760
74458W        W35989   8.163  29.665  10.459
74459W        W35990  44.484  41.821  14.446
74460W        W35991  37.493  24.580   3.229
74461W        W35992  20.234  42.008  12.370
74462W        W35993  12.663  28.568  11.906
74463W        W35994  21.122  21.740   0.397
74464W        W35995  20.127  14.831   4.219
74465W        W35996  15.312  32.084  11.075
74466W        W35997  41.951   4.876  12.351
74467W        W35998  20.208  42.415   3.824
74468W        W35999  43.947  27.194  10.482
74469W        W36000   6.326  36.397   1.899
74470W        W36001  20.683   1.416  11.956
74471W        W36002  36.447  12.183   3.698
74472W        W36003  12.632  18.121  12.416
74473W        W36004   8.220  28.521   1.811
74474W        W36005  41.795  44.268  10.917
74475W        W36006  23.072  27.980  10.564
74476W        W36007  19.160  32.007  10.935
74477W        W36008   8.325  40.316   4.325
74478W        W36009  36.492  41.933   0.837
74479W        W36010  29.040   3.255  10.546
74480W        W36011  34.382  40.032  12.387
74481W        W36012  33.623  20.696  11.933
74482W        W36013  43.334  18.174   2.401
74483W        W36014  36.505   9.700   1.286
74484W        W36015  26.656  19.121  12.027
74485W        W36016   1.288  23.665   1.758
74486W        W36017   3.941  14.162   3.770
74487W        W36018  29.592  38.492  14.507
74488W        W36019  34.569  13.222   3.831
74489W        W36020  12.187  39.514   3.802
74490W        W36021  23.610  36.470   1.289
74491W        W36022  35.412  16.081   9.438
74492W        W36023  31.533  20.225  11.577
74493W        W36024   3.269  17.642   0.278
74494W        W36025  23.636  43.274  14.979
74495W        W36026  20.098  16.778   0.913
74496W        W36027  41.534  44.784   1.393
74497W        W36028  11.797  43.505   0.930
74498W        W36029  33.532  19.739   1.820
74499W        W36030  41.981  29.516   2.230
74500W        W36031  36.510  15.260   4.726
74501W        W36032   3.333  21.044   0.322
74502W        W36033   1.941  26.123  14.937
74503W        W36034   0.431  18.639  10.583
74504W        W36035   8.178  25.496  14.993
74505W        W36036  35.025  26.975   0.266
74506W        W36037  14.606  21.603   3.170
74507W        W36038  33.452  10.185   0.374
74508W        W36039  21.029   5.849   4.328
74509W        W36040  41.982   8.209   1.705
74510W        W36041  37.015   5.763   3.680
74511W        W36042  16.770  23.226   0.862
74512W        W36043   8.403  14.158   0.905
74513W        W36044  31.641  23.089   1.376
74514W        W36045  23.506  38.490   4.175
74515W        W36046  41.953  25.655   4.703
74516W        W36047  36.080  14.107   2.317
74517W        W36048  36.022  42.478   2.193
74518W        W36049  35.478  42.845  10.540
74519W        W36050  32.980  24.522   1.293
74520W        W36051  31.936  33.960  13.447
74521W        W36052   0.767  38.540  14.426
74522W        W36053  21.259  15.312  10.950
74523W        W36054  10.154  24.098   3.845
74524W        W36055  31.445  22.635   4.804
74525W        W36056  20.533  40.393  14.321
74526W        W36057  41.027  43.853   3.710
74527W        W36058  21.547  12.825  10.593
74528W        W36059  10.855  24.664  12.009
74529W        W36060  19.144  24.708   0.343
74530W        W36061  36.434  19.164   1.903
74531W        W36062  42.407  21.558  12.355
74532W        W36063   5.201  42.797  12.907
74533W        W36064   4.881   1.944   1.833
74534W        W36065  32.040  15.617   1.260
74535W        W36066  16.229  40.960  14.938
74536W        W36067  31.463  14.750   2.737
74537W        W36068  42.010  14.156   3.777
74538W        W36069   6.816  32.551   4.728
74539W        W36070  29.520  36.493   3.365
74540W        W36071  16.181  36.006   1.301
74541W        W36072  10.219  31.054   2.344
74542W        W36073  10.327   0.394   2.742
74543W        W36074  42.021  26.525  14.981
74544W        W36075  16.232  15.656  14.811
74545W        W36076  34.879  36.976  10.915
74546W        W36077  32.897   2.293   4.628
74547W        W36078   4.727  29.590   0.849
74548W        W36079  35.396  44.801   4.354
74549W        W36080   1.461  38.062   1.792
74550W        W36081   1.323  42.471   0.817
74551W        W36082  10.292  24.616   4.198
74552W        W36083  21.261  26.127   0.798
74553W        W36084  21.246  33.881  11.400
74554W        W36085   5.713  42.946   4.149
74555W        W36086   4.208  29.630  13.876
74556W        W36087  43.860  15.690   1.796
74557W        W36088  18.670  19.541   3.703
74558W        W36089   5.340  35.420   3.171
74559W        W36090  37.943  41.988   1.813
74560W        W36091  34.521  12.285  14.836
74561W        W36092  13.169  39.443  12.401
74562W        W36093  19.639   6.676  11.995
74563W        W36094  44.860  36.994   1.802
74564W        W36095  23.576  20.560  10.947
74565W        W36096  32.929  31.608  13.810
74566W        W36097  17.115  26.586  12.964
74567W        W36098  39.509  32.050   3.689
74568W        W36099  11.274  26.026  14.298
74569W        W36100  28.564  43.983  11.963
74570W        W36101   8.238  20.214   2.901
74571W        W36102  25.560   2.726  14.324
74572W        W36103  29.076  17.656   0.340
74573W        W36104  40.970  39.824   0.267
74574W        W36105  29.041  40.507  12.922
74575W        W36106  13.306  11.743  10.510
74576W        W36107  15.239  30.450   3.759
74577W        W36108   2.287  13.316   2.316
74578W        W36109  25.127  35.581   4.194
74579W        W36110   3.291   3.344  14.793
74580W        W36111  26.557  33.578  13.465
74581W        W36112  24.665   4.300  11.592
74582W        W36113  37.359  23.731   1.726
74583W        W36114  32.552  32.629  14.940
74584W        W36115  26.977  27.563  11.950
74585W        W36116   3.373  22.675   2.308
74586W        W36117  16.200  39.943   0.396
74587W        W36118  36.851  32.899   0.791
74588W        W36119  36.864  41.482   2.315
74589W        W36120  11.844  16.306   2.858
74590W        W36121   0.386  26.140   3.287
74591W        W36122  22.017  27.675   4.229
74592W        W36123  17.769  26.634   0.811
74593W        W36124  27.465  22.638   3.846
74594W        W36125   0.861   5.195  13.913
74595W        W36126   6.870  30.099  12.533
74596W        W36127  20.262   5.426  11.452
74597W        W36128  18.749  35.102   3.652
74598W        W36129  30.613  12.770  10.455
74599W        W36130   3.783   2.406   2.810
74600W        W36131  18.292  39.496  10.949
74601W        W36132  13.291  43.833  13.911
74602W        W36133  19.759  15.251  14.955
74603W        W36134  11.673  24.010  12.531
74604W        W36135  38.554   0.761   3.757
74605W        W36136  27.157  24.985  10.453
74606W        W36137  33.956  24.004   3.342
74607W        W36138  14.606  16.808  13.319
74608W        W36139  13.196  30.106   2.211
74609W        W36140  23.012   3.768  13.354
74610W        W36141  25.595  10.370  14.384
74611W        W36142  16.156  20.674  11.074
74612W        W36143  35.066   1.334  13.825
74613W        W36144  37.459   3.744  10.891
74614W        W36145  25.579  37.438  14.834
74615W        W36146  35.498  31.912  12.016
74616W        W36147  15.719  29.094   4.650
74617W        W36148  35.926  35.435  11.503
74618W        W36149   9.791   7.380   1.896
74619W        W36150  23.056  38.010   0.349
74620W        W36151  32.038  40.843  12.932
74621W        W36152  32.448  17.701  12.083
74622W        W36153  25.541  21.681  14.865
74623W        W36154  36.966  19.277  10.621
74624W        W36155  30.546  14.697  10.155
74625W        W36156  21.575  42.344   0.308
74626W        W36157  19.190   8.842   0.421
74627W        W36158  20.155  20.164   2.307
74628W        W36159  42.419   6.813   4.274
74629W        W36160  36.026  11.172   3.284
74630W        W36161  10.716   3.871   3.703
74631W        W36162  35.101  34.090  11.087
74632W        W36163   7.365  22.583  14.416
74633W        W36164  42.026  19.779  12.346
74634W        W36165  32.083   6.365  13.977
74635W        W36166   6.387  14.146  10.036
74636W        W36167  26.609  29.519  11.010
74637W        W36168  39.530  22.150  13.819
74638W        W36169  19.052  13.255  10.552
74639W        W36170  21.581  44.976  10.927
74640W        W36171  40.853  11.807  11.003
74641W        W36172  44.380  40.969   2.330
74642W        W36173  40.513   8.263   4.835
74643W        W36174   1.356  27.660   2.667
74644W        W36175  24.992  20.154  11.447
74645W        W36176  29.633  18.555  11.962
74646W        W36177   2.363   7.724  11.929
74647W        W36178  18.656  22.526   1.819
74648W        W36179  27.452  30.497   3.734
74649W        W36180  37.498  15.594   3.330
74650W        W36181  38.569  44.899   2.864
74651W        W36182  37.070  29.082  12.534
74652W        W36183   7.373   5.750  14.862
74653W        W36184  10.159  27.585  14.361
74654W        W36185  21.758  18.588  13.852
74655W        W36186  41.789   0.841   1.236
74656W        W36187  43.825  29.483  10.554
74657W        W36188  42.324   4.857  10.594
74658W        W36189  31.408  23.707   4.630
74659W        W36190  18.596  38.520  14.848
74660W        W36191  23.557  34.878  12.860
74661W        W36192  18.584   4.249  10.470
74662W        W36193  16.668  13.772   4.819
74663W        W36194   9.670  29.976  14.962
74664W        W36195  35.087   5.384   1.391
74665W        W36196   0.369  28.165  12.093
74666W        W36197  31.434  40.528   3.850
74667W        W36198  43.953  39.494  11.012
74668W        W36199   6.259  10.325   0.279
74669W        W36200  16.265  23.526  11.599
74670W        W36201  41.424  32.980   3.754
74671W        W36202   3.869  20.553  14.380
74672W        W36203  19.612  22.071   0.769
74673W        W36204  20.624  43.303   4.597
74674W        W36205  31.968  41.799   1.922
74675W        W36206  34.956  39.050  11.995
74676W        W36207  41.370  24.160   1.304
74677W        W36208  30.513  28.039  11.044
74678W        W36209  29.517  37.580  12.060
74679W        W36210  38.899  43.410  14.437
74680W        W36211  12.832  31.044  13.824
74681W        W36212  17.184  41.425   1.268
74682W        W36213  23.111  21.135  14.308
74683W        W36214  16.595  37.483  14.902
74684W        W36215  36.879  33.466  13.828
74685W        W36216  41.875  35.050  14.902
74686W        W36217  34.048  26.105   3.164
74687W        W36218  31.560   8.687   0.938
74688W        W36219  18.252   2.923   4.710
74689W        W36220   1.397  44.795   2.367
74690W        W36221  32.565  13.724  11.491
74691W        W36222  24.642  20.113  13.513
74692W        W36223  15.736  17.169   5.194
74693W        W36224  20.523   3.296   4.127
74694W        W36225   5.240  43.361  10.412
74695W        W36226  30.537  41.895  12.404
74696W        W36227  11.755  21.126  11.871
74697W        W36228  30.958  41.977  13.315
74698W        W36229  29.583  26.077   4.818
74699W        W36230   8.857  22.539  12.879
74700W        W36231  13.759  41.362  12.948
74701W        W36232  27.106  15.319  14.996
74702W        W36233  42.940  22.117  13.797
74703W        W36234   7.241  11.684   4.340
74704W        W36235  17.674  38.865   1.801
74705W        W36236   1.482  26.147   1.378
74706W        W36237  10.289  30.964  10.556
74707W        W36238  18.775  18.201   4.806
74708W        W36239  20.703  21.161  14.303
74709W        W36240  36.005  33.094   3.283
74710W        W36241   6.723  21.620   2.381
74711W        W36242  38.488  39.363   5.607
74712W        W36243  10.681  42.322   0.923
74713W        W36244   6.726  12.785  12.551
74714W        W36245   0.259  15.813   3.739
74715W        W36246  44.899  13.656  13.505
74716W        W36247  43.959  27.541  13.471
74717W        W36248  22.160  34.533   4.685
74718W        W36249  38.824  28.165  12.853
74719W        W36250  18.581  19.111  13.395
74720W        W36251  12.322  22.600  12.899
74721W        W36252  41.394  26.132   4.657
74722W        W36253  40.332   9.812   2.252
74723W        W36254  16.130  16.735   1.301
74724W        W36255  41.471   9.778   4.832
74725W        W36256  41.970  11.831   1.280
74726W        W36257   7.234   8.256   3.187
74727W        W36258  21.731  28.542  11.530
74728W        W36259  39.371  24.012   0.911
74729W        W36260  17.751   8.745  12.078
74730W        W36261  24.101  23.575   1.435
74731W        W36262  31.007  44.837   2.768
74732W        W36263  11.631  13.620  11.892
74733W        W36264  26.651  15.680   3.168
74734W        W36265  17.728  12.355   2.381
74735W        W36266  20.094  10.716  13.387
74736W        W36267   0.951  26.649   1.306
74737W        W36268  41.324  27.447  11.094
74738W        W36269  29.961   9.256   1.264
74739W        W36270  26.987  16.689  11.517
74740W        W36271  33.490  36.907  14.299
74741W        W36272   5.234  32.962  10.570
74742W        W36273  29.942  28.571   3.372
74743W        W36274   5.845  13.786   1.221
74744W        W36275   3.815  31.961   2.678
74745W        W36276  24.664   8.759  12.952
74746W        W36277   9.340   2.757   0.290
74747W        W36278  12.192  17.578  14.783
74748W        W36279   3.315  15.095   3.742
74749W        W36280  26.978  41.950   2.696
74750W        W36281  10.251  15.583  10.964
74751W        W36282   9.277  12.296   1.360
74752W        W36283   7.794   2.845  11.596
74753W        W36284  18.201   0.308  10.907
74754W        W36285  42.477  24.143  13.425
74755W        W36286  36.873  19.698  13.316
74756W        W36287  25.181  38.510   4.614
74757W        W36288  12.688  40.536   0.313
74758W        W36289  27.107  27.615   0.302
74759W        W36290  15.801  31.947   2.721
74760W        W36291   0.894   2.430  11.994
74761W        W36292  24.600  25.099   2.284
74762W        W36293  18.705  17.792  11.411
74763W        W36294   5.768  35.396  13.011
74764W        W36295  16.571  30.126   0.362
74765W        W36296  44.957  21.677  12.505
74766W        W36297  30.617  16.299  13.878
74767W        W36298  26.663  29.426  14.280
74768W        W36299  41.401  15.151  10.590
74769W        W36300  35.423  16.775   4.133
74770W        W36301   2.830  40.475  13.016
74771W        W36302  18.743  33.001   1.770
74772W        W36303  31.638   8.389  13.323
74773W        W36304   8.796   6.820   4.225
74774W        W36305  19.650  43.506  10.452
74775W        W36306  41.296  34.954   5.301
74776W        W36307  16.638  33.029   0.385
74777W        W36308  40.050   7.825  10.511
74778W        W36309  43.458  40.349  10.484
74779W        W36310  39.356  42.871   3.286
74780W        W36311   3.461   3.876  10.978
74781W        W36312  35.018  26.684   0.388
74782W        W36313  35.515  14.211   1.744
74783W        W36314  33.383  20.152   1.767
74784W        W36315  13.137  41.014  11.873
74785W        W36316  40.999  21.021   2.689
74786W        W36317  27.078  35.454   1.868
74787W        W36318  14.697  37.874  11.499
74788W        W36319  29.998   0.790   0.434
74789W        W36320  44.443  26.599  12.060
74790W        W36321  24.511   8.252   4.753
74791W        W36322  12.223  15.265   0.737
74792W        W36323   3.357  35.933  10.420
74793W        W36324  15.670   6.364   3.188
74794W        W36325  11.159  35.898  14.997
74795W        W36326  36.054  19.220  13.831
74796W        W36327   5.314  10.262  14.895
74797W        W36328  27.950  27.034  14.431
74798W        W36329  23.501  18.641   1.744
74799W        W36330   0.896   9.732  10.437
74800W        W36331  43.475  42.434  13.356
74801W        W36332   1.814   0.915  10.475
74802W        W36333   4.245  27.488   1.801
74803W        W36334  15.701  18.722  11.545
74804W        W36335  29.493   3.729   3.800
74805W        W36336  12.167  23.223   0.750
74806W        W36337  15.123  43.834   0.872
74807W        W36338   3.715   5.877   4.666
74808W        W36339  44.330   5.805   0.909
74809W        W36340  29.004  24.206   3.234
74810W        W36341  26.151  31.900  10.410
74811W        W36342  32.981  35.922  14.842
74812W        W36343  17.158  40.374  11.988
74813W        W36344  34.597   6.382   0.292
74814W        W36345  28.637  31.476  13.469
74815W        W36346  32.105  29.031  11.125
74816W        W36347  34.960   5.911  14.434
74817W        W36348   9.792  16.294  14.325
74818W        W36349  28.643  42.856  12.843
74819W        W36350  40.417  26.012  13.850
74820W        W36351  24.983  33.001   2.190
74821W        W36352  22.233  29.993  14.397
74822W        W36353  36.952  11.777   4.295
74823W        W36354  38.907  39.917  11.971
74824W        W36355  30.156  29.520   0.890
74825W        W36356   9.724  31.142   2.692
74826W        W36357  29.560   0.374   2.893
74827W        W36358  32.460  18.084   2.307
74828W        W36359  21.571  36.850  10.988
74829W        W36360  37.845  41.356  14.402
74830W        W36361   0.858  18.076   4.742
74831W        W36362  40.002  11.177   2.768
74832W        W36363   5.415  36.000  14.317
74833W        W36364  23.184  40.513  11.046
74834W        W36365  34.896   6.374   4.274
74835W        W36366   4.359  29.948  14.338
74836W        W36367  20.695  32.970  11.862
74837W        W36368   3.750  24.711  11.915
74838W        W36369   9.793  39.511  12.538
74839W        W36370  30.553  25.496   2.720
74840W        W36371  18.153   5.742   3.796
74841W        W36372  25.974  14.779   2.263
74842W        W36373  27.629  26.021  13.440
74843W        W36374  34.988  42.508   3.690
74844W        W36375  24.704  40.977  11.396
74845W        W36376  17.126   6.327   2.694
74846W        W36377   6.898  10.693  10.593
74847W        W36378  34.428  10.300  13.474
74848W        W36379   5.929  25.616  10.528
74849W        W36380  10.706  44.965   0.870
74850W        W36381  14.664   4.386   3.358
74851W        W36382  33.922  30.430  11.029
74852W        W36383  11.784   0.349  11.576
74853W        W36384  31.579  40.308  13.525
74854W        W36385  35.953  22.689   5.196
74855W        W36386  40.485  19.185  11.566
74856W        W36387   4.254  18.055   1.809
74857W        W36388  33.404  42.429   0.953
74858W        W36389  33.612  22.546  14.810
74859W        W36390  39.934   7.790  13.441
74860W        W36391  40.996   9.273   1.431
74861W        W36392  11.145  28.436  14.487
74862W        W36393  26.492  36.845  13.016
74863W        W36394   4.204   3.756   1.764
74864W        W36395   2.772  20.739   0.960
74865W        W36396  31.627  44.809   2.899
74866W        W36397  21.718  44.931   0.899
74867W        W36398  28.447  13.305   2.696
74868W        W36399   6.895  41.981  10.614
74869W        W36400   0.944  23.540   0.836
74870W        W36401  32.095   3.259   5.231
74871W        W36402  17.659  32.133   2.855
74872W        W36403  39.898   4.770  12.947
74873W        W36404  22.050   6.896  12.901
74874W        W36405   2.840  20.638   2.788
74875W        W36406   3.849  27.028  10.599
74876W        W36407  24.714  26.148   2.757
74877W        W36408  38.562  11.718  10.058
74878W        W36409  19.718  37.559  13.973
74879W        W36410  13.179  41.875   2.386
74880W        W36411  42.283  18.571   4.764
74881W        W36412  38.354  35.865  10.600
74882W        W36413  32.977  35.576  10.469
74883W        W36414  27.454  35.032  12.828
74884W        W36415   0.298  40.982   4.340
74885W        W36416  22.724   8.400   3.268
74886W        W36417  32.052  28.955  12.538
74887W        W36418  27.528   4.818  11.896
74888W        W36419  22.541   4.360   3.384
74889W        W36420  39.831  34.603   3.776
74890W        W36421  21.182  20.189   2.701
74891W        W36422  21.214   0.441   1.721
74892W        W36423  32.112   0.782   3.836
74893W        W36424  44.397   4.905   5.318
74894W        W36425  12.792  12.244   3.243
74895W        W36426   6.363  22.721   5.309
74896W        W36427  27.181  18.206  11.480
74897W        W36428  12.329  41.836   3.147
74898W        W36429   5.932  36.059   0.289
74899W        W36430   8.181  40.957  12.920
74900W        W36431  37.914  11.356   1.697
74901W        W36432   2.854  30.101   1.450
74902W        W36433  32.925  35.429   3.311
74903W        W36434  23.493  10.164  13.805
74904W        W36435  34.871  11.782  10.439
74905W        W36436  41.804  23.536  11.562
74906W        W36437  33.886   9.797  14.362
74907W        W36438  41.514  36.435   3.281
74908W        W36439  14.254  15.168   2.752
74909W        W36440   3.777  34.465   2.359
74910W        W36441   6.208  26.104   3.688
74911W        W36442  33.049  22.722   2.834
74912W        W36443  30.585  10.226  13.443
74913W        W36444  31.040  31.608  13.025
74914W        W36445  12.783  24.121  14.999
74915W        W36446  30.040  16.772   2.817
74916W        W36447  42.896  10.796   2.312
74917W        W36448  18.759  29.166   4.173
74918W        W36449  14.731  42.346  12.491
74919W        W36450  19.675  39.887   3.153
74920W        W36451   2.948  34.103   0.362
74921W        W36452  13.161  12.711   0.740
74922W        W36453  10.339  12.301   0.404
74923W        W36454  32.078   8.256   2.732
74924W        W36455  18.672   4.824  12.403
74925W        W36456   4.910  13.288   1.298
74926W        W36457  36.982  33.471  11.112
74927W        W36458   6.800   5.231   2.842
74928W        W36459  16.265   2.946  10.442
74929W        W36460   6.398   1.742   3.732
74930W        W36461  15.807   6.256   4.740
74931W        W36462   7.906   0.322   3.242
74932W        W36463  43.427  26.180   3.691
74933W        W36464  24.193   3.813   1.402
74934W        W36465   1.932  23.150   1.767
74935W        W36466  27.529  26.201  11.113
74936W        W36467  34.478   5.433   4.788
74937W        W36468  32.988  35.482  13.865
74938W        W36469  37.049  32.582   0.887
74939W        W36470  34.479   0.392  13.401
74940W        W36471  31.097  41.399   2.225
74941W        W36472  37.023  11.205  13.835
74942W        W36473   6.923  41.004  13.911
74943W        W36474  38.023  28.632  14.004
74944W        W36475  11.208  15.173   2.761
74945W        W36476  37.997  29.670  13.009
74946W        W36477  13.222   7.735   2.856
74947W        W36478  14.688  24.481  13.312
74948W        W36479  10.334  39.358  12.389
74949W        W36480  27.569  24.501   2.239
74950W        W36481  44.489  33.893   0.897
74951W        W36482  41.982  29.987  11.471
74952W        W36483  19.129  35.083  12.888
74953W        W36484   0.840  16.798  14.369
74954W        W36485  10.783  38.023   4.202
74955W        W36486  38.433  13.779   0.888
74956W        W36487   4.807  16.121   3.310
74957W        W36488   3.376  43.293  11.482
74958W        W36489  20.669  31.045  12.392
74959W        W36490  44.363  25.106   1.876
74960W        W36491  21.547  29.489   1.796
74961W        W36492  17.124  22.031  12.495
74962W        W36493   6.781  12.764   0.824
74963W        W36494  36.461  29.464   0.254
74964W        W36495  40.387   5.827   1.914
74965W        W36496  34.560  35.064  12.382
74966W        W36497   7.802  11.328  14.764
74967W        W36498  28.604  42.906  14.884
74968W        W36499  14.786  11.737   3.169
74969W        W36500   4.887  20.598   4.297
74970W        W36501  33.004  28.136  12.405
74971W        W36502   2.752  15.770  12.491
74972W        W36503  26.543  34.945   4.782
74973W        W36504  26.701  19.571  14.963
74974W        W36505  44.390  31.553   4.833
74975W        W36506  37.042  39.547  11.600
74976W        W36507   0.295  12.258  11.495
74977W        W36508  17.127  26.120   4.237
74978W        W36509  14.613  10.721   2.337
74979W        W36510   9.253  39.917  13.797
74980W        W36511  25.570  24.678   1.248
74981W        W36512  36.929  37.941   2.382
74982W        W36513  40.024  25.514   3.332
74983W        W36514  44.316  37.449   0.785
74984W        W36515   4.296  23.641   5.650
74985W        W36516  31.931  38.461   4.666
74986W        W36517  11.808  19.158  12.835
74987W        W36518   9.265  39.978   0.896
74988W        W36519  20.171  31.587  14.895
74989W        W36520  17.656  42.285  13.926
74990W        W36521   3.318  19.695   2.316
74991W        W36522  27.038  25.502  13.977
74992W        W36523  12.357  11.352   1.299
74993W        W36524  28.984  25.657  11.412
74994W        W36525   1.357   0.263   1.423
74995W        W36526  20.630  13.785  11.112
74996W        W36527  44.955   0.891   0.429
74997W        W36528  21.132  35.988   4.683
74998W        W36529  35.893  34.386   0.765
74999W        W36530  13.669  32.936   9.478
75000W        W36531  13.326  19.778   1.432
75001W        W36532  18.581  24.553  13.504
75002W        W36533  37.512  29.063  14.827
75003W        W36534  31.907  13.200   4.772
75004W        W36535   7.242  19.161  11.966
75005W        W36536  38.534  15.213   2.376
75006W        W36537  26.201  30.430  11.923
75007W        W36538  29.486  38.845   5.298
75008W        W36539  17.779  44.270  10.558
75009W        W36540  25.040  23.575  12.411
75010W        W36541   4.428  22.522   4.715
75011W        W36542   5.843  28.122  11.945
75012W        W36543  11.866  23.684   3.367
75013W        W36544   2.804   7.181   0.819
75014W        W36545  24.203  13.629  13.548
75015W        W36546  12.799  27.178  12.500
75016W        W36547  24.985   7.277   2.334
75017W        W36548  18.707   7.256   2.219
75018W        W36549  13.738   7.803  10.588
75019W        W36550  28.068  42.884  14.431
75020W        W36551  40.982  13.153  12.518
75021W        W36552   6.251  15.733  13.060
75022W        W36553  43.437   6.408   9.966
75023W        W36554   4.259   8.752  14.498
75024W        W36555  44.491  28.618  12.082
75025W        W36556  36.568   8.706   2.798
75026W        W36557  13.115  16.223  10.584
75027W        W36558  10.144   0.404  14.492
75028W        W36559  16.137  22.638  10.500
75029W        W36560   4.736  26.118  13.478
75030W        W36561  32.418  10.210  14.311
75031W        W36562  41.465  40.803  13.336
75032W        W36563  40.937  43.941   2.736
75033W        W36564   5.839  39.879   2.760
75034W        W36565  22.120  31.646   2.850
75035W        W36566  38.062  14.230   3.655
75036W        W36567  27.540  19.219  10.619
75037W        W36568  42.802  30.553  12.825
75038W        W36569  23.033   3.805   4.756
75039W        W36570  41.981  40.865  12.846
75040W        W36571   4.290  18.549   2.834
75041W        W36572   1.851  15.699  14.445
75042W        W36573  36.094  25.962  12.431
75043W        W36574  12.652  28.990  13.470
75044W        W36575  42.410  44.760  12.347
75045W        W36576  23.537  20.605   1.699
75046W        W36577   4.318  30.146   1.284
75047W        W36578   4.874  25.146  11.495
75048W        W36579   0.472  43.356  11.575
75049W        W36580  12.207  26.640  12.375
75050W        W36581  20.753   5.819  11.874
75051W        W36582  32.934   6.688  14.357
75052W        W36583   1.307  14.623  14.284
75053W        W36584  24.620  37.464  11.977
75054W        W36585  17.575   7.346   0.857
75055W        W36586   3.946   9.394   0.772
75056W        W36587  25.547   0.836   0.319
75057W        W36588  42.888  18.640   5.109
75058W        W36589   7.690  41.517   0.290
75059W        W36590   4.401  15.161  10.457
75060W        W36591  30.029  25.068   3.638
75061W        W36592  25.048  30.654   0.856
75062W        W36593  26.595   5.792   3.377
75063W        W36594  35.484  11.625  12.850
75064W        W36595  27.538  32.056   2.215
75065W        W36596  40.483   1.770   1.904
75066W        W36597  38.326  33.490  11.482
75067W        W36598  30.023  18.277   0.464
75068W        W36599   0.968   1.920  12.442
75069W        W36600   7.696  40.853   4.625
75070W        W36601  23.703  15.286  11.856
75071W        W36602  29.611  37.879   4.182
75072W        W36603  34.897  19.646  10.034
75073W        W36604   8.835   4.872   4.787
75074W        W36605  30.489   3.391   2.254
75075W        W36606  20.621  35.601  13.801
75076W        W36607  14.225  42.783   5.111
75077W        W36608  13.250  25.977   2.209
75078W        W36609   0.329  23.622  11.526
75079W        W36610  15.161  23.171   0.330
75080W        W36611  33.583  32.042   0.350
75081W        W36612   5.910  32.513   0.883
75082W        W36613   6.870   2.884  12.857
75083W        W36614  44.813  22.637  12.401
75084W        W36615  10.816  33.608  10.596
75085W        W36616  33.499  22.592   1.343
75086W        W36617  32.092  13.601   1.733
75087W        W36618  21.515  42.380   4.805
75088W        W36619  30.072  19.653   2.204
75089W        W36620  39.989  40.919  12.932
75090W        W36621  28.959  33.930  14.378
75091W        W36622  30.965  22.166  13.929
75092W        W36623  29.514  22.128  12.892
75093W        W36624   5.739   7.388   0.778
75094W        W36625  20.684   6.792   4.822
75095W        W36626  28.999   5.437   4.354
75096W        W36627  31.962  18.140  13.320
75097W        W36628  16.668  35.468  13.797
75098W        W36629  10.835  14.620   1.848
75099W        W36630   9.205   0.251   2.820
75100W        W36631  33.957  24.193  12.883
75101W        W36632  44.313   3.357   0.910
75102W        W36633  41.478  33.053  11.531
75103W        W36634  17.717  26.047   1.712
75104W        W36635  16.255  22.586  12.535
75105W        W36636   1.962  17.791  13.843
75106W        W36637   6.730  19.772  10.891
75107W        W36638  29.589  37.060  13.426
75108W        W36639  42.839  20.704  10.604
75109W        W36640  35.468  44.259   0.794
75110W        W36641  42.432  29.441   0.296
75111W        W36642   4.706  27.646  11.586
75112W        W36643  42.361  12.323   1.399
75113W        W36644  37.480  14.207   1.855
75114W        W36645  39.387  43.464   2.276
75115W        W36646  22.629   3.935   0.832
75116W        W36647  12.704  44.432   1.761
75117W        W36648  15.757  39.414  13.966
75118W        W36649  15.300  29.588   2.283
75119W        W36650   6.752  36.922   1.263
75120W        W36651  26.171  25.095   2.377
75121W        W36652  22.197  17.204  12.826
75122W        W36653  26.580  12.689  13.008
75123W        W36654  17.686   3.871   4.646
75124W        W36655  19.099  25.193   0.879
75125W        W36656  41.838  33.084  13.422
75126W        W36657  13.183   8.326  12.450
75127W        W36658  20.582   0.349  10.435
75128W        W36659   9.811   2.898   4.206
75129W        W36660  25.568  14.210   2.286
75130W        W36661  11.763  12.687   2.733
75131W        W36662  44.267   8.203  10.619
75132W        W36663   6.724  40.404  13.831
75133W        W36664  15.778  42.423   1.699
75134W        W36665   4.385  27.482   2.307
75135W        W36666  38.940  32.560  13.382
75136W        W36667  44.359  21.628   2.220
75137W        W36668   1.293  18.667  10.949
75138W        W36669   9.657  34.513   1.874
75139W        W36670  38.882  14.208   9.940
75140W        W36671  28.980  25.606  12.829
75141W        W36672   3.730   6.827  13.340
75142W        W36673   2.273  22.663  13.913
75143W        W36674  23.634   4.903  14.382
75144W        W36675   3.445  20.067  12.557
75145W        W36676  16.604  34.963   3.857
75146W        W36677  11.664  16.291   1.232
75147W        W36678  10.348  43.877   1.366
75148W        W36679  19.105   5.406  14.845
75149W        W36680  40.957   6.917  14.486
75150W        W36681  32.132  10.257  12.421
75151W        W36682  43.388  18.153   1.347
75152W        W36683   0.961   4.873   3.357
75153W        W36684  20.571   4.226   0.835
75154W        W36685  39.354  15.296  14.875
75155W        W36686   9.196  25.475  12.347
75156W        W36687   0.412  44.909  11.484
75157W        W36688  23.585   6.320   1.368
75158W        W36689   3.937  39.016  14.503
75159W        W36690  33.616   3.773  12.084
75160W        W36691   0.784   4.316   1.371
75161W        W36692   0.417  11.298  13.338
75162W        W36693  38.493  10.748   3.866
75163W        W36694  23.046   5.798   0.870
75164W        W36695   3.815  26.611   2.292
75165W        W36696  26.077  14.206   1.322
75166W        W36697  28.072  17.160  12.533
75167W        W36698  35.512  20.074  11.400
75168W        W36699  26.546  28.621   2.238
75169W        W36700  19.041  19.613  12.826
75170W        W36701  36.922  28.051   0.931
75171W        W36702  44.419  10.159  13.012
75172W        W36703   0.805  20.056   2.315
75173W        W36704   8.366  40.042  11.599
75174W        W36705  27.482  14.759   1.806
75175W        W36706  16.182  14.730   3.775
75176W        W36707  18.690  39.841  11.407
75177W        W36708  29.477  34.045  10.603
75178W        W36709  12.181  43.806   2.334
75179W        W36710  10.139   1.820  12.059
75180W        W36711  37.838  24.093  14.996
75181W        W36712   7.894  40.960   4.343
75182W        W36713   2.461  33.609   0.265
75183W        W36714   9.784  35.070   3.302
75184W        W36715  31.403  17.260  13.885
75185W        W36716  28.112  27.970  12.990
75186W        W36717  16.577   5.904   1.892
75187W        W36718  44.449  31.402  10.628
75188W        W36719  17.081  19.254  13.987
75189W        W36720  30.448   4.922   1.837
75190W        W36721   4.394   9.387   0.449
75191W        W36722  34.921  12.178   2.890
75192W        W36723  40.323  19.174  14.850
75193W        W36724  29.658  17.068  14.304
75194W        W36725  34.072   0.780  10.937
75195W        W36726  36.018  36.457  11.066
75196W        W36727  13.618  18.261   0.814
75197W        W36728  14.277   0.269   4.670
75198W        W36729   8.244  18.079   2.818
75199W        W36730  42.463  41.477   4.630
75200W        W36731  15.210  33.439  11.955
75201W        W36732  43.309  16.294  14.877
75202W        W36733  37.384   8.404   2.793
75203W        W36734  34.992  24.663   4.344
75204W        W36735  24.516  35.426  11.974
75205W        W36736   0.427  29.927   2.802
75206W        W36737  27.186  34.101  12.925
75207W        W36738  10.256  40.943  12.089
75208W        W36739  11.148  44.288   4.173
75209W        W36740  17.102  36.519  13.524
75210W        W36741  26.628   0.274   4.794
75211W        W36742  28.095   2.751  10.579
75212W        W36743  29.951  12.293   3.679
75213W        W36744   3.773   7.898  13.968
75214W        W36745   4.727  43.886  10.955
75215W        W36746  37.035  22.160  14.925
75216W        W36747  26.537  12.611   4.725
75217W        W36748  12.737  22.238   0.875
75218W        W36749  17.632  25.707   1.739
75219W        W36750   9.772  11.220   1.761
75220W        W36751  20.061   3.412   4.124
75221W        W36752  43.978  42.929  13.418
75222W        W36753  25.191  27.669   5.092
75223W        W36754  37.390  11.185   4.774
75224W        W36755  22.547  17.082  11.496
75225W        W36756   3.759  16.682   3.222
75226W        W36757  39.481  27.513  13.411
75227W        W36758  31.498  20.048  12.959
75228W        W36759  25.667  42.996  14.919
75229W        W36760  32.589  43.355   4.280
75230W        W36761  42.362  44.815   2.689
75231W        W36762  15.304  41.477  10.450
75232W        W36763  13.821  11.697   1.736
75233W        W36764  23.163  15.618   1.289
75234W        W36765  26.537  24.632  11.591
75235W        W36766  22.247   9.747   4.783
75236W        W36767  40.459  24.568  10.627
75237W        W36768  35.391  17.557  11.524
75238W        W36769   2.254  13.254  14.392
75239W        W36770  42.992  14.184   3.775
75240W        W36771  34.455   7.816  13.881
75241W        W36772  26.078  43.516   0.794
75242W        W36773  39.818  36.983   2.205
75243W        W36774   4.306  16.645   2.407
75244W        W36775  17.303   8.801  11.487
75245W        W36776  29.926   5.211  14.275
75246W        W36777   8.668  33.051  14.350
75247W        W36778  32.919  27.525   2.277
75248W        W36779  35.010   1.480   2.768
75249W        W36780  17.625  28.108   1.243
75250W        W36781  43.316  19.588   1.350
75251W        W36782  14.762  24.088   0.378
75252W        W36783   5.399  15.755  14.028
75253W        W36784  14.282   3.785   1.325
75254W        W36785  24.522  44.779   2.725
75255W        W36786   5.327  42.893   4.297
75256W        W36787  31.476  21.227  11.374
75257W        W36788  18.155  10.327   1.744
75258W        W36789  15.181  40.987  10.445
75259W        W36790  30.454  29.052  10.594
75260W        W36791  26.606  35.528   3.789
75261W        W36792  24.670  38.335   2.346
75262W        W36793  13.326  22.244  14.294
75263W        W36794  28.071  14.711  12.533
75264W        W36795  19.283  38.998  13.444
75265W        W36796  20.704  19.669  11.419
75266W        W36797   8.317  20.750   1.768
75267W        W36798  17.579  35.465   4.739
75268W        W36799  21.223   1.950   2.763
75269W        W36800  21.663  25.150  14.491
75270W        W36801  18.251  11.793  14.819
75271W        W36802  22.180  40.948  14.324
75272W        W36803  11.779  35.385  10.611
75273W        W36804  24.075  40.863  10.486
75274W        W36805  33.874  13.643  12.080
75275W        W36806  26.952  16.671   4.734
75276W        W36807  28.593  17.689   0.760
75277W        W36808   5.698  24.170   1.400
75278W        W36809  41.833  10.161   1.737
75279W        W36810  22.138  23.539  11.997
75280W        W36811  18.705  20.585  10.518
75281W        W36812  40.420  24.229   0.325
75282W        W36813  31.608  32.457   3.181
75283W        W36814  23.199  25.029   0.797
75284W        W36815  25.627  34.930  11.979
75285W        W36816   6.769  17.593  13.452
75286W        W36817   4.826  28.152  10.926
75287W        W36818  31.591  17.675   1.344
75288W        W36819  36.993   7.410   2.693
75289W        W36820  16.806  24.979   3.184
75290W        W36821  16.092  16.166   4.297
75291W        W36822  26.596  22.532   1.366
75292W        W36823  19.701   4.905  12.474
75293W        W36824  25.649  32.531   3.671
75294W        W36825  37.505  13.267   1.810
75295W        W36826   9.288  36.915  13.366
75296W        W36827  29.105  27.194  13.803
75297W        W36828  26.677  35.501   4.328
75298W        W36829  39.974   8.684   1.350
75299W        W36830  43.950  28.057   1.798
75300W        W36831  31.148  20.721  12.029
75301W        W36832   1.313  15.706  10.543
75302W        W36833  40.363  40.500  14.386
75303W        W36834  17.650  17.139  11.482
75304W        W36835  24.719   8.812  10.553
75305W        W36836  21.709  11.654   2.887
75306W        W36837   3.881   8.727   0.845
75307W        W36838  31.562  39.813   2.751
75308W        W36839  39.001  10.208   2.837
75309W        W36840   6.380  42.991   0.838
75310W        W36841  43.926  27.476  13.044
75311W        W36842  26.468  40.391  14.871
75312W        W36843  13.701  16.783  13.917
75313W        W36844  40.386  23.104   4.292
75314W        W36845   1.771  19.190  14.384
75315W        W36846  23.535  34.454  11.110
75316W        W36847  15.624  15.630  11.505
75317W        W36848  43.373  16.636  14.781
75318W        W36849   0.346  19.551   2.416
75319W        W36850  16.732   0.259  10.624
75320W        W36851  30.024  39.885  14.928
75321W        W36852  22.094  39.986   3.237
75322W        W36853   8.203  18.247   1.385
75323W        W36854  11.810  35.939  10.453
75324W        W36855  10.811  20.630  14.911
75325W        W36856  32.427  22.700   3.632
75326W        W36857  28.589  36.441  11.103
75327W        W36858  26.518  20.194   0.324
75328W        W36859  29.103   4.775   0.254
75329W        W36860  36.935   7.303  11.017
75330W        W36861  34.579  41.397  12.935
75331W        W36862  35.029  17.563  12.499
75332W        W36863   3.338   1.236   1.409
75333W        W36864   4.880  38.068   3.259
75334W        W36865  10.773  24.156   3.211
75335W        W36866  41.859   3.232  13.333
75336W        W36867   0.375  15.753   2.297
75337W        W36868   3.864  19.286  12.347
75338W        W36869  10.283  17.627   2.322
75339W        W36870  40.858  27.061   4.169
75340W        W36871  10.335  23.587   9.992
75341W        W36872   6.398  16.222   2.699
75342W        W36873  20.220  44.908   0.925
75343W        W36874   2.913  23.526  14.799
75344W        W36875  13.252  28.514   0.377
75345W        W36876  44.435  12.315  10.905
75346W        W36877  29.125  34.007   4.676
75347W        W36878  34.459  27.012   0.822
75348W        W36879   0.834   3.306   3.754
75349W        W36880   3.709  13.281   2.727
75350W        W36881  32.956   4.219  12.372
75351W        W36882  42.459  38.041   1.715
75352W        W36883   3.828   9.876  14.863
75353W        W36884   4.365  11.289   4.805
75354W        W36885  27.140  17.762  13.833
75355W        W36886  26.020   3.718   0.958
75356W        W36887   1.767  20.573  10.965
75357W        W36888  14.279   3.907  13.539
75358W        W36889  28.990  14.691   4.757
75359W        W36890  27.484  20.728   4.610
75360W        W36891  26.498  14.094   4.697
75361W        W36892  22.203  20.197   2.823
75362W        W36893  19.656  12.642   2.374
75363W        W36894  31.642  14.132  10.055
75364W        W36895  44.944  25.088  12.047
75365W        W36896  26.693  12.343  10.425
75366W        W36897  15.249   7.221   2.388
75367W        W36898   9.338  36.490  10.917
75368W        W36899  20.745  19.080   3.171
75369W        W36900   6.775  24.560   0.959
75370W        W36901  18.167   5.848   4.150
75371W        W36902  15.668  23.667   1.408
75372W        W36903  43.820  13.646   4.127
75373W        W36904  11.316  28.491   4.770
75374W        W36905  16.139  26.590   1.712
75375W        W36906  17.637  16.725   2.243
75376W        W36907  26.625  35.962   1.903
75377W        W36908  41.919  18.727   0.951
75378W        W36909  15.304  37.406   3.350
75379W        W36910  31.130  23.172   4.178
75380W        W36911  22.512  33.578   0.946
75381W        W36912  39.946   0.274  14.394
75382W        W36913  42.945   2.840   1.401
75383W        W36914   1.406  28.957  10.905
75384W        W36915  10.661  20.769   4.803
75385W        W36916  42.786  35.521   0.366
75386W        W36917  33.568   2.302  14.925
75387W        W36918  12.640  21.535   4.343
75388W        W36919  31.087  18.709  12.918
75389W        W36920  21.091  43.308  12.397
75390W        W36921   0.761  15.824   1.440
75391W        W36922  24.063  24.136  14.422
75392W        W36923  35.041  28.968  10.093
75393W        W36924  42.332  24.040  11.378
75394W        W36925  13.226   7.252   4.764
75395W        W36926  17.072  23.166  13.368
75396W        W36927  19.199  29.931  13.828
75397W        W36928  37.383  41.384   4.171
75398W        W36929  16.241  39.445   2.340
75399W        W36930  18.141   4.276   0.347
75400W        W36931  44.388  35.431  13.956
75401W        W36932  33.585  14.686  14.026
75402W        W36933   4.403  16.787  12.403
75403W        W36934  36.495   6.871  11.519
75404W        W36935  35.549  16.225  13.874
75405W        W36936  42.476  23.629  12.554
75406W        W36937   8.887  34.527   2.281
75407W        W36938  27.959  29.143   3.180
75408W        W36939  24.106  22.564   3.741
75409W        W36940  18.178  43.906  11.858
75410W        W36941   5.891  14.284   1.867
75411W        W36942  43.489  22.175  12.404
75412W        W36943  24.513  15.271  13.548
75413W        W36944  35.896  16.137   3.638
75414W        W36945  19.583  38.391   4.122
75415W        W36946  24.572  14.156   1.846
75416W        W36947  20.271  43.484  12.458
75417W        W36948   1.840   7.367  11.027
75418W        W36949  20.031   8.785  14.018
75419W        W36950  14.215  15.816   1.270
75420W        W36951  20.657  19.049   0.344
75421W        W36952  30.458  19.593   3.841
75422W        W36953  24.577  25.621   3.800
75423W        W36954  39.957  27.677   4.309
75424W        W36955   9.662  28.469  10.464
75425W        W36956  44.357   8.731   2.305
75426W        W36957  40.989  18.104  12.855
75427W        W36958  20.706  27.535  13.502
75428W        W36959  23.995   0.954   0.785
75429W        W36960  37.877  42.001  13.384
75430W        W36961  40.827  20.571  11.573
75431W        W36962  42.318  17.128   3.314
75432W        W36963  31.462   4.269   1.260
75433W        W36964  28.486  33.955  10.427
75434W        W36965  16.736  34.866  14.847
75435W        W36966  11.687  29.584   0.426
75436W        W36967  31.596  33.506   4.272
75437W        W36968   9.697  42.955   3.245
75438W        W36969  44.293  25.476   1.424
75439W        W36970  20.028  26.474  10.977
75440W        W36971  12.673  41.304   4.681
75441W        W36972  10.758  32.101   1.365
75442W        W36973  26.685  38.936  14.860
75443W        W36974  26.208  22.647   0.914
75444W        W36975  16.224  24.209   1.341
75445W        W36976  15.676  40.980   0.265
75446W        W36977  15.731  22.010   3.350
75447W        W36978   5.230  22.617   2.733
75448W        W36979  16.292   0.769  12.054
75449W        W36980  23.569   8.225  10.963
75450W        W36981  32.040   8.284  10.058
75451W        W36982  35.385  37.478  12.515
75452W        W36983  10.143   3.768  13.456
75453W        W36984  29.533   9.378  14.949
75454W        W36985   1.435   4.280   4.785
75455W        W36986  23.691  19.548   0.271
75456W        W36987   8.370  40.505  10.989
75457W        W36988  23.194  19.666  13.948
75458W        W36989  20.154  27.674  14.956
75459W        W36990  13.685  34.450  11.096
75460W        W36991  12.755   5.847  14.320
75461W        W36992  30.025  40.866  14.792
75462W        W36993   5.700  40.314  11.052
75463W        W36994   8.190  35.405  14.278
75464W        W36995  39.430   6.358   2.738
75465W        W36996   4.222  41.002  14.451
75466W        W36997  26.588  26.022  10.996
75467W        W36998  41.440  28.477  14.467
75468W        W36999  18.183  38.064  14.502
75469W        W37000   9.224   8.289  13.336
75470W        W37001   0.958  15.133   2.830
75471W        W37002  27.626   6.403  13.809
75472W        W37003  22.192  44.867   2.740
75473W        W37004   2.950  22.708  12.493
75474W        W37005  25.499   7.330  13.447
75475W        W37006  26.981  17.772  11.894
75476W        W37007  38.951  24.177  12.437
75477W        W37008  30.929  24.057  12.882
75478W        W37009  43.950  32.942  14.515
75479W        W37010  22.511  33.036   0.433
75480W        W37011  36.947  34.463   3.221
75481W        W37012  37.379   1.395  13.475
75482W        W37013   7.385  12.150  12.943
75483W        W37014  26.030  16.765   1.908
75484W        W37015  31.567  13.256  11.548
75485W        W37016  20.270   2.828  14.391
75486W        W37017   7.179  17.721  14.348
75487W        W37018  24.644  29.076   1.855
75488W        W37019  12.184  33.981   2.687
75489W        W37020  10.188  40.818   1.254
75490W        W37021  41.300  23.168   0.425
75491W        W37022  16.126  39.426   3.355
75492W        W37023  17.293   6.346   4.783
75493W        W37024  20.561   3.789   3.769
75494W        W37025  38.447   2.966   2.201
75495W        W37026  17.776   9.345   3.145
75496W        W37027  36.063  23.602   0.318
75497W        W37028   0.446   3.449  12.971
75498W        W37029  26.192  25.686  12.879
75499W        W37030  29.658  34.985   2.781
75500W        W37031  24.481  27.117   1.423
75501W        W37032  29.477   3.303  13.041
75502W        W37033  10.681   0.871   3.700
75503W        W37034  39.033  32.104   4.186
75504W        W37035  10.170  21.165   0.267
75505W        W37036   5.926  26.082  14.514
75506W        W37037  14.622  33.875  13.357
75507W        W37038  14.220  38.523  13.912
75508W        W37039  37.833  16.626   0.763
75509W        W37040  20.272   0.435  13.480
75510W        W37041  34.412  41.347  14.024
75511W        W37042   8.211  28.520  11.593
75512W        W37043  26.097  29.478  10.040
75513W        W37044  31.576   1.250   2.755
75514W        W37045  25.580   6.383  11.585
75515W        W37046  17.608   2.900   0.253
75516W        W37047   6.820  41.486   1.240
75517W        W37048   4.879   1.789   3.780
75518W        W37049  39.354  17.206   1.743
75519W        W37050  31.019  13.816   4.124
75520W        W37051   9.800   6.398  14.502
75521W        W37052  19.570  23.626   0.834
75522W        W37053  37.043  23.091  11.115
75523W        W37054  33.117  43.006   0.438
75524W        W37055  18.758  29.940  13.920
75525W        W37056  42.281  19.095   3.305
75526W        W37057  28.614   6.750  12.348
75527W        W37058   6.338  30.919   0.334
75528W        W37059  21.529  21.522  13.031
75529W        W37060  14.605  37.544   4.177
75530W        W37061   0.889  10.866   3.370
75531W        W37062  17.130  38.417  13.981
75532W        W37063  15.139  34.516   4.137
75533W        W37064  27.185  11.149   3.740
75534W        W37065  17.144  40.930  11.432
75535W        W37066  36.552  31.589  13.405
75536W        W37067   6.423   8.749   4.747
75537W        W37068  24.147  40.994  13.948
75538W        W37069  43.771  19.688  10.912
75539W        W37070   3.904  43.425  13.412
75540W        W37071  34.474   7.275  14.416
75541W        W37072   9.275  19.658  11.562
75542W        W37073   7.847  22.641   1.773
75543W        W37074   5.825  28.492  12.940
75544W        W37075  13.718   6.354   1.757
75545W        W37076  18.544  29.454   2.405
75546W        W37077  39.544  17.636   2.238
75547W        W37078  15.218  28.653  11.986
75548W        W37079  39.869   5.269   1.895
75549W        W37080  23.498  28.448   0.361
75550W        W37081  25.111  43.884   1.901
75551W        W37082  33.473  41.357   1.769
75552W        W37083   9.275  22.101   2.281
75553W        W37084   5.918  11.296   1.702
75554W        W37085  35.034  16.608   0.934
75555W        W37086  19.252  20.756   2.190
75556W        W37087   7.797   2.358  12.345
75557W        W37088  39.445  33.584  10.995
75558W        W37089  43.475   8.693  10.633
75559W        W37090  15.186   1.857   1.703
75560W        W37091  10.773   1.819  13.936
75561W        W37092  10.875  31.939  10.643
75562W        W37093  21.715  10.682   3.789
75563W        W37094  44.471  43.277  12.917
75564W        W37095  26.673   9.248   4.301
75565W        W37096  13.843  17.786   0.867
75566W        W37097   0.788  12.288  10.947
75567W        W37098  30.585  39.498   0.913
75568W        W37099   1.342  43.985   4.720
75569W        W37100  37.364  37.050  12.530
75570W        W37101  23.106   4.848  13.519
75571W        W37102   8.742  40.917  11.471
75572W        W37103  21.113   2.265   2.735
75573W        W37104  34.520  24.224  10.616
75574W        W37105  20.143  14.244   2.318
75575W        W37106   3.832   5.415  14.895
75576W        W37107  19.100  11.779  12.416
75577W        W37108  25.090  15.809   1.868
75578W        W37109  10.847  24.672  12.377
75579W        W37110   6.424  36.437   4.782
75580W        W37111  29.116   2.880  11.864
75581W        W37112  42.010  35.955  11.607
75582W        W37113  29.534  41.975   1.215
75583W        W37114  44.923  38.505  11.421
75584W        W37115  15.815  43.433  13.318
75585W        W37116  10.857  42.285   1.296
75586W        W37117  27.538  27.014  13.842
75587W        W37118  33.097   2.740   4.240
75588W        W37119  25.701  36.373   0.808
75589W        W37120  28.066  41.005  13.886
75590W        W37121  26.475   5.263  13.988
75591W        W37122  37.006   2.281   2.308
75592W        W37123   0.945  30.913  11.939
75593W        W37124  39.931  23.201  14.486
75594W        W37125  21.540  41.809  13.990
75595W        W37126  19.164  36.915  10.566
75596W        W37127  41.389  10.852   0.728
75597W        W37128   8.380  23.013  12.570
75598W        W37129  21.750  13.178  10.602
75599W        W37130  27.629  15.223   0.454
75600W        W37131  28.535  10.168  14.385
75601W        W37132   6.258   1.950   2.281
75602W        W37133   8.768  35.471  11.963
75603W        W37134  43.920  34.887   2.818
75604W        W37135   6.695  11.206   1.367
75605W        W37136  31.150  43.386  14.321
75606W        W37137  17.153   4.815   1.895
75607W        W37138  34.552   3.357   0.864
75608W        W37139  31.554  24.708  12.562
75609W        W37140  26.592  44.869  12.349
75610W        W37141  12.638  31.055   0.352
75611W        W37142  40.909   0.416   4.285
75612W        W37143  43.773  16.304   4.621
75613W        W37144  44.399  25.651  10.433
75614W        W37145  29.582  34.428  13.332
75615W        W37146  20.694  37.492  14.468
75616W        W37147  36.026  17.578   2.848
75617W        W37148  24.158  27.951  10.076
75618W        W37149   9.835  42.006   0.781
75619W        W37150  22.700  13.133  11.940
75620W        W37151  34.869  16.182  14.384
75621W        W37152  15.326  25.189  14.857
75622W        W37153  24.173   5.307   1.413
75623W        W37154  26.462  15.234   3.275
75624W        W37155   9.377   7.667  11.970
75625W        W37156  31.106  16.096  10.548
75626W        W37157   0.958  41.480   2.869
75627W        W37158  19.085  16.786   0.247
75628W        W37159   6.218  29.464   4.621
75629W        W37160  43.796  24.056   0.373
75630W        W37161  29.540  28.099   3.382
75631W        W37162  19.535  40.521   3.717
75632W        W37163  18.253   1.440  14.453
75633W        W37164  30.597  43.270   4.194
75634W        W37165   8.241   2.867  10.473
75635W        W37166  36.362   9.346   9.548
75636W        W37167   5.398  33.017  13.823
75637W        W37168  33.071  15.224   3.383
75638W        W37169  11.740  21.607   2.259
75639W        W37170  37.061  24.668   2.790
75640W        W37171   1.832  36.478   1.230
75641W        W37172   9.329  19.770  10.422
75642W        W37173  28.952   9.707  13.050
75643W        W37174  16.602  32.625  12.546
75644W        W37175  12.661   7.767   0.348
75645W        W37176   3.370  40.888   2.353
75646W        W37177  28.636  14.164   4.120
75647W        W37178  36.098  28.183  10.431
75648W        W37179  20.676  16.306   3.323
75649W        W37180  31.019  24.681   4.704
75650W        W37181   3.275   8.868   2.392
75651W        W37182  28.591  34.863  13.903
75652W        W37183  18.129  18.636   4.738
75653W        W37184  13.303  14.186  13.022
75654W        W37185   5.869  22.206  13.429
75655W        W37186   9.316  17.301  13.891
75656W        W37187  24.142  44.481   3.770
75657W        W37188  34.521  37.061   3.729
75658W        W37189  19.715   7.367   3.663
75659W        W37190   7.758  21.025   0.953
75660W        W37191  32.466  28.120  10.076
75661W        W37192  30.533  11.777  13.888
75662W        W37193  32.090  27.056  14.345
75663W        W37194  16.155  20.067   2.672
75664W        W37195  15.811   1.381  14.391
75665W        W37196  11.823  27.977   0.248
75666W        W37197   7.217   2.766   9.619
75667W        W37198   7.409  38.551   3.234
75668W        W37199  41.534  39.426  13.796
75669W        W37200  17.152  27.590   4.720
75670W        W37201  32.601  24.697   3.700
75671W        W37202  32.427  25.498   2.394
75672W        W37203  24.527  33.095   0.346
75673W        W37204  14.779  40.846  11.012
75674W        W37205  10.205   6.805   1.216
75675W        W37206   7.179  26.002   0.899
75676W        W37207   9.187  35.450  13.401
75677W        W37208  23.012   6.727  11.423
75678W        W37209  41.983  14.094  10.092
75679W        W37210  31.917   2.336   5.232
75680W        W37211   4.284  11.245  11.981
75681W        W37212   4.751  19.566   3.806
75682W        W37213   9.153  44.761   4.750
75683W        W37214  10.215  20.648   1.222
75684W        W37215  35.967  40.368  14.861
75685W        W37216  25.972  35.471   2.731
75686W        W37217  36.879  37.045   1.819
75687W        W37218  35.893  20.167  13.477
75688W        W37219  29.022  43.462   2.375
75689W        W37220   9.791   7.241   2.185
75690W        W37221  42.903  39.050  11.382
75691W        W37222  11.830  32.540   4.751
75692W        W37223  33.095   8.774  13.857
75693W        W37224  41.847   4.918   4.290
75694W        W37225  31.540  31.050   0.863
75695W        W37226  34.486  17.100  14.458
75696W        W37227  25.032   5.357  14.382
75697W        W37228  38.965  28.498  11.096
75698W        W37229  26.205  25.006   4.659
75699W        W37230  13.836   1.368   3.335
75700W        W37231  22.060  28.481  10.577
75701W        W37232   5.370  15.125   4.788
75702W        W37233  28.664  19.171   3.291
75703W        W37234  20.695   5.434   2.258
75704W        W37235   0.851  33.910   3.641
75705W        W37236  21.116  23.011  13.903
75706W        W37237   8.365   5.226   1.224
75707W        W37238  41.400  29.986   0.322
75708W        W37239  36.382  36.534   0.319
75709W        W37240   0.779   8.695  13.031
75710W        W37241  40.890   4.321   3.762
75711W        W37242  16.193  11.780  12.558
75712W        W37243  12.163  24.613   0.784
75713W        W37244  44.839  40.938   2.380
75714W        W37245  29.651  13.247   0.390
75715W        W37246   4.373  34.008  12.885
75716W        W37247  40.307  18.106  11.097
75717W        W37248  31.051  17.736  11.858
75718W        W37249  11.262  43.980  14.796
75719W        W37250  39.864   4.270   4.667
75720W        W37251  34.526  38.073   2.179
75721W        W37252   9.855  16.748  13.890
75722W        W37253   7.240  43.356   2.844
75723W        W37254  20.225  44.976  11.987
75724W        W37255  44.275   0.970   2.845
75725W        W37256  18.212  26.004   4.219
75726W        W37257   9.708  20.703  10.576
75727W        W37258  44.383  32.433  12.054
75728W        W37259  29.439  34.439   3.179
75729W        W37260   0.280  28.940   3.679
75730W        W37261  14.340  35.480  13.808
75731W        W37262  21.202  18.072   0.751
75732W        W37263  33.122   9.846  10.489
75733W        W37264  17.597  29.068  12.955
75734W        W37265  15.644   8.389  10.948
75735W        W37266  44.874  35.460   0.930
75736W        W37267  17.581  34.521   4.630
75737W        W37268  26.601  37.843  12.440
75738W        W37269  18.267  15.089   1.718
75739W        W37270  19.076  35.989  13.828
75740W        W37271   3.891  24.632  13.544
75741W        W37272  21.238   9.267   3.757
75742W        W37273  31.565  31.607   3.667
75743W        W37274  40.476   3.806  13.006
75744W        W37275   8.340  37.915   3.278
75745W        W37276  20.719  21.570  11.595
75746W        W37277  42.985  21.216  12.340
75747W        W37278  26.126   9.746  11.420
75748W        W37279  40.431   3.427   2.710
75749W        W37280  33.594  29.580   4.681
75750W        W37281   5.909   7.784  10.957
75751W        W37282  23.062  38.062  13.346
75752W        W37283  10.253  37.831   1.351
75753W        W37284  17.705  10.192  10.430
75754W        W37285  26.590  38.512  11.023
75755W        W37286  31.025   5.794  14.449
75756W        W37287  26.517  34.547  12.392
75757W        W37288  43.298  22.114   2.390
75758W        W37289  15.184  44.935  10.636
75759W        W37290   2.803   2.286  13.456
75760W        W37291  40.328  29.045   1.244
75761W        W37292  15.200  10.859   0.751
75762W        W37293  41.317  44.858  12.994
75763W        W37294   7.768  15.638   3.345
75764W        W37295   1.903  34.448  13.933
75765W        W37296  22.227  36.848  13.372
75766W        W37297  13.824  34.490   1.879
75767W        W37298  12.701   5.289   0.403
75768W        W37299  18.286  43.367  10.544
75769W        W37300  11.774  39.061  13.862
75770W        W37301  24.541   6.237   1.269
75771W        W37302  37.359  26.696  13.920
75772W        W37303  34.941  29.156  11.921
75773W        W37304  26.474   4.860   1.250
75774W        W37305  28.477   5.367   0.921
75775W        W37306   1.407   7.909   1.320
75776W        W37307  15.693  27.091   2.797
75777W        W37308   1.920  22.683   3.708
75778W        W37309   8.232  44.409   2.677
75779W        W37310  31.931   2.430  11.102
75780W        W37311  22.704  42.524  14.932
75781W        W37312  25.990  44.431  12.570
75782W        W37313   6.849  25.470   4.264
75783W        W37314  14.736   7.866  13.880
75784W        W37315   2.395  38.336  14.326
75785W        W37316  28.124  37.926  10.950
75786W        W37317   9.250   9.393   1.916
75787W        W37318  32.506   3.421  11.599
75788W        W37319  37.395  39.554  11.975
75789W        W37320  36.441  44.855   0.781
75790W        W37321  37.482  43.292   4.267
75791W        W37322  19.627  32.615   3.284
75792W        W37323  21.658   3.815   0.287
75793W        W37324  41.344  38.326   3.768
75794W        W37325   6.201  26.141  10.127
75795W        W37326   9.229  30.109   0.449
75796W        W37327   3.224  41.295  11.393
75797W        W37328  38.411  26.609  11.429
75798W        W37329  17.616  28.074   2.853
75799W        W37330  36.060  10.327  12.542
75800W        W37331   4.717   9.739   3.673
75801W        W37332  28.095  35.971  13.054
75802W        W37333  36.517  10.792   1.879
75803W        W37334  38.898  11.825   3.190
75804W        W37335  17.600  38.889   3.680
75805W        W37336   5.882  27.088   2.415
75806W        W37337  44.406  19.162   2.768
75807W        W37338  10.731  25.988  13.501
75808W        W37339  44.956  44.808  12.557
75809W        W37340   5.697   7.672   4.229
75810W        W37341  21.230  36.060   4.257
75811W        W37342  17.113  44.490   4.223
75812W        W37343  40.985   8.384   0.375
75813W        W37344  19.237  44.964   0.263
75814W        W37345   4.771  27.464   9.938
75815W        W37346  20.217  24.578   5.159
75816W        W37347  25.082   5.220  12.088
75817W        W37348   7.784  41.319  14.828
75818W        W37349  21.223  18.668  12.986
75819W        W37350  24.999  14.141  11.607
75820W        W37351  35.490  21.664   2.322
75821W        W37352  11.215   2.904  11.976
75822W        W37353  36.420  18.167   1.805
75823W        W37354  16.318  42.334  11.987
75824W        W37355  10.220   4.882  13.315
75825W        W37356  41.930  15.175  10.483
75826W        W37357   5.766  27.602  12.881
75827W        W37358  20.152  38.029  14.410
75828W        W37359  40.474  33.429   4.139
75829W        W37360  36.416   5.784  11.394
75830W        W37361   7.684  32.140  12.427
75831W        W37362  23.561  22.227  11.902
75832W        W37363   1.385  11.357   0.908
75833W        W37364   4.360  33.014  13.417
75834W        W37365   2.731  42.840   0.450
75835W        W37366   6.286  24.575   4.268
75836W        W37367  32.042  11.659  12.850
75837W        W37368  42.030  13.637  11.064
75838W        W37369  22.608   7.269   3.752
75839W        W37370  39.066  37.060  11.974
75840W        W37371  35.358   3.447   4.795
75841W        W37372  16.080   1.274   3.850
75842W        W37373  31.404  15.638   3.324
75843W        W37374  31.904  34.997  11.964
75844W        W37375  22.098  41.026   0.797
75845W        W37376  19.140  23.030   1.219
75846W        W37377  18.573  37.933   1.771
75847W        W37378  20.614  36.065   0.318
75848W        W37379  39.352  34.433   2.718
75849W        W37380  20.152  20.664  13.380
75850W        W37381   5.820  25.049  12.935
75851W        W37382   2.927  18.060  10.625
75852W        W37383  25.134  34.556   3.385
75853W        W37384  23.548  32.885   3.804
75854W        W37385  23.563  19.727  13.883
75855W        W37386  30.968  12.612  14.365
75856W        W37387  12.245  34.063   4.217
75857W        W37388  21.699  35.434  14.906
75858W        W37389   8.219  11.719   4.781
75859W        W37390  33.061  40.960   4.354
75860W        W37391  13.216  28.026  10.403
75861W        W37392  15.615  37.888  14.024
75862W        W37393   7.254  18.217   3.305
75863W        W37394  13.259  36.993  12.984
75864W        W37395  24.643  18.082   3.741
75865W        W37396  23.124  41.423  13.312
75866W        W37397  25.477   5.299   1.718
75867W        W37398  10.269  32.914   4.336
75868W        W37399  43.872  17.252  11.028
75869W        W37400  42.954  23.578  11.863
75870W        W37401   4.833  25.083  13.986
75871W        W37402  18.739  23.007  14.453
75872W        W37403  14.737   4.426   3.870
75873W        W37404   2.349  38.006   2.844
75874W        W37405   7.230  10.165  14.463
75875W        W37406  20.245  22.028   3.757
75876W        W37407  25.616   3.233   5.169
75877W        W37408  31.146  24.700  12.065
75878W        W37409  13.818  17.179  10.893
75879W        W37410   7.858  10.378  13.989
75880W        W37411  17.305  11.133   4.157
75881W        W37412  29.071  11.325   4.797
75882W        W37413  23.130  23.568  12.529
75883W        W37414  29.933  31.142   0.412
75884W        W37415  16.588  39.968   2.775
75885W        W37416   0.442   0.936   2.412
75886W        W37417  14.217  13.673   4.175
75887W        W37418  39.827   3.722  12.540
75888W        W37419  22.246  22.037  14.799
75889W        W37420  23.724  39.512   3.701
75890W        W37421  24.558  36.958  11.873
75891W        W37422  33.959  10.798   1.315
75892W        W37423   6.885  33.064  11.444
75893W        W37424  40.339  43.852  10.454
75894W        W37425   9.806  40.985  12.857
75895W        W37426  33.478  10.720  12.949
75896W        W37427  33.383  34.016   4.320
75897W        W37428  20.238  18.078   4.166
75898W        W37429  40.468  11.750  10.974
75899W        W37430   7.367  21.178   3.665
75900W        W37431  27.148  21.128  14.476
75901W        W37432   3.826  44.295  10.470
75902W        W37433  14.220  12.248   0.737
75903W        W37434  13.178  13.761   3.238
75904W        W37435  28.020  11.132   4.314
75905W        W37436  24.110  23.671  14.856
75906W        W37437  33.494   6.404   0.446
75907W        W37438   0.349  15.774   1.743
75908W        W37439  28.976   1.816  10.922
75909W        W37440  22.181  23.114  13.390
75910W        W37441  15.588  33.482  12.066
75911W        W37442   3.414  33.526   0.902
75912W        W37443  43.285  12.837   0.848
75913W        W37444   8.873  17.106   2.393
75914W        W37445  25.043  25.002  11.426
75915W        W37446   1.413  21.587  13.048
75916W        W37447  42.794  17.262   4.598
75917W        W37448   5.902   5.243   2.710
75918W        W37449  35.479   0.319   1.430
75919W        W37450  42.028  32.943   3.813
75920W        W37451  40.351  37.862  11.599
75921W        W37452   1.930  43.821   2.241
75922W        W37453  44.881  12.746  10.990
75923W        W37454  12.265  29.505   0.957
75924W        W37455  17.172  38.990  13.890
75925W        W37456  34.893  22.528  11.580
75926W        W37457  11.167  29.441   1.427
75927W        W37458  16.672   0.760  10.436
75928W        W37459  25.966   6.833   3.290
75929W        W37460   4.314  19.587   4.170
75930W        W37461  15.799  28.120  11.911
75931W        W37462  31.439  10.189   2.328
75932W        W37463  43.001  30.462   3.369
75933W        W37464  21.197  43.837   1.421
75934W        W37465   1.866  23.527  13.389
75935W        W37466  14.620  15.648  12.430
75936W        W37467   5.202  23.561  11.925
75937W        W37468  16.751  38.407   0.454
75938W        W37469  24.520  23.154   2.380
75939W        W37470  43.973  22.125   0.790
75940W        W37471  21.113  31.995  11.606
75941W        W37472   8.654  18.604   5.254
75942W        W37473  39.013  23.718   2.296
75943W        W37474  19.666  26.623   0.341
75944W        W37475  42.356  25.605   1.396
75945W        W37476   6.747   9.707   3.351
75946W        W37477   1.866  38.855  10.914
75947W        W37478   6.759  26.536  11.543
75948W        W37479  38.072  26.660   3.787
75949W        W37480  43.317  29.154   4.331
75950W        W37481  12.806  44.380   3.729
75951W        W37482  22.580  35.460   0.957
75952W        W37483  29.924  16.291   2.235
75953W        W37484  43.511  14.825   1.777
75954W        W37485   9.764  34.055  14.857
75955W        W37486  42.966  32.024   2.882
75956W        W37487  11.362  35.472   2.336
75957W        W37488  22.502  19.671  10.985
75958W        W37489  15.328  19.158  14.445
75959W        W37490   5.775  30.526  11.053
75960W        W37491  41.412  43.389  14.473
75961W        W37492  11.657   5.914   2.330
75962W        W37493   2.449   7.341  12.898
75963W        W37494  34.933  24.118  13.497
75964W        W37495  11.659  10.763  10.442
75965W        W37496  14.145  10.655   4.260
75966W        W37497  32.422  41.454   2.343
75967W        W37498  43.428  15.083  12.087
75968W        W37499  19.557  18.273  10.417
75969W        W37500   1.944  28.149  12.942
75970W        W37501  22.505   9.188   4.708
75971W        W37502   6.269  30.586   2.850
75972W        W37503  38.362   0.441  10.436
75973W        W37504   3.773   7.341   1.863
75974W        W37505  44.415  11.828   3.338
75975W        W37506  19.108  41.344  12.898
75976W        W37507  39.958  27.672   3.323
75977W        W37508  38.518  22.235  14.305
75978W        W37509  11.859  18.779  12.029
75979W        W37510  41.829  32.637   0.800
75980W        W37511  22.217  34.554   0.302
75981W        W37512  36.482  15.685  13.522
75982W        W37513  30.138  27.610   2.866
75983W        W37514   4.815  37.023   0.846
75984W        W37515  41.404  22.742   0.461
75985W        W37516  20.150   0.823   4.626
75986W        W37517  30.027  13.780  10.993
75987W        W37518  32.560  43.316   0.405
75988W        W37519  21.168  16.304   3.331
75989W        W37520  16.118  29.492  14.407
75990W        W37521  23.068  36.966   3.672
75991W        W37522  18.202   8.349  10.551
75992W        W37523  10.263  38.467   4.243
75993W        W37524  28.031   5.232  11.996
75994W        W37525  23.112  27.135   4.265
75995W        W37526  21.525  18.566   3.662
75996W        W37527  39.040   4.383   2.212
75997W        W37528  15.308  38.353   2.715
75998W        W37529  11.693  12.136  10.572
75999W        W37530   3.853  19.544   0.320
76000W        W37531  40.969  29.146  11.964
76001W        W37532   2.823  33.977  14.488
76002W        W37533  26.966  44.476   4.212
76003W        W37534   6.824   2.397   2.702
76004W        W37535  20.099  21.522   1.228
76005W        W37536  41.885   2.844  14.424
76006W        W37537   2.767  24.129  11.459
76007W        W37538  32.889   9.695   2.229
76008W        W37539  24.630  23.574  13.803
76009W        W37540  43.948  28.121   0.483
76010W        W37541  10.148   4.449  11.585
76011W        W37542  35.924  23.652  11.944
76012W        W37543   5.916  17.258   2.748
76013W        W37544  31.109  30.150   1.822
76014W        W37545  31.555  42.292   1.735
76015W        W37546  13.629  26.997   3.214
76016W        W37547  35.581  30.071   3.333
76017W        W37548  11.841  40.409   2.744
76018W        W37549   7.179  20.118  10.892
76019W        W37550  11.351  10.383  11.056
76020W        W37551   8.231  27.138   0.889
76021W        W37552  24.172   1.924  14.397
76022W        W37553   8.779   8.813   0.262
76023W        W37554  27.995  15.812  14.351
76024W        W37555  10.347  25.511  11.452
76025W        W37556   4.924  11.711  14.931
76026W        W37557   5.360  39.329   4.619
76027W        W37558  38.998   2.860   2.405
76028W        W37559  21.719  26.638   4.206
76029W        W37560   3.828   8.355  13.999
76030W        W37561   1.953  33.101  12.071
76031W        W37562  10.378  22.217   1.265
76032W        W37563  35.003  14.632  13.059
76033W        W37564  28.998   8.199  14.317
76034W        W37565  32.564  28.514  14.983
76035W        W37566   5.262   5.736  13.870
76036W        W37567  11.149  11.733   3.647
76037W        W37568  15.613  30.993   0.756
76038W        W37569  30.573  19.222  13.860
76039W        W37570   8.240  11.250  14.287
76040W        W37571  43.508   5.383   4.751
76041W        W37572  35.543  17.657  11.934
76042W        W37573   7.251   6.329  13.038
76043W        W37574   8.777  25.149   2.378
76044W        W37575   8.788  21.117  10.581
76045W        W37576  24.030  22.185   0.961
76046W        W37577  30.962  23.232  12.448
76047W        W37578  31.923  40.469  11.437
76048W        W37579  35.069   1.292  13.040
76049W        W37580  21.639  32.447   9.547
76050W        W37581  11.858   2.741   4.332
76051W        W37582  27.997  21.071  10.062
76052W        W37583  21.574  14.816  14.324
76053W        W37584  30.907  42.351  13.419
76054W        W37585  27.631  18.672   3.846
76055W        W37586  13.248  38.359  12.375
76056W        W37587   9.704  11.703  14.994
76057W        W37588   9.284   0.960   3.786
76058W        W37589  38.873  13.717  14.455
76059W        W37590  36.564  34.986   0.383
76060W        W37591  29.014   2.283  12.012
76061W        W37592  30.122  26.960  13.427
76062W        W37593   0.484  15.246   0.799
76063W        W37594   4.845  16.175  14.477
76064W        W37595  11.743  11.317   2.219
76065W        W37596   1.973  31.968   4.152
76066W        W37597   5.230  21.228  11.509
76067W        W37598  22.578   2.808  11.540
76068W        W37599   2.441  14.645  14.284
76069W        W37600  31.006  15.175   1.232
76070W        W37601  32.018  42.305  11.921
76071W        W37602  38.419  41.898  14.359
76072W        W37603  11.271   8.325   2.297
76073W        W37604   7.681   9.661   1.276
76074W        W37605  29.527   7.766   3.741
76075W        W37606  29.438  38.044  11.895
76076W        W37607   6.266  34.508  11.897
76077W        W37608  36.075  14.103  12.538
76078W        W37609  12.170  25.496  14.372
76079W        W37610  11.742  26.466  14.927
76080W        W37611   6.302  44.858  10.066
76081W        W37612  26.155  36.948  13.806
76082W        W37613  27.658  10.174   3.794
76083W        W37614  29.126  35.597   4.348
76084W        W37615  44.462  18.630  13.942
76085W        W37616  16.653   2.418   0.261
76086W        W37617   4.427  36.974   3.812
76087W        W37618  35.564  41.990  10.449
76088W        W37619   3.279  20.172  14.837
76089W        W37620   3.856   9.824  13.489
76090W        W37621   2.468  42.791   4.183
76091W        W37622  25.215  31.530   3.748
76092W        W37623   7.726  22.586   4.759
76093W        W37624  41.984   1.952  12.076
76094W        W37625  27.102  14.161   0.965
76095W        W37626   9.783  33.966  11.517
76096W        W37627  17.223  29.424   4.787
76097W        W37628  35.460  34.989   9.942
76098W        W37629   2.471   9.860  12.953
76099W        W37630  12.126  36.012   4.801
76100W        W37631  39.382  37.905  11.899
76101W        W37632  23.537  36.896   0.877
76102W        W37633  25.997  30.486   1.746
76103W        W37634  25.003  20.053  14.901
76104W        W37635  40.365  33.624   4.761
76105W        W37636  27.944   1.279   0.765
76106W        W37637  12.689  33.418  12.910
76107W        W37638  23.704  44.372   2.254
76108W        W37639  40.431  33.974  13.330
76109W        W37640   6.683  15.788  10.429
76110W        W37641  26.579  31.069   4.241
76111W        W37642  33.081  21.755  13.927
76112W        W37643  39.436  24.625   2.271
76113W        W37644  17.293  22.173   4.177
76114W        W37645  21.652  35.417  14.480
76115W        W37646  17.556  39.826  11.494
76116W        W37647  35.457  36.468  10.464
76117W        W37648  12.320   4.737   1.415
76118W        W37649  29.154   6.234  13.369
76119W        W37650  36.447  15.200   9.476
76120W        W37651  31.638  41.315  12.988
76121W        W37652  35.076  14.105  11.933
76122W        W37653  21.048  41.969   0.951
76123W        W37654  28.007   5.820  12.528
76124W        W37655  12.708  11.318   3.869
76125W        W37656  11.344  42.508  12.461
76126W        W37657  26.506  20.530   1.439
76127W        W37658  11.731  27.140  13.895
76128W        W37659  38.336  35.859   0.754
76129W        W37660  34.941  40.882  12.489
76130W        W37661   3.409   2.462   5.252
76131W        W37662  14.214   3.798   2.340
76132W        W37663  41.041  20.084   1.813
76133W        W37664  17.114  33.602   1.264
76134W        W37665  44.409  10.679  12.001
76135W        W37666  10.382  44.897   0.399
76136W        W37667   0.407   3.946  13.451
76137W        W37668   5.216  41.314   0.427
76138W        W37669  32.887   2.225  11.530
76139W        W37670  35.889  16.082  12.993
76140W        W37671   4.322  32.143  13.803
76141W        W37672  16.566   9.326   2.787
76142W        W37673  14.100  24.167   4.123
76143W        W37674   3.394  37.035   4.611
76144W        W37675  34.999   4.337   2.238
76145W        W37676   7.894   8.240  13.871
76146W        W37677  17.747  29.471  10.493
76147W        W37678   1.292   4.872  12.961
76148W        W37679   7.887  32.969   3.794
76149W        W37680  31.555  31.554  12.941
76150W        W37681  14.234  28.937   0.480
76151W        W37682   2.304   5.927  12.949
76152W        W37683  13.316  16.140  11.969
76153W        W37684  42.349   0.352   0.363
76154W        W37685  18.189   1.317  11.091
76155W        W37686  26.961  36.871  14.462
76156W        W37687  28.080   4.251  14.444
76157W        W37688   8.345  33.887   0.465
76158W        W37689  18.266  10.710  11.575
76159W        W37690  32.014  33.940  14.473
76160W        W37691  19.598   5.727  11.935
76161W        W37692  38.916  24.601  10.518
76162W        W37693  44.310  36.003  14.300
76163W        W37694  29.489   6.247   4.279
76164W        W37695  43.818  22.205   3.761
76165W        W37696  32.477  31.505  12.535
76166W        W37697  44.377  28.021   4.741
76167W        W37698  16.663  11.351  10.617
76168W        W37699  31.105  12.139  10.535
76169W        W37700  17.593   3.799  13.940
76170W        W37701  42.309  34.013  14.883
76171W        W37702   4.213  39.025  12.355
76172W        W37703  41.789  31.148  13.409
76173W        W37704  32.493  42.973   0.346
76174W        W37705   6.370   5.383  13.455
76175W        W37706   3.919  19.685   3.787
76176W        W37707  15.760  15.616   1.844
76177W        W37708  20.657  26.208   3.818
76178W        W37709   6.417  26.026  12.503
76179W        W37710   3.346  10.773  11.398
76180W        W37711  42.367   4.332  11.390
76181W        W37712   9.886   2.456  14.012
76182W        W37713  35.385  36.880   0.802
76183W        W37714  11.638  20.083   2.246
76184W        W37715  30.616  12.121   3.309
76185W        W37716  34.870  29.633   1.764
76186W        W37717  43.779   4.442  12.972
76187W        W37718  25.114   8.281  14.831
76188W        W37719  37.055  35.536   3.339
76189W        W37720  10.331  44.930   5.318
76190W        W37721  30.624  20.588   4.212
76191W        W37722  31.471  17.727   4.704
76192W        W37723   5.311   1.333   4.772
76193W        W37724  13.260  32.563  13.852
76194W        W37725  15.614   4.359  13.798
76195W        W37726  37.430  38.423  12.483
76196W        W37727  18.670   4.418  14.805
76197W        W37728  21.117   0.335  12.434
76198W        W37729   9.681  16.244  10.530
76199W        W37730   9.262  21.545   2.710
76200W        W37731  13.142  25.074   0.802
76201W        W37732  32.119  43.442   3.730
76202W        W37733  34.486  40.009   0.291
76203W        W37734  22.639   4.787  10.527
76204W        W37735   3.736  27.675   4.319
76205W        W37736  24.721  14.263  13.434
76206W        W37737   4.219  36.973  11.073
76207W        W37738  44.380   9.333  11.017
76208W        W37739  38.405   3.239  13.463
76209W        W37740  13.275  13.329   4.160
76210W        W37741  15.264  21.181  10.484
76211W        W37742  39.036  19.138   2.264
76212W        W37743  38.990  35.958  10.430
76213W        W37744  11.138  11.807  11.586
76214W        W37745  14.599  12.176   3.152
76215W        W37746  22.528  18.152   2.282
76216W        W37747  22.643  41.437   3.670
76217W        W37748  10.759  23.684  14.495
76218W        W37749   2.342  41.990   1.383
76219W        W37750  20.724  41.521  11.435
76220W        W37751   7.681  16.792  11.422
76221W        W37752  37.929  31.945   3.643
76222W        W37753  30.482  32.560  13.415
76223W        W37754  35.068  28.097   1.926
76224W        W37755  42.308   1.431   0.359
76225W        W37756   2.939  41.468  13.792
76226W        W37757  41.974  15.327  11.088
76227W        W37758   3.878   3.349  14.404
76228W        W37759  31.613   0.488  14.433
76229W        W37760  11.202  27.455   3.750
76230W        W37761   2.410  34.591  12.955
76231W        W37762  12.655   4.732   4.615
76232W        W37763  14.333  26.501   5.236
76233W        W37764  32.557   8.867   4.738
76234W        W37765  14.792  12.185  12.947
76235W        W37766   9.279  28.062   3.773
76236W        W37767  12.661  11.750   3.174
76237W        W37768  36.897  15.682  13.930
76238W        W37769  39.047  34.910  13.864
76239W        W37770  32.102  10.367   2.900
76240W        W37771  25.126  10.334   3.803
76241W        W37772  21.227   6.842  10.520
76242W        W37773  37.980  19.276   1.216
76243W        W37774  27.948  39.509  14.792
76244W        W37775   5.258   7.210   3.632
76245W        W37776  43.379  41.904   2.190
76246W        W37777  43.483   2.313  11.091
76247W        W37778  34.476  29.575  11.059
76248W        W37779   3.872  20.702   2.351
76249W        W37780  41.978  16.221  10.454
76250W        W37781  29.467  22.669   2.821
76251W        W37782  39.548   2.366   0.260
76252W        W37783  14.124  39.002  11.403
76253W        W37784   6.804  26.467   3.814
76254W        W37785  35.952  11.809   0.385
76255W        W37786  36.413  35.105  11.938
76256W        W37787  26.018   4.841  10.448
76257W        W37788  38.009  13.687  11.925
76258W        W37789  24.143  12.124   1.830
76259W        W37790   2.228  25.207  14.870
76260W        W37791  23.638  13.178  13.993
76261W        W37792   6.878   4.355   4.813
76262W        W37793   2.836  29.448  12.962
76263W        W37794  42.021  17.600   4.175
76264W        W37795  30.957   8.812  12.904
76265W        W37796  31.128  30.653  11.554
76266W        W37797  36.917   7.350  14.415
76267W        W37798  30.609   8.361   4.154
76268W        W37799   2.333  39.340  13.959
76269W        W37800  19.165  32.075   0.787
76270W        W37801  29.536   3.878  12.469
76271W        W37802  33.130   7.252  13.916
76272W        W37803  13.661  33.442  11.909
76273W        W37804  27.495  43.936   0.417
76274W        W37805   4.314  41.495   3.757
76275W        W37806   1.771   4.252   3.315
76276W        W37807   1.469  24.148   4.195
76277W        W37808  34.955   5.336   3.181
76278W        W37809   3.835  15.324   1.883
76279W        W37810  26.644  43.414  14.839
76280W        W37811  41.868   6.284  14.457
76281W        W37812  36.353  33.072  11.561
76282W        W37813  29.600  28.139   9.989
76283W        W37814  27.942  37.064  14.299
76284W        W37815  23.108  41.842  13.491
76285W        W37816  43.991   1.317   3.766
76286W        W37817  26.465   0.931  14.324
76287W        W37818  22.558   6.250   5.109
76288W        W37819   6.291   4.397  14.801
76289W        W37820  34.059  24.629  11.861
76290W        W37821  25.151   3.742   0.286
76291W        W37822  13.740  10.846  12.092
76292W        W37823  13.286  16.662   1.346
76293W        W37824  15.288   7.875   1.252
76294W        W37825  34.006  43.351   4.122
76295W        W37826  10.790  14.599  12.906
76296W        W37827   2.949  25.001   2.663
76297W        W37828  24.179  32.989  12.063
76298W        W37829  22.213  25.540  11.376
76299W        W37830  37.845  44.453  13.334
76300W        W37831   3.925  19.668  11.442
76301W        W37832  40.472  44.476   0.919
76302W        W37833  20.088  36.376   3.679
76303W        W37834  40.967  35.392  12.426
76304W        W37835  20.115  34.931  12.919
76305W        W37836  28.500  11.821   4.824
76306W        W37837   9.751  21.050  11.044
76307W        W37838  29.587  31.960  10.037
76308W        W37839  43.776  28.134  11.611
76309W        W37840  10.196  24.720   2.318
76310W        W37841  17.146  19.695  14.000
76311W        W37842  44.497  40.966  13.413
76312W        W37843  35.924  44.756  13.377
76313W        W37844  25.030  18.216   9.958
76314W        W37845   8.308  30.514  13.876
76315W        W37846  15.232   0.768   4.259
76316W        W37847  11.833  26.178   2.822
76317W        W37848  20.735  28.102   1.375
76318W        W37849  19.756   8.372   2.338
76319W        W37850  40.996  33.424  13.377
76320W        W37851  44.902  41.458   3.181
76321W        W37852  21.185  41.871  10.637
76322W        W37853  10.798  33.101   0.828
76323W        W37854  38.993  36.983   5.148
76324W        W37855  16.639  21.729   4.197
76325W        W37856  32.131  26.979  13.805
76326W        W37857   6.314  23.532  12.364
76327W        W37858  40.497   7.387   4.765
76328W        W37859  26.563  41.448  11.896
76329W        W37860  18.293  29.482  12.365
76330W        W37861   8.658  18.762  13.345
76331W        W37862  18.637  29.444   0.424
76332W        W37863  24.065  13.230   2.276
76333W        W37864  31.153  38.389   2.723
76334W        W37865  37.354  32.479  13.379
76335W        W37866  33.002  39.982  11.566
76336W        W37867  18.104  35.904   2.826
76337W        W37868  16.143  22.572   0.415
76338W        W37869  31.141  43.952   1.902
76339W        W37870  13.283  13.724   1.393
76340W        W37871  21.749  17.744  12.049
76341W        W37872   0.408  12.615   1.236
76342W        W37873   6.773  40.846   0.334
76343W        W37874   5.395  39.819   2.190
76344W        W37875  10.658   2.883   2.900
76345W        W37876  40.990  17.664  12.943
76346W        W37877  20.616  21.516   4.663
76347W        W37878  26.175  21.179   0.769
76348W        W37879  37.895  33.975   1.879
76349W        W37880  43.505  38.053   1.850
76350NA+    NA+37881  31.021   9.225   4.324
76351NA+    NA+37882  10.312  29.011   0.286
76352NA+    NA+37883  13.729   8.761   3.660
76353NA+    NA+37884  31.071   0.455  11.573
76354NA+    NA+37885  29.969  22.193   0.934
76355NA+    NA+37886  42.947  44.005   0.254
76356NA+    NA+37887  29.460  39.357   0.274
76357NA+    NA+37888  10.714  27.511  11.104
76358NA+    NA+37889  36.501  38.054  14.387
76359NA+    NA+37890  22.644   9.872  13.928
76360NA+    NA+37891  19.054   9.185  11.560
76361NA+    NA+37892  24.680  12.277  11.859
76362NA+    NA+37893   4.903  43.334  10.083
76363NA+    NA+37894  37.911  33.469   2.680
76364NA+    NA+37895   0.888   2.863   0.800
76365NA+    NA+37896  31.111  27.196  12.899
76366NA+    NA+37897   1.302   5.288   1.274
76367NA+    NA+37898   7.225  20.560  14.779
76368NA+    NA+37899  26.543  18.568   2.838
76369NA+    NA+37900  27.595  18.752  13.307
76370NA+    NA+37901   3.269  11.138  12.387
76371NA+    NA+37902  42.296  22.581  11.064
76372NA+    NA+37903  40.816  39.975  10.567
76373NA+    NA+37904   2.238   4.924   0.360
76374NA+    NA+37905  35.958  30.495   3.666
76375NA+    NA+37906  12.264  17.220  11.590
76376NA+    NA+37907  35.380  40.836   1.778
76377NA+    NA+37908  35.069  10.248   1.934
76378NA+    NA+37909  17.711  22.701  14.840
76379NA+    NA+37910  33.965  29.562   0.892
76380NA+    NA+37911  15.579   1.322   0.823
76381NA+    NA+37912  21.601  13.778   0.914
76382NA+    NA+37913  26.123  39.935  14.953
76383NA+    NA+37914  16.211   8.837   0.917
76384NA+    NA+37915  43.881  25.602   2.710
76385NA+    NA+37916  31.557   5.799  13.957
76386NA+    NA+37917  43.970  29.515  13.988
76387NA+    NA+37918  41.977  27.045   4.257
76388NA+    NA+37919   2.230  19.183   3.374
76389NA+    NA+37920  16.205  41.899   3.665
76390NA+    NA+37921   5.807  33.626  12.908
76391NA+    NA+37922  16.801  13.194   1.359
76392NA+    NA+37923   1.900  32.067  13.021
76393NA+    NA+37924  31.074  28.517  11.556
76394NA+    NA+37925  14.595  11.735   5.192
76395NA+    NA+37926   5.697  20.726   0.370
76396NA+    NA+37927   2.928  37.571  13.463
76397NA+    NA+37928   4.773  29.605  13.326
76398NA+    NA+37929  22.050  41.526   1.816
76399NA+    NA+37930  30.098  28.063  10.581
76400NA+    NA+37931  41.956  21.731   2.755
76401NA+    NA+37932  13.134  30.423  11.904
76402NA+    NA+37933   7.267  25.478   0.888
76403NA+    NA+37934  26.699  24.548   0.815
76404NA+    NA+37935  41.493   8.660  11.387
76405NA+    NA+37936  12.799  14.325  13.386
76406NA+    NA+37937  36.978   0.831   4.777
76407NA+    NA+37938  38.987  11.328   0.778
76408NA+    NA+37939  29.013   7.286  13.454
76409NA+    NA+37940  21.027  42.989   0.407
76410NA+    NA+37941  15.671  36.969  11.471
76411NA+    NA+37942   3.300  21.087  14.308
76412NA+    NA+37943  42.800   3.434   2.271
76413NA+    NA+37944  25.178  32.004   4.213
76414NA+    NA+37945  39.506  32.616  14.447
76415NA+    NA+37946   9.760  32.115  13.484
76416NA+    NA+37947   0.934  10.263  13.004
76417NA+    NA+37948   6.321  37.888  12.988
76418NA+    NA+37949  26.084  34.875  13.356
76419NA+    NA+37950  30.926   9.838  10.411
76420NA+    NA+37951  32.476  19.165  14.447
76421NA+    NA+37952  16.732  29.080  10.959
76422NA+    NA+37953   5.798  20.187  14.904
76423NA+    NA+37954  36.509  19.680  12.094
76424NA+    NA+37955  36.579  41.408  11.012
76425NA+    NA+37956  14.329  41.462  14.900
76426NA+    NA+37957  28.176  30.650  13.517
76427NA+    NA+37958  16.305   5.409   1.327
76428NA+    NA+37959  38.952  25.575  12.871
76429NA+    NA+37960  17.558   9.772  11.440
76430NA+    NA+37961  40.984  35.982   3.208
76431NA+    NA+37962   1.926  11.829  13.025
76432NA+    NA+37963  15.189  11.661   2.374
76433NA+    NA+37964  32.973  31.446  13.530
76434NA+    NA+37965  37.064  26.614   2.199
76435NA+    NA+37966  11.183  18.166   0.288
76436NA+    NA+37967  35.939  26.144   4.717
76437NA+    NA+37968  36.891  16.121   4.145
76438NA+    NA+37969   9.681  27.630  14.467
76439NA+    NA+37970   0.912  11.807  14.345
76440NA+    NA+37971  12.322  20.690   0.403
76441NA+    NA+37972   3.835  35.575   4.217
76442NA+    NA+37973   4.211   3.800  12.572
76443NA+    NA+37974  15.653  27.567   0.758
76444NA+    NA+37975  34.564  23.150  11.116
76445NA+    NA+37976  36.398  43.512   4.354
76446NA+    NA+37977   6.902  26.184  14.411
76447NA+    NA+37978  44.902  20.049  13.454
76448NA+    NA+37979   8.211   1.271  12.872
76449NA+    NA+37980   3.810   6.270  13.416
76450NA+    NA+37981   1.267  21.192   1.910
76451NA+    NA+37982  42.443  22.166  11.373
76452NA+    NA+37983   0.418  38.978   3.732
76453NA+    NA+37984   9.809   3.920   2.373
76454NA+    NA+37985  28.153  29.437   2.800
76455NA+    NA+37986   7.384  39.450  10.598
76456NA+    NA+37987   7.221  14.213  11.524
76457NA+    NA+37988  27.617  30.120  12.953
76458NA+    NA+37989  23.510   0.381   2.831
76459NA+    NA+37990  40.965  15.627  10.447
76460NA+    NA+37991  42.421  20.061   2.872
76461NA+    NA+37992  34.370  19.278  14.002
76462NA+    NA+37993   3.401  39.428   4.810
76463NA+    NA+37994  38.459  38.060   0.390
76464NA+    NA+37995   5.827   0.876   4.114
76465NA+    NA+37996  20.666   7.748  11.901
76466NA+    NA+37997  31.488   1.472  14.816
76467NA+    NA+37998  12.820  17.597   0.879
76468NA+    NA+37999  38.509  29.446   3.295
76469NA+    NA+38000  15.646  15.619  13.993
76470NA+    NA+38001   2.955  14.310  14.856
76471NA+    NA+38002  30.109   5.337   4.154
76472NA+    NA+38003  31.081  20.140   2.735
76473NA+    NA+38004  27.130  15.635  12.417
76474NA+    NA+38005  34.070  18.089   5.309
76475NA+    NA+38006  42.409  24.018   3.673
76476NA+    NA+38007  29.626  28.141   0.361
76477NA+    NA+38008  36.515  42.482   3.260
76478NA+    NA+38009   4.302  12.824   0.316
76479NA+    NA+38010  13.695  15.723  12.538
76480NA+    NA+38011  23.032  25.999  12.889
76481NA+    NA+38012  24.705  10.223   2.892
76482NA+    NA+38013  19.724  10.754  13.361
76483NA+    NA+38014  28.567  35.110   2.830
76484NA+    NA+38015  23.037  39.860  14.299
76485NA+    NA+38016  14.241   0.326   0.765
76486NA+    NA+38017  24.155  34.072  14.325
76487NA+    NA+38018  24.203   2.810   4.664
76488NA+    NA+38019  27.658  43.435   3.161
76489NA+    NA+38020  25.031  15.739   3.725
76490NA+    NA+38021  29.430  34.526  11.026
76491NA+    NA+38022   7.409  29.533  14.886
76492NA+    NA+38023  26.022  21.636   4.767
76493NA+    NA+38024  36.395   7.346   4.797
76494NA+    NA+38025   2.753   2.310  10.471
76495NA+    NA+38026   8.225  37.026   2.892
76496NA+    NA+38027   3.802   3.934   1.242
76497NA+    NA+38028  29.117   6.303   2.394
76498NA+    NA+38029   7.676  36.567   4.303
76499NA+    NA+38030  12.132  44.839   0.258
76500NA+    NA+38031  38.883  12.660   2.847
76501NA+    NA+38032  23.612  29.424   0.469
76502NA+    NA+38033   7.203  34.884  11.397
76503NA+    NA+38034  26.025  30.106  12.880
76504NA+    NA+38035   5.416  38.505  14.982
76505NA+    NA+38036  21.548  21.566  13.524
76506NA+    NA+38037  23.556  35.982  12.034
76507NA+    NA+38038  32.132  39.363  11.577
76508NA+    NA+38039  23.201  23.539   1.808
76509NA+    NA+38040   8.666  15.728   1.862
76510NA+    NA+38041  40.921  28.067  14.320
76511NA+    NA+38042  26.563  41.443   3.784
76512NA+    NA+38043  37.447  26.013  11.492
76513NA+    NA+38044   4.448  13.214  10.488
76514NA+    NA+38045  33.089  22.090   3.176
76515NA+    NA+38046   6.703   0.863   3.724
76516NA+    NA+38047  28.498  38.826   3.164
76517NA+    NA+38048  18.291  32.405  14.511
76518NA+    NA+38049  23.069  39.973  12.513
76519NA+    NA+38050  33.392  27.112   1.899
76520NA+    NA+38051  43.377  21.757   0.290
76521NA+    NA+38052  39.855   1.430   4.833
76522NA+    NA+38053  24.189  10.654  14.959
76523NA+    NA+38054  20.722  43.935  10.995
76524NA+    NA+38055   7.883  27.041   3.355
76525NA+    NA+38056  13.154  18.778   9.985
76526NA+    NA+38057  26.674  15.227  12.852
76527NA+    NA+38058  28.604  22.174  11.443
76528NA+    NA+38059  44.853   7.285   3.381
76529NA+    NA+38060  11.129  24.694  14.008
76530NA+    NA+38061   5.256  33.521   2.309
76531NA+    NA+38062   8.797   9.644  14.848
76532NA+    NA+38063  37.390  30.100   0.357
76533NA+    NA+38064  32.898   2.311   0.472
76534NA+    NA+38065  28.567   2.450   0.437
76535NA+    NA+38066   6.767  26.118  13.847
76536NA+    NA+38067  34.541  27.601   2.330
76537NA+    NA+38068  20.591  42.409   9.997
76538NA+    NA+38069  34.037  30.047  10.915
76539NA+    NA+38070  32.409  18.713   3.678
76540NA+    NA+38071  12.325  27.142   4.197
76541NA+    NA+38072   2.818  31.133   1.216
76542NA+    NA+38073  26.521  26.548   2.403
76543NA+    NA+38074   7.253  14.221   2.254
76544NA+    NA+38075  12.713   5.768  12.555
76545NA+    NA+38076  35.953   5.362  12.454
76546NA+    NA+38077  37.064   0.884  11.409
76547NA+    NA+38078  11.716  32.398  14.513
76548NA+    NA+38079  23.684  27.108  14.023
76549NA+    NA+38080  22.605  12.850   3.673
76550NA+    NA+38081  12.809   4.731  11.946
76551NA+    NA+38082   5.856  39.931   1.250
76552NA+    NA+38083  26.191   1.748  12.554
76553NA+    NA+38084  31.154  26.135  14.882
76554NA+    NA+38085   5.879  43.462   2.777
76555NA+    NA+38086  24.188  37.552   3.162
76556NA+    NA+38087  22.605  32.073  13.492
76557NA+    NA+38088  44.428   5.844  11.965
76558NA+    NA+38089   7.253  25.646   0.326
76559NA+    NA+38090   7.268   2.943  10.575
76560NA+    NA+38091  34.447  42.281  11.129
76561NA+    NA+38092   4.316   7.317  12.348
76562NA+    NA+38093  16.748  17.137  14.980
76563NA+    NA+38094  31.462  24.571  10.498
76564NA+    NA+38095  36.374  16.309  10.488
76565NA+    NA+38096  25.030   2.368   2.305
76566NA+    NA+38097  35.046  24.031   2.891
76567NA+    NA+38098   1.376  28.632   4.734
76568NA+    NA+38099  40.425  35.060  13.429
76569NA+    NA+38100  31.981  29.528  13.508
76570NA+    NA+38101  12.201   2.426  13.883
76571NA+    NA+38102  22.206  29.584  10.008
76572NA+    NA+38103   8.170  38.351   1.322
76573NA+    NA+38104  13.307  16.144   4.618
76574NA+    NA+38105   5.802   0.433   3.282
76575NA+    NA+38106  36.024  38.366   0.423
76576NA+    NA+38107   7.183   5.307  11.464
76577NA+    NA+38108   5.374   0.821  13.048
76578NA+    NA+38109   6.716  19.548   1.861
76579NA+    NA+38110  40.000   6.250   3.154
76580NA+    NA+38111  38.529  13.812  12.859
76581NA+    NA+38112  20.637   4.822   1.756
76582NA+    NA+38113  36.009  27.047  14.483
76583NA+    NA+38114  37.922  12.262  10.987
76584NA+    NA+38115   2.280  37.465  13.314
76585NA+    NA+38116  19.736  14.329  14.814
76586NA+    NA+38117  36.026  29.139   2.192
76587NA+    NA+38118  20.173  36.374   4.310
76588NA+    NA+38119  33.527  38.059  13.029
76589NA+    NA+38120  39.871  40.331  14.913
76590NA+    NA+38121  26.674   8.684  12.908
76591NA+    NA+38122  40.829  19.077  14.788
76592NA+    NA+38123  21.154  21.125   5.240
76593NA+    NA+38124  40.489   1.821   4.662
76594NA+    NA+38125  18.051  26.558  10.528
76595NA+    NA+38126  30.538  41.471  13.520
76596NA+    NA+38127   1.895  13.844   0.777
76597NA+    NA+38128   4.769  44.810   2.843
76598NA+    NA+38129  37.849  11.131   5.234
76599NA+    NA+38130  21.561  43.006  12.456
76600NA+    NA+38131  29.937   0.987  12.514
76601NA+    NA+38132   6.745  25.134   4.144
76602NA+    NA+38133  20.105  42.905  11.972
76603NA+    NA+38134   3.325  42.982   4.776
76604NA+    NA+38135  24.517  28.033   3.673
76605NA+    NA+38136  16.105  39.478   1.770
76606NA+    NA+38137   7.867  32.078   0.767
76607NA+    NA+38138   2.388  37.532  14.448
76608NA+    NA+38139  15.688  13.661  14.989
76609NA+    NA+38140  17.132  23.493   0.390
76610NA+    NA+38141  29.642  28.611   1.721
76611NA+    NA+38142  12.753  44.841  14.442
76612NA+    NA+38143  36.492  41.940  10.603
76613NA+    NA+38144  42.453  37.478   4.620
76614NA+    NA+38145  43.858   0.345  13.316
76615NA+    NA+38146  10.636  22.730  12.409
76616NA+    NA+38147   0.850   2.926  13.416
76617NA+    NA+38148  15.769  21.111   4.670
76618NA+    NA+38149  28.139  19.718  14.953
76619NA+    NA+38150  39.944  41.437  12.375
76620NA+    NA+38151  14.257  34.049  10.410
76621NA+    NA+38152  19.772   2.382   0.726
76622NA+    NA+38153  41.442  38.998  12.397
76623NA+    NA+38154  37.062   6.849   0.950
76624NA+    NA+38155  28.529  21.715   2.336
76625NA+    NA+38156  42.285   2.813  13.449
76626NA+    NA+38157  12.174  15.799  11.886
76627NA+    NA+38158  36.983  15.285   4.711
76628NA+    NA+38159  24.980  37.029  12.456
76629NA+    NA+38160  30.642  17.117   5.103
76630NA+    NA+38161  39.328  42.395   3.156
76631NA+    NA+38162  36.852  33.543  12.082
76632NA+    NA+38163  43.467   3.348  14.349
76633NA+    NA+38164  14.825  11.139  14.498
76634NA+    NA+38165  19.604  10.306  10.889
76635NA+    NA+38166  35.907   1.266  12.393
76636NA+    NA+38167  20.598  19.062   3.748
76637NA+    NA+38168  28.446   8.292  13.834
76638NA+    NA+38169   2.724  44.006  11.951
76639NA+    NA+38170  22.639  10.315   1.704
76640NA+    NA+38171  33.926  23.657  11.605
76641NA+    NA+38172   0.899  36.566  10.497
76642NA+    NA+38173  30.461  17.171  12.554
76643NA+    NA+38174  17.124  31.143   4.814
76644NA+    NA+38175  19.656  18.658   3.147
76645NA+    NA+38176   1.772  26.123   3.859
76646NA+    NA+38177  35.038  22.154   3.694
76647NA+    NA+38178  35.593  10.300  10.954
76648NA+    NA+38179   5.709  41.395   4.163
76649NA+    NA+38180  39.942  26.183  13.376
76650NA+    NA+38181  10.355  18.083  10.126
76651NA+    NA+38182   7.301   1.799  11.119
76652NA+    NA+38183  29.505  14.634   1.342
76653NA+    NA+38184  31.498   8.890   4.168
76654NA+    NA+38185  26.468   9.312  12.949
76655NA+    NA+38186   0.889  31.623   2.770
76656NA+    NA+38187  18.144  19.173  13.060
76657NA+    NA+38188  23.154  22.104  14.512
76658NA+    NA+38189  10.877   9.795  14.476
76659NA+    NA+38190  23.557  38.410  14.815
76660NA+    NA+38191  10.786  30.072  10.927
76661NA+    NA+38192  18.666  25.505   4.113
76662NA+    NA+38193  42.481  40.436  14.021
76663NA+    NA+38194  42.294  28.998   1.739
76664NA+    NA+38195  21.683  30.130   4.200
76665NA+    NA+38196  43.852  34.431   2.255
76666NA+    NA+38197  43.959  24.015   3.352
76667NA+    NA+38198  26.494  20.137  14.381
76668NA+    NA+38199  33.581   7.379   3.758
76669NA+    NA+38200  31.933  44.804   2.732
76670NA+    NA+38201  43.322  13.345  11.425
76671NA+    NA+38202  17.088   0.466   1.755
76672NA+    NA+38203  14.340  12.284  10.930
76673NA+    NA+38204  29.154  37.002   1.790
76674NA+    NA+38205   6.852  21.027   4.649
76675NA+    NA+38206  13.647  38.402   3.849
76676NA+    NA+38207  38.404  36.884  14.503
76677NA+    NA+38208   3.335  21.612  14.827
76678NA+    NA+38209  37.512   6.214  11.969
76679NA+    NA+38210  30.043  20.681  11.055
76680NA+    NA+38211  33.115  28.648   1.333
76681NA+    NA+38212  18.105  44.399  12.541
76682NA+    NA+38213  18.129   8.872  12.480
76683NA+    NA+38214   9.209  15.308   3.264
76684NA+    NA+38215   4.938  43.981  13.021
76685NA+    NA+38216   1.393  38.527  12.075
76686NA+    NA+38217  32.410  31.974   2.886
76687NA+    NA+38218  28.609  12.356   2.312
76688NA+    NA+38219  18.271  37.400   1.340
76689NA+    NA+38220  37.912  29.120  10.107
76690NA+    NA+38221  28.953   5.786  14.933
76691NA+    NA+38222   5.725   2.299  13.982
76692NA+    NA+38223  13.194  42.374  10.608
76693NA+    NA+38224   1.837  17.587   4.261
76694NA+    NA+38225  37.556  23.494   4.825
76695NA+    NA+38226  26.472  39.870   3.276
76696NA+    NA+38227  18.243  25.527   4.689
76697NA+    NA+38228   1.288  36.492  14.394
76698NA+    NA+38229   8.335  41.910   0.303
76699NA+    NA+38230  29.116  23.085  11.867
76700NA+    NA+38231   6.742   8.772   1.799
76701NA+    NA+38232  20.095  42.955   2.269
76702NA+    NA+38233   4.214   7.684   3.267
76703NA+    NA+38234  27.135  38.961  11.990
76704NA+    NA+38235  18.779  44.456   0.757
76705NA+    NA+38236   7.666  34.012   4.213
76706NA+    NA+38237  36.993  18.086  13.943
76707NA+    NA+38238  27.165  29.470   1.839
76708NA+    NA+38239  10.372  40.911  14.890
76709NA+    NA+38240   1.458  32.449  13.847
76710NA+    NA+38241  18.781   6.873   4.830
76711NA+    NA+38242  36.911  38.528   0.763
76712NA+    NA+38243  25.602   0.476   1.912
76713NA+    NA+38244  25.967  37.391   0.245
76714NA+    NA+38245  10.192  27.014   3.687
76715NA+    NA+38246  40.814  33.505   1.296
76716NA+    NA+38247  30.990  43.452   4.192
76717NA+    NA+38248   5.758  16.792  11.523
76718NA+    NA+38249  24.101  15.749   1.328
76719NA+    NA+38250  25.986  16.306  11.124
76720NA+    NA+38251   3.806  24.592  14.348
76721NA+    NA+38252  17.277  23.190   5.222
76722NA+    NA+38253  33.606  31.613  14.891
76723NA+    NA+38254  15.751  28.637  14.935
76724NA+    NA+38255  31.129  26.190   1.837
76725NA+    NA+38256   3.928  40.423   3.728
76726NA+    NA+38257  16.643  16.725   3.283
76727NA+    NA+38258  16.195  24.184  14.276
76728NA+    NA+38259  44.978  43.898   2.327
76729NA+    NA+38260  28.571   7.366   2.239
76730NA+    NA+38261  18.285  44.277   1.923
76731NA+    NA+38262  25.083  27.155   4.354
76732NA+    NA+38263  30.992  13.611   0.753
76733NA+    NA+38264  38.000   3.741  10.437
76734NA+    NA+38265  26.694  26.962  10.979
76735NA+    NA+38266  11.363  36.575   1.212
76736NA+    NA+38267   4.312  13.644  14.760
76737NA+    NA+38268  18.727  23.233   2.736
76738NA+    NA+38269  10.156   5.426   1.429
76739NA+    NA+38270  16.610  18.728   2.236
76740NA+    NA+38271  34.103  27.135  11.566
76741NA+    NA+38272  15.699  14.734   3.299
76742NA+    NA+38273   7.236  35.397  14.944
76743NA+    NA+38274  34.491  36.028   0.829
76744NA+    NA+38275  16.279  26.165  11.541
76745NA+    NA+38276  14.311   0.939  11.474
76746NA+    NA+38277  26.170   7.363   0.273
76747NA+    NA+38278  37.514  16.105   2.749
76748NA+    NA+38279   7.401   0.816   0.905
76749NA+    NA+38280  17.702  38.361   1.855
76750NA+    NA+38281  41.024  25.498   0.810
76751NA+    NA+38282  23.106  32.525  11.605
76752NA+    NA+38283  13.309  20.748   2.408
76753NA+    NA+38284  16.145  13.743   0.331
76754NA+    NA+38285  11.842  42.901   3.321
76755NA+    NA+38286  26.188  13.842  13.806
76756NA+    NA+38287  21.093  20.046  10.914
76757NA+    NA+38288  25.614  39.898  13.878
76758NA+    NA+38289  30.421   4.757   0.892
76759NA+    NA+38290  10.190  25.214   2.663
76760NA+    NA+38291   9.193  33.544   5.124
76761NA+    NA+38292  36.374  37.883   0.821
76762NA+    NA+38293  34.910   6.270  14.441
76763NA+    NA+38294  37.844  21.257  12.404
76764NA+    NA+38295  24.562   6.345   1.857
76765NA+    NA+38296   4.737  33.929   3.648
76766NA+    NA+38297  32.506  37.047   3.760
76767NA+    NA+38298  37.868  44.382   1.352
76768NA+    NA+38299  27.545  40.942   0.792
76769NA+    NA+38300  35.491  10.725  13.884
76770NA+    NA+38301   7.730   4.792   2.392
76771NA+    NA+38302  35.001   7.862  11.438
76772NA+    NA+38303  25.484   9.884  10.586
76773NA+    NA+38304  33.441  43.935  12.430
76774NA+    NA+38305  27.459  30.933   3.640
76775NA+    NA+38306  32.457  40.482   4.283
76776NA+    NA+38307   2.271  27.968  14.975
76777NA+    NA+38308  25.126   2.917   0.836
76778NA+    NA+38309  17.301   0.485  12.094
76779NA+    NA+38310   4.254  29.591   1.299
76780NA+    NA+38311  31.047  24.536   0.919
76781NA+    NA+38312  30.520  42.026   3.822
76782NA+    NA+38313  37.857   0.376  10.942
76783NA+    NA+38314  22.213  18.242  13.307
76784NA+    NA+38315  23.620  33.019  13.307
76785NA+    NA+38316  20.700  29.959  12.458
76786NA+    NA+38317  39.897  27.116  12.961
76787NA+    NA+38318  22.519  14.734  11.596
76788NA+    NA+38319   1.270   4.846   4.779
76789NA+    NA+38320   3.919  42.408   0.833
76790NA+    NA+38321  10.142  41.870   4.187
76791NA+    NA+38322  25.496  43.390   1.434
76792NA+    NA+38323  26.645   1.407  14.789
76793NA+    NA+38324   0.938  43.011   0.473
76794NA+    NA+38325  37.048  21.713   3.276
76795NA+    NA+38326  24.548  13.755  14.787
76796NA+    NA+38327   8.878  32.956  11.392
76797NA+    NA+38328  29.424   2.278   5.183
76798NA+    NA+38329  26.648  25.013   0.270
76799NA+    NA+38330  34.022  36.877  14.795
76800NA+    NA+38331  27.968  23.104  13.988
76801NA+    NA+38332  11.214   6.881   0.918
76802NA+    NA+38333  41.899  30.631  14.323
76803NA+    NA+38334  24.615  36.050  13.325
76804NA+    NA+38335   4.802  31.020  14.415
76805NA+    NA+38336  41.955  43.876   3.201
76806NA+    NA+38337  10.768  30.413   0.806
76807NA+    NA+38338  26.561  40.880  14.807
76808NA+    NA+38339  12.780  22.007   1.276
76809NA+    NA+38340  17.720  17.691  14.493
76810NA+    NA+38341  26.105   3.861  10.962
76811NA+    NA+38342   2.417  31.412   0.876
76812NA+    NA+38343   1.422   2.300   4.619
76813NA+    NA+38344  31.550  32.498  14.759
76814NA+    NA+38345  22.669  38.060  11.445
76815NA+    NA+38346  44.875  32.903  14.416
76816NA+    NA+38347  25.049  25.034   4.702
76817NA+    NA+38348  17.726  39.983   2.801
76818NA+    NA+38349  17.609  20.153   0.815
76819NA+    NA+38350  10.666  39.954   0.253
76820NA+    NA+38351  14.805  36.464  11.518
76821NA+    NA+38352  44.799  42.815   0.420
76822NA+    NA+38353  15.577  18.783   5.270
76823NA+    NA+38354  35.397  32.625  11.014
76824NA+    NA+38355  21.539   8.796   4.632
76825NA+    NA+38356  26.005  39.503   2.182
76826NA+    NA+38357  10.845  26.078   1.813
76827NA+    NA+38358  14.686  41.362   1.289
76828NA+    NA+38359  30.515  41.328   1.378
76829NA+    NA+38360   6.418  27.655   4.630
76830NA+    NA+38361  15.775  25.616  12.924
76831NA+    NA+38362  16.292  25.179  10.629
76832NA+    NA+38363  31.584  18.699  12.855
76833NA+    NA+38364  41.333  16.751   4.211
76834NA+    NA+38365   4.817  35.096   2.198
76835NA+    NA+38366  36.541   2.798   0.315
76836NA+    NA+38367  32.424  33.928   0.428
76837NA+    NA+38368  36.055  16.673   1.354
76838NA+    NA+38369  42.307  26.695   3.190
76839NA+    NA+38370  20.159   5.403   0.410
76840NA+    NA+38371  37.569  16.193   4.240
76841NA+    NA+38372  34.972   5.207   1.858
76842NA+    NA+38373  17.599  10.667  13.971
76843NA+    NA+38374  41.354   2.721   2.300
76844NA+    NA+38375  23.519   1.777   2.791
76845NA+    NA+38376  28.141  15.312   3.276
76846NA+    NA+38377   4.903  23.731  14.425
76847NA+    NA+38378  36.347  13.774   1.722
76848NA+    NA+38379  40.320   8.770   2.266
76849NA+    NA+38380  32.579  33.599  10.546
76850NA+    NA+38381   3.262  27.103  14.971
76851NA+    NA+38382  23.718   6.228   3.274
76852NA+    NA+38383  19.759  10.644  14.911
76853NA+    NA+38384  21.091  29.930  13.001
76854NA+    NA+38385  18.560   3.756   3.173
76855NA+    NA+38386  41.364  33.516  11.575
76856NA+    NA+38387  35.007   9.211   0.882
76857NA+    NA+38388  31.051  14.263  12.952
76858NA+    NA+38389  32.525  38.427   3.221
76859NA+    NA+38390  38.899  24.017  14.863
76860NA+    NA+38391  27.122  36.046   3.237
76861NA+    NA+38392  16.201  28.551   4.722
76862NA+    NA+38393  24.204  19.578   3.168
76863NA+    NA+38394  24.030  21.548  14.001
76864NA+    NA+38395  27.170  19.748  11.571
76865NA+    NA+38396  19.142  40.482  12.535
76866NA+    NA+38397  39.344  23.707  14.978
76867NA+    NA+38398  18.685   6.403   0.392
76868NA+    NA+38399  41.340  41.994   4.614
76869NA+    NA+38400  20.086  27.642   1.245
76870NA+    NA+38401  23.582  18.766  13.374
76871NA+    NA+38402  13.148  16.689   4.285
76872NA+    NA+38403   5.379   2.759  13.547
76873NA+    NA+38404  28.054  16.078   1.866
76874NA+    NA+38405  33.431  37.876  11.594
76875NA+    NA+38406  23.119  24.599  11.861
76876NA+    NA+38407  17.194   5.254  11.495
76877NA+    NA+38408   9.306  36.867  14.999
76878NA+    NA+38409  44.765  22.011   0.324
76879NA+    NA+38410  35.514  19.762   2.818
76880NA+    NA+38411  38.496   2.933  11.961
76881NA+    NA+38412  42.853  35.869  13.879
76882NA+    NA+38413  36.987  34.391   2.733
76883NA+    NA+38414  42.513   8.739   2.791
76884NA+    NA+38415  12.285  37.046  13.838
76885NA+    NA+38416  13.216   2.763  11.062
76886NA+    NA+38417  21.034  43.496  14.499
76887NA+    NA+38418   4.878  37.445  14.965
76888NA+    NA+38419  21.756  15.651   4.651
76889NA+    NA+38420   5.380  16.124   2.266
76890NA+    NA+38421  23.543   8.305  14.440
76891NA+    NA+38422  21.665  33.946   1.350
76892NA+    NA+38423  15.136  20.724   2.310
76893NA+    NA+38424   4.709  26.983  11.938
76894NA+    NA+38425   4.839  10.720   4.173
76895NA+    NA+38426   1.860   3.456   3.692
76896NA+    NA+38427  26.999   9.301   3.690
76897NA+    NA+38428   3.394  33.894   1.791
76898NA+    NA+38429  23.993  26.476  11.866
76899NA+    NA+38430   3.383  43.858  10.472
76900NA+    NA+38431  36.966  15.141   9.674
76901NA+    NA+38432  32.921  12.750  12.037
76902NA+    NA+38433  10.326  25.065   0.872
76903NA+    NA+38434  35.567  12.356   2.349
76904NA+    NA+38435   7.865  16.226   1.232
76905NA+    NA+38436   9.174  42.336   0.337
76906NA+    NA+38437  39.530  33.449  11.393
76907NA+    NA+38438   2.904  20.222  14.843
76908NA+    NA+38439  34.483  14.094  12.529
76909NA+    NA+38440  34.929  21.579   0.812
76910NA+    NA+38441   8.361  28.116  10.555
76911NA+    NA+38442  31.642  15.132  13.324
76912NA+    NA+38443   3.225  36.896  10.998
76913NA+    NA+38444  37.957  36.368  14.369
76914NA+    NA+38445  18.098  44.975   2.237
76915NA+    NA+38446  37.031  13.194  12.886
76916NA+    NA+38447  33.964   3.338  12.046
76917NA+    NA+38448   0.383  22.561   3.758
76918NA+    NA+38449  18.617  28.460  13.063
76919NA+    NA+38450  42.015  22.725  13.312
76920NA+    NA+38451  19.221   5.886  13.850
76921NA+    NA+38452  28.102  27.459   1.724
76922NA+    NA+38453  17.149   5.745  12.910
76923NA+    NA+38454  10.707  41.454   4.625
76924NA+    NA+38455  20.578   7.256   2.394
76925NA+    NA+38456  25.149  19.281   2.338
76926NA+    NA+38457  31.936  26.994   2.756
76927NA+    NA+38458  12.762  24.693  10.958
76928NA+    NA+38459   2.734  43.807   2.371
76929NA+    NA+38460   6.810  40.930   1.834
76930NA+    NA+38461  39.818  35.420   3.815
76931NA+    NA+38462   4.437   2.339  12.421
76932NA+    NA+38463  24.636  34.542   0.879
76933NA+    NA+38464  28.974  23.526  11.473
76934NA+    NA+38465  31.985  18.715   4.826
76935NA+    NA+38466  18.565  16.227   1.248
76936NA+    NA+38467  23.692   2.958  13.038
76937NA+    NA+38468  27.186  44.336   0.244
76938NA+    NA+38469  38.971  40.431  14.903
76939NA+    NA+38470  38.567  15.645   5.103
76940NA+    NA+38471   0.837  43.402   3.347
76941NA+    NA+38472  17.710  32.584  14.449
76942NA+    NA+38473  31.414  37.384   5.230
76943NA+    NA+38474  15.610  26.671   2.887
76944NA+    NA+38475  15.811  11.166  10.552
76945NA+    NA+38476  12.624   2.812   3.717
76946NA+    NA+38477  36.579  17.743  14.419
76947NA+    NA+38478   9.353  19.048   0.879
76948NA+    NA+38479  16.125  31.106   4.752
76949NA+    NA+38480  15.179  26.614   2.255
76950NA+    NA+38481  38.906  10.752  12.039
76951NA+    NA+38482  33.882  22.593  11.976
76952NA+    NA+38483  25.075   1.424   1.338
76953NA+    NA+38484  13.243  28.638   2.842
76954NA+    NA+38485  25.493  22.651   1.427
76955NA+    NA+38486  17.264  40.477   2.258
76956NA+    NA+38487  17.658  32.614   0.851
76957NA+    NA+38488  22.674  27.197   2.210
76958NA+    NA+38489  11.135  37.496   1.434
76959NA+    NA+38490  29.641  40.007  10.894
76960NA+    NA+38491  27.173  13.131  11.592
76961NA+    NA+38492  42.951  40.016  14.494
76962NA+    NA+38493   5.774  12.138  14.910
76963NA+    NA+38494   8.818  33.541   4.661
76964NA+    NA+38495  35.858  19.719  11.955
76965NA+    NA+38496  11.666   3.727   0.797
76966NA+    NA+38497  27.125  18.244  13.425
76967NA+    NA+38498  25.090  29.139  10.579
76968NA+    NA+38499  35.484  39.923   4.326
76969NA+    NA+38500  22.501  26.527  14.418
76970NA+    NA+38501   7.371  44.814   1.837
76971NA+    NA+38502   1.900  37.876   0.428
76972NA+    NA+38503  15.591  32.464  11.378
76973NA+    NA+38504  34.091  20.171   1.434
76974NA+    NA+38505  33.491  37.562   1.297
76975NA+    NA+38506  23.625  16.093   1.401
76976NA+    NA+38507  27.024  32.093   3.836
76977NA+    NA+38508   4.860  18.648  12.345
76978NA+    NA+38509  35.501   1.945   0.316
76979NA+    NA+38510   4.347   8.182  14.914
76980NA+    NA+38511  18.789  11.688   3.725
76981NA+    NA+38512  32.907  30.065   3.261
76982NA+    NA+38513   7.905   2.892   4.641
76983NA+    NA+38514  42.923  31.435   3.749
76984NA+    NA+38515  33.968  16.179  13.448
76985NA+    NA+38516  32.934  44.789  14.977
76986NA+    NA+38517  23.733  18.616  11.518
76987NA+    NA+38518  25.136  22.690   1.753
76988NA+    NA+38519  30.960  13.171  11.469
76989NA+    NA+38520  13.259   4.217  14.939
76990NA+    NA+38521  14.340  30.456   2.334
76991NA+    NA+38522  38.336  29.640   1.259
76992NA+    NA+38523   0.311  11.828  11.421
76993NA+    NA+38524   2.233  10.808   0.426
76994NA+    NA+38525   1.376  19.674  11.097
76995NA+    NA+38526  43.923  39.471  11.912
76996NA+    NA+38527  31.522   0.873   1.846
76997NA+    NA+38528   0.812  43.930  14.899
76998NA+    NA+38529  12.653  17.578  13.399
76999NA+    NA+38530   4.412  20.239   3.637
77000NA+    NA+38531   0.787  39.065  10.159
77001NA+    NA+38532  36.511  24.705   3.202
77002NA+    NA+38533   1.473  38.878   4.761
77003NA+    NA+38534  30.600   2.285  14.003
77004NA+    NA+38535   7.772  35.404   4.278
77005NA+    NA+38536  24.694  21.714   4.674
77006NA+    NA+38537  42.370   8.820  14.443
77007NA+    NA+38538  10.181  21.203   1.282
77008NA+    NA+38539  35.999  26.515   2.798
77009NA+    NA+38540   8.896   5.840   2.203
77010NA+    NA+38541  32.934  21.554  14.921
77011NA+    NA+38542  37.528  12.224  12.515
77012NA+    NA+38543  18.719  42.930   4.675
77013NA+    NA+38544  33.577  31.461   5.107
77014NA+    NA+38545  21.208   5.719   2.859
77015NA+    NA+38546  12.260  39.889  11.456
77016NA+    NA+38547  33.966   3.764   1.227
77017NA+    NA+38548  42.486  27.502  12.908
77018NA+    NA+38549   1.825  31.053   2.839
77019NA+    NA+38550   9.887   6.841   3.714
77020NA+    NA+38551   3.863  43.311   0.964
77021NA+    NA+38552  16.098  28.955  14.343
77022NA+    NA+38553  24.131  29.652   1.840
77023NA+    NA+38554  18.621  20.617  11.943
77024NA+    NA+38555  15.283  33.910  11.925
77025NA+    NA+38556   3.440   2.256  11.512
77026NA+    NA+38557  23.071  19.171   2.867
77027NA+    NA+38558   5.205  18.733   1.798
77028NA+    NA+38559  10.682  11.804   4.660
77029NA+    NA+38560  22.577  20.665   1.741
77030NA+    NA+38561   0.773  32.066   2.673
77031NA+    NA+38562  32.444  13.605   3.251
77032NA+    NA+38563  20.042  39.910   2.885
77033NA+    NA+38564  16.149  15.793   2.241
77034NA+    NA+38565  41.426  14.188   4.344
77035NA+    NA+38566   3.336  44.986   0.848
77036NA+    NA+38567  39.873   4.710  11.379
77037NA+    NA+38568   8.201  43.424   0.966
77038NA+    NA+38569   9.790  29.080  11.867
77039NA+    NA+38570  36.370  33.529  14.931
77040NA+    NA+38571  37.064  14.694   2.243
77041NA+    NA+38572  29.175  33.610   3.797
77042NA+    NA+38573  11.183  31.942   3.349
77043NA+    NA+38574   0.980  30.941  14.990
77044NA+    NA+38575  36.097  44.480  11.910
77045NA+    NA+38576  41.405  16.626  14.501
77046NA+    NA+38577  28.617   4.827  12.893
77047NA+    NA+38578   1.340  40.936  14.003
77048NA+    NA+38579  22.704  13.765  13.859
77049NA+    NA+38580  19.742  23.093  12.018
77050NA+    NA+38581  29.078   2.838   1.832
77051NA+    NA+38582  34.380  11.731  12.952
77052NA+    NA+38583   1.382  19.674  10.533
77053NA+    NA+38584  12.301  12.721  14.959
77054NA+    NA+38585  44.947  40.024   0.754
77055NA+    NA+38586  36.979   2.913   1.833
77056NA+    NA+38587  44.405  20.207  13.864
77057NA+    NA+38588   8.230  37.576  13.929
77058NA+    NA+38589  26.538  38.374  14.966
77059NA+    NA+38590  28.179  20.583  14.841
77060NA+    NA+38591  12.701   9.861   1.240
77061NA+    NA+38592  17.283  29.041  13.948
77062NA+    NA+38593  26.614   8.286   9.660
77063NA+    NA+38594  15.673  11.823   2.822
77064NA+    NA+38595   2.337  16.808   3.178
77065NA+    NA+38596  39.492  26.119  11.977
77066NA+    NA+38597   3.310  16.276  12.906
77067NA+    NA+38598   7.675   6.917   4.233
77068NA+    NA+38599   1.897  21.038   1.263
77069NA+    NA+38600  38.451  22.500   0.316
77070NA+    NA+38601  31.012  15.131  11.993
77071NA+    NA+38602  22.586  10.327  14.768
77072NA+    NA+38603  18.276  36.568  13.051
77073NA+    NA+38604  12.222  43.352   3.290
77074NA+    NA+38605  35.480  38.498  14.462
77075NA+    NA+38606  21.166   5.247  14.447
77076NA+    NA+38607   0.286  20.683   1.927
77077NA+    NA+38608  14.327  36.564  13.865
77078NA+    NA+38609  38.377  21.193   1.350
77079NA+    NA+38610  28.663  30.614  12.569
77080NA+    NA+38611   3.215  28.613  11.592
77081NA+    NA+38612  34.885  23.520   4.303
77082NA+    NA+38613  40.010  43.902  12.826
77083NA+    NA+38614  34.055  26.659  13.962
77084NA+    NA+38615  13.753  44.861   1.223
77085NA+    NA+38616  21.582  39.366   1.790
77086NA+    NA+38617  25.979   7.793   4.773
77087NA+    NA+38618  24.501  40.916   9.959
77088NA+    NA+38619  36.420  22.087  13.854
77089NA+    NA+38620  24.660   0.839  12.515
77090NA+    NA+38621  26.040  32.574  14.999
77091NA+    NA+38622  35.499  26.535  13.037
77092NA+    NA+38623  37.384  38.349  14.412
77093NA+    NA+38624  12.802  12.156   4.727
77094NA+    NA+38625  24.078  36.493  13.061
77095NA+    NA+38626   5.758  30.419   2.226
77096NA+    NA+38627   9.676  21.594  12.993
77097NA+    NA+38628  42.914  11.353  10.959
77098NA+    NA+38629  32.104  34.929   1.694
77099NA+    NA+38630  34.900  33.966  14.307
77100NA+    NA+38631  24.081   1.317   2.402
77101NA+    NA+38632  12.117  42.482  13.361
77102NA+    NA+38633   5.316  26.987  12.831
77103NA+    NA+38634   6.385  31.965  10.115
77104NA+    NA+38635  41.910  28.124   0.872
77105NA+    NA+38636  43.877  25.018  11.884
77106NA+    NA+38637  10.358  35.385   4.349
77107NA+    NA+38638   2.302  22.247   3.711
77108NA+    NA+38639  32.563  21.085  13.810
77109NA+    NA+38640  43.294  39.354  13.415
77110NA+    NA+38641  17.078   6.348  14.440
77111NA+    NA+38642  41.941   5.396   2.273
77112NA+    NA+38643  34.463  21.114  10.496
77113NA+    NA+38644   5.755  36.405  14.957
77114NA+    NA+38645  36.037  29.028  12.929
77115NA+    NA+38646   3.937  24.106  14.993
77116NA+    NA+38647  30.137  12.769   2.814
77117NA+    NA+38648  35.423  42.780  14.462
77118NA+    NA+38649  37.840   6.809   0.468
77119NA+    NA+38650   3.398  39.057  14.499
77120NA+    NA+38651  31.461  36.845  10.617
77121NA+    NA+38652  24.684   0.333  12.463
77122NA+    NA+38653   0.932  35.103  13.349
77123NA+    NA+38654  31.980  40.986   0.779
77124NA+    NA+38655  42.341   7.746   3.633
77125NA+    NA+38656   5.425  13.667   3.666
77126NA+    NA+38657  39.425  28.622  12.397
77127NA+    NA+38658  12.780  30.137  12.902
77128NA+    NA+38659  13.141   2.414   1.796
77129NA+    NA+38660  42.342  25.001  13.435
77130NA+    NA+38661   3.306  25.548   4.295
77131NA+    NA+38662  36.957   2.813   2.242
77132NA+    NA+38663  29.616   4.943  13.335
77133NA+    NA+38664  26.679  38.504  12.053
77134NA+    NA+38665   0.459  38.847   2.703
77135NA+    NA+38666  24.566   8.376  12.914
77136NA+    NA+38667   8.724  23.234   3.153
77137NA+    NA+38668  26.588  37.848   0.359
77138NA+    NA+38669  14.642   4.934   0.311
77139NA+    NA+38670  24.976   9.170   4.776
77140NA+    NA+38671  18.079  23.620  14.968
77141NA+    NA+38672  35.491   8.376   3.234
77142NA+    NA+38673   2.277   0.479   4.345
77143NA+    NA+38674  11.178  19.250   1.805
77144NA+    NA+38675   6.317  25.549   5.642
77145NA+    NA+38676   8.327   1.330   2.711
77146NA+    NA+38677  36.558   4.709   1.712
77147NA+    NA+38678  38.465   1.285  12.950
77148NA+    NA+38679  31.511  36.435  14.959
77149NA+    NA+38680  44.785   9.210   2.408
77150NA+    NA+38681  35.037  31.584  11.380
77151NA+    NA+38682  24.075  22.565   2.324
77152NA+    NA+38683  10.741  26.030  13.897
77153NA+    NA+38684   9.250  11.698   1.281
77154NA+    NA+38685  13.801  17.070  13.793
77155NA+    NA+38686  29.950  32.469  14.879
77156NA+    NA+38687  28.019  12.258   0.363
77157NA+    NA+38688  21.549  28.987  11.530
77158NA+    NA+38689  39.315   8.261  13.427
77159NA+    NA+38690   8.232  36.363  14.435
77160NA+    NA+38691  17.285  25.674   4.215
77161NA+    NA+38692  11.315   2.927   2.402
77162NA+    NA+38693  27.499  44.472  10.645
77163NA+    NA+38694  43.912   7.834   3.675
77164NA+    NA+38695  28.531  34.512  14.829
77165NA+    NA+38696  38.971  15.225   2.865
77166NA+    NA+38697  15.661  38.535  12.569
77167NA+    NA+38698  38.557   2.742   0.471
77168NA+    NA+38699  29.473  15.602   0.242
77169NA+    NA+38700  28.012   2.765   4.746
77170NA+    NA+38701  30.574   0.763  10.506
77171NA+    NA+38702  41.482   7.798   3.851
77172NA+    NA+38703  21.745   9.714  13.803
77173NA+    NA+38704  13.713  43.891   4.721
77174NA+    NA+38705  26.599  20.145  10.428
77175NA+    NA+38706  44.917  42.468  12.095
77176NA+    NA+38707  37.462  43.989  13.849
77177NA+    NA+38708  14.214  21.113  10.585
77178NA+    NA+38709  21.110   5.210   4.312
77179NA+    NA+38710  33.924  29.667   4.294
77180NA+    NA+38711   2.844   1.360  12.845
77181NA+    NA+38712  42.906  40.946  13.964
77182NA+    NA+38713  32.539   3.329   4.648
77183NA+    NA+38714   7.697  27.578  11.563
77184NA+    NA+38715  39.476  26.461  12.906
77185NA+    NA+38716  38.848  12.717   3.850
77186NA+    NA+38717  23.119  33.058  11.873
77187NA+    NA+38718   9.390  43.993  13.370
77188NA+    NA+38719   7.360   8.712  11.084
77189NA+    NA+38720   8.848   6.204   2.360
77190NA+    NA+38721  16.709  12.201  14.965
77191NA+    NA+38722  12.299   8.192   4.169
77192NA+    NA+38723  33.948  25.555  10.599
77193NA+    NA+38724  18.608  24.531  12.921
77194NA+    NA+38725  20.572  23.176  10.506
77195NA+    NA+38726  39.350  20.098  10.521
77196NA+    NA+38727  43.319  18.086   4.231
77197NA+    NA+38728  43.802   0.248   1.726
77198NA+    NA+38729   8.797  30.431  14.359
77199NA+    NA+38730  21.026   2.352   0.926
77200NA+    NA+38731  39.489  12.660   2.384
77201NA+    NA+38732  19.122   8.899   2.664
77202NA+    NA+38733   1.791  33.131  12.365
77203NA+    NA+38734  31.056   5.830   3.823
77204NA+    NA+38735  25.570  28.679   0.421
77205NA+    NA+38736  15.631  26.069  10.644
77206NA+    NA+38737  24.197  25.611   4.221
77207NA+    NA+38738  38.350  39.923  10.468
77208NA+    NA+38739  35.400  19.187  14.311
77209NA+    NA+38740  44.381  32.630  14.833
77210NA+    NA+38741  29.454  28.436   2.356
77211NA+    NA+38742  31.435  27.000  14.285
77212NA+    NA+38743  41.954  32.087  14.869
77213NA+    NA+38744  20.123  28.180   0.271
77214NA+    NA+38745  27.465  41.520   4.654
77215NA+    NA+38746  26.001  16.304  10.547
77216NA+    NA+38747  17.672  37.395  13.528
77217NA+    NA+38748   8.694   8.753   1.761
77218NA+    NA+38749  43.320  17.183   3.758
77219NA+    NA+38750  33.991  22.527  12.359
77220NA+    NA+38751  32.056   3.334   1.347
77221NA+    NA+38752  15.668  13.226  12.980
77222NA+    NA+38753  13.260  31.985  13.915
77223NA+    NA+38754  31.019  35.456   3.297
77224NA+    NA+38755  43.779  40.049  11.975
77225NA+    NA+38756  43.343  31.903  12.510
77226NA+    NA+38757  41.322  33.081   0.963
77227NA+    NA+38758  33.893  13.643  10.948
77228NA+    NA+38759   5.396  42.794   1.716
77229NA+    NA+38760  25.085  26.201   1.397
77230NA+    NA+38761  25.217  12.648   3.634
77231NA+    NA+38762   4.836  35.057  10.993
77232NA+    NA+38763  41.458  39.018  10.920
77233NA+    NA+38764  32.603  17.586   1.278
77234NA+    NA+38765  21.618  37.570  14.895
77235NA+    NA+38766  28.497  28.463   3.827
77236NA+    NA+38767  39.444  17.700   4.335
77237NA+    NA+38768  21.155   5.930  13.341
77238NA+    NA+38769   0.274   8.793   3.173
77239NA+    NA+38770  17.096  25.174  11.952
77240NA+    NA+38771   7.873   9.837   3.323
77241NA+    NA+38772  24.001  35.022   4.838
77242NA+    NA+38773   2.729  16.627   3.673
77243NA+    NA+38774   9.646  43.912   2.295
77244NA+    NA+38775  27.135  37.460  13.321
77245NA+    NA+38776   6.403  27.115   1.260
77246NA+    NA+38777  28.083  39.823   2.407
77247NA+    NA+38778  21.102  14.102  11.535
77248NA+    NA+38779  12.631  15.687  13.500
77249NA+    NA+38780   4.300  19.709   0.885
77250NA+    NA+38781  39.035  39.470   4.704
77251NA+    NA+38782  44.406  40.877  14.944
77252NA+    NA+38783  12.237  25.590   1.857
77253NA+    NA+38784  28.454  16.307   0.790
77254NA+    NA+38785   9.849  26.628  11.092
77255NA+    NA+38786  18.744  15.730  12.555
77256NA+    NA+38787  16.667  16.201  10.959
77257NA+    NA+38788  22.157   9.248   1.728
77258NA+    NA+38789  40.863  38.329   2.782
77259NA+    NA+38790  19.074  16.732  11.896
77260NA+    NA+38791  42.292  28.482  11.900
77261NA+    NA+38792  14.792  23.528   5.738
77262NA+    NA+38793  20.601  23.550   2.219
77263NA+    NA+38794  33.443  12.346  12.530
77264NA+    NA+38795   1.373  28.666   1.838
77265NA+    NA+38796  31.599  20.759  13.799
77266NA+    NA+38797  40.017  19.544   4.776
77267NA+    NA+38798  38.361  29.042   3.367
77268NA+    NA+38799  32.017  16.315   4.269
77269NA+    NA+38800  19.718  22.560  10.446
77270NA+    NA+38801   4.382  11.356   1.758
77271NA+    NA+38802   7.409  19.635   4.183
77272NA+    NA+38803  25.082  18.763   0.318
77273NA+    NA+38804  21.686  34.538   1.867
77274NA+    NA+38805  31.560  27.585   0.379
77275NA+    NA+38806  28.138  29.423  13.455
77276NA+    NA+38807   6.330  25.075   4.755
77277NA+    NA+38808  12.616  44.895  13.479
77278NA+    NA+38809   2.283  14.621   1.887
77279NA+    NA+38810  17.564   6.809  12.890
77280NA+    NA+38811   2.954  37.994  13.877
77281NA+    NA+38812  40.394  13.298  12.408
77282NA+    NA+38813  32.983  27.047   0.319
77283NA+    NA+38814  35.106  42.950   5.253
77284NA+    NA+38815  16.793  26.586  13.509
77285NA+    NA+38816   1.905  37.018  13.463
77286NA+    NA+38817  27.587  30.129   0.317
77287NA+    NA+38818  30.073  27.018   3.844
77288NA+    NA+38819   7.855  30.056   4.706
77289NA+    NA+38820  38.536  26.129  10.963
77290NA+    NA+38821  31.039  25.680  14.002
77291NA+    NA+38822  41.507  21.094  13.002
77292NA+    NA+38823   0.796  24.722   1.307
77293NA+    NA+38824  26.601  37.423   0.270
77294NA+    NA+38825  33.510  34.082  12.486
77295NA+    NA+38826  12.297  16.590   0.918
77296NA+    NA+38827   8.252  19.237   4.164
77297NA+    NA+38828  13.166  19.553  12.042
77298NA+    NA+38829  19.595  37.038  13.483
77299NA+    NA+38830  21.196  30.101  10.043
77300NA+    NA+38831   1.319   1.318  14.898
77301NA+    NA+38832  36.583   1.262   0.860
77302NA+    NA+38833  25.077   0.797   1.322
77303NA+    NA+38834   5.696  37.863   1.757
77304NA+    NA+38835  43.286  26.177  12.452
77305NA+    NA+38836  19.594  31.983   0.820
77306NA+    NA+38837  33.393  11.324   3.815
77307NA+    NA+38838  10.707  24.585   3.255
77308NA+    NA+38839  15.733  42.381   4.796
77309NA+    NA+38840  25.666  13.603   2.412
77310NA+    NA+38841  21.573  19.150   3.751
77311NA+    NA+38842  39.060  18.641  14.496
77312NA+    NA+38843   0.818  36.591   3.843
77313NA+    NA+38844  32.457  39.857   1.817
77314NA+    NA+38845  26.984   9.242  12.028
77315NA+    NA+38846  11.264  36.499   2.279
77316NA+    NA+38847  41.523   2.391   3.780
77317NA+    NA+38848  13.694   5.833   1.800
77318NA+    NA+38849   1.467  44.765   1.911
77319NA+    NA+38850   6.731  44.963  13.327
77320NA+    NA+38851  40.409  36.095  13.946
77321NA+    NA+38852  24.055  21.099   3.305
77322NA+    NA+38853  38.361   3.239  14.359
77323NA+    NA+38854  28.438  11.209  14.492
77324NA+    NA+38855  21.658  24.593  11.033
77325NA+    NA+38856  41.992  24.074   1.833
77326NA+    NA+38857  33.068  19.220   1.744
77327NA+    NA+38858  13.766  23.682  13.406
77328NA+    NA+38859  23.503   8.763   2.264
77329NA+    NA+38860   8.806  25.162  10.916
77330NA+    NA+38861  22.744  40.462  12.554
77331NA+    NA+38862   1.411  42.523   2.298
77332NA+    NA+38863  21.170   2.439   1.865
77333NA+    NA+38864  14.672   1.382   4.718
77334NA+    NA+38865  26.583   6.716  11.053
77335NA+    NA+38866  24.663  19.657   4.273
77336NA+    NA+38867   2.367  28.517   2.240
77337NA+    NA+38868  20.523  26.980   2.250
77338NA+    NA+38869  24.168  14.274   4.126
77339NA+    NA+38870  16.755  31.021   1.779
77340NA+    NA+38871  27.182  15.763  14.498
77341NA+    NA+38872   3.875  21.083  13.823
77342NA+    NA+38873   2.781  38.075   2.827
77343NA+    NA+38874  17.299  44.345   1.337
77344NA+    NA+38875   6.709  29.115  12.452
77345NA+    NA+38876  21.753  14.240   2.747
77346NA+    NA+38877  25.705  40.434  13.940
77347NA+    NA+38878  42.881  20.158  11.597
77348NA+    NA+38879  28.629  32.016   3.771
77349NA+    NA+38880  19.259  43.950   2.220
77350NA+    NA+38881   0.384  41.377  11.048
77351NA+    NA+38882  42.929   5.417  11.072
77352NA+    NA+38883  15.675  18.692  14.424
77353NA+    NA+38884  29.173  37.996   0.411
77354NA+    NA+38885  15.697  25.982   2.688
77355NA+    NA+38886   9.178   0.493  12.380
77356NA+    NA+38887  31.986  19.648   9.921
77357NA+    NA+38888  30.556  43.904  13.061
77358NA+    NA+38889   6.327  31.610  10.027
77359NA+    NA+38890  23.608  44.321   1.869
77360NA+    NA+38891  36.971  40.338  12.496
77361NA+    NA+38892  30.459  44.953   4.231
77362NA+    NA+38893   0.403  31.007   0.871
77363NA+    NA+38894  17.282  15.758   4.282
77364NA+    NA+38895  16.675   0.924  10.956
77365NA+    NA+38896  18.099  38.367  11.127
77366NA+    NA+38897  30.530  34.602   4.806
77367NA+    NA+38898  28.495   3.315   2.315
77368NA+    NA+38899  21.680  42.848  10.990
77369NA+    NA+38900  23.527  14.699   0.479
77370NA+    NA+38901  31.445  10.815   2.256
77371NA+    NA+38902  19.181  26.525  14.899
77372NA+    NA+38903  13.232  14.128  10.927
77373NA+    NA+38904  28.126  40.397  13.943
77374NA+    NA+38905  23.667   8.848  11.006
77375NA+    NA+38906  25.698  33.488   5.726
77376NA+    NA+38907   4.296  29.428  12.394
77377NA+    NA+38908  40.515   5.272   3.709
77378NA+    NA+38909  38.505   7.342   1.920
77379NA+    NA+38910  21.587  32.391  11.125
77380NA+    NA+38911  20.528  13.612   3.308
77381NA+    NA+38912  14.741  24.694   1.785
77382NA+    NA+38913  44.950  44.410  13.361
77383NA+    NA+38914  36.355   7.405   0.913
77384NA+    NA+38915   5.373   0.777   2.890
77385NA+    NA+38916   8.781  42.860   2.697
77386NA+    NA+38917  12.271  30.592  11.383
77387NA+    NA+38918  19.642  44.989  12.454
77388NA+    NA+38919  26.643  42.835   2.224
77389NA+    NA+38920  15.759   6.810  13.361
77390NA+    NA+38921  19.698  23.665  12.923
77391NA+    NA+38922  34.422  19.258   4.669
77392NA+    NA+38923  40.327  17.799  13.488
77393NA+    NA+38924  41.837  17.129  14.420
77394NA+    NA+38925  28.132   5.757   0.897
77395NA+    NA+38926  19.261   2.859  12.055
77396NA+    NA+38927  25.649  29.981  14.311
77397NA+    NA+38928   8.265  42.477  13.312
77398NA+    NA+38929  27.461  42.925   4.618
77399NA+    NA+38930  24.092   1.359   1.435
77400NA+    NA+38931  40.858   4.850  13.886
77401NA+    NA+38932   8.900  44.315  13.403
77402NA+    NA+38933  23.104  25.507   0.845
77403NA+    NA+38934  15.683  37.083  12.885
77404NA+    NA+38935  19.202  19.178  12.894
77405NA+    NA+38936  32.449  24.988   0.919
77406NA+    NA+38937  44.903  19.131   1.233
77407NA+    NA+38938  33.455  28.504  10.452
77408NA+    NA+38939  42.846  21.686  14.357
77409NA+    NA+38940  43.866  21.683  11.050
77410NA+    NA+38941  17.115  17.237   3.219
77411NA+    NA+38942  21.708   9.691   0.904
77412NA+    NA+38943  11.216   9.303   0.930
77413NA+    NA+38944  36.584  28.441  14.853
77414NA+    NA+38945  33.127  32.889   3.369
77415NA+    NA+38946  22.090  37.568  14.304
77416NA+    NA+38947  40.337  22.225   3.640
77417NA+    NA+38948  37.442  34.903  12.395
77418NA+    NA+38949   4.276  13.673   4.191
77419NA+    NA+38950  13.154  44.953   3.189
77420NA+    NA+38951  14.247  41.358  10.554
77421NA+    NA+38952  33.068  18.637  14.853
77422NA+    NA+38953  29.610  32.410  14.467
77423NA+    NA+38954   6.382  30.585   2.245
77424NA+    NA+38955   1.811   7.774   0.393
77425NA+    NA+38956  32.466  21.592  12.428
77426NA+    NA+38957  16.114  14.756   2.743
77427NA+    NA+38958  28.464  26.697   3.198
77428NA+    NA+38959  20.681  35.495   0.953
77429NA+    NA+38960   7.261  28.555   2.862
77430NA+    NA+38961   5.325  33.615  14.839
77431NA+    NA+38962  42.468   9.686  11.064
77432NA+    NA+38963  29.519  41.294   1.844
77433NA+    NA+38964  23.622   0.906  10.946
77434NA+    NA+38965  35.440  35.892  13.985
77435NA+    NA+38966  24.501  26.195  13.483
77436NA+    NA+38967  14.801  34.376   0.431
77437NA+    NA+38968  36.532   1.273   4.153
77438NA+    NA+38969  35.435  13.185   4.203
77439NA+    NA+38970   7.365  12.222   1.439
77440NA+    NA+38971  30.605  13.735  10.634
77441NA+    NA+38972  24.063  17.729   3.354
77442NA+    NA+38973  16.792  44.268  11.395
77443NA+    NA+38974  35.055  28.968   1.251
77444NA+    NA+38975  37.014  31.045  10.635
77445NA+    NA+38976   0.869  14.254  13.844
77446NA+    NA+38977  36.389  34.949  13.039
77447NA+    NA+38978  37.951  34.889   1.408
77448NA+    NA+38979  26.576  10.352  10.986
77449NA+    NA+38980  22.724  13.780  10.022
77450NA+    NA+38981  22.021  32.545   0.428
77451NA+    NA+38982  10.336  19.637   0.751
77452NA+    NA+38983  18.200  10.812   2.722
77453NA+    NA+38984  24.513   4.294   4.645
77454NA+    NA+38985  41.797  30.984  14.759
77455NA+    NA+38986  13.625  14.685   3.652
77456NA+    NA+38987   4.887  29.516  11.584
77457NA+    NA+38988  44.378  40.312  12.350
77458NA+    NA+38989  16.634  10.807  12.392
77459NA+    NA+38990  14.642  20.175   3.369
77460NA+    NA+38991  22.145   5.785   0.307
77461NA+    NA+38992  33.953  34.393   3.172
77462NA+    NA+38993  28.511  11.350   1.931
77463NA+    NA+38994  31.437  15.661   1.390
77464NA+    NA+38995  24.180  40.013  11.865
77465NA+    NA+38996  29.995  16.161   1.879
77466NA+    NA+38997  33.584   5.799  10.527
77467NA+    NA+38998  26.499  10.147  10.452
77468NA+    NA+38999   5.698   3.393  12.950
77469NA+    NA+39000  38.919  44.312   3.785
77470NA+    NA+39001  31.410   3.290   0.791
77471NA+    NA+39002  39.972   7.788   2.700
77472NA+    NA+39003  13.738  43.860  13.008
77473NA+    NA+39004  13.793  37.950   3.745
77474NA+    NA+39005   2.941  28.526  10.158
77475NA+    NA+39006   9.751  13.748   2.805
77476NA+    NA+39007  20.148  17.208   1.305
77477NA+    NA+39008  33.056   0.315   2.715
77478NA+    NA+39009   5.888  14.680   1.360
77479NA+    NA+39010  15.763  29.937   3.700
77480NA+    NA+39011  31.088  34.981   4.756
77481NA+    NA+39012  12.171   9.376   2.267
77482NA+    NA+39013  31.109  34.075  14.316
77483NA+    NA+39014   0.281  17.759  12.419
77484NA+    NA+39015  33.916  25.200  12.509
77485NA+    NA+39016  20.655   3.886   4.298
77486NA+    NA+39017  10.142  43.327  11.875
77487NA+    NA+39018  42.352  19.139  12.051
77488NA+    NA+39019  28.666  29.666   1.321
77489NA+    NA+39020  30.577  14.118  11.493
77490NA+    NA+39021  24.528  37.579  10.057
77491NA+    NA+39022   1.752  41.886  10.906
77492NA+    NA+39023  19.052   7.226  14.922
77493NA+    NA+39024  42.026  32.472  12.927
77494NA+    NA+39025  39.998  20.030  10.888
77495NA+    NA+39026  30.596  20.205  12.894
77496NA+    NA+39027  41.452  19.687   4.139
77497NA+    NA+39028  34.977   8.800  11.075
77498NA+    NA+39029  13.249  44.773  14.927
77499NA+    NA+39030  40.400   1.326  14.425
77500NA+    NA+39031   0.295  27.040   4.250
77501NA+    NA+39032  10.368   3.779   2.231
77502NA+    NA+39033  22.092  36.532  12.426
77503NA+    NA+39034  24.997   6.788  13.056
77504NA+    NA+39035  24.035  36.561   2.214
77505NA+    NA+39036  32.409  18.699  11.037
77506NA+    NA+39037  39.049  34.561  11.493
77507NA+    NA+39038   7.345  13.742  11.892
77508NA+    NA+39039   9.790   7.214  12.496
77509NA+    NA+39040   0.440  23.082  10.451
77510NA+    NA+39041  27.052  28.562   3.266
77511NA+    NA+39042  34.563  34.945   5.717
77512NA+    NA+39043  33.023   3.812  10.456
77513NA+    NA+39044  40.518  12.220   0.866
77514NA+    NA+39045  17.073   6.717  14.872
77515NA+    NA+39046  13.661  11.822   0.391
77516NA+    NA+39047  37.015   7.775   2.835
77517NA+    NA+39048  25.120  43.782  14.314
77518NA+    NA+39049  18.288  26.141   1.900
77519NA+    NA+39050   0.433  18.074   2.197
77520NA+    NA+39051  41.475  38.517   1.297
77521NA+    NA+39052  40.028  10.353   1.841
77522NA+    NA+39053  12.843  25.211   2.721
77523NA+    NA+39054  16.201   1.453   4.749
77524NA+    NA+39055  30.988  15.315   4.643
77525NA+    NA+39056   3.412   5.358  10.911
77526NA+    NA+39057  35.559  37.923  11.084
77527NA+    NA+39058  22.554  41.367  13.388
77528NA+    NA+39059   2.843  11.738   4.327
77529NA+    NA+39060  22.504   8.816   2.232
77530NA+    NA+39061  17.208  13.791   3.299
77531NA+    NA+39062  36.347  13.635   1.351
77532NA+    NA+39063  31.954  41.885  12.888
77533NA+    NA+39064  21.512  20.136   1.733
77534NA+    NA+39065  22.081  21.114  14.833
77535NA+    NA+39066   2.854  42.866  11.534
77536NA+    NA+39067  31.472  43.433  10.408
77537NA+    NA+39068  27.539  15.589  10.606
77538NA+    NA+39069   8.268  14.785   1.281
77539NA+    NA+39070  22.039   4.931  13.473
77540NA+    NA+39071  20.612  36.879  14.375
77541NA+    NA+39072   5.351  23.510  13.900
77542NA+    NA+39073  19.620  37.457  10.525
77543NA+    NA+39074  17.257  37.351  12.545
77544NA+    NA+39075  17.271  12.125   3.780
77545NA+    NA+39076  15.671  43.349   3.714
77546NA+    NA+39077   4.207   4.850  14.316
77547NA+    NA+39078  38.005   3.272  11.123
77548NA+    NA+39079  36.050  38.827   0.889
77549NA+    NA+39080  17.301  21.206  12.905
77550NA+    NA+39081  31.607   7.365  12.859
77551NA+    NA+39082  16.168  19.098   3.668
77552NA+    NA+39083  44.387  23.200   3.304
77553NA+    NA+39084  22.053   7.748  11.017
77554NA+    NA+39085  43.306  36.059   3.729
77555NA+    NA+39086  36.018  23.150  13.013
77556NA+    NA+39087  32.396  27.037   2.670
77557NA+    NA+39088  15.789  14.156   1.836
77558NA+    NA+39089  36.086  44.919  10.934
77559NA+    NA+39090  10.851  30.980   1.215
77560NA+    NA+39091   9.163  31.079  11.862
77561NA+    NA+39092  15.662  30.604   1.341
77562NA+    NA+39093   4.931  32.093  14.912
77563NA+    NA+39094  15.606  21.195  11.591
77564NA+    NA+39095  23.724  13.175  11.937
77565NA+    NA+39096  38.566   3.336   4.146
77566NA+    NA+39097   8.855  12.145   4.645
77567NA+    NA+39098  35.000   3.326   3.167
77568NA+    NA+39099  28.614  33.936  12.527
77569NA+    NA+39100  19.261  17.652   3.731
77570NA+    NA+39101  42.380  22.094  11.884
77571NA+    NA+39102  36.975  31.069   3.312
77572NA+    NA+39103  15.103  14.627  13.482
77573NA+    NA+39104  26.558  28.123   2.893
77574NA+    NA+39105  24.076  15.274  14.486
77575NA+    NA+39106  11.148  35.100  11.923
77576NA+    NA+39107  20.219  29.670   2.197
77577NA+    NA+39108  24.999   8.843  14.350
77578NA+    NA+39109  22.617  22.601  10.492
77579NA+    NA+39110  14.735  42.953  13.021
77580NA+    NA+39111  33.992  16.778   0.472
77581NA+    NA+39112  28.154  36.503  10.509
77582NA+    NA+39113  34.486  38.025  13.419
77583NA+    NA+39114  41.984  19.091   3.751
77584NA+    NA+39115  40.998  16.148  11.459
77585NA+    NA+39116  29.428  20.598   4.310
77586NA+    NA+39117   4.818  43.337   3.760
77587NA+    NA+39118  16.606  44.448   0.760
77588NA+    NA+39119   9.344  18.741  10.891
77589NA+    NA+39120  12.174  43.849   2.776
77590NA+    NA+39121  35.076  21.254  11.546
77591NA+    NA+39122   0.325  23.518  13.385
77592NA+    NA+39123  15.210  28.968   3.238
77593NA+    NA+39124  34.048  26.577   1.824
77594NA+    NA+39125  11.280  32.010  12.362
77595NA+    NA+39126  28.601   1.834  13.816
77596NA+    NA+39127  37.855   1.846   4.298
77597NA+    NA+39128  39.999  31.030   3.258
77598NA+    NA+39129  12.796  17.111  11.933
77599NA+    NA+39130   7.881  32.427  13.979
77600NA+    NA+39131  20.580  30.991  11.427
77601NA+    NA+39132  39.861  15.253  11.886
77602NA+    NA+39133   7.695  11.857  10.589
77603NA+    NA+39134  24.626  30.614  11.957
77604NA+    NA+39135  15.121   1.392   2.754
77605NA+    NA+39136  44.768  16.716  12.086
77606NA+    NA+39137  36.429   0.800  11.563
77607NA+    NA+39138   2.736   6.831  13.828
77608NA+    NA+39139  23.198  43.011  11.895
77609NA+    NA+39140  36.902  34.010  13.904
77610NA+    NA+39141  11.770  21.203  13.980
77611NA+    NA+39142  10.811  41.407  10.575
77612NA+    NA+39143   3.251  39.426  13.930
77613NA+    NA+39144  33.111   5.289   4.692
77614NA+    NA+39145   7.903   3.761   2.312
77615NA+    NA+39146   8.191  18.545   2.310
77616NA+    NA+39147   3.873  32.604  12.989
77617NA+    NA+39148   7.701  16.800  12.949
77618NA+    NA+39149  39.472  27.171   3.275
77619NA+    NA+39150   0.783   5.831   0.295
77620NA+    NA+39151  12.214  27.105  13.862
77621NA+    NA+39152  31.502  27.592  12.931
77622NA+    NA+39153  44.806  18.675   0.247
77623NA+    NA+39154  33.054  33.976   0.475
77624NA+    NA+39155  29.123  20.564   2.696
77625NA+    NA+39156  25.036  16.087   2.694
77626NA+    NA+39157  43.860  29.143   1.862
77627NA+    NA+39158  35.933  14.266  11.397
77628NA+    NA+39159  21.046  17.229   4.232
77629NA+    NA+39160  20.524  32.503   0.251
77630NA+    NA+39161  37.461  14.192   4.131
77631NA+    NA+39162   3.397  21.560  12.926
77632NA+    NA+39163   9.831   8.252   2.703
77633NA+    NA+39164  28.079  42.527   2.808
77634NA+    NA+39165  18.577   1.930   1.401
77635NA+    NA+39166   8.330  27.660   4.250
77636NA+    NA+39167  39.403  17.673  13.366
77637NA+    NA+39168  40.530  20.066  13.459
77638NA+    NA+39169  15.730   9.258  14.970
77639NA+    NA+39170  31.017  25.686   3.753
77640NA+    NA+39171  12.297  39.821  14.331
77641NA+    NA+39172  43.494  20.269  10.572
77642NA+    NA+39173   4.343  30.153   2.764
77643NA+    NA+39174  20.151  35.955  13.437
77644NA+    NA+39175  30.134   0.476  13.542
77645NA+    NA+39176  35.359  22.712   2.336
77646NA+    NA+39177  26.627  20.564  12.829
77647NA+    NA+39178  43.868  43.467   2.259
77648NA+    NA+39179  43.467  14.182   3.268
77649NA+    NA+39180  26.178  40.956  11.001
77650NA+    NA+39181  38.904  35.887   3.158
77651NA+    NA+39182   5.231   7.725   4.731
77652NA+    NA+39183  16.706   4.867   0.357
77653NA+    NA+39184  34.550   1.859   0.255
77654NA+    NA+39185  24.217  42.000   2.791
77655NA+    NA+39186  12.343  41.988   2.694
77656NA+    NA+39187  16.302  35.489  11.378
77657NA+    NA+39188  39.970  19.275  14.013
77658NA+    NA+39189  37.374  27.073   0.481
77659NA+    NA+39190  33.905  30.047   0.254
77660NA+    NA+39191  25.486   3.221  12.839
77661NA+    NA+39192  19.633  28.608   4.775
77662NA+    NA+39193  27.554  32.558   4.148
77663NA+    NA+39194   0.762  10.786   0.476
77664NA+    NA+39195  12.293  17.289   1.831
77665NA+    NA+39196  13.316   9.742   0.301
77666NA+    NA+39197  31.559   9.727  12.040
77667NA+    NA+39198   6.749   6.232  11.068
77668NA+    NA+39199  25.660  44.389  10.496
77669NA+    NA+39200  28.655  20.664   4.699
77670NA+    NA+39201  26.570   7.834   3.792
77671NA+    NA+39202  28.152  25.483   0.314
77672NA+    NA+39203  26.528  42.516   0.276
77673NA+    NA+39204  24.522   1.779   0.929
77674NA+    NA+39205  14.793  20.688  13.392
77675NA+    NA+39206   7.326  11.170   4.143
77676NA+    NA+39207   9.751  43.873  14.511
77677NA+    NA+39208  39.944  30.908   4.745
77678NA+    NA+39209  13.248   4.732   1.765
77679NA+    NA+39210  21.141  44.472  14.993
77680NA+    NA+39211  31.045  44.428  10.513
77681NA+    NA+39212   5.708   7.216   4.764
77682NA+    NA+39213  12.629  23.541   1.290
77683NA+    NA+39214  27.183  28.499   2.852
77684NA+    NA+39215  31.588  33.892  12.070
77685NA+    NA+39216  16.654  12.240   2.903
77686NA+    NA+39217  41.961  44.832   2.668
77687NA+    NA+39218   4.295  43.975  11.478
77688NA+    NA+39219   9.761  13.110  14.469
77689NA+    NA+39220   5.362  43.970  11.492
77690NA+    NA+39221  26.639  31.598  11.084
77691NA+    NA+39222   0.746  16.658  10.445
77692NA+    NA+39223  28.641  14.663   4.734
77693NA+    NA+39224  24.980  40.031  14.004
77694NA+    NA+39225  26.973  28.956   4.643
77695NA+    NA+39226  11.740  44.266  11.489
77696NA+    NA+39227  41.349  34.020   3.260
77697NA+    NA+39228  35.099  16.221   9.556
77698NA+    NA+39229  20.235  19.097  12.885
77699NA+    NA+39230  30.487  32.045  11.990
77700NA+    NA+39231  29.004   6.225  10.510
77701NA+    NA+39232   8.268  25.704   0.423
77702NA+    NA+39233  35.937  35.386  10.605
77703NA+    NA+39234  38.894  11.263  12.450
77704NA+    NA+39235   5.910  17.770   2.188
77705NA+    NA+39236  13.833  22.710   1.250
77706NA+    NA+39237   7.292  24.164   1.329
77707NA+    NA+39238  44.320  33.419   0.734
77708NA+    NA+39239  31.090  41.964  14.339
77709NA+    NA+39240  17.284  12.356  12.348
77710NA+    NA+39241  33.958  25.510  14.939
77711NA+    NA+39242   5.288  36.395   3.775
77712NA+    NA+39243   6.743  10.206   1.404
77713NA+    NA+39244   1.762  38.562   4.631
77714NA+    NA+39245  14.813  40.375   3.321
77715NA+    NA+39246  18.751  34.394  11.875
77716NA+    NA+39247  16.656  29.591  12.937
77717NA+    NA+39248  15.780  43.401  11.082
77718NA+    NA+39249  26.489  42.003  14.332
77719NA+    NA+39250   6.801  16.575  12.991
77720NA+    NA+39251  18.115   8.330   1.867
77721NA+    NA+39252  34.520   4.362   2.901
77722NA+    NA+39253  14.123  21.552  10.914
77723NA+    NA+39254  43.479  38.974  14.454
77724NA+    NA+39255  13.710  35.021   4.824
77725NA+    NA+39256  19.213  19.619  13.937
77726NA+    NA+39257  10.844  13.754  10.421
77727NA+    NA+39258  18.185  13.291  11.942
77728NA+    NA+39259  42.025   8.754   0.816
77729NA+    NA+39260  15.112  20.128  12.961
77730NA+    NA+39261   4.386  16.238  13.367
77731NA+    NA+39262  14.193   1.336  10.566
77732NA+    NA+39263  21.711  29.504   0.899
77733NA+    NA+39264  23.057  11.645  13.325
77734NA+    NA+39265  13.253  12.637   3.191
77735NA+    NA+39266  23.719  37.959   1.416
77736NA+    NA+39267   6.919  25.629   2.769
77737NA+    NA+39268  32.432  28.087  10.904
77738NA+    NA+39269   9.814  13.724  13.967
77739NA+    NA+39270   9.208  27.984   0.255
77740NA+    NA+39271  31.087  39.877  13.807
77741NA+    NA+39272  27.555  14.140   3.285
77742NA+    NA+39273  43.796   3.401  13.464
77743NA+    NA+39274  27.684  23.209   4.828
77744NA+    NA+39275  21.249  20.685   1.449
77745NA+    NA+39276  24.138   2.285  10.561
77746NA+    NA+39277  19.586  31.449   2.355
77747NA+    NA+39278  14.201  24.217  13.870
77748NA+    NA+39279  42.410   2.780   0.910
77749NA+    NA+39280   0.782   1.337   3.374
77750NA+    NA+39281  12.340  25.692   2.665
77751NA+    NA+39282  23.672  23.607  14.445
77752NA+    NA+39283   0.768  28.110  12.902
77753NA+    NA+39284  17.686  21.166   5.089
77754NA+    NA+39285  22.095  40.470   1.283
77755NA+    NA+39286   5.312  34.567   1.391
77756NA+    NA+39287  33.113  24.681   0.265
77757NA+    NA+39288   9.855  43.936  11.982
77758NA+    NA+39289  12.686  27.508   1.837
77759NA+    NA+39290  17.079   9.168   2.795
77760NA+    NA+39291  33.040  32.418   2.386
77761NA+    NA+39292  34.487  16.178   1.321
77762NA+    NA+39293  15.748  19.747   2.344
77763NA+    NA+39294  12.726  15.228   1.270
77764NA+    NA+39295   2.929  40.541   1.857
77765NA+    NA+39296  11.272  16.661   2.378
77766NA+    NA+39297  40.504  16.593   0.377
77767NA+    NA+39298  36.035  24.134  14.327
77768NA+    NA+39299   0.886   1.791  12.920
77769NA+    NA+39300  37.542  19.607  13.841
77770NA+    NA+39301  39.039  14.695  13.423
77771NA+    NA+39302  31.114   0.415  14.444
77772NA+    NA+39303  40.029  15.258  11.506
77773NA+    NA+39304   9.379  13.230   1.806
77774NA+    NA+39305   3.816   8.744   4.759
77775NA+    NA+39306  11.333  16.625   1.291
77776NA+    NA+39307  24.609   0.969  10.554
77777NA+    NA+39308  22.200  16.112  13.416
77778NA+    NA+39309  18.163  23.718   2.223
77779NA+    NA+39310   2.726  23.681   0.387
77780NA+    NA+39311  24.570   3.720  13.345
77781NA+    NA+39312  43.909  14.679  13.329
77782NA+    NA+39313  28.039  37.982  12.919
77783NA+    NA+39314  16.102   7.378   2.269
77784NA+    NA+39315  17.119   9.292  14.800
77785NA+    NA+39316  28.010   2.852  11.078
77786NA+    NA+39317  33.560  44.967  12.950
77787NA+    NA+39318  28.527  36.453   1.332
77788NA+    NA+39319  17.601  30.566   0.821
77789NA+    NA+39320  39.951  11.207  10.921
77790NA+    NA+39321  38.346   0.944  10.429
77791NA+    NA+39322   3.881  36.910   3.186
77792NA+    NA+39323  31.002   1.932  13.544
77793NA+    NA+39324   2.806  34.085  11.505
77794NA+    NA+39325   5.227  10.368  12.824
77795NA+    NA+39326   6.727  20.628  10.505
77796NA+    NA+39327   6.295   4.851  12.877
77797NA+    NA+39328   5.373  12.303  11.079
77798NA+    NA+39329  37.507  23.524   0.754
77799NA+    NA+39330  15.231  23.733   1.408
77800NA+    NA+39331  21.113  41.013  13.426
77801NA+    NA+39332  33.507  35.909  13.391
77802NA+    NA+39333  37.867  42.298  13.348
77803NA+    NA+39334  42.381  32.471  14.972
77804NA+    NA+39335   0.905  10.365  10.030
77805NA+    NA+39336  42.860  11.340  14.493
77806NA+    NA+39337   8.694   1.941  11.583
77807NA+    NA+39338  35.472  21.602   2.873
77808NA+    NA+39339  43.014   0.436   0.376
77809NA+    NA+39340  35.865  12.118   0.907
77810NA+    NA+39341  26.672  28.589  13.363
77811NA+    NA+39342  23.152  43.287   3.773
77812NA+    NA+39343  21.607  21.525   1.365
77813NA+    NA+39344   8.803  38.878  11.550
77814NA+    NA+39345  26.074  43.969   2.415
77815NA+    NA+39346  39.468  30.012  14.293
77816NA+    NA+39347  22.227   7.750  11.556
77817NA+    NA+39348  31.016  30.593   5.115
77818NA+    NA+39349  42.284  43.430  11.502
77819NA+    NA+39350  18.063   5.335  10.448
77820NA+    NA+39351  14.292  18.100   4.307
77821NA+    NA+39352  38.849  29.114   4.708
77822NA+    NA+39353  11.834   6.811   4.689
77823NA+    NA+39354   5.794  14.740  14.007
77824NA+    NA+39355  43.342  35.417   4.274
77825NA+    NA+39356  14.268  26.193   4.816
77826NA+    NA+39357   7.890  14.785  14.845
77827NA+    NA+39358  29.570  33.456  12.441
77828NA+    NA+39359   4.389  20.637  13.408
77829NA+    NA+39360  39.531  35.072   0.380
77830NA+    NA+39361  26.015  16.748  12.369
77831NA+    NA+39362  39.920   5.701  11.965
77832NA+    NA+39363  19.627  22.170  10.589
77833NA+    NA+39364  40.984  17.102   4.599
77834NA+    NA+39365  28.000  20.149  14.987
77835NA+    NA+39366  39.997  17.221  14.296
77836NA+    NA+39367  31.921   1.402   1.777
77837NA+    NA+39368  21.691  19.126   2.832
77838NA+    NA+39369   0.292  40.024   3.701
77839NA+    NA+39370  44.341  37.336   1.408
77840NA+    NA+39371  29.659  27.171  12.038
77841NA+    NA+39372  29.460   3.361  13.468
77842NA+    NA+39373  43.272  14.659  10.439
77843NA+    NA+39374  12.653  30.034   4.178
77844NA+    NA+39375  37.482  11.308  12.894
77845NA+    NA+39376   0.485  43.891  11.959
77846NA+    NA+39377  30.456  21.587   2.789
77847NA+    NA+39378  43.458  40.446  12.496
77848NA+    NA+39379  44.273  39.466  12.560
77849NA+    NA+39380  33.537  44.315  13.907
77850NA+    NA+39381  17.601  25.120   2.340
77851NA+    NA+39382  18.173   1.875   2.309
77852NA+    NA+39383  29.600  16.093   4.259
77853NA+    NA+39384  17.172  42.361   3.227
77854NA+    NA+39385   5.692   2.827  11.907
77855NA+    NA+39386  26.130   2.764  14.319
77856NA+    NA+39387  17.717   9.287  13.427
77857NA+    NA+39388  20.524  21.594  11.023
77858NA+    NA+39389  21.532  17.578  11.012
77859NA+    NA+39390  13.302  12.730   4.251
77860NA+    NA+39391  38.857   4.868   4.734
77861NA+    NA+39392   9.161   1.250   2.185
77862NA+    NA+39393   5.392  18.212  10.469
77863NA+    NA+39394   9.706  35.560  12.555
77864NA+    NA+39395  28.611  25.002   2.738
77865NA+    NA+39396   1.457   4.861   3.210
77866NA+    NA+39397   7.834  10.263   4.644
77867NA+    NA+39398  27.445  39.412   3.764
77868NA+    NA+39399  19.634  37.833   1.277
77869NA+    NA+39400  22.192  16.168  14.768
77870NA+    NA+39401   2.744  43.418   3.243
77871NA+    NA+39402   2.746   9.186  14.429
77872NA+    NA+39403   5.787   3.270   4.301
77873NA+    NA+39404   5.922  43.930   0.452
77874NA+    NA+39405   0.812  27.659  13.939
77875NA+    NA+39406  17.650  30.499  14.984
77876NA+    NA+39407  38.001  16.645  14.920
77877NA+    NA+39408  42.409  31.077   4.185
77878NA+    NA+39409  12.195   6.279  11.867
77879NA+    NA+39410  10.790  32.067   4.722
77880NA+    NA+39411  39.479  33.012  11.072
77881NA+    NA+39412   4.436  29.569   3.771
77882NA+    NA+39413  15.754  18.232   3.286
77883NA+    NA+39414  14.171  38.358  10.579
77884NA+    NA+39415   4.861   9.177  13.460
77885NA+    NA+39416  29.623  18.764   0.406
77886NA+    NA+39417  36.016  22.164  14.977
77887NA+    NA+39418  26.140  16.247   2.745
77888NA+    NA+39419   6.768   1.438   0.798
77889NA+    NA+39420  23.985  14.673   4.303
77890NA+    NA+39421   8.305  28.929  10.996
77891NA+    NA+39422  25.986  33.389  11.460
77892NA+    NA+39423  41.342  14.328   5.172
77893NA+    NA+39424  25.525  39.820   3.815
77894NA+    NA+39425  32.436   1.278  14.923
77895NA+    NA+39426  10.334  40.318   4.133
77896NA+    NA+39427   6.831  33.940  10.521
77897NA+    NA+39428  30.151  22.538  13.021
77898NA+    NA+39429   9.254  28.499  13.540
77899NA+    NA+39430  31.091   5.858  12.950
77900NA+    NA+39431   5.905   7.776   1.892
77901NA+    NA+39432  31.638  10.281   3.641
77902NA+    NA+39433  20.686  43.004  14.352
77903NA+    NA+39434  14.732  29.548  12.003
77904NA+    NA+39435  34.930  44.309   4.651
77905NA+    NA+39436  36.583  13.188   2.356
77906NA+    NA+39437  27.052  18.743  13.470
77907NA+    NA+39438  18.267  40.838   1.875
77908NA+    NA+39439  36.078  19.189   2.885
77909NA+    NA+39440  11.706  17.710   4.310
77910NA+    NA+39441   2.465  28.049   0.444
77911NA+    NA+39442  14.271  33.455   1.388
77912NA+    NA+39443  27.592  21.223   2.353
77913NA+    NA+39444  26.505  41.037  13.383
77914NA+    NA+39445  21.654  38.842   4.774
77915NA+    NA+39446  12.303  32.439   2.702
77916NA+    NA+39447  39.885   5.361  10.905
77917NA+    NA+39448  25.544  22.569   0.321
77918NA+    NA+39449  32.942  31.010   2.707
77919NA+    NA+39450  39.811  28.677  11.518
77920NA+    NA+39451  26.604  42.019  13.795
77921NA+    NA+39452  36.589  42.370  13.371
77922NA+    NA+39453   7.356  22.133  11.087
77923NA+    NA+39454  22.154  25.153   0.405
77924NA+    NA+39455  18.774  44.447  12.538
77925NA+    NA+39456  17.624   1.416  14.015
77926NA+    NA+39457   2.813  19.054   4.167
77927NA+    NA+39458  37.004  15.745   2.374
77928NA+    NA+39459   2.771  39.361   3.197
77929NA+    NA+39460   8.225  24.062   0.346
77930NA+    NA+39461  37.375  12.732  11.858
77931NA+    NA+39462  44.374  10.846  11.021
77932NA+    NA+39463  27.997  32.068  12.576
77933NA+    NA+39464  16.645  20.233   0.945
77934NA+    NA+39465  20.167  41.890  11.874
77935NA+    NA+39466  20.153  11.369   3.665
77936NA+    NA+39467   9.215   6.414  10.896
77937NA+    NA+39468  13.245  18.057  12.951
77938NA+    NA+39469  24.136  15.323   2.872
77939NA+    NA+39470  28.639  38.907   4.163
77940NA+    NA+39471  30.995  14.326  12.042
77941NA+    NA+39472  13.348  19.595   2.407
77942NA+    NA+39473  43.942  21.216  12.380
77943NA+    NA+39474  28.106  30.917  10.015
77944NA+    NA+39475  44.878  13.283   0.739
77945NA+    NA+39476  35.430  39.020  11.494
77946NA+    NA+39477   2.865  37.842   0.427
77947NA+    NA+39478   7.190   6.426  11.106
77948NA+    NA+39479  44.919  27.672   1.753
77949NA+    NA+39480  38.073   1.270  10.954
77950NA+    NA+39481  30.639  40.438  13.001
77951NA+    NA+39482  31.913  41.526   4.262
77952NA+    NA+39483   2.435   7.387  10.572
77953NA+    NA+39484  40.337   4.905   0.262
77954NA+    NA+39485  34.421  27.633   2.794
77955NA+    NA+39486   6.782  29.632  11.597
77956NA+    NA+39487  26.010   7.799  11.577
77957NA+    NA+39488  42.430   5.428  13.929
77958NA+    NA+39489   1.743  21.197  10.981
77959NA+    NA+39490  11.248  33.464  10.404
77960NA+    NA+39491  32.530  21.099   4.137
77961NA+    NA+39492  37.025  37.351  14.913
77962NA+    NA+39493  14.100  19.115   4.172
77963NA+    NA+39494   4.802  21.065  14.910
77964NA+    NA+39495  11.238  39.508   4.333
77965NA+    NA+39496  10.740  14.301   1.921
77966NA+    NA+39497  37.018  27.120  12.880
77967NA+    NA+39498  22.596  21.519  14.366
77968NA+    NA+39499   7.783   4.256   1.297
77969NA+    NA+39500   5.723  23.234  11.123
77970NA+    NA+39501  30.967   0.383  10.601
77971NA+    NA+39502   9.380   6.916   0.916
77972NA+    NA+39503  11.146   5.691  10.509
77973NA+    NA+39504  19.117  20.539  12.006
77974NA+    NA+39505  40.541  21.654  13.841
77975NA+    NA+39506  15.199  23.007  14.983
77976NA+    NA+39507  36.493  19.160  10.414
77977NA+    NA+39508   7.357  28.553  11.375
77978NA+    NA+39509  23.070  23.728  14.850
77979NA+    NA+39510  31.114  10.689  11.575
77980NA+    NA+39511   0.973  29.929   2.253
77981NA+    NA+39512  43.962  12.120   0.388
77982NA+    NA+39513  44.888   2.384  12.056
77983NA+    NA+39514  39.896  31.077  12.377
77984NA+    NA+39515   2.806  19.758  12.869
77985NA+    NA+39516  18.253  19.607  11.557
77986NA+    NA+39517  35.603   3.316  14.347
77987NA+    NA+39518  28.042  14.681  10.545
77988NA+    NA+39519  15.127  29.539  14.897
77989NA+    NA+39520  39.419  22.535   1.240
77990NA+    NA+39521   5.213   6.695   1.885
77991NA+    NA+39522  19.179   9.803  13.354
77992NA+    NA+39523  12.217  12.220  10.948
77993NA+    NA+39524  27.018  32.104  13.452
77994NA+    NA+39525   7.698  15.090   3.273
77995NA+    NA+39526  37.503  21.220  14.511
77996NA+    NA+39527  28.456  11.805   1.351
77997NA+    NA+39528  30.462  37.368   4.704
77998NA+    NA+39529   4.829   5.771   3.199
77999NA+    NA+39530  37.990  39.061   5.317
78000NA+    NA+39531  38.000  13.225  14.923
78001NA+    NA+39532  31.607   1.444   0.728
78002NA+    NA+39533  26.615  32.418   0.868
78003NA+    NA+39534   7.202  32.976  13.313
78004NA+    NA+39535  22.506  44.318  10.604
78005NA+    NA+39536  25.005  38.515   0.393
78006NA+    NA+39537  34.027  26.140  14.423
78007NA+    NA+39538  26.669  30.913  14.025
78008NA+    NA+39539   0.472  35.956   0.453
78009NA+    NA+39540  32.116  14.247  14.015
78010NA+    NA+39541   7.363  36.076   0.483
78011NA+    NA+39542  21.520  11.820  11.373
78012NA+    NA+39543  42.919  16.309  14.015
78013NA+    NA+39544  37.949  25.025   3.317
78014NA+    NA+39545  35.496  35.892   1.797
78015NA+    NA+39546  19.273   1.906   0.278
78016NA+    NA+39547  42.836   3.876   1.418
78017NA+    NA+39548  37.917   4.259   2.823
78018NA+    NA+39549  15.311  26.497   4.795
78019NA+    NA+39550  23.096   7.870   4.285
78020NA+    NA+39551  14.596   4.291  11.865
78021NA+    NA+39552  43.426  19.713   2.900
78022NA+    NA+39553   5.335  44.439  14.435
78023NA+    NA+39554   4.877   8.355   3.174
78024NA+    NA+39555  44.341  34.430  13.847
78025NA+    NA+39556   3.881   4.227  12.863
78026NA+    NA+39557   7.763  30.142  12.057
78027NA+    NA+39558   2.966  33.878   4.735
78028NA+    NA+39559  21.733  41.013   3.829
78029NA+    NA+39560  10.198   9.273  11.864
78030NA+    NA+39561   2.811  24.054   4.258
78031NA+    NA+39562  20.266   6.880  12.878
78032NA+    NA+39563   6.287   0.352  12.451
78033NA+    NA+39564  40.851  31.932   0.929
78034NA+    NA+39565  41.980   4.267  14.857
78035NA+    NA+39566   9.672  19.122  14.831
78036NA+    NA+39567  12.730   7.886  10.932
78037NA+    NA+39568  35.104  14.145  13.313
78038NA+    NA+39569  25.072  30.619   3.317
78039NA+    NA+39570  10.280  26.046  12.997
78040NA+    NA+39571  10.224   0.292  10.564
78041NA+    NA+39572  38.830  33.088  10.608
78042NA+    NA+39573  30.080  38.548   3.368
78043NA+    NA+39574  21.664  18.771   3.320
78044NA+    NA+39575   6.345  35.070   5.095
78045NA+    NA+39576  35.036   0.442   0.413
78046NA+    NA+39577  18.585   2.297   4.830
78047NA+    NA+39578   4.296  23.704   9.654
78048NA+    NA+39579  20.697   2.263  11.855
78049NA+    NA+39580   9.822  24.024   4.195
78050NA+    NA+39581  41.449  36.375  11.610
78051NA+    NA+39582  14.731  24.540   2.856
78052NA+    NA+39583  35.442  42.336  12.044
78053NA+    NA+39584  41.033  41.354  13.018
78054NA+    NA+39585  18.269  13.606   4.134
78055NA+    NA+39586  12.180  31.537  12.375
78056NA+    NA+39587  43.009  24.023   3.677
78057NA+    NA+39588   1.939  20.681  12.910
78058NA+    NA+39589   3.260  42.808  10.509
78059NA+    NA+39590  39.351   7.294   3.721
78060NA+    NA+39591  23.524   1.452  13.418
78061NA+    NA+39592  10.355  18.079   4.703
78062NA+    NA+39593  42.519  32.459   0.752
78063NA+    NA+39594  35.892   1.844  13.888
78064NA+    NA+39595  37.441  18.295   0.965
78065NA+    NA+39596  41.449  39.880   1.783
78066NA+    NA+39597  33.490  38.875  13.990
78067NA+    NA+39598  29.976  29.601  13.896
78068NA+    NA+39599  41.913  10.306  10.990
78069NA+    NA+39600   1.910  30.588   1.432
78070NA+    NA+39601  25.096  40.900   1.898
78071NA+    NA+39602   5.296   9.150  13.897
78072NA+    NA+39603  41.977   9.792   0.369
78073NA+    NA+39604  26.076  43.516  14.407
78074NA+    NA+39605  17.065  33.111  14.815
78075NA+    NA+39606   4.378  37.398  12.974
78076NA+    NA+39607  41.343  30.530   3.765
78077NA+    NA+39608  43.273  13.757   4.229
78078NA+    NA+39609  19.545  19.060   3.710
78079NA+    NA+39610   1.869  26.134  12.344
78080NA+    NA+39611  11.764  35.017   4.285
78081NA+    NA+39612   0.763  12.775  11.556
78082NA+    NA+39613  21.111  30.589   1.861
78083NA+    NA+39614   1.882  22.179   3.167
78084NA+    NA+39615  16.787   4.763   2.808
78085NA+    NA+39616   6.265  35.538   4.810
78086NA+    NA+39617  44.373  31.522  14.969
78087NA+    NA+39618  39.334   6.797   2.281
78088NA+    NA+39619  17.699  19.209   4.114
78089NA+    NA+39620   4.799  44.355   1.378
78090NA+    NA+39621  15.194  20.132   4.742
78091NA+    NA+39622  22.659  13.136  14.845
78092NA+    NA+39623  28.173  10.283   1.384
78093NA+    NA+39624  43.497   3.873   1.759
78094NA+    NA+39625   7.864  44.480  13.844
78095NA+    NA+39626   2.838  26.110   3.710
78096NA+    NA+39627  25.205  30.058   2.385
78097NA+    NA+39628  34.546  27.612   1.777
78098NA+    NA+39629  32.394   6.917   3.660
78099NA+    NA+39630   5.315   5.771   0.431
78100NA+    NA+39631  43.945  27.097   1.415
78101NA+    NA+39632  10.188   3.864   4.266
78102NA+    NA+39633  38.511   5.383   2.334
78103NA+    NA+39634  29.540  23.107  13.976
78104NA+    NA+39635  11.221  17.577   4.335
78105NA+    NA+39636  27.627   2.390   0.902
78106NA+    NA+39637  29.452  17.239  11.925
78107NA+    NA+39638  32.480  37.363   4.809
78108NA+    NA+39639  32.519  33.561  14.469
78109NA+    NA+39640  18.700  10.732   2.663
78110NA+    NA+39641  17.226  20.743   0.890
78111NA+    NA+39642  39.948   4.424  14.458
78112NA+    NA+39643  33.975   9.765  13.522
78113NA+    NA+39644  28.133  39.342  13.379
78114NA+    NA+39645  16.793  33.597  14.417
78115NA+    NA+39646  13.803  28.947   1.851
78116NA+    NA+39647  26.567  43.444   2.240
78117NA+    NA+39648  33.971  35.594   3.339
78118NA+    NA+39649  26.602   3.416  11.019
78119NA+    NA+39650  29.063  29.056  13.474
78120NA+    NA+39651  21.691   1.270  11.907
78121NA+    NA+39652   2.471  23.534   0.343
78122NA+    NA+39653  44.397  44.372  14.917
78123NA+    NA+39654  10.833   3.762  12.844
78124NA+    NA+39655  36.500  24.556   1.694
78125NA+    NA+39656  34.557   6.850  13.386
78126NA+    NA+39657  13.188  40.825  13.316
78127NA+    NA+39658  29.078  31.605  11.416
78128NA+    NA+39659  16.789  41.435  10.914
78129NA+    NA+39660  36.553  31.568   2.843
78130NA+    NA+39661  24.539  17.612  11.532
78131NA+    NA+39662  40.943   8.360  11.992
78132NA+    NA+39663  30.561  18.210  12.082
78133NA+    NA+39664  14.747  33.406   4.314
78134NA+    NA+39665   2.230  40.371   3.712
78135NA+    NA+39666  34.609   1.882  10.449
78136NA+    NA+39667   1.407   0.483  13.921
78137NA+    NA+39668  28.503  24.490  10.535
78138NA+    NA+39669  29.950   9.158   1.834
78139NA+    NA+39670   4.885  42.440   1.435
78140NA+    NA+39671   6.866  42.891  11.000
78141NA+    NA+39672  26.648  28.568  10.634
78142NA+    NA+39673   9.193  13.608  14.315
78143NA+    NA+39674   7.766   6.241   0.842
78144NA+    NA+39675  21.551  38.345   3.369
78145NA+    NA+39676  15.639   9.169  13.471
78146NA+    NA+39677  42.332  20.747   0.479
78147NA+    NA+39678   8.179   2.398  13.525
78148NA+    NA+39679   5.825   1.898   2.376
78149NA+    NA+39680   0.378  37.007   2.771
78150NA+    NA+39681  15.243  19.081  12.835
78151NA+    NA+39682  17.193   1.741  10.049
78152NA+    NA+39683   1.263  19.565   1.813
78153NA+    NA+39684  29.670  20.143  13.057
78154NA+    NA+39685  28.013  14.802   2.389
78155NA+    NA+39686   8.228  18.050   1.764
78156NA+    NA+39687   3.375  21.728  10.920
78157NA+    NA+39688  43.383  33.475  12.080
78158NA+    NA+39689  13.611  29.495  11.444
78159NA+    NA+39690  13.230   9.190   0.962
78160NA+    NA+39691   2.470  33.542   4.318
78161NA+    NA+39692  12.734  35.582  13.414
78162NA+    NA+39693   6.857  19.163   4.683
78163NA+    NA+39694  24.052  29.082  11.374
78164NA+    NA+39695  41.297  27.004   4.208
78165NA+    NA+39696   0.464  43.953  14.890
78166NA+    NA+39697  31.055  16.578   1.448
78167NA+    NA+39698  12.198  22.106   2.663
78168NA+    NA+39699  37.551  23.164   1.721
78169NA+    NA+39700   3.219   5.891  12.946
78170NA+    NA+39701  26.142  23.532  12.018
78171NA+    NA+39702   4.273  15.593  10.501
78172NA+    NA+39703  15.320  28.674   4.828
78173CL-    CL-39704   5.431  33.527  14.015
78174CL-    CL-39705   8.737  13.114   0.770
78175CL-    CL-39706   0.933  32.565   3.769
78176CL-    CL-39707   7.887  33.417  10.134
78177CL-    CL-39708  28.016  42.310  13.464
78178CL-    CL-39709   8.260  39.904   3.255
78179CL-    CL-39710  17.300  23.003   0.289
78180CL-    CL-39711  20.585  36.559   2.839
78181CL-    CL-39712  34.943  28.568  13.391
78182CL-    CL-39713  34.604  38.915  12.364
78183CL-    CL-39714  38.904  42.026  13.437
78184CL-    CL-39715  19.741  29.665   4.200
78185CL-    CL-39716   9.726   0.832  14.363
78186CL-    CL-39717   1.334   3.892  13.987
78187CL-    CL-39718   6.834   4.819   2.835
78188CL-    CL-39719  18.674  34.935   3.186
78189CL-    CL-39720  32.024  41.806  12.501
78190CL-    CL-39721   3.220  11.625   3.800
78191CL-    CL-39722  32.933  20.167   2.782
78192CL-    CL-39723   1.930  14.324   1.766
78193CL-    CL-39724   9.670  20.728   2.718
78194CL-    CL-39725   1.838   6.758   1.224
78195CL-    CL-39726  15.627  15.271  12.346
78196CL-    CL-39727   0.760  16.110   3.685
78197CL-    CL-39728  27.465  31.014  10.610
78198CL-    CL-39729  21.108  15.758  14.965
78199CL-    CL-39730  37.340  35.922   3.344
78200CL-    CL-39731  16.717  23.083   5.139
78201CL-    CL-39732  44.424  11.201   2.251
78202CL-    CL-39733   9.882   7.731  10.456
78203CL-    CL-39734   7.238   5.279  13.910
78204CL-    CL-39735   6.845  28.576  13.852
78205CL-    CL-39736   8.850  38.396  10.576
78206CL-    CL-39737  33.564  36.538   0.817
78207CL-    CL-39738   7.207  12.195  11.973
78208CL-    CL-39739   4.404  40.866   1.379
78209CL-    CL-39740   8.677   7.226   2.295
78210CL-    CL-39741  12.676  34.516   4.727
78211CL-    CL-39742  33.954   1.348  13.326
78212CL-    CL-39743  40.534  12.614   1.864
78213CL-    CL-39744   8.815  18.237  14.023
78214CL-    CL-39745  35.563   5.910   1.766
78215CL-    CL-39746  20.124  40.418  10.602
78216CL-    CL-39747  26.032   7.852  12.925
78217CL-    CL-39748  39.413  33.614   4.177
78218CL-    CL-39749  28.120  13.185  12.895
78219CL-    CL-39750  20.161  23.181   2.789
78220CL-    CL-39751  44.275  27.959  14.921
78221CL-    CL-39752  43.884  35.452  12.473
78222CL-    CL-39753  34.884  44.831   0.302
78223CL-    CL-39754   4.778   2.737   0.734
78224CL-    CL-39755  23.984   3.218   0.947
78225CL-    CL-39756  11.239  34.002  13.347
78226CL-    CL-39757  32.064  39.815   0.354
78227CL-    CL-39758  33.047   3.836  14.355
78228CL-    CL-39759  44.950   7.369   2.248
78229CL-    CL-39760  31.141  28.604   4.751
78230CL-    CL-39761  25.091  24.600  13.950
78231CL-    CL-39762  28.057  14.750   3.301
78232CL-    CL-39763  28.606  12.712  13.875
78233CL-    CL-39764  44.440   3.711   3.331
78234CL-    CL-39765  25.648  10.147  12.899
78235CL-    CL-39766  19.230   3.952  12.417
78236CL-    CL-39767  31.067  31.932   1.722
78237CL-    CL-39768  19.724  34.097  13.017
78238CL-    CL-39769  37.555  25.053   0.789
78239CL-    CL-39770   8.171  38.343   4.755
78240CL-    CL-39771  22.208  13.802  11.573
78241CL-    CL-39772   3.390  35.384  13.000
78242CL-    CL-39773  33.994  12.356  12.441
78243CL-    CL-39774  24.034  39.033   3.636
78244CL-    CL-39775  10.763   3.247   0.304
78245CL-    CL-39776  31.446   0.446  11.481
78246CL-    CL-39777  18.700  13.265  12.856
78247CL-    CL-39778  37.495   5.361   0.825
78248CL-    CL-39779  16.577  32.415   2.897
78249CL-    CL-39780  26.699  36.573  12.988
78250CL-    CL-39781  35.885  30.504   3.192
78251CL-    CL-39782  31.013  27.554   2.793
78252CL-    CL-39783  18.062  32.491   4.297
78253CL-    CL-39784  15.805   0.901   4.721
78254CL-    CL-39785   4.446   3.933  11.600
78255CL-    CL-39786   1.941  22.998   3.847
78256CL-    CL-39787   9.219  32.982  11.101
78257CL-    CL-39788   8.754   0.437  10.594
78258CL-    CL-39789  28.660  34.436  12.020
78259CL-    CL-39790  13.154  25.050   1.451
78260CL-    CL-39791  44.984  17.614  13.507
78261CL-    CL-39792  38.483   8.764   4.635
78262CL-    CL-39793   4.368  23.093  11.551
78263CL-    CL-39794  14.696  18.125   2.228
78264CL-    CL-39795  16.237  39.827  12.014
78265CL-    CL-39796  38.069   9.755  12.509
78266CL-    CL-39797  15.617  14.705   2.321
78267CL-    CL-39798   6.290  39.975  11.012
78268CL-    CL-39799   7.831  17.731   3.686
78269CL-    CL-39800  12.674   9.663  12.012
78270CL-    CL-39801  30.067   2.765   0.826
78271CL-    CL-39802  18.091  18.607   4.230
78272CL-    CL-39803  14.229   4.779  11.569
78273CL-    CL-39804   9.805  40.982   3.674
78274CL-    CL-39805   7.715  36.090  14.321
78275CL-    CL-39806  10.647  26.085   2.390
78276CL-    CL-39807  25.011  33.936  10.970
78277CL-    CL-39808  21.125  28.463   0.369
78278CL-    CL-39809  22.098  15.267  14.276
78279CL-    CL-39810  30.015  11.726  10.957
78280CL-    CL-39811  22.052  35.541   1.306
78281CL-    CL-39812  24.674  12.689   1.279
78282CL-    CL-39813   5.285  27.984   1.352
78283CL-    CL-39814  36.086  37.038   2.335
78284CL-    CL-39815  20.224  36.056   1.435
78285CL-    CL-39816  24.663   1.775   3.677
78286CL-    CL-39817  22.655  23.692   4.763
78287CL-    CL-39818  33.044  31.559   2.687
78288CL-    CL-39819  34.118  17.237  13.415
78289CL-    CL-39820  40.030  35.368   4.600
78290CL-    CL-39821   8.194  36.358   2.744
78291CL-    CL-39822  37.366  39.814   1.402
78292CL-    CL-39823  44.328  35.584  12.534
78293CL-    CL-39824   3.905  44.765   4.250
78294CL-    CL-39825   2.417  21.595  14.954
78295CL-    CL-39826  29.120  22.728  11.883
78296CL-    CL-39827   4.767  34.920  10.538
78297CL-    CL-39828  17.267  27.941   3.854
78298CL-    CL-39829  18.570  26.029   2.418
78299CL-    CL-39830   5.862  17.151   1.734
78300CL-    CL-39831   8.287  29.058   2.255
78301CL-    CL-39832  16.593  41.412   4.602
78302CL-    CL-39833  26.037  29.477  13.907
78303CL-    CL-39834  10.345  26.020   0.923
78304CL-    CL-39835  27.654  42.525  14.846
78305CL-    CL-39836   5.437  22.155   4.632
78306CL-    CL-39837   5.304  13.175   0.265
78307CL-    CL-39838  22.177  23.070   1.358
78308CL-    CL-39839  24.038   2.924  14.768
78309CL-    CL-39840  15.589   8.329   2.367
78310CL-    CL-39841  10.259  28.071   5.173
78311CL-    CL-39842  28.512  27.942   1.254
78312CL-    CL-39843  12.797  30.522  12.881
78313CL-    CL-39844  44.476  29.487   1.344
78314CL-    CL-39845  41.807  39.492   3.146
78315CL-    CL-39846  39.943  30.137  12.054
78316CL-    CL-39847  28.959  19.686   1.239
78317CL-    CL-39848   2.748  43.368  13.972
78318CL-    CL-39849  30.474  40.981   3.716
78319CL-    CL-39850  34.075  40.403  12.463
78320CL-    CL-39851  25.661  37.336   0.786
78321CL-    CL-39852  28.503  17.588   2.324
78322CL-    CL-39853  41.432  26.690  13.798
78323CL-    CL-39854  19.223  25.476  12.532
78324CL-    CL-39855  22.611  30.446   0.291
78325CL-    CL-39856  36.406   8.241   3.329
78326CL-    CL-39857  14.207  22.689   1.339
78327CL-    CL-39858  42.406   4.419  10.572
78328CL-    CL-39859  29.567  28.946  11.980
78329CL-    CL-39860   5.409  30.016   3.852
78330CL-    CL-39861  25.534  24.227  14.465
78331CL-    CL-39862  29.564  38.396  11.881
78332CL-    CL-39863  15.316  33.883  14.298
78333CL-    CL-39864  10.152  28.113  11.424
78334CL-    CL-39865  39.943  18.658  12.929
78335CL-    CL-39866   3.270  12.293   1.413
78336CL-    CL-39867  32.521   9.380  10.436
78337CL-    CL-39868   2.881  44.840   0.396
78338CL-    CL-39869  25.060  13.241   1.213
78339CL-    CL-39870   7.208  20.203   1.450
78340CL-    CL-39871  12.201  33.113  12.851
78341CL-    CL-39872   6.844   7.735   3.175
78342CL-    CL-39873   3.387  10.173  12.033
78343CL-    CL-39874  27.032  39.913  12.351
78344CL-    CL-39875   3.282  25.985  12.041
78345CL-    CL-39876  28.573  36.851  12.895
78346CL-    CL-39877  43.843  27.185  12.528
78347CL-    CL-39878   9.886  13.143   1.445
78348CL-    CL-39879  27.470  33.537  13.824
78349CL-    CL-39880  34.607  41.794  12.868
78350CL-    CL-39881  38.042  32.505   4.276
78351CL-    CL-39882  24.000   4.386  14.853
78352CL-    CL-39883  33.487   6.723  10.935
78353CL-    CL-39884  23.169  25.608   2.396
78354CL-    CL-39885  32.427  10.151   0.789
78355CL-    CL-39886   3.286  27.661  12.015
78356CL-    CL-39887  35.031  24.500   1.283
78357CL-    CL-39888  12.173  43.365  13.891
78358CL-    CL-39889  21.730  23.034  11.077
78359CL-    CL-39890   6.774  41.459  14.858
78360CL-    CL-39891  23.734  17.207  10.565
78361CL-    CL-39892  29.014  15.737  13.527
78362CL-    CL-39893   4.226  33.046  14.485
78363CL-    CL-39894   0.890  12.219  13.476
78364CL-    CL-39895  16.753  27.094  11.415
78365CL-    CL-39896  11.368   0.463   0.472
78366CL-    CL-39897  23.102  15.732   1.824
78367CL-    CL-39898  16.787  24.070   1.229
78368CL-    CL-39899  15.710  38.560   4.339
78369CL-    CL-39900  20.237  27.584   3.854
78370CL-    CL-39901  18.132  34.598   3.784
78371CL-    CL-39902  23.104  35.006  14.501
78372CL-    CL-39903  24.133   8.747  13.903
78373CL-    CL-39904   6.770  43.846   2.410
78374CL-    CL-39905  15.729  38.568   3.356
78375CL-    CL-39906  10.822  30.010   3.267
78376CL-    CL-39907   2.787  26.082   3.384
78377CL-    CL-39908  44.281   1.239  11.117
78378CL-    CL-39909  13.256  39.346   3.271
78379CL-    CL-39910  30.033  39.355   2.727
78380CL-    CL-39911  38.337  36.414   2.762
78381CL-    CL-39912  16.280  37.542  14.330
78382CL-    CL-39913  16.274  17.112  14.355
78383CL-    CL-39914  17.780  19.593  10.958
78384CL-    CL-39915  18.766   3.224   1.317
78385CL-    CL-39916  40.975  38.466   4.251
78386CL-    CL-39917  21.140  29.615  11.544
78387CL-    CL-39918  27.181  24.536  11.915
78388CL-    CL-39919   1.867  16.579   4.153
78389CL-    CL-39920  39.997  31.937   2.252
78390CL-    CL-39921  16.278   2.890  10.974
78391CL-    CL-39922  15.748   4.726  13.886
78392CL-    CL-39923  39.337  24.080   3.637
78393CL-    CL-39924  36.443  20.124  12.442
78394CL-    CL-39925   0.812  16.636  12.475
78395CL-    CL-39926  26.127   5.256   2.402
78396CL-    CL-39927  28.528  21.171  12.898
78397CL-    CL-39928   9.748  28.002   0.400
78398CL-    CL-39929  34.992  22.725  13.320
78399CL-    CL-39930  23.230  25.058  13.859
78400CL-    CL-39931  30.434  32.132  10.887
78401CL-    CL-39932  22.527  13.711   2.773
78402CL-    CL-39933  40.815  34.074  10.415
78403CL-    CL-39934  27.128  33.450   2.691
78404CL-    CL-39935   4.876   8.686   1.855
78405CL-    CL-39936  44.754  36.490   3.366
78406CL-    CL-39937   2.805   3.821  14.761
78407CL-    CL-39938  25.686  27.518   1.288
78408CL-    CL-39939  18.558  40.839  14.962
78409CL-    CL-39940  29.951   3.364   2.412
78410CL-    CL-39941  10.260   4.768  11.481
78411CL-    CL-39942   6.376  25.202   2.235
78412CL-    CL-39943  12.631  14.097  14.915
78413CL-    CL-39944  17.593  43.003   3.165
78414CL-    CL-39945   5.821  20.592  10.443
78415CL-    CL-39946   0.781   7.374   3.683
78416CL-    CL-39947  38.340  20.028  12.909
78417CL-    CL-39948   8.368  35.470   4.164
78418CL-    CL-39949  34.405  22.077   2.841
78419CL-    CL-39950  36.938  28.521   3.312
78420CL-    CL-39951  44.384  43.805   0.257
78421CL-    CL-39952  11.799  40.514  14.031
78422CL-    CL-39953  28.158  15.163  11.449
78423CL-    CL-39954  12.825  17.224  13.513
78424CL-    CL-39955  39.424  29.062   4.765
78425CL-    CL-39956  29.950  22.614  10.953
78426CL-    CL-39957  38.325  32.460   4.630
78427CL-    CL-39958   8.223  37.342   1.225
78428CL-    CL-39959   3.921  20.203   2.859
78429CL-    CL-39960  29.600   9.242  13.943
78430CL-    CL-39961  30.542  13.837  12.525
78431CL-    CL-39962   8.375  12.151  13.047
78432CL-    CL-39963  31.937  20.141  14.964
78433CL-    CL-39964  11.656  30.650  13.413
78434CL-    CL-39965  38.857   8.272  11.515
78435CL-    CL-39966  19.556  28.625  11.571
78436CL-    CL-39967  21.742  13.258  13.930
78437CL-    CL-39968  26.624  18.747  13.442
78438CL-    CL-39969  32.548  16.106  13.491
78439CL-    CL-39970  27.447  29.509   5.679
78440CL-    CL-39971   8.704  23.222  11.081
78441CL-    CL-39972  41.398  29.003  11.423
78442CL-    CL-39973  32.107  15.744   0.336
78443CL-    CL-39974  36.569  39.025   4.837
78444CL-    CL-39975  16.290  22.071   4.723
78445CL-    CL-39976   1.346  35.463  12.561
78446CL-    CL-39977  39.050  28.657   2.832
78447CL-    CL-39978  37.432  22.042   0.772
78448CL-    CL-39979  21.698  10.693   0.795
78449CL-    CL-39980   3.337  10.268   0.790
78450CL-    CL-39981  42.369  33.001  14.931
78451CL-    CL-39982  14.134  15.669  11.534
78452CL-    CL-39983  35.452  17.735  14.342
78453CL-    CL-39984  16.599  44.356  14.322
78454CL-    CL-39985  20.640  29.502  14.982
78455CL-    CL-39986  36.434   2.431   2.232
78456CL-    CL-39987  26.954   5.295   3.736
78457CL-    CL-39988   7.809   9.340   1.212
78458CL-    CL-39989  14.592  26.203  13.993
78459CL-    CL-39990   5.428  41.345  10.625
78460CL-    CL-39991  38.393  18.675  11.058
78461CL-    CL-39992  23.053  34.593  11.112
78462CL-    CL-39993   0.377   4.703   1.316
78463CL-    CL-39994  25.584   8.823  14.843
78464CL-    CL-39995  21.670  26.065   1.426
78465CL-    CL-39996   3.857   8.655  13.845
78466CL-    CL-39997  10.753   8.743  12.396
78467CL-    CL-39998  23.044  40.507  13.472
78468CL-    CL-39999  17.099  28.625   4.188
78469CL-    CL-40000  43.386   7.347   3.647
78470CL-    CL-40001  19.764  37.536  14.307
78471CL-    CL-40002   3.791  29.006  13.393
78472CL-    CL-40003  39.894  11.157  14.936
78473CL-    CL-40004  36.853  26.663  10.420
78474CL-    CL-40005   5.194  43.458   2.319
78475CL-    CL-40006  37.576  21.077  11.051
78476CL-    CL-40007  36.014   3.909  13.026
78477CL-    CL-40008   3.415  30.591  12.917
78478CL-    CL-40009  44.338  11.150  11.480
78479CL-    CL-40010  37.904  18.681   3.834
78480CL-    CL-40011  27.000   2.403  13.859
78481CL-    CL-40012  23.584  26.139   2.674
78482CL-    CL-40013   4.271   1.976  13.053
78483CL-    CL-40014  13.840  22.220   1.810
78484CL-    CL-40015  16.701   1.818   0.438
78485CL-    CL-40016  15.801  34.494   3.182
78486CL-    CL-40017  21.663   7.887  12.912
78487CL-    CL-40018  20.050   2.864  11.010
78488CL-    CL-40019  16.213  28.564   1.847
78489CL-    CL-40020   6.884  42.430  13.042
78490CL-    CL-40021  33.473  40.961   2.855
78491CL-    CL-40022  40.494  32.021  12.560
78492CL-    CL-40023  11.856  43.460  12.908
78493CL-    CL-40024  32.969   1.820  13.812
78494CL-    CL-40025   2.845  35.534   4.797
78495CL-    CL-40026  16.730  28.522   4.707
78496CL-    CL-40027  34.503  34.028  10.909
78497CL-    CL-40028  44.961   2.433   0.428
78498CL-    CL-40029  43.394   2.303  14.449
78499CL-    CL-40030  17.777   2.351   2.771
78500CL-    CL-40031   0.892  35.519  12.452
78501CL-    CL-40032  29.090  40.048   2.282
78502CL-    CL-40033   4.774  34.010  13.528
78503CL-    CL-40034   2.930  14.178   1.300
78504CL-    CL-40035  21.702  29.582   3.827
78505CL-    CL-40036  17.191   6.809   1.398
78506CL-    CL-40037   6.750  12.693   1.909
78507CL-    CL-40038  21.244  16.780   4.316
78508CL-    CL-40039  24.598  36.019   0.853
78509CL-    CL-40040  22.132  40.005  13.052
78510CL-    CL-40041  12.333  41.036   0.484
78511CL-    CL-40042  12.279  24.622   4.323
78512CL-    CL-40043  28.936   8.866  11.998
78513CL-    CL-40044   4.786  39.844   0.862
78514CL-    CL-40045  41.412   7.232   0.388
78515CL-    CL-40046   7.816  27.566   3.152
78516CL-    CL-40047   6.835  30.969   1.854
78517CL-    CL-40048   3.755  29.129   2.398
78518CL-    CL-40049  36.892   5.415  13.828
78519CL-    CL-40050  22.176  42.943   4.162
78520CL-    CL-40051  34.524  32.111   0.891
78521CL-    CL-40052  38.458   2.764  10.622
78522CL-    CL-40053  37.408   8.770   5.266
78523CL-    CL-40054  36.938  26.172   4.719
78524CL-    CL-40055  34.941   8.252  10.924
78525CL-    CL-40056  38.349  32.125   3.147
78526CL-    CL-40057   9.318   3.783  14.006
78527CL-    CL-40058  27.485   0.923   0.269
78528CL-    CL-40059  23.175  43.957   1.838
78529CL-    CL-40060   4.349  40.903   4.721
78530CL-    CL-40061  40.342  18.144  11.511
78531CL-    CL-40062  28.031   4.779   4.740
78532CL-    CL-40063  13.140  15.312   2.189
78533CL-    CL-40064  21.050   3.316  13.035
78534CL-    CL-40065  22.680   3.332  12.909
78535CL-    CL-40066  41.821   6.825  14.830
78536CL-    CL-40067  23.018   2.243  11.862
78537CL-    CL-40068   5.301  15.216   1.742
78538CL-    CL-40069  43.503   1.975   1.408
78539CL-    CL-40070   5.793  36.038   3.204
78540CL-    CL-40071  39.889  14.286   5.320
78541CL-    CL-40072  22.057  32.474   1.348
78542CL-    CL-40073  27.120  23.134  11.613
78543CL-    CL-40074  14.679  40.393   3.797
78544CL-    CL-40075  40.315  12.124  14.944
78545CL-    CL-40076  22.047  29.101  12.375
78546CL-    CL-40077  19.554  20.638   1.838
78547CL-    CL-40078  28.515  44.310   3.366
78548CL-    CL-40079  33.509  25.596   2.774
78549CL-    CL-40080  19.535  33.556   3.839
78550CL-    CL-40081  36.537  22.081  11.502
78551CL-    CL-40082   9.297  15.702  10.490
78552CL-    CL-40083   7.804  32.052   2.378
78553CL-    CL-40084  11.286  43.997  13.350
78554CL-    CL-40085  27.986  21.756   2.822
78555CL-    CL-40086  32.453  42.297   0.401
78556CL-    CL-40087  16.112   5.256  14.987
78557CL-    CL-40088  27.112  33.091   5.158
78558CL-    CL-40089   5.763  14.813   2.184
78559CL-    CL-40090  44.326   5.400   0.765
78560CL-    CL-40091  14.654  16.605   2.180
78561CL-    CL-40092   6.276  19.612   5.213
78562CL-    CL-40093  25.712   1.892  14.808
78563CL-    CL-40094  17.743  28.613   4.653
78564CL-    CL-40095  14.320  17.774   3.314
78565CL-    CL-40096   2.795  42.951  11.050
78566CL-    CL-40097  19.620  34.901  10.601
78567CL-    CL-40098   3.720  22.646   4.791
78568CL-    CL-40099  28.956  44.365   4.775
78569CL-    CL-40100  12.156  33.939   2.235
78570CL-    CL-40101  16.756  19.712  13.400
78571CL-    CL-40102  25.061   1.396   4.216
78572CL-    CL-40103  19.687  14.619  12.824
78573CL-    CL-40104   9.745  42.017  14.918
78574CL-    CL-40105  38.911  14.834   1.780
78575CL-    CL-40106  33.997  29.474   1.726
78576CL-    CL-40107  19.545  18.594   4.795
78577CL-    CL-40108  37.013  38.892  10.454
78578CL-    CL-40109  31.125   3.240   5.154
78579CL-    CL-40110   1.930  27.612   4.661
78580CL-    CL-40111  42.996  14.230  13.408
78581CL-    CL-40112  14.339  32.930   4.254
78582CL-    CL-40113  29.657  16.258   2.836
78583CL-    CL-40114  37.491  34.423   2.179
78584CL-    CL-40115   9.308  39.901  11.933
78585CL-    CL-40116  30.129  43.982  13.053
78586CL-    CL-40117   1.764   9.322   1.340
78587CL-    CL-40118  27.521  44.009  12.401
78588CL-    CL-40119  38.449  25.129  11.112
78589CL-    CL-40120  38.961  20.161   1.906
78590CL-    CL-40121  34.887  42.028   4.621
78591CL-    CL-40122  25.985   9.677   2.384
78592CL-    CL-40123  15.210  12.289   1.258
78593CL-    CL-40124  10.326  29.016   2.694
78594CL-    CL-40125  16.609  24.067  12.898
78595CL-    CL-40126  35.509  43.893   3.865
78596CL-    CL-40127  35.907  29.087  10.564
78597CL-    CL-40128  43.988  27.591  13.944
78598CL-    CL-40129   0.785  17.274  12.933
78599CL-    CL-40130  44.413  35.534   9.924
78600CL-    CL-40131  32.458   1.433   2.412
78601CL-    CL-40132  14.318  18.706  13.794
78602CL-    CL-40133  23.224  35.362   2.704
78603CL-    CL-40134  17.586  41.836   4.160
78604CL-    CL-40135  15.221  41.934   1.824
78605CL-    CL-40136   0.329  28.930   0.320
78606CL-    CL-40137  23.646  18.590  10.593
78607CL-    CL-40138  16.210  27.087   3.825
78608CL-    CL-40139  32.470  42.817  12.991
78609CL-    CL-40140  17.070  10.822  11.388
78610CL-    CL-40141  44.944   1.464  13.798
78611CL-    CL-40142  28.629  41.795  14.765
78612CL-    CL-40143  18.217  43.400   0.886
78613CL-    CL-40144  12.225   7.338  11.441
78614CL-    CL-40145  25.016  18.788  10.907
78615CL-    CL-40146  12.831   6.328  13.852
78616CL-    CL-40147  44.884  34.959   1.317
78617CL-    CL-40148  44.965   5.896  12.983
78618CL-    CL-40149  40.903  41.394  13.836
78619CL-    CL-40150  19.136   8.768   3.296
78620CL-    CL-40151  10.193   7.272  12.404
78621CL-    CL-40152  16.786  15.750   1.869
78622CL-    CL-40153  10.700  23.718   4.641
78623CL-    CL-40154  24.025  22.641  12.072
78624CL-    CL-40155  24.661   7.788   4.276
78625CL-    CL-40156   4.891   3.775  10.479
78626CL-    CL-40157   1.273  14.187   2.398
78627CL-    CL-40158  17.630  44.463   2.794
78628CL-    CL-40159  22.181  41.026   9.512
78629CL-    CL-40160  22.189  33.912   0.790
78630CL-    CL-40161  36.350   7.694  12.558
78631CL-    CL-40162   8.870   2.904   4.663
78632CL-    CL-40163  16.802  13.686  11.474
78633CL-    CL-40164   5.796  34.957   0.941
78634CL-    CL-40165  26.506  35.895   0.866
78635CL-    CL-40166  31.556   1.439  12.355
78636CL-    CL-40167   3.411   5.861   1.220
78637CL-    CL-40168  35.429   3.272  12.470
78638CL-    CL-40169  39.052   7.215   1.244
78639CL-    CL-40170  12.306  34.965   0.411
78640CL-    CL-40171  33.083  40.489  11.098
78641CL-    CL-40172  44.865  36.501  14.781
78642CL-    CL-40173  25.687  18.602  10.585
78643CL-    CL-40174   1.383  24.548  12.831
78644CL-    CL-40175  27.006   9.799   3.345
78645CL-    CL-40176   0.889  12.773   5.142
78646CL-    CL-40177  28.178  14.241  14.342
78647CL-    CL-40178  34.509   8.210  12.486
78648CL-    CL-40179  16.171  37.836  13.380
78649CL-    CL-40180  29.051  25.116   3.177
78650CL-    CL-40181  34.481   6.884   1.407
78651CL-    CL-40182   2.801  42.377   3.326
78652CL-    CL-40183  35.930   7.320   3.645
78653CL-    CL-40184  36.573  17.170   4.351
78654CL-    CL-40185  27.623  28.506  13.502
78655CL-    CL-40186  20.666   5.225   3.285
78656CL-    CL-40187  28.541  40.515   3.333
78657CL-    CL-40188  28.519  16.114  14.798
78658CL-    CL-40189  33.421  16.789   3.826
78659CL-    CL-40190  30.912  37.462  10.995
78660CL-    CL-40191  29.139  16.711  14.373
78661CL-    CL-40192  37.427  43.959   3.362
78662CL-    CL-40193  44.813  26.017  13.411
78663CL-    CL-40194  19.131  28.490   4.784
78664CL-    CL-40195  14.629  24.095   1.259
78665CL-    CL-40196  28.534  32.120   2.807
78666CL-    CL-40197  39.888  22.025   2.686
78667CL-    CL-40198  20.062  41.985   9.922
78668CL-    CL-40199  30.628  32.410   4.260
78669CL-    CL-40200  44.903  38.863   1.777
78670CL-    CL-40201  43.365  17.199   2.358
78671CL-    CL-40202   1.731  21.216  11.376
78672CL-    CL-40203   9.383  22.197   3.767
78673CL-    CL-40204  32.112  22.726  12.374
78674CL-    CL-40205  40.807  38.461   3.329
78675CL-    CL-40206   3.434  32.072   2.313
78676CL-    CL-40207  24.700  43.454  14.410
78677CL-    CL-40208  12.745  40.506  12.837
78678CL-    CL-40209  20.167  41.817  14.450
78679CL-    CL-40210  43.302  23.098   1.791
78680CL-    CL-40211  17.123  31.933  11.888
78681CL-    CL-40212  25.668   6.346   3.811
78682CL-    CL-40213  36.094  44.863   3.387
78683CL-    CL-40214   9.366   6.291   1.853
78684CL-    CL-40215  28.506  15.317  14.404
78685CL-    CL-40216  43.377   0.447   2.812
78686CL-    CL-40217   0.795  34.520   3.228
78687CL-    CL-40218  10.658   4.362   0.450
78688CL-    CL-40219   7.691  24.546   2.770
78689CL-    CL-40220  23.700  24.988   0.846
78690CL-    CL-40221  22.731  36.384  12.953
78691CL-    CL-40222  44.395  29.603  12.952
78692CL-    CL-40223   0.800  33.596   4.230
78693CL-    CL-40224  14.751  40.326  14.470
78694CL-    CL-40225  43.929   5.253   4.295
78695CL-    CL-40226  33.996  19.640   4.791
78696CL-    CL-40227  39.355  35.943  10.943
78697CL-    CL-40228  27.494  27.633   2.336
78698CL-    CL-40229   3.308  43.410  14.927
78699CL-    CL-40230  32.050  32.468  11.994
78700CL-    CL-40231  19.201   1.896   3.335
78701CL-    CL-40232  13.169  21.576   4.740
78702CL-    CL-40233  31.412  39.061  12.902
78703CL-    CL-40234   2.437   2.885   0.447
78704CL-    CL-40235  21.556  12.246  13.442
78705CL-    CL-40236  21.120  18.621  11.424
78706CL-    CL-40237  18.251  32.566   0.754
78707CL-    CL-40238  33.888  17.588  11.447
78708CL-    CL-40239  35.464  17.699   2.332
78709CL-    CL-40240  33.386  42.964  14.766
78710CL-    CL-40241  35.585  41.991   2.369
78711CL-    CL-40242  35.920   3.933   5.241
78712CL-    CL-40243  22.678  26.679  10.420
78713CL-    CL-40244  39.967  29.949  11.449
78714CL-    CL-40245  44.969  38.056   0.302
78715CL-    CL-40246  33.021  12.237   4.185
78716CL-    CL-40247  41.528  20.740   2.709
78717CL-    CL-40248  25.151   4.924  11.003
78718CL-    CL-40249  37.845  11.367   0.426
78719CL-    CL-40250   0.478  15.809   0.415
78720CL-    CL-40251   8.249  35.038  13.321
78721CL-    CL-40252  12.281   5.250   2.266
78722CL-    CL-40253  32.587  13.816  10.610
78723CL-    CL-40254  35.107  28.557  14.486
78724CL-    CL-40255  11.663   7.306  12.394
78725CL-    CL-40256  11.833  42.846  11.045
78726CL-    CL-40257  20.189  15.152  11.413
78727CL-    CL-40258  42.502  40.507   3.292
78728CL-    CL-40259  11.338  37.031   2.248
78729CL-    CL-40260   4.838  42.433  10.404
78730CL-    CL-40261  28.066  12.686   1.929
78731CL-    CL-40262  36.457   9.257  12.070
78732CL-    CL-40263   3.311  33.980   3.661
78733CL-    CL-40264  10.758  41.344   2.852
78734CL-    CL-40265  33.113  38.996  12.037
78735CL-    CL-40266  18.765   1.345   1.314
78736CL-    CL-40267  43.324  38.437   0.395
78737CL-    CL-40268   1.755   4.699   2.802
78738CL-    CL-40269   5.918  19.259  14.428
78739CL-    CL-40270  18.657  33.522   0.416
78740CL-    CL-40271  42.385  19.145  11.534
78741CL-    CL-40272   6.706   5.263  14.956
78742CL-    CL-40273  39.411   4.939   1.835
78743CL-    CL-40274  26.522  24.599   4.130
78744CL-    CL-40275  43.333   6.298  13.473
78745CL-    CL-40276  43.799   1.917   2.203
78746CL-    CL-40277  18.751  11.328  12.573
78747CL-    CL-40278  11.697  42.495  14.861
78748CL-    CL-40279   3.868  34.613   1.782
78749CL-    CL-40280  28.019  23.159   1.344
78750CL-    CL-40281   4.790  15.692   4.658
78751CL-    CL-40282  40.839  17.140  12.531
78752CL-    CL-40283  29.935  38.947  11.102
78753CL-    CL-40284  39.314  34.869   3.167
78754CL-    CL-40285   7.848  23.211  12.553
78755CL-    CL-40286  35.912  31.639  12.538
78756CL-    CL-40287  38.869  17.644   2.885
78757CL-    CL-40288  41.373  35.421  12.875
78758CL-    CL-40289  31.905  35.588   4.705
78759CL-    CL-40290  44.420   8.724  11.603
78760CL-    CL-40291  30.025  35.957  10.943
78761CL-    CL-40292  35.960  12.323   1.444
78762CL-    CL-40293  13.664  32.564   4.721
78763CL-    CL-40294  30.975  26.982   3.846
78764CL-    CL-40295  17.191  12.635   1.701
78765CL-    CL-40296  25.535  21.206  10.905
78766CL-    CL-40297   5.814  43.847  12.915
78767CL-    CL-40298  43.514   8.790  11.874
78768CL-    CL-40299  39.061  32.924  12.408
78769CL-    CL-40300   6.735   2.871  14.418
78770CL-    CL-40301  43.003  43.501   1.774
78771CL-    CL-40302   7.396  35.081   1.307
78772CL-    CL-40303  24.555  28.090  12.434
78773CL-    CL-40304  44.903  22.103   1.855
78774CL-    CL-40305  14.725  16.676  14.840
78775CL-    CL-40306  27.584  22.538  10.526
78776CL-    CL-40307  11.649  44.322   0.837
78777CL-    CL-40308  12.802  32.454  14.882
78778CL-    CL-40309  22.649  18.068   4.617
78779CL-    CL-40310  21.705  31.403  11.945
78780CL-    CL-40311  44.911  24.614  10.928
78781CL-    CL-40312   7.768  24.703   0.923
78782CL-    CL-40313  39.418  27.635  14.276
78783CL-    CL-40314  33.068  29.550  13.332
78784CL-    CL-40315  32.593  28.180  12.339
78785CL-    CL-40316   6.678  38.412   4.331
78786CL-    CL-40317  19.049  42.788  12.853
78787CL-    CL-40318  22.512  18.104   0.415
78788CL-    CL-40319  17.675  29.945  12.084
78789CL-    CL-40320  21.200  41.438   3.718
78790CL-    CL-40321  16.808  43.973   3.662
78791CL-    CL-40322  14.278  43.327   1.921
78792CL-    CL-40323  23.231  28.958  12.894
78793CL-    CL-40324   2.234  44.451  13.480
78794CL-    CL-40325   7.896   6.358   4.261
78795CL-    CL-40326  36.378  30.089  11.478
78796CL-    CL-40327  35.988  28.600   2.684
78797CL-    CL-40328  39.871  43.780   3.289
78798CL-    CL-40329  42.801  17.185  13.460
78799CL-    CL-40330  35.365  32.976  10.542
78800CL-    CL-40331  29.470  28.024  13.900
78801CL-    CL-40332  17.725  14.152   0.341
78802CL-    CL-40333   1.382  36.072   1.260
78803CL-    CL-40334  39.375   0.956  14.478
78804CL-    CL-40335  31.573  14.675  14.827
78805CL-    CL-40336  22.720   5.867   1.747
78806CL-    CL-40337  11.703  29.995   1.360
78807CL-    CL-40338  17.264  26.082  14.415
78808CL-    CL-40339  11.331  26.968  11.983
78809CL-    CL-40340  22.506  30.938  12.893
78810CL-    CL-40341  27.972  22.208   2.706
78811CL-    CL-40342   7.839  22.551   2.676
78812CL-    CL-40343  28.582   4.420  13.316
78813CL-    CL-40344   3.352  26.664   4.332
78814CL-    CL-40345  28.593  11.342  12.094
78815CL-    CL-40346  21.721   0.456   2.249
78816CL-    CL-40347  16.279   3.858  12.825
78817CL-    CL-40348   8.351  17.210   0.278
78818CL-    CL-40349   0.476  27.157   3.738
78819CL-    CL-40350  20.683  44.009  14.356
78820CL-    CL-40351  24.154  17.671  14.993
78821CL-    CL-40352  42.398  24.632   1.776
78822CL-    CL-40353  17.074  44.757   2.379
78823CL-    CL-40354   7.249  32.441   3.238
78824CL-    CL-40355  16.594  43.474   2.776
78825CL-    CL-40356  10.282   5.267   0.419
78826CL-    CL-40357  41.837  37.568   4.226
78827CL-    CL-40358  32.096  24.107  12.443
78828CL-    CL-40359  11.146  41.947   0.475
78829CL-    CL-40360  16.615   1.326   3.632
78830CL-    CL-40361  26.060  20.063  11.862
78831CL-    CL-40362  14.799  24.486   3.794
78832CL-    CL-40363  24.027  33.020  10.617
78833CL-    CL-40364  15.084   0.285   0.483
78834CL-    CL-40365  10.189   2.373   4.121
78835CL-    CL-40366  23.161   1.387  13.052
78836CL-    CL-40367  29.979   9.816  11.588
78837CL-    CL-40368  31.547  39.313   2.686
78838CL-    CL-40369  39.384  38.828  10.480
78839CL-    CL-40370  25.621  23.176  13.867
78840CL-    CL-40371  32.049  23.521  13.412
78841CL-    CL-40372   5.255   2.284   3.656
78842CL-    CL-40373  23.096  29.168  13.490
78843CL-    CL-40374  12.755  32.892  11.445
78844CL-    CL-40375  30.585  21.591  14.461
78845CL-    CL-40376  26.161  18.281  10.930
78846CL-    CL-40377   9.166  44.820  11.999
78847CL-    CL-40378  38.828   8.199   2.673
78848CL-    CL-40379   0.835  24.137   1.240
78849CL-    CL-40380  16.297   9.839  11.949
78850CL-    CL-40381  26.201   0.353   0.302
78851CL-    CL-40382  18.189  39.504  14.326
78852CL-    CL-40383   8.354  13.632   4.812
78853CL-    CL-40384   9.766  26.484   3.203
78854CL-    CL-40385  39.373   5.241   3.311
78855CL-    CL-40386  21.067  25.046   3.849
78856CL-    CL-40387  15.188  17.104  11.538
78857CL-    CL-40388  36.465  14.327   1.831
78858CL-    CL-40389  11.700  22.090   4.706
78859CL-    CL-40390  39.939  10.668  14.855
78860CL-    CL-40391  24.144   6.698   0.952
78861CL-    CL-40392  23.054   7.416  14.787
78862CL-    CL-40393  37.356  40.937  10.630
78863CL-    CL-40394  20.660  32.410  11.998
78864CL-    CL-40395  42.397  38.938   1.817
78865CL-    CL-40396  21.595  32.392  12.989
78866CL-    CL-40397   6.851  13.325   3.850
78867CL-    CL-40398  19.206  17.138  12.547
78868CL-    CL-40399  33.067  33.574  11.898
78869CL-    CL-40400  36.972  44.431   3.851
78870CL-    CL-40401  22.208   4.327   4.152
78871CL-    CL-40402  18.105  37.518  10.117
78872CL-    CL-40403   4.802   0.946  11.419
78873CL-    CL-40404  35.460  41.931  14.792
78874CL-    CL-40405  21.530  13.638   4.601
78875CL-    CL-40406  25.700  44.337   0.900
78876CL-    CL-40407  28.957  10.343  13.903
78877CL-    CL-40408  13.749  28.971   3.784
78878CL-    CL-40409   1.964  11.759   1.881
78879CL-    CL-40410  37.008  19.170   1.264
78880CL-    CL-40411  24.048  43.324  11.980
78881CL-    CL-40412  28.060   6.235   5.316
78882CL-    CL-40413  39.458  24.509   2.845
78883CL-    CL-40414  31.625   4.309  12.493
78884CL-    CL-40415   9.162  21.207  12.444
78885CL-    CL-40416  26.599   7.835  14.453
78886CL-    CL-40417  44.346  19.556  11.510
78887CL-    CL-40418  25.591  23.122  11.578
78888CL-    CL-40419  41.006  11.358   2.199
78889CL-    CL-40420  25.614  27.625   1.711
78890CL-    CL-40421  30.950  36.029   2.303
78891CL-    CL-40422  23.194  44.852  12.413
78892CL-    CL-40423  11.319  21.111  11.866
78893CL-    CL-40424  25.689  25.988  12.926
78894CL-    CL-40425  33.623  24.549  11.988
78895CL-    CL-40426  12.242  36.923  11.401
78896CL-    CL-40427  44.839   7.271  13.344
78897CL-    CL-40428   1.814  24.687   1.698
78898CL-    CL-40429   6.689  16.597   3.364
78899CL-    CL-40430  34.026  44.993  13.410
78900CL-    CL-40431   2.777  22.681   1.240
78901CL-    CL-40432  13.835   3.864  11.111
78902CL-    CL-40433  34.077  26.972   0.366
78903CL-    CL-40434  44.971   2.375  11.127
78904CL-    CL-40435  33.585  31.965   3.325
78905CL-    CL-40436  11.262  23.114   3.347
78906CL-    CL-40437  25.623  30.145   2.181
78907CL-    CL-40438  31.546  26.161   3.279
78908CL-    CL-40439  22.620  43.502   4.231
78909CL-    CL-40440   7.881   2.268   5.595
78910CL-    CL-40441  44.387  22.997   4.213
78911CL-    CL-40442  16.807  37.522  10.542
78912CL-    CL-40443  10.344  37.007  14.329
78913CL-    CL-40444  37.883  29.139   1.851
78914CL-    CL-40445  12.128  23.680  13.407
78915CL-    CL-40446  24.521  15.629   3.741
78916CL-    CL-40447  43.006  24.093  14.484
78917CL-    CL-40448  43.319  18.286  10.588
78918CL-    CL-40449   4.385  44.284   0.365
78919CL-    CL-40450   7.819   4.717  14.902
78920CL-    CL-40451  40.377   2.402  14.386
78921CL-    CL-40452   3.925  19.236   0.327
78922CL-    CL-40453   0.831  11.163   0.890
78923CL-    CL-40454   9.255  44.466  12.400
78924CL-    CL-40455  35.984  10.323   1.787
78925CL-    CL-40456  11.680  32.132   5.229
78926CL-    CL-40457  19.624  14.690   0.475
78927CL-    CL-40458  20.582  16.316  13.904
78928CL-    CL-40459  14.622  20.551   0.415
78929CL-    CL-40460   1.263  18.726  13.370
78930CL-    CL-40461  38.067  30.947  14.392
78931CL-    CL-40462  40.414  13.671  12.370
78932CL-    CL-40463  26.479  38.001   3.320
78933CL-    CL-40464   6.845  26.045   1.237
78934CL-    CL-40465  43.404  43.269   0.881
78935CL-    CL-40466  34.030  26.610   0.798
78936CL-    CL-40467  26.673  41.330  13.404
78937CL-    CL-40468   5.925  24.063   0.884
78938CL-    CL-40469  33.547  16.101   2.745
78939CL-    CL-40470  15.765  21.705   0.776
78940CL-    CL-40471  14.747  27.577  12.918
78941CL-    CL-40472  29.457  35.550  13.924
78942CL-    CL-40473  12.747  26.174   3.780
78943CL-    CL-40474  40.478  25.600   3.828
78944CL-    CL-40475  32.123  36.429   3.350
78945CL-    CL-40476  37.413  21.637   1.924
78946CL-    CL-40477  15.144  22.682  14.390
78947CL-    CL-40478   2.309  31.995   0.826
78948CL-    CL-40479  38.876   2.877  13.908
78949CL-    CL-40480  44.999  17.566   0.403
78950CL-    CL-40481  13.828   7.817  11.597
78951CL-    CL-40482  29.174  33.970  10.567
78952CL-    CL-40483  28.540  15.815  11.082
78953CL-    CL-40484   0.487  43.821   2.809
78954CL-    CL-40485   3.337  25.085   2.390
78955CL-    CL-40486  26.692  32.075   3.793
78956CL-    CL-40487  39.034  11.292   1.354
78957CL-    CL-40488  44.829  13.273   3.644
78958CL-    CL-40489   0.397  28.148   0.962
78959CL-    CL-40490  24.109  14.755  11.452
78960CL-    CL-40491  35.901  27.622   0.918
78961CL-    CL-40492  22.221   0.833  14.372
78962CL-    CL-40493  25.098   1.261   2.239
78963CL-    CL-40494  37.981   1.274  12.361
78964CL-    CL-40495  28.498  26.622   1.759
78965CL-    CL-40496   5.197  10.649  13.026
78966CL-    CL-40497  40.525  21.158   5.275
78967CL-    CL-40498  44.934  26.978  14.929
78968CL-    CL-40499  33.107  42.884   4.247
78969CL-    CL-40500  40.463  40.502  12.944
78970CL-    CL-40501  12.651   4.792  11.613
78971CL-    CL-40502  13.745   3.328   4.723
78972CL-    CL-40503  19.039  22.734   4.186
78973CL-    CL-40504  23.022  36.978   4.745
78974CL-    CL-40505  38.386  43.402   2.410
78975CL-    CL-40506  44.838  41.368   0.948
78976CL-    CL-40507  13.685  20.752   1.816
78977CL-    CL-40508  18.272  37.580  14.288
78978CL-    CL-40509  18.114   2.407  11.001
78979CL-    CL-40510   3.388  15.763  10.588
78980CL-    CL-40511  33.905  17.675  12.408
78981CL-    CL-40512  21.030  40.857  10.036
78982CL-    CL-40513  13.200   1.333  11.540
78983CL-    CL-40514  30.083  41.377   2.319
78984CL-    CL-40515  17.069  22.033  11.054
78985CL-    CL-40516  20.163  24.986   4.614
78986CL-    CL-40517  44.273  19.534  10.617
78987CL-    CL-40518   5.348  39.957  10.429
78988CL-    CL-40519  16.238  26.508   2.409
78989CL-    CL-40520  11.744  38.860   0.448
78990CL-    CL-40521  17.275   0.818   0.314
78991CL-    CL-40522  18.121  11.132  12.020
78992CL-    CL-40523   9.315  20.093  14.469
78993CL-    CL-40524   1.366  15.591  13.319
78994CL-    CL-40525  11.634  20.732  10.917
78995CL-    CL-40526  42.483  43.992  14.940
78996CL-    CL-40527  23.726  33.581   0.465
78997CL-    CL-40528  18.086   6.219  14.516
78998CL-    CL-40529  40.322  22.251  11.585
78999CL-    CL-40530   7.709  22.644  13.817
79000CL-    CL-40531  38.905  40.018  13.315
79001CL-    CL-40532  25.617  27.667  11.404
79002CL-    CL-40533  17.595  27.586   0.464
79003CL-    CL-40534  29.142  18.167   0.947
79004CL-    CL-40535  19.665  40.482   4.297
79005CL-    CL-40536  23.122  40.972   2.286
79006CL-    CL-40537  39.031  15.673   2.245
79007CL-    CL-40538   6.761  11.700   2.276
79008CL-    CL-40539  18.722  18.085  13.909
79009CL-    CL-40540  41.951  32.938  11.378
79010CL-    CL-40541  41.378  33.417  14.026
79011CL-    CL-40542  19.590  36.967  12.852
79012CL-    CL-40543  21.240  20.581  11.482
79013CL-    CL-40544  33.479  28.150   0.467
79014CL-    CL-40545   0.457  32.632   0.405
79015CL-    CL-40546   4.289  29.126  14.794
79016CL-    CL-40547  13.637  42.486  12.371
79017CL-    CL-40548  33.027  27.521  13.319
79018CL-    CL-40549  25.707  19.134   1.876
79019CL-    CL-40550  28.143  33.073   0.272
79020CL-    CL-40551  24.542   6.694   2.328
79021CL-    CL-40552  28.440  10.201   1.867
79022CL-    CL-40553  17.261  29.044  11.047
79023CL-    CL-40554  16.259   6.357  10.473
79024CL-    CL-40555   9.163   1.769  13.810
79025CL-    CL-40556  31.076  36.392  10.460
79026CL-    CL-40557  20.234  17.217  10.491
79027CL-    CL-40558  33.389  17.063   5.274
79028CL-    CL-40559  37.912   9.829   4.248
79029CL-    CL-40560  13.687  23.117  13.510
79030CL-    CL-40561  41.386  41.505   2.194
79031CL-    CL-40562  18.563   9.160  14.456
79032CL-    CL-40563  13.147   4.881  13.320
79033CL-    CL-40564  15.213   1.329  14.416
79034CL-    CL-40565  26.648  27.690  10.946
79035CL-    CL-40566  31.926   9.694   0.393
79036CL-    CL-40567  11.342  24.152   0.747
79037CL-    CL-40568  41.482   1.903   4.792
79038CL-    CL-40569  42.973  28.134   1.404
79039CL-    CL-40570   2.831  31.526  14.005
79040CL-    CL-40571  39.972   4.269  13.858
79041CL-    CL-40572  36.351   1.829   1.823
79042CL-    CL-40573  19.734  35.465   1.218
79043CL-    CL-40574  27.950  43.356   1.333
79044CL-    CL-40575  15.157  23.126  11.897
79045CL-    CL-40576  17.127  21.514  14.491
79046CL-    CL-40577  37.932   6.396  13.882
79047CL-    CL-40578  14.141  12.283   4.753
79048CL-    CL-40579   2.949  40.039  14.318
79049CL-    CL-40580  21.633  25.611   1.906
79050CL-    CL-40581  35.932   0.821   1.861
79051CL-    CL-40582  40.309  44.775  13.037
79052CL-    CL-40583  31.630  12.325  13.031
79053CL-    CL-40584  23.999   9.277   3.670
79054CL-    CL-40585   4.372  37.925   3.332
79055CL-    CL-40586  14.791  29.959   2.863
79056CL-    CL-40587   6.307  42.931  12.853
79057CL-    CL-40588   7.894  22.142   0.357
79058CL-    CL-40589  40.977   6.764  11.902
79059CL-    CL-40590  34.031   5.750   3.281
79060CL-    CL-40591  25.709  23.148  10.984
79061CL-    CL-40592  22.641   1.891   5.237
79062CL-    CL-40593  13.745   3.293   1.292
79063CL-    CL-40594   1.832   9.689   1.366
79064CL-    CL-40595  35.526  31.022  10.929
79065CL-    CL-40596  14.770   2.865   2.261
79066CL-    CL-40597  37.507  16.782   3.864
79067CL-    CL-40598  43.443  36.905   3.271
79068CL-    CL-40599   6.222   7.842   2.306
79069CL-    CL-40600  15.116   8.270  13.912
79070CL-    CL-40601  42.371  14.192  11.402
79071CL-    CL-40602  18.680   1.940   2.204
79072CL-    CL-40603  13.791  35.456   4.333
79073CL-    CL-40604  26.171   8.382   4.260
79074CL-    CL-40605  25.586  14.688   4.325
79075CL-    CL-40606  40.434  23.005   1.808
79076CL-    CL-40607  27.000   2.890  12.055
79077CL-    CL-40608  36.489  15.638   2.676
79078CL-    CL-40609  36.413  41.042  11.961
79079CL-    CL-40610  16.649  35.916   2.822
79080CL-    CL-40611  17.614  12.835  10.961
79081CL-    CL-40612   1.892  30.611   1.733
79082CL-    CL-40613  31.993  31.917   4.835
79083CL-    CL-40614  24.522   3.956   4.226
79084CL-    CL-40615   0.858  35.478  11.529
79085CL-    CL-40616  20.662  16.692   2.856
79086CL-    CL-40617   1.856  41.914  13.515
79087CL-    CL-40618  24.626   5.802   1.363
79088CL-    CL-40619  43.281  15.660   0.372
79089CL-    CL-40620  33.573  41.029   1.799
79090CL-    CL-40621  24.570  30.604  13.989
79091CL-    CL-40622  38.338  42.023   3.376
79092CL-    CL-40623   1.370  17.294   2.782
79093CL-    CL-40624  44.477  24.109  14.767
79094CL-    CL-40625   1.846   4.433  13.319
79095CL-    CL-40626   9.362  38.909   2.318
79096CL-    CL-40627  34.396  35.886   1.726
79097CL-    CL-40628  17.705  13.761   1.301
79098CL-    CL-40629   5.825  20.235  12.994
79099CL-    CL-40630  40.008  38.844   3.248
79100CL-    CL-40631  44.813   5.198   4.652
79101CL-    CL-40632  31.975   7.259  13.350
79102CL-    CL-40633  25.602  28.025   2.213
79103CL-    CL-40634  26.560  28.668   4.155
79104CL-    CL-40635   4.725  31.488   4.279
79105CL-    CL-40636   1.887  24.063  12.426
79106CL-    CL-40637  20.199  31.941   2.398
79107CL-    CL-40638   9.311  34.100  12.018
79108CL-    CL-40639  26.186   4.397  12.339
79109CL-    CL-40640  23.994  23.681  12.444
79110CL-    CL-40641  10.729  17.155   1.907
79111CL-    CL-40642  41.528  28.665  11.380
79112CL-    CL-40643  36.949  40.413  11.118
79113CL-    CL-40644  41.795  20.068  13.372
79114CL-    CL-40645  16.757  34.441  14.818
79115CL-    CL-40646  41.038  18.653   0.884
79116CL-    CL-40647  35.034  11.145  14.032
79117CL-    CL-40648  41.023  18.251  13.454
79118CL-    CL-40649  18.704  18.640  12.837
79119CL-    CL-40650  11.201  14.215  13.002
79120CL-    CL-40651  35.440   0.282  12.063
79121CL-    CL-40652   3.289  18.059   1.322
79122CL-    CL-40653   4.728  16.810  10.892
79123CL-    CL-40654  26.132  20.762   0.874
79124CL-    CL-40655  27.049  12.274  11.935
79125CL-    CL-40656   9.704  18.703  11.052
79126CL-    CL-40657  34.889  43.319  13.850
79127CL-    CL-40658   5.347   3.277   4.231
79128CL-    CL-40659   9.760  14.715   0.787
79129CL-    CL-40660  40.412  35.558  10.596
79130CL-    CL-40661  15.643  12.825   2.341
79131CL-    CL-40662  12.795  27.995   0.311
79132CL-    CL-40663  43.819   6.850  13.024
79133CL-    CL-40664  23.525  30.464  13.547
79134CL-    CL-40665  21.557   8.672   0.445
79135CL-    CL-40666  23.127  36.488   0.430
79136CL-    CL-40667  42.951  26.593   1.893
79137CL-    CL-40668  43.960  42.311   4.633
79138CL-    CL-40669   5.334  22.085  12.397
79139CL-    CL-40670  12.220  15.286  12.954
79140CL-    CL-40671  24.495   0.917  14.929
79141CL-    CL-40672  14.100   0.941   2.300
79142CL-    CL-40673   1.970  39.527   4.695
79143CL-    CL-40674  41.521  25.473  11.984
79144CL-    CL-40675  24.085  14.197   2.304
79145CL-    CL-40676  34.884  20.085  12.396
79146CL-    CL-40677  32.527   9.389  13.507
79147CL-    CL-40678   9.271  34.865  11.515
79148CL-    CL-40679   2.293  12.357   2.747
79149CL-    CL-40680   8.879  36.066   3.797
79150CL-    CL-40681  42.467  36.384  13.848
79151CL-    CL-40682   5.319  38.918  13.909
79152CL-    CL-40683   3.255  33.908  10.434
79153CL-    CL-40684  41.872  15.294   2.202
79154CL-    CL-40685  44.467  18.063   0.450
79155CL-    CL-40686  30.933  10.859  10.527
79156CL-    CL-40687  21.602  37.435   4.319
79157CL-    CL-40688   5.698   4.811  12.826
79158CL-    CL-40689  15.329  22.651  12.029
79159CL-    CL-40690  27.005  44.379  10.596
79160CL-    CL-40691  27.489   2.359   2.901
79161CL-    CL-40692  18.790  23.104  13.811
79162CL-    CL-40693  35.898   0.840  14.498
79163CL-    CL-40694   0.930  30.471   3.808
79164CL-    CL-40695   2.387  18.697   5.211
79165CL-    CL-40696   9.198  24.121  11.523
79166CL-    CL-40697  15.258   3.423  13.881
79167CL-    CL-40698  32.915  39.839   3.378
79168CL-    CL-40699  38.843  35.935   0.928
79169CL-    CL-40700  11.312  38.887   2.694
79170CL-    CL-40701  14.101  19.641  13.386
79171CL-    CL-40702  41.316  34.926  13.469
79172CL-    CL-40703  33.385  36.049   0.467
79173CL-    CL-40704  33.040   8.680  11.061
79174CL-    CL-40705  34.940  23.128  12.459
79175CL-    CL-40706  15.281   4.362   4.312
79176CL-    CL-40707   5.306  34.417   2.874
79177CL-    CL-40708  34.389  37.404  11.886
79178CL-    CL-40709  32.992  11.162  13.821
79179CL-    CL-40710  38.999  13.812   0.273
79180CL-    CL-40711  40.972   4.373   4.638
79181CL-    CL-40712  14.150  33.010  10.506
79182CL-    CL-40713  44.803  16.265   4.217
79183CL-    CL-40714  36.866  23.996   4.125
79184CL-    CL-40715  23.668   0.327  12.440
79185CL-    CL-40716  41.332   5.785  10.567
79186CL-    CL-40717  37.557  21.676   3.788
79187CL-    CL-40718   6.793  41.014   1.301
79188CL-    CL-40719  26.517  38.498   2.270
79189CL-    CL-40720  13.831  12.222   4.202
79190CL-    CL-40721  19.617   0.820   0.412
79191CL-    CL-40722  31.136   3.832  12.048
79192CL-    CL-40723  24.698   4.271   2.378
79193CL-    CL-40724  12.829  25.107   0.323
79194CL-    CL-40725  10.841   8.340   3.838
79195CL-    CL-40726  36.992  20.238   1.935
79196CL-    CL-40727  13.123  17.684   1.276
79197CL-    CL-40728  14.680  38.388  13.873
79198CL-    CL-40729   2.735  24.523   4.813
79199CL-    CL-40730  17.272  32.444  10.562
79200CL-    CL-40731  36.511  26.135  12.084
79201CL-    CL-40732  26.599  19.253  10.940
79202CL-    CL-40733  44.442  13.814  14.486
79203CL-    CL-40734  12.739   0.460  12.858
79204CL-    CL-40735  14.748   6.344   3.332
79205CL-    CL-40736  44.917   0.938   0.790
79206CL-    CL-40737  20.602  13.673   2.846
79207CL-    CL-40738  37.485  17.718  14.795
79208CL-    CL-40739  13.214  27.597  11.611
79209CL-    CL-40740   6.860   4.703   3.682
79210CL-    CL-40741  30.126  13.610   0.833
79211CL-    CL-40742  18.578  41.470   1.816
79212CL-    CL-40743   9.264   7.337  13.431
79213CL-    CL-40744  31.911  21.168   2.371
79214CL-    CL-40745  39.034  42.951   2.767
79215CL-    CL-40746   3.778  31.923  14.772
79216CL-    CL-40747  24.043  37.072  14.464
79217CL-    CL-40748   4.306  37.883   4.690
79218CL-    CL-40749  39.504  18.250  12.969
79219CL-    CL-40750  32.491  15.622  13.410
79220CL-    CL-40751  34.984  38.942  11.565
79221CL-    CL-40752  34.886  18.770   1.791
79222CL-    CL-40753  10.875  12.341   2.894
79223CL-    CL-40754  24.687   4.870  10.578
79224CL-    CL-40755  38.940  40.822   2.391
79225CL-    CL-40756  10.232  13.327   0.274
79226CL-    CL-40757  31.502  40.037   1.934
79227CL-    CL-40758  34.002  35.019   2.790
79228CL-    CL-40759   5.279  18.579  13.888
79229CL-    CL-40760  19.688  43.457   1.273
79230CL-    CL-40761  42.422  43.515   0.451
79231CL-    CL-40762  28.496  14.803  13.861
79232CL-    CL-40763  23.598   1.251   1.310
79233CL-    CL-40764   2.320  44.865   4.781
79234CL-    CL-40765   4.894  15.094  13.014
79235CL-    CL-40766  41.321  26.519   3.643
79236CL-    CL-40767   9.756  23.007  12.559
79237CL-    CL-40768  27.941  19.641   2.277
79238CL-    CL-40769  35.915   6.704   0.824
79239CL-    CL-40770  27.979  40.307   2.879
79240CL-    CL-40771   0.345  24.504  13.933
79241CL-    CL-40772  43.459  24.538  10.892
79242CL-    CL-40773  11.228  31.088  14.369
79243CL-    CL-40774  16.109  35.485   3.699
79244CL-    CL-40775  24.676  33.511   0.952
79245CL-    CL-40776  29.137  21.251   2.267
79246CL-    CL-40777  23.158  12.201  10.493
79247CL-    CL-40778  29.428  35.578  14.803
79248CL-    CL-40779  26.998   2.859   1.354
79249CL-    CL-40780  38.962  37.008  11.538
79250CL-    CL-40781  14.339  28.005   3.338
79251CL-    CL-40782  40.467   7.873   2.282
79252CL-    CL-40783  39.459  42.304   4.769
79253CL-    CL-40784  37.901   5.690   1.403
79254CL-    CL-40785  26.024  34.895   3.720
79255CL-    CL-40786  36.352  41.896   5.093
79256CL-    CL-40787  34.599  25.657   3.654
79257CL-    CL-40788  19.090  20.090  12.996
79258CL-    CL-40789  12.323   2.230  13.000
79259CL-    CL-40790  21.026   2.324  11.877
79260CL-    CL-40791  39.474   9.288  14.002
79261CL-    CL-40792  20.168  18.584   2.311
79262CL-    CL-40793  31.966  43.788   1.733
79263CL-    CL-40794  27.995  27.085  14.914
79264CL-    CL-40795  38.389  26.610  12.064
79265CL-    CL-40796  16.290  11.130  14.848
79266CL-    CL-40797   0.261   3.810  12.508
79267CL-    CL-40798  31.922  19.222   1.339
79268CL-    CL-40799  26.121  27.041   2.234
79269CL-    CL-40800  35.377   4.711   3.824
79270CL-    CL-40801  17.243  32.544   5.229
79271CL-    CL-40802  23.052  30.469  12.538
79272CL-    CL-40803  35.977  13.604  11.006
79273CL-    CL-40804  27.456  11.817  10.075
79274CL-    CL-40805   7.241  22.233   0.475
79275CL-    CL-40806  25.655  16.172  13.007
79276CL-    CL-40807   1.404  14.687   2.833
79277CL-    CL-40808   2.335  15.735  12.380
79278CL-    CL-40809  36.031  22.232  10.638
79279CL-    CL-40810   9.657  12.683  10.611
79280CL-    CL-40811  41.490  30.450   0.755
79281CL-    CL-40812  23.066  13.663  13.838
79282CL-    CL-40813  41.837  31.591  11.896
79283CL-    CL-40814  37.426  24.114   0.958
79284CL-    CL-40815  37.964  29.560  12.391
79285CL-    CL-40816  16.294   0.960   2.762
79286CL-    CL-40817  23.002  35.857   4.811
79287CL-    CL-40818   6.236   9.826  10.537
79288CL-    CL-40819   2.862   5.284  13.402
79289CL-    CL-40820  35.555  11.716  13.985
79290CL-    CL-40821   9.727  17.146   3.726
79291CL-    CL-40822  25.074  43.294   1.851
79292CL-    CL-40823   1.481   0.356   4.775
79293CL-    CL-40824   2.724  16.217   1.344
79294CL-    CL-40825  29.665  44.409  11.117
79295CL-    CL-40826   1.735  33.103   4.813
79296CL-    CL-40827  42.922  13.841  14.497
79297CL-    CL-40828  38.938  41.357  12.400
79298CL-    CL-40829  32.927  27.473   4.312
79299CL-    CL-40830   6.882   4.350   2.877
79300CL-    CL-40831  42.422  27.530   4.668
79301CL-    CL-40832  14.798  34.049  11.471
79302CL-    CL-40833  35.990  19.555  13.444
79303CL-    CL-40834   2.808   3.952   1.350
79304CL-    CL-40835   6.257  34.413  11.024
79305CL-    CL-40836  16.259  24.077  13.058
79306CL-    CL-40837  41.787  27.071  11.029
79307CL-    CL-40838  17.565   8.193  12.346
79308CL-    CL-40839  20.597  34.093  10.973
79309CL-    CL-40840  18.716  14.812   1.248
79310CL-    CL-40841  33.918   5.428   1.836
79311CL-    CL-40842  23.164  18.640  12.901
79312CL-    CL-40843  35.939  25.101  13.967
79313CL-    CL-40844  12.734   5.227   4.732
79314CL-    CL-40845  10.784  44.808   4.228
79315CL-    CL-40846  38.986   6.716  13.341
79316CL-    CL-40847  41.490  10.228   9.972
79317CL-    CL-40848   0.811   2.815  14.802
79318CL-    CL-40849  22.072  16.616   4.674
79319CL-    CL-40850  11.193  30.456   0.726
79320CL-    CL-40851  13.791  44.382  12.009
79321CL-    CL-40852  43.980  26.119  14.321
79322CL-    CL-40853  36.063   5.344   3.208
79323CL-    CL-40854   5.827  16.632  12.570
79324CL-    CL-40855  31.435  40.995   4.171
79325CL-    CL-40856  25.015  33.565   0.835
79326CL-    CL-40857  13.638  11.844  12.885
79327CL-    CL-40858  21.105  14.720  14.448
79328CL-    CL-40859  13.127   8.875  10.014
79329CL-    CL-40860  44.499   8.818  10.641
79330CL-    CL-40861  22.624  36.854   4.600
79331CL-    CL-40862  22.085   7.263   4.720
79332CL-    CL-40863  19.752  27.992  12.996
79333CL-    CL-40864  35.880  42.858  13.832
79334CL-    CL-40865   0.427  41.876   4.656
79335CL-    CL-40866  21.670  19.171   0.315
79336CL-    CL-40867  18.568  17.559  12.924
79337CL-    CL-40868  18.108  29.992   2.353
79338CL-    CL-40869   8.328  13.237   4.308
79339CL-    CL-40870  15.180   1.740  10.493
79340CL-    CL-40871  34.112   8.218   1.411
79341CL-    CL-40872  29.175   3.896   1.348
79342CL-    CL-40873  20.677  33.597   4.176
79343CL-    CL-40874   6.881  38.369  10.963
79344CL-    CL-40875   8.177  13.651  13.485
79345CL-    CL-40876   1.885   8.683   0.341
79346CL-    CL-40877  21.251  43.329  13.358
79347CL-    CL-40878   5.415  13.144   4.269
79348CL-    CL-40879   3.254  38.458   0.351
79349CL-    CL-40880  25.591   9.779   5.793
79350CL-    CL-40881   5.751  19.769   2.879
79351CL-    CL-40882  17.144  42.429  13.531
79352CL-    CL-40883  21.244  22.735  14.787
79353CL-    CL-40884  14.308  26.196  10.596
79354CL-    CL-40885  43.421  36.393   2.843
79355CL-    CL-40886  42.032  36.568  12.527
79356CL-    CL-40887   2.838   9.182   1.305
79357CL-    CL-40888   1.303  33.416   4.771
79358CL-    CL-40889   6.757  40.885  10.973
79359CL-    CL-40890  27.023   7.393  14.766
79360CL-    CL-40891  29.143  39.456  11.511
79361CL-    CL-40892  13.117  28.583  10.542
79362CL-    CL-40893   0.487  22.723   3.246
79363CL-    CL-40894  38.875  41.854   0.413
79364CL-    CL-40895  36.059  12.222  12.006
79365CL-    CL-40896   5.298  33.584   4.352
79366CL-    CL-40897   1.340  24.049   0.880
79367CL-    CL-40898  42.860  25.652  14.003
79368CL-    CL-40899  35.978   3.225   0.453
79369CL-    CL-40900  24.516   2.855  11.021
79370CL-    CL-40901  39.887   3.384   1.802
79371CL-    CL-40902  12.755  36.488  10.429
79372CL-    CL-40903  22.140  24.134   2.743
79373CL-    CL-40904  35.548  40.868  14.788
79374CL-    CL-40905  25.675  32.134   3.660
79375CL-    CL-40906  12.180  38.968  14.959
79376CL-    CL-40907   5.840  11.732  13.382
79377CL-    CL-40908   4.762  41.915  10.569
79378CL-    CL-40909  28.012   1.347   1.741
79379CL-    CL-40910  34.515  37.020  12.445
79380CL-    CL-40911  16.746  13.652   2.182
79381CL-    CL-40912  26.001  42.407   3.267
79382CL-    CL-40913  14.655  28.128  14.418
79383CL-    CL-40914   1.910  16.108  11.952
79384CL-    CL-40915  30.093  42.791   1.780
79385CL-    CL-40916   5.705  25.634   3.664
79386CL-    CL-40917  28.954  24.224   0.748
79387CL-    CL-40918   9.263   3.221  12.056
79388CL-    CL-40919  22.007  13.838  10.970
79389CL-    CL-40920  36.944  31.435   2.827
79390CL-    CL-40921  24.193  36.429  13.406
79391CL-    CL-40922  23.011  20.739   3.705
79392CL-    CL-40923  10.854  13.640  14.864
79393CL-    CL-40924  18.666  43.974  11.464
79394CL-    CL-40925   2.279   6.779  13.347
79395CL-    CL-40926  28.145  16.765   1.213
79396CL-    CL-40927   1.872  10.371  12.342
79397CL-    CL-40928   1.384   6.277  14.369
79398CL-    CL-40929   8.897  14.312   0.245
79399CL-    CL-40930   7.359   7.413  13.904
79400CL-    CL-40931  29.127  33.555  14.917
79401CL-    CL-40932  30.920  17.154  14.015
79402CL-    CL-40933  42.872  36.874  11.915
79403CL-    CL-40934   0.914   9.332   1.272
79404CL-    CL-40935  12.714  23.617  12.905
79405CL-    CL-40936  34.543  42.516   2.239
79406CL-    CL-40937  39.473   6.262  13.923
79407CL-    CL-40938  33.093  43.296   3.701
79408CL-    CL-40939   4.384  41.512  12.975
79409CL-    CL-40940   4.833  24.032  12.360
79410CL-    CL-40941  30.108  12.680  14.299
79411CL-    CL-40942  15.792  12.177  14.288
79412CL-    CL-40943  21.072  27.039  14.785
79413CL-    CL-40944  44.484   8.336   3.688
79414CL-    CL-40945   6.736  31.524  14.961
79415CL-    CL-40946  18.058   8.739  13.805
79416CL-    CL-40947  16.190  37.951  12.047
79417CL-    CL-40948  25.182  12.772   1.843
79418CL-    CL-40949  24.031  15.786  10.495
79419CL-    CL-40950  29.434  21.094   4.309
79420CL-    CL-40951  16.631   3.919  11.987
79421CL-    CL-40952   0.488  36.510   0.948
79422CL-    CL-40953  18.786   5.200  12.948
79423CL-    CL-40954  24.722  11.660  10.591
79424CL-    CL-40955  38.500  26.639  12.454
79425CL-    CL-40956  31.096  40.852  11.884
79426CL-    CL-40957  31.930  39.003   0.432
79427CL-    CL-40958  32.462   5.416   1.835
79428CL-    CL-40959   2.893  24.644  12.462
79429CL-    CL-40960   2.245  43.955   0.357
79430CL-    CL-40961  21.155  20.548  14.337
79431CL-    CL-40962  16.213   1.878  14.371
79432CL-    CL-40963  14.167  32.136  14.367
79433CL-    CL-40964  41.302  34.883  14.504
79434CL-    CL-40965  24.486  18.280  12.009
79435CL-    CL-40966  16.192  10.828   1.922
79436CL-    CL-40967  17.286  27.025   4.658
79437CL-    CL-40968  30.014  16.176   3.682
79438CL-    CL-40969  40.335  36.867   4.668
79439CL-    CL-40970  44.973  31.480  14.869
79440CL-    CL-40971   0.912  19.641   3.202
79441CL-    CL-40972  21.553  24.127   3.663
79442CL-    CL-40973   8.693  19.674  12.897
79443CL-    CL-40974  32.987  10.803  12.449
79444CL-    CL-40975   1.482   1.908  14.398
79445CL-    CL-40976  20.215  39.342   0.764
79446CL-    CL-40977  26.011  20.692   1.736
79447CL-    CL-40978   6.864   9.364  14.282
79448CL-    CL-40979  23.039  35.087   2.847
79449CL-    CL-40980  31.406  22.652  14.415
79450CL-    CL-40981  29.990  11.193  11.459
79451CL-    CL-40982  28.075   0.343   4.187
79452CL-    CL-40983  16.165  39.483   4.654
79453CL-    CL-40984  22.107  35.484  12.385
79454CL-    CL-40985  25.617  38.986  10.612
79455CL-    CL-40986  29.444  18.590   3.309
79456CL-    CL-40987  31.635  42.844   0.350
79457CL-    CL-40988  27.590  34.109  11.511
79458CL-    CL-40989  26.580  37.065   0.397
79459CL-    CL-40990  27.181  32.533  10.963
79460CL-    CL-40991   1.817  37.050   3.637
79461CL-    CL-40992  42.493   7.271  10.935
79462CL-    CL-40993  12.649  32.583  14.453
79463CL-    CL-40994  39.449  31.915  13.495
79464CL-    CL-40995  11.689  13.632  10.915
79465CL-    CL-40996  42.010  34.970  11.883
79466CL-    CL-40997  30.030  33.099  13.916
79467CL-    CL-40998  33.526  37.854   2.823
79468CL-    CL-40999  35.104  39.458  14.476
79469CL-    CL-41000  30.577  12.852   1.756
79470CL-    CL-41001  41.481  44.380  12.991
79471CL-    CL-41002  44.805   0.929   4.738
79472CL-    CL-41003  42.998  40.522   2.186
79473CL-    CL-41004  12.296   1.765   2.401
79474CL-    CL-41005   3.372  36.006   2.413
79475CL-    CL-41006  41.864   8.722   5.311
79476CL-    CL-41007  32.066  43.442  12.460
79477CL-    CL-41008  22.074  29.535  14.876
79478CL-    CL-41009   5.287  40.365   1.376
79479CL-    CL-41010  10.781  36.448   3.821
79480CL-    CL-41011  11.335   3.232  13.448
79481CL-    CL-41012   9.264   0.388  11.115
79482CL-    CL-41013   9.710  31.630   0.790
79483CL-    CL-41014  41.012  30.077   1.844
79484CL-    CL-41015  44.007  43.312  11.919
79485CL-    CL-41016  40.879  37.849   2.413
79486CL-    CL-41017  31.587  21.707   2.355
79487CL-    CL-41018  42.891  40.945   3.742
79488CL-    CL-41019  23.134  37.429  13.058
79489CL-    CL-41020  33.948  21.756   1.261
79490CL-    CL-41021  42.433   6.793  11.026
79491CL-    CL-41022   9.383  28.055  10.580
79492CL-    CL-41023  25.005  25.571   2.714
79493CL-    CL-41024  39.322  24.540  11.602
79494CL-    CL-41025   0.256  15.214   1.803
79495CL-    CL-41026  39.331  26.029  11.578
79496CL-    CL-41027  42.414  27.062  12.969
79497CL-    CL-41028  33.556  28.939  11.936
79498CL-    CL-41029  19.042  22.687  14.978
79499CL-    CL-41030  38.500  26.512  14.417
79500CL-    CL-41031  41.975   1.371  11.401
79501CL-    CL-41032  17.633  12.157  14.475
79502CL-    CL-41033  17.716   8.360   2.770
79503CL-    CL-41034  24.710  14.247  11.401
79504CL-    CL-41035  15.211  15.722  11.000
79505CL-    CL-41036  35.994  11.237   1.326
79506CL-    CL-41037  14.779  29.461  13.430
79507CL-    CL-41038  13.840  31.599   3.762
79508CL-    CL-41039  13.119  39.860   1.384
79509CL-    CL-41040  13.141  23.156  11.521
79510CL-    CL-41041  33.965  26.164  11.938
79511CL-    CL-41042   3.318  29.450  12.442
79512CL-    CL-41043  36.527   9.252  10.423
79513CL-    CL-41044  34.040  40.382   1.321
79514CL-    CL-41045  19.667  22.576   1.260
79515CL-    CL-41046  23.036  17.783   2.318
79516CL-    CL-41047  13.210  31.403   5.112
79517CL-    CL-41048  18.169  24.669   3.736
79518CL-    CL-41049  33.883  31.032  10.513
79519CL-    CL-41050  43.895  42.922  14.468
79520CL-    CL-41051  18.198  11.815  14.464
79521CL-    CL-41052  29.565  22.518   0.812
79522CL-    CL-41053  20.571   1.956   2.793
79523CL-    CL-41054  13.659   6.416  14.879
79524CL-    CL-41055  41.350   3.882  13.364
79525CL-    CL-41056  32.002   8.328  10.425
79526CL-    CL-41057  43.331  11.210  11.869
79527CL-    CL-41058  13.783  34.469  11.380
79528CL-    CL-41059  36.397  40.942  10.630
79529CL-    CL-41060  40.978   9.253  11.008
79530CL-    CL-41061  16.158  25.137   2.356
79531CL-    CL-41062  36.382  26.153   1.432
79532CL-    CL-41063  36.856  15.597  13.507
79533CL-    CL-41064  27.013   3.458   3.235
79534CL-    CL-41065  26.538  22.672  10.990
79535CL-    CL-41066  35.922   3.384  12.848
79536CL-    CL-41067  20.036  35.494  11.927
79537CL-    CL-41068   0.985  20.100   1.331
79538CL-    CL-41069  12.202  28.035   2.758
79539CL-    CL-41070  23.560  41.520   1.928
79540CL-    CL-41071   7.293  10.759   2.308
79541CL-    CL-41072  20.155  11.794  12.445
79542CL-    CL-41073  22.059  13.816  14.321
79543CL-    CL-41074  33.019  20.730  12.537
79544CL-    CL-41075  30.981  41.298   2.691
79545CL-    CL-41076  14.299  30.578   1.723
79546CL-    CL-41077  29.455   7.358   1.228
79547CL-    CL-41078  27.495   3.350   0.434
79548CL-    CL-41079   7.798  28.977  10.593
79549CL-    CL-41080  39.530  31.497   4.643
79550CL-    CL-41081  13.257  32.137   1.278
79551CL-    CL-41082  18.591  28.045   3.727
79552CL-    CL-41083  26.595  35.545   1.243
79553CL-    CL-41084  24.137  18.139  13.888
79554CL-    CL-41085  30.990  21.590   2.302
79555CL-    CL-41086  20.029  36.857   4.244
79556CL-    CL-41087  26.011  35.930   0.932
79557CL-    CL-41088  40.376  24.128   2.860
79558CL-    CL-41089  32.414   5.902   4.158
79559CL-    CL-41090  44.358  44.832   0.262
79560CL-    CL-41091  33.594   7.671   4.689
79561CL-    CL-41092   9.706  17.678   3.321
79562CL-    CL-41093  36.029  18.162  10.911
79563CL-    CL-41094  22.685  40.034   5.081
79564CL-    CL-41095   2.888  17.213   1.735
79565CL-    CL-41096  25.656  27.558   3.152
79566CL-    CL-41097  42.807   3.353  12.518
79567CL-    CL-41098  34.893  40.445   2.204
79568CL-    CL-41099  23.222  37.980   2.810
79569CL-    CL-41100  29.937  16.711   9.601
79570CL-    CL-41101  32.072  14.166   2.893
79571CL-    CL-41102  39.466   3.818   2.732
79572CL-    CL-41103  21.746  32.129  10.048
79573CL-    CL-41104  13.317  41.989  11.522
79574CL-    CL-41105   3.859   9.742  12.825
79575CL-    CL-41106  27.102  26.142   2.777
79576CL-    CL-41107   8.841  12.774  14.409
79577CL-    CL-41108  30.546  31.407  11.043
79578CL-    CL-41109  11.797   5.232  13.470
79579CL-    CL-41110  14.130   9.245   2.839
79580CL-    CL-41111  10.182  38.894   3.317
79581CL-    CL-41112  37.039  12.770   1.349
79582CL-    CL-41113  30.012   6.774  11.006
79583CL-    CL-41114   4.788   3.428   1.860
79584CL-    CL-41115  13.143  22.583   1.793
79585CL-    CL-41116  15.800   6.738  12.902
79586CL-    CL-41117  29.149  29.511   2.211
79587CL-    CL-41118  12.292  21.100  12.028
79588CL-    CL-41119  10.760  20.156  14.874
79589CL-    CL-41120  40.398   2.304  11.507
79590CL-    CL-41121  19.740  18.761  13.364
79591CL-    CL-41122  36.041  16.114  14.898
79592CL-    CL-41123  20.192  31.568   2.699
79593CL-    CL-41124  33.619  16.671   0.430
79594CL-    CL-41125  19.264  27.149  14.434
79595CL-    CL-41126  31.093  37.853  12.988
79596CL-    CL-41127   7.858   3.905   0.473
79597CL-    CL-41128  23.663  11.265  14.920
79598CL-    CL-41129  37.548  43.345   1.706
79599CL-    CL-41130  17.136   0.939   3.643
79600CL-    CL-41131   4.378  29.156  11.438
79601CL-    CL-41132   9.340  10.212  14.511
79602CL-    CL-41133  15.824  14.317   0.758
79603CL-    CL-41134  33.897  34.891   4.681
79604CL-    CL-41135   6.272  21.165   4.806
79605CL-    CL-41136  27.033  35.037   4.626
79606CL-    CL-41137   9.292   4.788  10.014
79607CL-    CL-41138  13.720  13.735  11.087
79608CL-    CL-41139  25.097   7.675   3.817
79609CL-    CL-41140  27.624  38.462   4.220
79610CL-    CL-41141   8.198  11.250  14.787
79611CL-    CL-41142   5.724  29.633  13.012
79612CL-    CL-41143  36.357  32.958   2.679
79613CL-    CL-41144   9.883  42.471  13.492
79614CL-    CL-41145  15.823  20.266   4.263
79615CL-    CL-41146  25.973  10.193   0.325
79616CL-    CL-41147  30.586  13.327   1.364
79617CL-    CL-41148  23.599  43.819   4.719
79618CL-    CL-41149  22.666   5.356  13.427
79619CL-    CL-41150  21.028  32.062   2.236
79620CL-    CL-41151  12.697  17.716   4.767
79621CL-    CL-41152  44.287  33.898  12.428
79622CL-    CL-41153  32.912   8.895  12.402
79623CL-    CL-41154  22.510   8.850   0.832
79624CL-    CL-41155  13.281  19.613  12.857
79625CL-    CL-41156  30.930   7.828   4.809
79626CL-    CL-41157   0.826  22.197  10.453
79627CL-    CL-41158  14.761   7.745  10.543
79628CL-    CL-41159  27.080  15.609   0.386
79629CL-    CL-41160  44.980  33.000   4.340
79630CL-    CL-41161  18.202  25.094   5.720
79631CL-    CL-41162  13.150  26.546  14.468
79632CL-    CL-41163  38.523   1.744  14.875
79633CL-    CL-41164  36.346  39.454  14.800
79634CL-    CL-41165  15.089  20.530   0.283
79635CL-    CL-41166  27.986  25.476   3.842
79636CL-    CL-41167  20.074  34.549   3.294
79637CL-    CL-41168   2.261  14.119   5.241
79638CL-    CL-41169  34.920  38.366  13.034
79639CL-    CL-41170  44.878  39.365  12.829
79640CL-    CL-41171  36.913   4.728   2.735
79641CL-    CL-41172  20.723  25.187   2.222
79642CL-    CL-41173  18.701  38.552   5.107
79643CL-    CL-41174  31.004  34.888  11.433
79644CL-    CL-41175  10.704  28.615  11.500
79645CL-    CL-41176   8.202  34.892  12.830
79646CL-    CL-41177  38.525  41.960  14.806
79647CL-    CL-41178  29.148  30.438  11.471
79648CL-    CL-41179  14.762  13.612   1.758
79649CL-    CL-41180  25.557  18.640  13.475
79650CL-    CL-41181  14.229  29.941   5.186
79651CL-    CL-41182  19.731  13.260  11.586
79652CL-    CL-41183  29.058  26.612  12.023
79653CL-    CL-41184  17.089   5.831   1.784
79654CL-    CL-41185  29.047  24.685   2.872
79655CL-    CL-41186  13.824   6.829  13.407
79656CL-    CL-41187  34.578  33.619  12.942
79657CL-    CL-41188  22.735   9.724   1.839
79658CL-    CL-41189  39.325  19.233   0.787
79659CL-    CL-41190  34.086  11.812  14.880
79660CL-    CL-41191   1.834  27.940   0.460
79661CL-    CL-41192  20.191  42.811   1.235
79662CL-    CL-41193  32.979  10.685   2.673
79663CL-    CL-41194  43.474  37.547  14.343
79664CL-    CL-41195  13.340  44.479   4.267
79665CL-    CL-41196  36.509  23.205  13.929
79666CL-    CL-41197  15.217   7.760   1.931
79667CL-    CL-41198   5.214  37.345   4.654
79668CL-    CL-41199   7.264  38.905   0.431
79669CL-    CL-41200  25.086  14.648   1.857
79670CL-    CL-41201  41.910  15.638  12.516
79671CL-    CL-41202  36.035   7.764   4.211
79672CL-    CL-41203  19.718  44.483  10.636
79673CL-    CL-41204   2.280  18.131   3.634
79674CL-    CL-41205   8.718  21.640  13.908
79675CL-    CL-41206  25.501   3.840  10.896
79676CL-    CL-41207  36.963  38.419  11.521
79677CL-    CL-41208  11.678  40.349   2.278
79678CL-    CL-41209  36.863  23.049   4.354
79679CL-    CL-41210  40.530  35.911  10.034
79680CL-    CL-41211  25.693  42.285  11.977
79681CL-    CL-41212  27.139   5.351   0.877
79682CL-    CL-41213  16.304  42.830   0.367
79683CL-    CL-41214  18.606  36.880  11.891
79684CL-    CL-41215  30.990   4.895   4.829
79685CL-    CL-41216  37.847  15.579  11.486
79686CL-    CL-41217  15.301   0.340   2.777
79687CL-    CL-41218   5.847  10.831   1.254
79688CL-    CL-41219  39.871  24.496   2.357
79689CL-    CL-41220  34.493  11.864   1.882
79690CL-    CL-41221   2.756  34.930  11.554
79691CL-    CL-41222  34.500  19.209   5.167
79692CL-    CL-41223  26.120  21.640   1.814
79693CL-    CL-41224  18.077  31.980  12.089
79694CL-    CL-41225   5.868   3.264  14.844
79695CL-    CL-41226   9.713   5.926  13.921
79696CL-    CL-41227  42.995  35.909  13.351
79697CL-    CL-41228   8.264  43.368   2.705
79698CL-    CL-41229  38.932   3.905   2.272
79699CL-    CL-41230  39.506   4.728  13.390
79700CL-    CL-41231  17.766  16.255   1.922
79701CL-    CL-41232  19.171  25.635   4.788
79702CL-    CL-41233  29.500  21.717   1.316
79703CL-    CL-41234   4.293  34.609  13.310
79704CL-    CL-41235  34.988  41.972  11.447
79705CL-    CL-41236  17.115  39.013   3.285
79706CL-    CL-41237  14.318  13.176   4.120
79707CL-    CL-41238  17.588  35.900   4.777
79708CL-    CL-41239  11.735  35.560  12.067
79709CL-    CL-41240  22.722  14.280   2.369
79710CL-    CL-41241  27.039  19.745   3.269
79711CL-    CL-41242  38.890  30.990   1.749
79712CL-    CL-41243  29.058  19.127   4.252
79713CL-    CL-41244  24.988  36.899   4.263
79714CL-    CL-41245  20.257  29.014   0.932
79715CL-    CL-41246  37.979  29.051  12.957
79716CL-    CL-41247  20.653   2.341   1.811
79717CL-    CL-41248   4.410  26.604  14.019
79718CL-    CL-41249  43.805  19.672   3.280
79719CL-    CL-41250  18.760  13.823   3.259
79720CL-    CL-41251   7.893  16.709   3.726
79721CL-    CL-41252  43.494  10.216  13.404
79722CL-    CL-41253   3.358  39.857   1.877
79723CL-    CL-41254  12.268  12.338   4.247
79724CL-    CL-41255  28.077  43.417   2.308
79725CL-    CL-41256  39.057   1.318   1.801
79726CL-    CL-41257  33.588  41.802   4.616
79727CL-    CL-41258  42.998  31.115   1.763
79728CL-    CL-41259  31.085   5.906   3.362
79729CL-    CL-41260  18.776  38.872   3.318
79730CL-    CL-41261  42.298  29.505  12.414
79731CL-    CL-41262  43.907  21.175   3.835
79732CL-    CL-41263  35.434  43.423   0.945
79733CL-    CL-41264  35.364   9.258  12.968
79734CL-    CL-41265  37.507  20.157   4.833
79735CL-    CL-41266  20.228  33.514  11.608
79736CL-    CL-41267  38.867  31.422   0.313
79737CL-    CL-41268   7.343   0.440  13.982
79738CL-    CL-41269  27.688  18.065   2.249
79739CL-    CL-41270  44.001  11.146  11.503
79740CL-    CL-41271   0.867   0.425  11.127
79741CL-    CL-41272   6.691  12.811  12.977
79742CL-    CL-41273  21.119  43.282   1.832
79743CL-    CL-41274  25.494  15.210  13.997
79744CL-    CL-41275  30.997  43.767  14.410
79745CL-    CL-41276  21.242  13.322  11.495
79746CL-    CL-41277  20.533  15.684   2.841
79747CL-    CL-41278  15.163  27.657   1.761
79748CL-    CL-41279  37.436  19.215   0.845
79749CL-    CL-41280  12.289   9.757  11.485
79750CL-    CL-41281  25.671  39.005   5.088
79751CL-    CL-41282   7.862  32.904   4.838
79752CL-    CL-41283   0.379  33.050   1.911
79753CL-    CL-41284  11.848  10.635  11.437
79754CL-    CL-41285  19.181  43.910  14.394
79755CL-    CL-41286  42.481   0.953   3.668
79756CL-    CL-41287   6.869  18.748   3.734
79757CL-    CL-41288  32.493   5.918   1.880
79758CL-    CL-41289  30.504  19.248  12.462
79759CL-    CL-41290  44.374  39.032   4.264
79760CL-    CL-41291  36.032  31.438   3.635
79761CL-    CL-41292  44.366  18.243  13.017
79762CL-    CL-41293   5.334   7.227  13.920
79763CL-    CL-41294  12.649  36.003   1.795
79764CL-    CL-41295  15.806  15.704   5.290
79765CL-    CL-41296   8.896  33.987   4.192
79766CL-    CL-41297   0.389  43.393  12.376
79767CL-    CL-41298  40.520  12.309  10.452
79768CL-    CL-41299  38.439  25.632   4.822
79769CL-    CL-41300  30.104  26.602   3.289
79770CL-    CL-41301  28.646  32.098   3.295
79771CL-    CL-41302  35.876   0.258   0.827
79772CL-    CL-41303   0.467  15.764   0.924
79773CL-    CL-41304  34.615   0.845  11.955
79774CL-    CL-41305  32.099  30.948  12.981
79775CL-    CL-41306  39.418  31.056   3.862
79776CL-    CL-41307  44.771  24.124  12.547
79777CL-    CL-41308   1.356  38.920  13.455
79778CL-    CL-41309  11.272  19.570  11.473
79779CL-    CL-41310  22.221   3.274  10.509
79780CL-    CL-41311  29.569  35.390   3.758
79781CL-    CL-41312  34.490  33.078  12.893
79782CL-    CL-41313  17.067   0.443   2.306
79783CL-    CL-41314  25.538  31.468  13.927
79784CL-    CL-41315  12.229  27.100   1.776
79785CL-    CL-41316   8.759   8.729   4.618
79786CL-    CL-41317   1.935  25.534   2.372
79787CL-    CL-41318  12.171  36.501  14.501
79788CL-    CL-41319  43.815  43.490   3.224
79789CL-    CL-41320   5.438  26.508   0.964
79790CL-    CL-41321  42.923  34.572  11.598
79791CL-    CL-41322  40.422  25.582  14.903
79792CL-    CL-41323  30.140   0.399   1.860
79793CL-    CL-41324  11.303  20.049  14.492
79794CL-    CL-41325   2.741  19.778   4.157
79795CL-    CL-41326  17.167  27.483   0.951
79796CL-    CL-41327  24.488  13.741   2.228
79797CL-    CL-41328  31.436  16.623   4.650
79798CL-    CL-41329  11.178   8.205  14.489
79799CL-    CL-41330   9.810  40.408  11.392
79800CL-    CL-41331  13.827  13.257   2.198
79801CL-    CL-41332  19.611  15.790   2.401
79802CL-    CL-41333  35.496  13.649   1.820
79803CL-    CL-41334  27.658  16.598   0.331
79804CL-    CL-41335  19.645  23.530  14.934
79805CL-    CL-41336  29.978  31.912   3.659
79806CL-    CL-41337  21.755  13.716   0.268
79807CL-    CL-41338  18.260  34.482   4.728
79808CL-    CL-41339  13.805  24.547   2.293
79809CL-    CL-41340  14.703  30.646   4.745
79810CL-    CL-41341  35.036  25.645  14.986
79811CL-    CL-41342  30.626  34.059   3.689
79812CL-    CL-41343  15.105  42.499  14.965
79813CL-    CL-41344   6.319  18.617  14.394
79814CL-    CL-41345   6.383  39.453  13.455
79815CL-    CL-41346  42.306  38.849  13.062
79816CL-    CL-41347   0.925  23.606   0.323
79817CL-    CL-41348  32.481  19.659   4.685
79818CL-    CL-41349  15.640  30.473   4.814
79819CL-    CL-41350  32.406   3.360   0.245
79820CL-    CL-41351  30.646  17.110   4.129
79821CL-    CL-41352   1.832  12.845   1.289
79822CL-    CL-41353   7.234  40.887   2.379
79823CL-    CL-41354  16.224   1.464  11.448
79824CL-    CL-41355   6.696  11.240  11.051
79825CL-    CL-41356  12.326  18.584  10.589
79826CL-    CL-41357  11.322   9.842   3.289
79827CL-    CL-41358  41.815  12.227   2.689
79828CL-    CL-41359  19.203   3.851  14.504
79829CL-    CL-41360  30.053  14.665  14.931
79830CL-    CL-41361  23.118  43.890   2.858
79831CL-    CL-41362   5.734   2.384   3.350
79832CL-    CL-41363  44.954  12.757   4.816
79833CL-    CL-41364  43.819  37.446   4.802
79834CL-    CL-41365   7.817   7.305   3.305
79835CL-    CL-41366  30.941  15.300   9.529
79836CL-    CL-41367  34.988  38.398  11.495
79837CL-    CL-41368  35.399  16.298   0.957
79838CL-    CL-41369  35.931  28.674   0.433
79839CL-    CL-41370  28.667  10.741   1.284
79840CL-    CL-41371  24.724  30.446   0.370
79841CL-    CL-41372  19.690  28.523  10.436
79842CL-    CL-41373  36.532  23.715  10.614
79843CL-    CL-41374  21.212   7.402   1.700
79844CL-    CL-41375   2.356  33.516   9.929
79845CL-    CL-41376  36.032  21.218  14.920
79846CL-    CL-41377  23.555  28.593   3.737
79847CL-    CL-41378  41.895  22.694   4.124
79848CL-    CL-41379  27.638  28.068  11.872
79849CL-    CL-41380  26.013  24.016   3.714
79850CL-    CL-41381   1.405  29.016   2.855
79851CL-    CL-41382  11.147  33.048  11.000
79852CL-    CL-41383  29.628  43.516  11.558
79853CL-    CL-41384  28.982  10.253   5.714
79854CL-    CL-41385  35.875  33.550  13.501
79855CL-    CL-41386  16.167   3.742  11.501
79856CL-    CL-41387   7.841   8.256   4.229
79857CL-    CL-41388  11.848  29.017   1.429
79858CL-    CL-41389   7.406  40.537  12.445
79859CL-    CL-41390  36.919  26.135   0.404
79860CL-    CL-41391  29.923   9.286  11.950
79861CL-    CL-41392  23.027  31.039  12.086
79862CL-    CL-41393   0.309  16.616   1.883
79863CL-    CL-41394   8.216   9.866   3.677
79864CL-    CL-41395   8.883  15.724  14.446
79865CL-    CL-41396  44.332  28.545  14.870
79866CL-    CL-41397  10.280  27.063  10.612
79867CL-    CL-41398  44.801   7.671  10.503
79868CL-    CL-41399  20.633  18.695  13.441
79869CL-    CL-41400   1.313  30.096   3.853
79870CL-    CL-41401  25.553  38.003   4.788
79871CL-    CL-41402   3.806  11.187  11.094
79872CL-    CL-41403  27.045  23.067  11.103
79873CL-    CL-41404   4.794   9.855  12.089
79874CL-    CL-41405  42.956  37.454   0.462
79875CL-    CL-41406  19.669   5.427   1.852
79876CL-    CL-41407   2.890  11.161  13.838
79877CL-    CL-41408  16.122  30.942   3.722
79878CL-    CL-41409  36.417   0.787  12.517
79879CL-    CL-41410  31.416   8.267   5.237
79880CL-    CL-41411  40.895  13.202  11.887
79881CL-    CL-41412   8.173  13.619  14.371
79882CL-    CL-41413   7.279  26.643   1.754
79883CL-    CL-41414  21.525  37.896  11.613
79884CL-    CL-41415   6.769  25.560  14.379
79885CL-    CL-41416  35.868  24.587   1.329
79886CL-    CL-41417  29.128  13.125   2.731
79887CL-    CL-41418  42.426  36.002   1.343
79888CL-    CL-41419   7.847  19.080  14.499
79889CL-    CL-41420   9.701  15.789  12.945
79890CL-    CL-41421  17.115  25.974   4.834
79891CL-    CL-41422   1.352  17.161  12.923
79892CL-    CL-41423  22.029  11.737  13.906
79893CL-    CL-41424  23.686   4.412  12.555
79894CL-    CL-41425  35.461   8.802  10.534
79895CL-    CL-41426  44.429  13.610  11.472
79896CL-    CL-41427  13.818   7.702  12.580
79897CL-    CL-41428   0.263  37.420  12.958
79898CL-    CL-41429  17.247  28.586   0.270
79899CL-    CL-41430  37.973  21.206  10.489
79900CL-    CL-41431  33.044  26.005  11.400
79901CL-    CL-41432  35.400  31.098   0.815
79902CL-    CL-41433  13.681  24.708   3.358
79903CL-    CL-41434  28.068  43.821  10.576
79904CL-    CL-41435  16.655   2.303  13.860
79905CL-    CL-41436  11.833  15.134   2.727
79906CL-    CL-41437  19.278  27.992   0.869
79907CL-    CL-41438  27.130  21.710   0.344
79908CL-    CL-41439  15.694  29.488  10.428
79909CL-    CL-41440  27.942   0.874  11.013
79910CL-    CL-41441  32.569   9.278  14.799
79911CL-    CL-41442  40.052  43.309  10.417
79912CL-    CL-41443   5.265  24.155   4.769
79913CL-    CL-41444  26.190  33.438  12.520
79914CL-    CL-41445  14.778   8.335  10.989
79915CL-    CL-41446  19.637  32.139  12.553
79916CL-    CL-41447  35.048  10.669   4.729
79917CL-    CL-41448   5.923  44.467  11.975
79918CL-    CL-41449  13.747  33.580   4.630
79919CL-    CL-41450  35.479  16.706  11.867
79920CL-    CL-41451  19.207  39.016   2.290
79921CL-    CL-41452  38.383  29.599  12.068
79922CL-    CL-41453  35.982  43.865   2.902
79923CL-    CL-41454  16.277   3.921  13.387
79924CL-    CL-41455  26.553  42.015   3.819
79925CL-    CL-41456  22.251  15.598   3.350
79926CL-    CL-41457   1.973  41.506   4.795
79927CL-    CL-41458  35.361  43.284  13.791
79928CL-    CL-41459  40.467  33.118  14.868
79929CL-    CL-41460  23.054  22.504  13.870
79930CL-    CL-41461  42.473  21.177  12.825
79931CL-    CL-41462  16.791  26.514   3.657
79932CL-    CL-41463  21.634  25.097  11.970
79933CL-    CL-41464  25.667  30.056  14.870
79934CL-    CL-41465   2.411  10.206   5.267
79935CL-    CL-41466   2.911   8.863   1.785
79936CL-    CL-41467  37.416  32.086  13.938
79937CL-    CL-41468  21.249  11.345   4.129
79938CL-    CL-41469  42.988  19.773  10.159
79939CL-    CL-41470  22.194  36.581  12.014
79940CL-    CL-41471   2.818  42.013  13.950
79941CL-    CL-41472  16.182  31.447  11.028
79942CL-    CL-41473  25.020   7.718   0.864
79943CL-    CL-41474  13.277  25.090  11.026
79944CL-    CL-41475  31.583   1.751   1.885
79945CL-    CL-41476  26.475  31.417   2.849
79946CL-    CL-41477   1.842  18.742   1.885
79947CL-    CL-41478  13.301  26.042   3.242
79948CL-    CL-41479   4.698  21.533  12.564
79949CL-    CL-41480   2.410  30.630   0.432
79950CL-    CL-41481  30.127  16.677  14.765
79951CL-    CL-41482  24.039  21.049   4.132
79952CL-    CL-41483  12.618   5.283  10.589
79953CL-    CL-41484  14.800  38.497   1.398
79954CL-    CL-41485   2.923  10.720  12.985
79955CL-    CL-41486   4.799  19.103   4.264
79956CL-    CL-41487  16.645   8.343  11.988
79957CL-    CL-41488  27.069  29.101  14.340
79958CL-    CL-41489  22.517  43.826  11.073
79959CL-    CL-41490   0.328   0.466  14.338
79960CL-    CL-41491  29.095  20.099  13.404
79961CL-    CL-41492  43.334  32.465   3.368
79962CL-    CL-41493  40.364  16.802  11.855
79963CL-    CL-41494  40.937  17.114   2.371
79964CL-    CL-41495  44.821  24.524  14.297
79965CL-    CL-41496  22.519  31.413   2.894
79966CL-    CL-41497   9.270   4.424  14.899
79967CL-    CL-41498  21.024   6.836   2.349
79968CL-    CL-41499   8.405  42.969   4.717
79969CL-    CL-41500   8.361  22.592   1.426
79970CL-    CL-41501  43.788  24.488  12.539
79971CL-    CL-41502  40.011  18.149  12.427
79972CL-    CL-41503   5.882  17.617   0.399
79973CL-    CL-41504  13.345   2.335  13.548
79974CL-    CL-41505  36.418   7.711   0.870
79975CL-    CL-41506  39.423  17.097   3.703
79976CL-    CL-41507  17.599  30.135   1.907
79977CL-    CL-41508  14.323  35.590   3.709
79978CL-    CL-41509   6.418   9.389   4.164
79979CL-    CL-41510  29.556  23.548  13.021
79980CL-    CL-41511   2.919  18.621  12.358
79981CL-    CL-41512  17.278  33.499   0.950
79982CL-    CL-41513   4.738  23.566  12.825
79983CL-    CL-41514  38.047   8.291   5.637
79984CL-    CL-41515  21.246   2.771  10.505
79985CL-    CL-41516   7.365  18.079  11.431
79986CL-    CL-41517  15.816  40.420   3.291
79987CL-    CL-41518  16.781  38.410  13.375
79988CL-    CL-41519  18.601  30.509  11.869
79989CL-    CL-41520   2.773   5.784   0.823
79990CL-    CL-41521  40.957  33.917  14.784
79991CL-    CL-41522  19.735  36.987  14.881
79992CL-    CL-41523  40.363  41.866  13.468
79993CL-    CL-41524  30.462   0.762  11.995
79994CL-    CL-41525   7.880  26.022   4.652
79995CL-    CL-41526  25.618  43.815  13.021
  45.00000  45.00000  15.00000   0.00000   0.00000   0.00000   0.00000   0.00000   0.00000

